Glycine aRginine prOline Methionine Alanine Cystine Serine
22000
    1HO4     OW    1   5.082   5.082   5.053
    1HO4    HW1    2   5.164   5.082   5.111
    1HO4    HW2    3   5.000   5.082   5.111
    1HO4     MW    4   5.082   5.082   5.053
    2HO4     OW    5   6.173   2.526   0.145
    2HO4    HW1    6   6.124   2.547   0.230
    2HO4    HW2    7   6.200   2.612   0.100
    2HO4     MW    8   6.173   2.526   0.145
    3HO4     OW    9   7.883   8.373   8.951
    3HO4    HW1   10   7.789   8.390   8.979
    3HO4    HW2   11   7.943   8.377   9.032
    3HO4     MW   12   7.883   8.373   8.951
    4HO4     OW   13   6.928   3.723   4.427
    4HO4    HW1   14   6.930   3.794   4.498
    4HO4    HW2   15   7.009   3.730   4.369
    4HO4     MW   16   6.928   3.723   4.427
    5HO4     OW   17   8.163   0.161   0.931
    5HO4    HW1   18   8.141   0.152   0.833
    5HO4    HW2   19   8.101   0.104   0.985
    5HO4     MW   20   8.163   0.161   0.931
    6HO4     OW   21   4.028   8.339   8.638
    6HO4    HW1   22   3.987   8.368   8.724
    6HO4    HW2   23   3.964   8.354   8.562
    6HO4     MW   24   4.028   8.339   8.638
    7HO4     OW   25   2.463   1.651   4.131
    7HO4    HW1   26   2.407   1.718   4.181
    7HO4    HW2   27   2.431   1.558   4.153
    7HO4     MW   28   2.463   1.651   4.131
    8HO4     OW   29   2.065   7.631   4.555
    8HO4    HW1   30   2.034   7.576   4.634
    8HO4    HW2   31   2.106   7.716   4.589
    8HO4     MW   32   2.065   7.631   4.555
    9HO4     OW   33   9.845   0.866   3.036
    9HO4    HW1   34   9.785   0.796   3.075
    9HO4    HW2   35   9.828   0.874   2.937
    9HO4     MW   36   9.845   0.866   3.036
   10HO4     OW   37   3.681   0.566   6.308
   10HO4    HW1   38   3.677   0.507   6.227
   10HO4    HW2   39   3.749   0.530   6.372
   10HO4     MW   40   3.681   0.566   6.308
   11HO4     OW   41   9.634   4.697   6.639
   11HO4    HW1   42   9.570   4.711   6.715
   11HO4    HW2   43   9.647   4.598   6.623
   11HO4     MW   44   9.634   4.697   6.639
   12HO4     OW   45   3.665   3.253  10.121
   12HO4    HW1   46   3.670   3.194  10.202
   12HO4    HW2   47   3.674   3.198  10.038
   12HO4     MW   48   3.665   3.253  10.121
   13HO4     OW   49   9.854   5.235   3.051
   13HO4    HW1   50   9.810   5.147   3.031
   13HO4    HW2   51   9.813   5.276   3.133
   13HO4     MW   52   9.854   5.235   3.051
   14HO4     OW   53   2.114   8.787   1.269
   14HO4    HW1   54   2.100   8.836   1.356
   14HO4    HW2   55   2.157   8.848   1.203
   14HO4     MW   56   2.114   8.787   1.269
   15HO4     OW   57   4.703   0.479   8.433
   15HO4    HW1   58   4.660   0.415   8.368
   15HO4    HW2   59   4.646   0.486   8.515
   15HO4     MW   60   4.703   0.479   8.433
   16HO4     OW   61   0.420   6.945   8.426
   16HO4    HW1   62   0.385   6.992   8.508
   16HO4    HW2   63   0.379   6.987   8.345
   16HO4     MW   64   0.420   6.945   8.426
   17HO4     OW   65   5.312   1.577   3.088
   17HO4    HW1   66   5.291   1.604   2.994
   17HO4    HW2   67   5.374   1.498   3.087
   17HO4     MW   68   5.312   1.577   3.088
   18HO4     OW   69   6.571   2.864   0.531
   18HO4    HW1   70   6.488   2.827   0.487
   18HO4    HW2   71   6.587   2.958   0.498
   18HO4     MW   72   6.571   2.864   0.531
   19HO4     OW   73   9.976   4.819   6.116
   19HO4    HW1   74   9.965   4.776   6.206
   19HO4    HW2   75   9.992   4.748   6.047
   19HO4     MW   76   9.976   4.819   6.116
   20HO4     OW   77   7.301   0.472   4.896
   20HO4    HW1   78   7.234   0.479   4.971
   20HO4    HW2   79   7.257   0.494   4.809
   20HO4     MW   80   7.301   0.472   4.896
   21HO4     OW   81   3.800   2.513   4.180
   21HO4    HW1   82   3.853   2.510   4.265
   21HO4    HW2   83   3.863   2.504   4.102
   21HO4     MW   84   3.800   2.513   4.180
   22HO4     OW   85   3.431   5.778   0.718
   22HO4    HW1   86   3.435   5.679   0.708
   22HO4    HW2   87   3.370   5.802   0.794
   22HO4     MW   88   3.431   5.778   0.718
   23HO4     OW   89   7.387   3.124   5.404
   23HO4    HW1   90   7.303   3.078   5.436
   23HO4    HW2   91   7.457   3.054   5.385
   23HO4     MW   92   7.387   3.124   5.404
   24HO4     OW   93   2.427   2.294   4.967
   24HO4    HW1   94   2.398   2.236   4.890
   24HO4    HW2   95   2.409   2.246   5.054
   24HO4     MW   96   2.427   2.294   4.967
   25HO4     OW   97   6.280  10.032   5.954
   25HO4    HW1   98   6.277  10.103   6.026
   25HO4    HW2   99   6.328   9.952   5.989
   25HO4     MW  100   6.280  10.032   5.954
   26HO4     OW  101   6.458   2.335   9.768
   26HO4    HW1  102   6.409   2.249   9.781
   26HO4    HW2  103   6.394   2.412   9.775
   26HO4     MW  104   6.458   2.335   9.768
   27HO4     OW  105   7.660   6.169   1.850
   27HO4    HW1  106   7.605   6.116   1.915
   27HO4    HW2  107   7.622   6.261   1.839
   27HO4     MW  108   7.660   6.169   1.850
   28HO4     OW  109   9.831   3.966   7.485
   28HO4    HW1  110   9.910   3.968   7.423
   28HO4    HW2  111   9.829   4.051   7.539
   28HO4     MW  112   9.831   3.966   7.485
   29HO4     OW  113   2.261   1.278   0.119
   29HO4    HW1  114   2.233   1.187   0.149
   29HO4    HW2  115   2.279   1.276   0.020
   29HO4     MW  116   2.261   1.278   0.119
   30HO4     OW  117   0.179   2.568   4.528
   30HO4    HW1  118   0.135   2.527   4.608
   30HO4    HW2  119   0.115   2.568   4.451
   30HO4     MW  120   0.179   2.568   4.528
   31HO4     OW  121   2.050   3.946   0.990
   31HO4    HW1  122   2.049   3.904   1.081
   31HO4    HW2  123   2.017   3.880   0.922
   31HO4     MW  124   2.050   3.946   0.990
   32HO4     OW  125   1.804   5.275   6.496
   32HO4    HW1  126   1.807   5.266   6.596
   32HO4    HW2  127   1.881   5.225   6.456
   32HO4     MW  128   1.804   5.275   6.496
   33HO4     OW  129   7.085   7.402   7.481
   33HO4    HW1  130   7.131   7.422   7.568
   33HO4    HW2  131   7.000   7.353   7.498
   33HO4     MW  132   7.085   7.402   7.481
   34HO4     OW  133   5.543   5.155   5.204
   34HO4    HW1  134   5.640   5.129   5.197
   34HO4    HW2  135   5.487   5.089   5.153
   34HO4     MW  136   5.543   5.155   5.204
   35HO4     OW  137   1.652   3.322   3.092
   35HO4    HW1  138   1.702   3.243   3.055
   35HO4    HW2  139   1.714   3.401   3.097
   35HO4     MW  140   1.652   3.322   3.092
   36HO4     OW  141   1.181   4.048   5.196
   36HO4    HW1  142   1.091   4.073   5.158
   36HO4    HW2  143   1.172   4.036   5.296
   36HO4     MW  144   1.181   4.048   5.196
   37HO4     OW  145   8.044   3.202   4.037
   37HO4    HW1  146   8.073   3.171   4.128
   37HO4    HW2  147   8.075   3.137   3.967
   37HO4     MW  148   8.044   3.202   4.037
   38HO4     OW  149   3.486   7.971   0.331
   38HO4    HW1  150   3.449   7.878   0.334
   38HO4    HW2  151   3.443   8.026   0.403
   38HO4     MW  152   3.486   7.971   0.331
   39HO4     OW  153   7.400   5.511   2.309
   39HO4    HW1  154   7.470   5.566   2.356
   39HO4    HW2  155   7.352   5.567   2.242
   39HO4     MW  156   7.400   5.511   2.309
   40HO4     OW  157   4.205   2.474   7.449
   40HO4    HW1  158   4.259   2.497   7.368
   40HO4    HW2  159   4.240   2.524   7.529
   40HO4     MW  160   4.205   2.474   7.449
   41HO4     OW  161   2.282   9.142   4.297
   41HO4    HW1  162   2.189   9.106   4.295
   41HO4    HW2  163   2.341   9.079   4.349
   41HO4     MW  164   2.282   9.142   4.297
   42HO4     OW  165   6.925   4.922   0.047
   42HO4    HW1  166   6.892   4.888   0.135
   42HO4    HW2  167   6.907   5.021   0.040
   42HO4     MW  168   6.925   4.922   0.047
   43HO4     OW  169   2.792   9.836   7.996
   43HO4    HW1  170   2.829   9.744   7.979
   43HO4    HW2  171   2.751   9.840   8.088
   43HO4     MW  172   2.792   9.836   7.996
   44HO4     OW  173   6.575   2.508   3.056
   44HO4    HW1  174   6.622   2.500   2.968
   44HO4    HW2  175   6.634   2.559   3.120
   44HO4     MW  176   6.575   2.508   3.056
   45HO4     OW  177   9.130   7.686   6.677
   45HO4    HW1  178   9.134   7.711   6.580
   45HO4    HW2  179   9.188   7.748   6.730
   45HO4     MW  180   9.130   7.686   6.677
   46HO4     OW  181   1.164   7.483   0.680
   46HO4    HW1  182   1.161   7.408   0.612
   46HO4    HW2  183   1.243   7.541   0.661
   46HO4     MW  184   1.164   7.483   0.680
   47HO4     OW  185   4.766   9.258   7.946
   47HO4    HW1  186   4.859   9.235   7.976
   47HO4    HW2  187   4.741   9.202   7.867
   47HO4     MW  188   4.766   9.258   7.946
   48HO4     OW  189   9.622   2.873   5.226
   48HO4    HW1  190   9.595   2.932   5.150
   48HO4    HW2  191   9.601   2.919   5.313
   48HO4     MW  192   9.622   2.873   5.226
   49HO4     OW  193   6.175   1.817   9.804
   49HO4    HW1  194   6.184   1.725   9.844
   49HO4    HW2  195   6.103   1.817   9.735
   49HO4     MW  196   6.175   1.817   9.804
   50HO4     OW  197   0.207   4.892   4.077
   50HO4    HW1  198   0.301   4.882   4.112
   50HO4    HW2  199   0.184   4.812   4.021
   50HO4     MW  200   0.207   4.892   4.077
   51HO4     OW  201   6.168   2.509   7.641
   51HO4    HW1  202   6.096   2.536   7.576
   51HO4    HW2  203   6.130   2.502   7.733
   51HO4     MW  204   6.168   2.509   7.641
   52HO4     OW  205   4.574   3.303  10.004
   52HO4    HW1  206   4.650   3.289   9.941
   52HO4    HW2  207   4.555   3.402  10.012
   52HO4     MW  208   4.574   3.303  10.004
   53HO4     OW  209   3.404   3.844   5.019
   53HO4    HW1  210   3.420   3.842   5.118
   53HO4    HW2  211   3.492   3.833   4.971
   53HO4     MW  212   3.404   3.844   5.019
   54HO4     OW  213   9.102   7.728   0.614
   54HO4    HW1  214   9.118   7.797   0.685
   54HO4    HW2  215   9.151   7.755   0.530
   54HO4     MW  216   9.102   7.728   0.614
   55HO4     OW  217   0.079   3.409   4.893
   55HO4    HW1  218   0.106   3.504   4.872
   55HO4    HW2  219   0.061   3.360   4.807
   55HO4     MW  220   0.079   3.409   4.893
   56HO4     OW  221   1.210   3.503   6.315
   56HO4    HW1  222   1.151   3.431   6.351
   56HO4    HW2  223   1.243   3.560   6.391
   56HO4     MW  224   1.210   3.503   6.315
   57HO4     OW  225   0.071   2.517   2.352
   57HO4    HW1  226   0.031   2.432   2.388
   57HO4    HW2  227   0.077   2.512   2.252
   57HO4     MW  228   0.071   2.517   2.352
   58HO4     OW  229   5.741   8.576   8.738
   58HO4    HW1  230   5.768   8.658   8.687
   58HO4    HW2  231   5.750   8.594   8.837
   58HO4     MW  232   5.741   8.576   8.738
   59HO4     OW  233   5.709   6.943   9.838
   59HO4    HW1  234   5.703   6.843   9.847
   59HO4    HW2  235   5.728   6.983   9.929
   59HO4     MW  236   5.709   6.943   9.838
   60HO4     OW  237   9.950   3.662   2.740
   60HO4    HW1  238   9.984   3.611   2.819
   60HO4    HW2  239   9.997   3.631   2.657
   60HO4     MW  240   9.950   3.662   2.740
   61HO4     OW  241   1.470   1.194   3.796
   61HO4    HW1  242   1.461   1.293   3.810
   61HO4    HW2  243   1.549   1.159   3.847
   61HO4     MW  244   1.470   1.194   3.796
   62HO4     OW  245   9.201   4.770   3.006
   62HO4    HW1  246   9.238   4.738   3.094
   62HO4    HW2  247   9.118   4.720   2.983
   62HO4     MW  248   9.201   4.770   3.006
   63HO4     OW  249   6.201   1.264   6.963
   63HO4    HW1  250   6.278   1.315   6.922
   63HO4    HW2  251   6.201   1.279   7.062
   63HO4     MW  252   6.201   1.264   6.963
   64HO4     OW  253   5.845   3.040   5.850
   64HO4    HW1  254   5.757   3.063   5.893
   64HO4    HW2  255   5.901   2.988   5.915
   64HO4     MW  256   5.845   3.040   5.850
   65HO4     OW  257   5.470   0.184  10.066
   65HO4    HW1  258   5.505   0.274  10.093
   65HO4    HW2  259   5.395   0.196  10.000
   65HO4     MW  260   5.470   0.184  10.066
   66HO4     OW  261   9.715   2.789   7.433
   66HO4    HW1  262   9.717   2.888   7.415
   66HO4    HW2  263   9.753   2.740   7.353
   66HO4     MW  264   9.715   2.789   7.433
   67HO4     OW  265   4.739   1.717   4.450
   67HO4    HW1  266   4.772   1.752   4.361
   67HO4    HW2  267   4.793   1.636   4.476
   67HO4     MW  268   4.739   1.717   4.450
   68HO4     OW  269   0.794   1.929  10.146
   68HO4    HW1  270   0.814   1.895  10.238
   68HO4    HW2  271   0.869   1.989  10.116
   68HO4     MW  272   0.794   1.929  10.146
   69HO4     OW  273   8.007   6.803   4.789
   69HO4    HW1  274   8.032   6.856   4.708
   69HO4    HW2  275   7.945   6.857   4.847
   69HO4     MW  276   8.007   6.803   4.789
   70HO4     OW  277   6.925   1.166   1.719
   70HO4    HW1  278   6.865   1.235   1.762
   70HO4    HW2  279   6.980   1.210   1.648
   70HO4     MW  280   6.925   1.166   1.719
   71HO4     OW  281   8.385   9.075   1.612
   71HO4    HW1  282   8.447   9.029   1.547
   71HO4    HW2  283   8.411   9.171   1.620
   71HO4     MW  284   8.385   9.075   1.612
   72HO4     OW  285   7.745   7.973   0.902
   72HO4    HW1  286   7.804   7.906   0.858
   72HO4    HW2  287   7.658   7.980   0.851
   72HO4     MW  288   7.745   7.973   0.902
   73HO4     OW  289   3.897   1.250   2.120
   73HO4    HW1  290   3.997   1.244   2.110
   73HO4    HW2  291   3.870   1.346   2.126
   73HO4     MW  292   3.897   1.250   2.120
   74HO4     OW  293   2.414   9.882   8.447
   74HO4    HW1  294   2.422   9.847   8.354
   74HO4    HW2  295   2.411   9.982   8.445
   74HO4     MW  296   2.414   9.882   8.447
   75HO4     OW  297   8.212   3.912   4.943
   75HO4    HW1  298   8.256   3.877   4.861
   75HO4    HW2  299   8.272   3.979   4.988
   75HO4     MW  300   8.212   3.912   4.943
   76HO4     OW  301   3.559   2.271   7.991
   76HO4    HW1  302   3.569   2.278   8.091
   76HO4    HW2  303   3.574   2.361   7.949
   76HO4     MW  304   3.559   2.271   7.991
   77HO4     OW  305   7.299   9.072   2.075
   77HO4    HW1  306   7.234   8.998   2.092
   77HO4    HW2  307   7.370   9.071   2.146
   77HO4     MW  308   7.299   9.072   2.075
   78HO4     OW  309   8.896   8.496   2.076
   78HO4    HW1  310   8.910   8.504   2.176
   78HO4    HW2  311   8.984   8.479   2.031
   78HO4     MW  312   8.896   8.496   2.076
   79HO4     OW  313   0.119   4.865   4.877
   79HO4    HW1  314   0.197   4.900   4.824
   79HO4    HW2  315   0.139   4.771   4.907
   79HO4     MW  316   0.119   4.865   4.877
   80HO4     OW  317   1.970   1.878   7.598
   80HO4    HW1  318   1.970   1.820   7.680
   80HO4    HW2  319   1.983   1.821   7.516
   80HO4     MW  320   1.970   1.878   7.598
   81HO4     OW  321   7.332   6.503   6.238
   81HO4    HW1  322   7.358   6.433   6.306
   81HO4    HW2  323   7.408   6.518   6.174
   81HO4     MW  324   7.332   6.503   6.238
   82HO4     OW  325   4.546   4.122   6.937
   82HO4    HW1  326   4.483   4.090   6.866
   82HO4    HW2  327   4.552   4.053   7.010
   82HO4     MW  328   4.546   4.122   6.937
   83HO4     OW  329   8.477   2.254   9.656
   83HO4    HW1  330   8.567   2.283   9.622
   83HO4    HW2  331   8.405   2.291   9.597
   83HO4     MW  332   8.477   2.254   9.656
   84HO4     OW  333   4.091   1.095   8.211
   84HO4    HW1  334   4.113   1.084   8.308
   84HO4    HW2  335   4.158   1.157   8.168
   84HO4     MW  336   4.091   1.095   8.211
   85HO4     OW  337   4.636   8.795   7.223
   85HO4    HW1  338   4.581   8.736   7.164
   85HO4    HW2  339   4.617   8.774   7.319
   85HO4     MW  340   4.636   8.795   7.223
   86HO4     OW  341   1.114   2.643   2.039
   86HO4    HW1  342   1.020   2.672   2.021
   86HO4    HW2  343   1.174   2.723   2.041
   86HO4     MW  344   1.114   2.643   2.039
   87HO4     OW  345   9.580   7.163  -0.005
   87HO4    HW1  346   9.532   7.135   0.079
   87HO4    HW2  347   9.612   7.082  -0.054
   87HO4     MW  348   9.580   7.163  -0.005
   88HO4     OW  349   4.090   9.235   8.862
   88HO4    HW1  350   4.095   9.158   8.798
   88HO4    HW2  351   4.042   9.207   8.945
   88HO4     MW  352   4.090   9.235   8.862
   89HO4     OW  353   4.109   8.430   1.878
   89HO4    HW1  354   4.133   8.353   1.938
   89HO4    HW2  355   4.085   8.395   1.787
   89HO4     MW  356   4.109   8.430   1.878
   90HO4     OW  357   3.658   1.016   4.092
   90HO4    HW1  358   3.748   1.061   4.082
   90HO4    HW2  359   3.665   0.941   4.159
   90HO4     MW  360   3.658   1.016   4.092
   91HO4     OW  361   9.620   1.582   9.553
   91HO4    HW1  362   9.630   1.657   9.619
   91HO4    HW2  363   9.618   1.619   9.460
   91HO4     MW  364   9.620   1.582   9.553
   92HO4     OW  365   1.712   4.351   4.565
   92HO4    HW1  366   1.733   4.289   4.641
   92HO4    HW2  367   1.777   4.336   4.490
   92HO4     MW  368   1.712   4.351   4.565
   93HO4     OW  369   3.449   0.778   5.023
   93HO4    HW1  370   3.364   0.751   4.976
   93HO4    HW2  371   3.527   0.729   4.983
   93HO4     MW  372   3.449   0.778   5.023
   94HO4     OW  373   7.835   3.469   1.681
   94HO4    HW1  374   7.818   3.553   1.734
   94HO4    HW2  375   7.748   3.438   1.641
   94HO4     MW  376   7.835   3.469   1.681
   95HO4     OW  377   2.716   3.405   2.590
   95HO4    HW1  378   2.699   3.353   2.675
   95HO4    HW2  379   2.646   3.382   2.522
   95HO4     MW  380   2.716   3.405   2.590
   96HO4     OW  381   0.691   2.012   2.238
   96HO4    HW1  382   0.625   2.082   2.210
   96HO4    HW2  383   0.775   2.021   2.185
   96HO4     MW  384   0.691   2.012   2.238
   97HO4     OW  385   9.272   4.790   3.773
   97HO4    HW1  386   9.193   4.847   3.796
   97HO4    HW2  387   9.356   4.834   3.807
   97HO4     MW  388   9.272   4.790   3.773
   98HO4     OW  389   6.270   9.888   9.893
   98HO4    HW1  390   6.266   9.918   9.989
   98HO4    HW2  391   6.177   9.888   9.855
   98HO4     MW  392   6.270   9.888   9.893
   99HO4     OW  393   7.147   7.693   3.413
   99HO4    HW1  394   7.221   7.628   3.393
   99HO4    HW2  395   7.170   7.745   3.496
   99HO4     MW  396   7.147   7.693   3.413
  100HO4     OW  397   9.427   2.982   7.235
  100HO4    HW1  398   9.397   2.978   7.330
  100HO4    HW2  399   9.372   2.919   7.180
  100HO4     MW  400   9.427   2.982   7.235
  101HO4     OW  401   4.162   5.155   8.018
  101HO4    HW1  402   4.209   5.154   7.929
  101HO4    HW2  403   4.229   5.177   8.090
  101HO4     MW  404   4.162   5.155   8.018
  102HO4     OW  405   9.645   8.907   2.159
  102HO4    HW1  406   9.599   8.974   2.219
  102HO4    HW2  407   9.653   8.819   2.206
  102HO4     MW  408   9.645   8.907   2.159
  103HO4     OW  409   5.168   8.570   1.575
  103HO4    HW1  410   5.212   8.598   1.489
  103HO4    HW2  411   5.107   8.643   1.607
  103HO4     MW  412   5.168   8.570   1.575
  104HO4     OW  413   2.878   1.692   4.476
  104HO4    HW1  414   2.816   1.766   4.503
  104HO4    HW2  415   2.918   1.651   4.558
  104HO4     MW  416   2.878   1.692   4.476
  105HO4     OW  417   7.403   2.675   7.090
  105HO4    HW1  418   7.397   2.582   7.129
  105HO4    HW2  419   7.428   2.740   7.163
  105HO4     MW  420   7.403   2.675   7.090
  106HO4     OW  421   6.385   9.092   0.939
  106HO4    HW1  422   6.451   9.098   0.863
  106HO4    HW2  423   6.435   9.096   1.026
  106HO4     MW  424   6.385   9.092   0.939
  107HO4     OW  425   3.035   1.227   0.680
  107HO4    HW1  426   3.010   1.324   0.690
  107HO4    HW2  427   2.954   1.173   0.658
  107HO4     MW  428   3.035   1.227   0.680
  108HO4     OW  429   9.101   1.321   0.014
  108HO4    HW1  430   9.115   1.321   0.114
  108HO4    HW2  431   9.135   1.407  -0.025
  108HO4     MW  432   9.101   1.321   0.014
  109HO4     OW  433  10.083   5.837   8.281
  109HO4    HW1  434  10.128   5.841   8.370
  109HO4    HW2  435  10.152   5.832   8.208
  109HO4     MW  436  10.083   5.837   8.281
  110HO4     OW  437   2.030   8.822   1.590
  110HO4    HW1  438   1.957   8.757   1.612
  110HO4    HW2  439   2.090   8.783   1.519
  110HO4     MW  440   2.030   8.822   1.590
  111HO4     OW  441   8.162   0.916   7.195
  111HO4    HW1  442   8.253   0.953   7.175
  111HO4    HW2  443   8.169   0.818   7.216
  111HO4     MW  444   8.162   0.916   7.195
  112HO4     OW  445   7.597   7.764   8.771
  112HO4    HW1  446   7.566   7.851   8.732
  112HO4    HW2  447   7.518   7.702   8.781
  112HO4     MW  448   7.597   7.764   8.771
  113HO4     OW  449   9.673   0.623   9.824
  113HO4    HW1  450   9.613   0.562   9.772
  113HO4    HW2  451   9.618   0.681   9.885
  113HO4     MW  452   9.673   0.623   9.824
  114HO4     OW  453   7.290   0.960   2.429
  114HO4    HW1  454   7.278   0.898   2.507
  114HO4    HW2  455   7.368   1.021   2.446
  114HO4     MW  456   7.290   0.960   2.429
  115HO4     OW  457   5.168   1.779   1.333
  115HO4    HW1  458   5.210   1.818   1.415
  115HO4    HW2  459   5.082   1.733   1.357
  115HO4     MW  460   5.168   1.779   1.333
  116HO4     OW  461   9.237   4.328   4.294
  116HO4    HW1  462   9.300   4.344   4.217
  116HO4    HW2  463   9.287   4.338   4.380
  116HO4     MW  464   9.237   4.328   4.294
  117HO4     OW  465   0.065   7.384   2.247
  117HO4    HW1  466   0.098   7.320   2.176
  117HO4    HW2  467   0.123   7.466   2.248
  117HO4     MW  468   0.065   7.384   2.247
  118HO4     OW  469   4.236   7.039   9.679
  118HO4    HW1  470   4.305   6.980   9.634
  118HO4    HW2  471   4.145   6.999   9.666
  118HO4     MW  472   4.236   7.039   9.679
  119HO4     OW  473   5.824   2.405   2.595
  119HO4    HW1  474   5.891   2.401   2.520
  119HO4    HW2  475   5.873   2.414   2.682
  119HO4     MW  476   5.824   2.405   2.595
  120HO4     OW  477   6.067   0.056   6.534
  120HO4    HW1  478   6.032   0.082   6.624
  120HO4    HW2  479   6.104   0.137   6.487
  120HO4     MW  480   6.067   0.056   6.534
  121HO4     OW  481   5.146   6.481   5.271
  121HO4    HW1  482   5.077   6.513   5.206
  121HO4    HW2  483   5.125   6.517   5.362
  121HO4     MW  484   5.146   6.481   5.271
  122HO4     OW  485   9.270   2.815   5.025
  122HO4    HW1  486   9.271   2.767   4.936
  122HO4    HW2  487   9.293   2.912   5.010
  122HO4     MW  488   9.270   2.815   5.025
  123HO4     OW  489   3.254   2.841   3.366
  123HO4    HW1  490   3.180   2.909   3.366
  123HO4    HW2  491   3.223   2.759   3.316
  123HO4     MW  492   3.254   2.841   3.366
  124HO4     OW  493   9.499   6.556   8.332
  124HO4    HW1  494   9.509   6.497   8.412
  124HO4    HW2  495   9.473   6.500   8.252
  124HO4     MW  496   9.499   6.556   8.332
  125HO4     OW  497   2.540   8.844   3.720
  125HO4    HW1  498   2.592   8.843   3.805
  125HO4    HW2  499   2.525   8.749   3.689
  125HO4     MW  500   2.540   8.844   3.720
  126HO4     OW  501   4.099   5.834   7.917
  126HO4    HW1  502   4.163   5.804   7.847
  126HO4    HW2  503   4.132   5.804   8.008
  126HO4     MW  504   4.099   5.834   7.917
  127HO4     OW  505   1.659   0.903   7.281
  127HO4    HW1  506   1.734   0.913   7.347
  127HO4    HW2  507   1.697   0.877   7.192
  127HO4     MW  508   1.659   0.903   7.281
  128HO4     OW  509   5.452   0.444   7.193
  128HO4    HW1  510   5.408   0.448   7.283
  128HO4    HW2  511   5.394   0.391   7.130
  128HO4     MW  512   5.452   0.444   7.193
  129HO4     OW  513   1.156   5.261   0.017
  129HO4    HW1  514   1.163   5.305  -0.074
  129HO4    HW2  515   1.093   5.314   0.074
  129HO4     MW  516   1.156   5.261   0.017
  130HO4     OW  517   8.705   9.081   9.468
  130HO4    HW1  518   8.788   9.129   9.497
  130HO4    HW2  519   8.648   9.144   9.415
  130HO4     MW  520   8.705   9.081   9.468
  131HO4     OW  521   9.315   9.539   0.129
  131HO4    HW1  522   9.356   9.525   0.220
  131HO4    HW2  523   9.215   9.543   0.138
  131HO4     MW  524   9.315   9.539   0.129
  132HO4     OW  525   6.810   8.057  10.104
  132HO4    HW1  526   6.771   7.965  10.116
  132HO4    HW2  527   6.869   8.057  10.023
  132HO4     MW  528   6.810   8.057  10.104
  133HO4     OW  529   3.377   5.986   7.071
  133HO4    HW1  530   3.323   6.023   7.147
  133HO4    HW2  531   3.366   6.045   6.990
  133HO4     MW  532   3.377   5.986   7.071
  134HO4     OW  533  10.165   4.132   1.837
  134HO4    HW1  534  10.227   4.210   1.847
  134HO4    HW2  535  10.097   4.135   1.911
  134HO4     MW  536  10.165   4.132   1.837
  135HO4     OW  537   6.041   8.963   0.783
  135HO4    HW1  538   5.993   8.931   0.701
  135HO4    HW2  539   6.085   9.051   0.764
  135HO4     MW  540   6.041   8.963   0.783
  136HO4     OW  541   5.393   6.644   0.072
  136HO4    HW1  542   5.382   6.544   0.068
  136HO4    HW2  543   5.361   6.684  -0.015
  136HO4     MW  544   5.393   6.644   0.072
  137HO4     OW  545   0.901   5.134   9.754
  137HO4    HW1  546   0.944   5.216   9.714
  137HO4    HW2  547   0.963   5.093   9.821
  137HO4     MW  548   0.901   5.134   9.754
  138HO4     OW  549   0.613   9.202   2.377
  138HO4    HW1  550   0.650   9.275   2.434
  138HO4    HW2  551   0.675   9.123   2.377
  138HO4     MW  552   0.613   9.202   2.377
  139HO4     OW  553   6.132   6.785   7.540
  139HO4    HW1  554   6.133   6.773   7.640
  139HO4    HW2  555   6.223   6.761   7.503
  139HO4     MW  556   6.132   6.785   7.540
  140HO4     OW  557   5.320   2.866   4.737
  140HO4    HW1  558   5.330   2.880   4.836
  140HO4    HW2  559   5.329   2.768   4.716
  140HO4     MW  560   5.320   2.866   4.737
  141HO4     OW  561   2.978   7.684   8.125
  141HO4    HW1  562   3.034   7.766   8.110
  141HO4    HW2  563   3.038   7.604   8.134
  141HO4     MW  564   2.978   7.684   8.125
  142HO4     OW  565   2.171   1.596   4.071
  142HO4    HW1  566   2.133   1.611   3.979
  142HO4    HW2  567   2.148   1.504   4.103
  142HO4     MW  568   2.171   1.596   4.071
  143HO4     OW  569   2.867   1.976   1.135
  143HO4    HW1  570   2.802   1.915   1.181
  143HO4    HW2  571   2.817   2.046   1.084
  143HO4     MW  572   2.867   1.976   1.135
  144HO4     OW  573   9.391   2.559   4.251
  144HO4    HW1  574   9.293   2.570   4.270
  144HO4    HW2  575   9.403   2.492   4.178
  144HO4     MW  576   9.391   2.559   4.251
  145HO4     OW  577   8.126   5.784   1.928
  145HO4    HW1  578   8.049   5.773   1.992
  145HO4    HW2  579   8.180   5.865   1.955
  145HO4     MW  580   8.126   5.784   1.928
  146HO4     OW  581   7.949   8.870   0.494
  146HO4    HW1  582   7.863   8.820   0.485
  146HO4    HW2  583   8.001   8.863   0.408
  146HO4     MW  584   7.949   8.870   0.494
  147HO4     OW  585   5.983   9.967   3.637
  147HO4    HW1  586   6.075   9.999   3.662
  147HO4    HW2  587   5.920   9.982   3.714
  147HO4     MW  588   5.983   9.967   3.637
  148HO4     OW  589   3.284   2.269   9.309
  148HO4    HW1  590   3.383   2.289   9.307
  148HO4    HW2  591   3.240   2.310   9.229
  148HO4     MW  592   3.284   2.269   9.309
  149HO4     OW  593   1.510   9.377   3.447
  149HO4    HW1  594   1.491   9.282   3.419
  149HO4    HW2  595   1.461   9.440   3.387
  149HO4     MW  596   1.510   9.377   3.447
  150HO4     OW  597   9.197   6.823   7.705
  150HO4    HW1  598   9.172   6.748   7.766
  150HO4    HW2  599   9.296   6.840   7.712
  150HO4     MW  600   9.197   6.823   7.705
  151HO4     OW  601   2.780   1.687   8.645
  151HO4    HW1  602   2.815   1.620   8.711
  151HO4    HW2  603   2.741   1.639   8.566
  151HO4     MW  604   2.780   1.687   8.645
  152HO4     OW  605   9.716   8.710   9.505
  152HO4    HW1  606   9.761   8.660   9.580
  152HO4    HW2  607   9.764   8.796   9.488
  152HO4     MW  608   9.716   8.710   9.505
  153HO4     OW  609   9.637   4.324   7.620
  153HO4    HW1  610   9.568   4.282   7.680
  153HO4    HW2  611   9.722   4.270   7.623
  153HO4     MW  612   9.637   4.324   7.620
  154HO4     OW  613   8.006   7.298   1.701
  154HO4    HW1  614   8.057   7.384   1.691
  154HO4    HW2  615   8.071   7.221   1.705
  154HO4     MW  616   8.006   7.298   1.701
  155HO4     OW  617   2.411   1.341   1.228
  155HO4    HW1  618   2.419   1.284   1.145
  155HO4    HW2  619   2.324   1.320   1.274
  155HO4     MW  620   2.411   1.341   1.228
  156HO4     OW  621   2.550   5.888   1.596
  156HO4    HW1  622   2.487   5.822   1.554
  156HO4    HW2  623   2.553   5.873   1.695
  156HO4     MW  624   2.550   5.888   1.596
  157HO4     OW  625   6.135   1.376   4.580
  157HO4    HW1  626   6.085   1.463   4.588
  157HO4    HW2  627   6.142   1.350   4.483
  157HO4     MW  628   6.135   1.376   4.580
  158HO4     OW  629   4.220   5.624   2.272
  158HO4    HW1  630   4.190   5.655   2.363
  158HO4    HW2  631   4.196   5.693   2.204
  158HO4     MW  632   4.220   5.624   2.272
  159HO4     OW  633   2.519   3.504   1.415
  159HO4    HW1  634   2.499   3.556   1.499
  159HO4    HW2  635   2.504   3.564   1.335
  159HO4     MW  636   2.519   3.504   1.415
  160HO4     OW  637   6.787   4.574   5.301
  160HO4    HW1  638   6.721   4.640   5.261
  160HO4    HW2  639   6.770   4.567   5.400
  160HO4     MW  640   6.787   4.574   5.301
  161HO4     OW  641   9.383   4.718   6.931
  161HO4    HW1  642   9.467   4.728   6.878
  161HO4    HW2  643   9.336   4.807   6.937
  161HO4     MW  644   9.383   4.718   6.931
  162HO4     OW  645   9.801   6.096   0.739
  162HO4    HW1  646   9.805   6.089   0.839
  162HO4    HW2  647   9.706   6.088   0.709
  162HO4     MW  648   9.801   6.096   0.739
  163HO4     OW  649   6.374   0.311   0.046
  163HO4    HW1  650   6.455   0.322  -0.013
  163HO4    HW2  651   6.400   0.260   0.128
  163HO4     MW  652   6.374   0.311   0.046
  164HO4     OW  653   3.529   8.225   7.307
  164HO4    HW1  654   3.569   8.143   7.347
  164HO4    HW2  655   3.432   8.232   7.334
  164HO4     MW  656   3.529   8.225   7.307
  165HO4     OW  657   9.259   3.095   0.098
  165HO4    HW1  658   9.241   3.006   0.140
  165HO4    HW2  659   9.267   3.084  -0.001
  165HO4     MW  660   9.259   3.095   0.098
  166HO4     OW  661   0.068   1.571   6.473
  166HO4    HW1  662   0.120   1.589   6.388
  166HO4    HW2  663   0.032   1.657   6.509
  166HO4     MW  664   0.068   1.571   6.473
  167HO4     OW  665   7.858   2.100   7.613
  167HO4    HW1  666   7.829   2.072   7.705
  167HO4    HW2  667   7.789   2.069   7.546
  167HO4     MW  668   7.858   2.100   7.613
  168HO4     OW  669   5.448   5.518   7.060
  168HO4    HW1  670   5.511   5.475   7.126
  168HO4    HW2  671   5.489   5.516   6.969
  168HO4     MW  672   5.448   5.518   7.060
  169HO4     OW  673   4.150   2.182   6.492
  169HO4    HW1  674   4.092   2.182   6.574
  169HO4    HW2  675   4.106   2.127   6.420
  169HO4     MW  676   4.150   2.182   6.492
  170HO4     OW  677   9.546   7.185   7.944
  170HO4    HW1  678   9.560   7.161   7.847
  170HO4    HW2  679   9.600   7.266   7.967
  170HO4     MW  680   9.546   7.185   7.944
  171HO4     OW  681   8.369   5.294   3.775
  171HO4    HW1  682   8.373   5.357   3.697
  171HO4    HW2  683   8.448   5.231   3.771
  171HO4     MW  684   8.369   5.294   3.775
  172HO4     OW  685   5.712   2.295   7.929
  172HO4    HW1  686   5.678   2.353   7.855
  172HO4    HW2  687   5.761   2.351   7.996
  172HO4     MW  688   5.712   2.295   7.929
  173HO4     OW  689   1.116   8.282   7.847
  173HO4    HW1  690   1.039   8.318   7.900
  173HO4    HW2  691   1.155   8.356   7.791
  173HO4     MW  692   1.116   8.282   7.847
  174HO4     OW  693   5.038   9.373   0.321
  174HO4    HW1  694   5.096   9.392   0.400
  174HO4    HW2  695   5.075   9.420   0.240
  174HO4     MW  696   5.038   9.373   0.321
  175HO4     OW  697   5.530   5.240   4.847
  175HO4    HW1  698   5.584   5.274   4.770
  175HO4    HW2  699   5.432   5.254   4.829
  175HO4     MW  700   5.530   5.240   4.847
  176HO4     OW  701   2.316   3.850   9.898
  176HO4    HW1  702   2.281   3.815   9.986
  176HO4    HW2  703   2.299   3.782   9.826
  176HO4     MW  704   2.316   3.850   9.898
  177HO4     OW  705   7.994   3.510   6.841
  177HO4    HW1  706   8.041   3.587   6.883
  177HO4    HW2  707   8.035   3.424   6.873
  177HO4     MW  708   7.994   3.510   6.841
  178HO4     OW  709   3.507   2.453   6.766
  178HO4    HW1  710   3.459   2.445   6.854
  178HO4    HW2  711   3.440   2.455   6.691
  178HO4     MW  712   3.507   2.453   6.766
  179HO4     OW  713   7.947   0.499   9.810
  179HO4    HW1  714   7.936   0.587   9.857
  179HO4    HW2  715   7.928   0.510   9.713
  179HO4     MW  716   7.947   0.499   9.810
  180HO4     OW  717   3.144   4.598   2.742
  180HO4    HW1  718   3.216   4.651   2.787
  180HO4    HW2  719   3.138   4.626   2.645
  180HO4     MW  720   3.144   4.598   2.742
  181HO4     OW  721   7.620   8.251   2.851
  181HO4    HW1  722   7.611   8.307   2.934
  181HO4    HW2  723   7.628   8.312   2.771
  181HO4     MW  724   7.620   8.251   2.851
  182HO4     OW  725   8.595   9.797   2.907
  182HO4    HW1  726   8.532   9.730   2.866
  182HO4    HW2  727   8.642   9.847   2.834
  182HO4     MW  728   8.595   9.797   2.907
  183HO4     OW  729   0.952   7.678   4.785
  183HO4    HW1  730   0.856   7.661   4.761
  183HO4    HW2  731   0.963   7.673   4.885
  183HO4     MW  732   0.952   7.678   4.785
  184HO4     OW  733   4.182   7.321   8.138
  184HO4    HW1  734   4.159   7.328   8.041
  184HO4    HW2  735   4.098   7.328   8.193
  184HO4     MW  736   4.182   7.321   8.138
  185HO4     OW  737   0.326   5.639   8.713
  185HO4    HW1  738   0.373   5.598   8.792
  185HO4    HW2  739   0.352   5.590   8.630
  185HO4     MW  740   0.326   5.639   8.713
  186HO4     OW  741   4.642   4.642   2.691
  186HO4    HW1  742   4.594   4.621   2.777
  186HO4    HW2  743   4.644   4.560   2.633
  186HO4     MW  744   4.642   4.642   2.691
  187HO4     OW  745   3.785   4.306   6.933
  187HO4    HW1  746   3.853   4.283   6.864
  187HO4    HW2  747   3.826   4.300   7.025
  187HO4     MW  748   3.785   4.306   6.933
  188HO4     OW  749   6.812   4.276   9.373
  188HO4    HW1  750   6.856   4.242   9.457
  188HO4    HW2  751   6.738   4.214   9.346
  188HO4     MW  752   6.812   4.276   9.373
  189HO4     OW  753   0.158   8.380   8.498
  189HO4    HW1  754   0.087   8.330   8.548
  189HO4    HW2  755   0.159   8.351   8.402
  189HO4     MW  756   0.158   8.380   8.498
  190HO4     OW  757   6.543   0.970   9.899
  190HO4    HW1  758   6.533   0.901   9.971
  190HO4    HW2  759   6.541   0.924   9.809
  190HO4     MW  760   6.543   0.970   9.899
  191HO4     OW  761   7.614   4.267   5.089
  191HO4    HW1  762   7.593   4.353   5.041
  191HO4    HW2  763   7.708   4.272   5.125
  191HO4     MW  764   7.614   4.267   5.089
  192HO4     OW  765   4.174   5.437  10.160
  192HO4    HW1  766   4.099   5.422  10.225
  192HO4    HW2  767   4.156   5.519  10.105
  192HO4     MW  768   4.174   5.437  10.160
  193HO4     OW  769   8.583   2.926   0.315
  193HO4    HW1  770   8.556   3.022   0.325
  193HO4    HW2  771   8.501   2.869   0.305
  193HO4     MW  772   8.583   2.926   0.315
  194HO4     OW  773   1.317   5.501   8.091
  194HO4    HW1  774   1.262   5.524   8.011
  194HO4    HW2  775   1.266   5.524   8.175
  194HO4     MW  776   1.317   5.501   8.091
  195HO4     OW  777   8.673   9.423   7.677
  195HO4    HW1  778   8.655   9.489   7.751
  195HO4    HW2  779   8.695   9.473   7.593
  195HO4     MW  780   8.673   9.423   7.677
  196HO4     OW  781   5.871   8.826   2.427
  196HO4    HW1  782   5.920   8.901   2.472
  196HO4    HW2  783   5.830   8.859   2.342
  196HO4     MW  784   5.871   8.826   2.427
  197HO4     OW  785   3.876   8.653   6.299
  197HO4    HW1  786   3.798   8.699   6.255
  197HO4    HW2  787   3.887   8.689   6.392
  197HO4     MW  788   3.876   8.653   6.299
  198HO4     OW  789   8.494   1.567   6.280
  198HO4    HW1  790   8.508   1.540   6.184
  198HO4    HW2  791   8.558   1.515   6.339
  198HO4     MW  792   8.494   1.567   6.280
  199HO4     OW  793   8.133   6.373   0.155
  199HO4    HW1  794   8.121   6.335   0.063
  199HO4    HW2  795   8.220   6.422   0.160
  199HO4     MW  796   8.133   6.373   0.155
  200HO4     OW  797   4.413   6.026   2.888
  200HO4    HW1  798   4.416   6.061   2.982
  200HO4    HW2  799   4.445   5.931   2.887
  200HO4     MW  800   4.413   6.026   2.888
  201HO4     OW  801   8.588   2.885   8.920
  201HO4    HW1  802   8.562   2.937   9.002
  201HO4    HW2  803   8.544   2.925   8.839
  201HO4     MW  804   8.588   2.885   8.920
  202HO4     OW  805   1.936   7.379   6.550
  202HO4    HW1  806   1.912   7.383   6.452
  202HO4    HW2  807   1.874   7.438   6.602
  202HO4     MW  808   1.936   7.379   6.550
  203HO4     OW  809   5.144   7.755   3.248
  203HO4    HW1  810   5.104   7.830   3.195
  203HO4    HW2  811   5.166   7.679   3.185
  203HO4     MW  812   5.144   7.755   3.248
  204HO4     OW  813   1.838   1.373   3.573
  204HO4    HW1  814   1.754   1.405   3.529
  204HO4    HW2  815   1.916   1.426   3.540
  204HO4     MW  816   1.838   1.373   3.573
  205HO4     OW  817   3.031   5.664   7.228
  205HO4    HW1  818   3.052   5.583   7.285
  205HO4    HW2  819   3.061   5.647   7.134
  205HO4     MW  820   3.031   5.664   7.228
  206HO4     OW  821   8.035   5.159   1.046
  206HO4    HW1  822   7.992   5.072   1.022
  206HO4    HW2  823   8.121   5.142   1.095
  206HO4     MW  824   8.035   5.159   1.046
  207HO4     OW  825   2.933   1.777   3.339
  207HO4    HW1  826   2.983   1.863   3.331
  207HO4    HW2  827   2.985   1.713   3.396
  207HO4     MW  828   2.933   1.777   3.339
  208HO4     OW  829   4.831   9.818   1.639
  208HO4    HW1  830   4.921   9.809   1.594
  208HO4    HW2  831   4.768   9.869   1.579
  208HO4     MW  832   4.831   9.818   1.639
  209HO4     OW  833  10.149   9.685   5.127
  209HO4    HW1  834  10.087   9.747   5.078
  209HO4    HW2  835  10.241   9.725   5.128
  209HO4     MW  836  10.149   9.685   5.127
  210HO4     OW  837   1.258   7.299   0.784
  210HO4    HW1  838   1.302   7.387   0.805
  210HO4    HW2  839   1.270   7.279   0.687
  210HO4     MW  840   1.258   7.299   0.784
  211HO4     OW  841   2.522   9.290   8.692
  211HO4    HW1  842   2.478   9.331   8.612
  211HO4    HW2  843   2.480   9.327   8.776
  211HO4     MW  844   2.522   9.290   8.692
  212HO4     OW  845   2.900   7.006   1.613
  212HO4    HW1  846   2.975   6.988   1.547
  212HO4    HW2  847   2.815   7.024   1.562
  212HO4     MW  848   2.900   7.006   1.613
  213HO4     OW  849   3.238   4.711   6.146
  213HO4    HW1  850   3.157   4.677   6.097
  213HO4    HW2  851   3.295   4.765   6.083
  213HO4     MW  852   3.238   4.711   6.146
  214HO4     OW  853   5.706   3.302   9.577
  214HO4    HW1  854   5.685   3.324   9.481
  214HO4    HW2  855   5.795   3.341   9.602
  214HO4     MW  856   5.706   3.302   9.577
  215HO4     OW  857   6.678   6.991   6.387
  215HO4    HW1  858   6.712   7.068   6.332
  215HO4    HW2  859   6.612   7.025   6.455
  215HO4     MW  860   6.678   6.991   6.387
  216HO4     OW  861   4.793   1.119   3.303
  216HO4    HW1  862   4.845   1.153   3.225
  216HO4    HW2  863   4.767   1.023   3.288
  216HO4     MW  864   4.793   1.119   3.303
  217HO4     OW  865   4.979   6.392   6.213
  217HO4    HW1  866   4.958   6.452   6.136
  217HO4    HW2  867   4.959   6.439   6.299
  217HO4     MW  868   4.979   6.392   6.213
  218HO4     OW  869   7.803   7.963   0.124
  218HO4    HW1  870   7.858   7.951   0.041
  218HO4    HW2  871   7.835   7.901   0.196
  218HO4     MW  872   7.803   7.963   0.124
  219HO4     OW  873   1.008   3.003   8.919
  219HO4    HW1  874   1.033   2.964   9.008
  219HO4    HW2  875   1.048   2.948   8.845
  219HO4     MW  876   1.008   3.003   8.919
  220HO4     OW  877   1.810  -0.008   6.208
  220HO4    HW1  878   1.808   0.084   6.250
  220HO4    HW2  879   1.892  -0.057   6.238
  220HO4     MW  880   1.810  -0.008   6.208
  221HO4     OW  881   7.875   6.041   6.696
  221HO4    HW1  882   7.842   6.094   6.774
  221HO4    HW2  883   7.919   6.102   6.629
  221HO4     MW  884   7.875   6.041   6.696
  222HO4     OW  885   4.346   3.291   4.468
  222HO4    HW1  886   4.260   3.293   4.520
  222HO4    HW2  887   4.421   3.262   4.529
  222HO4     MW  888   4.346   3.291   4.468
  223HO4     OW  889   1.339   9.857   6.682
  223HO4    HW1  890   1.304   9.791   6.749
  223HO4    HW2  891   1.428   9.826   6.648
  223HO4     MW  892   1.339   9.857   6.682
  224HO4     OW  893   6.369   0.102   9.358
  224HO4    HW1  894   6.403   0.145   9.442
  224HO4    HW2  895   6.441   0.104   9.288
  224HO4     MW  896   6.369   0.102   9.358
  225HO4     OW  897   5.374   1.908   4.326
  225HO4    HW1  898   5.472   1.915   4.306
  225HO4    HW2  899   5.358   1.936   4.422
  225HO4     MW  900   5.374   1.908   4.326
  226HO4     OW  901  10.068   3.898   2.606
  226HO4    HW1  902  10.041   3.885   2.702
  226HO4    HW2  903   9.993   3.869   2.546
  226HO4     MW  904  10.068   3.898   2.606
  227HO4     OW  905   5.044   3.135   6.299
  227HO4    HW1  906   5.068   3.037   6.301
  227HO4    HW2  907   5.126   3.189   6.320
  227HO4     MW  908   5.044   3.135   6.299
  228HO4     OW  909   6.863   4.828   2.376
  228HO4    HW1  910   6.877   4.816   2.277
  228HO4    HW2  911   6.795   4.901   2.392
  228HO4     MW  912   6.863   4.828   2.376
  229HO4     OW  913   7.762   3.512   8.723
  229HO4    HW1  914   7.807   3.579   8.663
  229HO4    HW2  915   7.798   3.521   8.816
  229HO4     MW  916   7.762   3.512   8.723
  230HO4     OW  917   4.054   1.427   9.589
  230HO4    HW1  918   4.098   1.402   9.503
  230HO4    HW2  919   4.074   1.523   9.611
  230HO4     MW  920   4.054   1.427   9.589
  231HO4     OW  921   0.491   5.153   7.913
  231HO4    HW1  922   0.579   5.151   7.960
  231HO4    HW2  923   0.461   5.249   7.902
  231HO4     MW  924   0.491   5.153   7.913
  232HO4     OW  925   8.630   9.947   6.194
  232HO4    HW1  926   8.719   9.991   6.211
  232HO4    HW2  927   8.607   9.887   6.271
  232HO4     MW  928   8.630   9.947   6.194
  233HO4     OW  929   4.200   3.263   1.568
  233HO4    HW1  930   4.245   3.211   1.495
  233HO4    HW2  931   4.142   3.334   1.528
  233HO4     MW  932   4.200   3.263   1.568
  234HO4     OW  933   5.643   3.196   9.968
  234HO4    HW1  934   5.718   3.156  10.021
  234HO4    HW2  935   5.646   3.160   9.874
  234HO4     MW  936   5.643   3.196   9.968
  235HO4     OW  937   9.465   7.654   4.026
  235HO4    HW1  938   9.545   7.692   4.073
  235HO4    HW2  939   9.449   7.704   3.940
  235HO4     MW  940   9.465   7.654   4.026
  236HO4     OW  941   2.922   6.359   9.615
  236HO4    HW1  942   2.874   6.315   9.691
  236HO4    HW2  943   2.855   6.401   9.553
  236HO4     MW  944   2.922   6.359   9.615
  237HO4     OW  945   6.985   4.823   4.634
  237HO4    HW1  946   7.068   4.810   4.688
  237HO4    HW2  947   7.009   4.862   4.545
  237HO4     MW  948   6.985   4.823   4.634
  238HO4     OW  949   0.375   5.070   5.909
  238HO4    HW1  950   0.408   5.019   5.829
  238HO4    HW2  951   0.406   5.024   5.992
  238HO4     MW  952   0.375   5.070   5.909
  239HO4     OW  953   6.277   5.871   4.994
  239HO4    HW1  954   6.216   5.826   5.060
  239HO4    HW2  955   6.352   5.808   4.970
  239HO4     MW  956   6.277   5.871   4.994
  240HO4     OW  957   2.685   8.015   0.908
  240HO4    HW1  958   2.755   8.004   0.980
  240HO4    HW2  959   2.726   8.059   0.828
  240HO4     MW  960   2.685   8.015   0.908
  241HO4     OW  961   0.711   8.761   7.211
  241HO4    HW1  962   0.718   8.740   7.113
  241HO4    HW2  963   0.792   8.811   7.242
  241HO4     MW  964   0.711   8.761   7.211
  242HO4     OW  965   6.669   8.190   8.959
  242HO4    HW1  966   6.683   8.251   9.037
  242HO4    HW2  967   6.702   8.098   8.983
  242HO4     MW  968   6.669   8.190   8.959
  243HO4     OW  969   2.748   7.072   2.530
  243HO4    HW1  970   2.698   7.090   2.445
  243HO4    HW2  971   2.719   7.138   2.600
  243HO4     MW  972   2.748   7.072   2.530
  244HO4     OW  973   9.715  10.108   2.519
  244HO4    HW1  974   9.793  10.051   2.491
  244HO4    HW2  975   9.734  10.204   2.499
  244HO4     MW  976   9.715  10.108   2.519
  245HO4     OW  977   6.398   0.462   5.667
  245HO4    HW1  978   6.373   0.378   5.619
  245HO4    HW2  979   6.326   0.531   5.655
  245HO4     MW  980   6.398   0.462   5.667
  246HO4     OW  981   5.013  10.015   4.856
  246HO4    HW1  982   4.973   9.926   4.832
  246HO4    HW2  983   5.113  10.010   4.849
  246HO4     MW  984   5.013  10.015   4.856
  247HO4     OW  985   8.125   3.964   3.071
  247HO4    HW1  986   8.182   3.998   2.995
  247HO4    HW2  987   8.118   4.035   3.142
  247HO4     MW  988   8.125   3.964   3.071
  248HO4     OW  989   4.029   6.228   5.325
  248HO4    HW1  990   4.044   6.239   5.226
  248HO4    HW2  991   4.104   6.274   5.375
  248HO4     MW  992   4.029   6.228   5.325
  249HO4     OW  993   3.756   0.877   9.470
  249HO4    HW1  994   3.668   0.915   9.439
  249HO4    HW2  995   3.828   0.903   9.405
  249HO4     MW  996   3.756   0.877   9.470
  250HO4     OW  997   2.475   6.647   5.082
  250HO4    HW1  998   2.490   6.698   5.167
  250HO4    HW2  999   2.504   6.702   5.003
  250HO4     MW 1000   2.475   6.647   5.082
  251HO4     OW 1001   3.921   2.237   0.623
  251HO4    HW1 1002   3.948   2.226   0.527
  251HO4    HW2 1003   4.001   2.230   0.682
  251HO4     MW 1004   3.921   2.237   0.623
  252HO4     OW 1005   6.542   6.626   6.552
  252HO4    HW1 1006   6.530   6.549   6.489
  252HO4    HW2 1007   6.613   6.603   6.620
  252HO4     MW 1008   6.542   6.626   6.552
  253HO4     OW 1009   8.520   0.295   6.412
  253HO4    HW1 1010   8.512   0.238   6.495
  253HO4    HW2 1011   8.581   0.373   6.431
  253HO4     MW 1012   8.520   0.295   6.412
  254HO4     OW 1013   1.358   8.481   9.037
  254HO4    HW1 1014   1.287   8.530   8.985
  254HO4    HW2 1015   1.403   8.544   9.100
  254HO4     MW 1016   1.358   8.481   9.037
  255HO4     OW 1017   2.349   6.766   7.313
  255HO4    HW1 1018   2.269   6.746   7.256
  255HO4    HW2 1019   2.338   6.856   7.356
  255HO4     MW 1020   2.349   6.766   7.313
  256HO4     OW 1021   6.956   3.505   8.151
  256HO4    HW1 1022   6.938   3.460   8.239
  256HO4    HW2 1023   6.928   3.444   8.076
  256HO4     MW 1024   6.956   3.505   8.151
  257HO4     OW 1025   5.838   4.172   7.832
  257HO4    HW1 1026   5.787   4.237   7.775
  257HO4    HW2 1027   5.874   4.098   7.775
  257HO4     MW 1028   5.838   4.172   7.832
  258HO4     OW 1029   2.061   5.910   4.194
  258HO4    HW1 1030   2.004   5.947   4.121
  258HO4    HW2 1031   2.026   5.820   4.221
  258HO4     MW 1032   2.061   5.910   4.194
  259HO4     OW 1033   2.906   0.032   9.725
  259HO4    HW1 1034   2.823  -0.011   9.763
  259HO4    HW2 1035   2.889   0.130   9.709
  259HO4     MW 1036   2.906   0.032   9.725
  260HO4     OW 1037   2.890   4.605   3.264
  260HO4    HW1 1038   2.831   4.590   3.345
  260HO4    HW2 1039   2.865   4.539   3.193
  260HO4     MW 1040   2.890   4.605   3.264
  261HO4     OW 1041   5.834   9.033   4.937
  261HO4    HW1 1042   5.812   9.060   5.031
  261HO4    HW2 1043   5.862   9.113   4.884
  261HO4     MW 1044   5.834   9.033   4.937
  262HO4     OW 1045   6.231   5.677   1.739
  262HO4    HW1 1046   6.286   5.657   1.657
  262HO4    HW2 1047   6.285   5.655   1.821
  262HO4     MW 1048   6.231   5.677   1.739
  263HO4     OW 1049   5.898   7.368   0.894
  263HO4    HW1 1050   5.993   7.339   0.878
  263HO4    HW2 1051   5.836   7.296   0.864
  263HO4     MW 1052   5.898   7.368   0.894
  264HO4     OW 1053   1.310   9.537   4.671
  264HO4    HW1 1054   1.304   9.614   4.735
  264HO4    HW2 1055   1.302   9.571   4.577
  264HO4     MW 1056   1.310   9.537   4.671
  265HO4     OW 1057   9.304   2.054   1.386
  265HO4    HW1 1058   9.382   2.077   1.444
  265HO4    HW2 1059   9.334   2.046   1.291
  265HO4     MW 1060   9.304   2.054   1.386
  266HO4     OW 1061   1.304   0.827   0.642
  266HO4    HW1 1062   1.300   0.729   0.667
  266HO4    HW2 1063   1.257   0.881   0.712
  266HO4     MW 1064   1.304   0.827   0.642
  267HO4     OW 1065   7.198   3.934   7.170
  267HO4    HW1 1066   7.292   3.924   7.139
  267HO4    HW2 1067   7.198   3.958   7.268
  267HO4     MW 1068   7.198   3.934   7.170
  268HO4     OW 1069   2.439   7.585   7.405
  268HO4    HW1 1070   2.455   7.629   7.494
  268HO4    HW2 1071   2.363   7.632   7.358
  268HO4     MW 1072   2.439   7.585   7.405
  269HO4     OW 1073   3.108   7.479   4.295
  269HO4    HW1 1074   3.140   7.507   4.386
  269HO4    HW2 1075   3.073   7.559   4.245
  269HO4     MW 1076   3.108   7.479   4.295
  270HO4     OW 1077   5.134   6.640   3.863
  270HO4    HW1 1078   5.153   6.559   3.806
  270HO4    HW2 1079   5.050   6.686   3.829
  270HO4     MW 1080   5.134   6.640   3.863
  271HO4     OW 1081   6.078   7.685   0.141
  271HO4    HW1 1082   6.172   7.677   0.108
  271HO4    HW2 1083   6.075   7.659   0.238
  271HO4     MW 1084   6.078   7.685   0.141
  272HO4     OW 1085   9.626   8.082   5.556
  272HO4    HW1 1086   9.603   8.030   5.473
  272HO4    HW2 1087   9.600   8.178   5.543
  272HO4     MW 1088   9.626   8.082   5.556
  273HO4     OW 1089   2.286  -0.001   8.536
  273HO4    HW1 1090   2.243   0.010   8.626
  273HO4    HW2 1091   2.216   0.000   8.464
  273HO4     MW 1092   2.286  -0.001   8.536
  274HO4     OW 1093   5.549   6.695   8.113
  274HO4    HW1 1094   5.453   6.720   8.131
  274HO4    HW2 1095   5.552   6.607   8.063
  274HO4     MW 1096   5.549   6.695   8.113
  275HO4     OW 1097   8.860   2.980   8.748
  275HO4    HW1 1098   8.794   3.043   8.707
  275HO4    HW2 1099   8.953   3.005   8.719
  275HO4     MW 1100   8.860   2.980   8.748
  276HO4     OW 1101  10.065   6.171   7.895
  276HO4    HW1 1102  10.138   6.133   7.837
  276HO4    HW2 1103  10.053   6.268   7.875
  276HO4     MW 1104  10.065   6.171   7.895
  277HO4     OW 1105   9.420   1.047   6.428
  277HO4    HW1 1106   9.343   0.987   6.406
  277HO4    HW2 1107   9.394   1.108   6.504
  277HO4     MW 1108   9.420   1.047   6.428
  278HO4     OW 1109   0.026   7.737   2.300
  278HO4    HW1 1110   0.017   7.642   2.269
  278HO4    HW2 1111   0.117   7.771   2.276
  278HO4     MW 1112   0.026   7.737   2.300
  279HO4     OW 1113   1.119   1.860   1.671
  279HO4    HW1 1114   1.162   1.861   1.581
  279HO4    HW2 1115   1.188   1.875   1.742
  279HO4     MW 1116   1.119   1.860   1.671
  280HO4     OW 1117   2.152   5.734   9.613
  280HO4    HW1 1118   2.138   5.657   9.675
  280HO4    HW2 1119   2.097   5.812   9.644
  280HO4     MW 1120   2.152   5.734   9.613
  281HO4     OW 1121   7.386  10.017   5.195
  281HO4    HW1 1122   7.357  10.070   5.115
  281HO4    HW2 1123   7.395  10.079   5.274
  281HO4     MW 1124   7.386  10.017   5.195
  282HO4     OW 1125   2.012   5.160   6.717
  282HO4    HW1 1126   2.097   5.202   6.749
  282HO4    HW2 1127   1.935   5.222   6.735
  282HO4     MW 1128   2.012   5.160   6.717
  283HO4     OW 1129   4.836   6.050   3.548
  283HO4    HW1 1130   4.897   6.018   3.621
  283HO4    HW2 1131   4.883   6.042   3.459
  283HO4     MW 1132   4.836   6.050   3.548
  284HO4     OW 1133  10.037   6.262   6.966
  284HO4    HW1 1134  10.029   6.335   6.897
  284HO4    HW2 1135  10.044   6.302   7.057
  284HO4     MW 1136  10.037   6.262   6.966
  285HO4     OW 1137   0.584   9.851   2.281
  285HO4    HW1 1138   0.662   9.913   2.268
  285HO4    HW2 1139   0.605   9.785   2.353
  285HO4     MW 1140   0.584   9.851   2.281
  286HO4     OW 1141   6.532   6.281   4.649
  286HO4    HW1 1142   6.572   6.275   4.741
  286HO4    HW2 1143   6.582   6.351   4.596
  286HO4     MW 1144   6.532   6.281   4.649
  287HO4     OW 1145   7.913   7.259   0.198
  287HO4    HW1 1146   8.014   7.255   0.196
  287HO4    HW2 1147   7.876   7.170   0.225
  287HO4     MW 1148   7.913   7.259   0.198
  288HO4     OW 1149   7.511   2.727   1.466
  288HO4    HW1 1150   7.467   2.738   1.556
  288HO4    HW2 1151   7.608   2.703   1.479
  288HO4     MW 1152   7.511   2.727   1.466
  289HO4     OW 1153   8.640   1.346   9.347
  289HO4    HW1 1154   8.630   1.314   9.441
  289HO4    HW2 1155   8.736   1.335   9.317
  289HO4     MW 1156   8.640   1.346   9.347
  290HO4     OW 1157   9.368   5.410   2.373
  290HO4    HW1 1158   9.325   5.390   2.284
  290HO4    HW2 1159   9.468   5.400   2.365
  290HO4     MW 1160   9.368   5.410   2.373
  291HO4     OW 1161   2.697   3.765   8.266
  291HO4    HW1 1162   2.684   3.736   8.171
  291HO4    HW2 1163   2.611   3.800   8.303
  291HO4     MW 1164   2.697   3.765   8.266
  292HO4     OW 1165   3.942   1.741   1.730
  292HO4    HW1 1166   3.961   1.704   1.821
  292HO4    HW2 1167   3.867   1.690   1.688
  292HO4     MW 1168   3.942   1.741   1.730
  293HO4     OW 1169   2.188   7.040   7.530
  293HO4    HW1 1170   2.277   7.062   7.570
  293HO4    HW2 1171   2.164   6.945   7.552
  293HO4     MW 1172   2.188   7.040   7.530
  294HO4     OW 1173   2.709   2.111   0.255
  294HO4    HW1 1174   2.716   2.149   0.162
  294HO4    HW2 1175   2.634   2.044   0.258
  294HO4     MW 1176   2.709   2.111   0.255
  295HO4     OW 1177   3.519   4.551   3.766
  295HO4    HW1 1178   3.469   4.481   3.715
  295HO4    HW2 1179   3.504   4.539   3.864
  295HO4     MW 1180   3.519   4.551   3.766
  296HO4     OW 1181   9.801   6.684   7.254
  296HO4    HW1 1182   9.897   6.669   7.284
  296HO4    HW2 1183   9.800   6.741   7.172
  296HO4     MW 1184   9.801   6.684   7.254
  297HO4     OW 1185   6.129   0.115   8.490
  297HO4    HW1 1186   6.102   0.152   8.579
  297HO4    HW2 1187   6.219   0.153   8.464
  297HO4     MW 1188   6.129   0.115   8.490
  298HO4     OW 1189   7.815   4.159   9.799
  298HO4    HW1 1190   7.815   4.105   9.714
  298HO4    HW2 1191   7.909   4.174   9.829
  298HO4     MW 1192   7.815   4.159   9.799
  299HO4     OW 1193   9.638   3.179   6.692
  299HO4    HW1 1194   9.681   3.096   6.655
  299HO4    HW2 1195   9.705   3.232   6.745
  299HO4     MW 1196   9.638   3.179   6.692
  300HO4     OW 1197   9.658   3.422   6.436
  300HO4    HW1 1198   9.577   3.448   6.488
  300HO4    HW2 1199   9.633   3.405   6.340
  300HO4     MW 1200   9.658   3.422   6.436
  301HO4     OW 1201   2.689   7.015   2.920
  301HO4    HW1 1202   2.728   7.067   2.997
  301HO4    HW2 1203   2.719   7.055   2.833
  301HO4     MW 1204   2.689   7.015   2.920
  302HO4     OW 1205   6.676   2.544   2.367
  302HO4    HW1 1206   6.614   2.492   2.426
  302HO4    HW2 1207   6.771   2.522   2.391
  302HO4     MW 1208   6.676   2.544   2.367
  303HO4     OW 1209   0.771   1.338   2.009
  303HO4    HW1 1210   0.836   1.406   2.044
  303HO4    HW2 1211   0.679   1.360   2.041
  303HO4     MW 1212   0.771   1.338   2.009
  304HO4     OW 1213   5.571   2.717   9.368
  304HO4    HW1 1214   5.506   2.726   9.292
  304HO4    HW2 1215   5.611   2.806   9.389
  304HO4     MW 1216   5.571   2.717   9.368
  305HO4     OW 1217   2.050   9.665   4.139
  305HO4    HW1 1218   2.013   9.757   4.124
  305HO4    HW2 1219   2.030   9.607   4.060
  305HO4     MW 1220   2.050   9.665   4.139
  306HO4     OW 1221   8.654   5.484   7.558
  306HO4    HW1 1222   8.660   5.530   7.647
  306HO4    HW2 1223   8.569   5.512   7.513
  306HO4     MW 1224   8.654   5.484   7.558
  307HO4     OW 1225   1.219   2.876   9.729
  307HO4    HW1 1226   1.139   2.836   9.775
  307HO4    HW2 1227   1.256   2.810   9.664
  307HO4     MW 1228   1.219   2.876   9.729
  308HO4     OW 1229   9.916   8.423   6.218
  308HO4    HW1 1230   9.984   8.425   6.144
  308HO4    HW2 1231   9.961   8.441   6.305
  308HO4     MW 1232   9.916   8.423   6.218
  309HO4     OW 1233   1.687   5.063   8.831
  309HO4    HW1 1234   1.726   4.973   8.854
  309HO4    HW2 1235   1.729   5.134   8.889
  309HO4     MW 1236   1.687   5.063   8.831
  310HO4     OW 1237   5.280  10.069   1.072
  310HO4    HW1 1238   5.190  10.042   1.108
  310HO4    HW2 1239   5.314   9.997   1.011
  310HO4     MW 1240   5.280  10.069   1.072
  311HO4     OW 1241   0.856   3.420   3.937
  311HO4    HW1 1242   0.923   3.450   3.868
  311HO4    HW2 1243   0.867   3.322   3.955
  311HO4     MW 1244   0.856   3.420   3.937
  312HO4     OW 1245   5.025   2.013   3.115
  312HO4    HW1 1246   5.013   1.922   3.074
  312HO4    HW2 1247   5.037   2.004   3.214
  312HO4     MW 1248   5.025   2.013   3.115
  313HO4     OW 1249   5.429   5.032   4.571
  313HO4    HW1 1250   5.385   4.990   4.651
  313HO4    HW2 1251   5.393   4.991   4.487
  313HO4     MW 1252   5.429   5.032   4.571
  314HO4     OW 1253   1.913   0.872   2.194
  314HO4    HW1 1254   1.937   0.779   2.164
  314HO4    HW2 1255   1.909   0.932   2.114
  314HO4     MW 1256   1.913   0.872   2.194
  315HO4     OW 1257   2.654   7.372   5.901
  315HO4    HW1 1258   2.698   7.293   5.857
  315HO4    HW2 1259   2.651   7.357   6.001
  315HO4     MW 1260   2.654   7.372   5.901
  316HO4     OW 1261   9.652  -0.027   1.027
  316HO4    HW1 1262   9.558   0.007   1.038
  316HO4    HW2 1263   9.711   0.048   0.995
  316HO4     MW 1264   9.652  -0.027   1.027
  317HO4     OW 1265   0.708   0.389   2.889
  317HO4    HW1 1266   0.664   0.311   2.934
  317HO4    HW2 1267   0.726   0.367   2.793
  317HO4     MW 1268   0.708   0.389   2.889
  318HO4     OW 1269   7.330   1.816   2.111
  318HO4    HW1 1270   7.247   1.870   2.128
  318HO4    HW2 1271   7.315   1.722   2.141
  318HO4     MW 1272   7.330   1.816   2.111
  319HO4     OW 1273   7.792   4.808   0.834
  319HO4    HW1 1274   7.819   4.861   0.915
  319HO4    HW2 1275   7.779   4.871   0.757
  319HO4     MW 1276   7.792   4.808   0.834
  320HO4     OW 1277   9.150   4.713   6.727
  320HO4    HW1 1278   9.190   4.762   6.648
  320HO4    HW2 1279   9.207   4.729   6.808
  320HO4     MW 1280   9.150   4.713   6.727
  321HO4     OW 1281   6.866   0.372   7.562
  321HO4    HW1 1282   6.932   0.440   7.529
  321HO4    HW2 1283   6.773   0.403   7.541
  321HO4     MW 1284   6.866   0.372   7.562
  322HO4     OW 1285   4.919   8.980   9.949
  322HO4    HW1 1286   4.929   9.037   9.867
  322HO4    HW2 1287   4.932   9.038  10.031
  322HO4     MW 1288   4.919   8.980   9.949
  323HO4     OW 1289   7.273   2.967  10.033
  323HO4    HW1 1290   7.245   2.871  10.035
  323HO4    HW2 1291   7.312   2.989   9.943
  323HO4     MW 1292   7.273   2.967  10.033
  324HO4     OW 1293   2.310   5.380   7.024
  324HO4    HW1 1294   2.281   5.442   7.097
  324HO4    HW2 1295   2.287   5.420   6.934
  324HO4     MW 1296   2.310   5.380   7.024
  325HO4     OW 1297   7.277   6.958   4.836
  325HO4    HW1 1298   7.249   6.938   4.742
  325HO4    HW2 1299   7.372   6.930   4.850
  325HO4     MW 1300   7.277   6.958   4.836
  326HO4     OW 1301   9.806   3.295   8.069
  326HO4    HW1 1302   9.827   3.359   8.142
  326HO4    HW2 1303   9.863   3.316   7.988
  326HO4     MW 1304   9.806   3.295   8.069
  327HO4     OW 1305   1.252   9.736   9.697
  327HO4    HW1 1306   1.307   9.720   9.779
  327HO4    HW2 1307   1.311   9.737   9.616
  327HO4     MW 1308   1.252   9.736   9.697
  328HO4     OW 1309   7.216   5.297   3.471
  328HO4    HW1 1310   7.223   5.321   3.374
  328HO4    HW2 1311   7.119   5.287   3.496
  328HO4     MW 1312   7.216   5.297   3.471
  329HO4     OW 1313   3.103   5.715   2.585
  329HO4    HW1 1314   3.026   5.653   2.569
  329HO4    HW2 1315   3.162   5.716   2.503
  329HO4     MW 1316   3.103   5.715   2.585
  330HO4     OW 1317   8.990  10.109   3.054
  330HO4    HW1 1318   9.034  10.147   2.972
  330HO4    HW2 1319   9.021  10.160   3.135
  330HO4     MW 1320   8.990  10.109   3.054
  331HO4     OW 1321   6.340   2.609   9.543
  331HO4    HW1 1322   6.410   2.548   9.581
  331HO4    HW2 1323   6.302   2.569   9.459
  331HO4     MW 1324   6.340   2.609   9.543
  332HO4     OW 1325   4.375   7.506   9.887
  332HO4    HW1 1326   4.377   7.415   9.929
  332HO4    HW2 1327   4.450   7.513   9.821
  332HO4     MW 1328   4.375   7.506   9.887
  333HO4     OW 1329   2.343   2.525   3.120
  333HO4    HW1 1330   2.270   2.456   3.118
  333HO4    HW2 1331   2.387   2.525   3.210
  333HO4     MW 1332   2.343   2.525   3.120
  334HO4     OW 1333   3.546   2.128   2.005
  334HO4    HW1 1334   3.525   2.201   2.071
  334HO4    HW2 1335   3.482   2.052   2.019
  334HO4     MW 1336   3.546   2.128   2.005
  335HO4     OW 1337   4.033   5.565   7.644
  335HO4    HW1 1338   4.023   5.489   7.708
  335HO4    HW2 1339   4.005   5.535   7.552
  335HO4     MW 1340   4.033   5.565   7.644
  336HO4     OW 1341   6.082   6.602   3.186
  336HO4    HW1 1342   6.107   6.555   3.270
  336HO4    HW2 1343   6.161   6.654   3.152
  336HO4     MW 1344   6.082   6.602   3.186
  337HO4     OW 1345   4.228   5.328   4.848
  337HO4    HW1 1346   4.217   5.245   4.904
  337HO4    HW2 1347   4.309   5.378   4.879
  337HO4     MW 1348   4.228   5.328   4.848
  338HO4     OW 1349   8.205   3.215   1.684
  338HO4    HW1 1350   8.258   3.284   1.634
  338HO4    HW2 1351   8.113   3.207   1.644
  338HO4     MW 1352   8.205   3.215   1.684
  339HO4     OW 1353   0.690   0.850   3.469
  339HO4    HW1 1354   0.765   0.911   3.497
  339HO4    HW2 1355   0.718   0.798   3.388
  339HO4     MW 1356   0.690   0.850   3.469
  340HO4     OW 1357   1.292   2.153   2.532
  340HO4    HW1 1358   1.249   2.242   2.521
  340HO4    HW2 1359   1.377   2.163   2.585
  340HO4     MW 1360   1.292   2.153   2.532
  341HO4     OW 1361   0.072   9.980   4.949
  341HO4    HW1 1362   0.045  10.068   4.990
  341HO4    HW2 1363   0.008   9.908   4.978
  341HO4     MW 1364   0.072   9.980   4.949
  342HO4     OW 1365   9.576   1.583   0.295
  342HO4    HW1 1366   9.632   1.583   0.378
  342HO4    HW2 1367   9.635   1.589   0.214
  342HO4     MW 1368   9.576   1.583   0.295
  343HO4     OW 1369   0.461   8.137   1.327
  343HO4    HW1 1370   0.408   8.100   1.404
  343HO4    HW2 1371   0.407   8.131   1.243
  343HO4     MW 1372   0.461   8.137   1.327
  344HO4     OW 1373   3.177   1.852   8.983
  344HO4    HW1 1374   3.230   1.784   8.932
  344HO4    HW2 1375   3.132   1.915   8.919
  344HO4     MW 1376   3.177   1.852   8.983
  345HO4     OW 1377   8.121   0.857   9.603
  345HO4    HW1 1378   8.166   0.945   9.624
  345HO4    HW2 1379   8.180   0.782   9.633
  345HO4     MW 1380   8.121   0.857   9.603
  346HO4     OW 1381   6.251   0.568   7.585
  346HO4    HW1 1382   6.286   0.635   7.651
  346HO4    HW2 1383   6.219   0.615   7.503
  346HO4     MW 1384   6.251   0.568   7.585
  347HO4     OW 1385   9.405   6.887   9.339
  347HO4    HW1 1386   9.410   6.911   9.241
  347HO4    HW2 1387   9.498   6.869   9.373
  347HO4     MW 1388   9.405   6.887   9.339
  348HO4     OW 1389   2.600   2.691   7.210
  348HO4    HW1 1390   2.689   2.644   7.205
  348HO4    HW2 1391   2.600   2.753   7.289
  348HO4     MW 1392   2.600   2.691   7.210
  349HO4     OW 1393   5.555   6.957   0.409
  349HO4    HW1 1394   5.565   7.016   0.490
  349HO4    HW2 1395   5.510   7.009   0.336
  349HO4     MW 1396   5.555   6.957   0.409
  350HO4     OW 1397   5.911   3.756   0.830
  350HO4    HW1 1398   5.826   3.702   0.831
  350HO4    HW2 1399   5.908   3.825   0.902
  350HO4     MW 1400   5.911   3.756   0.830
  351HO4     OW 1401   1.638   8.438   6.906
  351HO4    HW1 1402   1.634   8.345   6.942
  351HO4    HW2 1403   1.545   8.475   6.897
  351HO4     MW 1404   1.638   8.438   6.906
  352HO4     OW 1405   6.073   2.765   9.742
  352HO4    HW1 1406   5.987   2.815   9.733
  352HO4    HW2 1407   6.067   2.678   9.692
  352HO4     MW 1408   6.073   2.765   9.742
  353HO4     OW 1409   7.536   5.590   5.272
  353HO4    HW1 1410   7.595   5.549   5.342
  353HO4    HW2 1411   7.579   5.581   5.182
  353HO4     MW 1412   7.536   5.590   5.272
  354HO4     OW 1413   4.707   8.243   0.710
  354HO4    HW1 1414   4.692   8.217   0.806
  354HO4    HW2 1415   4.806   8.241   0.690
  354HO4     MW 1416   4.707   8.243   0.710
  355HO4     OW 1417   0.445   3.085   1.674
  355HO4    HW1 1418   0.387   3.050   1.748
  355HO4    HW2 1419   0.407   3.057   1.585
  355HO4     MW 1420   0.445   3.085   1.674
  356HO4     OW 1421   1.846   4.402   3.326
  356HO4    HW1 1422   1.812   4.496   3.315
  356HO4    HW2 1423   1.801   4.342   3.260
  356HO4     MW 1424   1.846   4.402   3.326
  357HO4     OW 1425   3.032   0.739   7.126
  357HO4    HW1 1426   3.036   0.654   7.180
  357HO4    HW2 1427   3.063   0.816   7.182
  357HO4     MW 1428   3.032   0.739   7.126
  358HO4     OW 1429   5.418   5.577   3.452
  358HO4    HW1 1430   5.472   5.575   3.367
  358HO4    HW2 1431   5.440   5.496   3.507
  358HO4     MW 1432   5.418   5.577   3.452
  359HO4     OW 1433   6.463   6.977   0.898
  359HO4    HW1 1434   6.469   7.030   0.813
  359HO4    HW2 1435   6.498   6.884   0.882
  359HO4     MW 1436   6.463   6.977   0.898
  360HO4     OW 1437   6.237   2.386   8.271
  360HO4    HW1 1438   6.242   2.396   8.371
  360HO4    HW2 1439   6.326   2.358   8.236
  360HO4     MW 1440   6.237   2.386   8.271
  361HO4     OW 1441   8.634   4.344   2.137
  361HO4    HW1 1442   8.690   4.387   2.209
  361HO4    HW2 1443   8.662   4.248   2.125
  361HO4     MW 1444   8.634   4.344   2.137
  362HO4     OW 1445   9.533   3.164   7.570
  362HO4    HW1 1446   9.518   3.099   7.644
  362HO4    HW2 1447   9.507   3.123   7.483
  362HO4     MW 1448   9.533   3.164   7.570
  363HO4     OW 1449   9.741   8.548   4.086
  363HO4    HW1 1450   9.770   8.598   4.168
  363HO4    HW2 1451   9.769   8.599   4.004
  363HO4     MW 1452   9.741   8.548   4.086
  364HO4     OW 1453   7.018  10.064   1.556
  364HO4    HW1 1454   7.036   9.979   1.606
  364HO4    HW2 1455   7.099  10.124   1.564
  364HO4     MW 1456   7.018  10.064   1.556
  365HO4     OW 1457   7.536   8.766   8.197
  365HO4    HW1 1458   7.623   8.809   8.173
  365HO4    HW2 1459   7.503   8.804   8.284
  365HO4     MW 1460   7.536   8.766   8.197
  366HO4     OW 1461   1.329   6.855   5.762
  366HO4    HW1 1462   1.305   6.946   5.726
  366HO4    HW2 1463   1.413   6.861   5.816
  366HO4     MW 1464   1.329   6.855   5.762
  367HO4     OW 1465   1.692   7.788   8.171
  367HO4    HW1 1466   1.751   7.826   8.099
  367HO4    HW2 1467   1.739   7.793   8.260
  367HO4     MW 1468   1.692   7.788   8.171
  368HO4     OW 1469   7.510   4.519   6.966
  368HO4    HW1 1470   7.591   4.510   6.908
  368HO4    HW2 1471   7.470   4.611   6.953
  368HO4     MW 1472   7.510   4.519   6.966
  369HO4     OW 1473   2.904   6.954   9.348
  369HO4    HW1 1474   2.807   6.971   9.366
  369HO4    HW2 1475   2.942   6.895   9.421
  369HO4     MW 1476   2.904   6.954   9.348
  370HO4     OW 1477   8.322   2.640   0.910
  370HO4    HW1 1478   8.396   2.657   0.977
  370HO4    HW2 1479   8.360   2.645   0.817
  370HO4     MW 1480   8.322   2.640   0.910
  371HO4     OW 1481   5.739   2.282   8.440
  371HO4    HW1 1482   5.779   2.238   8.359
  371HO4    HW2 1483   5.774   2.238   8.523
  371HO4     MW 1484   5.739   2.282   8.440
  372HO4     OW 1485   8.725   4.600   0.934
  372HO4    HW1 1486   8.776   4.652   1.003
  372HO4    HW2 1487   8.744   4.638   0.843
  372HO4     MW 1488   8.725   4.600   0.934
  373HO4     OW 1489   1.367   8.885   3.799
  373HO4    HW1 1490   1.430   8.947   3.752
  373HO4    HW2 1491   1.303   8.845   3.733
  373HO4     MW 1492   1.367   8.885   3.799
  374HO4     OW 1493   2.869   7.100   4.014
  374HO4    HW1 1494   2.881   7.120   3.916
  374HO4    HW2 1495   2.959   7.087   4.057
  374HO4     MW 1496   2.869   7.100   4.014
  375HO4     OW 1497   8.349   2.890   7.849
  375HO4    HW1 1498   8.397   2.857   7.766
  375HO4    HW2 1499   8.397   2.856   7.930
  375HO4     MW 1500   8.349   2.890   7.849
  376HO4     OW 1501   3.557   6.536   7.124
  376HO4    HW1 1502   3.489   6.481   7.173
  376HO4    HW2 1503   3.560   6.508   7.027
  376HO4     MW 1504   3.557   6.536   7.124
  377HO4     OW 1505   6.042   5.454   6.624
  377HO4    HW1 1506   6.122   5.395   6.608
  377HO4    HW2 1507   5.977   5.407   6.685
  377HO4     MW 1508   6.042   5.454   6.624
  378HO4     OW 1509   7.670   8.757   3.447
  378HO4    HW1 1510   7.662   8.700   3.530
  378HO4    HW2 1511   7.658   8.699   3.366
  378HO4     MW 1512   7.670   8.757   3.447
  379HO4     OW 1513   4.781   2.057   0.301
  379HO4    HW1 1514   4.719   2.132   0.327
  379HO4    HW2 1515   4.790   2.054   0.201
  379HO4     MW 1516   4.781   2.057   0.301
  380HO4     OW 1517   8.888   3.144   8.497
  380HO4    HW1 1518   8.891   3.077   8.571
  380HO4    HW2 1519   8.899   3.097   8.409
  380HO4     MW 1520   8.888   3.144   8.497
  381HO4     OW 1521   2.065   8.391   6.198
  381HO4    HW1 1522   2.075   8.455   6.275
  381HO4    HW2 1523   2.067   8.442   6.112
  381HO4     MW 1524   2.065   8.391   6.198
  382HO4     OW 1525   0.496   0.295   2.599
  382HO4    HW1 1526   0.581   0.249   2.627
  382HO4    HW2 1527   0.507   0.332   2.506
  382HO4     MW 1528   0.496   0.295   2.599
  383HO4     OW 1529   1.134   2.712   5.656
  383HO4    HW1 1530   1.185   2.796   5.639
  383HO4    HW2 1531   1.043   2.719   5.613
  383HO4     MW 1532   1.134   2.712   5.656
  384HO4     OW 1533   9.938   7.027   6.240
  384HO4    HW1 1534   9.985   6.951   6.285
  384HO4    HW2 1535  10.002   7.074   6.178
  384HO4     MW 1536   9.938   7.027   6.240
  385HO4     OW 1537   4.446   2.584   1.607
  385HO4    HW1 1538   4.480   2.633   1.688
  385HO4    HW2 1539   4.369   2.525   1.633
  385HO4     MW 1540   4.446   2.584   1.607
  386HO4     OW 1541   6.239   2.206   1.300
  386HO4    HW1 1542   6.268   2.149   1.377
  386HO4    HW2 1543   6.270   2.301   1.315
  386HO4     MW 1544   6.239   2.206   1.300
  387HO4     OW 1545   0.659   5.806   5.549
  387HO4    HW1 1546   0.687   5.766   5.462
  387HO4    HW2 1547   0.590   5.877   5.533
  387HO4     MW 1548   0.659   5.806   5.549
  388HO4     OW 1549   3.801   3.813   4.651
  388HO4    HW1 1550   3.838   3.848   4.565
  388HO4    HW2 1551   3.703   3.794   4.641
  388HO4     MW 1552   3.801   3.813   4.651
  389HO4     OW 1553   8.833   8.570   4.317
  389HO4    HW1 1554   8.787   8.498   4.264
  389HO4    HW2 1555   8.775   8.598   4.394
  389HO4     MW 1556   8.833   8.570   4.317
  390HO4     OW 1557   6.116   5.293   2.532
  390HO4    HW1 1558   6.182   5.296   2.456
  390HO4    HW2 1559   6.024   5.315   2.497
  390HO4     MW 1560   6.116   5.293   2.532
  391HO4     OW 1561   3.862   4.917   2.657
  391HO4    HW1 1562   3.890   4.869   2.573
  391HO4    HW2 1563   3.829   4.851   2.725
  391HO4     MW 1564   3.862   4.917   2.657
  392HO4     OW 1565   8.653   7.730   2.359
  392HO4    HW1 1566   8.661   7.755   2.456
  392HO4    HW2 1567   8.745   7.727   2.318
  392HO4     MW 1568   8.653   7.730   2.359
  393HO4     OW 1569   6.319   6.410   6.030
  393HO4    HW1 1570   6.254   6.336   6.014
  393HO4    HW2 1571   6.271   6.498   6.025
  393HO4     MW 1572   6.319   6.410   6.030
  394HO4     OW 1573   0.832   3.995   6.011
  394HO4    HW1 1574   0.843   4.056   6.091
  394HO4    HW2 1575   0.878   4.035   5.932
  394HO4     MW 1576   0.832   3.995   6.011
  395HO4     OW 1577   0.341   9.995   2.280
  395HO4    HW1 1578   0.382   9.944   2.204
  395HO4    HW2 1579   0.364  10.093   2.271
  395HO4     MW 1580   0.341   9.995   2.280
  396HO4     OW 1581   7.297   9.025   6.788
  396HO4    HW1 1582   7.265   9.085   6.714
  396HO4    HW2 1583   7.293   9.074   6.876
  396HO4     MW 1584   7.297   9.025   6.788
  397HO4     OW 1585   7.282   1.210   7.498
  397HO4    HW1 1586   7.347   1.276   7.538
  397HO4    HW2 1587   7.333   1.131   7.463
  397HO4     MW 1588   7.282   1.210   7.498
  398HO4     OW 1589   4.687   3.774   0.608
  398HO4    HW1 1590   4.654   3.856   0.657
  398HO4    HW2 1591   4.613   3.706   0.604
  398HO4     MW 1592   4.687   3.774   0.608
  399HO4     OW 1593   6.579   2.766   2.591
  399HO4    HW1 1594   6.505   2.784   2.525
  399HO4    HW2 1595   6.657   2.826   2.570
  399HO4     MW 1596   6.579   2.766   2.591
  400HO4     OW 1597   9.423   1.695   4.346
  400HO4    HW1 1598   9.509   1.700   4.397
  400HO4    HW2 1599   9.402   1.599   4.326
  400HO4     MW 1600   9.423   1.695   4.346
  401HO4     OW 1601   8.165   8.414   8.431
  401HO4    HW1 1602   8.131   8.357   8.356
  401HO4    HW2 1603   8.104   8.404   8.510
  401HO4     MW 1604   8.165   8.414   8.431
  402HO4     OW 1605   4.964   0.581   4.548
  402HO4    HW1 1606   5.049   0.632   4.528
  402HO4    HW2 1607   4.921   0.619   4.630
  402HO4     MW 1608   4.964   0.581   4.548
  403HO4     OW 1609   9.892   4.423   7.745
  403HO4    HW1 1610   9.887   4.500   7.682
  403HO4    HW2 1611   9.907   4.457   7.839
  403HO4     MW 1612   9.892   4.423   7.745
  404HO4     OW 1613   2.720   1.487   9.803
  404HO4    HW1 1614   2.771   1.465   9.719
  404HO4    HW2 1615   2.748   1.424   9.876
  404HO4     MW 1616   2.720   1.487   9.803
  405HO4     OW 1617   8.483   1.679   0.291
  405HO4    HW1 1618   8.544   1.605   0.260
  405HO4    HW2 1619   8.504   1.763   0.241
  405HO4     MW 1620   8.483   1.679   0.291
  406HO4     OW 1621   0.778   8.032   1.924
  406HO4    HW1 1622   0.866   8.076   1.909
  406HO4    HW2 1623   0.729   8.023   1.837
  406HO4     MW 1624   0.778   8.032   1.924
  407HO4     OW 1625   0.450   6.876   4.732
  407HO4    HW1 1626   0.475   6.897   4.637
  407HO4    HW2 1627   0.420   6.960   4.778
  407HO4     MW 1628   0.450   6.876   4.732
  408HO4     OW 1629   6.226   5.541   5.203
  408HO4    HW1 1630   6.276   5.567   5.120
  408HO4    HW2 1631   6.131   5.572   5.196
  408HO4     MW 1632   6.226   5.541   5.203
  409HO4     OW 1633   1.478   9.913   0.251
  409HO4    HW1 1634   1.427   9.845   0.198
  409HO4    HW2 1635   1.507   9.872   0.338
  409HO4     MW 1636   1.478   9.913   0.251
  410HO4     OW 1637   4.483   4.677   8.718
  410HO4    HW1 1638   4.475   4.694   8.816
  410HO4    HW2 1639   4.406   4.719   8.669
  410HO4     MW 1640   4.483   4.677   8.718
  411HO4     OW 1641   2.150   7.836   6.054
  411HO4    HW1 1642   2.140   7.787   5.966
  411HO4    HW2 1643   2.124   7.774   6.129
  411HO4     MW 1644   2.150   7.836   6.054
  412HO4     OW 1645   7.969   7.714  10.119
  412HO4    HW1 1646   7.879   7.669  10.117
  412HO4    HW2 1647   8.011   7.700  10.209
  412HO4     MW 1648   7.969   7.714  10.119
  413HO4     OW 1649   8.143   5.343   7.750
  413HO4    HW1 1650   8.202   5.375   7.825
  413HO4    HW2 1651   8.052   5.323   7.786
  413HO4     MW 1652   8.143   5.343   7.750
  414HO4     OW 1653   3.677   2.274   6.442
  414HO4    HW1 1654   3.656   2.228   6.355
  414HO4    HW2 1655   3.640   2.219   6.518
  414HO4     MW 1656   3.677   2.274   6.442
  415HO4     OW 1657   9.608   0.533   2.511
  415HO4    HW1 1658   9.588   0.590   2.431
  415HO4    HW2 1659   9.544   0.556   2.585
  415HO4     MW 1660   9.608   0.533   2.511
  416HO4     OW 1661   6.928   5.453   6.580
  416HO4    HW1 1662   6.968   5.366   6.609
  416HO4    HW2 1663   6.953   5.525   6.645
  416HO4     MW 1664   6.928   5.453   6.580
  417HO4     OW 1665   6.733   2.224   0.176
  417HO4    HW1 1666   6.718   2.172   0.261
  417HO4    HW2 1667   6.748   2.321   0.198
  417HO4     MW 1668   6.733   2.224   0.176
  418HO4     OW 1669   7.359   2.291   9.365
  418HO4    HW1 1670   7.282   2.323   9.309
  418HO4    HW2 1671   7.324   2.229   9.437
  418HO4     MW 1672   7.359   2.291   9.365
  419HO4     OW 1673   6.845   9.786   5.541
  419HO4    HW1 1674   6.852   9.692   5.576
  419HO4    HW2 1675   6.784   9.839   5.601
  419HO4     MW 1676   6.845   9.786   5.541
  420HO4     OW 1677   0.033   7.210   7.134
  420HO4    HW1 1678   0.084   7.292   7.164
  420HO4    HW2 1679  -0.024   7.177   7.210
  420HO4     MW 1680   0.033   7.210   7.134
  421HO4     OW 1681   2.734   9.844   6.854
  421HO4    HW1 1682   2.697   9.790   6.931
  421HO4    HW2 1683   2.737   9.787   6.772
  421HO4     MW 1684   2.734   9.844   6.854
  422HO4     OW 1685   7.486   6.369   8.066
  422HO4    HW1 1686   7.517   6.322   7.983
  422HO4    HW2 1687   7.524   6.324   8.147
  422HO4     MW 1688   7.486   6.369   8.066
  423HO4     OW 1689   1.175   7.053   4.045
  423HO4    HW1 1690   1.209   7.113   4.119
  423HO4    HW2 1691   1.166   6.959   4.079
  423HO4     MW 1692   1.175   7.053   4.045
  424HO4     OW 1693   6.418   6.633   6.847
  424HO4    HW1 1694   6.391   6.572   6.772
  424HO4    HW2 1695   6.375   6.723   6.833
  424HO4     MW 1696   6.418   6.633   6.847
  425HO4     OW 1697   1.240   9.366   6.985
  425HO4    HW1 1698   1.330   9.342   7.023
  425HO4    HW2 1699   1.248   9.447   6.927
  425HO4     MW 1700   1.240   9.366   6.985
  426HO4     OW 1701   9.437   8.040   0.889
  426HO4    HW1 1702   9.461   8.056   0.985
  426HO4    HW2 1703   9.461   8.121   0.834
  426HO4     MW 1704   9.437   8.040   0.889
  427HO4     OW 1705   7.455   5.010   3.380
  427HO4    HW1 1706   7.445   5.081   3.451
  427HO4    HW2 1707   7.471   5.054   3.291
  427HO4     MW 1708   7.455   5.010   3.380
  428HO4     OW 1709   2.448   0.316   9.083
  428HO4    HW1 1710   2.429   0.237   9.023
  428HO4    HW2 1711   2.530   0.297   9.138
  428HO4     MW 1712   2.448   0.316   9.083
  429HO4     OW 1713   7.385   5.259   1.828
  429HO4    HW1 1714   7.376   5.325   1.753
  429HO4    HW2 1715   7.398   5.308   1.915
  429HO4     MW 1716   7.385   5.259   1.828
  430HO4     OW 1717   8.731   1.423   5.598
  430HO4    HW1 1718   8.687   1.355   5.539
  430HO4    HW2 1719   8.780   1.490   5.542
  430HO4     MW 1720   8.731   1.423   5.598
  431HO4     OW 1721   0.222   1.921   6.367
  431HO4    HW1 1722   0.130   1.958   6.350
  431HO4    HW2 1723   0.227   1.826   6.333
  431HO4     MW 1724   0.222   1.921   6.367
  432HO4     OW 1725   2.058   0.601   0.358
  432HO4    HW1 1726   2.111   0.562   0.283
  432HO4    HW2 1727   2.100   0.687   0.388
  432HO4     MW 1728   2.058   0.601   0.358
  433HO4     OW 1729   7.982   8.127   5.382
  433HO4    HW1 1730   8.076   8.157   5.403
  433HO4    HW2 1731   7.918   8.201   5.402
  433HO4     MW 1732   7.982   8.127   5.382
  434HO4     OW 1733  10.055   5.989   7.014
  434HO4    HW1 1734  10.040   6.028   6.922
  434HO4    HW2 1735  10.134   5.927   7.011
  434HO4     MW 1736  10.055   5.989   7.014
  435HO4     OW 1737   0.535   1.521   6.160
  435HO4    HW1 1738   0.456   1.509   6.100
  435HO4    HW2 1739   0.596   1.441   6.153
  435HO4     MW 1740   0.535   1.521   6.160
  436HO4     OW 1741   3.713   2.283   7.354
  436HO4    HW1 1742   3.780   2.356   7.369
  436HO4    HW2 1743   3.757   2.207   7.305
  436HO4     MW 1744   3.713   2.283   7.354
  437HO4     OW 1745   9.444   5.312   9.861
  437HO4    HW1 1746   9.416   5.383   9.926
  437HO4    HW2 1747   9.521   5.259   9.899
  437HO4     MW 1748   9.444   5.312   9.861
  438HO4     OW 1749  10.030   2.724   5.665
  438HO4    HW1 1750   9.948   2.762   5.622
  438HO4    HW2 1751  10.045   2.768   5.754
  438HO4     MW 1752  10.030   2.724   5.665
  439HO4     OW 1753   9.540   6.810   8.522
  439HO4    HW1 1754   9.554   6.881   8.453
  439HO4    HW2 1755   9.442   6.788   8.529
  439HO4     MW 1756   9.540   6.810   8.522
  440HO4     OW 1757   1.425   1.172   4.210
  440HO4    HW1 1758   1.417   1.169   4.311
  440HO4    HW2 1759   1.513   1.213   4.185
  440HO4     MW 1760   1.425   1.172   4.210
  441HO4     OW 1761   8.570   5.828   4.840
  441HO4    HW1 1762   8.606   5.778   4.760
  441HO4    HW2 1763   8.635   5.900   4.867
  441HO4     MW 1764   8.570   5.828   4.840
  442HO4     OW 1765   0.411   6.207   0.446
  442HO4    HW1 1766   0.365   6.179   0.531
  442HO4    HW2 1767   0.346   6.201   0.370
  442HO4     MW 1768   0.411   6.207   0.446
  443HO4     OW 1769   0.530   7.252   7.484
  443HO4    HW1 1770   0.590   7.245   7.404
  443HO4    HW2 1771   0.584   7.282   7.564
  443HO4     MW 1772   0.530   7.252   7.484
  444HO4     OW 1773   1.453   6.609   6.556
  444HO4    HW1 1774   1.388   6.674   6.597
  444HO4    HW2 1775   1.534   6.602   6.615
  444HO4     MW 1776   1.453   6.609   6.556
  445HO4     OW 1777   1.215   8.020   2.417
  445HO4    HW1 1778   1.227   7.952   2.344
  445HO4    HW2 1779   1.174   7.977   2.498
  445HO4     MW 1780   1.215   8.020   2.417
  446HO4     OW 1781   5.961   3.516   2.752
  446HO4    HW1 1782   6.055   3.483   2.756
  446HO4    HW2 1783   5.958   3.606   2.708
  446HO4     MW 1784   5.961   3.516   2.752
  447HO4     OW 1785   1.194   1.845   7.736
  447HO4    HW1 1786   1.265   1.913   7.756
  447HO4    HW2 1787   1.235   1.765   7.691
  447HO4     MW 1788   1.194   1.845   7.736
  448HO4     OW 1789   7.452   0.359   7.509
  448HO4    HW1 1790   7.397   0.331   7.430
  448HO4    HW2 1791   7.424   0.305   7.590
  448HO4     MW 1792   7.452   0.359   7.509
  449HO4     OW 1793   0.382   3.647   3.600
  449HO4    HW1 1794   0.348   3.583   3.669
  449HO4    HW2 1795   0.356   3.614   3.508
  449HO4     MW 1796   0.382   3.647   3.600
  450HO4     OW 1797   7.332   1.809   4.489
  450HO4    HW1 1798   7.379   1.770   4.409
  450HO4    HW2 1799   7.366   1.764   4.572
  450HO4     MW 1800   7.332   1.809   4.489
  451HO4     OW 1801   1.666   4.090   9.863
  451HO4    HW1 1802   1.661   4.024   9.788
  451HO4    HW2 1803   1.613   4.057   9.941
  451HO4     MW 1804   1.666   4.090   9.863
  452HO4     OW 1805   9.717   1.865   5.385
  452HO4    HW1 1806   9.686   1.906   5.299
  452HO4    HW2 1807   9.678   1.918   5.462
  452HO4     MW 1808   9.717   1.865   5.385
  453HO4     OW 1809   9.798   8.921   6.084
  453HO4    HW1 1810   9.865   8.995   6.073
  453HO4    HW2 1811   9.714   8.957   6.125
  453HO4     MW 1812   9.798   8.921   6.084
  454HO4     OW 1813   1.199   5.580   3.240
  454HO4    HW1 1814   1.161   5.599   3.149
  454HO4    HW2 1815   1.264   5.652   3.266
  454HO4     MW 1816   1.199   5.580   3.240
  455HO4     OW 1817   9.669   7.852   5.503
  455HO4    HW1 1818   9.748   7.849   5.566
  455HO4    HW2 1819   9.603   7.781   5.530
  455HO4     MW 1820   9.669   7.852   5.503
  456HO4     OW 1821   0.957   6.693   1.291
  456HO4    HW1 1822   0.927   6.782   1.255
  456HO4    HW2 1823   1.028   6.655   1.232
  456HO4     MW 1824   0.957   6.693   1.291
  457HO4     OW 1825   3.927   3.836   9.823
  457HO4    HW1 1826   3.922   3.906   9.751
  457HO4    HW2 1827   3.992   3.865   9.893
  457HO4     MW 1828   3.927   3.836   9.823
  458HO4     OW 1829   9.619   1.296   4.838
  458HO4    HW1 1830   9.621   1.396   4.846
  458HO4    HW2 1831   9.629   1.270   4.741
  458HO4     MW 1832   9.619   1.296   4.838
  459HO4     OW 1833   4.582   4.917   1.124
  459HO4    HW1 1834   4.539   4.980   1.058
  459HO4    HW2 1835   4.559   4.823   1.099
  459HO4     MW 1836   4.582   4.917   1.124
  460HO4     OW 1837   8.298   9.587   3.174
  460HO4    HW1 1838   8.333   9.577   3.080
  460HO4    HW2 1839   8.375   9.604   3.236
  460HO4     MW 1840   8.298   9.587   3.174
  461HO4     OW 1841   4.009   6.912   6.358
  461HO4    HW1 1842   4.020   6.954   6.449
  461HO4    HW2 1843   4.099   6.882   6.325
  461HO4     MW 1844   4.009   6.912   6.358
  462HO4     OW 1845   2.193   5.560   8.847
  462HO4    HW1 1846   2.277   5.614   8.834
  462HO4    HW2 1847   2.205   5.498   8.925
  462HO4     MW 1848   2.193   5.560   8.847
  463HO4     OW 1849   0.356   1.973   4.845
  463HO4    HW1 1850   0.274   1.918   4.829
  463HO4    HW2 1851   0.367   1.989   4.944
  463HO4     MW 1852   0.356   1.973   4.845
  464HO4     OW 1853   4.114   4.300   7.565
  464HO4    HW1 1854   4.060   4.244   7.628
  464HO4    HW2 1855   4.073   4.295   7.473
  464HO4     MW 1856   4.114   4.300   7.565
  465HO4     OW 1857   9.135   1.987   0.486
  465HO4    HW1 1858   9.076   2.039   0.549
  465HO4    HW2 1859   9.079   1.930   0.426
  465HO4     MW 1860   9.135   1.987   0.486
  466HO4     OW 1861   7.080   0.585   8.487
  466HO4    HW1 1862   7.015   0.538   8.427
  466HO4    HW2 1863   7.035   0.612   8.573
  466HO4     MW 1864   7.080   0.585   8.487
  467HO4     OW 1865   6.875   9.811   7.363
  467HO4    HW1 1866   6.944   9.881   7.381
  467HO4    HW2 1867   6.919   9.729   7.324
  467HO4     MW 1868   6.875   9.811   7.363
  468HO4     OW 1869   1.149   6.157   2.035
  468HO4    HW1 1870   1.184   6.079   2.087
  468HO4    HW2 1871   1.139   6.236   2.096
  468HO4     MW 1872   1.149   6.157   2.035
  469HO4     OW 1873   8.966   9.710   8.668
  469HO4    HW1 1874   8.910   9.740   8.590
  469HO4    HW2 1875   8.915   9.644   8.723
  469HO4     MW 1876   8.966   9.710   8.668
  470HO4     OW 1877   2.332   4.093   3.983
  470HO4    HW1 1878   2.331   4.160   4.057
  470HO4    HW2 1879   2.270   4.123   3.910
  470HO4     MW 1880   2.332   4.093   3.983
  471HO4     OW 1881   5.034   2.453   5.348
  471HO4    HW1 1882   5.065   2.538   5.305
  471HO4    HW2 1883   4.934   2.445   5.338
  471HO4     MW 1884   5.034   2.453   5.348
  472HO4     OW 1885   9.519   2.058   6.705
  472HO4    HW1 1886   9.553   2.152   6.713
  472HO4    HW2 1887   9.515   2.032   6.608
  472HO4     MW 1888   9.519   2.058   6.705
  473HO4     OW 1889   0.516   0.582   6.863
  473HO4    HW1 1890   0.541   0.497   6.911
  473HO4    HW2 1891   0.416   0.593   6.864
  473HO4     MW 1892   0.516   0.582   6.863
  474HO4     OW 1893   2.211   1.247   5.939
  474HO4    HW1 1894   2.308   1.245   5.913
  474HO4    HW2 1895   2.161   1.177   5.885
  474HO4     MW 1896   2.211   1.247   5.939
  475HO4     OW 1897   1.774   4.874   1.463
  475HO4    HW1 1898   1.803   4.918   1.378
  475HO4    HW2 1899   1.854   4.837   1.511
  475HO4     MW 1900   1.774   4.874   1.463
  476HO4     OW 1901   2.877   3.570   1.845
  476HO4    HW1 1902   2.975   3.555   1.858
  476HO4    HW2 1903   2.849   3.653   1.894
  476HO4     MW 1904   2.877   3.570   1.845
  477HO4     OW 1905   2.985   4.725   2.302
  477HO4    HW1 1906   2.992   4.669   2.218
  477HO4    HW2 1907   3.077   4.751   2.332
  477HO4     MW 1908   2.985   4.725   2.302
  478HO4     OW 1909   0.724   9.028   0.687
  478HO4    HW1 1910   0.719   9.052   0.590
  478HO4    HW2 1911   0.743   9.110   0.741
  478HO4     MW 1912   0.724   9.028   0.687
  479HO4     OW 1913   8.222   9.710   1.956
  479HO4    HW1 1914   8.272   9.748   1.878
  479HO4    HW2 1915   8.265   9.742   2.042
  479HO4     MW 1916   8.222   9.710   1.956
  480HO4     OW 1917   9.291   0.338   6.340
  480HO4    HW1 1918   9.387   0.313   6.358
  480HO4    HW2 1919   9.280   0.437   6.352
  480HO4     MW 1920   9.291   0.338   6.340
  481HO4     OW 1921   8.602   4.469   4.714
  481HO4    HW1 1922   8.696   4.483   4.682
  481HO4    HW2 1923   8.548   4.552   4.696
  481HO4     MW 1924   8.602   4.469   4.714
  482HO4     OW 1925   5.050   9.595   6.319
  482HO4    HW1 1926   5.148   9.605   6.338
  482HO4    HW2 1927   5.033   9.504   6.280
  482HO4     MW 1928   5.050   9.595   6.319
  483HO4     OW 1929   3.302   5.941   8.184
  483HO4    HW1 1930   3.373   5.936   8.113
  483HO4    HW2 1931   3.340   5.986   8.265
  483HO4     MW 1932   3.302   5.941   8.184
  484HO4     OW 1933   9.205   6.197   2.147
  484HO4    HW1 1934   9.149   6.185   2.230
  484HO4    HW2 1935   9.162   6.265   2.087
  484HO4     MW 1936   9.205   6.197   2.147
  485HO4     OW 1937   6.973   5.085   2.149
  485HO4    HW1 1938   6.906   5.085   2.225
  485HO4    HW2 1939   6.924   5.095   2.062
  485HO4     MW 1940   6.973   5.085   2.149
  486HO4     OW 1941   1.974   9.885   5.463
  486HO4    HW1 1942   2.054   9.928   5.421
  486HO4    HW2 1943   1.894   9.901   5.404
  486HO4     MW 1944   1.974   9.885   5.463
  487HO4     OW 1945   6.052   3.591   7.563
  487HO4    HW1 1946   6.029   3.611   7.659
  487HO4    HW2 1947   5.981   3.629   7.503
  487HO4     MW 1948   6.052   3.591   7.563
  488HO4     OW 1949   4.705   2.777   4.392
  488HO4    HW1 1950   4.741   2.828   4.470
  488HO4    HW2 1951   4.733   2.821   4.307
  488HO4     MW 1952   4.705   2.777   4.392
  489HO4     OW 1953   0.770   0.874   8.273
  489HO4    HW1 1954   0.703   0.801   8.257
  489HO4    HW2 1955   0.809   0.903   8.185
  489HO4     MW 1956   0.770   0.874   8.273
  490HO4     OW 1957   0.484   4.193   5.264
  490HO4    HW1 1958   0.460   4.185   5.361
  490HO4    HW2 1959   0.474   4.288   5.234
  490HO4     MW 1960   0.484   4.193   5.264
  491HO4     OW 1961   7.243   3.759   3.704
  491HO4    HW1 1962   7.215   3.691   3.635
  491HO4    HW2 1963   7.275   3.711   3.786
  491HO4     MW 1964   7.243   3.759   3.704
  492HO4     OW 1965   1.465   7.723   2.102
  492HO4    HW1 1966   1.532   7.679   2.042
  492HO4    HW2 1967   1.502   7.728   2.195
  492HO4     MW 1968   1.465   7.723   2.102
  493HO4     OW 1969   5.143   4.446   3.230
  493HO4    HW1 1970   5.045   4.461   3.215
  493HO4    HW2 1971   5.173   4.499   3.310
  493HO4     MW 1972   5.143   4.446   3.230
  494HO4     OW 1973   0.386   7.739   0.847
  494HO4    HW1 1974   0.409   7.791   0.764
  494HO4    HW2 1975   0.385   7.800   0.926
  494HO4     MW 1976   0.386   7.739   0.847
  495HO4     OW 1977   7.693   7.570   3.638
  495HO4    HW1 1978   7.789   7.586   3.662
  495HO4    HW2 1979   7.680   7.578   3.539
  495HO4     MW 1980   7.693   7.570   3.638
  496HO4     OW 1981   5.917   9.251   2.353
  496HO4    HW1 1982   5.837   9.302   2.319
  496HO4    HW2 1983   5.890   9.193   2.430
  496HO4     MW 1984   5.917   9.251   2.353
  497HO4     OW 1985   5.775   2.613   8.788
  497HO4    HW1 1986   5.862   2.635   8.833
  497HO4    HW2 1987   5.779   2.641   8.692
  497HO4     MW 1988   5.775   2.613   8.788
  498HO4     OW 1989   8.730   1.035   8.640
  498HO4    HW1 1990   8.636   1.027   8.605
  498HO4    HW2 1991   8.728   1.028   8.741
  498HO4     MW 1992   8.730   1.035   8.640
  499HO4     OW 1993   7.420   5.419   4.721
  499HO4    HW1 1994   7.411   5.330   4.767
  499HO4    HW2 1995   7.392   5.410   4.625
  499HO4     MW 1996   7.420   5.419   4.721
  500HO4     OW 1997   3.237   0.048   5.114
  500HO4    HW1 1998   3.287   0.026   5.198
  500HO4    HW2 1999   3.297   0.035   5.035
  500HO4     MW 2000   3.237   0.048   5.114
  501HO4     OW 2001   8.649   6.662   5.361
  501HO4    HW1 2002   8.727   6.627   5.415
  501HO4    HW2 2003   8.656   6.762   5.354
  501HO4     MW 2004   8.649   6.662   5.361
  502HO4     OW 2005   0.264   0.149   4.678
  502HO4    HW1 2006   0.337   0.187   4.621
  502HO4    HW2 2007   0.301   0.072   4.732
  502HO4     MW 2008   0.264   0.149   4.678
  503HO4     OW 2009   9.262   3.818   0.588
  503HO4    HW1 2010   9.299   3.876   0.514
  503HO4    HW2 2011   9.267   3.867   0.675
  503HO4     MW 2012   9.262   3.818   0.588
  504HO4     OW 2013   0.673   7.736   0.812
  504HO4    HW1 2014   0.616   7.661   0.778
  504HO4    HW2 2015   0.722   7.778   0.736
  504HO4     MW 2016   0.673   7.736   0.812
  505HO4     OW 2017   5.199   9.713   1.520
  505HO4    HW1 2018   5.254   9.732   1.602
  505HO4    HW2 2019   5.253   9.735   1.438
  505HO4     MW 2020   5.199   9.713   1.520
  506HO4     OW 2021   9.402   6.052   8.970
  506HO4    HW1 2022   9.391   6.149   8.993
  506HO4    HW2 2023   9.485   6.016   9.014
  506HO4     MW 2024   9.402   6.052   8.970
  507HO4     OW 2025   8.168   1.778   5.360
  507HO4    HW1 2026   8.088   1.826   5.397
  507HO4    HW2 2027   8.140   1.725   5.279
  507HO4     MW 2028   8.168   1.778   5.360
  508HO4     OW 2029   1.338   6.588   0.185
  508HO4    HW1 2030   1.350   6.668   0.126
  508HO4    HW2 2031   1.424   6.568   0.234
  508HO4     MW 2032   1.338   6.588   0.185
  509HO4     OW 2033   8.089   2.022   0.125
  509HO4    HW1 2034   8.095   1.983   0.218
  509HO4    HW2 2035   7.996   2.055   0.109
  509HO4     MW 2036   8.089   2.022   0.125
  510HO4     OW 2037   0.611   0.873   5.360
  510HO4    HW1 2038   0.542   0.830   5.419
  510HO4    HW2 2039   0.607   0.833   5.268
  510HO4     MW 2040   0.611   0.873   5.360
  511HO4     OW 2041   8.512   6.773   0.714
  511HO4    HW1 2042   8.556   6.712   0.781
  511HO4    HW2 2043   8.488   6.720   0.632
  511HO4     MW 2044   8.512   6.773   0.714
  512HO4     OW 2045   6.159   1.720   7.678
  512HO4    HW1 2046   6.134   1.806   7.631
  512HO4    HW2 2047   6.143   1.731   7.777
  512HO4     MW 2048   6.159   1.720   7.678
  513HO4     OW 2049   6.775   8.396   2.265
  513HO4    HW1 2050   6.805   8.376   2.171
  513HO4    HW2 2051   6.679   8.367   2.275
  513HO4     MW 2052   6.775   8.396   2.265
  514HO4     OW 2053   7.961   3.087   0.772
  514HO4    HW1 2054   7.863   3.068   0.785
  514HO4    HW2 2055   7.976   3.132   0.684
  514HO4     MW 2056   7.961   3.087   0.772
  515HO4     OW 2057   5.929   4.426   2.966
  515HO4    HW1 2058   5.911   4.447   3.063
  515HO4    HW2 2059   5.979   4.339   2.959
  515HO4     MW 2060   5.929   4.426   2.966
  516HO4     OW 2061   3.788   2.415   1.045
  516HO4    HW1 2062   3.767   2.357   1.124
  516HO4    HW2 2063   3.774   2.362   0.961
  516HO4     MW 2064   3.788   2.415   1.045
  517HO4     OW 2065   3.959   9.949   2.714
  517HO4    HW1 2066   3.934   9.853   2.704
  517HO4    HW2 2067   3.905   9.990   2.789
  517HO4     MW 2068   3.959   9.949   2.714
  518HO4     OW 2069   0.436   8.126   2.607
  518HO4    HW1 2070   0.499   8.091   2.678
  518HO4    HW2 2071   0.399   8.214   2.638
  518HO4     MW 2072   0.436   8.126   2.607
  519HO4     OW 2073   0.245   8.546   5.074
  519HO4    HW1 2074   0.147   8.565   5.064
  519HO4    HW2 2075   0.296   8.632   5.069
  519HO4     MW 2076   0.245   8.546   5.074
  520HO4     OW 2077   1.294   2.505   5.737
  520HO4    HW1 2078   1.271   2.448   5.816
  520HO4    HW2 2079   1.305   2.447   5.656
  520HO4     MW 2080   1.294   2.505   5.737
  521HO4     OW 2081   5.153   0.829   0.983
  521HO4    HW1 2082   5.059   0.819   1.016
  521HO4    HW2 2083   5.213   0.851   1.060
  521HO4     MW 2084   5.153   0.829   0.983
  522HO4     OW 2085   8.158   8.059   0.566
  522HO4    HW1 2086   8.216   8.067   0.485
  522HO4    HW2 2087   8.216   8.043   0.647
  522HO4     MW 2088   8.158   8.059   0.566
  523HO4     OW 2089   9.246   5.697   2.920
  523HO4    HW1 2090   9.222   5.646   3.003
  523HO4    HW2 2091   9.167   5.699   2.858
  523HO4     MW 2092   9.246   5.697   2.920
  524HO4     OW 2093   7.914   6.350   6.458
  524HO4    HW1 2094   7.929   6.407   6.377
  524HO4    HW2 2095   7.931   6.404   6.541
  524HO4     MW 2096   7.914   6.350   6.458
  525HO4     OW 2097   3.883   0.485   0.485
  525HO4    HW1 2098   3.952   0.557   0.495
  525HO4    HW2 2099   3.800   0.512   0.535
  525HO4     MW 2100   3.883   0.485   0.485
  526HO4     OW 2101   3.062   1.307   7.817
  526HO4    HW1 2102   3.085   1.244   7.892
  526HO4    HW2 2103   3.090   1.266   7.729
  526HO4     MW 2104   3.062   1.307   7.817
  527HO4     OW 2105   3.321   5.674   3.341
  527HO4    HW1 2106   3.233   5.693   3.296
  527HO4    HW2 2107   3.326   5.727   3.427
  527HO4     MW 2108   3.321   5.674   3.341
  528HO4     OW 2109   5.388   5.399   5.517
  528HO4    HW1 2110   5.397   5.461   5.438
  528HO4    HW2 2111   5.459   5.421   5.585
  528HO4     MW 2112   5.388   5.399   5.517
  529HO4     OW 2113   5.550   1.275   5.140
  529HO4    HW1 2114   5.626   1.232   5.091
  529HO4    HW2 2115   5.586   1.334   5.213
  529HO4     MW 2116   5.550   1.275   5.140
  530HO4     OW 2117   1.754   5.653   9.559
  530HO4    HW1 2118   1.839   5.618   9.519
  530HO4    HW2 2119   1.757   5.754   9.560
  530HO4     MW 2120   1.754   5.653   9.559
  531HO4     OW 2121   7.879   1.434   7.717
  531HO4    HW1 2122   7.935   1.446   7.634
  531HO4    HW2 2123   7.938   1.418   7.796
  531HO4     MW 2124   7.879   1.434   7.717
  532HO4     OW 2125   2.344   5.154   1.443
  532HO4    HW1 2126   2.281   5.209   1.498
  532HO4    HW2 2127   2.301   5.132   1.355
  532HO4     MW 2128   2.344   5.154   1.443
  533HO4     OW 2129   4.895   2.064   0.741
  533HO4    HW1 2130   4.877   2.027   0.832
  533HO4    HW2 2131   4.858   2.001   0.671
  533HO4     MW 2132   4.895   2.064   0.741
  534HO4     OW 2133   5.950   1.370   5.385
  534HO4    HW1 2134   5.903   1.399   5.301
  534HO4    HW2 2135   5.906   1.412   5.465
  534HO4     MW 2136   5.950   1.370   5.385
  535HO4     OW 2137   5.832   8.839   7.740
  535HO4    HW1 2138   5.774   8.921   7.741
  535HO4    HW2 2139   5.873   8.827   7.831
  535HO4     MW 2140   5.832   8.839   7.740
  536HO4     OW 2141   8.079   9.589   0.889
  536HO4    HW1 2142   8.109   9.635   0.805
  536HO4    HW2 2143   8.136   9.508   0.906
  536HO4     MW 2144   8.079   9.589   0.889
  537HO4     OW 2145   9.366   4.034   1.931
  537HO4    HW1 2146   9.421   4.012   1.850
  537HO4    HW2 2147   9.425   4.060   2.007
  537HO4     MW 2148   9.366   4.034   1.931
  538HO4     OW 2149   3.744   2.554   5.119
  538HO4    HW1 2150   3.806   2.508   5.184
  538HO4    HW2 2151   3.798   2.599   5.047
  538HO4     MW 2152   3.744   2.554   5.119
  539HO4     OW 2153   1.921   8.140   0.622
  539HO4    HW1 2154   1.951   8.049   0.594
  539HO4    HW2 2155   1.970   8.168   0.705
  539HO4     MW 2156   1.921   8.140   0.622
  540HO4     OW 2157   2.163   6.261   4.540
  540HO4    HW1 2158   2.202   6.326   4.606
  540HO4    HW2 2159   2.215   6.175   4.541
  540HO4     MW 2160   2.163   6.261   4.540
  541HO4     OW 2161   9.381   3.799   3.517
  541HO4    HW1 2162   9.401   3.702   3.526
  541HO4    HW2 2163   9.298   3.811   3.461
  541HO4     MW 2164   9.381   3.799   3.517
  542HO4     OW 2165   6.629   3.648   6.598
  542HO4    HW1 2166   6.683   3.580   6.649
  542HO4    HW2 2167   6.671   3.738   6.609
  542HO4     MW 2168   6.629   3.648   6.598
  543HO4     OW 2169   5.115   6.487   5.916
  543HO4    HW1 2170   5.164   6.539   5.987
  543HO4    HW2 2171   5.050   6.548   5.870
  543HO4     MW 2172   5.115   6.487   5.916
  544HO4     OW 2173   0.737   8.789   8.515
  544HO4    HW1 2174   0.803   8.743   8.456
  544HO4    HW2 2175   0.760   8.772   8.611
  544HO4     MW 2176   0.737   8.789   8.515
  545HO4     OW 2177   0.090   4.256   5.475
  545HO4    HW1 2178   0.132   4.201   5.402
  545HO4    HW2 2179   0.094   4.205   5.562
  545HO4     MW 2180   0.090   4.256   5.475
  546HO4     OW 2181   3.280   9.075   4.070
  546HO4    HW1 2182   3.187   9.077   4.109
  546HO4    HW2 2183   3.338   9.140   4.119
  546HO4     MW 2184   3.280   9.075   4.070
  547HO4     OW 2185   0.638   3.224   6.104
  547HO4    HW1 2186   0.655   3.281   6.023
  547HO4    HW2 2187   0.661   3.276   6.187
  547HO4     MW 2188   0.638   3.224   6.104
  548HO4     OW 2189   7.364   6.635   9.940
  548HO4    HW1 2190   7.462   6.625   9.961
  548HO4    HW2 2191   7.327   6.546   9.912
  548HO4     MW 2192   7.364   6.635   9.940
  549HO4     OW 2193   6.972   1.590   2.925
  549HO4    HW1 2194   6.983   1.516   2.992
  549HO4    HW2 2195   6.931   1.553   2.841
  549HO4     MW 2196   6.972   1.590   2.925
  550HO4     OW 2197   4.332   5.731   0.592
  550HO4    HW1 2198   4.257   5.676   0.553
  550HO4    HW2 2199   4.324   5.826   0.559
  550HO4     MW 2200   4.332   5.731   0.592
  551HO4     OW 2201   4.554   2.792   7.553
  551HO4    HW1 2202   4.540   2.737   7.470
  551HO4    HW2 2203   4.540   2.735   7.634
  551HO4     MW 2204   4.554   2.792   7.553
  552HO4     OW 2205   1.874   7.029   3.251
  552HO4    HW1 2206   1.830   7.003   3.337
  552HO4    HW2 2207   1.805   7.066   3.187
  552HO4     MW 2208   1.874   7.029   3.251
  553HO4     OW 2209   2.077   2.907   8.613
  553HO4    HW1 2210   2.039   2.999   8.614
  553HO4    HW2 2211   2.038   2.854   8.689
  553HO4     MW 2212   2.077   2.907   8.613
  554HO4     OW 2213   5.827   2.942   1.385
  554HO4    HW1 2214   5.785   2.970   1.298
  554HO4    HW2 2215   5.759   2.950   1.458
  554HO4     MW 2216   5.827   2.942   1.385
  555HO4     OW 2217   0.639   0.596   1.782
  555HO4    HW1 2218   0.596   0.614   1.693
  555HO4    HW2 2219   0.622   0.674   1.843
  555HO4     MW 2220   0.639   0.596   1.782
  556HO4     OW 2221   2.420   7.995   9.019
  556HO4    HW1 2222   2.421   7.915   8.959
  556HO4    HW2 2223   2.325   8.026   9.031
  556HO4     MW 2224   2.420   7.995   9.019
  557HO4     OW 2225   0.025   4.200   8.308
  557HO4    HW1 2226   0.035   4.109   8.268
  557HO4    HW2 2227   0.035   4.270   8.237
  557HO4     MW 2228   0.025   4.200   8.308
  558HO4     OW 2229   4.583   9.293   8.302
  558HO4    HW1 2230   4.495   9.313   8.345
  558HO4    HW2 2231   4.656   9.341   8.352
  558HO4     MW 2232   4.583   9.293   8.302
  559HO4     OW 2233   9.130   4.562   3.838
  559HO4    HW1 2234   9.108   4.646   3.890
  559HO4    HW2 2235   9.227   4.561   3.815
  559HO4     MW 2236   9.130   4.562   3.838
  560HO4     OW 2237   1.013   1.572   3.012
  560HO4    HW1 2238   1.019   1.521   3.098
  560HO4    HW2 2239   1.022   1.508   2.935
  560HO4     MW 2240   1.013   1.572   3.012
  561HO4     OW 2241   3.721   6.814   1.944
  561HO4    HW1 2242   3.755   6.820   1.850
  561HO4    HW2 2243   3.668   6.896   1.966
  561HO4     MW 2244   3.721   6.814   1.944
  562HO4     OW 2245  10.089   4.588   4.945
  562HO4    HW1 2246  10.009   4.561   5.000
  562HO4    HW2 2247  10.082   4.685   4.921
  562HO4     MW 2248  10.089   4.588   4.945
  563HO4     OW 2249   6.055   0.784   5.346
  563HO4    HW1 2250   6.147   0.782   5.387
  563HO4    HW2 2251   6.062   0.797   5.247
  563HO4     MW 2252   6.055   0.784   5.346
  564HO4     OW 2253   0.754   3.408   5.333
  564HO4    HW1 2254   0.816   3.440   5.404
  564HO4    HW2 2255   0.803   3.405   5.245
  564HO4     MW 2256   0.754   3.408   5.333
  565HO4     OW 2257   4.042   5.305   2.160
  565HO4    HW1 2258   4.139   5.282   2.172
  565HO4    HW2 2259   4.035   5.386   2.100
  565HO4     MW 2260   4.042   5.305   2.160
  566HO4     OW 2261   8.001   3.719   9.428
  566HO4    HW1 2262   7.988   3.788   9.357
  566HO4    HW2 2263   7.968   3.755   9.516
  566HO4     MW 2264   8.001   3.719   9.428
  567HO4     OW 2265   5.749   5.192   2.133
  567HO4    HW1 2266   5.671   5.238   2.089
  567HO4    HW2 2267   5.754   5.097   2.102
  567HO4     MW 2268   5.749   5.192   2.133
  568HO4     OW 2269   8.260   7.354   5.601
  568HO4    HW1 2270   8.208   7.268   5.599
  568HO4    HW2 2271   8.202   7.428   5.566
  568HO4     MW 2272   8.260   7.354   5.601
  569HO4     OW 2273   5.079   2.322   3.675
  569HO4    HW1 2274   5.023   2.327   3.759
  569HO4    HW2 2275   5.101   2.415   3.645
  569HO4     MW 2276   5.079   2.322   3.675
  570HO4     OW 2277   8.897   3.545   6.612
  570HO4    HW1 2278   8.913   3.449   6.586
  570HO4    HW2 2279   8.943   3.606   6.547
  570HO4     MW 2280   8.897   3.545   6.612
  571HO4     OW 2281   9.789   0.747   3.545
  571HO4    HW1 2282   9.827   0.659   3.517
  571HO4    HW2 2283   9.780   0.750   3.645
  571HO4     MW 2284   9.789   0.747   3.545
  572HO4     OW 2285   1.360   1.649   3.862
  572HO4    HW1 2286   1.357   1.713   3.939
  572HO4    HW2 2287   1.278   1.660   3.806
  572HO4     MW 2288   1.360   1.649   3.862
  573HO4     OW 2289   8.169   7.126   6.139
  573HO4    HW1 2290   8.269   7.120   6.149
  573HO4    HW2 2291   8.143   7.090   6.049
  573HO4     MW 2292   8.169   7.126   6.139
  574HO4     OW 2293   2.412   0.608   5.148
  574HO4    HW1 2294   2.462   0.680   5.100
  574HO4    HW2 2295   2.397   0.530   5.086
  574HO4     MW 2296   2.412   0.608   5.148
  575HO4     OW 2297   2.202   0.400   9.679
  575HO4    HW1 2298   2.209   0.501   9.675
  575HO4    HW2 2299   2.289   0.360   9.649
  575HO4     MW 2300   2.202   0.400   9.679
  576HO4     OW 2301   7.197   3.740   5.080
  576HO4    HW1 2302   7.101   3.767   5.073
  576HO4    HW2 2303   7.205   3.660   5.140
  576HO4     MW 2304   7.197   3.740   5.080
  577HO4     OW 2305   1.801   9.162   2.061
  577HO4    HW1 2306   1.879   9.173   2.123
  577HO4    HW2 2307   1.831   9.115   1.977
  577HO4     MW 2308   1.801   9.162   2.061
  578HO4     OW 2309   2.742   6.442   5.368
  578HO4    HW1 2310   2.688   6.486   5.440
  578HO4    HW2 2311   2.692   6.363   5.331
  578HO4     MW 2312   2.742   6.442   5.368
  579HO4     OW 2313   9.172   7.333   6.632
  579HO4    HW1 2314   9.191   7.336   6.731
  579HO4    HW2 2315   9.255   7.307   6.582
  579HO4     MW 2316   9.172   7.333   6.632
  580HO4     OW 2317   1.397   1.014   2.420
  580HO4    HW1 2318   1.399   0.958   2.503
  580HO4    HW2 2319   1.491   1.038   2.393
  580HO4     MW 2320   1.397   1.014   2.420
  581HO4     OW 2321   3.231   6.550   6.864
  581HO4    HW1 2322   3.191   6.585   6.779
  581HO4    HW2 2323   3.252   6.628   6.925
  581HO4     MW 2324   3.231   6.550   6.864
  582HO4     OW 2325   3.549   1.679   2.713
  582HO4    HW1 2326   3.593   1.642   2.631
  582HO4    HW2 2327   3.463   1.725   2.687
  582HO4     MW 2328   3.549   1.679   2.713
  583HO4     OW 2329   7.060   6.868   5.802
  583HO4    HW1 2330   6.976   6.920   5.822
  583HO4    HW2 2331   7.041   6.801   5.728
  583HO4     MW 2332   7.060   6.868   5.802
  584HO4     OW 2333   6.203   7.787   5.992
  584HO4    HW1 2334   6.289   7.781   6.043
  584HO4    HW2 2335   6.218   7.762   5.896
  584HO4     MW 2336   6.203   7.787   5.992
  585HO4     OW 2337  10.043   4.729   0.897
  585HO4    HW1 2338  10.056   4.641   0.945
  585HO4    HW2 2339  10.096   4.800   0.943
  585HO4     MW 2340  10.043   4.729   0.897
  586HO4     OW 2341   8.101   2.145   8.834
  586HO4    HW1 2342   8.162   2.184   8.765
  586HO4    HW2 2343   8.058   2.219   8.887
  586HO4     MW 2344   8.101   2.145   8.834
  587HO4     OW 2345   4.990   9.349   4.695
  587HO4    HW1 2346   5.071   9.306   4.737
  587HO4    HW2 2347   4.979   9.442   4.731
  587HO4     MW 2348   4.990   9.349   4.695
  588HO4     OW 2349   0.387   8.780   5.260
  588HO4    HW1 2350   0.363   8.806   5.355
  588HO4    HW2 2351   0.348   8.848   5.197
  588HO4     MW 2352   0.387   8.780   5.260
  589HO4     OW 2353   1.665   9.314   6.221
  589HO4    HW1 2354   1.570   9.340   6.241
  589HO4    HW2 2355   1.683   9.329   6.123
  589HO4     MW 2356   1.665   9.314   6.221
  590HO4     OW 2357   0.409   2.248   0.747
  590HO4    HW1 2358   0.437   2.270   0.841
  590HO4    HW2 2359   0.486   2.263   0.685
  590HO4     MW 2360   0.409   2.248   0.747
  591HO4     OW 2361   8.495   6.402   2.450
  591HO4    HW1 2362   8.511   6.350   2.534
  591HO4    HW2 2363   8.433   6.350   2.389
  591HO4     MW 2364   8.495   6.402   2.450
  592HO4     OW 2365   7.732   6.192   8.528
  592HO4    HW1 2366   7.789   6.206   8.447
  592HO4    HW2 2367   7.789   6.193   8.610
  592HO4     MW 2368   7.732   6.192   8.528
  593HO4     OW 2369   0.315   5.607   6.565
  593HO4    HW1 2370   0.284   5.651   6.480
  593HO4    HW2 2371   0.274   5.653   6.643
  593HO4     MW 2372   0.315   5.607   6.565
  594HO4     OW 2373   6.659   7.719   9.870
  594HO4    HW1 2374   6.750   7.729   9.910
  594HO4    HW2 2375   6.650   7.779   9.790
  594HO4     MW 2376   6.659   7.719   9.870
  595HO4     OW 2377   7.378   1.915   1.398
  595HO4    HW1 2378   7.356   1.963   1.312
  595HO4    HW2 2379   7.336   1.964   1.475
  595HO4     MW 2380   7.378   1.915   1.398
  596HO4     OW 2381   8.537   8.767   5.856
  596HO4    HW1 2382   8.472   8.775   5.932
  596HO4    HW2 2383   8.493   8.796   5.771
  596HO4     MW 2384   8.537   8.767   5.856
  597HO4     OW 2385   3.969   9.867   5.982
  597HO4    HW1 2386   3.991   9.919   5.899
  597HO4    HW2 2387   4.049   9.865   6.043
  597HO4     MW 2388   3.969   9.867   5.982
  598HO4     OW 2389   3.985   8.614   4.269
  598HO4    HW1 2390   3.959   8.699   4.221
  598HO4    HW2 2391   3.935   8.609   4.356
  598HO4     MW 2392   3.985   8.614   4.269
  599HO4     OW 2393   9.308   3.206   4.631
  599HO4    HW1 2394   9.313   3.278   4.562
  599HO4    HW2 2395   9.347   3.240   4.717
  599HO4     MW 2396   9.308   3.206   4.631
  600HO4     OW 2397   0.964   4.773   1.500
  600HO4    HW1 2398   1.017   4.711   1.558
  600HO4    HW2 2399   0.865   4.757   1.514
  600HO4     MW 2400   0.964   4.773   1.500
  601HO4     OW 2401   9.227   1.560   5.624
  601HO4    HW1 2402   9.226   1.539   5.722
  601HO4    HW2 2403   9.168   1.494   5.575
  601HO4     MW 2404   9.227   1.560   5.624
  602HO4     OW 2405   7.802   8.962   3.727
  602HO4    HW1 2406   7.716   8.919   3.700
  602HO4    HW2 2407   7.863   8.893   3.766
  602HO4     MW 2408   7.802   8.962   3.727
  603HO4     OW 2409   0.112   4.481   5.610
  603HO4    HW1 2410   0.184   4.517   5.550
  603HO4    HW2 2411   0.025   4.523   5.586
  603HO4     MW 2412   0.112   4.481   5.610
  604HO4     OW 2413   8.538   0.390   5.355
  604HO4    HW1 2414   8.549   0.490   5.353
  604HO4    HW2 2415   8.509   0.358   5.265
  604HO4     MW 2416   8.538   0.390   5.355
  605HO4     OW 2417   6.046   3.263   1.252
  605HO4    HW1 2418   6.022   3.168   1.276
  605HO4    HW2 2419   6.136   3.265   1.208
  605HO4     MW 2420   6.046   3.263   1.252
  606HO4     OW 2421   3.395   8.477   2.786
  606HO4    HW1 2422   3.372   8.574   2.789
  606HO4    HW2 2423   3.478   8.460   2.840
  606HO4     MW 2424   3.395   8.477   2.786
  607HO4     OW 2425   9.394   3.411   2.084
  607HO4    HW1 2426   9.465   3.387   2.150
  607HO4    HW2 2427   9.396   3.346   2.007
  607HO4     MW 2428   9.394   3.411   2.084
  608HO4     OW 2429   7.076   6.112   0.383
  608HO4    HW1 2430   7.014   6.039   0.412
  608HO4    HW2 2431   7.138   6.078   0.312
  608HO4     MW 2432   7.076   6.112   0.383
  609HO4     OW 2433   5.153   1.624   7.261
  609HO4    HW1 2434   5.245   1.595   7.290
  609HO4    HW2 2435   5.134   1.716   7.297
  609HO4     MW 2436   5.153   1.624   7.261
  610HO4     OW 2437   7.130   9.822   0.881
  610HO4    HW1 2438   7.158   9.786   0.791
  610HO4    HW2 2439   7.198   9.888   0.914
  610HO4     MW 2440   7.130   9.822   0.881
  611HO4     OW 2441   2.365   6.327   9.304
  611HO4    HW1 2442   2.331   6.325   9.210
  611HO4    HW2 2443   2.373   6.233   9.339
  611HO4     MW 2444   2.365   6.327   9.304
  612HO4     OW 2445   8.653   7.103   9.191
  612HO4    HW1 2446   8.641   7.152   9.278
  612HO4    HW2 2447   8.608   7.013   9.196
  612HO4     MW 2448   8.653   7.103   9.191
  613HO4     OW 2449   5.461   4.177   0.741
  613HO4    HW1 2450   5.462   4.078   0.757
  613HO4    HW2 2451   5.480   4.226   0.827
  613HO4     MW 2452   5.461   4.177   0.741
  614HO4     OW 2453   4.093   9.917   3.939
  614HO4    HW1 2454   4.121   9.915   3.842
  614HO4    HW2 2455   4.173   9.930   3.997
  614HO4     MW 2456   4.093   9.917   3.939
  615HO4     OW 2457   4.914   9.730   5.820
  615HO4    HW1 2458   4.945   9.683   5.737
  615HO4    HW2 2459   4.859   9.810   5.795
  615HO4     MW 2460   4.914   9.730   5.820
  616HO4     OW 2461   5.400   2.014   6.120
  616HO4    HW1 2462   5.455   2.002   6.036
  616HO4    HW2 2463   5.459   2.001   6.200
  616HO4     MW 2464   5.400   2.014   6.120
  617HO4     OW 2465   7.236   7.756   6.911
  617HO4    HW1 2466   7.141   7.739   6.938
  617HO4    HW2 2467   7.282   7.669   6.892
  617HO4     MW 2468   7.236   7.756   6.911
  618HO4     OW 2469   3.190   5.040  10.150
  618HO4    HW1 2470   3.222   5.112  10.088
  618HO4    HW2 2471   3.247   4.959  10.139
  618HO4     MW 2472   3.190   5.040  10.150
  619HO4     OW 2473   4.760   1.493   8.494
  619HO4    HW1 2474   4.730   1.490   8.590
  619HO4    HW2 2475   4.799   1.404   8.469
  619HO4     MW 2476   4.760   1.493   8.494
  620HO4     OW 2477   3.088   8.079   7.435
  620HO4    HW1 2478   3.018   8.146   7.408
  620HO4    HW2 2479   3.174   8.127   7.456
  620HO4     MW 2480   3.088   8.079   7.435
  621HO4     OW 2481   5.163   3.790   0.090
  621HO4    HW1 2482   5.157   3.847   0.008
  621HO4    HW2 2483   5.149   3.847   0.171
  621HO4     MW 2484   5.163   3.790   0.090
  622HO4     OW 2485   0.342   8.683  10.028
  622HO4    HW1 2486   0.380   8.735  10.105
  622HO4    HW2 2487   0.256   8.639  10.057
  622HO4     MW 2488   0.342   8.683  10.028
  623HO4     OW 2489  10.020   6.613   4.440
  623HO4    HW1 2490  10.102   6.602   4.383
  623HO4    HW2 2491  10.043   6.666   4.522
  623HO4     MW 2492  10.020   6.613   4.440
  624HO4     OW 2493   2.059   2.563   3.895
  624HO4    HW1 2494   1.980   2.506   3.870
  624HO4    HW2 2495   2.109   2.520   3.971
  624HO4     MW 2496   2.059   2.563   3.895
  625HO4     OW 2497   3.898   2.536   6.200
  625HO4    HW1 2498   3.920   2.621   6.250
  625HO4    HW2 2499   3.897   2.459   6.264
  625HO4     MW 2500   3.898   2.536   6.200
  626HO4     OW 2501   3.262   8.697   4.388
  626HO4    HW1 2502   3.332   8.719   4.319
  626HO4    HW2 2503   3.253   8.773   4.452
  626HO4     MW 2504   3.262   8.697   4.388
  627HO4     OW 2505   9.207   0.821   3.012
  627HO4    HW1 2506   9.277   0.767   2.964
  627HO4    HW2 2507   9.116   0.783   2.993
  627HO4     MW 2508   9.207   0.821   3.012
  628HO4     OW 2509   8.539   5.263   0.566
  628HO4    HW1 2510   8.521   5.208   0.484
  628HO4    HW2 2511   8.515   5.210   0.648
  628HO4     MW 2512   8.539   5.263   0.566
  629HO4     OW 2513   5.798   0.557   4.715
  629HO4    HW1 2514   5.747   0.596   4.638
  629HO4    HW2 2515   5.823   0.462   4.693
  629HO4     MW 2516   5.798   0.557   4.715
  630HO4     OW 2517   4.706   0.180   0.588
  630HO4    HW1 2518   4.642   0.186   0.512
  630HO4    HW2 2519   4.735   0.272   0.616
  630HO4     MW 2520   4.706   0.180   0.588
  631HO4     OW 2521   1.831   9.007   7.114
  631HO4    HW1 2522   1.851   9.074   7.187
  631HO4    HW2 2523   1.778   9.051   7.042
  631HO4     MW 2524   1.831   9.007   7.114
  632HO4     OW 2525  10.009   0.618   8.796
  632HO4    HW1 2526  10.073   0.689   8.828
  632HO4    HW2 2527  10.039   0.528   8.830
  632HO4     MW 2528  10.009   0.618   8.796
  633HO4     OW 2529   7.681   1.467   0.664
  633HO4    HW1 2530   7.674   1.427   0.755
  633HO4    HW2 2531   7.671   1.394   0.595
  633HO4     MW 2532   7.681   1.467   0.664
  634HO4     OW 2533   3.080   4.602   1.256
  634HO4    HW1 2534   3.126   4.626   1.169
  634HO4    HW2 2535   3.147   4.605   1.331
  634HO4     MW 2536   3.080   4.602   1.256
  635HO4     OW 2537   0.006   0.164   0.435
  635HO4    HW1 2538  -0.020   0.094   0.502
  635HO4    HW2 2539   0.016   0.121   0.344
  635HO4     MW 2540   0.006   0.164   0.435
  636HO4     OW 2541   1.015   5.394   6.286
  636HO4    HW1 2542   0.944   5.344   6.235
  636HO4    HW2 2543   0.974   5.475   6.329
  636HO4     MW 2544   1.015   5.394   6.286
  637HO4     OW 2545   7.470   2.799   8.360
  637HO4    HW1 2546   7.546   2.736   8.343
  637HO4    HW2 2547   7.384   2.748   8.366
  637HO4     MW 2548   7.470   2.799   8.360
  638HO4     OW 2549   2.254   2.113   0.749
  638HO4    HW1 2550   2.294   2.025   0.776
  638HO4    HW2 2551   2.210   2.104   0.660
  638HO4     MW 2552   2.254   2.113   0.749
  639HO4     OW 2553   0.473   4.353   9.588
  639HO4    HW1 2554   0.483   4.416   9.510
  639HO4    HW2 2555   0.477   4.406   9.674
  639HO4     MW 2556   0.473   4.353   9.588
  640HO4     OW 2557   6.492   6.217   0.435
  640HO4    HW1 2558   6.476   6.120   0.457
  640HO4    HW2 2559   6.536   6.223   0.345
  640HO4     MW 2560   6.492   6.217   0.435
  641HO4     OW 2561   6.364   6.168   5.607
  641HO4    HW1 2562   6.348   6.235   5.680
  641HO4    HW2 2563   6.348   6.211   5.518
  641HO4     MW 2564   6.364   6.168   5.607
  642HO4     OW 2565   7.724   2.393   7.556
  642HO4    HW1 2566   7.708   2.337   7.638
  642HO4    HW2 2567   7.709   2.337   7.474
  642HO4     MW 2568   7.724   2.393   7.556
  643HO4     OW 2569   0.232   6.092   6.509
  643HO4    HW1 2570   0.175   6.173   6.494
  643HO4    HW2 2571   0.174   6.017   6.545
  643HO4     MW 2572   0.232   6.092   6.509
  644HO4     OW 2573   2.616   6.123   6.278
  644HO4    HW1 2574   2.652   6.135   6.185
  644HO4    HW2 2575   2.676   6.169   6.344
  644HO4     MW 2576   2.616   6.123   6.278
  645HO4     OW 2577   9.396   6.110   1.987
  645HO4    HW1 2578   9.409   6.059   1.901
  645HO4    HW2 2579   9.404   6.047   2.065
  645HO4     MW 2580   9.396   6.110   1.987
  646HO4     OW 2581   6.432   5.910   8.002
  646HO4    HW1 2582   6.367   5.850   8.049
  646HO4    HW2 2583   6.484   5.858   7.934
  646HO4     MW 2584   6.432   5.910   8.002
  647HO4     OW 2585   9.728   1.304   1.575
  647HO4    HW1 2586   9.734   1.344   1.483
  647HO4    HW2 2587   9.784   1.220   1.578
  647HO4     MW 2588   9.728   1.304   1.575
  648HO4     OW 2589   0.957   0.571   1.938
  648HO4    HW1 2590   0.994   0.617   2.019
  648HO4    HW2 2591   0.994   0.614   1.855
  648HO4     MW 2592   0.957   0.571   1.938
  649HO4     OW 2593   8.220   3.418   2.473
  649HO4    HW1 2594   8.263   3.506   2.493
  649HO4    HW2 2595   8.143   3.431   2.410
  649HO4     MW 2596   8.220   3.418   2.473
  650HO4     OW 2597   8.934   7.483   6.467
  650HO4    HW1 2598   8.836   7.474   6.488
  650HO4    HW2 2599   8.954   7.577   6.439
  650HO4     MW 2600   8.934   7.483   6.467
  651HO4     OW 2601   7.519   1.987   4.157
  651HO4    HW1 2602   7.481   2.023   4.243
  651HO4    HW2 2603   7.453   2.001   4.083
  651HO4     MW 2604   7.519   1.987   4.157
  652HO4     OW 2605   7.662   1.872   6.597
  652HO4    HW1 2606   7.650   1.806   6.523
  652HO4    HW2 2607   7.662   1.824   6.685
  652HO4     MW 2608   7.662   1.872   6.597
  653HO4     OW 2609   1.986   3.163   6.169
  653HO4    HW1 2610   2.078   3.190   6.140
  653HO4    HW2 2611   1.967   3.202   6.260
  653HO4     MW 2612   1.986   3.163   6.169
  654HO4     OW 2613   7.690   1.895   1.532
  654HO4    HW1 2614   7.739   1.843   1.602
  654HO4    HW2 2615   7.649   1.833   1.465
  654HO4     MW 2616   7.690   1.895   1.532
  655HO4     OW 2617   9.828   4.155   9.205
  655HO4    HW1 2618   9.927   4.145   9.220
  655HO4    HW2 2619   9.794   4.234   9.257
  655HO4     MW 2620   9.828   4.155   9.205
  656HO4     OW 2621   3.337   6.157   0.126
  656HO4    HW1 2622   3.330   6.213   0.209
  656HO4    HW2 2623   3.334   6.217   0.045
  656HO4     MW 2624   3.337   6.157   0.126
  657HO4     OW 2625   8.891   8.454   6.705
  657HO4    HW1 2626   8.792   8.473   6.702
  657HO4    HW2 2627   8.918   8.401   6.623
  657HO4     MW 2628   8.891   8.454   6.705
  658HO4     OW 2629   0.382   9.757   5.916
  658HO4    HW1 2630   0.324   9.699   5.974
  658HO4    HW2 2631   0.381   9.722   5.822
  658HO4     MW 2632   0.382   9.757   5.916
  659HO4     OW 2633   3.908   2.356   6.484
  659HO4    HW1 2634   3.911   2.407   6.571
  659HO4    HW2 2635   3.994   2.308   6.471
  659HO4     MW 2636   3.908   2.356   6.484
  660HO4     OW 2637   8.287   5.850   8.211
  660HO4    HW1 2638   8.214   5.905   8.253
  660HO4    HW2 2639   8.372   5.861   8.264
  660HO4     MW 2640   8.287   5.850   8.211
  661HO4     OW 2641   9.832   9.965   3.923
  661HO4    HW1 2642   9.852   9.878   3.879
  661HO4    HW2 2643   9.873   9.968   4.015
  661HO4     MW 2644   9.832   9.965   3.923
  662HO4     OW 2645   0.857   2.447   7.751
  662HO4    HW1 2646   0.760   2.459   7.774
  662HO4    HW2 2647   0.873   2.351   7.723
  662HO4     MW 2648   0.857   2.447   7.751
  663HO4     OW 2649   8.433   5.522   9.109
  663HO4    HW1 2650   8.533   5.521   9.102
  663HO4    HW2 2651   8.395   5.582   9.038
  663HO4     MW 2652   8.433   5.522   9.109
  664HO4     OW 2653   9.286   4.692   9.754
  664HO4    HW1 2654   9.212   4.698   9.686
  664HO4    HW2 2655   9.249   4.710   9.846
  664HO4     MW 2656   9.286   4.692   9.754
  665HO4     OW 2657   6.580   5.342   3.055
  665HO4    HW1 2658   6.550   5.268   3.117
  665HO4    HW2 2659   6.543   5.326   2.964
  665HO4     MW 2660   6.580   5.342   3.055
  666HO4     OW 2661   5.800   2.623   0.613
  666HO4    HW1 2662   5.784   2.539   0.561
  666HO4    HW2 2663   5.718   2.681   0.610
  666HO4     MW 2664   5.800   2.623   0.613
  667HO4     OW 2665   4.951   9.194   7.654
  667HO4    HW1 2666   4.857   9.180   7.619
  667HO4    HW2 2667   4.946   9.235   7.746
  667HO4     MW 2668   4.951   9.194   7.654
  668HO4     OW 2669   3.093   8.013   4.107
  668HO4    HW1 2670   3.062   8.000   4.013
  668HO4    HW2 2671   3.190   7.988   4.115
  668HO4     MW 2672   3.093   8.013   4.107
  669HO4     OW 2673   3.468   1.260   7.339
  669HO4    HW1 2674   3.549   1.296   7.386
  669HO4    HW2 2675   3.496   1.206   7.260
  669HO4     MW 2676   3.468   1.260   7.339
  670HO4     OW 2677   2.431   7.703   9.253
  670HO4    HW1 2678   2.352   7.690   9.314
  670HO4    HW2 2679   2.516   7.680   9.302
  670HO4     MW 2680   2.431   7.703   9.253
  671HO4     OW 2681   3.628   8.336   0.255
  671HO4    HW1 2682   3.619   8.372   0.162
  671HO4    HW2 2683   3.664   8.242   0.252
  671HO4     MW 2684   3.628   8.336   0.255
  672HO4     OW 2685   4.060   2.428   5.885
  672HO4    HW1 2686   3.965   2.459   5.894
  672HO4    HW2 2687   4.080   2.411   5.788
  672HO4     MW 2688   4.060   2.428   5.885
  673HO4     OW 2689   4.611   3.973   6.646
  673HO4    HW1 2690   4.647   4.054   6.599
  673HO4    HW2 2691   4.564   4.000   6.730
  673HO4     MW 2692   4.611   3.973   6.646
  674HO4     OW 2693   9.971   1.693   8.898
  674HO4    HW1 2694   9.922   1.663   8.981
  674HO4    HW2 2695   9.921   1.663   8.817
  674HO4     MW 2696   9.971   1.693   8.898
  675HO4     OW 2697   7.780   4.228   2.692
  675HO4    HW1 2698   7.789   4.174   2.608
  675HO4    HW2 2699   7.784   4.168   2.772
  675HO4     MW 2700   7.780   4.228   2.692
  676HO4     OW 2701   7.239   8.186   2.725
  676HO4    HW1 2702   7.267   8.277   2.694
  676HO4    HW2 2703   7.200   8.193   2.818
  676HO4     MW 2704   7.239   8.186   2.725
  677HO4     OW 2705   9.357  10.124   4.826
  677HO4    HW1 2706   9.413  10.093   4.903
  677HO4    HW2 2707   9.408  10.112   4.740
  677HO4     MW 2708   9.357  10.124   4.826
  678HO4     OW 2709   1.411   5.696   2.272
  678HO4    HW1 2710   1.458   5.774   2.315
  678HO4    HW2 2711   1.450   5.680   2.181
  678HO4     MW 2712   1.411   5.696   2.272
  679HO4     OW 2713   8.501   3.309   1.326
  679HO4    HW1 2714   8.436   3.341   1.397
  679HO4    HW2 2715   8.462   3.326   1.235
  679HO4     MW 2716   8.501   3.309   1.326
  680HO4     OW 2717   0.704   5.866   3.657
  680HO4    HW1 2718   0.740   5.777   3.626
  680HO4    HW2 2719   0.781   5.923   3.689
  680HO4     MW 2720   0.704   5.866   3.657
  681HO4     OW 2721   6.179   8.403   8.096
  681HO4    HW1 2722   6.252   8.334   8.100
  681HO4    HW2 2723   6.100   8.365   8.047
  681HO4     MW 2724   6.179   8.403   8.096
  682HO4     OW 2725   6.660   1.855   3.942
  682HO4    HW1 2726   6.738   1.795   3.925
  682HO4    HW2 2727   6.608   1.867   3.857
  682HO4     MW 2728   6.660   1.855   3.942
  683HO4     OW 2729   2.055   0.035   5.110
  683HO4    HW1 2730   1.983   0.038   5.181
  683HO4    HW2 2731   2.018  -0.009   5.028
  683HO4     MW 2732   2.055   0.035   5.110
  684HO4     OW 2733   1.176   3.640   3.975
  684HO4    HW1 2734   1.203   3.547   4.003
  684HO4    HW2 2735   1.164   3.642   3.875
  684HO4     MW 2736   1.176   3.640   3.975
  685HO4     OW 2737   2.551   8.683   6.187
  685HO4    HW1 2738   2.468   8.628   6.175
  685HO4    HW2 2739   2.527   8.774   6.222
  685HO4     MW 2740   2.551   8.683   6.187
  686HO4     OW 2741   8.685   9.836   6.515
  686HO4    HW1 2742   8.708   9.741   6.540
  686HO4    HW2 2743   8.588   9.853   6.534
  686HO4     MW 2744   8.685   9.836   6.515
  687HO4     OW 2745   6.974   9.075   5.410
  687HO4    HW1 2746   6.956   9.117   5.500
  687HO4    HW2 2747   6.951   8.977   5.413
  687HO4     MW 2748   6.974   9.075   5.410
  688HO4     OW 2749   1.980   8.864   6.577
  688HO4    HW1 2750   1.954   8.839   6.483
  688HO4    HW2 2751   1.900   8.897   6.627
  688HO4     MW 2752   1.980   8.864   6.577
  689HO4     OW 2753   7.359   6.808   5.335
  689HO4    HW1 2754   7.362   6.863   5.251
  689HO4    HW2 2755   7.379   6.866   5.414
  689HO4     MW 2756   7.359   6.808   5.335
  690HO4     OW 2757   5.219   7.838   0.003
  690HO4    HW1 2758   5.176   7.782   0.074
  690HO4    HW2 2759   5.149   7.869  -0.062
  690HO4     MW 2760   5.219   7.838   0.003
  691HO4     OW 2761   6.531   1.862   5.124
  691HO4    HW1 2762   6.626   1.833   5.113
  691HO4    HW2 2763   6.501   1.841   5.218
  691HO4     MW 2764   6.531   1.862   5.124
  692HO4     OW 2765   2.077   7.306   7.408
  692HO4    HW1 2766   2.157   7.274   7.458
  692HO4    HW2 2767   2.002   7.240   7.419
  692HO4     MW 2768   2.077   7.306   7.408
  693HO4     OW 2769   1.098   6.274   8.230
  693HO4    HW1 2770   1.054   6.271   8.321
  693HO4    HW2 2771   1.027   6.269   8.159
  693HO4     MW 2772   1.098   6.274   8.230
  694HO4     OW 2773   2.084   2.622   6.993
  694HO4    HW1 2774   2.149   2.550   7.020
  694HO4    HW2 2775   2.070   2.685   7.070
  694HO4     MW 2776   2.084   2.622   6.993
  695HO4     OW 2777   1.623   0.195   1.634
  695HO4    HW1 2778   1.624   0.179   1.733
  695HO4    HW2 2779   1.555   0.134   1.591
  695HO4     MW 2780   1.623   0.195   1.634
  696HO4     OW 2781   0.825   4.061   9.561
  696HO4    HW1 2782   0.791   3.966   9.562
  696HO4    HW2 2783   0.751   4.123   9.534
  696HO4     MW 2784   0.825   4.061   9.561
  697HO4     OW 2785   4.444   2.236   1.684
  697HO4    HW1 2786   4.542   2.215   1.686
  697HO4    HW2 2787   4.399   2.180   1.614
  697HO4     MW 2788   4.444   2.236   1.684
  698HO4     OW 2789   8.933   3.784   4.195
  698HO4    HW1 2790   9.007   3.769   4.261
  698HO4    HW2 2791   8.954   3.736   4.109
  698HO4     MW 2792   8.933   3.784   4.195
  699HO4     OW 2793   3.608   1.901   3.230
  699HO4    HW1 2794   3.704   1.928   3.232
  699HO4    HW2 2795   3.591   1.841   3.151
  699HO4     MW 2796   3.608   1.901   3.230
  700HO4     OW 2797   4.464   1.332   0.413
  700HO4    HW1 2798   4.406   1.318   0.332
  700HO4    HW2 2799   4.426   1.280   0.490
  700HO4     MW 2800   4.464   1.332   0.413
  701HO4     OW 2801   0.021   4.626   8.279
  701HO4    HW1 2802   0.072   4.571   8.346
  701HO4    HW2 2803   0.048   4.599   8.186
  701HO4     MW 2804   0.021   4.626   8.279
  702HO4     OW 2805   3.033   1.409   2.374
  702HO4    HW1 2806   3.066   1.408   2.279
  702HO4    HW2 2807   3.050   1.319   2.416
  702HO4     MW 2808   3.033   1.409   2.374
  703HO4     OW 2809   2.329   1.674   2.542
  703HO4    HW1 2810   2.408   1.634   2.494
  703HO4    HW2 2811   2.280   1.601   2.591
  703HO4     MW 2812   2.329   1.674   2.542
  704HO4     OW 2813   5.400   3.701   2.404
  704HO4    HW1 2814   5.338   3.632   2.366
  704HO4    HW2 2815   5.350   3.787   2.416
  704HO4     MW 2816   5.400   3.701   2.404
  705HO4     OW 2817   2.190   8.053   9.372
  705HO4    HW1 2818   2.131   8.103   9.308
  705HO4    HW2 2819   2.199   7.958   9.342
  705HO4     MW 2820   2.190   8.053   9.372
  706HO4     OW 2821   4.255   9.778   8.182
  706HO4    HW1 2822   4.231   9.699   8.125
  706HO4    HW2 2823   4.201   9.858   8.153
  706HO4     MW 2824   4.255   9.778   8.182
  707HO4     OW 2825   3.010   6.221   4.708
  707HO4    HW1 2826   3.093   6.244   4.657
  707HO4    HW2 2827   2.993   6.122   4.702
  707HO4     MW 2828   3.010   6.221   4.708
  708HO4     OW 2829   9.472   6.490   7.300
  708HO4    HW1 2830   9.381   6.454   7.320
  708HO4    HW2 2831   9.518   6.517   7.385
  708HO4     MW 2832   9.472   6.490   7.300
  709HO4     OW 2833   6.598   1.568   9.951
  709HO4    HW1 2834   6.569   1.568   9.854
  709HO4    HW2 2835   6.633   1.658   9.976
  709HO4     MW 2836   6.598   1.568   9.951
  710HO4     OW 2837   5.387   7.041   4.307
  710HO4    HW1 2838   5.398   6.942   4.316
  710HO4    HW2 2839   5.429   7.087   4.386
  710HO4     MW 2840   5.387   7.041   4.307
  711HO4     OW 2841   3.137   5.545   3.297
  711HO4    HW1 2842   3.044   5.532   3.260
  711HO4    HW2 2843   3.202   5.490   3.243
  711HO4     MW 2844   3.137   5.545   3.297
  712HO4     OW 2845   2.309   8.037   2.979
  712HO4    HW1 2846   2.377   8.101   2.941
  712HO4    HW2 2847   2.355   7.953   3.007
  712HO4     MW 2848   2.309   8.037   2.979
  713HO4     OW 2849   6.276   9.271   9.836
  713HO4    HW1 2850   6.282   9.197   9.905
  713HO4    HW2 2851   6.216   9.241   9.761
  713HO4     MW 2852   6.276   9.271   9.836
  714HO4     OW 2853   6.990   0.907   9.972
  714HO4    HW1 2854   7.024   1.001   9.968
  714HO4    HW2 2855   6.904   0.900   9.921
  714HO4     MW 2856   6.990   0.907   9.972
  715HO4     OW 2857   6.821   6.436   6.769
  715HO4    HW1 2858   6.775   6.376   6.702
  715HO4    HW2 2859   6.768   6.437   6.854
  715HO4     MW 2860   6.821   6.436   6.769
  716HO4     OW 2861   9.382   8.140   6.842
  716HO4    HW1 2862   9.453   8.071   6.857
  716HO4    HW2 2863   9.422   8.218   6.792
  716HO4     MW 2864   9.382   8.140   6.842
  717HO4     OW 2865   8.755   8.112   2.163
  717HO4    HW1 2866   8.704   8.194   2.136
  717HO4    HW2 2867   8.723   8.080   2.253
  717HO4     MW 2868   8.755   8.112   2.163
  718HO4     OW 2869   2.290   3.515   7.886
  718HO4    HW1 2870   2.227   3.445   7.922
  718HO4    HW2 2871   2.255   3.548   7.798
  718HO4     MW 2872   2.290   3.515   7.886
  719HO4     OW 2873   2.923   0.222   9.131
  719HO4    HW1 2874   2.922   0.259   9.224
  719HO4    HW2 2875   2.994   0.269   9.077
  719HO4     MW 2876   2.923   0.222   9.131
  720HO4     OW 2877   5.512   2.777   3.145
  720HO4    HW1 2878   5.495   2.727   3.060
  720HO4    HW2 2879   5.455   2.737   3.218
  720HO4     MW 2880   5.512   2.777   3.145
  721HO4     OW 2881   5.030   4.131   2.448
  721HO4    HW1 2882   5.046   4.180   2.534
  721HO4    HW2 2883   5.013   4.197   2.375
  721HO4     MW 2884   5.030   4.131   2.448
  722HO4     OW 2885   1.224   1.194   6.588
  722HO4    HW1 2886   1.276   1.256   6.647
  722HO4    HW2 2887   1.261   1.100   6.597
  722HO4     MW 2888   1.224   1.194   6.588
  723HO4     OW 2889   1.589   6.299   3.713
  723HO4    HW1 2890   1.619   6.360   3.639
  723HO4    HW2 2891   1.567   6.353   3.794
  723HO4     MW 2892   1.589   6.299   3.713
  724HO4     OW 2893   6.754   4.565   7.945
  724HO4    HW1 2894   6.658   4.591   7.964
  724HO4    HW2 2895   6.757   4.506   7.864
  724HO4     MW 2896   6.754   4.565   7.945
  725HO4     OW 2897   3.288   9.819   0.147
  725HO4    HW1 2898   3.267   9.903   0.198
  725HO4    HW2 2899   3.298   9.841   0.049
  725HO4     MW 2900   3.288   9.819   0.147
  726HO4     OW 2901   3.831   9.308   7.525
  726HO4    HW1 2902   3.789   9.287   7.436
  726HO4    HW2 2903   3.830   9.226   7.583
  726HO4     MW 2904   3.831   9.308   7.525
  727HO4     OW 2905   0.009   3.087   6.480
  727HO4    HW1 2906   0.068   3.030   6.538
  727HO4    HW2 2907  -0.077   3.039   6.461
  727HO4     MW 2908   0.009   3.087   6.480
  728HO4     OW 2909   4.037   1.584   3.140
  728HO4    HW1 2910   3.992   1.536   3.215
  728HO4    HW2 2911   4.013   1.541   3.053
  728HO4     MW 2912   4.037   1.584   3.140
  729HO4     OW 2913   4.844  10.172   0.868
  729HO4    HW1 2914   4.757  10.174   0.918
  729HO4    HW2 2915   4.903  10.100   0.906
  729HO4     MW 2916   4.844  10.172   0.868
  730HO4     OW 2917   9.815   8.873   5.617
  730HO4    HW1 2918   9.838   8.923   5.701
  730HO4    HW2 2919   9.715   8.864   5.610
  730HO4     MW 2920   9.815   8.873   5.617
  731HO4     OW 2921   7.741   5.056   8.881
  731HO4    HW1 2922   7.790   5.025   8.799
  731HO4    HW2 2923   7.790   5.025   8.963
  731HO4     MW 2924   7.741   5.056   8.881
  732HO4     OW 2925   9.896   4.239   8.905
  732HO4    HW1 2926   9.858   4.288   8.984
  732HO4    HW2 2927   9.908   4.303   8.829
  732HO4     MW 2928   9.896   4.239   8.905
  733HO4     OW 2929   7.496   9.829   3.999
  733HO4    HW1 2930   7.521   9.822   4.096
  733HO4    HW2 2931   7.508   9.740   3.954
  733HO4     MW 2932   7.496   9.829   3.999
  734HO4     OW 2933   1.239   7.542   8.128
  734HO4    HW1 2934   1.148   7.575   8.155
  734HO4    HW2 2935   1.233   7.500   8.037
  734HO4     MW 2936   1.239   7.542   8.128
  735HO4     OW 2937   2.956   7.801   7.765
  735HO4    HW1 2938   2.948   7.775   7.668
  735HO4    HW2 2939   2.914   7.891   7.779
  735HO4     MW 2940   2.956   7.801   7.765
  736HO4     OW 2941   1.590   2.075   4.404
  736HO4    HW1 2942   1.605   2.132   4.485
  736HO4    HW2 2943   1.568   2.133   4.325
  736HO4     MW 2944   1.590   2.075   4.404
  737HO4     OW 2945   5.963   9.778   4.937
  737HO4    HW1 2946   5.918   9.866   4.953
  737HO4    HW2 2947   5.896   9.712   4.904
  737HO4     MW 2948   5.963   9.778   4.937
  738HO4     OW 2949   4.069   5.935   1.392
  738HO4    HW1 2950   4.099   5.966   1.483
  738HO4    HW2 2951   4.094   5.838   1.380
  738HO4     MW 2952   4.069   5.935   1.392
  739HO4     OW 2953   1.514   9.129   0.195
  739HO4    HW1 2954   1.470   9.054   0.245
  739HO4    HW2 2955   1.470   9.139   0.105
  739HO4     MW 2956   1.514   9.129   0.195
  740HO4     OW 2957   6.617   0.866   4.375
  740HO4    HW1 2958   6.564   0.847   4.458
  740HO4    HW2 2959   6.572   0.825   4.296
  740HO4     MW 2960   6.617   0.866   4.375
  741HO4     OW 2961   6.573   2.505   0.671
  741HO4    HW1 2962   6.607   2.507   0.766
  741HO4    HW2 2963   6.616   2.429   0.622
  741HO4     MW 2964   6.573   2.505   0.671
  742HO4     OW 2965   8.656   8.344   3.468
  742HO4    HW1 2966   8.625   8.427   3.515
  742HO4    HW2 2967   8.603   8.265   3.499
  742HO4     MW 2968   8.656   8.344   3.468
  743HO4     OW 2969   0.352   7.227   0.329
  743HO4    HW1 2970   0.440   7.198   0.369
  743HO4    HW2 2971   0.358   7.224   0.229
  743HO4     MW 2972   0.352   7.227   0.329
  744HO4     OW 2973  10.055   0.560   3.796
  744HO4    HW1 2974   9.977   0.618   3.773
  744HO4    HW2 2975  10.054   0.538   3.894
  744HO4     MW 2976  10.055   0.560   3.796
  745HO4     OW 2977   1.555   6.062   3.999
  745HO4    HW1 2978   1.491   6.015   4.060
  745HO4    HW2 2979   1.507   6.135   3.950
  745HO4     MW 2980   1.555   6.062   3.999
  746HO4     OW 2981   0.652   3.670   9.920
  746HO4    HW1 2982   0.595   3.642   9.997
  746HO4    HW2 2983   0.606   3.648   9.834
  746HO4     MW 2984   0.652   3.670   9.920
  747HO4     OW 2985   3.459   6.917   1.549
  747HO4    HW1 2986   3.444   6.861   1.467
  747HO4    HW2 2987   3.450   6.860   1.631
  747HO4     MW 2988   3.459   6.917   1.549
  748HO4     OW 2989   8.258   0.439   5.436
  748HO4    HW1 2990   8.260   0.517   5.500
  748HO4    HW2 2991   8.269   0.473   5.342
  748HO4     MW 2992   8.258   0.439   5.436
  749HO4     OW 2993   1.548   5.842   0.480
  749HO4    HW1 2994   1.546   5.742   0.473
  749HO4    HW2 2995   1.591   5.868   0.568
  749HO4     MW 2996   1.548   5.842   0.480
  750HO4     OW 2997   2.882   2.643   3.469
  750HO4    HW1 2998   2.794   2.692   3.466
  750HO4    HW2 2999   2.865   2.545   3.479
  750HO4     MW 3000   2.882   2.643   3.469
  751HO4     OW 3001   7.543   8.881   5.456
  751HO4    HW1 3002   7.583   8.932   5.532
  751HO4    HW2 3003   7.574   8.921   5.369
  751HO4     MW 3004   7.543   8.881   5.456
  752HO4     OW 3005   6.608   1.487   5.895
  752HO4    HW1 3006   6.693   1.466   5.846
  752HO4    HW2 3007   6.568   1.402   5.930
  752HO4     MW 3008   6.608   1.487   5.895
  753HO4     OW 3009   8.725   9.393   9.726
  753HO4    HW1 3010   8.795   9.435   9.784
  753HO4    HW2 3011   8.747   9.411   9.629
  753HO4     MW 3012   8.725   9.393   9.726
  754HO4     OW 3013   8.315  10.033   3.288
  754HO4    HW1 3014   8.332   9.973   3.367
  754HO4    HW2 3015   8.357   9.993   3.206
  754HO4     MW 3016   8.315  10.033   3.288
  755HO4     OW 3017   5.353   8.916   9.427
  755HO4    HW1 3018   5.402   8.915   9.339
  755HO4    HW2 3019   5.296   8.834   9.434
  755HO4     MW 3020   5.353   8.916   9.427
  756HO4     OW 3021   1.467   3.243   6.062
  756HO4    HW1 3022   1.493   3.156   6.020
  756HO4    HW2 3023   1.527   3.262   6.141
  756HO4     MW 3024   1.467   3.243   6.062
  757HO4     OW 3025   8.232   5.000   9.369
  757HO4    HW1 3026   8.240   5.096   9.340
  757HO4    HW2 3027   8.295   4.944   9.314
  757HO4     MW 3028   8.232   5.000   9.369
  758HO4     OW 3029   8.250   8.663   2.321
  758HO4    HW1 3030   8.210   8.709   2.401
  758HO4    HW2 3031   8.211   8.702   2.237
  758HO4     MW 3032   8.250   8.663   2.321
  759HO4     OW 3033   2.672   2.157   4.739
  759HO4    HW1 3034   2.632   2.088   4.676
  759HO4    HW2 3035   2.663   2.248   4.698
  759HO4     MW 3036   2.672   2.157   4.739
  760HO4     OW 3037   8.982   2.747   3.264
  760HO4    HW1 3038   8.925   2.823   3.296
  760HO4    HW2 3039   8.992   2.680   3.337
  760HO4     MW 3040   8.982   2.747   3.264
  761HO4     OW 3041   1.326   6.239   9.208
  761HO4    HW1 3042   1.305   6.147   9.241
  761HO4    HW2 3043   1.299   6.246   9.111
  761HO4     MW 3044   1.326   6.239   9.208
  762HO4     OW 3045   9.992   1.984   4.656
  762HO4    HW1 3046   9.916   1.944   4.603
  762HO4    HW2 3047  10.070   2.001   4.595
  762HO4     MW 3048   9.992   1.984   4.656
  763HO4     OW 3049   9.063   1.376   2.701
  763HO4    HW1 3050   9.015   1.370   2.789
  763HO4    HW2 3051   9.007   1.428   2.636
  763HO4     MW 3052   9.063   1.376   2.701
  764HO4     OW 3053   0.766   8.778   1.237
  764HO4    HW1 3054   0.856   8.735   1.248
  764HO4    HW2 3055   0.738   8.774   1.141
  764HO4     MW 3056   0.766   8.778   1.237
  765HO4     OW 3057   8.772   9.196   3.242
  765HO4    HW1 3058   8.764   9.207   3.341
  765HO4    HW2 3059   8.681   9.196   3.200
  765HO4     MW 3060   8.772   9.196   3.242
  766HO4     OW 3061   0.440   2.263   3.307
  766HO4    HW1 3062   0.466   2.252   3.211
  766HO4    HW2 3063   0.372   2.336   3.315
  766HO4     MW 3064   0.440   2.263   3.307
  767HO4     OW 3065   6.633   5.834   5.936
  767HO4    HW1 3066   6.714   5.835   5.877
  767HO4    HW2 3067   6.552   5.811   5.880
  767HO4     MW 3068   6.633   5.834   5.936
  768HO4     OW 3069   4.849   4.397   8.390
  768HO4    HW1 3070   4.863   4.484   8.341
  768HO4    HW2 3071   4.891   4.403   8.480
  768HO4     MW 3072   4.849   4.397   8.390
  769HO4     OW 3073   3.144   1.527   7.244
  769HO4    HW1 3074   3.140   1.583   7.328
  769HO4    HW2 3075   3.150   1.430   7.269
  769HO4     MW 3076   3.144   1.527   7.244
  770HO4     OW 3077   9.765   1.122   6.476
  770HO4    HW1 3078   9.776   1.196   6.409
  770HO4    HW2 3079   9.849   1.113   6.530
  770HO4     MW 3080   9.765   1.122   6.476
  771HO4     OW 3081   5.353   3.664   1.518
  771HO4    HW1 3082   5.431   3.705   1.567
  771HO4    HW2 3083   5.361   3.682   1.420
  771HO4     MW 3084   5.353   3.664   1.518
  772HO4     OW 3085   4.911   7.519   5.384
  772HO4    HW1 3086   4.913   7.432   5.333
  772HO4    HW2 3087   4.845   7.581   5.340
  772HO4     MW 3088   4.911   7.519   5.384
  773HO4     OW 3089   9.522   8.339   2.731
  773HO4    HW1 3090   9.504   8.436   2.751
  773HO4    HW2 3091   9.581   8.331   2.651
  773HO4     MW 3092   9.522   8.339   2.731
  774HO4     OW 3093   5.341  10.035   0.710
  774HO4    HW1 3094   5.402   9.975   0.659
  774HO4    HW2 3095   5.250  10.035   0.666
  774HO4     MW 3096   5.341  10.035   0.710
  775HO4     OW 3097   9.370   2.060   3.426
  775HO4    HW1 3098   9.304   2.096   3.358
  775HO4    HW2 3099   9.324   2.052   3.515
  775HO4     MW 3100   9.370   2.060   3.426
  776HO4     OW 3101   9.500   9.500   0.991
  776HO4    HW1 3102   9.524   9.548   0.907
  776HO4    HW2 3103   9.538   9.549   1.070
  776HO4     MW 3104   9.500   9.500   0.991
  777HO4     OW 3105   8.321   6.622   5.606
  777HO4    HW1 3106   8.238   6.676   5.621
  777HO4    HW2 3107   8.317   6.538   5.661
  777HO4     MW 3108   8.321   6.622   5.606
  778HO4     OW 3109   4.243   9.426   2.198
  778HO4    HW1 3110   4.329   9.379   2.176
  778HO4    HW2 3111   4.165   9.368   2.172
  778HO4     MW 3112   4.243   9.426   2.198
  779HO4     OW 3113   4.280   8.700   2.912
  779HO4    HW1 3114   4.346   8.644   2.860
  779HO4    HW2 3115   4.329   8.769   2.965
  779HO4     MW 3116   4.280   8.700   2.912
  780HO4     OW 3117   0.274   3.210   6.228
  780HO4    HW1 3118   0.282   3.307   6.204
  780HO4    HW2 3119   0.353   3.160   6.192
  780HO4     MW 3120   0.274   3.210   6.228
  781HO4     OW 3121   0.648   9.309   3.613
  781HO4    HW1 3122   0.668   9.232   3.674
  781HO4    HW2 3123   0.703   9.301   3.529
  781HO4     MW 3124   0.648   9.309   3.613
  782HO4     OW 3125   3.917   0.988   4.426
  782HO4    HW1 3126   3.867   0.973   4.512
  782HO4    HW2 3127   3.858   0.965   4.348
  782HO4     MW 3128   3.917   0.988   4.426
  783HO4     OW 3129   9.778   1.413   4.541
  783HO4    HW1 3130   9.772   1.511   4.564
  783HO4    HW2 3131   9.811   1.403   4.447
  783HO4     MW 3132   9.778   1.413   4.541
  784HO4     OW 3133   6.663   1.643   7.405
  784HO4    HW1 3134   6.693   1.575   7.338
  784HO4    HW2 3135   6.603   1.599   7.473
  784HO4     MW 3136   6.663   1.643   7.405
  785HO4     OW 3137   0.040   4.059   0.256
  785HO4    HW1 3138   0.030   4.122   0.179
  785HO4    HW2 3139   0.023   3.965   0.225
  785HO4     MW 3140   0.040   4.059   0.256
  786HO4     OW 3141   8.764   0.480   8.996
  786HO4    HW1 3142   8.707   0.450   9.074
  786HO4    HW2 3143   8.740   0.427   8.915
  786HO4     MW 3144   8.764   0.480   8.996
  787HO4     OW 3145   6.151   3.732   1.823
  787HO4    HW1 3146   6.125   3.828   1.840
  787HO4    HW2 3147   6.093   3.672   1.879
  787HO4     MW 3148   6.151   3.732   1.823
  788HO4     OW 3149   9.657   5.491   0.615
  788HO4    HW1 3150   9.644   5.568   0.678
  788HO4    HW2 3151   9.658   5.525   0.520
  788HO4     MW 3152   9.657   5.491   0.615
  789HO4     OW 3153   8.517   7.208   7.041
  789HO4    HW1 3154   8.440   7.178   7.097
  789HO4    HW2 3155   8.525   7.148   6.961
  789HO4     MW 3156   8.517   7.208   7.041
  790HO4     OW 3157   5.357   0.494   6.852
  790HO4    HW1 3158   5.381   0.590   6.836
  790HO4    HW2 3159   5.349   0.477   6.951
  790HO4     MW 3160   5.357   0.494   6.852
  791HO4     OW 3161   5.593   6.455   2.656
  791HO4    HW1 3162   5.645   6.369   2.650
  791HO4    HW2 3163   5.553   6.463   2.748
  791HO4     MW 3164   5.593   6.455   2.656
  792HO4     OW 3165   8.168   1.679   2.826
  792HO4    HW1 3166   8.088   1.733   2.798
  792HO4    HW2 3167   8.165   1.589   2.781
  792HO4     MW 3168   8.168   1.679   2.826
  793HO4     OW 3169   4.152   5.831   6.187
  793HO4    HW1 3170   4.231   5.844   6.246
  793HO4    HW2 3171   4.139   5.912   6.128
  793HO4     MW 3172   4.152   5.831   6.187
  794HO4     OW 3173   6.493   2.205   3.558
  794HO4    HW1 3174   6.503   2.111   3.523
  794HO4    HW2 3175   6.584   2.242   3.580
  794HO4     MW 3176   6.493   2.205   3.558
  795HO4     OW 3177   6.626   0.078   8.679
  795HO4    HW1 3178   6.623   0.079   8.779
  795HO4    HW2 3179   6.562   0.147   8.643
  795HO4     MW 3180   6.626   0.078   8.679
  796HO4     OW 3181   1.481   1.203   9.816
  796HO4    HW1 3182   1.402   1.265   9.819
  796HO4    HW2 3183   1.452   1.113   9.782
  796HO4     MW 3184   1.481   1.203   9.816
  797HO4     OW 3185   8.201   6.932   3.951
  797HO4    HW1 3186   8.292   6.901   3.982
  797HO4    HW2 3187   8.204   6.949   3.852
  797HO4     MW 3188   8.201   6.932   3.951
  798HO4     OW 3189   1.712   4.974   0.851
  798HO4    HW1 3190   1.724   5.044   0.780
  798HO4    HW2 3191   1.697   5.018   0.940
  798HO4     MW 3192   1.712   4.974   0.851
  799HO4     OW 3193   6.049   9.120   1.522
  799HO4    HW1 3194   5.962   9.167   1.537
  799HO4    HW2 3195   6.038   9.022   1.545
  799HO4     MW 3196   6.049   9.120   1.522
  800HO4     OW 3197   5.200   0.919   9.157
  800HO4    HW1 3198   5.196   0.824   9.189
  800HO4    HW2 3199   5.194   0.981   9.236
  800HO4     MW 3200   5.200   0.919   9.157
  801HO4     OW 3201   0.623   6.596   0.649
  801HO4    HW1 3202   0.597   6.512   0.698
  801HO4    HW2 3203   0.613   6.675   0.710
  801HO4     MW 3204   0.623   6.596   0.649
  802HO4     OW 3205   3.039   6.726   4.020
  802HO4    HW1 3206   3.003   6.789   3.951
  802HO4    HW2 3207   3.119   6.767   4.065
  802HO4     MW 3208   3.039   6.726   4.020
  803HO4     OW 3209   9.701   5.409   4.327
  803HO4    HW1 3210   9.688   5.322   4.375
  803HO4    HW2 3211   9.797   5.437   4.333
  803HO4     MW 3212   9.701   5.409   4.327
  804HO4     OW 3213   0.493  10.156   6.539
  804HO4    HW1 3214   0.520  10.118   6.450
  804HO4    HW2 3215   0.411  10.108   6.572
  804HO4     MW 3216   0.493  10.156   6.539
  805HO4     OW 3217   8.839   4.842   0.988
  805HO4    HW1 3218   8.922   4.868   0.936
  805HO4    HW2 3219   8.844   4.882   1.080
  805HO4     MW 3220   8.839   4.842   0.988
  806HO4     OW 3221   0.158   5.198   1.651
  806HO4    HW1 3222   0.145   5.109   1.606
  806HO4    HW2 3223   0.239   5.243   1.612
  806HO4     MW 3224   0.158   5.198   1.651
  807HO4     OW 3225   4.419   5.297   0.821
  807HO4    HW1 3226   4.445   5.245   0.903
  807HO4    HW2 3227   4.445   5.245   0.739
  807HO4     MW 3228   4.419   5.297   0.821
  808HO4     OW 3229   6.892   4.241  10.089
  808HO4    HW1 3230   6.910   4.280  10.180
  808HO4    HW2 3231   6.944   4.292  10.020
  808HO4     MW 3232   6.892   4.241  10.089
  809HO4     OW 3233   2.507   2.174   2.881
  809HO4    HW1 3234   2.436   2.178   2.810
  809HO4    HW2 3235   2.465   2.152   2.970
  809HO4     MW 3236   2.507   2.174   2.881
  810HO4     OW 3237   1.932   3.915   3.059
  810HO4    HW1 3238   1.841   3.923   3.016
  810HO4    HW2 3239   1.999   3.883   2.992
  810HO4     MW 3240   1.932   3.915   3.059
  811HO4     OW 3241   8.956   7.332   3.467
  811HO4    HW1 3242   9.034   7.321   3.530
  811HO4    HW2 3243   8.897   7.406   3.501
  811HO4     MW 3244   8.956   7.332   3.467
  812HO4     OW 3245   9.213   4.949   0.974
  812HO4    HW1 3246   9.222   4.936   0.875
  812HO4    HW2 3247   9.233   4.863   1.022
  812HO4     MW 3248   9.213   4.949   0.974
  813HO4     OW 3249   5.024   6.094   1.107
  813HO4    HW1 3250   4.969   6.104   1.191
  813HO4    HW2 3251   5.055   5.999   1.098
  813HO4     MW 3252   5.024   6.094   1.107
  814HO4     OW 3253   3.069   0.671   2.653
  814HO4    HW1 3254   3.091   0.626   2.740
  814HO4    HW2 3255   3.108   0.618   2.577
  814HO4     MW 3256   3.069   0.671   2.653
  815HO4     OW 3257   1.112   1.044   9.600
  815HO4    HW1 3258   1.091   0.989   9.519
  815HO4    HW2 3259   1.086   0.994   9.683
  815HO4     MW 3260   1.112   1.044   9.600
  816HO4     OW 3261   7.776   2.994   8.228
  816HO4    HW1 3262   7.855   2.976   8.169
  816HO4    HW2 3263   7.806   3.000   8.323
  816HO4     MW 3264   7.776   2.994   8.228
  817HO4     OW 3265   9.283   6.794   4.411
  817HO4    HW1 3266   9.374   6.829   4.386
  817HO4    HW2 3267   9.294   6.723   4.481
  817HO4     MW 3268   9.283   6.794   4.411
  818HO4     OW 3269   8.746   3.450   5.683
  818HO4    HW1 3270   8.767   3.444   5.585
  818HO4    HW2 3271   8.770   3.363   5.728
  818HO4     MW 3272   8.746   3.450   5.683
  819HO4     OW 3273   2.454   6.194   7.457
  819HO4    HW1 3274   2.490   6.122   7.396
  819HO4    HW2 3275   2.367   6.164   7.496
  819HO4     MW 3276   2.454   6.194   7.457
  820HO4     OW 3277   0.265   3.532   1.095
  820HO4    HW1 3278   0.214   3.562   1.014
  820HO4    HW2 3279   0.256   3.601   1.168
  820HO4     MW 3280   0.265   3.532   1.095
  821HO4     OW 3281   8.681   3.098   6.320
  821HO4    HW1 3282   8.647   3.136   6.233
  821HO4    HW2 3283   8.616   3.119   6.394
  821HO4     MW 3284   8.681   3.098   6.320
  822HO4     OW 3285   5.708   4.678   1.691
  822HO4    HW1 3286   5.670   4.733   1.615
  822HO4    HW2 3287   5.653   4.694   1.774
  822HO4     MW 3288   5.708   4.678   1.691
  823HO4     OW 3289   4.168   2.129   3.705
  823HO4    HW1 3290   4.224   2.110   3.786
  823HO4    HW2 3291   4.228   2.136   3.625
  823HO4     MW 3292   4.168   2.129   3.705
  824HO4     OW 3293   8.805   9.946   3.723
  824HO4    HW1 3294   8.904   9.959   3.712
  824HO4    HW2 3295   8.777   9.980   3.813
  824HO4     MW 3296   8.805   9.946   3.723
  825HO4     OW 3297   0.060   6.650   5.216
  825HO4    HW1 3298   0.095   6.732   5.262
  825HO4    HW2 3299   0.038   6.580   5.284
  825HO4     MW 3300   0.060   6.650   5.216
  826HO4     OW 3301   8.304   3.352   5.029
  826HO4    HW1 3302   8.276   3.349   4.932
  826HO4    HW2 3303   8.324   3.259   5.061
  826HO4     MW 3304   8.304   3.352   5.029
  827HO4     OW 3305   4.935   0.241   1.078
  827HO4    HW1 3306   4.895   0.221   1.168
  827HO4    HW2 3307   4.867   0.222   1.006
  827HO4     MW 3308   4.935   0.241   1.078
  828HO4     OW 3309   3.959   9.933   0.712
  828HO4    HW1 3310   3.896   9.933   0.790
  828HO4    HW2 3311   3.920   9.988   0.637
  828HO4     MW 3312   3.959   9.933   0.712
  829HO4     OW 3313   2.473   5.219   2.955
  829HO4    HW1 3314   2.451   5.261   2.866
  829HO4    HW2 3315   2.499   5.290   3.021
  829HO4     MW 3316   2.473   5.219   2.955
  830HO4     OW 3317   9.534   5.412   6.484
  830HO4    HW1 3318   9.623   5.370   6.463
  830HO4    HW2 3319   9.523   5.496   6.430
  830HO4     MW 3320   9.534   5.412   6.484
  831HO4     OW 3321   7.908   1.319   5.723
  831HO4    HW1 3322   7.954   1.300   5.811
  831HO4    HW2 3323   7.809   1.312   5.735
  831HO4     MW 3324   7.908   1.319   5.723
  832HO4     OW 3325   3.297   2.434   4.135
  832HO4    HW1 3326   3.286   2.477   4.225
  832HO4    HW2 3327   3.384   2.463   4.095
  832HO4     MW 3328   3.297   2.434   4.135
  833HO4     OW 3329   6.359   5.611   1.219
  833HO4    HW1 3330   6.368   5.532   1.281
  833HO4    HW2 3331   6.314   5.582   1.134
  833HO4     MW 3332   6.359   5.611   1.219
  834HO4     OW 3333   1.550   9.480   4.762
  834HO4    HW1 3334   1.475   9.540   4.793
  834HO4    HW2 3335   1.511   9.398   4.720
  834HO4     MW 3336   1.550   9.480   4.762
  835HO4     OW 3337   3.282   3.986   1.780
  835HO4    HW1 3338   3.235   4.070   1.807
  835HO4    HW2 3339   3.295   3.927   1.861
  835HO4     MW 3340   3.282   3.986   1.780
  836HO4     OW 3341   0.027   0.442   1.126
  836HO4    HW1 3342  -0.063   0.427   1.084
  836HO4    HW2 3343   0.035   0.385   1.209
  836HO4     MW 3344   0.027   0.442   1.126
  837HO4     OW 3345   6.813   6.216   7.409
  837HO4    HW1 3346   6.739   6.254   7.466
  837HO4    HW2 3347   6.898   6.264   7.429
  837HO4     MW 3348   6.813   6.216   7.409
  838HO4     OW 3349   1.760   1.342   1.715
  838HO4    HW1 3350   1.841   1.314   1.768
  838HO4    HW2 3351   1.707   1.260   1.691
  838HO4     MW 3352   1.760   1.342   1.715
  839HO4     OW 3353   0.479   6.925   1.571
  839HO4    HW1 3354   0.476   6.851   1.503
  839HO4    HW2 3355   0.388   6.935   1.613
  839HO4     MW 3356   0.479   6.925   1.571
  840HO4     OW 3357   5.603   0.583   4.340
  840HO4    HW1 3358   5.573   0.678   4.323
  840HO4    HW2 3359   5.686   0.565   4.287
  840HO4     MW 3360   5.603   0.583   4.340
  841HO4     OW 3361   1.130   6.936   0.555
  841HO4    HW1 3362   1.160   6.898   0.643
  841HO4    HW2 3363   1.202   6.922   0.487
  841HO4     MW 3364   1.130   6.936   0.555
  842HO4     OW 3365  10.092   4.949   0.700
  842HO4    HW1 3366  10.124   5.030   0.650
  842HO4    HW2 3367   9.995   4.934   0.680
  842HO4     MW 3368  10.092   4.949   0.700
  843HO4     OW 3369   3.658   2.810   7.612
  843HO4    HW1 3370   3.600   2.859   7.546
  843HO4    HW2 3371   3.657   2.858   7.700
  843HO4     MW 3372   3.658   2.810   7.612
  844HO4     OW 3373   6.104   4.661   1.326
  844HO4    HW1 3374   6.050   4.738   1.361
  844HO4    HW2 3375   6.138   4.606   1.403
  844HO4     MW 3376   6.104   4.661   1.326
  845HO4     OW 3377   2.124   9.685   0.648
  845HO4    HW1 3378   2.146   9.722   0.557
  845HO4    HW2 3379   2.172   9.738   0.718
  845HO4     MW 3380   2.124   9.685   0.648
  846HO4     OW 3381   4.376   0.291   7.150
  846HO4    HW1 3382   4.425   0.333   7.227
  846HO4    HW2 3383   4.428   0.305   7.065
  846HO4     MW 3384   4.376   0.291   7.150
  847HO4     OW 3385   8.348   5.485   4.918
  847HO4    HW1 3386   8.437   5.530   4.904
  847HO4    HW2 3387   8.326   5.483   5.016
  847HO4     MW 3388   8.348   5.485   4.918
  848HO4     OW 3389   4.846   1.653   6.263
  848HO4    HW1 3390   4.884   1.586   6.329
  848HO4    HW2 3391   4.919   1.686   6.203
  848HO4     MW 3392   4.846   1.653   6.263
  849HO4     OW 3393   5.694   7.686   5.523
  849HO4    HW1 3394   5.612   7.670   5.468
  849HO4    HW2 3395   5.759   7.611   5.509
  849HO4     MW 3396   5.694   7.686   5.523
  850HO4     OW 3397   2.587   2.986   0.288
  850HO4    HW1 3398   2.632   2.915   0.343
  850HO4    HW2 3399   2.536   3.047   0.349
  850HO4     MW 3400   2.587   2.986   0.288
  851HO4     OW 3401   8.949   8.627   2.431
  851HO4    HW1 3402   9.026   8.650   2.371
  851HO4    HW2 3403   8.884   8.568   2.382
  851HO4     MW 3404   8.949   8.627   2.431
  852HO4     OW 3405   1.636   0.863   4.111
  852HO4    HW1 3406   1.676   0.895   4.024
  852HO4    HW2 3407   1.573   0.933   4.146
  852HO4     MW 3408   1.636   0.863   4.111
  853HO4     OW 3409   4.019   5.808   4.562
  853HO4    HW1 3410   4.073   5.830   4.480
  853HO4    HW2 3411   4.072   5.833   4.644
  853HO4     MW 3412   4.019   5.808   4.562
  854HO4     OW 3413   1.492   6.738   6.108
  854HO4    HW1 3414   1.557   6.687   6.050
  854HO4    HW2 3415   1.400   6.731   6.070
  854HO4     MW 3416   1.492   6.738   6.108
  855HO4     OW 3417   3.841   5.669   4.261
  855HO4    HW1 3418   3.768   5.652   4.327
  855HO4    HW2 3419   3.804   5.664   4.167
  855HO4     MW 3420   3.841   5.669   4.261
  856HO4     OW 3421   7.248   1.728   0.672
  856HO4    HW1 3422   7.267   1.701   0.767
  856HO4    HW2 3423   7.161   1.778   0.668
  856HO4     MW 3424   7.248   1.728   0.672
  857HO4     OW 3425   1.684  10.084   9.617
  857HO4    HW1 3426   1.748  10.111   9.690
  857HO4    HW2 3427   1.611  10.028   9.656
  857HO4     MW 3428   1.684  10.084   9.617
  858HO4     OW 3429   6.427   0.122   7.853
  858HO4    HW1 3430   6.328   0.117   7.839
  858HO4    HW2 3431   6.446   0.165   7.942
  858HO4     MW 3432   6.427   0.122   7.853
  859HO4     OW 3433   4.815   8.491   4.665
  859HO4    HW1 3434   4.855   8.403   4.635
  859HO4    HW2 3435   4.758   8.529   4.592
  859HO4     MW 3436   4.815   8.491   4.665
  860HO4     OW 3437  10.139   4.796   6.779
  860HO4    HW1 3438  10.232   4.809   6.745
  860HO4    HW2 3439  10.090   4.732   6.720
  860HO4     MW 3440  10.139   4.796   6.779
  861HO4     OW 3441   0.749   2.975   2.494
  861HO4    HW1 3442   0.803   3.059   2.507
  861HO4    HW2 3443   0.810   2.898   2.479
  861HO4     MW 3444   0.749   2.975   2.494
  862HO4     OW 3445   2.572   4.525   6.079
  862HO4    HW1 3446   2.480   4.546   6.113
  862HO4    HW2 3447   2.602   4.438   6.120
  862HO4     MW 3448   2.572   4.525   6.079
  863HO4     OW 3449   0.319   1.884   9.409
  863HO4    HW1 3450   0.318   1.908   9.312
  863HO4    HW2 3451   0.382   1.947   9.458
  863HO4     MW 3452   0.319   1.884   9.409
  864HO4     OW 3453   9.908  10.059   8.643
  864HO4    HW1 3454   9.888  10.129   8.574
  864HO4    HW2 3455   9.873  10.089   8.732
  864HO4     MW 3456   9.908  10.059   8.643
  865HO4     OW 3457   2.787   4.965   4.140
  865HO4    HW1 3458   2.791   5.007   4.048
  865HO4    HW2 3459   2.748   5.031   4.205
  865HO4     MW 3460   2.787   4.965   4.140
  866HO4     OW 3461   0.066   7.735   8.336
  866HO4    HW1 3462   0.005   7.688   8.270
  866HO4    HW2 3463   0.013   7.761   8.417
  866HO4     MW 3464   0.066   7.735   8.336
  867HO4     OW 3465   0.042   2.693   5.539
  867HO4    HW1 3466   0.090   2.673   5.453
  867HO4    HW2 3467   0.104   2.742   5.601
  867HO4     MW 3468   0.042   2.693   5.539
  868HO4     OW 3469   9.811   9.239   0.958
  868HO4    HW1 3470   9.754   9.207   0.881
  868HO4    HW2 3471   9.904   9.202   0.948
  868HO4     MW 3472   9.811   9.239   0.958
  869HO4     OW 3473   8.765   2.029   9.075
  869HO4    HW1 3474   8.747   2.114   9.125
  869HO4    HW2 3475   8.706   2.024   8.994
  869HO4     MW 3476   8.765   2.029   9.075
  870HO4     OW 3477   8.698   6.086   9.024
  870HO4    HW1 3478   8.742   6.008   8.979
  870HO4    HW2 3479   8.623   6.053   9.082
  870HO4     MW 3480   8.698   6.086   9.024
  871HO4     OW 3481   8.085   9.659   4.881
  871HO4    HW1 3482   8.115   9.699   4.795
  871HO4    HW2 3483   8.127   9.708   4.958
  871HO4     MW 3484   8.085   9.659   4.881
  872HO4     OW 3485   6.225   8.323   7.412
  872HO4    HW1 3486   6.321   8.322   7.383
  872HO4    HW2 3487   6.213   8.264   7.492
  872HO4     MW 3488   6.225   8.323   7.412
  873HO4     OW 3489   6.266   4.935   8.982
  873HO4    HW1 3490   6.349   4.931   8.926
  873HO4    HW2 3491   6.290   4.921   9.078
  873HO4     MW 3492   6.266   4.935   8.982
  874HO4     OW 3493   0.170   3.239   9.037
  874HO4    HW1 3494   0.264   3.251   9.070
  874HO4    HW2 3495   0.111   3.209   9.113
  874HO4     MW 3496   0.170   3.239   9.037
  875HO4     OW 3497   0.956   9.239   5.051
  875HO4    HW1 3498   0.990   9.214   5.142
  875HO4    HW2 3499   1.023   9.212   4.981
  875HO4     MW 3500   0.956   9.239   5.051
  876HO4     OW 3501   7.887   3.093   0.138
  876HO4    HW1 3502   7.958   3.082   0.208
  876HO4    HW2 3503   7.920   3.057   0.050
  876HO4     MW 3504   7.887   3.093   0.138
  877HO4     OW 3505   0.824   7.364   1.156
  877HO4    HW1 3506   0.776   7.303   1.219
  877HO4    HW2 3507   0.783   7.456   1.160
  877HO4     MW 3508   0.824   7.364   1.156
  878HO4     OW 3509   6.168   4.131   0.668
  878HO4    HW1 3510   6.171   4.162   0.764
  878HO4    HW2 3511   6.251   4.160   0.620
  878HO4     MW 3512   6.168   4.131   0.668
  879HO4     OW 3513   2.394   0.548   8.969
  879HO4    HW1 3514   2.377   0.626   8.909
  879HO4    HW2 3515   2.458   0.485   8.924
  879HO4     MW 3516   2.394   0.548   8.969
  880HO4     OW 3517   1.288   1.099   7.226
  880HO4    HW1 3518   1.240   1.113   7.138
  880HO4    HW2 3519   1.340   1.182   7.249
  880HO4     MW 3520   1.288   1.099   7.226
  881HO4     OW 3521   5.874   7.250  10.028
  881HO4    HW1 3522   5.922   7.224  10.113
  881HO4    HW2 3523   5.819   7.332  10.045
  881HO4     MW 3524   5.874   7.250  10.028
  882HO4     OW 3525   2.505   0.173   7.126
  882HO4    HW1 3526   2.450   0.102   7.170
  882HO4    HW2 3527   2.479   0.181   7.029
  882HO4     MW 3528   2.505   0.173   7.126
  883HO4     OW 3529   7.471   1.659   0.424
  883HO4    HW1 3530   7.518   1.666   0.336
  883HO4    HW2 3531   7.539   1.638   0.496
  883HO4     MW 3532   7.471   1.659   0.424
  884HO4     OW 3533   4.717   5.203   3.394
  884HO4    HW1 3534   4.663   5.195   3.309
  884HO4    HW2 3535   4.657   5.191   3.473
  884HO4     MW 3536   4.717   5.203   3.394
  885HO4     OW 3537   9.376   1.912   8.461
  885HO4    HW1 3538   9.386   1.833   8.400
  885HO4    HW2 3539   9.280   1.920   8.489
  885HO4     MW 3540   9.376   1.912   8.461
  886HO4     OW 3541   7.341   1.075   3.916
  886HO4    HW1 3542   7.375   1.054   3.824
  886HO4    HW2 3543   7.380   1.163   3.946
  886HO4     MW 3544   7.341   1.075   3.916
  887HO4     OW 3545   2.905   0.445   7.127
  887HO4    HW1 3546   2.989   0.500   7.140
  887HO4    HW2 3547   2.825   0.504   7.136
  887HO4     MW 3548   2.905   0.445   7.127
  888HO4     OW 3549   7.763   1.819   3.908
  888HO4    HW1 3550   7.690   1.881   3.879
  888HO4    HW2 3551   7.778   1.750   3.837
  888HO4     MW 3552   7.763   1.819   3.908
  889HO4     OW 3553   9.240   3.500   5.417
  889HO4    HW1 3554   9.218   3.592   5.450
  889HO4    HW2 3555   9.281   3.446   5.491
  889HO4     MW 3556   9.240   3.500   5.417
  890HO4     OW 3557   3.411   5.805   7.735
  890HO4    HW1 3558   3.343   5.801   7.660
  890HO4    HW2 3559   3.482   5.736   7.719
  890HO4     MW 3560   3.411   5.805   7.735
  891HO4     OW 3561   9.530   7.513   7.885
  891HO4    HW1 3562   9.566   7.500   7.793
  891HO4    HW2 3563   9.598   7.560   7.942
  891HO4     MW 3564   9.530   7.513   7.885
  892HO4     OW 3565   5.721   2.641   8.055
  892HO4    HW1 3566   5.648   2.639   7.986
  892HO4    HW2 3567   5.753   2.547   8.072
  892HO4     MW 3568   5.721   2.641   8.055
  893HO4     OW 3569   9.202   8.846   4.951
  893HO4    HW1 3570   9.222   8.858   4.853
  893HO4    HW2 3571   9.193   8.936   4.994
  893HO4     MW 3572   9.202   8.846   4.951
  894HO4     OW 3573   9.033   9.219   1.387
  894HO4    HW1 3574   9.080   9.287   1.445
  894HO4    HW2 3575   9.028   9.253   1.293
  894HO4     MW 3576   9.033   9.219   1.387
  895HO4     OW 3577   5.470   6.306   7.378
  895HO4    HW1 3578   5.416   6.226   7.351
  895HO4    HW2 3579   5.554   6.310   7.323
  895HO4     MW 3580   5.470   6.306   7.378
  896HO4     OW 3581   8.871   4.409   1.711
  896HO4    HW1 3582   8.916   4.429   1.799
  896HO4    HW2 3583   8.817   4.488   1.682
  896HO4     MW 3584   8.871   4.409   1.711
  897HO4     OW 3585   0.531   9.953   7.286
  897HO4    HW1 3586   0.561   9.905   7.203
  897HO4    HW2 3587   0.469   9.894   7.338
  897HO4     MW 3588   0.531   9.953   7.286
  898HO4     OW 3589   4.676   8.901   4.856
  898HO4    HW1 3590   4.720   8.943   4.936
  898HO4    HW2 3591   4.661   8.803   4.874
  898HO4     MW 3592   4.676   8.901   4.856
  899HO4     OW 3593   8.791   1.089   4.842
  899HO4    HW1 3594   8.721   1.024   4.815
  899HO4    HW2 3595   8.865   1.041   4.891
  899HO4     MW 3596   8.791   1.089   4.842
  900HO4     OW 3597   4.555   8.356   4.084
  900HO4    HW1 3598   4.503   8.336   4.168
  900HO4    HW2 3599   4.492   8.356   4.006
  900HO4     MW 3600   4.555   8.356   4.084
  901HO4     OW 3601   2.633   2.326   2.313
  901HO4    HW1 3602   2.592   2.236   2.295
  901HO4    HW2 3603   2.673   2.362   2.228
  901HO4     MW 3604   2.633   2.326   2.313
  902HO4     OW 3605   0.131   3.230   8.476
  902HO4    HW1 3606   0.042   3.207   8.436
  902HO4    HW2 3607   0.138   3.329   8.490
  902HO4     MW 3608   0.131   3.230   8.476
  903HO4     OW 3609   8.461   4.781   7.597
  903HO4    HW1 3610   8.450   4.704   7.660
  903HO4    HW2 3611   8.470   4.747   7.503
  903HO4     MW 3612   8.461   4.781   7.597
  904HO4     OW 3613   0.209   0.339   7.876
  904HO4    HW1 3614   0.172   0.248   7.894
  904HO4    HW2 3615   0.302   0.332   7.839
  904HO4     MW 3616   0.209   0.339   7.876
  905HO4     OW 3617   9.637   8.560   5.520
  905HO4    HW1 3618   9.555   8.554   5.577
  905HO4    HW2 3619   9.618   8.616   5.439
  905HO4     MW 3620   9.637   8.560   5.520
  906HO4     OW 3621   6.642   3.182   6.391
  906HO4    HW1 3622   6.585   3.159   6.471
  906HO4    HW2 3623   6.610   3.130   6.311
  906HO4     MW 3624   6.642   3.182   6.391
  907HO4     OW 3625   3.059   0.550   9.026
  907HO4    HW1 3626   3.003   0.533   9.107
  907HO4    HW2 3627   3.118   0.629   9.042
  907HO4     MW 3628   3.059   0.550   9.026
  908HO4     OW 3629   7.384   7.244   4.300
  908HO4    HW1 3630   7.372   7.342   4.282
  908HO4    HW2 3631   7.471   7.229   4.349
  908HO4     MW 3632   7.384   7.244   4.300
  909HO4     OW 3633   9.566   9.972   9.831
  909HO4    HW1 3634   9.504  10.012   9.900
  909HO4    HW2 3635   9.534   9.997   9.739
  909HO4     MW 3636   9.566   9.972   9.831
  910HO4     OW 3637   3.739   0.533   1.313
  910HO4    HW1 3638   3.749   0.545   1.412
  910HO4    HW2 3639   3.660   0.586   1.281
  910HO4     MW 3640   3.739   0.533   1.313
  911HO4     OW 3641   8.615   4.225   3.220
  911HO4    HW1 3642   8.654   4.135   3.196
  911HO4    HW2 3643   8.515   4.221   3.213
  911HO4     MW 3644   8.615   4.225   3.220
  912HO4     OW 3645   7.261   9.813   6.975
  912HO4    HW1 3646   7.307   9.828   6.887
  912HO4    HW2 3647   7.193   9.739   6.965
  912HO4     MW 3648   7.261   9.813   6.975
  913HO4     OW 3649   4.656   6.412   9.297
  913HO4    HW1 3650   4.556   6.420   9.310
  913HO4    HW2 3651   4.676   6.404   9.199
  913HO4     MW 3652   4.656   6.412   9.297
  914HO4     OW 3653   1.683   7.208   4.360
  914HO4    HW1 3654   1.662   7.234   4.265
  914HO4    HW2 3655   1.689   7.290   4.416
  914HO4     MW 3656   1.683   7.208   4.360
  915HO4     OW 3657   0.223   1.273   7.241
  915HO4    HW1 3658   0.241   1.357   7.190
  915HO4    HW2 3659   0.289   1.202   7.214
  915HO4     MW 3660   0.223   1.273   7.241
  916HO4     OW 3661   6.751   2.891   8.512
  916HO4    HW1 3662   6.765   2.819   8.443
  916HO4    HW2 3663   6.736   2.849   8.602
  916HO4     MW 3664   6.751   2.891   8.512
  917HO4     OW 3665  10.033   6.945   5.671
  917HO4    HW1 3666  10.111   6.976   5.616
  917HO4    HW2 3667  10.008   7.017   5.736
  917HO4     MW 3668  10.033   6.945   5.671
  918HO4     OW 3669   2.004   3.188   1.283
  918HO4    HW1 3670   1.949   3.205   1.200
  918HO4    HW2 3671   1.948   3.206   1.364
  918HO4     MW 3672   2.004   3.188   1.283
  919HO4     OW 3673   0.377   6.021   3.048
  919HO4    HW1 3674   0.381   6.036   3.147
  919HO4    HW2 3675   0.418   5.931   3.026
  919HO4     MW 3676   0.377   6.021   3.048
  920HO4     OW 3677   2.370   1.881   0.965
  920HO4    HW1 3678   2.359   1.903   1.063
  920HO4    HW2 3679   2.281   1.857   0.926
  920HO4     MW 3680   2.370   1.881   0.965
  921HO4     OW 3681   7.849   1.892   2.088
  921HO4    HW1 3682   7.859   1.874   1.990
  921HO4    HW2 3683   7.862   1.806   2.139
  921HO4     MW 3684   7.849   1.892   2.088
  922HO4     OW 3685   6.725   0.537   7.224
  922HO4    HW1 3686   6.654   0.544   7.153
  922HO4    HW2 3687   6.688   0.491   7.305
  922HO4     MW 3688   6.725   0.537   7.224
  923HO4     OW 3689   1.648   2.021   8.799
  923HO4    HW1 3690   1.649   1.952   8.726
  923HO4    HW2 3691   1.655   1.975   8.888
  923HO4     MW 3692   1.648   2.021   8.799
  924HO4     OW 3693   5.690   1.648   2.219
  924HO4    HW1 3694   5.708   1.600   2.305
  924HO4    HW2 3695   5.645   1.736   2.238
  924HO4     MW 3696   5.690   1.648   2.219
  925HO4     OW 3697   3.974   4.384   8.528
  925HO4    HW1 3698   4.005   4.375   8.623
  925HO4    HW2 3699   3.876   4.409   8.527
  925HO4     MW 3700   3.974   4.384   8.528
  926HO4     OW 3701   1.685   1.973   9.406
  926HO4    HW1 3702   1.687   1.965   9.306
  926HO4    HW2 3703   1.725   1.891   9.447
  926HO4     MW 3704   1.685   1.973   9.406
  927HO4     OW 3705   6.054   3.975   6.860
  927HO4    HW1 3706   6.095   3.974   6.768
  927HO4    HW2 3707   6.100   4.043   6.916
  927HO4     MW 3708   6.054   3.975   6.860
  928HO4     OW 3709   9.460   8.007   9.466
  928HO4    HW1 3710   9.541   8.038   9.416
  928HO4    HW2 3711   9.417   8.085   9.512
  928HO4     MW 3712   9.460   8.007   9.466
  929HO4     OW 3713   6.781   7.524   2.462
  929HO4    HW1 3714   6.856   7.457   2.455
  929HO4    HW2 3715   6.708   7.487   2.520
  929HO4     MW 3716   6.781   7.524   2.462
  930HO4     OW 3717   4.580   8.221   8.225
  930HO4    HW1 3718   4.643   8.261   8.293
  930HO4    HW2 3719   4.612   8.129   8.201
  930HO4     MW 3720   4.580   8.221   8.225
  931HO4     OW 3721   9.362   4.020   5.698
  931HO4    HW1 3722   9.392   4.108   5.659
  931HO4    HW2 3723   9.408   4.004   5.786
  931HO4     MW 3724   9.362   4.020   5.698
  932HO4     OW 3725   2.062   5.252   7.410
  932HO4    HW1 3726   2.020   5.264   7.320
  932HO4    HW2 3727   1.995   5.275   7.482
  932HO4     MW 3728   2.062   5.252   7.410
  933HO4     OW 3729   6.190   7.972   6.732
  933HO4    HW1 3730   6.217   7.882   6.697
  933HO4    HW2 3731   6.210   8.042   6.663
  933HO4     MW 3732   6.190   7.972   6.732
  934HO4     OW 3733   9.413   4.033   6.119
  934HO4    HW1 3734   9.415   4.124   6.076
  934HO4    HW2 3735   9.319   4.012   6.148
  934HO4     MW 3736   9.413   4.033   6.119
  935HO4     OW 3737   8.774   3.954   0.099
  935HO4    HW1 3738   8.682   3.994   0.091
  935HO4    HW2 3739   8.774   3.882   0.169
  935HO4     MW 3740   8.774   3.954   0.099
  936HO4     OW 3741   9.737   8.588   8.433
  936HO4    HW1 3742   9.775   8.677   8.460
  936HO4    HW2 3743   9.812   8.527   8.407
  936HO4     MW 3744   9.737   8.588   8.433
  937HO4     OW 3745   2.939   3.215   5.382
  937HO4    HW1 3746   2.951   3.290   5.448
  937HO4    HW2 3747   2.975   3.243   5.292
  937HO4     MW 3748   2.939   3.215   5.382
  938HO4     OW 3749   2.656   3.848   4.198
  938HO4    HW1 3750   2.736   3.842   4.137
  938HO4    HW2 3751   2.687   3.851   4.293
  938HO4     MW 3752   2.656   3.848   4.198
  939HO4     OW 3753  10.109   1.669   4.752
  939HO4    HW1 3754  10.065   1.747   4.798
  939HO4    HW2 3755  10.040   1.597   4.736
  939HO4     MW 3756  10.109   1.669   4.752
  940HO4     OW 3757   5.404   3.041   1.710
  940HO4    HW1 3758   5.468   2.967   1.731
  940HO4    HW2 3759   5.329   3.005   1.653
  940HO4     MW 3760   5.404   3.041   1.710
  941HO4     OW 3761   0.577   3.864   4.842
  941HO4    HW1 3762   0.673   3.895   4.846
  941HO4    HW2 3763   0.536   3.870   4.933
  941HO4     MW 3764   0.577   3.864   4.842
  942HO4     OW 3765   0.618   9.895   2.766
  942HO4    HW1 3766   0.695   9.839   2.732
  942HO4    HW2 3767   0.531   9.851   2.741
  942HO4     MW 3768   0.618   9.895   2.766
  943HO4     OW 3769   0.951   1.944   8.999
  943HO4    HW1 3770   0.962   1.884   9.079
  943HO4    HW2 3771   1.039   1.987   8.976
  943HO4     MW 3772   0.951   1.944   8.999
  944HO4     OW 3773   3.749   0.886   2.036
  944HO4    HW1 3774   3.726   0.936   1.952
  944HO4    HW2 3775   3.832   0.831   2.020
  944HO4     MW 3776   3.749   0.886   2.036
  945HO4     OW 3777   4.801   6.835   8.628
  945HO4    HW1 3778   4.855   6.813   8.546
  945HO4    HW2 3779   4.851   6.807   8.710
  945HO4     MW 3780   4.801   6.835   8.628
  946HO4     OW 3781   3.014   1.619   6.407
  946HO4    HW1 3782   2.930   1.576   6.442
  946HO4    HW2 3783   3.064   1.661   6.483
  946HO4     MW 3784   3.014   1.619   6.407
  947HO4     OW 3785   3.464   0.604   9.266
  947HO4    HW1 3786   3.507   0.568   9.183
  947HO4    HW2 3787   3.506   0.692   9.291
  947HO4     MW 3788   3.464   0.604   9.266
  948HO4     OW 3789   1.451   7.853   0.658
  948HO4    HW1 3790   1.481   7.783   0.592
  948HO4    HW2 3791   1.457   7.816   0.751
  948HO4     MW 3792   1.451   7.853   0.658
  949HO4     OW 3793   2.114   7.036   2.951
  949HO4    HW1 3794   2.143   7.129   2.927
  949HO4    HW2 3795   2.041   7.007   2.888
  949HO4     MW 3796   2.114   7.036   2.951
  950HO4     OW 3797   6.324   7.457   8.639
  950HO4    HW1 3798   6.287   7.409   8.559
  950HO4    HW2 3799   6.410   7.413   8.667
  950HO4     MW 3800   6.324   7.457   8.639
  951HO4     OW 3801   0.069   5.594   9.637
  951HO4    HW1 3802  -0.031   5.586   9.635
  951HO4    HW2 3803   0.103   5.620   9.546
  951HO4     MW 3804   0.069   5.594   9.637
  952HO4     OW 3805   0.705   2.991   2.856
  952HO4    HW1 3806   0.739   3.049   2.781
  952HO4    HW2 3807   0.778   2.928   2.886
  952HO4     MW 3808   0.705   2.991   2.856
  953HO4     OW 3809   3.663   9.477   0.843
  953HO4    HW1 3810   3.640   9.448   0.749
  953HO4    HW2 3811   3.612   9.560   0.866
  953HO4     MW 3812   3.663   9.477   0.843
  954HO4     OW 3813   5.776   1.160   8.027
  954HO4    HW1 3814   5.722   1.149   7.942
  954HO4    HW2 3815   5.717   1.198   8.099
  954HO4     MW 3816   5.776   1.160   8.027
  955HO4     OW 3817   6.167   7.456   0.080
  955HO4    HW1 3818   6.238   7.515   0.118
  955HO4    HW2 3819   6.182   7.362   0.110
  955HO4     MW 3820   6.167   7.456   0.080
  956HO4     OW 3821   4.696   9.016   2.807
  956HO4    HW1 3822   4.758   9.095   2.809
  956HO4    HW2 3823   4.602   9.047   2.796
  956HO4     MW 3824   4.696   9.016   2.807
  957HO4     OW 3825   2.998   5.983   4.521
  957HO4    HW1 3826   2.962   5.997   4.613
  957HO4    HW2 3827   3.035   5.890   4.514
  957HO4     MW 3828   2.998   5.983   4.521
  958HO4     OW 3829   3.013   9.467   7.096
  958HO4    HW1 3830   3.049   9.457   7.189
  958HO4    HW2 3831   2.973   9.380   7.066
  958HO4     MW 3832   3.013   9.467   7.096
  959HO4     OW 3833   0.177   2.231   6.205
  959HO4    HW1 3834   0.240   2.216   6.129
  959HO4    HW2 3835   0.229   2.230   6.291
  959HO4     MW 3836   0.177   2.231   6.205
  960HO4     OW 3837   9.597   3.733   1.030
  960HO4    HW1 3838   9.575   3.709   1.125
  960HO4    HW2 3839   9.512   3.736   0.976
  960HO4     MW 3840   9.597   3.733   1.030
  961HO4     OW 3841   5.183   9.727   0.210
  961HO4    HW1 3842   5.274   9.745   0.171
  961HO4    HW2 3843   5.123   9.690   0.139
  961HO4     MW 3844   5.183   9.727   0.210
  962HO4     OW 3845   7.542   6.832   9.782
  962HO4    HW1 3846   7.502   6.864   9.868
  962HO4    HW2 3847   7.491   6.870   9.705
  962HO4     MW 3848   7.542   6.832   9.782
  963HO4     OW 3849   5.944   5.062   2.439
  963HO4    HW1 3850   5.985   5.047   2.348
  963HO4    HW2 3851   5.844   5.062   2.431
  963HO4     MW 3852   5.944   5.062   2.439
  964HO4     OW 3853   7.736   5.542   8.448
  964HO4    HW1 3854   7.824   5.493   8.456
  964HO4    HW2 3855   7.671   5.487   8.396
  964HO4     MW 3856   7.736   5.542   8.448
  965HO4     OW 3857   6.824   0.560   2.003
  965HO4    HW1 3858   6.769   0.530   1.924
  965HO4    HW2 3859   6.780   0.529   2.088
  965HO4     MW 3860   6.824   0.560   2.003
  966HO4     OW 3861   5.051   0.764   7.356
  966HO4    HW1 3862   5.042   0.853   7.403
  966HO4    HW2 3863   4.983   0.759   7.282
  966HO4     MW 3864   5.051   0.764   7.356
  967HO4     OW 3865   0.259   1.752   5.907
  967HO4    HW1 3866   0.311   1.760   5.822
  967HO4    HW2 3867   0.161   1.746   5.886
  967HO4     MW 3868   0.259   1.752   5.907
  968HO4     OW 3869   0.492   2.020   5.246
  968HO4    HW1 3870   0.420   1.971   5.196
  968HO4    HW2 3871   0.454   2.058   5.331
  968HO4     MW 3872   0.492   2.020   5.246
  969HO4     OW 3873   0.360   9.922   3.063
  969HO4    HW1 3874   0.429   9.901   3.132
  969HO4    HW2 3875   0.304   9.840   3.046
  969HO4     MW 3876   0.360   9.922   3.063
  970HO4     OW 3877   9.755   7.227   0.891
  970HO4    HW1 3878   9.665   7.272   0.901
  970HO4    HW2 3879   9.748   7.153   0.824
  970HO4     MW 3880   9.755   7.227   0.891
  971HO4     OW 3881   4.719   6.797   3.829
  971HO4    HW1 3882   4.660   6.773   3.750
  971HO4    HW2 3883   4.707   6.894   3.851
  971HO4     MW 3884   4.719   6.797   3.829
  972HO4     OW 3885   5.283   0.864   2.848
  972HO4    HW1 3886   5.204   0.882   2.789
  972HO4    HW2 3887   5.271   0.912   2.935
  972HO4     MW 3888   5.283   0.864   2.848
  973HO4     OW 3889   5.833   7.617   2.851
  973HO4    HW1 3890   5.783   7.698   2.819
  973HO4    HW2 3891   5.910   7.599   2.790
  973HO4     MW 3892   5.833   7.617   2.851
  974HO4     OW 3893   0.790   0.922   1.403
  974HO4    HW1 3894   0.760   1.016   1.383
  974HO4    HW2 3895   0.875   0.902   1.353
  974HO4     MW 3896   0.790   0.922   1.403
  975HO4     OW 3897   1.175   1.745   6.062
  975HO4    HW1 3898   1.172   1.695   5.975
  975HO4    HW2 3899   1.158   1.682   6.138
  975HO4     MW 3900   1.175   1.745   6.062
  976HO4     OW 3901   0.979   8.083   3.109
  976HO4    HW1 3902   1.000   7.986   3.099
  976HO4    HW2 3903   0.899   8.106   3.053
  976HO4     MW 3904   0.979   8.083   3.109
  977HO4     OW 3905   2.141   2.979   7.053
  977HO4    HW1 3906   2.161   2.963   6.955
  977HO4    HW2 3907   2.137   3.077   7.071
  977HO4     MW 3908   2.141   2.979   7.053
  978HO4     OW 3909   1.142   0.709   1.946
  978HO4    HW1 3910   1.159   0.685   1.850
  978HO4    HW2 3911   1.191   0.646   2.006
  978HO4     MW 3912   1.142   0.709   1.946
  979HO4     OW 3913   3.568   6.228   4.910
  979HO4    HW1 3914   3.502   6.301   4.891
  979HO4    HW2 3915   3.523   6.139   4.895
  979HO4     MW 3916   3.568   6.228   4.910
  980HO4     OW 3917   2.522   7.188   7.209
  980HO4    HW1 3918   2.470   7.204   7.293
  980HO4    HW2 3919   2.464   7.209   7.130
  980HO4     MW 3920   2.522   7.188   7.209
  981HO4     OW 3921   7.132   6.523   1.756
  981HO4    HW1 3922   7.162   6.443   1.705
  981HO4    HW2 3923   7.166   6.518   1.850
  981HO4     MW 3924   7.132   6.523   1.756
  982HO4     OW 3925   8.308  -0.013   0.351
  982HO4    HW1 3926   8.285   0.085   0.348
  982HO4    HW2 3927   8.317  -0.042   0.446
  982HO4     MW 3928   8.308  -0.013   0.351
  983HO4     OW 3929   5.572   3.357   5.153
  983HO4    HW1 3930   5.562   3.318   5.061
  983HO4    HW2 3931   5.571   3.283   5.221
  983HO4     MW 3932   5.572   3.357   5.153
  984HO4     OW 3933   2.824   6.706   1.513
  984HO4    HW1 3934   2.898   6.647   1.547
  984HO4    HW2 3935   2.768   6.655   1.448
  984HO4     MW 3936   2.824   6.706   1.513
  985HO4     OW 3937   1.069   0.029   0.347
  985HO4    HW1 3938   0.995  -0.021   0.394
  985HO4    HW2 3939   1.083  -0.012   0.256
  985HO4     MW 3940   1.069   0.029   0.347
  986HO4     OW 3941   3.420   4.653   0.082
  986HO4    HW1 3942   3.392   4.651  -0.015
  986HO4    HW2 3943   3.351   4.701   0.136
  986HO4     MW 3944   3.420   4.653   0.082
  987HO4     OW 3945   7.614   3.613   4.824
  987HO4    HW1 3946   7.609   3.556   4.742
  987HO4    HW2 3947   7.658   3.562   4.898
  987HO4     MW 3948   7.614   3.613   4.824
  988HO4     OW 3949   8.773   0.515   9.251
  988HO4    HW1 3950   8.777   0.432   9.308
  988HO4    HW2 3951   8.841   0.508   9.177
  988HO4     MW 3952   8.773   0.515   9.251
  989HO4     OW 3953   4.914   1.114   4.427
  989HO4    HW1 3954   4.901   1.138   4.524
  989HO4    HW2 3955   4.835   1.061   4.395
  989HO4     MW 3956   4.914   1.114   4.427
  990HO4     OW 3957   2.911   8.003   4.425
  990HO4    HW1 3958   2.945   8.063   4.352
  990HO4    HW2 3959   2.909   8.053   4.512
  990HO4     MW 3960   2.911   8.003   4.425
  991HO4     OW 3961   5.096   0.607   8.092
  991HO4    HW1 3962   5.124   0.564   8.178
  991HO4    HW2 3963   5.174   0.614   8.030
  991HO4     MW 3964   5.096   0.607   8.092
  992HO4     OW 3965   2.080   8.435   4.239
  992HO4    HW1 3966   2.141   8.494   4.184
  992HO4    HW2 3967   2.088   8.460   4.336
  992HO4     MW 3968   2.080   8.435   4.239
  993HO4     OW 3969   3.248   6.299   9.007
  993HO4    HW1 3970   3.248   6.231   9.080
  993HO4    HW2 3971   3.338   6.343   9.002
  993HO4     MW 3972   3.248   6.299   9.007
  994HO4     OW 3973   7.502   6.935   7.553
  994HO4    HW1 3974   7.575   6.952   7.620
  994HO4    HW2 3975   7.440   6.865   7.588
  994HO4     MW 3976   7.502   6.935   7.553
  995HO4     OW 3977   1.169   6.819   9.518
  995HO4    HW1 3978   1.137   6.838   9.612
  995HO4    HW2 3979   1.132   6.731   9.488
  995HO4     MW 3980   1.169   6.819   9.518
  996HO4     OW 3981   6.824   0.110   6.799
  996HO4    HW1 3982   6.803   0.051   6.721
  996HO4    HW2 3983   6.913   0.154   6.785
  996HO4     MW 3984   6.824   0.110   6.799
  997HO4     OW 3985   0.331   8.299   6.061
  997HO4    HW1 3986   0.276   8.332   6.138
  997HO4    HW2 3987   0.287   8.325   5.975
  997HO4     MW 3988   0.331   8.299   6.061
  998HO4     OW 3989   9.238   3.770   3.044
  998HO4    HW1 3990   9.277   3.782   2.952
  998HO4    HW2 3991   9.261   3.679   3.079
  998HO4     MW 3992   9.238   3.770   3.044
  999HO4     OW 3993   8.020   8.869   2.514
  999HO4    HW1 3994   8.047   8.919   2.431
  999HO4    HW2 3995   7.970   8.931   2.575
  999HO4     MW 3996   8.020   8.869   2.514
 1000HO4     OW 3997   7.109   6.947   4.987
 1000HO4    HW1 3998   7.052   6.890   4.927
 1000HO4    HW2 3999   7.113   7.040   4.950
 1000HO4     MW 4000   7.109   6.947   4.987
 1001HO4     OW 4001   4.315   0.355   6.368
 1001HO4    HW1 4002   4.258   0.438   6.364
 1001HO4    HW2 4003   4.308   0.306   6.281
 1001HO4     MW 4004   4.315   0.355   6.368
 1002HO4     OW 4005   1.658   7.391   2.304
 1002HO4    HW1 4006   1.601   7.371   2.384
 1002HO4    HW2 4007   1.619   7.468   2.253
 1002HO4     MW 4008   1.658   7.391   2.304
 1003HO4     OW 4009   4.419   6.979   2.544
 1003HO4    HW1 4010   4.359   6.961   2.622
 1003HO4    HW2 4011   4.472   7.063   2.561
 1003HO4     MW 4012   4.419   6.979   2.544
 1004HO4     OW 4013   3.566   8.702   2.085
 1004HO4    HW1 4014   3.605   8.653   2.164
 1004HO4    HW2 4015   3.573   8.644   2.004
 1004HO4     MW 4016   3.566   8.702   2.085
 1005HO4     OW 4017   2.363   8.665   4.152
 1005HO4    HW1 4018   2.390   8.744   4.096
 1005HO4    HW2 4019   2.431   8.592   4.142
 1005HO4     MW 4020   2.363   8.665   4.152
 1006HO4     OW 4021   1.301   7.669   9.622
 1006HO4    HW1 4022   1.208   7.641   9.597
 1006HO4    HW2 4023   1.311   7.768   9.607
 1006HO4     MW 4024   1.301   7.669   9.622
 1007HO4     OW 4025   8.219   2.070   7.296
 1007HO4    HW1 4026   8.173   1.996   7.346
 1007HO4    HW2 4027   8.171   2.087   7.209
 1007HO4     MW 4028   8.219   2.070   7.296
 1008HO4     OW 4029  10.025   8.260   3.555
 1008HO4    HW1 4030   9.998   8.170   3.518
 1008HO4    HW2 4031  10.028   8.255   3.655
 1008HO4     MW 4032  10.025   8.260   3.555
 1009HO4     OW 4033   8.881   2.864   1.108
 1009HO4    HW1 4034   8.881   2.790   1.176
 1009HO4    HW2 4035   8.877   2.823   1.016
 1009HO4     MW 4036   8.881   2.864   1.108
 1010HO4     OW 4037   2.668   8.511   3.900
 1010HO4    HW1 4038   2.580   8.494   3.945
 1010HO4    HW2 4039   2.669   8.603   3.861
 1010HO4     MW 4040   2.668   8.511   3.900
 1011HO4     OW 4041   6.217   9.851   3.173
 1011HO4    HW1 4042   6.174   9.849   3.264
 1011HO4    HW2 4043   6.145   9.857   3.103
 1011HO4     MW 4044   6.217   9.851   3.173
 1012HO4     OW 4045   7.949   0.962   9.515
 1012HO4    HW1 4046   7.978   0.931   9.424
 1012HO4    HW2 4047   8.026   1.007   9.561
 1012HO4     MW 4048   7.949   0.962   9.515
 1013HO4     OW 4049   9.591   8.210   1.491
 1013HO4    HW1 4050   9.594   8.283   1.559
 1013HO4    HW2 4051   9.648   8.133   1.521
 1013HO4     MW 4052   9.591   8.210   1.491
 1014HO4     OW 4053   6.204   2.233   4.570
 1014HO4    HW1 4054   6.115   2.270   4.597
 1014HO4    HW2 4055   6.231   2.159   4.633
 1014HO4     MW 4056   6.204   2.233   4.570
 1015HO4     OW 4057   8.993   1.295   9.024
 1015HO4    HW1 4058   9.023   1.210   8.979
 1015HO4    HW2 4059   9.037   1.374   8.980
 1015HO4     MW 4060   8.993   1.295   9.024
 1016HO4     OW 4061   8.734   6.454   2.066
 1016HO4    HW1 4062   8.829   6.473   2.094
 1016HO4    HW2 4063   8.731   6.366   2.017
 1016HO4     MW 4064   8.734   6.454   2.066
 1017HO4     OW 4065   7.872   4.703   4.888
 1017HO4    HW1 4066   7.937   4.758   4.834
 1017HO4    HW2 4067   7.813   4.765   4.942
 1017HO4     MW 4068   7.872   4.703   4.888
 1018HO4     OW 4069   7.825   4.657   4.601
 1018HO4    HW1 4070   7.855   4.582   4.542
 1018HO4    HW2 4071   7.893   4.731   4.598
 1018HO4     MW 4072   7.825   4.657   4.601
 1019HO4     OW 4073   5.090   2.300   4.207
 1019HO4    HW1 4074   5.087   2.306   4.107
 1019HO4    HW2 4075   5.093   2.204   4.235
 1019HO4     MW 4076   5.090   2.300   4.207
 1020HO4     OW 4077   7.983   4.581   3.421
 1020HO4    HW1 4078   8.074   4.622   3.435
 1020HO4    HW2 4079   7.982   4.487   3.457
 1020HO4     MW 4080   7.983   4.581   3.421
 1021HO4     OW 4081   1.791   7.790   5.840
 1021HO4    HW1 4082   1.883   7.787   5.881
 1021HO4    HW2 4083   1.798   7.791   5.740
 1021HO4     MW 4084   1.791   7.790   5.840
 1022HO4     OW 4085   5.567   9.065   7.256
 1022HO4    HW1 4086   5.536   9.106   7.341
 1022HO4    HW2 4087   5.630   9.129   7.209
 1022HO4     MW 4088   5.567   9.065   7.256
 1023HO4     OW 4089   2.105   8.677   5.038
 1023HO4    HW1 4090   2.134   8.600   5.094
 1023HO4    HW2 4091   2.023   8.651   4.986
 1023HO4     MW 4092   2.105   8.677   5.038
 1024HO4     OW 4093   6.647   8.424   5.963
 1024HO4    HW1 4094   6.746   8.405   5.971
 1024HO4    HW2 4095   6.628   8.516   5.999
 1024HO4     MW 4096   6.647   8.424   5.963
 1025HO4     OW 4097   6.678   0.476   5.567
 1025HO4    HW1 4098   6.662   0.491   5.665
 1025HO4    HW2 4099   6.607   0.524   5.514
 1025HO4     MW 4100   6.678   0.476   5.567
 1026HO4     OW 4101   7.491   8.074   7.255
 1026HO4    HW1 4102   7.392   8.080   7.269
 1026HO4    HW2 4103   7.537   8.141   7.313
 1026HO4     MW 4104   7.491   8.074   7.255
 1027HO4     OW 4105   2.958   5.887  10.119
 1027HO4    HW1 4106   2.861   5.913  10.114
 1027HO4    HW2 4107   3.014   5.969  10.130
 1027HO4     MW 4108   2.958   5.887  10.119
 1028HO4     OW 4109   6.454   7.390   2.858
 1028HO4    HW1 4110   6.452   7.362   2.762
 1028HO4    HW2 4111   6.541   7.360   2.900
 1028HO4     MW 4112   6.454   7.390   2.858
 1029HO4     OW 4113   0.470   7.305   2.274
 1029HO4    HW1 4114   0.537   7.376   2.297
 1029HO4    HW2 4115   0.391   7.312   2.337
 1029HO4     MW 4116   0.470   7.305   2.274
 1030HO4     OW 4117   6.484   8.008   5.757
 1030HO4    HW1 4118   6.560   7.971   5.703
 1030HO4    HW2 4119   6.400   8.007   5.702
 1030HO4     MW 4120   6.484   8.008   5.757
 1031HO4     OW 4121   3.454   9.033   6.442
 1031HO4    HW1 4122   3.490   9.101   6.507
 1031HO4    HW2 4123   3.408   9.081   6.366
 1031HO4     MW 4124   3.454   9.033   6.442
 1032HO4     OW 4125   6.071   1.611   6.741
 1032HO4    HW1 4126   6.057   1.540   6.811
 1032HO4    HW2 4127   6.009   1.688   6.759
 1032HO4     MW 4128   6.071   1.611   6.741
 1033HO4     OW 4129   4.585   7.946   6.388
 1033HO4    HW1 4130   4.647   8.001   6.331
 1033HO4    HW2 4131   4.634   7.915   6.470
 1033HO4     MW 4132   4.585   7.946   6.388
 1034HO4     OW 4133   1.957   2.308   1.136
 1034HO4    HW1 4134   1.956   2.283   1.233
 1034HO4    HW2 4135   2.005   2.395   1.124
 1034HO4     MW 4136   1.957   2.308   1.136
 1035HO4     OW 4137   5.051   3.421   7.964
 1035HO4    HW1 4138   5.138   3.413   8.015
 1035HO4    HW2 4139   5.067   3.463   7.875
 1035HO4     MW 4140   5.051   3.421   7.964
 1036HO4     OW 4141   9.301   7.855   2.390
 1036HO4    HW1 4142   9.331   7.939   2.344
 1036HO4    HW2 4143   9.209   7.830   2.356
 1036HO4     MW 4144   9.301   7.855   2.390
 1037HO4     OW 4145   1.789   9.905   2.940
 1037HO4    HW1 4146   1.842   9.900   2.855
 1037HO4    HW2 4147   1.732   9.987   2.939
 1037HO4     MW 4148   1.789   9.905   2.940
 1038HO4     OW 4149   5.424   1.165   0.734
 1038HO4    HW1 4150   5.369   1.249   0.744
 1038HO4    HW2 4151   5.471   1.145   0.820
 1038HO4     MW 4152   5.424   1.165   0.734
 1039HO4     OW 4153   4.981   5.162   8.167
 1039HO4    HW1 4154   4.962   5.239   8.106
 1039HO4    HW2 4155   4.914   5.162   8.243
 1039HO4     MW 4156   4.981   5.162   8.167
 1040HO4     OW 4157   7.694   7.131   9.453
 1040HO4    HW1 4158   7.681   7.063   9.526
 1040HO4    HW2 4159   7.604   7.156   9.414
 1040HO4     MW 4160   7.694   7.131   9.453
 1041HO4     OW 4161   3.298   6.292   8.035
 1041HO4    HW1 4162   3.333   6.242   7.956
 1041HO4    HW2 4163   3.370   6.296   8.106
 1041HO4     MW 4164   3.298   6.292   8.035
 1042HO4     OW 4165   7.821   5.583   2.222
 1042HO4    HW1 4166   7.883   5.595   2.301
 1042HO4    HW2 4167   7.875   5.583   2.137
 1042HO4     MW 4168   7.821   5.583   2.222
 1043HO4     OW 4169   9.997   3.198   2.317
 1043HO4    HW1 4170  10.090   3.204   2.279
 1043HO4    HW2 4171  10.003   3.192   2.417
 1043HO4     MW 4172   9.997   3.198   2.317
 1044HO4     OW 4173   4.980   9.930   7.313
 1044HO4    HW1 4174   4.947   9.840   7.282
 1044HO4    HW2 4175   4.905   9.996   7.309
 1044HO4     MW 4176   4.980   9.930   7.313
 1045HO4     OW 4177   5.210   0.627   4.066
 1045HO4    HW1 4178   5.206   0.650   3.968
 1045HO4    HW2 4179   5.215   0.527   4.077
 1045HO4     MW 4180   5.210   0.627   4.066
 1046HO4     OW 4181   5.591   4.171   0.571
 1046HO4    HW1 4182   5.551   4.176   0.479
 1046HO4    HW2 4183   5.688   4.198   0.566
 1046HO4     MW 4184   5.591   4.171   0.571
 1047HO4     OW 4185   6.579   5.655   6.858
 1047HO4    HW1 4186   6.636   5.617   6.931
 1047HO4    HW2 4187   6.611   5.747   6.835
 1047HO4     MW 4188   6.579   5.655   6.858
 1048HO4     OW 4189   3.688   0.690   4.073
 1048HO4    HW1 4190   3.724   0.688   4.166
 1048HO4    HW2 4191   3.764   0.690   4.008
 1048HO4     MW 4192   3.688   0.690   4.073
 1049HO4     OW 4193   4.349   6.883   6.284
 1049HO4    HW1 4194   4.424   6.917   6.227
 1049HO4    HW2 4195   4.326   6.789   6.257
 1049HO4     MW 4196   4.349   6.883   6.284
 1050HO4     OW 4197   5.139   3.016   3.500
 1050HO4    HW1 4198   5.209   3.012   3.428
 1050HO4    HW2 4199   5.180   2.995   3.589
 1050HO4     MW 4200   5.139   3.016   3.500
 1051HO4     OW 4201   5.696   4.620   9.134
 1051HO4    HW1 4202   5.596   4.621   9.124
 1051HO4    HW2 4203   5.737   4.680   9.064
 1051HO4     MW 4204   5.696   4.620   9.134
 1052HO4     OW 4205   0.161   4.659   7.746
 1052HO4    HW1 4206   0.147   4.721   7.825
 1052HO4    HW2 4207   0.089   4.675   7.678
 1052HO4     MW 4208   0.161   4.659   7.746
 1053HO4     OW 4209   2.219   5.272   9.412
 1053HO4    HW1 4210   2.247   5.193   9.358
 1053HO4    HW2 4211   2.222   5.355   9.355
 1053HO4     MW 4212   2.219   5.272   9.412
 1054HO4     OW 4213   6.847   3.336   6.493
 1054HO4    HW1 4214   6.911   3.275   6.540
 1054HO4    HW2 4215   6.756   3.329   6.535
 1054HO4     MW 4216   6.847   3.336   6.493
 1055HO4     OW 4217   9.245   8.460   9.743
 1055HO4    HW1 4218   9.277   8.396   9.813
 1055HO4    HW2 4219   9.281   8.552   9.763
 1055HO4     MW 4220   9.245   8.460   9.743
 1056HO4     OW 4221   2.732   6.462   8.201
 1056HO4    HW1 4222   2.731   6.551   8.247
 1056HO4    HW2 4223   2.730   6.388   8.270
 1056HO4     MW 4224   2.732   6.462   8.201
 1057HO4     OW 4225   5.281   5.732   8.697
 1057HO4    HW1 4226   5.235   5.752   8.610
 1057HO4    HW2 4227   5.213   5.726   8.770
 1057HO4     MW 4228   5.281   5.732   8.697
 1058HO4     OW 4229   6.221   0.411   8.045
 1058HO4    HW1 4230   6.286   0.409   8.122
 1058HO4    HW2 4231   6.271   0.395   7.959
 1058HO4     MW 4232   6.221   0.411   8.045
 1059HO4     OW 4233   1.807   1.674   3.254
 1059HO4    HW1 4234   1.784   1.763   3.213
 1059HO4    HW2 4235   1.905   1.672   3.278
 1059HO4     MW 4236   1.807   1.674   3.254
 1060HO4     OW 4237   1.929   5.754   3.056
 1060HO4    HW1 4238   2.004   5.820   3.049
 1060HO4    HW2 4239   1.932   5.692   2.977
 1060HO4     MW 4240   1.929   5.754   3.056
 1061HO4     OW 4241   2.784   9.946   6.254
 1061HO4    HW1 4242   2.817   9.898   6.336
 1061HO4    HW2 4243   2.815   9.898   6.172
 1061HO4     MW 4244   2.784   9.946   6.254
 1062HO4     OW 4245   3.621   0.795   6.789
 1062HO4    HW1 4246   3.584   0.792   6.695
 1062HO4    HW2 4247   3.545   0.795   6.854
 1062HO4     MW 4248   3.621   0.795   6.789
 1063HO4     OW 4249   7.588   3.201   3.577
 1063HO4    HW1 4250   7.652   3.203   3.499
 1063HO4    HW2 4251   7.581   3.293   3.616
 1063HO4     MW 4252   7.588   3.201   3.577
 1064HO4     OW 4253   9.827   8.655   0.676
 1064HO4    HW1 4254   9.844   8.736   0.619
 1064HO4    HW2 4255   9.743   8.669   0.730
 1064HO4     MW 4256   9.827   8.655   0.676
 1065HO4     OW 4257   1.708   3.015   2.995
 1065HO4    HW1 4258   1.715   3.092   2.931
 1065HO4    HW2 4259   1.775   3.027   3.069
 1065HO4     MW 4260   1.708   3.015   2.995
 1066HO4     OW 4261   9.013   2.284   9.736
 1066HO4    HW1 4262   8.968   2.290   9.646
 1066HO4    HW2 4263   9.044   2.375   9.765
 1066HO4     MW 4264   9.013   2.284   9.736
 1067HO4     OW 4265   4.057   7.792   5.470
 1067HO4    HW1 4266   3.962   7.786   5.439
 1067HO4    HW2 4267   4.085   7.889   5.473
 1067HO4     MW 4268   4.057   7.792   5.470
 1068HO4     OW 4269   2.761   9.283   4.164
 1068HO4    HW1 4270   2.663   9.294   4.186
 1068HO4    HW2 4271   2.771   9.261   4.067
 1068HO4     MW 4272   2.761   9.283   4.164
 1069HO4     OW 4273   5.446   4.687   6.224
 1069HO4    HW1 4274   5.464   4.634   6.308
 1069HO4    HW2 4275   5.464   4.630   6.144
 1069HO4     MW 4276   5.446   4.687   6.224
 1070HO4     OW 4277   1.858   6.532   4.401
 1070HO4    HW1 4278   1.891   6.438   4.414
 1070HO4    HW2 4279   1.769   6.543   4.446
 1070HO4     MW 4280   1.858   6.532   4.401
 1071HO4     OW 4281   1.886   3.443   4.440
 1071HO4    HW1 4282   1.810   3.439   4.374
 1071HO4    HW2 4283   1.895   3.354   4.486
 1071HO4     MW 4284   1.886   3.443   4.440
 1072HO4     OW 4285   7.313   6.481   7.000
 1072HO4    HW1 4286   7.370   6.532   6.935
 1072HO4    HW2 4287   7.325   6.519   7.092
 1072HO4     MW 4288   7.313   6.481   7.000
 1073HO4     OW 4289   3.044   3.113   7.463
 1073HO4    HW1 4290   2.974   3.167   7.414
 1073HO4    HW2 4291   3.002   3.065   7.540
 1073HO4     MW 4292   3.044   3.113   7.463
 1074HO4     OW 4293   2.281   0.930   4.914
 1074HO4    HW1 4294   2.279   0.885   4.824
 1074HO4    HW2 4295   2.342   1.010   4.911
 1074HO4     MW 4296   2.281   0.930   4.914
 1075HO4     OW 4297   2.890   6.373   1.156
 1075HO4    HW1 4298   2.814   6.347   1.096
 1075HO4    HW2 4299   2.972   6.321   1.131
 1075HO4     MW 4300   2.890   6.373   1.156
 1076HO4     OW 4301   2.635   1.232   2.192
 1076HO4    HW1 4302   2.650   1.158   2.126
 1076HO4    HW2 4303   2.546   1.219   2.236
 1076HO4     MW 4304   2.635   1.232   2.192
 1077HO4     OW 4305   5.863   7.902   5.524
 1077HO4    HW1 4306   5.951   7.853   5.524
 1077HO4    HW2 4307   5.879   8.000   5.531
 1077HO4     MW 4308   5.863   7.902   5.524
 1078HO4     OW 4309   6.261  10.151   2.051
 1078HO4    HW1 4310   6.316  10.067   2.048
 1078HO4    HW2 4311   6.167  10.128   2.079
 1078HO4     MW 4312   6.261  10.151   2.051
 1079HO4     OW 4313   7.600   5.222   0.311
 1079HO4    HW1 4314   7.597   5.322   0.301
 1079HO4    HW2 4315   7.647   5.198   0.397
 1079HO4     MW 4316   7.600   5.222   0.311
 1080HO4     OW 4317   1.308  10.169   7.547
 1080HO4    HW1 4318   1.342  10.196   7.457
 1080HO4    HW2 4319   1.355  10.085   7.577
 1080HO4     MW 4320   1.308  10.169   7.547
 1081HO4     OW 4321   4.199   4.900   4.017
 1081HO4    HW1 4322   4.159   4.821   3.969
 1081HO4    HW2 4323   4.190   4.982   3.960
 1081HO4     MW 4324   4.199   4.900   4.017
 1082HO4     OW 4325   3.477   2.227   4.093
 1082HO4    HW1 4326   3.515   2.143   4.052
 1082HO4    HW2 4327   3.534   2.257   4.169
 1082HO4     MW 4328   3.477   2.227   4.093
 1083HO4     OW 4329   2.991   0.041   0.641
 1083HO4    HW1 4330   3.065  -0.025   0.654
 1083HO4    HW2 4331   3.022   0.116   0.583
 1083HO4     MW 4332   2.991   0.041   0.641
 1084HO4     OW 4333   1.772   1.201   6.765
 1084HO4    HW1 4334   1.777   1.260   6.684
 1084HO4    HW2 4335   1.681   1.158   6.770
 1084HO4     MW 4336   1.772   1.201   6.765
 1085HO4     OW 4337   5.675   2.439   6.664
 1085HO4    HW1 4338   5.661   2.341   6.679
 1085HO4    HW2 4339   5.667   2.459   6.566
 1085HO4     MW 4340   5.675   2.439   6.664
 1086HO4     OW 4341   1.744   0.644   0.511
 1086HO4    HW1 4342   1.752   0.653   0.611
 1086HO4    HW2 4343   1.670   0.703   0.477
 1086HO4     MW 4344   1.744   0.644   0.511
 1087HO4     OW 4345   0.675   1.330   0.133
 1087HO4    HW1 4346   0.762   1.282   0.120
 1087HO4    HW2 4347   0.682   1.423   0.095
 1087HO4     MW 4348   0.675   1.330   0.133
 1088HO4     OW 4349   3.035  10.063   1.339
 1088HO4    HW1 4350   3.038   9.973   1.384
 1088HO4    HW2 4351   3.033  10.050   1.239
 1088HO4     MW 4352   3.035  10.063   1.339
 1089HO4     OW 4353   7.467   5.977   6.340
 1089HO4    HW1 4354   7.502   5.900   6.285
 1089HO4    HW2 4355   7.467   5.951   6.437
 1089HO4     MW 4356   7.467   5.977   6.340
 1090HO4     OW 4357   1.598   4.760   4.370
 1090HO4    HW1 4358   1.571   4.723   4.459
 1090HO4    HW2 4359   1.659   4.839   4.384
 1090HO4     MW 4360   1.598   4.760   4.370
 1091HO4     OW 4361   5.760   4.647   8.034
 1091HO4    HW1 4362   5.850   4.638   7.990
 1091HO4    HW2 4363   5.764   4.612   8.127
 1091HO4     MW 4364   5.760   4.647   8.034
 1092HO4     OW 4365   5.944   5.576   2.921
 1092HO4    HW1 4366   5.982   5.664   2.893
 1092HO4    HW2 4367   5.888   5.587   3.004
 1092HO4     MW 4368   5.944   5.576   2.921
 1093HO4     OW 4369   9.180   4.809   0.184
 1093HO4    HW1 4370   9.252   4.842   0.245
 1093HO4    HW2 4371   9.111   4.760   0.238
 1093HO4     MW 4372   9.180   4.809   0.184
 1094HO4     OW 4373   8.249   3.373   8.149
 1094HO4    HW1 4374   8.323   3.369   8.080
 1094HO4    HW2 4375   8.283   3.337   8.236
 1094HO4     MW 4376   8.249   3.373   8.149
 1095HO4     OW 4377   2.292   5.901   7.136
 1095HO4    HW1 4378   2.316   5.995   7.108
 1095HO4    HW2 4379   2.375   5.852   7.165
 1095HO4     MW 4380   2.292   5.901   7.136
 1096HO4     OW 4381   0.748   5.413   8.213
 1096HO4    HW1 4382   0.807   5.397   8.134
 1096HO4    HW2 4383   0.801   5.399   8.298
 1096HO4     MW 4384   0.748   5.413   8.213
 1097HO4     OW 4385   2.456   0.668   3.281
 1097HO4    HW1 4386   2.407   0.706   3.360
 1097HO4    HW2 4387   2.419   0.708   3.197
 1097HO4     MW 4388   2.456   0.668   3.281
 1098HO4     OW 4389   9.175   3.142   0.400
 1098HO4    HW1 4390   9.261   3.159   0.352
 1098HO4    HW2 4391   9.194   3.118   0.496
 1098HO4     MW 4392   9.175   3.142   0.400
 1099HO4     OW 4393  10.151   5.070   5.103
 1099HO4    HW1 4394  10.129   5.078   5.201
 1099HO4    HW2 4395  10.154   5.162   5.062
 1099HO4     MW 4396  10.151   5.070   5.103
 1100HO4     OW 4397   5.368   5.103   3.671
 1100HO4    HW1 4398   5.423   5.045   3.731
 1100HO4    HW2 4399   5.293   5.145   3.724
 1100HO4     MW 4400   5.368   5.103   3.671
 1101HO4     OW 4401   4.113   4.224   0.553
 1101HO4    HW1 4402   4.188   4.273   0.599
 1101HO4    HW2 4403   4.104   4.132   0.591
 1101HO4     MW 4404   4.113   4.224   0.553
 1102HO4     OW 4405  10.036   7.147   0.559
 1102HO4    HW1 4406   9.986   7.126   0.475
 1102HO4    HW2 4407   9.974   7.137   0.638
 1102HO4     MW 4408  10.036   7.147   0.559
 1103HO4     OW 4409   0.728   5.938   1.853
 1103HO4    HW1 4410   0.783   5.854   1.859
 1103HO4    HW2 4411   0.789   6.018   1.849
 1103HO4     MW 4412   0.728   5.938   1.853
 1104HO4     OW 4413   8.498   9.475   5.945
 1104HO4    HW1 4414   8.521   9.467   5.848
 1104HO4    HW2 4415   8.410   9.521   5.956
 1104HO4     MW 4416   8.498   9.475   5.945
 1105HO4     OW 4417   3.148   3.626   4.721
 1105HO4    HW1 4418   3.075   3.569   4.682
 1105HO4    HW2 4419   3.233   3.614   4.669
 1105HO4     MW 4420   3.148   3.626   4.721
 1106HO4     OW 4421   2.707   0.457   2.119
 1106HO4    HW1 4422   2.644   0.524   2.078
 1106HO4    HW2 4423   2.779   0.435   2.053
 1106HO4     MW 4424   2.707   0.457   2.119
 1107HO4     OW 4425   8.637   7.343   0.421
 1107HO4    HW1 4426   8.557   7.297   0.381
 1107HO4    HW2 4427   8.701   7.368   0.347
 1107HO4     MW 4428   8.637   7.343   0.421
 1108HO4     OW 4429   9.788   7.531   9.610
 1108HO4    HW1 4430   9.729   7.496   9.683
 1108HO4    HW2 4431   9.835   7.614   9.641
 1108HO4     MW 4432   9.788   7.531   9.610
 1109HO4     OW 4433   3.986   5.183   0.050
 1109HO4    HW1 4434   3.926   5.183  -0.030
 1109HO4    HW2 4435   3.995   5.090   0.085
 1109HO4     MW 4436   3.986   5.183   0.050
 1110HO4     OW 4437   5.741   1.447   3.181
 1110HO4    HW1 4438   5.822   1.478   3.131
 1110HO4    HW2 4439   5.727   1.505   3.261
 1110HO4     MW 4440   5.741   1.447   3.181
 1111HO4     OW 4441   1.348   9.022   6.874
 1111HO4    HW1 4442   1.326   8.951   6.806
 1111HO4    HW2 4443   1.345   9.113   6.831
 1111HO4     MW 4444   1.348   9.022   6.874
 1112HO4     OW 4445   3.230   9.635   2.082
 1112HO4    HW1 4446   3.256   9.722   2.040
 1112HO4    HW2 4447   3.297   9.610   2.153
 1112HO4     MW 4448   3.230   9.635   2.082
 1113HO4     OW 4449   1.935   5.094   3.092
 1113HO4    HW1 4450   1.888   5.182   3.077
 1113HO4    HW2 4451   1.870   5.026   3.127
 1113HO4     MW 4452   1.935   5.094   3.092
 1114HO4     OW 4453   4.622   4.670   4.888
 1114HO4    HW1 4454   4.676   4.729   4.827
 1114HO4    HW2 4455   4.537   4.644   4.841
 1114HO4     MW 4456   4.622   4.670   4.888
 1115HO4     OW 4457   5.015   7.762   5.740
 1115HO4    HW1 4458   5.007   7.862   5.740
 1115HO4    HW2 4459   4.967   7.725   5.659
 1115HO4     MW 4460   5.015   7.762   5.740
 1116HO4     OW 4461   6.894   9.472   4.594
 1116HO4    HW1 4462   6.864   9.547   4.535
 1116HO4    HW2 4463   6.964   9.505   4.659
 1116HO4     MW 4464   6.894   9.472   4.594
 1117HO4     OW 4465   9.550   3.589   2.340
 1117HO4    HW1 4466   9.503   3.590   2.251
 1117HO4    HW2 4467   9.517   3.666   2.396
 1117HO4     MW 4468   9.550   3.589   2.340
 1118HO4     OW 4469   2.869   0.325   9.864
 1118HO4    HW1 4470   2.888   0.385   9.786
 1118HO4    HW2 4471   2.779   0.348   9.903
 1118HO4     MW 4472   2.869   0.325   9.864
 1119HO4     OW 4473   5.251   5.177   7.873
 1119HO4    HW1 4474   5.248   5.246   7.946
 1119HO4    HW2 4475   5.308   5.211   7.797
 1119HO4     MW 4476   5.251   5.177   7.873
 1120HO4     OW 4477   3.626   5.508   1.672
 1120HO4    HW1 4478   3.608   5.415   1.707
 1120HO4    HW2 4479   3.558   5.571   1.710
 1120HO4     MW 4480   3.626   5.508   1.672
 1121HO4     OW 4481   0.991   6.653   5.499
 1121HO4    HW1 4482   0.976   6.608   5.410
 1121HO4    HW2 4483   0.951   6.597   5.572
 1121HO4     MW 4484   0.991   6.653   5.499
 1122HO4     OW 4485   7.784   9.561   6.108
 1122HO4    HW1 4486   7.750   9.591   6.198
 1122HO4    HW2 4487   7.729   9.604   6.036
 1122HO4     MW 4488   7.784   9.561   6.108
 1123HO4     OW 4489   3.850   6.311   3.371
 1123HO4    HW1 4490   3.876   6.254   3.449
 1123HO4    HW2 4491   3.789   6.385   3.401
 1123HO4     MW 4492   3.850   6.311   3.371
 1124HO4     OW 4493   3.121   1.041   8.302
 1124HO4    HW1 4494   3.043   1.078   8.251
 1124HO4    HW2 4495   3.121   1.078   8.395
 1124HO4     MW 4496   3.121   1.041   8.302
 1125HO4     OW 4497   6.031   4.680   1.694
 1125HO4    HW1 4498   6.080   4.729   1.622
 1125HO4    HW2 4499   5.981   4.746   1.752
 1125HO4     MW 4500   6.031   4.680   1.694
 1126HO4     OW 4501   2.618   7.764   9.876
 1126HO4    HW1 4502   2.580   7.803   9.791
 1126HO4    HW2 4503   2.546   7.755   9.944
 1126HO4     MW 4504   2.618   7.764   9.876
 1127HO4     OW 4505   2.252   6.042   2.777
 1127HO4    HW1 4506   2.286   6.073   2.688
 1127HO4    HW2 4507   2.176   6.101   2.806
 1127HO4     MW 4508   2.252   6.042   2.777
 1128HO4     OW 4509   4.167   8.537  10.050
 1128HO4    HW1 4510   4.077   8.581  10.061
 1128HO4    HW2 4511   4.173   8.498   9.957
 1128HO4     MW 4512   4.167   8.537  10.050
 1129HO4     OW 4513   1.533   3.550   7.338
 1129HO4    HW1 4514   1.520   3.472   7.276
 1129HO4    HW2 4515   1.568   3.628   7.286
 1129HO4     MW 4516   1.533   3.550   7.338
 1130HO4     OW 4517   1.640   4.417   5.410
 1130HO4    HW1 4518   1.569   4.438   5.342
 1130HO4    HW2 4519   1.730   4.421   5.366
 1130HO4     MW 4520   1.640   4.417   5.410
 1131HO4     OW 4521   0.346   8.285   7.741
 1131HO4    HW1 4522   0.259   8.258   7.698
 1131HO4    HW2 4523   0.368   8.220   7.815
 1131HO4     MW 4524   0.346   8.285   7.741
 1132HO4     OW 4525   7.566   4.818   8.086
 1132HO4    HW1 4526   7.553   4.720   8.066
 1132HO4    HW2 4527   7.664   4.839   8.088
 1132HO4     MW 4528   7.566   4.818   8.086
 1133HO4     OW 4529  10.085   9.207   3.863
 1133HO4    HW1 4530  10.066   9.181   3.768
 1133HO4    HW2 4531  10.141   9.135   3.906
 1133HO4     MW 4532  10.085   9.207   3.863
 1134HO4     OW 4533   9.173   9.832   1.253
 1134HO4    HW1 4534   9.154   9.843   1.155
 1134HO4    HW2 4535   9.090   9.849   1.306
 1134HO4     MW 4536   9.173   9.832   1.253
 1135HO4     OW 4537   4.734   3.273   5.823
 1135HO4    HW1 4538   4.681   3.358   5.823
 1135HO4    HW2 4539   4.830   3.294   5.846
 1135HO4     MW 4540   4.734   3.273   5.823
 1136HO4     OW 4541   5.723  10.039   4.974
 1136HO4    HW1 4542   5.788  10.009   5.045
 1136HO4    HW2 4543   5.771  10.096   4.907
 1136HO4     MW 4544   5.723  10.039   4.974
 1137HO4     OW 4545   3.405   2.498   9.689
 1137HO4    HW1 4546   3.471   2.568   9.718
 1137HO4    HW2 4547   3.371   2.521   9.597
 1137HO4     MW 4548   3.405   2.498   9.689
 1138HO4     OW 4549   6.600   6.782   1.767
 1138HO4    HW1 4550   6.637   6.692   1.744
 1138HO4    HW2 4551   6.528   6.807   1.701
 1138HO4     MW 4552   6.600   6.782   1.767
 1139HO4     OW 4553  10.050   8.638   0.022
 1139HO4    HW1 4554   9.991   8.651   0.102
 1139HO4    HW2 4555  10.010   8.568  -0.038
 1139HO4     MW 4556  10.050   8.638   0.022
 1140HO4     OW 4557   7.444   9.553   9.275
 1140HO4    HW1 4558   7.496   9.582   9.356
 1140HO4    HW2 4559   7.369   9.618   9.259
 1140HO4     MW 4560   7.444   9.553   9.275
 1141HO4     OW 4561   9.487   2.048   3.746
 1141HO4    HW1 4562   9.433   2.038   3.830
 1141HO4    HW2 4563   9.583   2.022   3.765
 1141HO4     MW 4564   9.487   2.048   3.746
 1142HO4     OW 4565   9.536   9.918   5.420
 1142HO4    HW1 4566   9.599   9.885   5.492
 1142HO4    HW2 4567   9.554   9.868   5.335
 1142HO4     MW 4568   9.536   9.918   5.420
 1143HO4     OW 4569   0.384   4.182   3.197
 1143HO4    HW1 4570   0.286   4.161   3.198
 1143HO4    HW2 4571   0.412   4.209   3.105
 1143HO4     MW 4572   0.384   4.182   3.197
 1144HO4     OW 4573   3.223   3.895   4.142
 1144HO4    HW1 4574   3.283   3.911   4.221
 1144HO4    HW2 4575   3.273   3.916   4.057
 1144HO4     MW 4576   3.223   3.895   4.142
 1145HO4     OW 4577   0.182   4.174   3.015
 1145HO4    HW1 4578   0.262   4.224   3.047
 1145HO4    HW2 4579   0.190   4.158   2.916
 1145HO4     MW 4580   0.182   4.174   3.015
 1146HO4     OW 4581   7.032   4.137   4.341
 1146HO4    HW1 4582   7.042   4.103   4.246
 1146HO4    HW2 4583   6.961   4.083   4.388
 1146HO4     MW 4584   7.032   4.137   4.341
 1147HO4     OW 4585   0.190   4.154   2.600
 1147HO4    HW1 4586   0.118   4.092   2.566
 1147HO4    HW2 4587   0.280   4.110   2.588
 1147HO4     MW 4588   0.190   4.154   2.600
 1148HO4     OW 4589   0.740   6.638   9.375
 1148HO4    HW1 4590   0.719   6.620   9.279
 1148HO4    HW2 4591   0.836   6.615   9.394
 1148HO4     MW 4592   0.740   6.638   9.375
 1149HO4     OW 4593   9.356   4.739   8.089
 1149HO4    HW1 4594   9.399   4.659   8.132
 1149HO4    HW2 4595   9.411   4.769   8.011
 1149HO4     MW 4596   9.356   4.739   8.089
 1150HO4     OW 4597   1.009  10.178   1.509
 1150HO4    HW1 4598   1.056  10.103   1.555
 1150HO4    HW2 4599   1.042  10.186   1.414
 1150HO4     MW 4600   1.009  10.178   1.509
 1151HO4     OW 4601   0.381   3.771   2.198
 1151HO4    HW1 4602   0.301   3.780   2.137
 1151HO4    HW2 4603   0.398   3.674   2.216
 1151HO4     MW 4604   0.381   3.771   2.198
 1152HO4     OW 4605   5.498   1.164   8.186
 1152HO4    HW1 4606   5.510   1.260   8.160
 1152HO4    HW2 4607   5.511   1.106   8.106
 1152HO4     MW 4608   5.498   1.164   8.186
 1153HO4     OW 4609   5.994   4.939   8.546
 1153HO4    HW1 4610   6.010   4.990   8.631
 1153HO4    HW2 4611   6.005   5.001   8.467
 1153HO4     MW 4612   5.994   4.939   8.546
 1154HO4     OW 4613   3.968   8.893   9.756
 1154HO4    HW1 4614   3.938   8.887   9.852
 1154HO4    HW2 4615   3.909   8.957   9.706
 1154HO4     MW 4616   3.968   8.893   9.756
 1155HO4     OW 4617   2.040   8.021   7.312
 1155HO4    HW1 4618   2.015   7.967   7.231
 1155HO4    HW2 4619   2.044   8.118   7.288
 1155HO4     MW 4620   2.040   8.021   7.312
 1156HO4     OW 4621   6.249   7.162   0.893
 1156HO4    HW1 4622   6.187   7.241   0.889
 1156HO4    HW2 4623   6.327   7.184   0.951
 1156HO4     MW 4624   6.249   7.162   0.893
 1157HO4     OW 4625   3.823   0.450   8.305
 1157HO4    HW1 4626   3.913   0.461   8.263
 1157HO4    HW2 4627   3.824   0.493   8.396
 1157HO4     MW 4628   3.823   0.450   8.305
 1158HO4     OW 4629   4.089   4.712   1.321
 1158HO4    HW1 4630   3.997   4.720   1.282
 1158HO4    HW2 4631   4.157   4.743   1.254
 1158HO4     MW 4632   4.089   4.712   1.321
 1159HO4     OW 4633   1.929   8.242   6.964
 1159HO4    HW1 4634   1.831   8.224   6.960
 1159HO4    HW2 4635   1.980   8.162   6.930
 1159HO4     MW 4636   1.929   8.242   6.964
 1160HO4     OW 4637   6.945   7.874   4.665
 1160HO4    HW1 4638   6.890   7.897   4.745
 1160HO4    HW2 4639   7.021   7.814   4.692
 1160HO4     MW 4640   6.945   7.874   4.665
 1161HO4     OW 4641   6.400   1.501   0.112
 1161HO4    HW1 4642   6.421   1.575   0.049
 1161HO4    HW2 4643   6.356   1.538   0.195
 1161HO4     MW 4644   6.400   1.501   0.112
 1162HO4     OW 4645   5.799   4.202   5.211
 1162HO4    HW1 4646   5.782   4.122   5.269
 1162HO4    HW2 4647   5.784   4.178   5.115
 1162HO4     MW 4648   5.799   4.202   5.211
 1163HO4     OW 4649   1.789   5.058   8.223
 1163HO4    HW1 4650   1.773   5.120   8.300
 1163HO4    HW2 4651   1.763   5.103   8.137
 1163HO4     MW 4652   1.789   5.058   8.223
 1164HO4     OW 4653  10.122   8.597   1.033
 1164HO4    HW1 4654  10.050   8.615   0.965
 1164HO4    HW2 4655  10.190   8.671   1.030
 1164HO4     MW 4656  10.122   8.597   1.033
 1165HO4     OW 4657   4.410   6.023   3.166
 1165HO4    HW1 4658   4.456   5.965   3.233
 1165HO4    HW2 4659   4.315   5.992   3.154
 1165HO4     MW 4660   4.410   6.023   3.166
 1166HO4     OW 4661   5.522   8.371   8.203
 1166HO4    HW1 4662   5.503   8.382   8.105
 1166HO4    HW2 4663   5.527   8.461   8.246
 1166HO4     MW 4664   5.522   8.371   8.203
 1167HO4     OW 4665   6.424   8.277   3.483
 1167HO4    HW1 4666   6.357   8.268   3.408
 1167HO4    HW2 4667   6.379   8.255   3.570
 1167HO4     MW 4668   6.424   8.277   3.483
 1168HO4     OW 4669   4.407   1.666   3.124
 1168HO4    HW1 4670   4.364   1.612   3.052
 1168HO4    HW2 4671   4.350   1.665   3.206
 1168HO4     MW 4672   4.407   1.666   3.124
 1169HO4     OW 4673   7.727   0.239   8.470
 1169HO4    HW1 4674   7.780   0.307   8.521
 1169HO4    HW2 4675   7.768   0.227   8.379
 1169HO4     MW 4676   7.727   0.239   8.470
 1170HO4     OW 4677   1.111   3.705  10.015
 1170HO4    HW1 4678   1.171   3.684  10.092
 1170HO4    HW2 4679   1.065   3.621   9.985
 1170HO4     MW 4680   1.111   3.705  10.015
 1171HO4     OW 4681   7.360   8.874   2.654
 1171HO4    HW1 4682   7.390   8.886   2.559
 1171HO4    HW2 4683   7.347   8.776   2.673
 1171HO4     MW 4684   7.360   8.874   2.654
 1172HO4     OW 4685   1.158   2.758   0.812
 1172HO4    HW1 4686   1.214   2.742   0.894
 1172HO4    HW2 4687   1.076   2.699   0.816
 1172HO4     MW 4688   1.158   2.758   0.812
 1173HO4     OW 4689   9.633   7.223   3.106
 1173HO4    HW1 4690   9.591   7.187   3.190
 1173HO4    HW2 4691   9.572   7.203   3.028
 1173HO4     MW 4692   9.633   7.223   3.106
 1174HO4     OW 4693   5.574   0.614   7.027
 1174HO4    HW1 4694   5.516   0.635   7.106
 1174HO4    HW2 4695   5.519   0.616   6.943
 1174HO4     MW 4696   5.574   0.614   7.027
 1175HO4     OW 4697   2.348   5.250   7.467
 1175HO4    HW1 4698   2.355   5.323   7.399
 1175HO4    HW2 4699   2.300   5.284   7.549
 1175HO4     MW 4700   2.348   5.250   7.467
 1176HO4     OW 4701   8.352   1.002   5.986
 1176HO4    HW1 4702   8.420   0.946   6.033
 1176HO4    HW2 4703   8.343   0.971   5.891
 1176HO4     MW 4704   8.352   1.002   5.986
 1177HO4     OW 4705   3.756   2.561   7.191
 1177HO4    HW1 4706   3.769   2.653   7.151
 1177HO4    HW2 4707   3.819   2.496   7.146
 1177HO4     MW 4708   3.756   2.561   7.191
 1178HO4     OW 4709   5.147   1.200   2.231
 1178HO4    HW1 4710   5.090   1.119   2.214
 1178HO4    HW2 4711   5.169   1.205   2.329
 1178HO4     MW 4712   5.147   1.200   2.231
 1179HO4     OW 4713   1.833   2.997   4.848
 1179HO4    HW1 4714   1.869   3.030   4.936
 1179HO4    HW2 4715   1.888   3.036   4.773
 1179HO4     MW 4716   1.833   2.997   4.848
 1180HO4     OW 4717   9.302   9.907   7.654
 1180HO4    HW1 4718   9.271   9.925   7.748
 1180HO4    HW2 4719   9.232   9.939   7.590
 1180HO4     MW 4720   9.302   9.907   7.654
 1181HO4     OW 4721   0.404   0.007   0.646
 1181HO4    HW1 4722   0.420   0.090   0.593
 1181HO4    HW2 4723   0.491  -0.027   0.682
 1181HO4     MW 4724   0.404   0.007   0.646
 1182HO4     OW 4725   8.133  10.018   4.398
 1182HO4    HW1 4726   8.095   9.972   4.479
 1182HO4    HW2 4727   8.082   9.989   4.316
 1182HO4     MW 4728   8.133  10.018   4.398
 1183HO4     OW 4729   3.504   4.618   4.022
 1183HO4    HW1 4730   3.488   4.604   4.120
 1183HO4    HW2 4731   3.423   4.591   3.970
 1183HO4     MW 4732   3.504   4.618   4.022
 1184HO4     OW 4733   5.712   7.984   4.909
 1184HO4    HW1 4734   5.809   7.962   4.896
 1184HO4    HW2 4735   5.704   8.074   4.954
 1184HO4     MW 4736   5.712   7.984   4.909
 1185HO4     OW 4737   8.996   5.275   8.781
 1185HO4    HW1 4738   8.937   5.231   8.849
 1185HO4    HW2 4739   8.948   5.277   8.692
 1185HO4     MW 4740   8.996   5.275   8.781
 1186HO4     OW 4741   4.489   4.265   5.083
 1186HO4    HW1 4742   4.574   4.312   5.060
 1186HO4    HW2 4743   4.416   4.332   5.097
 1186HO4     MW 4744   4.489   4.265   5.083
 1187HO4     OW 4745   1.020   1.289   2.589
 1187HO4    HW1 4746   0.950   1.321   2.653
 1187HO4    HW2 4747   0.981   1.283   2.496
 1187HO4     MW 4748   1.020   1.289   2.589
 1188HO4     OW 4749   4.211   8.188   1.383
 1188HO4    HW1 4750   4.117   8.195   1.348
 1188HO4    HW2 4751   4.241   8.278   1.417
 1188HO4     MW 4752   4.211   8.188   1.383
 1189HO4     OW 4753   2.454   9.779   7.377
 1189HO4    HW1 4754   2.508   9.704   7.416
 1189HO4    HW2 4755   2.508   9.827   7.308
 1189HO4     MW 4756   2.454   9.779   7.377
 1190HO4     OW 4757   4.125   1.410   6.050
 1190HO4    HW1 4758   4.206   1.465   6.029
 1190HO4    HW2 4759   4.144   1.351   6.128
 1190HO4     MW 4760   4.125   1.410   6.050
 1191HO4     OW 4761   3.878  10.050   5.384
 1191HO4    HW1 4762   3.874  10.106   5.301
 1191HO4    HW2 4763   3.877  10.109   5.465
 1191HO4     MW 4764   3.878  10.050   5.384
 1192HO4     OW 4765   6.864   3.450   1.052
 1192HO4    HW1 4766   6.766   3.443   1.030
 1192HO4    HW2 4767   6.908   3.361   1.034
 1192HO4     MW 4768   6.864   3.450   1.052
 1193HO4     OW 4769   5.143   7.146   6.219
 1193HO4    HW1 4770   5.195   7.120   6.137
 1193HO4    HW2 4771   5.148   7.073   6.287
 1193HO4     MW 4772   5.143   7.146   6.219
 1194HO4     OW 4773   8.647   7.172   3.335
 1194HO4    HW1 4774   8.614   7.124   3.416
 1194HO4    HW2 4775   8.569   7.196   3.276
 1194HO4     MW 4776   8.647   7.172   3.335
 1195HO4     OW 4777   8.576   0.782   7.276
 1195HO4    HW1 4778   8.574   0.845   7.354
 1195HO4    HW2 4779   8.559   0.833   7.191
 1195HO4     MW 4780   8.576   0.782   7.276
 1196HO4     OW 4781   5.115   1.602   8.391
 1196HO4    HW1 4782   5.043   1.620   8.322
 1196HO4    HW2 4783   5.138   1.688   8.437
 1196HO4     MW 4784   5.115   1.602   8.391
 1197HO4     OW 4785   9.635   4.210   7.201
 1197HO4    HW1 4786   9.682   4.124   7.178
 1197HO4    HW2 4787   9.688   4.259   7.272
 1197HO4     MW 4788   9.635   4.210   7.201
 1198HO4     OW 4789   8.326   6.297   1.549
 1198HO4    HW1 4790   8.419   6.334   1.564
 1198HO4    HW2 4791   8.330   6.197   1.554
 1198HO4     MW 4792   8.326   6.297   1.549
 1199HO4     OW 4793   4.679   2.328   6.399
 1199HO4    HW1 4794   4.701   2.421   6.429
 1199HO4    HW2 4795   4.660   2.328   6.301
 1199HO4     MW 4796   4.679   2.328   6.399
 1200HO4     OW 4797   7.739   4.146   4.695
 1200HO4    HW1 4798   7.727   4.190   4.784
 1200HO4    HW2 4799   7.682   4.193   4.627
 1200HO4     MW 4800   7.739   4.146   4.695
 1201HO4     OW 4801   1.029   5.970   4.005
 1201HO4    HW1 4802   0.956   6.015   3.953
 1201HO4    HW2 4803   1.099   5.937   3.941
 1201HO4     MW 4804   1.029   5.970   4.005
 1202HO4     OW 4805   3.908   9.297   6.890
 1202HO4    HW1 4806   3.829   9.316   6.950
 1202HO4    HW2 4807   3.988   9.347   6.923
 1202HO4     MW 4808   3.908   9.297   6.890
 1203HO4     OW 4809   2.091   6.318   6.454
 1203HO4    HW1 4810   2.019   6.322   6.523
 1203HO4    HW2 4811   2.128   6.410   6.438
 1203HO4     MW 4812   2.091   6.318   6.454
 1204HO4     OW 4813   3.365   1.160   5.178
 1204HO4    HW1 4814   3.279   1.164   5.125
 1204HO4    HW2 4815   3.348   1.113   5.265
 1204HO4     MW 4816   3.365   1.160   5.178
 1205HO4     OW 4817   5.925   1.896   9.170
 1205HO4    HW1 4818   5.860   1.890   9.246
 1205HO4    HW2 4819   5.927   1.809   9.121
 1205HO4     MW 4820   5.925   1.896   9.170
 1206HO4     OW 4821   9.229   7.434   5.656
 1206HO4    HW1 4822   9.293   7.474   5.723
 1206HO4    HW2 4823   9.264   7.450   5.563
 1206HO4     MW 4824   9.229   7.434   5.656
 1207HO4     OW 4825   2.228   9.587   9.221
 1207HO4    HW1 4826   2.210   9.588   9.319
 1207HO4    HW2 4827   2.311   9.641   9.202
 1207HO4     MW 4828   2.228   9.587   9.221
 1208HO4     OW 4829   5.785   6.653   4.470
 1208HO4    HW1 4830   5.729   6.648   4.387
 1208HO4    HW2 4831   5.726   6.672   4.549
 1208HO4     MW 4832   5.785   6.653   4.470
 1209HO4     OW 4833   9.046   3.833   0.835
 1209HO4    HW1 4834   9.090   3.762   0.779
 1209HO4    HW2 4835   9.114   3.874   0.897
 1209HO4     MW 4836   9.046   3.833   0.835
 1210HO4     OW 4837   4.114   9.811   5.336
 1210HO4    HW1 4838   4.104   9.909   5.313
 1210HO4    HW2 4839   4.188   9.800   5.403
 1210HO4     MW 4840   4.114   9.811   5.336
 1211HO4     OW 4841   9.431   6.199   9.938
 1211HO4    HW1 4842   9.400   6.246   9.855
 1211HO4    HW2 4843   9.380   6.233  10.018
 1211HO4     MW 4844   9.431   6.199   9.938
 1212HO4     OW 4845   1.119   3.535   1.809
 1212HO4    HW1 4846   1.038   3.481   1.784
 1212HO4    HW2 4847   1.127   3.614   1.747
 1212HO4     MW 4848   1.119   3.535   1.809
 1213HO4     OW 4849   3.222   4.200   7.129
 1213HO4    HW1 4850   3.211   4.104   7.100
 1213HO4    HW2 4851   3.229   4.205   7.229
 1213HO4     MW 4852   3.222   4.200   7.129
 1214HO4     OW 4853   2.695   2.463   8.471
 1214HO4    HW1 4854   2.705   2.372   8.431
 1214HO4    HW2 4855   2.761   2.526   8.429
 1214HO4     MW 4856   2.695   2.463   8.471
 1215HO4     OW 4857   6.246   0.476   1.551
 1215HO4    HW1 4858   6.254   0.565   1.598
 1215HO4    HW2 4859   6.289   0.482   1.460
 1215HO4     MW 4860   6.246   0.476   1.551
 1216HO4     OW 4861   0.688   4.271   9.815
 1216HO4    HW1 4862   0.730   4.188   9.778
 1216HO4    HW2 4863   0.638   4.249   9.899
 1216HO4     MW 4864   0.688   4.271   9.815
 1217HO4     OW 4865   0.512   7.044   9.185
 1217HO4    HW1 4866   0.456   7.114   9.230
 1217HO4    HW2 4867   0.497   6.956   9.231
 1217HO4     MW 4868   0.512   7.044   9.185
 1218HO4     OW 4869   5.222   4.143   5.571
 1218HO4    HW1 4870   5.311   4.165   5.529
 1218HO4    HW2 4871   5.212   4.043   5.576
 1218HO4     MW 4872   5.222   4.143   5.571
 1219HO4     OW 4873   8.343   4.858   3.125
 1219HO4    HW1 4874   8.324   4.896   3.216
 1219HO4    HW2 4875   8.274   4.788   3.102
 1219HO4     MW 4876   8.343   4.858   3.125
 1220HO4     OW 4877   2.422   6.209   4.110
 1220HO4    HW1 4878   2.505   6.206   4.054
 1220HO4    HW2 4879   2.442   6.170   4.201
 1220HO4     MW 4880   2.422   6.209   4.110
 1221HO4     OW 4881   7.259   2.511   6.900
 1221HO4    HW1 4882   7.320   2.567   6.843
 1221HO4    HW2 4883   7.182   2.567   6.932
 1221HO4     MW 4884   7.259   2.511   6.900
 1222HO4     OW 4885   2.863   7.429   7.160
 1222HO4    HW1 4886   2.849   7.398   7.065
 1222HO4    HW2 4887   2.776   7.423   7.210
 1222HO4     MW 4888   2.863   7.429   7.160
 1223HO4     OW 4889   2.611   5.069   7.609
 1223HO4    HW1 4890   2.611   5.129   7.528
 1223HO4    HW2 4891   2.675   5.106   7.678
 1223HO4     MW 4892   2.611   5.069   7.609
 1224HO4     OW 4893   5.842  10.098   0.502
 1224HO4    HW1 4894   5.755  10.068   0.463
 1224HO4    HW2 4895   5.860  10.049   0.587
 1224HO4     MW 4896   5.842  10.098   0.502
 1225HO4     OW 4897   1.634   5.440   4.378
 1225HO4    HW1 4898   1.700   5.365   4.384
 1225HO4    HW2 4899   1.618   5.464   4.282
 1225HO4     MW 4900   1.634   5.440   4.378
 1226HO4     OW 4901   7.909   5.211  10.111
 1226HO4    HW1 4902   7.872   5.281  10.172
 1226HO4    HW2 4903   7.853   5.128  10.118
 1226HO4     MW 4904   7.909   5.211  10.111
 1227HO4     OW 4905   3.748   0.359   1.855
 1227HO4    HW1 4906   3.712   0.279   1.806
 1227HO4    HW2 4907   3.784   0.425   1.789
 1227HO4     MW 4908   3.748   0.359   1.855
 1228HO4     OW 4909   5.692   7.619   9.426
 1228HO4    HW1 4910   5.613   7.647   9.370
 1228HO4    HW2 4911   5.661   7.559   9.500
 1228HO4     MW 4912   5.692   7.619   9.426
 1229HO4     OW 4913   3.669   3.024   2.005
 1229HO4    HW1 4914   3.744   3.023   2.073
 1229HO4    HW2 4915   3.706   3.049   1.915
 1229HO4     MW 4916   3.669   3.024   2.005
 1230HO4     OW 4917   9.669   0.495   8.439
 1230HO4    HW1 4918   9.715   0.498   8.350
 1230HO4    HW2 4919   9.715   0.429   8.499
 1230HO4     MW 4920   9.669   0.495   8.439
 1231HO4     OW 4921   2.558   2.669   0.570
 1231HO4    HW1 4922   2.585   2.687   0.475
 1231HO4    HW2 4923   2.610   2.591   0.605
 1231HO4     MW 4924   2.558   2.669   0.570
 1232HO4     OW 4925   6.101   3.598   5.601
 1232HO4    HW1 4926   6.151   3.627   5.684
 1232HO4    HW2 4927   6.153   3.627   5.520
 1232HO4     MW 4928   6.101   3.598   5.601
 1233HO4     OW 4929   6.407   7.881   9.511
 1233HO4    HW1 4930   6.392   7.810   9.581
 1233HO4    HW2 4931   6.481   7.853   9.450
 1233HO4     MW 4932   6.407   7.881   9.511
 1234HO4     OW 4933   7.695   8.618   7.008
 1234HO4    HW1 4934   7.728   8.690   7.071
 1234HO4    HW2 4935   7.709   8.648   6.913
 1234HO4     MW 4936   7.695   8.618   7.008
 1235HO4     OW 4937   8.123   8.046   7.834
 1235HO4    HW1 4938   8.087   8.139   7.827
 1235HO4    HW2 4939   8.210   8.047   7.886
 1235HO4     MW 4940   8.123   8.046   7.834
 1236HO4     OW 4941   6.080   4.496   9.424
 1236HO4    HW1 4942   6.073   4.494   9.524
 1236HO4    HW2 4943   6.047   4.409   9.386
 1236HO4     MW 4944   6.080   4.496   9.424
 1237HO4     OW 4945   7.225   5.441   1.729
 1237HO4    HW1 4946   7.130   5.459   1.699
 1237HO4    HW2 4947   7.247   5.501   1.806
 1237HO4     MW 4948   7.225   5.441   1.729
 1238HO4     OW 4949   2.468   6.553   5.577
 1238HO4    HW1 4950   2.436   6.469   5.533
 1238HO4    HW2 4951   2.537   6.597   5.518
 1238HO4     MW 4952   2.468   6.553   5.577
 1239HO4     OW 4953   4.483   4.681   4.437
 1239HO4    HW1 4954   4.547   4.688   4.513
 1239HO4    HW2 4955   4.424   4.763   4.434
 1239HO4     MW 4956   4.483   4.681   4.437
 1240HO4     OW 4957   0.274   7.164   1.482
 1240HO4    HW1 4958   0.271   7.260   1.510
 1240HO4    HW2 4959   0.290   7.158   1.383
 1240HO4     MW 4960   0.274   7.164   1.482
 1241HO4     OW 4961   9.602   8.380   6.100
 1241HO4    HW1 4962   9.578   8.451   6.034
 1241HO4    HW2 4963   9.687   8.335   6.071
 1241HO4     MW 4964   9.602   8.380   6.100
 1242HO4     OW 4965   2.918   5.407   0.533
 1242HO4    HW1 4966   2.979   5.327   0.521
 1242HO4    HW2 4967   2.973   5.491   0.527
 1242HO4     MW 4968   2.918   5.407   0.533
 1243HO4     OW 4969   1.588   4.511   2.018
 1243HO4    HW1 4970   1.669   4.455   2.038
 1243HO4    HW2 4971   1.539   4.531   2.103
 1243HO4     MW 4972   1.588   4.511   2.018
 1244HO4     OW 4973   8.186   9.799   9.058
 1244HO4    HW1 4974   8.156   9.703   9.065
 1244HO4    HW2 4975   8.121   9.850   9.001
 1244HO4     MW 4976   8.186   9.799   9.058
 1245HO4     OW 4977   3.542   5.866   4.612
 1245HO4    HW1 4978   3.532   5.913   4.700
 1245HO4    HW2 4979   3.611   5.793   4.620
 1245HO4     MW 4980   3.542   5.866   4.612
 1246HO4     OW 4981   6.261   3.033   4.814
 1246HO4    HW1 4982   6.309   3.012   4.728
 1246HO4    HW2 4983   6.325   3.022   4.891
 1246HO4     MW 4984   6.261   3.033   4.814
 1247HO4     OW 4985   0.277   1.166   9.924
 1247HO4    HW1 4986   0.197   1.210   9.881
 1247HO4    HW2 4987   0.339   1.132   9.853
 1247HO4     MW 4988   0.277   1.166   9.924
 1248HO4     OW 4989   7.216   2.681   8.600
 1248HO4    HW1 4990   7.157   2.761   8.617
 1248HO4    HW2 4991   7.284   2.673   8.673
 1248HO4     MW 4992   7.216   2.681   8.600
 1249HO4     OW 4993   9.709   1.414   5.702
 1249HO4    HW1 4994   9.798   1.440   5.664
 1249HO4    HW2 4995   9.639   1.423   5.630
 1249HO4     MW 4996   9.709   1.414   5.702
 1250HO4     OW 4997   0.660   3.590   7.277
 1250HO4    HW1 4998   0.760   3.574   7.280
 1250HO4    HW2 4999   0.632   3.602   7.181
 1250HO4     MW 5000   0.660   3.590   7.277
 1251HO4     OW 5001   9.553   6.296   8.018
 1251HO4    HW1 5002   9.580   6.387   7.985
 1251HO4    HW2 5003   9.633   6.250   8.057
 1251HO4     MW 5004   9.553   6.296   8.018
 1252HO4     OW 5005   6.897   0.421  10.014
 1252HO4    HW1 5006   6.845   0.455  10.093
 1252HO4    HW2 5007   6.846   0.347   9.969
 1252HO4     MW 5008   6.897   0.421  10.014
 1253HO4     OW 5009   0.890   3.689  10.116
 1253HO4    HW1 5010   0.853   3.734  10.198
 1253HO4    HW2 5011   0.853   3.735  10.034
 1253HO4     MW 5012   0.890   3.689  10.116
 1254HO4     OW 5013   4.564   4.175   7.805
 1254HO4    HW1 5014   4.583   4.191   7.708
 1254HO4    HW2 5015   4.613   4.092   7.835
 1254HO4     MW 5016   4.564   4.175   7.805
 1255HO4     OW 5017   9.197   7.019   6.769
 1255HO4    HW1 5018   9.264   6.996   6.698
 1255HO4    HW2 5019   9.106   6.984   6.742
 1255HO4     MW 5020   9.197   7.019   6.769
 1256HO4     OW 5021   6.833   0.838   6.566
 1256HO4    HW1 5022   6.931   0.817   6.559
 1256HO4    HW2 5023   6.805   0.894   6.488
 1256HO4     MW 5024   6.833   0.838   6.566
 1257HO4     OW 5025   3.929   8.688   8.951
 1257HO4    HW1 5026   3.980   8.704   8.866
 1257HO4    HW2 5027   3.832   8.712   8.936
 1257HO4     MW 5028   3.929   8.688   8.951
 1258HO4     OW 5029   0.226   4.012   6.714
 1258HO4    HW1 5030   0.221   4.070   6.632
 1258HO4    HW2 5031   0.220   4.069   6.796
 1258HO4     MW 5032   0.226   4.012   6.714
 1259HO4     OW 5033   1.273   4.411   9.803
 1259HO4    HW1 5034   1.208   4.374   9.871
 1259HO4    HW2 5035   1.262   4.361   9.716
 1259HO4     MW 5036   1.273   4.411   9.803
 1260HO4     OW 5037   9.426   0.227   2.390
 1260HO4    HW1 5038   9.463   0.218   2.297
 1260HO4    HW2 5039   9.436   0.140   2.439
 1260HO4     MW 5040   9.426   0.227   2.390
 1261HO4     OW 5041   7.066   5.210   0.706
 1261HO4    HW1 5042   7.151   5.156   0.698
 1261HO4    HW2 5043   7.089   5.308   0.707
 1261HO4     MW 5044   7.066   5.210   0.706
 1262HO4     OW 5045   6.363   4.154   7.056
 1262HO4    HW1 5046   6.334   4.245   7.025
 1262HO4    HW2 5047   6.292   4.115   7.116
 1262HO4     MW 5048   6.363   4.154   7.056
 1263HO4     OW 5049   7.058   3.455   0.576
 1263HO4    HW1 5050   6.983   3.477   0.639
 1263HO4    HW2 5051   7.141   3.505   0.603
 1263HO4     MW 5052   7.058   3.455   0.576
 1264HO4     OW 5053   0.178   6.429   6.029
 1264HO4    HW1 5054   0.183   6.359   6.101
 1264HO4    HW2 5055   0.127   6.392   5.951
 1264HO4     MW 5056   0.178   6.429   6.029
 1265HO4     OW 5057   5.411   9.011   2.610
 1265HO4    HW1 5058   5.450   9.103   2.619
 1265HO4    HW2 5059   5.455   8.950   2.677
 1265HO4     MW 5060   5.411   9.011   2.610
 1266HO4     OW 5061   5.598   8.204   5.920
 1266HO4    HW1 5062   5.688   8.248   5.927
 1266HO4    HW2 5063   5.610   8.106   5.905
 1266HO4     MW 5064   5.598   8.204   5.920
 1267HO4     OW 5065   6.358   6.811   6.147
 1267HO4    HW1 5066   6.366   6.877   6.072
 1267HO4    HW2 5067   6.364   6.859   6.235
 1267HO4     MW 5068   6.358   6.811   6.147
 1268HO4     OW 5069   3.824   6.458   8.798
 1268HO4    HW1 5070   3.882   6.409   8.733
 1268HO4    HW2 5071   3.729   6.428   8.787
 1268HO4     MW 5072   3.824   6.458   8.798
 1269HO4     OW 5073   6.212   5.889   9.944
 1269HO4    HW1 5074   6.303   5.849   9.930
 1269HO4    HW2 5075   6.192   5.893  10.042
 1269HO4     MW 5076   6.212   5.889   9.944
 1270HO4     OW 5077   1.937   3.104   4.222
 1270HO4    HW1 5078   1.879   3.080   4.144
 1270HO4    HW2 5079   1.918   3.041   4.298
 1270HO4     MW 5080   1.937   3.104   4.222
 1271HO4     OW 5081   2.825   9.463   0.891
 1271HO4    HW1 5082   2.773   9.490   0.972
 1271HO4    HW2 5083   2.771   9.482   0.809
 1271HO4     MW 5084   2.825   9.463   0.891
 1272HO4     OW 5085   7.822   0.907   3.067
 1272HO4    HW1 5086   7.831   0.955   2.979
 1272HO4    HW2 5087   7.885   0.946   3.134
 1272HO4     MW 5088   7.822   0.907   3.067
 1273HO4     OW 5089   3.430   3.475   7.914
 1273HO4    HW1 5090   3.444   3.497   7.817
 1273HO4    HW2 5091   3.497   3.406   7.943
 1273HO4     MW 5092   3.430   3.475   7.914
 1274HO4     OW 5093   3.844   3.351   3.261
 1274HO4    HW1 5094   3.820   3.254   3.254
 1274HO4    HW2 5095   3.766   3.402   3.298
 1274HO4     MW 5096   3.844   3.351   3.261
 1275HO4     OW 5097   6.171  10.145  10.116
 1275HO4    HW1 5098   6.221  10.114  10.198
 1275HO4    HW2 5099   6.073  10.125  10.127
 1275HO4     MW 5100   6.171  10.145  10.116
 1276HO4     OW 5101   4.924   4.616   7.503
 1276HO4    HW1 5102   4.892   4.576   7.589
 1276HO4    HW2 5103   4.871   4.578   7.427
 1276HO4     MW 5104   4.924   4.616   7.503
 1277HO4     OW 5105   3.826   7.213   6.405
 1277HO4    HW1 5106   3.772   7.148   6.350
 1277HO4    HW2 5107   3.921   7.214   6.373
 1277HO4     MW 5108   3.826   7.213   6.405
 1278HO4     OW 5109   9.125   8.722   0.706
 1278HO4    HW1 5110   9.038   8.751   0.748
 1278HO4    HW2 5111   9.187   8.801   0.698
 1278HO4     MW 5112   9.125   8.722   0.706
 1279HO4     OW 5113   9.589   4.714   7.325
 1279HO4    HW1 5114   9.571   4.802   7.280
 1279HO4    HW2 5115   9.568   4.722   7.423
 1279HO4     MW 5116   9.589   4.714   7.325
 1280HO4     OW 5117   2.819   6.422   4.628
 1280HO4    HW1 5118   2.831   6.333   4.673
 1280HO4    HW2 5119   2.818   6.410   4.528
 1280HO4     MW 5120   2.819   6.422   4.628
 1281HO4     OW 5121   3.305   0.792   3.735
 1281HO4    HW1 5122   3.387   0.798   3.676
 1281HO4    HW2 5123   3.259   0.881   3.737
 1281HO4     MW 5124   3.305   0.792   3.735
 1282HO4     OW 5125   7.039   5.281   1.843
 1282HO4    HW1 5126   7.074   5.188   1.852
 1282HO4    HW2 5127   7.045   5.310   1.747
 1282HO4     MW 5128   7.039   5.281   1.843
 1283HO4     OW 5129   7.718   9.014   4.570
 1283HO4    HW1 5130   7.636   9.053   4.613
 1283HO4    HW2 5131   7.692   8.933   4.516
 1283HO4     MW 5132   7.718   9.014   4.570
 1284HO4     OW 5133   7.113   4.787   3.405
 1284HO4    HW1 5134   7.104   4.717   3.477
 1284HO4    HW2 5135   7.084   4.748   3.317
 1284HO4     MW 5136   7.113   4.787   3.405
 1285HO4     OW 5137   4.786   2.741   4.877
 1285HO4    HW1 5138   4.799   2.706   4.970
 1285HO4    HW2 5139   4.806   2.840   4.876
 1285HO4     MW 5140   4.786   2.741   4.877
 1286HO4     OW 5141   4.948   9.965   7.604
 1286HO4    HW1 5142   4.932   9.933   7.510
 1286HO4    HW2 5143   4.929   9.891   7.668
 1286HO4     MW 5144   4.948   9.965   7.604
 1287HO4     OW 5145   2.437   2.761   5.504
 1287HO4    HW1 5146   2.501   2.735   5.432
 1287HO4    HW2 5147   2.428   2.685   5.570
 1287HO4     MW 5148   2.437   2.761   5.504
 1288HO4     OW 5149   6.495   9.226   0.632
 1288HO4    HW1 5150   6.528   9.210   0.539
 1288HO4    HW2 5151   6.397   9.247   0.630
 1288HO4     MW 5152   6.495   9.226   0.632
 1289HO4     OW 5153   3.204   9.678   3.330
 1289HO4    HW1 5154   3.268   9.729   3.270
 1289HO4    HW2 5155   3.253   9.647   3.412
 1289HO4     MW 5156   3.204   9.678   3.330
 1290HO4     OW 5157   8.269   1.399   5.155
 1290HO4    HW1 5158   8.329   1.411   5.235
 1290HO4    HW2 5159   8.321   1.412   5.071
 1290HO4     MW 5160   8.269   1.399   5.155
 1291HO4     OW 5161   0.580   6.296   5.017
 1291HO4    HW1 5162   0.537   6.260   5.100
 1291HO4    HW2 5163   0.569   6.230   4.942
 1291HO4     MW 5164   0.580   6.296   5.017
 1292HO4     OW 5165   9.504   0.620   7.742
 1292HO4    HW1 5166   9.462   0.653   7.657
 1292HO4    HW2 5167   9.604   0.621   7.733
 1292HO4     MW 5168   9.504   0.620   7.742
 1293HO4     OW 5169   2.860   5.080   2.199
 1293HO4    HW1 5170   2.918   5.056   2.278
 1293HO4    HW2 5171   2.907   5.149   2.143
 1293HO4     MW 5172   2.860   5.080   2.199
 1294HO4     OW 5173   7.839   8.591   0.235
 1294HO4    HW1 5174   7.842   8.536   0.319
 1294HO4    HW2 5175   7.803   8.535   0.160
 1294HO4     MW 5176   7.839   8.591   0.235
 1295HO4     OW 5177   2.935   0.279   8.628
 1295HO4    HW1 5178   2.945   0.320   8.720
 1295HO4    HW2 5179   2.974   0.342   8.560
 1295HO4     MW 5180   2.935   0.279   8.628
 1296HO4     OW 5181   5.330   2.068   7.119
 1296HO4    HW1 5182   5.247   2.017   7.142
 1296HO4    HW2 5183   5.341   2.145   7.183
 1296HO4     MW 5184   5.330   2.068   7.119
 1297HO4     OW 5185   2.868   6.850   2.770
 1297HO4    HW1 5186   2.885   6.848   2.869
 1297HO4    HW2 5187   2.954   6.836   2.721
 1297HO4     MW 5188   2.868   6.850   2.770
 1298HO4     OW 5189   7.356   3.639   6.381
 1298HO4    HW1 5190   7.376   3.587   6.297
 1298HO4    HW2 5191   7.372   3.580   6.461
 1298HO4     MW 5192   7.356   3.639   6.381
 1299HO4     OW 5193   8.997   8.965   3.562
 1299HO4    HW1 5194   8.904   8.934   3.538
 1299HO4    HW2 5195   9.013   9.055   3.521
 1299HO4     MW 5196   8.997   8.965   3.562
 1300HO4     OW 5197   8.645   0.137   9.795
 1300HO4    HW1 5198   8.657   0.179   9.886
 1300HO4    HW2 5199   8.548   0.143   9.769
 1300HO4     MW 5200   8.645   0.137   9.795
 1301HO4     OW 5201   6.870   0.961   0.746
 1301HO4    HW1 5202   6.852   0.916   0.834
 1301HO4    HW2 5203   6.897   1.056   0.761
 1301HO4     MW 5204   6.870   0.961   0.746
 1302HO4     OW 5205   6.910   4.577   7.675
 1302HO4    HW1 5206   6.881   4.657   7.621
 1302HO4    HW2 5207   6.907   4.600   7.773
 1302HO4     MW 5208   6.910   4.577   7.675
 1303HO4     OW 5209   5.739  10.055   7.144
 1303HO4    HW1 5210   5.779  10.045   7.236
 1303HO4    HW2 5211   5.655  10.001   7.138
 1303HO4     MW 5212   5.739  10.055   7.144
 1304HO4     OW 5213   4.244   3.613  10.126
 1304HO4    HW1 5214   4.277   3.610  10.221
 1304HO4    HW2 5215   4.321   3.593  10.064
 1304HO4     MW 5216   4.244   3.613  10.126
 1305HO4     OW 5217   9.697   1.970   2.223
 1305HO4    HW1 5218   9.675   1.888   2.277
 1305HO4    HW2 5219   9.705   1.945   2.126
 1305HO4     MW 5220   9.697   1.970   2.223
 1306HO4     OW 5221   8.816   4.328   2.689
 1306HO4    HW1 5222   8.749   4.374   2.748
 1306HO4    HW2 5223   8.909   4.347   2.722
 1306HO4     MW 5224   8.816   4.328   2.689
 1307HO4     OW 5225   1.478   3.258   8.141
 1307HO4    HW1 5226   1.418   3.302   8.208
 1307HO4    HW2 5227   1.485   3.317   8.059
 1307HO4     MW 5228   1.478   3.258   8.141
 1308HO4     OW 5229   4.329   1.994   3.027
 1308HO4    HW1 5230   4.330   2.042   2.939
 1308HO4    HW2 5231   4.236   1.995   3.065
 1308HO4     MW 5232   4.329   1.994   3.027
 1309HO4     OW 5233   9.891   6.094   3.369
 1309HO4    HW1 5234   9.880   6.194   3.380
 1309HO4    HW2 5235   9.803   6.053   3.344
 1309HO4     MW 5236   9.891   6.094   3.369
 1310HO4     OW 5237   8.219   1.305   2.236
 1310HO4    HW1 5238   8.165   1.259   2.308
 1310HO4    HW2 5239   8.223   1.403   2.255
 1310HO4     MW 5240   8.219   1.305   2.236
 1311HO4     OW 5241   8.679   6.144   5.196
 1311HO4    HW1 5242   8.771   6.154   5.236
 1311HO4    HW2 5243   8.629   6.073   5.246
 1311HO4     MW 5244   8.679   6.144   5.196
 1312HO4     OW 5245   9.983   0.536   6.318
 1312HO4    HW1 5246  10.032   0.449   6.332
 1312HO4    HW2 5247  10.049   0.608   6.293
 1312HO4     MW 5248   9.983   0.536   6.318
 1313HO4     OW 5249   1.617   4.087   7.189
 1313HO4    HW1 5250   1.626   4.055   7.095
 1313HO4    HW2 5251   1.680   4.037   7.248
 1313HO4     MW 5252   1.617   4.087   7.189
 1314HO4     OW 5253   6.173   2.668   6.055
 1314HO4    HW1 5254   6.167   2.677   5.955
 1314HO4    HW2 5255   6.206   2.754   6.094
 1314HO4     MW 5256   6.173   2.668   6.055
 1315HO4     OW 5257   4.424   8.695   6.008
 1315HO4    HW1 5258   4.414   8.720   5.911
 1315HO4    HW2 5259   4.425   8.778   6.064
 1315HO4     MW 5260   4.424   8.695   6.008
 1316HO4     OW 5261   5.503   1.605   5.959
 1316HO4    HW1 5262   5.510   1.607   5.859
 1316HO4    HW2 5263   5.583   1.557   5.997
 1316HO4     MW 5264   5.503   1.605   5.959
 1317HO4     OW 5265   0.719   1.710   8.020
 1317HO4    HW1 5266   0.669   1.721   7.934
 1317HO4    HW2 5267   0.654   1.711   8.096
 1317HO4     MW 5268   0.719   1.710   8.020
 1318HO4     OW 5269   1.125   4.471   0.596
 1318HO4    HW1 5270   1.151   4.481   0.500
 1318HO4    HW2 5271   1.194   4.517   0.654
 1318HO4     MW 5272   1.125   4.471   0.596
 1319HO4     OW 5273   5.702   7.981   3.443
 1319HO4    HW1 5274   5.709   8.053   3.374
 1319HO4    HW2 5275   5.725   7.892   3.402
 1319HO4     MW 5276   5.702   7.981   3.443
 1320HO4     OW 5277   7.865   6.532   2.468
 1320HO4    HW1 5278   7.963   6.552   2.458
 1320HO4    HW2 5279   7.825   6.516   2.378
 1320HO4     MW 5280   7.865   6.532   2.468
 1321HO4     OW 5281   4.479   1.563   0.219
 1321HO4    HW1 5282   4.396   1.584   0.272
 1321HO4    HW2 5283   4.515   1.648   0.179
 1321HO4     MW 5284   4.479   1.563   0.219
 1322HO4     OW 5285   9.935   7.005   6.718
 1322HO4    HW1 5286   9.855   7.017   6.777
 1322HO4    HW2 5287   9.911   7.028   6.623
 1322HO4     MW 5288   9.935   7.005   6.718
 1323HO4     OW 5289   5.835   2.716   6.248
 1323HO4    HW1 5290   5.838   2.632   6.302
 1323HO4    HW2 5291   5.747   2.720   6.198
 1323HO4     MW 5292   5.835   2.716   6.248
 1324HO4     OW 5293   9.460   9.789   2.753
 1324HO4    HW1 5294   9.520   9.786   2.673
 1324HO4    HW2 5295   9.516   9.783   2.837
 1324HO4     MW 5296   9.460   9.789   2.753
 1325HO4     OW 5297   4.584   4.616   6.961
 1325HO4    HW1 5298   4.646   4.561   7.018
 1325HO4    HW2 5299   4.540   4.686   7.018
 1325HO4     MW 5300   4.584   4.616   6.961
 1326HO4     OW 5301   7.690   0.205   3.493
 1326HO4    HW1 5302   7.768   0.266   3.477
 1326HO4    HW2 5303   7.708   0.149   3.575
 1326HO4     MW 5304   7.690   0.205   3.493
 1327HO4     OW 5305   9.039   1.603   5.249
 1327HO4    HW1 5306   9.075   1.676   5.190
 1327HO4    HW2 5307   9.083   1.608   5.339
 1327HO4     MW 5308   9.039   1.603   5.249
 1328HO4     OW 5309   6.023   0.621   8.447
 1328HO4    HW1 5310   6.033   0.532   8.402
 1328HO4    HW2 5311   6.023   0.608   8.547
 1328HO4     MW 5312   6.023   0.621   8.447
 1329HO4     OW 5313   9.235   4.528   1.289
 1329HO4    HW1 5314   9.258   4.586   1.367
 1329HO4    HW2 5315   9.265   4.434   1.307
 1329HO4     MW 5316   9.235   4.528   1.289
 1330HO4     OW 5317   7.562   6.393   4.945
 1330HO4    HW1 5318   7.478   6.356   4.904
 1330HO4    HW2 5319   7.543   6.419   5.040
 1330HO4     MW 5320   7.562   6.393   4.945
 1331HO4     OW 5321   1.456   1.241   2.363
 1331HO4    HW1 5322   1.383   1.227   2.431
 1331HO4    HW2 5323   1.415   1.264   2.274
 1331HO4     MW 5324   1.456   1.241   2.363
 1332HO4     OW 5325   5.618   1.152   6.534
 1332HO4    HW1 5326   5.574   1.175   6.621
 1332HO4    HW2 5327   5.609   1.230   6.471
 1332HO4     MW 5328   5.618   1.152   6.534
 1333HO4     OW 5329  10.008   4.034   1.555
 1333HO4    HW1 5330   9.999   4.122   1.506
 1333HO4    HW2 5331   9.938   4.028   1.626
 1333HO4     MW 5332  10.008   4.034   1.555
 1334HO4     OW 5333   8.664   0.639   3.645
 1334HO4    HW1 5334   8.754   0.684   3.647
 1334HO4    HW2 5335   8.643   0.604   3.737
 1334HO4     MW 5336   8.664   0.639   3.645
 1335HO4     OW 5337   0.246   1.029   1.302
 1335HO4    HW1 5338   0.160   1.080   1.303
 1335HO4    HW2 5339   0.286   1.030   1.394
 1335HO4     MW 5340   0.246   1.029   1.302
 1336HO4     OW 5341   5.097   8.631   0.333
 1336HO4    HW1 5342   5.119   8.722   0.370
 1336HO4    HW2 5343   5.040   8.581   0.399
 1336HO4     MW 5344   5.097   8.631   0.333
 1337HO4     OW 5345   6.711   4.528   7.470
 1337HO4    HW1 5346   6.646   4.570   7.533
 1337HO4    HW2 5347   6.669   4.447   7.427
 1337HO4     MW 5348   6.711   4.528   7.470
 1338HO4     OW 5349   0.335   8.348   7.448
 1338HO4    HW1 5350   0.240   8.321   7.427
 1338HO4    HW2 5351   0.343   8.366   7.547
 1338HO4     MW 5352   0.335   8.348   7.448
 1339HO4     OW 5353   0.877   9.485  10.003
 1339HO4    HW1 5354   0.918   9.442   9.922
 1339HO4    HW2 5355   0.918   9.445  10.086
 1339HO4     MW 5356   0.877   9.485  10.003
 1340HO4     OW 5357   5.420   5.305   1.925
 1340HO4    HW1 5358   5.490   5.301   1.998
 1340HO4    HW2 5359   5.443   5.378   1.861
 1340HO4     MW 5360   5.420   5.305   1.925
 1341HO4     OW 5361   1.876   9.886   4.507
 1341HO4    HW1 5362   1.960   9.885   4.451
 1341HO4    HW2 5363   1.844   9.792   4.520
 1341HO4     MW 5364   1.876   9.886   4.507
 1342HO4     OW 5365   5.188   8.652   2.578
 1342HO4    HW1 5366   5.246   8.655   2.659
 1342HO4    HW2 5367   5.245   8.656   2.495
 1342HO4     MW 5368   5.188   8.652   2.578
 1343HO4     OW 5369   1.107   9.536   9.477
 1343HO4    HW1 5370   1.158   9.525   9.563
 1343HO4    HW2 5371   1.169   9.529   9.399
 1343HO4     MW 5372   1.107   9.536   9.477
 1344HO4     OW 5373   7.042   8.972   8.330
 1344HO4    HW1 5374   6.961   8.924   8.365
 1344HO4    HW2 5375   7.013   9.045   8.267
 1344HO4     MW 5376   7.042   8.972   8.330
 1345HO4     OW 5377   6.173   9.594   2.535
 1345HO4    HW1 5378   6.098   9.654   2.504
 1345HO4    HW2 5379   6.216   9.552   2.455
 1345HO4     MW 5380   6.173   9.594   2.535
 1346HO4     OW 5381   5.292   8.047   7.968
 1346HO4    HW1 5382   5.224   8.026   7.897
 1346HO4    HW2 5383   5.259   8.016   8.057
 1346HO4     MW 5384   5.292   8.047   7.968
 1347HO4     OW 5385   1.277   6.277   4.175
 1347HO4    HW1 5386   1.376   6.263   4.187
 1347HO4    HW2 5387   1.231   6.268   4.263
 1347HO4     MW 5388   1.277   6.277   4.175
 1348HO4     OW 5389   6.610   6.298   0.194
 1348HO4    HW1 5390   6.638   6.323   0.101
 1348HO4    HW2 5391   6.593   6.382   0.247
 1348HO4     MW 5392   6.610   6.298   0.194
 1349HO4     OW 5393   0.399   7.538   7.400
 1349HO4    HW1 5394   0.365   7.500   7.314
 1349HO4    HW2 5395   0.381   7.474   7.475
 1349HO4     MW 5396   0.399   7.538   7.400
 1350HO4     OW 5397   4.742   1.262   5.550
 1350HO4    HW1 5398   4.745   1.301   5.458
 1350HO4    HW2 5399   4.660   1.295   5.598
 1350HO4     MW 5400   4.742   1.262   5.550
 1351HO4     OW 5401   8.995   3.224   3.332
 1351HO4    HW1 5402   9.072   3.221   3.268
 1351HO4    HW2 5403   8.940   3.306   3.316
 1351HO4     MW 5404   8.995   3.224   3.332
 1352HO4     OW 5405   4.152   7.674   6.609
 1352HO4    HW1 5406   4.199   7.727   6.680
 1352HO4    HW2 5407   4.207   7.675   6.525
 1352HO4     MW 5408   4.152   7.674   6.609
 1353HO4     OW 5409   5.041   1.650   3.090
 1353HO4    HW1 5410   5.098   1.567   3.087
 1353HO4    HW2 5411   5.021   1.674   3.185
 1353HO4     MW 5412   5.041   1.650   3.090
 1354HO4     OW 5413   0.438   6.747   9.623
 1354HO4    HW1 5414   0.355   6.725   9.674
 1354HO4    HW2 5415   0.436   6.701   9.534
 1354HO4     MW 5416   0.438   6.747   9.623
 1355HO4     OW 5417   4.860   3.490   3.090
 1355HO4    HW1 5418   4.789   3.491   3.019
 1355HO4    HW2 5419   4.827   3.538   3.171
 1355HO4     MW 5420   4.860   3.490   3.090
 1356HO4     OW 5421   8.620   1.399   4.106
 1356HO4    HW1 5422   8.701   1.350   4.140
 1356HO4    HW2 5423   8.647   1.455   4.027
 1356HO4     MW 5424   8.620   1.399   4.106
 1357HO4     OW 5425   4.017   1.618   5.099
 1357HO4    HW1 5426   4.062   1.703   5.070
 1357HO4    HW2 5427   4.059   1.540   5.052
 1357HO4     MW 5428   4.017   1.618   5.099
 1358HO4     OW 5429   5.072   7.112   4.842
 1358HO4    HW1 5430   5.070   7.025   4.893
 1358HO4    HW2 5431   5.116   7.183   4.898
 1358HO4     MW 5432   5.072   7.112   4.842
 1359HO4     OW 5433   9.272   2.114   5.034
 1359HO4    HW1 5434   9.369   2.138   5.033
 1359HO4    HW2 5435   9.232   2.142   5.122
 1359HO4     MW 5436   9.272   2.114   5.034
 1360HO4     OW 5437   3.483   8.066   1.917
 1360HO4    HW1 5438   3.423   8.032   1.844
 1360HO4    HW2 5439   3.427   8.103   1.991
 1360HO4     MW 5440   3.483   8.066   1.917
 1361HO4     OW 5441   3.621   0.096   8.066
 1361HO4    HW1 5442   3.679   0.155   8.123
 1361HO4    HW2 5443   3.668   0.076   7.980
 1361HO4     MW 5444   3.621   0.096   8.066
 1362HO4     OW 5445   1.615   2.959   5.596
 1362HO4    HW1 5446   1.677   2.993   5.524
 1362HO4    HW2 5447   1.649   2.987   5.686
 1362HO4     MW 5448   1.615   2.959   5.596
 1363HO4     OW 5449   5.964   2.430   2.916
 1363HO4    HW1 5450   6.021   2.431   2.833
 1363HO4    HW2 5451   6.012   2.480   2.989
 1363HO4     MW 5452   5.964   2.430   2.916
 1364HO4     OW 5453   7.937   2.975   2.502
 1364HO4    HW1 5454   7.876   2.898   2.483
 1364HO4    HW2 5455   7.986   3.000   2.419
 1364HO4     MW 5456   7.937   2.975   2.502
 1365HO4     OW 5457   2.749   9.889   7.650
 1365HO4    HW1 5458   2.735   9.809   7.709
 1365HO4    HW2 5459   2.705   9.874   7.561
 1365HO4     MW 5460   2.749   9.889   7.650
 1366HO4     OW 5461   7.756   5.386   8.075
 1366HO4    HW1 5462   7.786   5.299   8.035
 1366HO4    HW2 5463   7.818   5.412   8.150
 1366HO4     MW 5464   7.756   5.386   8.075
 1367HO4     OW 5465   4.977   4.269   4.921
 1367HO4    HW1 5466   4.981   4.219   5.008
 1367HO4    HW2 5467   4.975   4.204   4.845
 1367HO4     MW 5468   4.977   4.269   4.921
 1368HO4     OW 5469   4.143   9.782   1.790
 1368HO4    HW1 5470   4.153   9.684   1.811
 1368HO4    HW2 5471   4.116   9.832   1.873
 1368HO4     MW 5472   4.143   9.782   1.790
 1369HO4     OW 5473   3.532   3.128   1.852
 1369HO4    HW1 5474   3.551   3.183   1.770
 1369HO4    HW2 5475   3.544   3.185   1.933
 1369HO4     MW 5476   3.532   3.128   1.852
 1370HO4     OW 5477   7.699   9.892   3.052
 1370HO4    HW1 5478   7.652   9.849   2.974
 1370HO4    HW2 5479   7.662   9.984   3.066
 1370HO4     MW 5480   7.699   9.892   3.052
 1371HO4     OW 5481   3.738   2.785   5.176
 1371HO4    HW1 5482   3.788   2.771   5.090
 1371HO4    HW2 5483   3.799   2.767   5.253
 1371HO4     MW 5484   3.738   2.785   5.176
 1372HO4     OW 5485   9.356   8.334   4.400
 1372HO4    HW1 5486   9.367   8.274   4.479
 1372HO4    HW2 5487   9.317   8.282   4.323
 1372HO4     MW 5488   9.356   8.334   4.400
 1373HO4     OW 5489   9.039   6.392   5.875
 1373HO4    HW1 5490   9.065   6.348   5.788
 1373HO4    HW2 5491   8.961   6.453   5.860
 1373HO4     MW 5492   9.039   6.392   5.875
 1374HO4     OW 5493   1.415   1.773   2.461
 1374HO4    HW1 5494   1.441   1.822   2.377
 1374HO4    HW2 5495   1.415   1.838   2.539
 1374HO4     MW 5496   1.415   1.773   2.461
 1375HO4     OW 5497   4.631   8.521   1.532
 1375HO4    HW1 5498   4.667   8.611   1.560
 1375HO4    HW2 5499   4.686   8.449   1.576
 1375HO4     MW 5500   4.631   8.521   1.532
 1376HO4     OW 5501   3.077   6.630   5.183
 1376HO4    HW1 5502   3.078   6.598   5.087
 1376HO4    HW2 5503   3.062   6.552   5.244
 1376HO4     MW 5504   3.077   6.630   5.183
 1377HO4     OW 5505   4.541   0.705   2.016
 1377HO4    HW1 5506   4.576   0.618   2.053
 1377HO4    HW2 5507   4.580   0.720   1.925
 1377HO4     MW 5508   4.541   0.705   2.016
 1378HO4     OW 5509   0.843  10.067  10.153
 1378HO4    HW1 5510   0.857  10.166  10.149
 1378HO4    HW2 5511   0.763  10.042  10.098
 1378HO4     MW 5512   0.843  10.067  10.153
 1379HO4     OW 5513   1.699   4.251   3.069
 1379HO4    HW1 5514   1.753   4.268   2.986
 1379HO4    HW2 5515   1.761   4.245   3.148
 1379HO4     MW 5516   1.699   4.251   3.069
 1380HO4     OW 5517   4.274   6.445   1.915
 1380HO4    HW1 5518   4.327   6.526   1.887
 1380HO4    HW2 5519   4.296   6.368   1.856
 1380HO4     MW 5520   4.274   6.445   1.915
 1381HO4     OW 5521   4.506   1.007   7.332
 1381HO4    HW1 5522   4.600   1.006   7.299
 1381HO4    HW2 5523   4.448   1.059   7.269
 1381HO4     MW 5524   4.506   1.007   7.332
 1382HO4     OW 5525   1.218   8.152   6.605
 1382HO4    HW1 5526   1.150   8.175   6.534
 1382HO4    HW2 5527   1.180   8.174   6.695
 1382HO4     MW 5528   1.218   8.152   6.605
 1383HO4     OW 5529   2.072   6.775   4.678
 1383HO4    HW1 5530   2.119   6.753   4.592
 1383HO4    HW2 5531   1.990   6.830   4.658
 1383HO4     MW 5532   2.072   6.775   4.678
 1384HO4     OW 5533   9.303   7.635   6.895
 1384HO4    HW1 5534   9.287   7.684   6.981
 1384HO4    HW2 5535   9.318   7.701   6.821
 1384HO4     MW 5536   9.303   7.635   6.895
 1385HO4     OW 5537   4.307   6.450   8.780
 1385HO4    HW1 5538   4.354   6.390   8.715
 1385HO4    HW2 5539   4.284   6.537   8.735
 1385HO4     MW 5540   4.307   6.450   8.780
 1386HO4     OW 5541   9.472   0.340   9.994
 1386HO4    HW1 5542   9.512   0.385  10.074
 1386HO4    HW2 5543   9.504   0.386   9.911
 1386HO4     MW 5544   9.472   0.340   9.994
 1387HO4     OW 5545   7.644   2.607   7.077
 1387HO4    HW1 5546   7.565   2.552   7.046
 1387HO4    HW2 5547   7.697   2.554   7.144
 1387HO4     MW 5548   7.644   2.607   7.077
 1388HO4     OW 5549   7.221   1.193   8.832
 1388HO4    HW1 5550   7.258   1.286   8.842
 1388HO4    HW2 5551   7.231   1.144   8.919
 1388HO4     MW 5552   7.221   1.193   8.832
 1389HO4     OW 5553   2.801   1.369   9.540
 1389HO4    HW1 5554   2.873   1.437   9.526
 1389HO4    HW2 5555   2.815   1.322   9.628
 1389HO4     MW 5556   2.801   1.369   9.540
 1390HO4     OW 5557   5.645   8.054   6.375
 1390HO4    HW1 5558   5.561   8.039   6.428
 1390HO4    HW2 5559   5.646   7.992   6.296
 1390HO4     MW 5560   5.645   8.054   6.375
 1391HO4     OW 5561   8.396   1.543   2.926
 1391HO4    HW1 5562   8.357   1.618   2.981
 1391HO4    HW2 5563   8.351   1.540   2.836
 1391HO4     MW 5564   8.396   1.543   2.926
 1392HO4     OW 5565   1.441   4.056   6.834
 1392HO4    HW1 5566   1.425   4.064   6.735
 1392HO4    HW2 5567   1.361   4.088   6.884
 1392HO4     MW 5568   1.441   4.056   6.834
 1393HO4     OW 5569   0.662   8.173   0.746
 1393HO4    HW1 5570   0.597   8.178   0.823
 1393HO4    HW2 5571   0.611   8.183   0.660
 1393HO4     MW 5572   0.662   8.173   0.746
 1394HO4     OW 5573   7.799   1.991   5.882
 1394HO4    HW1 5574   7.828   2.041   5.801
 1394HO4    HW2 5575   7.854   2.021   5.961
 1394HO4     MW 5576   7.799   1.991   5.882
 1395HO4     OW 5577   3.044   7.342   0.727
 1395HO4    HW1 5578   2.987   7.260   0.714
 1395HO4    HW2 5579   3.125   7.336   0.667
 1395HO4     MW 5580   3.044   7.342   0.727
 1396HO4     OW 5581   8.120   7.318   5.970
 1396HO4    HW1 5582   8.095   7.255   5.895
 1396HO4    HW2 5583   8.218   7.340   5.965
 1396HO4     MW 5584   8.120   7.318   5.970
 1397HO4     OW 5585   1.295   7.728   1.494
 1397HO4    HW1 5586   1.302   7.632   1.522
 1397HO4    HW2 5587   1.241   7.735   1.410
 1397HO4     MW 5588   1.295   7.728   1.494
 1398HO4     OW 5589   3.714   9.714   9.516
 1398HO4    HW1 5590   3.618   9.684   9.519
 1398HO4    HW2 5591   3.764   9.674   9.594
 1398HO4     MW 5592   3.714   9.714   9.516
 1399HO4     OW 5593   5.120   8.778   7.960
 1399HO4    HW1 5594   5.185   8.763   8.035
 1399HO4    HW2 5595   5.106   8.692   7.910
 1399HO4     MW 5596   5.120   8.778   7.960
 1400HO4     OW 5597   8.037   7.535   9.566
 1400HO4    HW1 5598   8.130   7.500   9.552
 1400HO4    HW2 5599   8.041   7.635   9.578
 1400HO4     MW 5600   8.037   7.535   9.566
 1401HO4     OW 5601   3.747   3.811   5.492
 1401HO4    HW1 5602   3.720   3.743   5.561
 1401HO4    HW2 5603   3.741   3.770   5.401
 1401HO4     MW 5604   3.747   3.811   5.492
 1402HO4     OW 5605   0.563   2.901   2.251
 1402HO4    HW1 5606   0.622   2.975   2.216
 1402HO4    HW2 5607   0.472   2.909   2.210
 1402HO4     MW 5608   0.563   2.901   2.251
 1403HO4     OW 5609   1.817   6.685   5.389
 1403HO4    HW1 5610   1.880   6.622   5.343
 1403HO4    HW2 5611   1.825   6.776   5.347
 1403HO4     MW 5612   1.817   6.685   5.389
 1404HO4     OW 5613   4.641  10.005   7.870
 1404HO4    HW1 5614   4.549  10.045   7.880
 1404HO4    HW2 5615   4.709  10.079   7.864
 1404HO4     MW 5616   4.641  10.005   7.870
 1405HO4     OW 5617   3.980   4.985   7.027
 1405HO4    HW1 5618   3.930   4.959   7.110
 1405HO4    HW2 5619   3.984   4.907   6.964
 1405HO4     MW 5620   3.980   4.985   7.027
 1406HO4     OW 5621   9.285   9.267   8.306
 1406HO4    HW1 5622   9.193   9.298   8.278
 1406HO4    HW2 5623   9.340   9.345   8.336
 1406HO4     MW 5624   9.285   9.267   8.306
 1407HO4     OW 5625   8.837   6.565   5.569
 1407HO4    HW1 5626   8.860   6.655   5.531
 1407HO4    HW2 5627   8.901   6.542   5.642
 1407HO4     MW 5628   8.837   6.565   5.569
 1408HO4     OW 5629   2.567   1.734   8.277
 1408HO4    HW1 5630   2.516   1.712   8.193
 1408HO4    HW2 5631   2.548   1.665   8.347
 1408HO4     MW 5632   2.567   1.734   8.277
 1409HO4     OW 5633   5.411   9.812   7.130
 1409HO4    HW1 5634   5.454   9.879   7.191
 1409HO4    HW2 5635   5.482   9.751   7.093
 1409HO4     MW 5636   5.411   9.812   7.130
 1410HO4     OW 5637   0.798   1.388   0.930
 1410HO4    HW1 5638   0.713   1.364   0.882
 1410HO4    HW2 5639   0.789   1.480   0.969
 1410HO4     MW 5640   0.798   1.388   0.930
 1411HO4     OW 5641   7.183   3.012   3.709
 1411HO4    HW1 5642   7.183   2.957   3.793
 1411HO4    HW2 5643   7.204   2.953   3.630
 1411HO4     MW 5644   7.183   3.012   3.709
 1412HO4     OW 5645   8.500   5.616   6.775
 1412HO4    HW1 5646   8.405   5.634   6.749
 1412HO4    HW2 5647   8.524   5.672   6.856
 1412HO4     MW 5648   8.500   5.616   6.775
 1413HO4     OW 5649   9.473   9.148   1.118
 1413HO4    HW1 5650   9.520   9.065   1.088
 1413HO4    HW2 5651   9.381   9.125   1.150
 1413HO4     MW 5652   9.473   9.148   1.118
 1414HO4     OW 5653   5.755   7.577   4.318
 1414HO4    HW1 5654   5.692   7.518   4.368
 1414HO4    HW2 5655   5.841   7.588   4.370
 1414HO4     MW 5656   5.755   7.577   4.318
 1415HO4     OW 5657   4.983   0.021   2.487
 1415HO4    HW1 5658   5.011  -0.062   2.437
 1415HO4    HW2 5659   5.050   0.041   2.559
 1415HO4     MW 5660   4.983   0.021   2.487
 1416HO4     OW 5661   4.047   3.794   9.276
 1416HO4    HW1 5662   3.981   3.729   9.312
 1416HO4    HW2 5663   4.053   3.784   9.176
 1416HO4     MW 5664   4.047   3.794   9.276
 1417HO4     OW 5665   7.036   6.797   2.641
 1417HO4    HW1 5666   6.957   6.782   2.581
 1417HO4    HW2 5667   7.004   6.812   2.735
 1417HO4     MW 5668   7.036   6.797   2.641
 1418HO4     OW 5669   4.042   3.809   1.627
 1418HO4    HW1 5670   4.110   3.800   1.700
 1418HO4    HW2 5671   3.976   3.881   1.650
 1418HO4     MW 5672   4.042   3.809   1.627
 1419HO4     OW 5673   9.709   0.078   7.474
 1419HO4    HW1 5674   9.779   0.058   7.543
 1419HO4    HW2 5675   9.641   0.004   7.473
 1419HO4     MW 5676   9.709   0.078   7.474
 1420HO4     OW 5677   9.481   1.855   0.080
 1420HO4    HW1 5678   9.424   1.807   0.147
 1420HO4    HW2 5679   9.439   1.944   0.057
 1420HO4     MW 5680   9.481   1.855   0.080
 1421HO4     OW 5681   5.128   6.200   2.163
 1421HO4    HW1 5682   5.186   6.180   2.084
 1421HO4    HW2 5683   5.093   6.294   2.157
 1421HO4     MW 5684   5.128   6.200   2.163
 1422HO4     OW 5685   1.855   6.111   9.272
 1422HO4    HW1 5686   1.891   6.163   9.193
 1422HO4    HW2 5687   1.896   6.146   9.356
 1422HO4     MW 5688   1.855   6.111   9.272
 1423HO4     OW 5689   0.498   0.639   5.124
 1423HO4    HW1 5690   0.476   0.700   5.048
 1423HO4    HW2 5691   0.419   0.579   5.143
 1423HO4     MW 5692   0.498   0.639   5.124
 1424HO4     OW 5693   9.939   6.334   4.045
 1424HO4    HW1 5694   9.964   6.428   4.020
 1424HO4    HW2 5695   9.908   6.286   3.963
 1424HO4     MW 5696   9.939   6.334   4.045
 1425HO4     OW 5697   9.853   8.367   8.800
 1425HO4    HW1 5698   9.766   8.344   8.755
 1425HO4    HW2 5699   9.840   8.444   8.862
 1425HO4     MW 5700   9.853   8.367   8.800
 1426HO4     OW 5701   2.966   0.946   4.422
 1426HO4    HW1 5702   3.013   1.006   4.487
 1426HO4    HW2 5703   3.034   0.895   4.369
 1426HO4     MW 5704   2.966   0.946   4.422
 1427HO4     OW 5705   4.248  10.024   1.815
 1427HO4    HW1 5706   4.225  10.054   1.722
 1427HO4    HW2 5707   4.163  10.018   1.869
 1427HO4     MW 5708   4.248  10.024   1.815
 1428HO4     OW 5709   4.543   5.765   2.069
 1428HO4    HW1 5710   4.593   5.847   2.040
 1428HO4    HW2 5711   4.496   5.783   2.156
 1428HO4     MW 5712   4.543   5.765   2.069
 1429HO4     OW 5713   7.649   6.979   1.476
 1429HO4    HW1 5714   7.552   6.959   1.486
 1429HO4    HW2 5715   7.700   6.894   1.458
 1429HO4     MW 5716   7.649   6.979   1.476
 1430HO4     OW 5717   4.579   7.540   4.325
 1430HO4    HW1 5718   4.661   7.489   4.352
 1430HO4    HW2 5719   4.606   7.620   4.271
 1430HO4     MW 5720   4.579   7.540   4.325
 1431HO4     OW 5721   8.277   1.762   3.191
 1431HO4    HW1 5722   8.219   1.744   3.271
 1431HO4    HW2 5723   8.236   1.719   3.110
 1431HO4     MW 5724   8.277   1.762   3.191
 1432HO4     OW 5725   3.617   3.173   9.354
 1432HO4    HW1 5726   3.587   3.237   9.426
 1432HO4    HW2 5727   3.588   3.208   9.265
 1432HO4     MW 5728   3.617   3.173   9.354
 1433HO4     OW 5729   6.580   7.715   0.112
 1433HO4    HW1 5730   6.522   7.743   0.190
 1433HO4    HW2 5731   6.543   7.630   0.073
 1433HO4     MW 5732   6.580   7.715   0.112
 1434HO4     OW 5733   5.222   0.785   0.061
 1434HO4    HW1 5734   5.266   0.769   0.150
 1434HO4    HW2 5735   5.291   0.780  -0.012
 1434HO4     MW 5736   5.222   0.785   0.061
 1435HO4     OW 5737   0.849   0.179   3.096
 1435HO4    HW1 5738   0.779   0.147   3.160
 1435HO4    HW2 5739   0.807   0.193   3.005
 1435HO4     MW 5740   0.849   0.179   3.096
 1436HO4     OW 5741   9.638   0.775   2.180
 1436HO4    HW1 5742   9.657   0.744   2.086
 1436HO4    HW2 5743   9.638   0.876   2.183
 1436HO4     MW 5744   9.638   0.775   2.180
 1437HO4     OW 5745   2.514   3.780   0.911
 1437HO4    HW1 5746   2.581   3.756   0.983
 1437HO4    HW2 5747   2.519   3.712   0.837
 1437HO4     MW 5748   2.514   3.780   0.911
 1438HO4     OW 5749   5.939   1.745   6.496
 1438HO4    HW1 5750   5.930   1.645   6.494
 1438HO4    HW2 5751   5.869   1.786   6.437
 1438HO4     MW 5752   5.939   1.745   6.496
 1439HO4     OW 5753   7.948   8.394   5.106
 1439HO4    HW1 5754   7.977   8.489   5.101
 1439HO4    HW2 5755   8.027   8.335   5.124
 1439HO4     MW 5756   7.948   8.394   5.106
 1440HO4     OW 5757   4.695   9.980   5.698
 1440HO4    HW1 5758   4.670   9.971   5.601
 1440HO4    HW2 5759   4.618  10.020   5.748
 1440HO4     MW 5760   4.695   9.980   5.698
 1441HO4     OW 5761   5.173   1.086   5.992
 1441HO4    HW1 5762   5.111   1.099   5.914
 1441HO4    HW2 5763   5.126   1.109   6.077
 1441HO4     MW 5764   5.173   1.086   5.992
 1442HO4     OW 5765   3.210   5.065   1.086
 1442HO4    HW1 5766   3.285   5.100   1.144
 1442HO4    HW2 5767   3.235   5.076   0.989
 1442HO4     MW 5768   3.210   5.065   1.086
 1443HO4     OW 5769   7.807   0.880   3.512
 1443HO4    HW1 5770   7.710   0.899   3.531
 1443HO4    HW2 5771   7.830   0.916   3.421
 1443HO4     MW 5772   7.807   0.880   3.512
 1444HO4     OW 5773   4.606   1.666   2.534
 1444HO4    HW1 5774   4.674   1.682   2.606
 1444HO4    HW2 5775   4.652   1.634   2.451
 1444HO4     MW 5776   4.606   1.666   2.534
 1445HO4     OW 5777   0.822   6.081   4.690
 1445HO4    HW1 5778   0.896   6.083   4.622
 1445HO4    HW2 5779   0.735   6.102   4.644
 1445HO4     MW 5780   0.822   6.081   4.690
 1446HO4     OW 5781   9.013  10.056   1.657
 1446HO4    HW1 5782   9.027  10.155   1.659
 1446HO4    HW2 5783   9.102  10.010   1.659
 1446HO4     MW 5784   9.013  10.056   1.657
 1447HO4     OW 5785   2.850   5.330   2.812
 1447HO4    HW1 5786   2.825   5.238   2.779
 1447HO4    HW2 5787   2.919   5.370   2.751
 1447HO4     MW 5788   2.850   5.330   2.812
 1448HO4     OW 5789   4.644   6.923   6.238
 1448HO4    HW1 5790   4.720   6.918   6.173
 1448HO4    HW2 5791   4.679   6.923   6.332
 1448HO4     MW 5792   4.644   6.923   6.238
 1449HO4     OW 5793   5.453   7.156   9.378
 1449HO4    HW1 5794   5.458   7.106   9.465
 1449HO4    HW2 5795   5.472   7.093   9.302
 1449HO4     MW 5796   5.453   7.156   9.378
 1450HO4     OW 5797   7.666  10.129   2.339
 1450HO4    HW1 5798   7.583  10.071   2.339
 1450HO4    HW2 5799   7.746  10.072   2.318
 1450HO4     MW 5800   7.666  10.129   2.339
 1451HO4     OW 5801   2.971   3.396   4.595
 1451HO4    HW1 5802   2.892   3.448   4.562
 1451HO4    HW2 5803   3.052   3.421   4.542
 1451HO4     MW 5804   2.971   3.396   4.595
 1452HO4     OW 5805   2.822   8.167   0.459
 1452HO4    HW1 5806   2.850   8.163   0.556
 1452HO4    HW2 5807   2.759   8.091   0.440
 1452HO4     MW 5808   2.822   8.167   0.459
 1453HO4     OW 5809   3.406   6.137   0.752
 1453HO4    HW1 5810   3.486   6.113   0.808
 1453HO4    HW2 5811   3.330   6.164   0.811
 1453HO4     MW 5812   3.406   6.137   0.752
 1454HO4     OW 5813   2.342   3.262   9.090
 1454HO4    HW1 5814   2.418   3.328   9.089
 1454HO4    HW2 5815   2.378   3.169   9.078
 1454HO4     MW 5816   2.342   3.262   9.090
 1455HO4     OW 5817   1.931   9.926   9.593
 1455HO4    HW1 5818   1.940   9.921   9.693
 1455HO4    HW2 5819   1.923  10.022   9.565
 1455HO4     MW 5820   1.931   9.926   9.593
 1456HO4     OW 5821   8.039   8.007   1.567
 1456HO4    HW1 5822   7.949   8.000   1.523
 1456HO4    HW2 5823   8.031   8.062   1.651
 1456HO4     MW 5824   8.039   8.007   1.567
 1457HO4     OW 5825  10.046   1.956   3.692
 1457HO4    HW1 5826  10.076   2.044   3.652
 1457HO4    HW2 5827  10.127   1.903   3.719
 1457HO4     MW 5828  10.046   1.956   3.692
 1458HO4     OW 5829   0.884   4.630   2.336
 1458HO4    HW1 5830   0.940   4.552   2.366
 1458HO4    HW2 5831   0.877   4.697   2.411
 1458HO4     MW 5832   0.884   4.630   2.336
 1459HO4     OW 5833   2.037   4.633   8.616
 1459HO4    HW1 5834   2.043   4.535   8.597
 1459HO4    HW2 5835   1.986   4.679   8.543
 1459HO4     MW 5836   2.037   4.633   8.616
 1460HO4     OW 5837   6.606  10.016   7.911
 1460HO4    HW1 5838   6.580  10.020   7.814
 1460HO4    HW2 5839   6.564  10.093   7.960
 1460HO4     MW 5840   6.606  10.016   7.911
 1461HO4     OW 5841   5.011   6.296   9.941
 1461HO4    HW1 5842   4.982   6.300  10.037
 1461HO4    HW2 5843   5.034   6.201   9.917
 1461HO4     MW 5844   5.011   6.296   9.941
 1462HO4     OW 5845   2.298   1.975   3.630
 1462HO4    HW1 5846   2.361   2.022   3.694
 1462HO4    HW2 5847   2.276   2.037   3.554
 1462HO4     MW 5848   2.298   1.975   3.630
 1463HO4     OW 5849   9.570   8.163   0.601
 1463HO4    HW1 5850   9.535   8.213   0.521
 1463HO4    HW2 5851   9.653   8.113   0.575
 1463HO4     MW 5852   9.570   8.163   0.601
 1464HO4     OW 5853   4.001   5.953   8.081
 1464HO4    HW1 5854   3.904   5.943   8.105
 1464HO4    HW2 5855   4.054   5.970   8.165
 1464HO4     MW 5856   4.001   5.953   8.081
 1465HO4     OW 5857   0.013   2.808   1.349
 1465HO4    HW1 5858   0.041   2.790   1.254
 1465HO4    HW2 5859   0.094   2.806   1.409
 1465HO4     MW 5860   0.013   2.808   1.349
 1466HO4     OW 5861   8.439   4.798   9.659
 1466HO4    HW1 5862   8.440   4.867   9.732
 1466HO4    HW2 5863   8.468   4.841   9.573
 1466HO4     MW 5864   8.439   4.798   9.659
 1467HO4     OW 5865   0.595   3.606   8.048
 1467HO4    HW1 5866   0.657   3.674   8.089
 1467HO4    HW2 5867   0.552   3.551   8.121
 1467HO4     MW 5868   0.595   3.606   8.048
 1468HO4     OW 5869   7.159   7.082   9.769
 1468HO4    HW1 5870   7.197   7.152   9.707
 1468HO4    HW2 5871   7.148   7.121   9.861
 1468HO4     MW 5872   7.159   7.082   9.769
 1469HO4     OW 5873   5.488   4.235   6.016
 1469HO4    HW1 5874   5.425   4.177   5.964
 1469HO4    HW2 5875   5.463   4.232   6.114
 1469HO4     MW 5876   5.488   4.235   6.016
 1470HO4     OW 5877   0.776   9.637   1.532
 1470HO4    HW1 5878   0.841   9.593   1.469
 1470HO4    HW2 5879   0.784   9.595   1.623
 1470HO4     MW 5880   0.776   9.637   1.532
 1471HO4     OW 5881   9.400   9.328   6.818
 1471HO4    HW1 5882   9.483   9.350   6.869
 1471HO4    HW2 5883   9.415   9.345   6.720
 1471HO4     MW 5884   9.400   9.328   6.818
 1472HO4     OW 5885   5.689   9.881   4.786
 1472HO4    HW1 5886   5.671   9.872   4.884
 1472HO4    HW2 5887   5.732   9.970   4.768
 1472HO4     MW 5888   5.689   9.881   4.786
 1473HO4     OW 5889   2.167   3.960   3.734
 1473HO4    HW1 5890   2.137   3.962   3.829
 1473HO4    HW2 5891   2.092   3.927   3.675
 1473HO4     MW 5892   2.167   3.960   3.734
 1474HO4     OW 5893   5.807   1.649  10.060
 1474HO4    HW1 5894   5.757   1.701  10.129
 1474HO4    HW2 5895   5.744   1.619   9.988
 1474HO4     MW 5896   5.807   1.649  10.060
 1475HO4     OW 5897   9.700   8.261   7.581
 1475HO4    HW1 5898   9.725   8.217   7.668
 1475HO4    HW2 5899   9.600   8.262   7.571
 1475HO4     MW 5900   9.700   8.261   7.581
 1476HO4     OW 5901   5.126   8.055   1.458
 1476HO4    HW1 5902   5.078   8.089   1.539
 1476HO4    HW2 5903   5.076   8.084   1.375
 1476HO4     MW 5904   5.126   8.055   1.458
 1477HO4     OW 5905   7.338   5.985   5.751
 1477HO4    HW1 5906   7.358   5.977   5.653
 1477HO4    HW2 5907   7.345   6.081   5.779
 1477HO4     MW 5908   7.338   5.985   5.751
 1478HO4     OW 5909   3.091   1.933   7.621
 1478HO4    HW1 5910   3.039   1.848   7.626
 1478HO4    HW2 5911   3.109   1.968   7.714
 1478HO4     MW 5912   3.091   1.933   7.621
 1479HO4     OW 5913   5.706   8.810   0.064
 1479HO4    HW1 5914   5.789   8.814   0.008
 1479HO4    HW2 5915   5.699   8.719   0.107
 1479HO4     MW 5916   5.706   8.810   0.064
 1480HO4     OW 5917   5.237   8.234   6.586
 1480HO4    HW1 5918   5.197   8.264   6.499
 1480HO4    HW2 5919   5.226   8.306   6.654
 1480HO4     MW 5920   5.237   8.234   6.586
 1481HO4     OW 5921   1.116   2.178   4.778
 1481HO4    HW1 5922   1.100   2.243   4.703
 1481HO4    HW2 5923   1.146   2.228   4.860
 1481HO4     MW 5924   1.116   2.178   4.778
 1482HO4     OW 5925   6.939   4.391   0.552
 1482HO4    HW1 5926   6.868   4.386   0.481
 1482HO4    HW2 5927   7.012   4.324   0.532
 1482HO4     MW 5928   6.939   4.391   0.552
 1483HO4     OW 5929   3.638   3.754   9.758
 1483HO4    HW1 5930   3.572   3.688   9.720
 1483HO4    HW2 5931   3.731   3.729   9.728
 1483HO4     MW 5932   3.638   3.754   9.758
 1484HO4     OW 5933   9.165   5.418   9.796
 1484HO4    HW1 5934   9.220   5.473   9.732
 1484HO4    HW2 5935   9.194   5.440   9.890
 1484HO4     MW 5936   9.165   5.418   9.796
 1485HO4     OW 5937   2.652   6.100   8.968
 1485HO4    HW1 5938   2.560   6.106   9.008
 1485HO4    HW2 5939   2.706   6.031   9.017
 1485HO4     MW 5940   2.652   6.100   8.968
 1486HO4     OW 5941   9.747   0.047   5.841
 1486HO4    HW1 5942   9.676  -0.016   5.873
 1486HO4    HW2 5943   9.837   0.001   5.846
 1486HO4     MW 5944   9.747   0.047   5.841
 1487HO4     OW 5945   6.312   7.726   4.556
 1487HO4    HW1 5946   6.287   7.746   4.652
 1487HO4    HW2 5947   6.363   7.640   4.553
 1487HO4     MW 5948   6.312   7.726   4.556
 1488HO4     OW 5949   7.300   2.169   4.437
 1488HO4    HW1 5950   7.311   2.190   4.339
 1488HO4    HW2 5951   7.389   2.151   4.478
 1488HO4     MW 5952   7.300   2.169   4.437
 1489HO4     OW 5953   4.662   8.580   1.063
 1489HO4    HW1 5954   4.668   8.604   1.161
 1489HO4    HW2 5955   4.728   8.507   1.042
 1489HO4     MW 5956   4.662   8.580   1.063
 1490HO4     OW 5957   9.391   5.460   4.803
 1490HO4    HW1 5958   9.436   5.378   4.767
 1490HO4    HW2 5959   9.382   5.528   4.730
 1490HO4     MW 5960   9.391   5.460   4.803
 1491HO4     OW 5961   9.082   9.233   4.874
 1491HO4    HW1 5962   9.027   9.175   4.814
 1491HO4    HW2 5963   9.170   9.253   4.829
 1491HO4     MW 5964   9.082   9.233   4.874
 1492HO4     OW 5965   9.948   6.679   6.434
 1492HO4    HW1 5966   9.905   6.754   6.487
 1492HO4    HW2 5967   9.922   6.688   6.338
 1492HO4     MW 5968   9.948   6.679   6.434
 1493HO4     OW 5969   4.944  10.007   4.046
 1493HO4    HW1 5970   4.990  10.040   3.963
 1493HO4    HW2 5971   4.901  10.084   4.094
 1493HO4     MW 5972   4.944  10.007   4.046
 1494HO4     OW 5973   7.925   9.830   1.268
 1494HO4    HW1 5974   7.980   9.882   1.335
 1494HO4    HW2 5975   7.929   9.732   1.291
 1494HO4     MW 5976   7.925   9.830   1.268
 1495HO4     OW 5977   9.545   5.620   1.120
 1495HO4    HW1 5978   9.579   5.570   1.040
 1495HO4    HW2 5979   9.577   5.575   1.204
 1495HO4     MW 5980   9.545   5.620   1.120
 1496HO4     OW 5981   3.044   2.112   3.119
 1496HO4    HW1 5982   3.045   2.171   3.038
 1496HO4    HW2 5983   2.978   2.146   3.186
 1496HO4     MW 5984   3.044   2.112   3.119
 1497HO4     OW 5985   8.398  10.141   0.732
 1497HO4    HW1 5986   8.454  10.102   0.806
 1497HO4    HW2 5987   8.377  10.237   0.752
 1497HO4     MW 5988   8.398  10.141   0.732
 1498HO4     OW 5989   4.836   6.062   4.183
 1498HO4    HW1 5990   4.807   6.143   4.131
 1498HO4    HW2 5991   4.827   5.980   4.125
 1498HO4     MW 5992   4.836   6.062   4.183
 1499HO4     OW 5993   4.330   8.412   6.285
 1499HO4    HW1 5994   4.400   8.465   6.334
 1499HO4    HW2 5995   4.375   8.348   6.222
 1499HO4     MW 5996   4.330   8.412   6.285
 1500HO4     OW 5997   0.207  10.001   5.414
 1500HO4    HW1 5998   0.295  10.002   5.462
 1500HO4    HW2 5999   0.168  10.094   5.414
 1500HO4     MW 6000   0.207  10.001   5.414
 1501HO4     OW 6001   3.452   2.463   3.083
 1501HO4    HW1 6002   3.395   2.456   3.166
 1501HO4    HW2 6003   3.395   2.453   3.002
 1501HO4     MW 6004   3.452   2.463   3.083
 1502HO4     OW 6005   2.697   2.084   2.004
 1502HO4    HW1 6006   2.608   2.123   1.978
 1502HO4    HW2 6007   2.689   2.040   2.094
 1502HO4     MW 6008   2.697   2.084   2.004
 1503HO4     OW 6009   8.771   9.126   5.880
 1503HO4    HW1 6010   8.770   9.033   5.842
 1503HO4    HW2 6011   8.852   9.136   5.940
 1503HO4     MW 6012   8.771   9.126   5.880
 1504HO4     OW 6013   0.064   0.187   9.694
 1504HO4    HW1 6014   0.089   0.153   9.602
 1504HO4    HW2 6015  -0.022   0.145   9.722
 1504HO4     MW 6016   0.064   0.187   9.694
 1505HO4     OW 6017   1.980   2.040   0.910
 1505HO4    HW1 6018   2.058   2.100   0.888
 1505HO4    HW2 6019   1.917   2.089   0.972
 1505HO4     MW 6020   1.980   2.040   0.910
 1506HO4     OW 6021   0.888   9.398   7.081
 1506HO4    HW1 6022   0.818   9.372   7.014
 1506HO4    HW2 6023   0.974   9.417   7.033
 1506HO4     MW 6024   0.888   9.398   7.081
 1507HO4     OW 6025  10.160   5.337   9.709
 1507HO4    HW1 6026  10.150   5.258   9.648
 1507HO4    HW2 6027  10.073   5.357   9.753
 1507HO4     MW 6028  10.160   5.337   9.709
 1508HO4     OW 6029   5.672   9.328   6.285
 1508HO4    HW1 6030   5.691   9.335   6.383
 1508HO4    HW2 6031   5.574   9.341   6.268
 1508HO4     MW 6032   5.672   9.328   6.285
 1509HO4     OW 6033   0.838   5.415   1.219
 1509HO4    HW1 6034   0.880   5.358   1.291
 1509HO4    HW2 6035   0.908   5.469   1.174
 1509HO4     MW 6036   0.838   5.415   1.219
 1510HO4     OW 6037   4.095   9.985   8.950
 1510HO4    HW1 6038   4.185   9.995   8.993
 1510HO4    HW2 6039   4.104   9.936   8.863
 1510HO4     MW 6040   4.095   9.985   8.950
 1511HO4     OW 6041   7.817   2.269  10.139
 1511HO4    HW1 6042   7.786   2.353  10.093
 1511HO4    HW2 6043   7.775   2.264  10.230
 1511HO4     MW 6044   7.817   2.269  10.139
 1512HO4     OW 6045   1.101   7.692   6.451
 1512HO4    HW1 6046   1.136   7.651   6.366
 1512HO4    HW2 6047   1.175   7.698   6.518
 1512HO4     MW 6048   1.101   7.692   6.451
 1513HO4     OW 6049   0.024   8.994   0.243
 1513HO4    HW1 6050   0.071   9.027   0.325
 1513HO4    HW2 6051   0.072   9.029   0.161
 1513HO4     MW 6052   0.024   8.994   0.243
 1514HO4     OW 6053   2.470   6.776   9.764
 1514HO4    HW1 6054   2.422   6.848   9.713
 1514HO4    HW2 6055   2.512   6.816   9.846
 1514HO4     MW 6056   2.470   6.776   9.764
 1515HO4     OW 6057   7.996   8.274   2.649
 1515HO4    HW1 6058   7.910   8.254   2.698
 1515HO4    HW2 6059   8.004   8.373   2.636
 1515HO4     MW 6060   7.996   8.274   2.649
 1516HO4     OW 6061   0.837   2.886   7.309
 1516HO4    HW1 6062   0.882   2.884   7.220
 1516HO4    HW2 6063   0.906   2.879   7.382
 1516HO4     MW 6064   0.837   2.886   7.309
 1517HO4     OW 6065   1.461   0.669   2.308
 1517HO4    HW1 6066   1.514   0.750   2.281
 1517HO4    HW2 6067   1.443   0.671   2.406
 1517HO4     MW 6068   1.461   0.669   2.308
 1518HO4     OW 6069   7.601   7.317   1.131
 1518HO4    HW1 6070   7.645   7.344   1.045
 1518HO4    HW2 6071   7.660   7.340   1.208
 1518HO4     MW 6072   7.601   7.317   1.131
 1519HO4     OW 6073   6.345   0.737   1.370
 1519HO4    HW1 6074   6.277   0.673   1.407
 1519HO4    HW2 6075   6.365   0.713   1.275
 1519HO4     MW 6076   6.345   0.737   1.370
 1520HO4     OW 6077   5.107   6.833   8.249
 1520HO4    HW1 6078   5.092   6.930   8.230
 1520HO4    HW2 6079   5.197   6.820   8.292
 1520HO4     MW 6080   5.107   6.833   8.249
 1521HO4     OW 6081   3.151   9.973   3.931
 1521HO4    HW1 6082   3.070   9.927   3.893
 1521HO4    HW2 6083   3.228   9.964   3.866
 1521HO4     MW 6084   3.151   9.973   3.931
 1522HO4     OW 6085   1.016   0.308   7.025
 1522HO4    HW1 6086   1.048   0.264   6.941
 1522HO4    HW2 6087   1.062   0.268   7.104
 1522HO4     MW 6088   1.016   0.308   7.025
 1523HO4     OW 6089   4.058   8.439   2.638
 1523HO4    HW1 6090   4.005   8.421   2.554
 1523HO4    HW2 6091   4.037   8.531   2.672
 1523HO4     MW 6092   4.058   8.439   2.638
 1524HO4     OW 6093   6.569   1.033   2.090
 1524HO4    HW1 6094   6.496   1.004   2.027
 1524HO4    HW2 6095   6.529   1.070   2.174
 1524HO4     MW 6096   6.569   1.033   2.090
 1525HO4     OW 6097   4.456   2.329   8.160
 1525HO4    HW1 6098   4.546   2.318   8.203
 1525HO4    HW2 6099   4.448   2.266   8.083
 1525HO4     MW 6100   4.456   2.329   8.160
 1526HO4     OW 6101   1.009   6.391   0.480
 1526HO4    HW1 6102   1.071   6.347   0.546
 1526HO4    HW2 6103   1.034   6.361   0.387
 1526HO4     MW 6104   1.009   6.391   0.480
 1527HO4     OW 6105   4.370   9.856   9.079
 1527HO4    HW1 6106   4.422   9.770   9.088
 1527HO4    HW2 6107   4.432   9.929   9.047
 1527HO4     MW 6108   4.370   9.856   9.079
 1528HO4     OW 6109   8.492   2.797   0.009
 1528HO4    HW1 6110   8.519   2.763   0.100
 1528HO4    HW2 6111   8.410   2.748  -0.022
 1528HO4     MW 6112   8.492   2.797   0.009
 1529HO4     OW 6113   7.602   7.435   7.712
 1529HO4    HW1 6114   7.640   7.484   7.633
 1529HO4    HW2 6115   7.551   7.355   7.680
 1529HO4     MW 6116   7.602   7.435   7.712
 1530HO4     OW 6117   4.584   4.162   4.221
 1530HO4    HW1 6118   4.548   4.209   4.302
 1530HO4    HW2 6119   4.550   4.208   4.138
 1530HO4     MW 6120   4.584   4.162   4.221
 1531HO4     OW 6121   9.096   2.114   3.669
 1531HO4    HW1 6122   9.112   2.057   3.588
 1531HO4    HW2 6123   9.116   2.060   3.752
 1531HO4     MW 6124   9.096   2.114   3.669
 1532HO4     OW 6125   3.205   8.053   9.848
 1532HO4    HW1 6126   3.193   7.969   9.902
 1532HO4    HW2 6127   3.215   8.029   9.751
 1532HO4     MW 6128   3.205   8.053   9.848
 1533HO4     OW 6129   4.138   7.061   6.537
 1533HO4    HW1 6130   4.152   6.982   6.477
 1533HO4    HW2 6131   4.144   7.146   6.484
 1533HO4     MW 6132   4.138   7.061   6.537
 1534HO4     OW 6133   2.654   3.294   9.807
 1534HO4    HW1 6134   2.716   3.274   9.884
 1534HO4    HW2 6135   2.695   3.260   9.722
 1534HO4     MW 6136   2.654   3.294   9.807
 1535HO4     OW 6137   9.810   4.245   5.066
 1535HO4    HW1 6138   9.822   4.345   5.061
 1535HO4    HW2 6139   9.899   4.200   5.067
 1535HO4     MW 6140   9.810   4.245   5.066
 1536HO4     OW 6141   7.209   1.638   1.367
 1536HO4    HW1 6142   7.111   1.621   1.354
 1536HO4    HW2 6143   7.255   1.640   1.278
 1536HO4     MW 6144   7.209   1.638   1.367
 1537HO4     OW 6145   9.045   9.787   4.904
 1537HO4    HW1 6146   9.114   9.716   4.887
 1537HO4    HW2 6147   8.999   9.811   4.818
 1537HO4     MW 6148   9.045   9.787   4.904
 1538HO4     OW 6149   9.336   1.020   8.090
 1538HO4    HW1 6150   9.359   1.043   8.185
 1538HO4    HW2 6151   9.332   1.103   8.034
 1538HO4     MW 6152   9.336   1.020   8.090
 1539HO4     OW 6153   4.328   7.426   6.434
 1539HO4    HW1 6154   4.389   7.354   6.469
 1539HO4    HW2 6155   4.301   7.487   6.509
 1539HO4     MW 6156   4.328   7.426   6.434
 1540HO4     OW 6157   2.183   0.931   0.323
 1540HO4    HW1 6158   2.204   0.877   0.240
 1540HO4    HW2 6159   2.236   0.896   0.400
 1540HO4     MW 6160   2.183   0.931   0.323
 1541HO4     OW 6161   9.791   2.855   7.021
 1541HO4    HW1 6162   9.881   2.820   6.994
 1541HO4    HW2 6163   9.741   2.784   7.071
 1541HO4     MW 6164   9.791   2.855   7.021
 1542HO4     OW 6165   3.674   5.293   2.361
 1542HO4    HW1 6166   3.744   5.365   2.350
 1542HO4    HW2 6167   3.631   5.275   2.272
 1542HO4     MW 6168   3.674   5.293   2.361
 1543HO4     OW 6169   9.043   6.767   7.882
 1543HO4    HW1 6170   9.030   6.830   7.959
 1543HO4    HW2 6171   9.018   6.814   7.796
 1543HO4     MW 6172   9.043   6.767   7.882
 1544HO4     OW 6173   0.703   0.861  10.141
 1544HO4    HW1 6174   0.712   0.786  10.076
 1544HO4    HW2 6175   0.707   0.949  10.092
 1544HO4     MW 6176   0.703   0.861  10.141
 1545HO4     OW 6177   8.997   2.959   6.613
 1545HO4    HW1 6178   9.058   2.955   6.533
 1545HO4    HW2 6179   9.026   3.035   6.672
 1545HO4     MW 6180   8.997   2.959   6.613
 1546HO4     OW 6181   1.441   8.118   7.073
 1546HO4    HW1 6182   1.362   8.084   7.124
 1546HO4    HW2 6183   1.421   8.210   7.037
 1546HO4     MW 6184   1.441   8.118   7.073
 1547HO4     OW 6185   7.910   9.935   9.991
 1547HO4    HW1 6186   7.977  10.006   9.970
 1547HO4    HW2 6187   7.939   9.884  10.073
 1547HO4     MW 6188   7.910   9.935   9.991
 1548HO4     OW 6189   7.013   9.633   1.174
 1548HO4    HW1 6190   6.979   9.706   1.114
 1548HO4    HW2 6191   6.945   9.615   1.246
 1548HO4     MW 6192   7.013   9.633   1.174
 1549HO4     OW 6193   5.089   4.028   0.930
 1549HO4    HW1 6194   5.125   4.003   1.020
 1549HO4    HW2 6195   5.144   3.984   0.859
 1549HO4     MW 6196   5.089   4.028   0.930
 1550HO4     OW 6197   9.561   7.697   0.232
 1550HO4    HW1 6198   9.610   7.754   0.166
 1550HO4    HW2 6199   9.625   7.665   0.303
 1550HO4     MW 6200   9.561   7.697   0.232
 1551HO4     OW 6201   7.479   0.323   1.459
 1551HO4    HW1 6202   7.464   0.267   1.376
 1551HO4    HW2 6203   7.394   0.328   1.512
 1551HO4     MW 6204   7.479   0.323   1.459
 1552HO4     OW 6205   1.203   4.416   2.167
 1552HO4    HW1 6206   1.173   4.510   2.187
 1552HO4    HW2 6207   1.302   4.414   2.153
 1552HO4     MW 6208   1.203   4.416   2.167
 1553HO4     OW 6209   6.795   7.571   0.154
 1553HO4    HW1 6210   6.759   7.587   0.246
 1553HO4    HW2 6211   6.728   7.601   0.086
 1553HO4     MW 6212   6.795   7.571   0.154
 1554HO4     OW 6213   3.689   4.473   4.853
 1554HO4    HW1 6214   3.748   4.450   4.775
 1554HO4    HW2 6215   3.732   4.443   4.938
 1554HO4     MW 6216   3.689   4.473   4.853
 1555HO4     OW 6217   1.145   8.561   4.706
 1555HO4    HW1 6218   1.113   8.610   4.788
 1555HO4    HW2 6219   1.118   8.612   4.624
 1555HO4     MW 6220   1.145   8.561   4.706
 1556HO4     OW 6221   0.299   1.251   2.417
 1556HO4    HW1 6222   0.219   1.223   2.364
 1556HO4    HW2 6223   0.282   1.232   2.515
 1556HO4     MW 6224   0.299   1.251   2.417
 1557HO4     OW 6225   7.343   3.749   1.373
 1557HO4    HW1 6226   7.280   3.676   1.403
 1557HO4    HW2 6227   7.394   3.784   1.451
 1557HO4     MW 6228   7.343   3.749   1.373
 1558HO4     OW 6229   5.988   5.673   4.507
 1558HO4    HW1 6230   6.047   5.706   4.433
 1558HO4    HW2 6231   6.028   5.698   4.595
 1558HO4     MW 6232   5.988   5.673   4.507
 1559HO4     OW 6233   2.217   8.188   3.760
 1559HO4    HW1 6234   2.120   8.163   3.753
 1559HO4    HW2 6235   2.235   8.268   3.702
 1559HO4     MW 6236   2.217   8.188   3.760
 1560HO4     OW 6237   8.821   9.919   4.378
 1560HO4    HW1 6238   8.856   9.844   4.436
 1560HO4    HW2 6239   8.825   9.891   4.282
 1560HO4     MW 6240   8.821   9.919   4.378
 1561HO4     OW 6241   6.310   2.671   8.600
 1561HO4    HW1 6242   6.385   2.715   8.550
 1561HO4    HW2 6243   6.276   2.734   8.671
 1561HO4     MW 6244   6.310   2.671   8.600
 1562HO4     OW 6245   9.126   2.588   2.826
 1562HO4    HW1 6246   9.146   2.665   2.887
 1562HO4    HW2 6247   9.185   2.594   2.744
 1562HO4     MW 6248   9.126   2.588   2.826
 1563HO4     OW 6249   7.071   8.490   9.863
 1563HO4    HW1 6250   7.047   8.567   9.923
 1563HO4    HW2 6251   7.116   8.525   9.780
 1563HO4     MW 6252   7.071   8.490   9.863
 1564HO4     OW 6253   2.290   9.517   7.900
 1564HO4    HW1 6254   2.216   9.580   7.875
 1564HO4    HW2 6255   2.375   9.546   7.857
 1564HO4     MW 6256   2.290   9.517   7.900
 1565HO4     OW 6257   1.454   7.881   5.323
 1565HO4    HW1 6258   1.535   7.911   5.272
 1565HO4    HW2 6259   1.473   7.793   5.368
 1565HO4     MW 6260   1.454   7.881   5.323
 1566HO4     OW 6261   6.060  10.126   1.217
 1566HO4    HW1 6262   6.008  10.045   1.186
 1566HO4    HW2 6263   6.011  10.209   1.189
 1566HO4     MW 6264   6.060  10.126   1.217
 1567HO4     OW 6265   5.460   1.084   2.137
 1567HO4    HW1 6266   5.429   1.150   2.206
 1567HO4    HW2 6267   5.467   0.993   2.180
 1567HO4     MW 6268   5.460   1.084   2.137
 1568HO4     OW 6269   3.787   4.841   9.065
 1568HO4    HW1 6270   3.755   4.837   9.160
 1568HO4    HW2 6271   3.857   4.912   9.055
 1568HO4     MW 6272   3.787   4.841   9.065
 1569HO4     OW 6273   1.597   0.639   6.816
 1569HO4    HW1 6274   1.635   0.659   6.726
 1569HO4    HW2 6275   1.533   0.562   6.809
 1569HO4     MW 6276   1.597   0.639   6.816
 1570HO4     OW 6277   8.974   3.847   6.705
 1570HO4    HW1 6278   9.053   3.787   6.721
 1570HO4    HW2 6279   8.912   3.842   6.783
 1570HO4     MW 6280   8.974   3.847   6.705
 1571HO4     OW 6281   1.959   3.723   7.740
 1571HO4    HW1 6282   1.934   3.810   7.697
 1571HO4    HW2 6283   1.935   3.726   7.838
 1571HO4     MW 6284   1.959   3.723   7.740
 1572HO4     OW 6285   6.854   4.760   9.609
 1572HO4    HW1 6286   6.904   4.731   9.690
 1572HO4    HW2 6287   6.903   4.730   9.526
 1572HO4     MW 6288   6.854   4.760   9.609
 1573HO4     OW 6289   4.954   8.594   8.569
 1573HO4    HW1 6290   4.865   8.595   8.521
 1573HO4    HW2 6291   4.965   8.679   8.621
 1573HO4     MW 6292   4.954   8.594   8.569
 1574HO4     OW 6293   8.196   5.634   6.906
 1574HO4    HW1 6294   8.265   5.668   6.970
 1574HO4    HW2 6295   8.232   5.639   6.812
 1574HO4     MW 6296   8.196   5.634   6.906
 1575HO4     OW 6297   9.274   0.305   8.789
 1575HO4    HW1 6298   9.248   0.229   8.849
 1575HO4    HW2 6299   9.197   0.369   8.780
 1575HO4     MW 6300   9.274   0.305   8.789
 1576HO4     OW 6301   5.184   5.763   3.377
 1576HO4    HW1 6302   5.126   5.713   3.443
 1576HO4    HW2 6303   5.163   5.731   3.284
 1576HO4     MW 6304   5.184   5.763   3.377
 1577HO4     OW 6305   1.151   5.437   6.496
 1577HO4    HW1 6306   1.184   5.494   6.421
 1577HO4    HW2 6307   1.195   5.466   6.582
 1577HO4     MW 6308   1.151   5.437   6.496
 1578HO4     OW 6309   2.424   4.405   3.807
 1578HO4    HW1 6310   2.468   4.443   3.725
 1578HO4    HW2 6311   2.466   4.445   3.889
 1578HO4     MW 6312   2.424   4.405   3.807
 1579HO4     OW 6313   6.602   0.501   8.960
 1579HO4    HW1 6314   6.665   0.516   9.037
 1579HO4    HW2 6315   6.655   0.499   8.874
 1579HO4     MW 6316   6.602   0.501   8.960
 1580HO4     OW 6317   6.559   4.401   3.952
 1580HO4    HW1 6318   6.476   4.346   3.937
 1580HO4    HW2 6319   6.628   4.346   3.999
 1580HO4     MW 6320   6.559   4.401   3.952
 1581HO4     OW 6321   0.166   5.675   8.392
 1581HO4    HW1 6322   0.180   5.756   8.450
 1581HO4    HW2 6323   0.070   5.672   8.361
 1581HO4     MW 6324   0.166   5.675   8.392
 1582HO4     OW 6325   9.766   8.950   4.137
 1582HO4    HW1 6326   9.844   8.989   4.187
 1582HO4    HW2 6327   9.750   9.005   4.054
 1582HO4     MW 6328   9.766   8.950   4.137
 1583HO4     OW 6329   2.904   7.567   7.554
 1583HO4    HW1 6330   2.990   7.608   7.583
 1583HO4    HW2 6331   2.922   7.497   7.484
 1583HO4     MW 6332   2.904   7.567   7.554
 1584HO4     OW 6333   5.959   1.766   3.327
 1584HO4    HW1 6334   6.024   1.744   3.254
 1584HO4    HW2 6335   5.988   1.720   3.412
 1584HO4     MW 6336   5.959   1.766   3.327
 1585HO4     OW 6337   1.513   1.060   2.823
 1585HO4    HW1 6338   1.520   0.964   2.853
 1585HO4    HW2 6339   1.491   1.062   2.725
 1585HO4     MW 6340   1.513   1.060   2.823
 1586HO4     OW 6341   8.885   1.508   4.217
 1586HO4    HW1 6342   8.842   1.465   4.297
 1586HO4    HW2 6343   8.842   1.472   4.133
 1586HO4     MW 6344   8.885   1.508   4.217
 1587HO4     OW 6345   8.000   7.948   7.041
 1587HO4    HW1 6346   7.927   7.930   6.975
 1587HO4    HW2 6347   8.070   7.877   7.033
 1587HO4     MW 6348   8.000   7.948   7.041
 1588HO4     OW 6349   9.254   7.860   9.374
 1588HO4    HW1 6350   9.210   7.936   9.423
 1588HO4    HW2 6351   9.246   7.876   9.275
 1588HO4     MW 6352   9.254   7.860   9.374
 1589HO4     OW 6353   2.279   4.174   9.350
 1589HO4    HW1 6354   2.260   4.197   9.446
 1589HO4    HW2 6355   2.250   4.250   9.292
 1589HO4     MW 6356   2.279   4.174   9.350
 1590HO4     OW 6357   5.359   4.623   4.840
 1590HO4    HW1 6358   5.389   4.640   4.934
 1590HO4    HW2 6359   5.426   4.564   4.793
 1590HO4     MW 6360   5.359   4.623   4.840
 1591HO4     OW 6361  10.008   2.603   1.413
 1591HO4    HW1 6362  10.049   2.585   1.323
 1591HO4    HW2 6363   9.994   2.702   1.424
 1591HO4     MW 6364  10.008   2.603   1.413
 1592HO4     OW 6365   7.198   3.270   5.363
 1592HO4    HW1 6366   7.260   3.286   5.440
 1592HO4    HW2 6367   7.104   3.260   5.396
 1592HO4     MW 6368   7.198   3.270   5.363
 1593HO4     OW 6369   5.364   3.533   4.315
 1593HO4    HW1 6370   5.283   3.589   4.298
 1593HO4    HW2 6371   5.342   3.436   4.301
 1593HO4     MW 6372   5.364   3.533   4.315
 1594HO4     OW 6373   9.934   3.952   8.266
 1594HO4    HW1 6374   9.940   3.905   8.354
 1594HO4    HW2 6375   9.960   3.889   8.192
 1594HO4     MW 6376   9.934   3.952   8.266
 1595HO4     OW 6377   7.706   4.162   1.935
 1595HO4    HW1 6378   7.638   4.184   1.864
 1595HO4    HW2 6379   7.689   4.220   2.016
 1595HO4     MW 6380   7.706   4.162   1.935
 1596HO4     OW 6381   3.067  10.102   4.485
 1596HO4    HW1 6382   3.096  10.198   4.496
 1596HO4    HW2 6383   3.098  10.067   4.396
 1596HO4     MW 6384   3.067  10.102   4.485
 1597HO4     OW 6385   7.322   3.872   6.087
 1597HO4    HW1 6386   7.263   3.796   6.118
 1597HO4    HW2 6387   7.266   3.939   6.037
 1597HO4     MW 6388   7.322   3.872   6.087
 1598HO4     OW 6389   5.131   1.047   1.244
 1598HO4    HW1 6390   5.222   1.052   1.203
 1598HO4    HW2 6391   5.094   1.139   1.254
 1598HO4     MW 6392   5.131   1.047   1.244
 1599HO4     OW 6393   7.884   7.332   7.428
 1599HO4    HW1 6394   7.855   7.360   7.336
 1599HO4    HW2 6395   7.923   7.240   7.424
 1599HO4     MW 6396   7.884   7.332   7.428
 1600HO4     OW 6397   0.457   9.304  10.015
 1600HO4    HW1 6398   0.504   9.219  10.040
 1600HO4    HW2 6399   0.438   9.304   9.916
 1600HO4     MW 6400   0.457   9.304  10.015
 1601HO4     OW 6401   1.252   0.270   7.691
 1601HO4    HW1 6402   1.242   0.274   7.791
 1601HO4    HW2 6403   1.317   0.340   7.661
 1601HO4     MW 6404   1.252   0.270   7.691
 1602HO4     OW 6405   1.358   1.407   9.528
 1602HO4    HW1 6406   1.449   1.409   9.571
 1602HO4    HW2 6407   1.303   1.334   9.570
 1602HO4     MW 6408   1.358   1.407   9.528
 1603HO4     OW 6409   9.949   9.599   5.904
 1603HO4    HW1 6410   9.930   9.543   5.985
 1603HO4    HW2 6411  10.042   9.579   5.870
 1603HO4     MW 6412   9.949   9.599   5.904
 1604HO4     OW 6413   9.436   3.410   8.161
 1604HO4    HW1 6414   9.448   3.465   8.244
 1604HO4    HW2 6415   9.371   3.455   8.099
 1604HO4     MW 6416   9.436   3.410   8.161
 1605HO4     OW 6417   4.077   5.659   0.978
 1605HO4    HW1 6418   4.132   5.661   0.894
 1605HO4    HW2 6419   4.138   5.665   1.058
 1605HO4     MW 6420   4.077   5.659   0.978
 1606HO4     OW 6421   7.814   8.918   0.732
 1606HO4    HW1 6422   7.742   8.957   0.790
 1606HO4    HW2 6423   7.844   8.830   0.771
 1606HO4     MW 6424   7.814   8.918   0.732
 1607HO4     OW 6425   6.198   7.077   0.449
 1607HO4    HW1 6426   6.208   7.112   0.542
 1607HO4    HW2 6427   6.161   7.149   0.389
 1607HO4     MW 6428   6.198   7.077   0.449
 1608HO4     OW 6429   2.086   9.929   2.883
 1608HO4    HW1 6430   2.162   9.881   2.838
 1608HO4    HW2 6431   2.054   9.875   2.962
 1608HO4     MW 6432   2.086   9.929   2.883
 1609HO4     OW 6433   3.744  10.062   8.580
 1609HO4    HW1 6434   3.704  10.027   8.666
 1609HO4    HW2 6435   3.671  10.080   8.514
 1609HO4     MW 6436   3.744  10.062   8.580
 1610HO4     OW 6437   8.562   9.601   1.432
 1610HO4    HW1 6438   8.592   9.555   1.516
 1610HO4    HW2 6439   8.619   9.572   1.355
 1610HO4     MW 6440   8.562   9.601   1.432
 1611HO4     OW 6441   7.514   5.969   4.372
 1611HO4    HW1 6442   7.472   5.933   4.287
 1611HO4    HW2 6443   7.466   5.930   4.451
 1611HO4     MW 6444   7.514   5.969   4.372
 1612HO4     OW 6445   0.832   1.966   5.054
 1612HO4    HW1 6446   0.867   2.022   4.978
 1612HO4    HW2 6447   0.740   1.998   5.080
 1612HO4     MW 6448   0.832   1.966   5.054
 1613HO4     OW 6449   0.882   6.422   9.691
 1613HO4    HW1 6450   0.968   6.393   9.733
 1613HO4    HW2 6451   0.826   6.470   9.760
 1613HO4     MW 6452   0.882   6.422   9.691
 1614HO4     OW 6453   8.071   2.587   8.381
 1614HO4    HW1 6454   8.058   2.539   8.294
 1614HO4    HW2 6455   8.039   2.529   8.457
 1614HO4     MW 6456   8.071   2.587   8.381
 1615HO4     OW 6457   1.233   6.257   1.292
 1615HO4    HW1 6458   1.270   6.230   1.202
 1615HO4    HW2 6459   1.266   6.193   1.362
 1615HO4     MW 6460   1.233   6.257   1.292
 1616HO4     OW 6461   6.768   2.108   5.230
 1616HO4    HW1 6462   6.729   2.176   5.168
 1616HO4    HW2 6463   6.860   2.137   5.259
 1616HO4     MW 6464   6.768   2.108   5.230
 1617HO4     OW 6465   5.895   1.902   3.165
 1617HO4    HW1 6466   5.841   1.945   3.239
 1617HO4    HW2 6467   5.835   1.884   3.086
 1617HO4     MW 6468   5.895   1.902   3.165
 1618HO4     OW 6469   9.018   4.480   7.011
 1618HO4    HW1 6470   9.006   4.533   7.095
 1618HO4    HW2 6471   8.990   4.536   6.932
 1618HO4     MW 6472   9.018   4.480   7.011
 1619HO4     OW 6473   7.232   1.498   6.104
 1619HO4    HW1 6474   7.177   1.482   6.186
 1619HO4    HW2 6475   7.171   1.521   6.027
 1619HO4     MW 6476   7.232   1.498   6.104
 1620HO4     OW 6477   2.262   6.784   3.557
 1620HO4    HW1 6478   2.211   6.823   3.480
 1620HO4    HW2 6479   2.220   6.812   3.644
 1620HO4     MW 6480   2.262   6.784   3.557
 1621HO4     OW 6481   8.147   2.693   4.822
 1621HO4    HW1 6482   8.245   2.676   4.836
 1621HO4    HW2 6483   8.133   2.738   4.733
 1621HO4     MW 6484   8.147   2.693   4.822
 1622HO4     OW 6485   5.536   1.487   5.415
 1622HO4    HW1 6486   5.546   1.537   5.501
 1622HO4    HW2 6487   5.557   1.548   5.338
 1622HO4     MW 6488   5.536   1.487   5.415
 1623HO4     OW 6489   3.095   5.650   9.384
 1623HO4    HW1 6490   3.178   5.706   9.374
 1623HO4    HW2 6491   3.037   5.688   9.456
 1623HO4     MW 6492   3.095   5.650   9.384
 1624HO4     OW 6493   1.804   5.446   0.650
 1624HO4    HW1 6494   1.798   5.407   0.558
 1624HO4    HW2 6495   1.815   5.371   0.717
 1624HO4     MW 6496   1.804   5.446   0.650
 1625HO4     OW 6497   2.593   9.521   1.334
 1625HO4    HW1 6498   2.617   9.551   1.241
 1625HO4    HW2 6499   2.506   9.563   1.361
 1625HO4     MW 6500   2.593   9.521   1.334
 1626HO4     OW 6501   5.042   9.911   0.089
 1626HO4    HW1 6502   5.063   9.870   0.000
 1626HO4    HW2 6503   5.042  10.011   0.080
 1626HO4     MW 6504   5.042   9.911   0.089
 1627HO4     OW 6505   4.568   1.648   6.043
 1627HO4    HW1 6506   4.556   1.556   6.082
 1627HO4    HW2 6507   4.597   1.640   5.947
 1627HO4     MW 6508   4.568   1.648   6.043
 1628HO4     OW 6509   7.383   5.722   4.672
 1628HO4    HW1 6510   7.348   5.767   4.589
 1628HO4    HW2 6511   7.397   5.790   4.744
 1628HO4     MW 6512   7.383   5.722   4.672
 1629HO4     OW 6513   4.096   1.002   2.342
 1629HO4    HW1 6514   4.147   0.993   2.256
 1629HO4    HW2 6515   4.005   0.960   2.331
 1629HO4     MW 6516   4.096   1.002   2.342
 1630HO4     OW 6517   9.702   5.616   8.863
 1630HO4    HW1 6518   9.676   5.707   8.894
 1630HO4    HW2 6519   9.802   5.606   8.867
 1630HO4     MW 6520   9.702   5.616   8.863
 1631HO4     OW 6521   4.726   3.310   3.826
 1631HO4    HW1 6522   4.758   3.357   3.908
 1631HO4    HW2 6523   4.640   3.353   3.795
 1631HO4     MW 6524   4.726   3.310   3.826
 1632HO4     OW 6525   4.357   0.757   0.453
 1632HO4    HW1 6526   4.370   0.733   0.550
 1632HO4    HW2 6527   4.260   0.749   0.429
 1632HO4     MW 6528   4.357   0.757   0.453
 1633HO4     OW 6529   6.689   4.565   2.476
 1633HO4    HW1 6530   6.763   4.533   2.535
 1633HO4    HW2 6531   6.720   4.566   2.380
 1633HO4     MW 6532   6.689   4.565   2.476
 1634HO4     OW 6533   0.186   6.370   8.943
 1634HO4    HW1 6534   0.224   6.333   8.858
 1634HO4    HW2 6535   0.231   6.327   9.022
 1634HO4     MW 6536   0.186   6.370   8.943
 1635HO4     OW 6537   7.749   0.682   4.991
 1635HO4    HW1 6538   7.742   0.736   4.906
 1635HO4    HW2 6539   7.845   0.662   5.010
 1635HO4     MW 6540   7.749   0.682   4.991
 1636HO4     OW 6541   3.232   7.006   5.509
 1636HO4    HW1 6542   3.157   7.000   5.443
 1636HO4    HW2 6543   3.196   7.032   5.599
 1636HO4     MW 6544   3.232   7.006   5.509
 1637HO4     OW 6545   6.935   0.314   9.752
 1637HO4    HW1 6546   6.890   0.243   9.698
 1637HO4    HW2 6547   7.029   0.286   9.774
 1637HO4     MW 6548   6.935   0.314   9.752
 1638HO4     OW 6549   3.382   6.941   2.476
 1638HO4    HW1 6550   3.313   6.873   2.449
 1638HO4    HW2 6551   3.432   6.972   2.395
 1638HO4     MW 6552   3.382   6.941   2.476
 1639HO4     OW 6553   3.874   2.800   1.019
 1639HO4    HW1 6554   3.891   2.850   1.104
 1639HO4    HW2 6555   3.911   2.852   0.941
 1639HO4     MW 6556   3.874   2.800   1.019
 1640HO4     OW 6557   3.633   4.302   8.960
 1640HO4    HW1 6558   3.549   4.247   8.967
 1640HO4    HW2 6559   3.614   4.396   8.990
 1640HO4     MW 6560   3.633   4.302   8.960
 1641HO4     OW 6561   7.496   0.205   4.972
 1641HO4    HW1 6562   7.518   0.216   4.875
 1641HO4    HW2 6563   7.559   0.139   5.014
 1641HO4     MW 6564   7.496   0.205   4.972
 1642HO4     OW 6565   2.589   5.885   2.250
 1642HO4    HW1 6566   2.688   5.892   2.232
 1642HO4    HW2 6567   2.574   5.849   2.342
 1642HO4     MW 6568   2.589   5.885   2.250
 1643HO4     OW 6569   7.023   6.233   6.181
 1643HO4    HW1 6570   7.100   6.224   6.245
 1643HO4    HW2 6571   7.003   6.144   6.139
 1643HO4     MW 6572   7.023   6.233   6.181
 1644HO4     OW 6573   8.388   7.781   8.781
 1644HO4    HW1 6574   8.331   7.766   8.862
 1644HO4    HW2 6575   8.334   7.761   8.698
 1644HO4     MW 6576   8.388   7.781   8.781
 1645HO4     OW 6577   0.790   2.730   4.757
 1645HO4    HW1 6578   0.826   2.822   4.740
 1645HO4    HW2 6579   0.727   2.733   4.836
 1645HO4     MW 6580   0.790   2.730   4.757
 1646HO4     OW 6581   8.234   8.403   7.885
 1646HO4    HW1 6582   8.154   8.435   7.834
 1646HO4    HW2 6583   8.310   8.385   7.822
 1646HO4     MW 6584   8.234   8.403   7.885
 1647HO4     OW 6585   5.168   8.612   1.222
 1647HO4    HW1 6586   5.251   8.595   1.167
 1647HO4    HW2 6587   5.193   8.662   1.305
 1647HO4     MW 6588   5.168   8.612   1.222
 1648HO4     OW 6589   3.908   9.196   6.100
 1648HO4    HW1 6590   3.818   9.152   6.105
 1648HO4    HW2 6591   3.969   9.142   6.041
 1648HO4     MW 6592   3.908   9.196   6.100
 1649HO4     OW 6593   8.784   4.125   0.771
 1649HO4    HW1 6594   8.762   4.052   0.706
 1649HO4    HW2 6595   8.881   4.149   0.763
 1649HO4     MW 6596   8.784   4.125   0.771
 1650HO4     OW 6597   8.263   5.583   5.954
 1650HO4    HW1 6598   8.222   5.624   6.035
 1650HO4    HW2 6599   8.350   5.629   5.933
 1650HO4     MW 6600   8.263   5.583   5.954
 1651HO4     OW 6601   4.037   7.281   6.962
 1651HO4    HW1 6602   4.017   7.210   6.894
 1651HO4    HW2 6603   4.011   7.248   7.054
 1651HO4     MW 6604   4.037   7.281   6.962
 1652HO4     OW 6605   1.893   6.810  10.075
 1652HO4    HW1 6606   1.859   6.721  10.045
 1652HO4    HW2 6607   1.871   6.823  10.172
 1652HO4     MW 6608   1.893   6.810  10.075
 1653HO4     OW 6609   0.371   9.257   3.710
 1653HO4    HW1 6610   0.460   9.231   3.672
 1653HO4    HW2 6611   0.352   9.204   3.793
 1653HO4     MW 6612   0.371   9.257   3.710
 1654HO4     OW 6613   6.975   0.373   2.794
 1654HO4    HW1 6614   6.905   0.425   2.744
 1654HO4    HW2 6615   7.044   0.436   2.830
 1654HO4     MW 6616   6.975   0.373   2.794
 1655HO4     OW 6617   8.512   7.540   9.396
 1655HO4    HW1 6618   8.508   7.639   9.379
 1655HO4    HW2 6619   8.433   7.511   9.450
 1655HO4     MW 6620   8.512   7.540   9.396
 1656HO4     OW 6621   2.382   3.264   7.029
 1656HO4    HW1 6622   2.416   3.356   7.006
 1656HO4    HW2 6623   2.282   3.261   7.016
 1656HO4     MW 6624   2.382   3.264   7.029
 1657HO4     OW 6625   1.669   6.184   8.227
 1657HO4    HW1 6626   1.621   6.229   8.151
 1657HO4    HW2 6627   1.623   6.208   8.313
 1657HO4     MW 6628   1.669   6.184   8.227
 1658HO4     OW 6629   5.424   3.010   6.076
 1658HO4    HW1 6630   5.437   3.063   5.991
 1658HO4    HW2 6631   5.396   3.072   6.149
 1658HO4     MW 6632   5.424   3.010   6.076
 1659HO4     OW 6633   3.380   3.997   7.815
 1659HO4    HW1 6634   3.316   4.032   7.745
 1659HO4    HW2 6635   3.422   3.912   7.782
 1659HO4     MW 6636   3.380   3.997   7.815
 1660HO4     OW 6637   3.416   2.619   2.614
 1660HO4    HW1 6638   3.406   2.563   2.696
 1660HO4    HW2 6639   3.426   2.560   2.534
 1660HO4     MW 6640   3.416   2.619   2.614
 1661HO4     OW 6641   2.476   9.533   7.124
 1661HO4    HW1 6642   2.549   9.502   7.187
 1661HO4    HW2 6643   2.515   9.545   7.032
 1661HO4     MW 6644   2.476   9.533   7.124
 1662HO4     OW 6645   0.740   9.539   8.562
 1662HO4    HW1 6646   0.769   9.445   8.545
 1662HO4    HW2 6647   0.645   9.552   8.531
 1662HO4     MW 6648   0.740   9.539   8.562
 1663HO4     OW 6649   2.223   3.350   3.524
 1663HO4    HW1 6650   2.147   3.352   3.590
 1663HO4    HW2 6651   2.196   3.402   3.442
 1663HO4     MW 6652   2.223   3.350   3.524
 1664HO4     OW 6653   6.111   3.317   6.550
 1664HO4    HW1 6654   6.149   3.286   6.463
 1664HO4    HW2 6655   6.010   3.310   6.548
 1664HO4     MW 6656   6.111   3.317   6.550
 1665HO4     OW 6657   2.030   1.822   1.221
 1665HO4    HW1 6658   2.069   1.804   1.312
 1665HO4    HW2 6659   2.028   1.921   1.204
 1665HO4     MW 6660   2.030   1.822   1.221
 1666HO4     OW 6661   6.564   4.124   4.848
 1666HO4    HW1 6662   6.634   4.080   4.792
 1666HO4    HW2 6663   6.608   4.168   4.927
 1666HO4     MW 6664   6.564   4.124   4.848
 1667HO4     OW 6665   9.966   2.859   4.366
 1667HO4    HW1 6666   9.927   2.846   4.274
 1667HO4    HW2 6667  10.053   2.810   4.374
 1667HO4     MW 6668   9.966   2.859   4.366
 1668HO4     OW 6669   4.497   9.177   9.383
 1668HO4    HW1 6670   4.539   9.266   9.366
 1668HO4    HW2 6671   4.565   9.114   9.423
 1668HO4     MW 6672   4.497   9.177   9.383
 1669HO4     OW 6673   2.582   8.691   1.198
 1669HO4    HW1 6674   2.558   8.610   1.143
 1669HO4    HW2 6675   2.657   8.668   1.261
 1669HO4     MW 6676   2.582   8.691   1.198
 1670HO4     OW 6677   5.681   7.465   7.891
 1670HO4    HW1 6678   5.749   7.475   7.964
 1670HO4    HW2 6679   5.726   7.455   7.803
 1670HO4     MW 6680   5.681   7.465   7.891
 1671HO4     OW 6681   7.166   1.948   2.680
 1671HO4    HW1 6682   7.148   1.937   2.582
 1671HO4    HW2 6683   7.086   1.919   2.732
 1671HO4     MW 6684   7.166   1.948   2.680
 1672HO4     OW 6685   3.510   3.027   3.927
 1672HO4    HW1 6686   3.571   3.027   4.008
 1672HO4    HW2 6687   3.438   2.959   3.940
 1672HO4     MW 6688   3.510   3.027   3.927
 1673HO4     OW 6689   4.001   2.977   0.035
 1673HO4    HW1 6690   3.987   3.033   0.117
 1673HO4    HW2 6691   3.931   3.000  -0.034
 1673HO4     MW 6692   4.001   2.977   0.035
 1674HO4     OW 6693   3.238   4.878   9.797
 1674HO4    HW1 6694   3.147   4.915   9.773
 1674HO4    HW2 6695   3.309   4.931   9.750
 1674HO4     MW 6696   3.238   4.878   9.797
 1675HO4     OW 6697   4.475   1.028   4.867
 1675HO4    HW1 6698   4.445   1.077   4.950
 1675HO4    HW2 6699   4.444   1.078   4.786
 1675HO4     MW 6700   4.475   1.028   4.867
 1676HO4     OW 6701   8.857   6.390   3.166
 1676HO4    HW1 6702   8.816   6.349   3.248
 1676HO4    HW2 6703   8.816   6.349   3.084
 1676HO4     MW 6704   8.857   6.390   3.166
 1677HO4     OW 6705   3.605   2.153   7.517
 1677HO4    HW1 6706   3.655   2.139   7.602
 1677HO4    HW2 6707   3.665   2.134   7.439
 1677HO4     MW 6708   3.605   2.153   7.517
 1678HO4     OW 6709   3.062   5.840   0.358
 1678HO4    HW1 6710   3.049   5.741   0.373
 1678HO4    HW2 6711   2.986   5.876   0.303
 1678HO4     MW 6712   3.062   5.840   0.358
 1679HO4     OW 6713   2.435   5.623   1.298
 1679HO4    HW1 6714   2.415   5.670   1.211
 1679HO4    HW2 6715   2.408   5.683   1.374
 1679HO4     MW 6716   2.435   5.623   1.298
 1680HO4     OW 6717   4.752   2.885   8.433
 1680HO4    HW1 6718   4.819   2.916   8.364
 1680HO4    HW2 6719   4.798   2.824   8.498
 1680HO4     MW 6720   4.752   2.885   8.433
 1681HO4     OW 6721   7.446   1.997   9.340
 1681HO4    HW1 6722   7.458   1.958   9.432
 1681HO4    HW2 6723   7.470   1.927   9.271
 1681HO4     MW 6724   7.446   1.997   9.340
 1682HO4     OW 6725   8.648   4.881   1.528
 1682HO4    HW1 6726   8.741   4.917   1.542
 1682HO4    HW2 6727   8.636   4.856   1.432
 1682HO4     MW 6728   8.648   4.881   1.528
 1683HO4     OW 6729   5.374   6.425   5.604
 1683HO4    HW1 6730   5.458   6.476   5.626
 1683HO4    HW2 6731   5.299   6.458   5.662
 1683HO4     MW 6732   5.374   6.425   5.604
 1684HO4     OW 6733   6.666   3.441   9.667
 1684HO4    HW1 6734   6.640   3.430   9.763
 1684HO4    HW2 6735   6.716   3.527   9.656
 1684HO4     MW 6736   6.666   3.441   9.667
 1685HO4     OW 6737   7.479   9.076   6.539
 1685HO4    HW1 6738   7.422   9.113   6.465
 1685HO4    HW2 6739   7.438   9.100   6.627
 1685HO4     MW 6740   7.479   9.076   6.539
 1686HO4     OW 6741   8.733   6.373   4.790
 1686HO4    HW1 6742   8.698   6.395   4.698
 1686HO4    HW2 6743   8.669   6.409   4.859
 1686HO4     MW 6744   8.733   6.373   4.790
 1687HO4     OW 6745   9.552   7.752   6.688
 1687HO4    HW1 6746   9.555   7.800   6.776
 1687HO4    HW2 6747   9.537   7.819   6.614
 1687HO4     MW 6748   9.552   7.752   6.688
 1688HO4     OW 6749   6.788   3.954   3.728
 1688HO4    HW1 6750   6.866   3.897   3.757
 1688HO4    HW2 6751   6.813   4.005   3.645
 1688HO4     MW 6752   6.788   3.954   3.728
 1689HO4     OW 6753   6.384   3.380   7.127
 1689HO4    HW1 6754   6.440   3.306   7.090
 1689HO4    HW2 6755   6.422   3.411   7.215
 1689HO4     MW 6756   6.384   3.380   7.127
 1690HO4     OW 6757   3.093   1.570   9.493
 1690HO4    HW1 6758   3.140   1.642   9.442
 1690HO4    HW2 6759   3.161   1.513   9.541
 1690HO4     MW 6760   3.093   1.570   9.493
 1691HO4     OW 6761   9.112   4.937   6.237
 1691HO4    HW1 6762   9.186   4.884   6.193
 1691HO4    HW2 6763   9.124   5.034   6.218
 1691HO4     MW 6764   9.112   4.937   6.237
 1692HO4     OW 6765   8.293   3.139   4.671
 1692HO4    HW1 6766   8.248   3.204   4.610
 1692HO4    HW2 6767   8.339   3.068   4.616
 1692HO4     MW 6768   8.293   3.139   4.671
 1693HO4     OW 6769   8.451   6.969   0.343
 1693HO4    HW1 6770   8.468   6.976   0.441
 1693HO4    HW2 6771   8.414   6.878   0.321
 1693HO4     MW 6772   8.451   6.969   0.343
 1694HO4     OW 6773   2.012   9.087   3.228
 1694HO4    HW1 6774   1.993   9.004   3.281
 1694HO4    HW2 6775   2.092   9.134   3.267
 1694HO4     MW 6776   2.012   9.087   3.228
 1695HO4     OW 6777   3.520   2.885   4.897
 1695HO4    HW1 6778   3.612   2.899   4.935
 1695HO4    HW2 6779   3.527   2.874   4.797
 1695HO4     MW 6780   3.520   2.885   4.897
 1696HO4     OW 6781   2.932   0.846   0.603
 1696HO4    HW1 6782   2.866   0.774   0.625
 1696HO4    HW2 6783   2.924   0.920   0.670
 1696HO4     MW 6784   2.932   0.846   0.603
 1697HO4     OW 6785   0.164   9.395   4.816
 1697HO4    HW1 6786   0.215   9.344   4.746
 1697HO4    HW2 6787   0.213   9.481   4.836
 1697HO4     MW 6788   0.164   9.395   4.816
 1698HO4     OW 6789   4.283   5.940   8.465
 1698HO4    HW1 6790   4.333   5.903   8.544
 1698HO4    HW2 6791   4.221   6.014   8.496
 1698HO4     MW 6792   4.283   5.940   8.465
 1699HO4     OW 6793   0.101   3.623   2.664
 1699HO4    HW1 6794   0.123   3.528   2.637
 1699HO4    HW2 6795   0.008   3.646   2.633
 1699HO4     MW 6796   0.101   3.623   2.664
 1700HO4     OW 6797   2.093   4.208   1.237
 1700HO4    HW1 6798   2.071   4.264   1.318
 1700HO4    HW2 6799   2.061   4.255   1.155
 1700HO4     MW 6800   2.093   4.208   1.237
 1701HO4     OW 6801   8.585   8.558   5.258
 1701HO4    HW1 6802   8.565   8.463   5.232
 1701HO4    HW2 6803   8.536   8.621   5.197
 1701HO4     MW 6804   8.585   8.558   5.258
 1702HO4     OW 6805   1.605   5.092   6.138
 1702HO4    HW1 6806   1.534   5.096   6.066
 1702HO4    HW2 6807   1.562   5.069   6.226
 1702HO4     MW 6808   1.605   5.092   6.138
 1703HO4     OW 6809   7.783   4.447   6.488
 1703HO4    HW1 6810   7.708   4.506   6.455
 1703HO4    HW2 6811   7.775   4.435   6.587
 1703HO4     MW 6812   7.783   4.447   6.488
 1704HO4     OW 6813   4.990   9.012   4.518
 1704HO4    HW1 6814   5.049   9.073   4.465
 1704HO4    HW2 6815   4.981   9.047   4.612
 1704HO4     MW 6816   4.990   9.012   4.518
 1705HO4     OW 6817   8.782   7.028   0.556
 1705HO4    HW1 6818   8.691   6.986   0.563
 1705HO4    HW2 6819   8.832   7.015   0.642
 1705HO4     MW 6820   8.782   7.028   0.556
 1706HO4     OW 6821   0.669   4.125   7.431
 1706HO4    HW1 6822   0.652   4.028   7.411
 1706HO4    HW2 6823   0.681   4.175   7.345
 1706HO4     MW 6824   0.669   4.125   7.431
 1707HO4     OW 6825   0.294   3.650   9.926
 1707HO4    HW1 6826   0.343   3.615  10.006
 1707HO4    HW2 6827   0.359   3.690   9.861
 1707HO4     MW 6828   0.294   3.650   9.926
 1708HO4     OW 6829   5.360   2.031   5.629
 1708HO4    HW1 6830   5.278   2.055   5.683
 1708HO4    HW2 6831   5.335   2.027   5.532
 1708HO4     MW 6832   5.360   2.031   5.629
 1709HO4     OW 6833   5.358   6.128   8.931
 1709HO4    HW1 6834   5.395   6.151   9.021
 1709HO4    HW2 6835   5.394   6.191   8.862
 1709HO4     MW 6836   5.358   6.128   8.931
 1710HO4     OW 6837   2.013   8.496   8.064
 1710HO4    HW1 6838   1.993   8.534   8.155
 1710HO4    HW2 6839   2.093   8.544   8.026
 1710HO4     MW 6840   2.013   8.496   8.064
 1711HO4     OW 6841   9.772   9.115  10.079
 1711HO4    HW1 6842   9.707   9.121  10.002
 1711HO4    HW2 6843   9.732   9.160  10.160
 1711HO4     MW 6844   9.772   9.115  10.079
 1712HO4     OW 6845   9.428   7.103   0.502
 1712HO4    HW1 6846   9.384   7.016   0.529
 1712HO4    HW2 6847   9.523   7.103   0.533
 1712HO4     MW 6848   9.428   7.103   0.502
 1713HO4     OW 6849   5.329   6.091   9.415
 1713HO4    HW1 6850   5.297   6.131   9.329
 1713HO4    HW2 6851   5.280   6.134   9.492
 1713HO4     MW 6852   5.329   6.091   9.415
 1714HO4     OW 6853   7.650   2.002   2.977
 1714HO4    HW1 6854   7.743   1.987   2.943
 1714HO4    HW2 6855   7.641   1.962   3.069
 1714HO4     MW 6856   7.650   2.002   2.977
 1715HO4     OW 6857   4.873   0.130   1.493
 1715HO4    HW1 6858   4.784   0.156   1.532
 1715HO4    HW2 6859   4.859   0.057   1.425
 1715HO4     MW 6860   4.873   0.130   1.493
 1716HO4     OW 6861   6.781   7.417   4.337
 1716HO4    HW1 6862   6.782   7.500   4.280
 1716HO4    HW2 6863   6.800   7.337   4.280
 1716HO4     MW 6864   6.781   7.417   4.337
 1717HO4     OW 6865   3.786   8.384   6.975
 1717HO4    HW1 6866   3.869   8.406   6.921
 1717HO4    HW2 6867   3.813   8.356   7.067
 1717HO4     MW 6868   3.786   8.384   6.975
 1718HO4     OW 6869   8.572   6.334   1.806
 1718HO4    HW1 6870   8.595   6.296   1.716
 1718HO4    HW2 6871   8.570   6.435   1.799
 1718HO4     MW 6872   8.572   6.334   1.806
 1719HO4     OW 6873   9.387   8.869   7.169
 1719HO4    HW1 6874   9.328   8.868   7.250
 1719HO4    HW2 6875   9.331   8.873   7.086
 1719HO4     MW 6876   9.387   8.869   7.169
 1720HO4     OW 6877   4.576   2.151   2.015
 1720HO4    HW1 6878   4.628   2.218   1.962
 1720HO4    HW2 6879   4.621   2.061   2.010
 1720HO4     MW 6880   4.576   2.151   2.015
 1721HO4     OW 6881   8.511   0.030   7.128
 1721HO4    HW1 6882   8.440   0.064   7.191
 1721HO4    HW2 6883   8.564   0.106   7.092
 1721HO4     MW 6884   8.511   0.030   7.128
 1722HO4     OW 6885   8.542   2.778   2.947
 1722HO4    HW1 6886   8.516   2.687   2.915
 1722HO4    HW2 6887   8.477   2.846   2.911
 1722HO4     MW 6888   8.542   2.778   2.947
 1723HO4     OW 6889   2.259   4.092   5.119
 1723HO4    HW1 6890   2.233   4.150   5.198
 1723HO4    HW2 6891   2.181   4.086   5.055
 1723HO4     MW 6892   2.259   4.092   5.119
 1724HO4     OW 6893   3.678   6.071  -0.013
 1724HO4    HW1 6894   3.733   6.014   0.048
 1724HO4    HW2 6895   3.585   6.080   0.024
 1724HO4     MW 6896   3.678   6.071  -0.013
 1725HO4     OW 6897   7.267   0.797   8.822
 1725HO4    HW1 6898   7.206   0.860   8.871
 1725HO4    HW2 6899   7.299   0.841   8.738
 1725HO4     MW 6900   7.267   0.797   8.822
 1726HO4     OW 6901   1.515   5.123   7.830
 1726HO4    HW1 6902   1.452   5.118   7.752
 1726HO4    HW2 6903   1.478   5.070   7.906
 1726HO4     MW 6904   1.515   5.123   7.830
 1727HO4     OW 6905   8.617   3.265   0.383
 1727HO4    HW1 6906   8.526   3.306   0.375
 1727HO4    HW2 6907   8.686   3.338   0.390
 1727HO4     MW 6908   8.617   3.265   0.383
 1728HO4     OW 6909   9.288   6.052   0.111
 1728HO4    HW1 6910   9.332   5.965   0.090
 1728HO4    HW2 6911   9.204   6.036   0.163
 1728HO4     MW 6912   9.288   6.052   0.111
 1729HO4     OW 6913   7.710   4.754   8.998
 1729HO4    HW1 6914   7.756   4.835   9.035
 1729HO4    HW2 6915   7.779   4.684   8.975
 1729HO4     MW 6916   7.710   4.754   8.998
 1730HO4     OW 6917   7.524   0.793   0.779
 1730HO4    HW1 6918   7.556   0.816   0.872
 1730HO4    HW2 6919   7.438   0.741   0.786
 1730HO4     MW 6920   7.524   0.793   0.779
 1731HO4     OW 6921   0.786   2.792   8.966
 1731HO4    HW1 6922   0.747   2.733   9.037
 1731HO4    HW2 6923   0.766   2.755   8.875
 1731HO4     MW 6924   0.786   2.792   8.966
 1732HO4     OW 6925   3.935   5.483   1.362
 1732HO4    HW1 6926   3.871   5.521   1.430
 1732HO4    HW2 6927   3.978   5.558   1.311
 1732HO4     MW 6928   3.935   5.483   1.362
 1733HO4     OW 6929   1.841   2.673   2.390
 1733HO4    HW1 6930   1.881   2.691   2.300
 1733HO4    HW2 6931   1.903   2.706   2.461
 1733HO4     MW 6932   1.841   2.673   2.390
 1734HO4     OW 6933   6.173   6.073   9.579
 1734HO4    HW1 6934   6.229   6.089   9.661
 1734HO4    HW2 6935   6.229   6.089   9.497
 1734HO4     MW 6936   6.173   6.073   9.579
 1735HO4     OW 6937   7.576   1.382   9.771
 1735HO4    HW1 6938   7.524   1.353   9.690
 1735HO4    HW2 6939   7.526   1.356   9.854
 1735HO4     MW 6940   7.576   1.382   9.771
 1736HO4     OW 6941   1.287   1.860   9.690
 1736HO4    HW1 6942   1.245   1.809   9.766
 1736HO4    HW2 6943   1.218   1.917   9.646
 1736HO4     MW 6944   1.287   1.860   9.690
 1737HO4     OW 6945   3.354   7.363   9.599
 1737HO4    HW1 6946   3.406   7.447   9.617
 1737HO4    HW2 6947   3.287   7.380   9.526
 1737HO4     MW 6948   3.354   7.363   9.599
 1738HO4     OW 6949   0.265   2.599   6.472
 1738HO4    HW1 6950   0.230   2.506   6.483
 1738HO4    HW2 6951   0.319   2.605   6.387
 1738HO4     MW 6952   0.265   2.599   6.472
 1739HO4     OW 6953   6.227   7.801   2.742
 1739HO4    HW1 6954   6.242   7.887   2.792
 1739HO4    HW2 6955   6.314   7.751   2.733
 1739HO4     MW 6956   6.227   7.801   2.742
 1740HO4     OW 6957   9.738   6.663   0.183
 1740HO4    HW1 6958   9.772   6.670   0.089
 1740HO4    HW2 6959   9.638   6.672   0.184
 1740HO4     MW 6960   9.738   6.663   0.183
 1741HO4     OW 6961   9.117   2.229   7.973
 1741HO4    HW1 6962   9.188   2.279   7.923
 1741HO4    HW2 6963   9.140   2.227   8.071
 1741HO4     MW 6964   9.117   2.229   7.973
 1742HO4     OW 6965   7.907   9.264   4.063
 1742HO4    HW1 6966   7.931   9.197   3.993
 1742HO4    HW2 6967   7.989   9.315   4.091
 1742HO4     MW 6968   7.907   9.264   4.063
 1743HO4     OW 6969   4.671   8.676   0.775
 1743HO4    HW1 6970   4.601   8.628   0.721
 1743HO4    HW2 6971   4.703   8.757   0.724
 1743HO4     MW 6972   4.671   8.676   0.775
 1744HO4     OW 6973   3.503   7.325   7.742
 1744HO4    HW1 6974   3.518   7.316   7.841
 1744HO4    HW2 6975   3.558   7.401   7.707
 1744HO4     MW 6976   3.503   7.325   7.742
 1745HO4     OW 6977   7.246   9.988   8.372
 1745HO4    HW1 6978   7.338  10.026   8.376
 1745HO4    HW2 6979   7.201  10.000   8.461
 1745HO4     MW 6980   7.246   9.988   8.372
 1746HO4     OW 6981   8.519   5.016   7.124
 1746HO4    HW1 6982   8.429   5.014   7.167
 1746HO4    HW2 6983   8.511   5.051   7.030
 1746HO4     MW 6984   8.519   5.016   7.124
 1747HO4     OW 6985   7.826   3.852   8.862
 1747HO4    HW1 6986   7.805   3.946   8.889
 1747HO4    HW2 6987   7.797   3.789   8.936
 1747HO4     MW 6988   7.826   3.852   8.862
 1748HO4     OW 6989   5.937   1.503   8.511
 1748HO4    HW1 6990   5.879   1.427   8.540
 1748HO4    HW2 6991   6.033   1.473   8.509
 1748HO4     MW 6992   5.937   1.503   8.511
 1749HO4     OW 6993   0.244   0.799   0.125
 1749HO4    HW1 6994   0.193   0.850   0.056
 1749HO4    HW2 6995   0.239   0.848   0.213
 1749HO4     MW 6996   0.244   0.799   0.125
 1750HO4     OW 6997   3.315   2.272   6.238
 1750HO4    HW1 6998   3.305   2.230   6.147
 1750HO4    HW2 6999   3.411   2.299   6.252
 1750HO4     MW 7000   3.315   2.272   6.238
 1751HO4     OW 7001   9.044   6.328   8.188
 1751HO4    HW1 7002   8.968   6.358   8.247
 1751HO4    HW2 7003   9.027   6.233   8.159
 1751HO4     MW 7004   9.044   6.328   8.188
 1752HO4     OW 7005   3.501   7.534   0.135
 1752HO4    HW1 7006   3.424   7.509   0.195
 1752HO4    HW2 7007   3.552   7.451   0.110
 1752HO4     MW 7008   3.501   7.534   0.135
 1753HO4     OW 7009   1.655   4.306   7.118
 1753HO4    HW1 7010   1.688   4.399   7.101
 1753HO4    HW2 7011   1.644   4.257   7.031
 1753HO4     MW 7012   1.655   4.306   7.118
 1754HO4     OW 7013   1.784   2.730   0.451
 1754HO4    HW1 7014   1.745   2.814   0.412
 1754HO4    HW2 7015   1.795   2.662   0.378
 1754HO4     MW 7016   1.784   2.730   0.451
 1755HO4     OW 7017   0.356   6.956   6.486
 1755HO4    HW1 7018   0.340   7.047   6.446
 1755HO4    HW2 7019   0.325   6.955   6.581
 1755HO4     MW 7020   0.356   6.956   6.486
 1756HO4     OW 7021   7.930   3.676   9.113
 1756HO4    HW1 7022   7.912   3.590   9.064
 1756HO4    HW2 7023   8.011   3.664   9.171
 1756HO4     MW 7024   7.930   3.676   9.113
 1757HO4     OW 7025   3.183   8.128   5.581
 1757HO4    HW1 7026   3.116   8.196   5.610
 1757HO4    HW2 7027   3.275   8.157   5.609
 1757HO4     MW 7028   3.183   8.128   5.581
 1758HO4     OW 7029   8.466   4.776   5.513
 1758HO4    HW1 7030   8.567   4.781   5.519
 1758HO4    HW2 7031   8.428   4.868   5.510
 1758HO4     MW 7032   8.466   4.776   5.513
 1759HO4     OW 7033   4.869   9.982   2.339
 1759HO4    HW1 7034   4.863  10.020   2.246
 1759HO4    HW2 7035   4.783   9.999   2.388
 1759HO4     MW 7036   4.869   9.982   2.339
 1760HO4     OW 7037   4.990   7.949   8.247
 1760HO4    HW1 7038   5.053   8.006   8.192
 1760HO4    HW2 7039   4.940   7.887   8.185
 1760HO4     MW 7040   4.990   7.949   8.247
 1761HO4     OW 7041   7.699   3.986   2.415
 1761HO4    HW1 7042   7.793   4.001   2.447
 1761HO4    HW2 7043   7.672   4.064   2.357
 1761HO4     MW 7044   7.699   3.986   2.415
 1762HO4     OW 7045   4.536   7.018   8.356
 1762HO4    HW1 7046   4.544   6.976   8.265
 1762HO4    HW2 7047   4.459   7.082   8.357
 1762HO4     MW 7048   4.536   7.018   8.356
 1763HO4     OW 7049   0.031   8.707   7.282
 1763HO4    HW1 7050  -0.029   8.759   7.220
 1763HO4    HW2 7051  -0.005   8.614   7.293
 1763HO4     MW 7052   0.031   8.707   7.282
 1764HO4     OW 7053   3.079   4.941   8.281
 1764HO4    HW1 7054   3.177   4.956   8.268
 1764HO4    HW2 7055   3.039   4.902   8.198
 1764HO4     MW 7056   3.079   4.941   8.281
 1765HO4     OW 7057   2.595   3.377   8.185
 1765HO4    HW1 7058   2.609   3.354   8.088
 1765HO4    HW2 7059   2.682   3.408   8.224
 1765HO4     MW 7060   2.595   3.377   8.185
 1766HO4     OW 7061   6.173  10.107   5.569
 1766HO4    HW1 7062   6.233  10.158   5.633
 1766HO4    HW2 7063   6.092  10.075   5.619
 1766HO4     MW 7064   6.173  10.107   5.569
 1767HO4     OW 7065   5.954   6.352   4.858
 1767HO4    HW1 7066   5.874   6.303   4.895
 1767HO4    HW2 7067   5.968   6.326   4.762
 1767HO4     MW 7068   5.954   6.352   4.858
 1768HO4     OW 7069   4.285   0.609   6.794
 1768HO4    HW1 7070   4.337   0.577   6.714
 1768HO4    HW2 7071   4.335   0.585   6.877
 1768HO4     MW 7072   4.285   0.609   6.794
 1769HO4     OW 7073   1.360   4.055   9.258
 1769HO4    HW1 7074   1.327   4.017   9.345
 1769HO4    HW2 7075   1.446   4.104   9.274
 1769HO4     MW 7076   1.360   4.055   9.258
 1770HO4     OW 7077   6.845   8.347   2.562
 1770HO4    HW1 7078   6.900   8.286   2.620
 1770HO4    HW2 7079   6.880   8.342   2.468
 1770HO4     MW 7080   6.845   8.347   2.562
 1771HO4     OW 7081   7.967   9.019   9.883
 1771HO4    HW1 7082   7.988   8.992   9.977
 1771HO4    HW2 7083   7.987   8.943   9.821
 1771HO4     MW 7084   7.967   9.019   9.883
 1772HO4     OW 7085   6.442   4.868   0.367
 1772HO4    HW1 7086   6.465   4.966   0.365
 1772HO4    HW2 7087   6.437   4.834   0.273
 1772HO4     MW 7088   6.442   4.868   0.367
 1773HO4     OW 7089   6.718   2.533   3.541
 1773HO4    HW1 7090   6.764   2.544   3.453
 1773HO4    HW2 7091   6.787   2.507   3.611
 1773HO4     MW 7092   6.718   2.533   3.541
 1774HO4     OW 7093   3.483   6.196   5.792
 1774HO4    HW1 7094   3.463   6.165   5.699
 1774HO4    HW2 7095   3.563   6.145   5.827
 1774HO4     MW 7096   3.483   6.196   5.792
 1775HO4     OW 7097   8.909   0.161   3.549
 1775HO4    HW1 7098   8.818   0.126   3.526
 1775HO4    HW2 7099   8.917   0.257   3.520
 1775HO4     MW 7100   8.909   0.161   3.549
 1776HO4     OW 7101   8.113   1.976   2.406
 1776HO4    HW1 7102   8.196   2.012   2.360
 1776HO4    HW2 7103   8.138   1.896   2.461
 1776HO4     MW 7104   8.113   1.976   2.406
 1777HO4     OW 7105   0.671   8.195   2.799
 1777HO4    HW1 7106   0.584   8.187   2.849
 1777HO4    HW2 7107   0.660   8.160   2.706
 1777HO4     MW 7108   0.671   8.195   2.799
 1778HO4     OW 7109   6.946   3.907   3.979
 1778HO4    HW1 7110   7.042   3.887   4.001
 1778HO4    HW2 7111   6.938   4.001   3.947
 1778HO4     MW 7112   6.946   3.907   3.979
 1779HO4     OW 7113   0.976   5.238   0.589
 1779HO4    HW1 7114   1.056   5.245   0.529
 1779HO4    HW2 7115   1.006   5.212   0.682
 1779HO4     MW 7116   0.976   5.238   0.589
 1780HO4     OW 7117   7.594   6.199   1.218
 1780HO4    HW1 7118   7.682   6.157   1.242
 1780HO4    HW2 7119   7.611   6.289   1.175
 1780HO4     MW 7120   7.594   6.199   1.218
 1781HO4     OW 7121   1.328   2.543   0.086
 1781HO4    HW1 7122   1.243   2.577   0.043
 1781HO4    HW2 7123   1.402   2.545   0.019
 1781HO4     MW 7124   1.328   2.543   0.086
 1782HO4     OW 7125   7.351   5.343   2.671
 1782HO4    HW1 7126   7.450   5.358   2.679
 1782HO4    HW2 7127   7.302   5.426   2.696
 1782HO4     MW 7128   7.351   5.343   2.671
 1783HO4     OW 7129   5.691   8.195   9.348
 1783HO4    HW1 7130   5.686   8.206   9.448
 1783HO4    HW2 7131   5.739   8.274   9.309
 1783HO4     MW 7132   5.691   8.195   9.348
 1784HO4     OW 7133   2.932   9.887   9.136
 1784HO4    HW1 7134   2.958   9.807   9.192
 1784HO4    HW2 7135   2.907   9.856   9.044
 1784HO4     MW 7136   2.932   9.887   9.136
 1785HO4     OW 7137   7.615   5.727   2.370
 1785HO4    HW1 7138   7.711   5.736   2.399
 1785HO4    HW2 7139   7.566   5.812   2.391
 1785HO4     MW 7140   7.615   5.727   2.370
 1786HO4     OW 7141   6.028   7.418   7.272
 1786HO4    HW1 7142   6.032   7.439   7.370
 1786HO4    HW2 7143   6.024   7.504   7.220
 1786HO4     MW 7144   6.028   7.418   7.272
 1787HO4     OW 7145   6.695   5.178   2.370
 1787HO4    HW1 7146   6.669   5.143   2.279
 1787HO4    HW2 7147   6.707   5.277   2.366
 1787HO4     MW 7148   6.695   5.178   2.370
 1788HO4     OW 7149   9.446   9.046   2.509
 1788HO4    HW1 7150   9.413   9.086   2.423
 1788HO4    HW2 7151   9.384   9.071   2.584
 1788HO4     MW 7152   9.446   9.046   2.509
 1789HO4     OW 7153   9.325   3.822   7.210
 1789HO4    HW1 7154   9.243   3.874   7.186
 1789HO4    HW2 7155   9.335   3.745   7.146
 1789HO4     MW 7156   9.325   3.822   7.210
 1790HO4     OW 7157   2.677   4.091   5.702
 1790HO4    HW1 7158   2.765   4.089   5.655
 1790HO4    HW2 7159   2.608   4.043   5.647
 1790HO4     MW 7160   2.677   4.091   5.702
 1791HO4     OW 7161   2.630   5.631   6.784
 1791HO4    HW1 7162   2.718   5.620   6.737
 1791HO4    HW2 7163   2.639   5.699   6.857
 1791HO4     MW 7164   2.630   5.631   6.784
 1792HO4     OW 7165   1.769   6.704   1.231
 1792HO4    HW1 7166   1.801   6.637   1.298
 1792HO4    HW2 7167   1.771   6.663   1.139
 1792HO4     MW 7168   1.769   6.704   1.231
 1793HO4     OW 7169  10.056   5.572   9.256
 1793HO4    HW1 7170  10.095   5.494   9.206
 1793HO4    HW2 7171  10.055   5.652   9.196
 1793HO4     MW 7172  10.056   5.572   9.256
 1794HO4     OW 7173   2.513   2.450   1.857
 1794HO4    HW1 7174   2.452   2.490   1.788
 1794HO4    HW2 7175   2.465   2.446   1.945
 1794HO4     MW 7176   2.513   2.450   1.857
 1795HO4     OW 7177   7.386   2.032   2.332
 1795HO4    HW1 7178   7.393   2.074   2.423
 1795HO4    HW2 7179   7.387   2.104   2.262
 1795HO4     MW 7180   7.386   2.032   2.332
 1796HO4     OW 7181   4.461  10.004   4.085
 1796HO4    HW1 7182   4.489  10.080   4.143
 1796HO4    HW2 7183   4.531   9.932   4.088
 1796HO4     MW 7184   4.461  10.004   4.085
 1797HO4     OW 7185   0.924   5.152   2.017
 1797HO4    HW1 7186   0.913   5.157   2.117
 1797HO4    HW2 7187   0.896   5.240   1.976
 1797HO4     MW 7188   0.924   5.152   2.017
 1798HO4     OW 7189   6.649   1.990  10.039
 1798HO4    HW1 7190   6.637   1.904  10.090
 1798HO4    HW2 7191   6.668   2.065  10.104
 1798HO4     MW 7192   6.649   1.990  10.039
 1799HO4     OW 7193   4.347   6.019   9.774
 1799HO4    HW1 7194   4.295   5.953   9.718
 1799HO4    HW2 7195   4.310   6.019   9.867
 1799HO4     MW 7196   4.347   6.019   9.774
 1800HO4     OW 7197   0.299   9.545   0.771
 1800HO4    HW1 7198   0.242   9.621   0.739
 1800HO4    HW2 7199   0.342   9.569   0.859
 1800HO4     MW 7200   0.299   9.545   0.771
 1801HO4     OW 7201   0.535   5.209   0.999
 1801HO4    HW1 7202   0.492   5.137   1.055
 1801HO4    HW2 7203   0.559   5.171   0.909
 1801HO4     MW 7204   0.535   5.209   0.999
 1802HO4     OW 7205  10.045   7.369   8.309
 1802HO4    HW1 7206  10.002   7.350   8.397
 1802HO4    HW2 7207   9.977   7.360   8.235
 1802HO4     MW 7208  10.045   7.369   8.309
 1803HO4     OW 7209   6.761   2.343   8.498
 1803HO4    HW1 7210   6.721   2.430   8.467
 1803HO4    HW2 7211   6.861   2.346   8.484
 1803HO4     MW 7212   6.761   2.343   8.498
 1804HO4     OW 7213   1.849   6.234   1.318
 1804HO4    HW1 7214   1.870   6.332   1.306
 1804HO4    HW2 7215   1.820   6.195   1.230
 1804HO4     MW 7216   1.849   6.234   1.318
 1805HO4     OW 7217   9.313   6.524   1.570
 1805HO4    HW1 7218   9.216   6.542   1.554
 1805HO4    HW2 7219   9.360   6.511   1.482
 1805HO4     MW 7220   9.313   6.524   1.570
 1806HO4     OW 7221   3.919   6.647   5.438
 1806HO4    HW1 7222   3.819   6.643   5.443
 1806HO4    HW2 7223   3.951   6.599   5.356
 1806HO4     MW 7224   3.919   6.647   5.438
 1807HO4     OW 7225   8.311   9.408   5.868
 1807HO4    HW1 7226   8.351   9.332   5.920
 1807HO4    HW2 7227   8.281   9.375   5.778
 1807HO4     MW 7228   8.311   9.408   5.868
 1808HO4     OW 7229   1.454   8.482   1.330
 1808HO4    HW1 7230   1.519   8.423   1.379
 1808HO4    HW2 7231   1.361   8.446   1.340
 1808HO4     MW 7232   1.454   8.482   1.330
 1809HO4     OW 7233   4.194   8.640   1.924
 1809HO4    HW1 7234   4.115   8.684   1.880
 1809HO4    HW2 7235   4.268   8.628   1.857
 1809HO4     MW 7236   4.194   8.640   1.924
 1810HO4     OW 7237   5.657   5.587   4.334
 1810HO4    HW1 7238   5.629   5.561   4.241
 1810HO4    HW2 7239   5.743   5.638   4.330
 1810HO4     MW 7240   5.657   5.587   4.334
 1811HO4     OW 7241   4.417   9.862   7.413
 1811HO4    HW1 7242   4.515   9.878   7.425
 1811HO4    HW2 7243   4.375   9.840   7.501
 1811HO4     MW 7244   4.417   9.862   7.413
 1812HO4     OW 7245   3.245   3.518   5.996
 1812HO4    HW1 7246   3.252   3.605   6.046
 1812HO4    HW2 7247   3.177   3.459   6.040
 1812HO4     MW 7248   3.245   3.518   5.996
 1813HO4     OW 7249   2.977   1.587   5.158
 1813HO4    HW1 7250   2.913   1.578   5.234
 1813HO4    HW2 7251   2.928   1.576   5.071
 1813HO4     MW 7252   2.977   1.587   5.158
 1814HO4     OW 7253   8.601   4.923   7.522
 1814HO4    HW1 7254   8.554   4.977   7.452
 1814HO4    HW2 7255   8.633   4.836   7.482
 1814HO4     MW 7256   8.601   4.923   7.522
 1815HO4     OW 7257   5.610   3.496   6.033
 1815HO4    HW1 7258   5.678   3.441   5.984
 1815HO4    HW2 7259   5.565   3.440   6.104
 1815HO4     MW 7260   5.610   3.496   6.033
 1816HO4     OW 7261   6.443   1.721   8.623
 1816HO4    HW1 7262   6.477   1.680   8.708
 1816HO4    HW2 7263   6.521   1.741   8.562
 1816HO4     MW 7264   6.443   1.721   8.623
 1817HO4     OW 7265   6.915   7.605   6.999
 1817HO4    HW1 7266   6.954   7.605   6.906
 1817HO4    HW2 7267   6.968   7.665   7.058
 1817HO4     MW 7268   6.915   7.605   6.999
 1818HO4     OW 7269   8.833   1.881   0.133
 1818HO4    HW1 7270   8.882   1.927   0.208
 1818HO4    HW2 7271   8.758   1.826   0.170
 1818HO4     MW 7272   8.833   1.881   0.133
 1819HO4     OW 7273   0.183   8.417   4.139
 1819HO4    HW1 7274   0.252   8.345   4.123
 1819HO4    HW2 7275   0.106   8.377   4.189
 1819HO4     MW 7276   0.183   8.417   4.139
 1820HO4     OW 7277   1.069   6.405   2.643
 1820HO4    HW1 7278   1.167   6.391   2.664
 1820HO4    HW2 7279   1.017   6.326   2.676
 1820HO4     MW 7280   1.069   6.405   2.643
 1821HO4     OW 7281   7.159   2.582   7.896
 1821HO4    HW1 7282   7.237   2.593   7.833
 1821HO4    HW2 7283   7.123   2.673   7.920
 1821HO4     MW 7284   7.159   2.582   7.896
 1822HO4     OW 7285   7.350   3.986   7.951
 1822HO4    HW1 7286   7.406   3.964   8.031
 1822HO4    HW2 7287   7.396   4.055   7.895
 1822HO4     MW 7288   7.350   3.986   7.951
 1823HO4     OW 7289   5.399   8.032   3.633
 1823HO4    HW1 7290   5.368   7.937   3.640
 1823HO4    HW2 7291   5.498   8.034   3.616
 1823HO4     MW 7292   5.399   8.032   3.633
 1824HO4     OW 7293   8.480   2.506   6.602
 1824HO4    HW1 7294   8.489   2.414   6.642
 1824HO4    HW2 7295   8.384   2.522   6.577
 1824HO4     MW 7296   8.480   2.506   6.602
 1825HO4     OW 7297   4.416   2.675   0.933
 1825HO4    HW1 7298   4.427   2.685   1.032
 1825HO4    HW2 7299   4.439   2.762   0.888
 1825HO4     MW 7300   4.416   2.675   0.933
 1826HO4     OW 7301   0.359   6.441   6.570
 1826HO4    HW1 7302   0.384   6.532   6.538
 1826HO4    HW2 7303   0.326   6.447   6.665
 1826HO4     MW 7304   0.359   6.441   6.570
 1827HO4     OW 7305   2.419   8.833   9.152
 1827HO4    HW1 7306   2.446   8.839   9.248
 1827HO4    HW2 7307   2.499   8.848   9.093
 1827HO4     MW 7308   2.419   8.833   9.152
 1828HO4     OW 7309   9.908   5.423   5.328
 1828HO4    HW1 7310  10.002   5.424   5.366
 1828HO4    HW2 7311   9.875   5.329   5.323
 1828HO4     MW 7312   9.908   5.423   5.328
 1829HO4     OW 7313   8.071   7.919   1.846
 1829HO4    HW1 7314   8.160   7.873   1.840
 1829HO4    HW2 7315   8.061   7.961   1.937
 1829HO4     MW 7316   8.071   7.919   1.846
 1830HO4     OW 7317   2.472   2.558   1.090
 1830HO4    HW1 7318   2.426   2.481   1.044
 1830HO4    HW2 7319   2.465   2.546   1.190
 1830HO4     MW 7320   2.472   2.558   1.090
 1831HO4     OW 7321   8.283   9.187   9.561
 1831HO4    HW1 7322   8.303   9.285   9.554
 1831HO4    HW2 7323   8.271   9.162   9.658
 1831HO4     MW 7324   8.283   9.187   9.561
 1832HO4     OW 7325   8.577   1.477   0.998
 1832HO4    HW1 7326   8.518   1.497   1.076
 1832HO4    HW2 7327   8.522   1.475   0.914
 1832HO4     MW 7328   8.577   1.477   0.998
 1833HO4     OW 7329   8.567   7.422   3.877
 1833HO4    HW1 7330   8.618   7.504   3.849
 1833HO4    HW2 7331   8.604   7.342   3.829
 1833HO4     MW 7332   8.567   7.422   3.877
 1834HO4     OW 7333   6.057   0.799   7.155
 1834HO4    HW1 7334   6.070   0.721   7.092
 1834HO4    HW2 7335   6.122   0.872   7.131
 1834HO4     MW 7336   6.057   0.799   7.155
 1835HO4     OW 7337   2.806   6.643   7.842
 1835HO4    HW1 7338   2.766   6.612   7.929
 1835HO4    HW2 7339   2.733   6.649   7.772
 1835HO4     MW 7340   2.806   6.643   7.842
 1836HO4     OW 7341   6.647   2.419   6.454
 1836HO4    HW1 7342   6.587   2.408   6.374
 1836HO4    HW2 7343   6.664   2.517   6.470
 1836HO4     MW 7344   6.647   2.419   6.454
 1837HO4     OW 7345   0.597   9.018   9.465
 1837HO4    HW1 7346   0.561   9.110   9.484
 1837HO4    HW2 7347   0.523   8.960   9.430
 1837HO4     MW 7348   0.597   9.018   9.465
 1838HO4     OW 7349   9.888   8.908   8.270
 1838HO4    HW1 7350   9.949   8.951   8.338
 1838HO4    HW2 7351   9.849   8.978   8.211
 1838HO4     MW 7352   9.888   8.908   8.270
 1839HO4     OW 7353   7.071   2.456   7.552
 1839HO4    HW1 7354   6.992   2.516   7.535
 1839HO4    HW2 7355   7.153   2.512   7.561
 1839HO4     MW 7356   7.071   2.456   7.552
 1840HO4     OW 7357   5.704   1.727   6.275
 1840HO4    HW1 7358   5.755   1.758   6.194
 1840HO4    HW2 7359   5.751   1.757   6.358
 1840HO4     MW 7360   5.704   1.727   6.275
 1841HO4     OW 7361   9.220   6.026   1.027
 1841HO4    HW1 7362   9.261   6.107   0.984
 1841HO4    HW2 7363   9.264   6.008   1.115
 1841HO4     MW 7364   9.220   6.026   1.027
 1842HO4     OW 7365   2.884   6.282   8.054
 1842HO4    HW1 7366   2.944   6.267   7.975
 1842HO4    HW2 7367   2.893   6.377   8.085
 1842HO4     MW 7368   2.884   6.282   8.054
 1843HO4     OW 7369   5.071   1.225   5.355
 1843HO4    HW1 7370   5.153   1.242   5.410
 1843HO4    HW2 7371   5.007   1.302   5.365
 1843HO4     MW 7372   5.071   1.225   5.355
 1844HO4     OW 7373   9.626   5.929   8.001
 1844HO4    HW1 7374   9.549   5.963   8.054
 1844HO4    HW2 7375   9.616   5.957   7.905
 1844HO4     MW 7376   9.626   5.929   8.001
 1845HO4     OW 7377   3.008   6.352   6.785
 1845HO4    HW1 7378   2.945   6.382   6.713
 1845HO4    HW2 7379   3.001   6.414   6.864
 1845HO4     MW 7380   3.008   6.352   6.785
 1846HO4     OW 7381   1.007   9.082   7.576
 1846HO4    HW1 7382   1.032   9.021   7.501
 1846HO4    HW2 7383   1.018   9.034   7.663
 1846HO4     MW 7384   1.007   9.082   7.576
 1847HO4     OW 7385   6.429   1.803   0.278
 1847HO4    HW1 7386   6.436   1.832   0.373
 1847HO4    HW2 7387   6.369   1.867   0.228
 1847HO4     MW 7388   6.429   1.803   0.278
 1848HO4     OW 7389   3.757   5.730   4.828
 1848HO4    HW1 7390   3.782   5.785   4.909
 1848HO4    HW2 7391   3.775   5.633   4.848
 1848HO4     MW 7392   3.757   5.730   4.828
 1849HO4     OW 7393   8.247   9.548   6.207
 1849HO4    HW1 7394   8.180   9.501   6.265
 1849HO4    HW2 7395   8.229   9.527   6.110
 1849HO4     MW 7396   8.247   9.548   6.207
 1850HO4     OW 7397   4.123   5.036   6.512
 1850HO4    HW1 7398   4.157   5.058   6.603
 1850HO4    HW2 7399   4.178   5.083   6.442
 1850HO4     MW 7400   4.123   5.036   6.512
 1851HO4     OW 7401   3.151   7.537   3.876
 1851HO4    HW1 7402   3.176   7.481   3.955
 1851HO4    HW2 7403   3.181   7.492   3.792
 1851HO4     MW 7404   3.151   7.537   3.876
 1852HO4     OW 7405   2.824   3.808   5.837
 1852HO4    HW1 7406   2.811   3.765   5.747
 1852HO4    HW2 7407   2.788   3.748   5.909
 1852HO4     MW 7408   2.824   3.808   5.837
 1853HO4     OW 7409   0.438   1.601   9.285
 1853HO4    HW1 7410   0.416   1.611   9.383
 1853HO4    HW2 7411   0.412   1.685   9.236
 1853HO4     MW 7412   0.438   1.601   9.285
 1854HO4     OW 7413   5.388   0.819   9.326
 1854HO4    HW1 7414   5.395   0.767   9.412
 1854HO4    HW2 7415   5.355   0.758   9.253
 1854HO4     MW 7416   5.388   0.819   9.326
 1855HO4     OW 7417   7.252   2.259   8.525
 1855HO4    HW1 7418   7.224   2.315   8.603
 1855HO4    HW2 7419   7.348   2.234   8.535
 1855HO4     MW 7420   7.252   2.259   8.525
 1856HO4     OW 7421   6.680   3.100   5.417
 1856HO4    HW1 7422   6.580   3.102   5.401
 1856HO4    HW2 7423   6.727   3.128   5.333
 1856HO4     MW 7424   6.680   3.100   5.417
 1857HO4     OW 7425   4.148   7.610   7.565
 1857HO4    HW1 7426   4.225   7.608   7.501
 1857HO4    HW2 7427   4.167   7.548   7.642
 1857HO4     MW 7428   4.148   7.610   7.565
 1858HO4     OW 7429   7.097   7.416   3.409
 1858HO4    HW1 7430   7.109   7.434   3.312
 1858HO4    HW2 7431   7.163   7.470   3.462
 1858HO4     MW 7432   7.097   7.416   3.409
 1859HO4     OW 7433   3.700   5.836   0.204
 1859HO4    HW1 7434   3.679   5.903   0.276
 1859HO4    HW2 7435   3.618   5.820   0.148
 1859HO4     MW 7436   3.700   5.836   0.204
 1860HO4     OW 7437   0.418   1.315   1.233
 1860HO4    HW1 7438   0.444   1.401   1.189
 1860HO4    HW2 7439   0.325   1.289   1.205
 1860HO4     MW 7440   0.418   1.315   1.233
 1861HO4     OW 7441   2.132   7.380   0.406
 1861HO4    HW1 7442   2.061   7.392   0.336
 1861HO4    HW2 7443   2.087   7.362   0.495
 1861HO4     MW 7444   2.132   7.380   0.406
 1862HO4     OW 7445   1.796   0.978   4.267
 1862HO4    HW1 7446   1.890   0.946   4.254
 1862HO4    HW2 7447   1.764   1.022   4.183
 1862HO4     MW 7448   1.796   0.978   4.267
 1863HO4     OW 7449   8.058   5.866   5.356
 1863HO4    HW1 7450   8.002   5.924   5.296
 1863HO4    HW2 7451   8.052   5.901   5.450
 1863HO4     MW 7452   8.058   5.866   5.356
 1864HO4     OW 7453   1.615   5.998   7.936
 1864HO4    HW1 7454   1.588   6.059   7.861
 1864HO4    HW2 7455   1.715   5.987   7.936
 1864HO4     MW 7456   1.615   5.998   7.936
 1865HO4     OW 7457   2.564   4.296   0.201
 1865HO4    HW1 7458   2.562   4.261   0.295
 1865HO4    HW2 7459   2.657   4.327   0.178
 1865HO4     MW 7460   2.564   4.296   0.201
 1866HO4     OW 7461   5.179   4.746   5.629
 1866HO4    HW1 7462   5.267   4.752   5.676
 1866HO4    HW2 7463   5.127   4.831   5.643
 1866HO4     MW 7464   5.179   4.746   5.629
 1867HO4     OW 7465   9.098   2.153   4.040
 1867HO4    HW1 7466   9.087   2.060   4.078
 1867HO4    HW2 7467   9.057   2.219   4.103
 1867HO4     MW 7468   9.098   2.153   4.040
 1868HO4     OW 7469   2.292   4.535   1.919
 1868HO4    HW1 7470   2.340   4.470   1.860
 1868HO4    HW2 7471   2.241   4.601   1.862
 1868HO4     MW 7472   2.292   4.535   1.919
 1869HO4     OW 7473   0.725   6.883   3.481
 1869HO4    HW1 7474   0.816   6.843   3.463
 1869HO4    HW2 7475   0.698   6.863   3.576
 1869HO4     MW 7476   0.725   6.883   3.481
 1870HO4     OW 7477   6.334   5.051   6.136
 1870HO4    HW1 7478   6.344   5.106   6.052
 1870HO4    HW2 7479   6.352   5.110   6.216
 1870HO4     MW 7480   6.334   5.051   6.136
 1871HO4     OW 7481   1.747   0.030   9.378
 1871HO4    HW1 7482   1.694   0.093   9.321
 1871HO4    HW2 7483   1.770   0.075   9.465
 1871HO4     MW 7484   1.747   0.030   9.378
 1872HO4     OW 7485   6.152   6.772   1.830
 1872HO4    HW1 7486   6.119   6.863   1.806
 1872HO4    HW2 7487   6.159   6.764   1.930
 1872HO4     MW 7488   6.152   6.772   1.830
 1873HO4     OW 7489   5.455   7.767   9.082
 1873HO4    HW1 7490   5.425   7.744   9.176
 1873HO4    HW2 7491   5.550   7.798   9.084
 1873HO4     MW 7492   5.455   7.767   9.082
 1874HO4     OW 7493   7.552   2.567   0.237
 1874HO4    HW1 7494   7.508   2.641   0.288
 1874HO4    HW2 7495   7.601   2.606   0.158
 1874HO4     MW 7496   7.552   2.567   0.237
 1875HO4     OW 7497   8.991   0.129   6.969
 1875HO4    HW1 7498   9.053   0.174   6.903
 1875HO4    HW2 7499   9.035   0.125   7.059
 1875HO4     MW 7500   8.991   0.129   6.969
 1876HO4     OW 7501   6.110   6.956   7.167
 1876HO4    HW1 7502   6.146   6.891   7.100
 1876HO4    HW2 7503   6.174   6.965   7.244
 1876HO4     MW 7504   6.110   6.956   7.167
 1877HO4     OW 7505   1.515   2.210   4.815
 1877HO4    HW1 7506   1.515   2.268   4.733
 1877HO4    HW2 7507   1.511   2.268   4.897
 1877HO4     MW 7508   1.515   2.210   4.815
 1878HO4     OW 7509   6.832   7.217   1.380
 1878HO4    HW1 7510   6.930   7.237   1.367
 1878HO4    HW2 7511   6.819   7.171   1.468
 1878HO4     MW 7512   6.832   7.217   1.380
 1879HO4     OW 7513   6.358   0.219   1.446
 1879HO4    HW1 7514   6.409   0.219   1.360
 1879HO4    HW2 7515   6.416   0.182   1.519
 1879HO4     MW 7516   6.358   0.219   1.446
 1880HO4     OW 7517   7.952   5.896   7.574
 1880HO4    HW1 7518   7.900   5.982   7.573
 1880HO4    HW2 7519   8.050   5.916   7.563
 1880HO4     MW 7520   7.952   5.896   7.574
 1881HO4     OW 7521   3.123   2.105   8.176
 1881HO4    HW1 7522   3.086   2.059   8.095
 1881HO4    HW2 7523   3.155   2.197   8.152
 1881HO4     MW 7524   3.123   2.105   8.176
 1882HO4     OW 7525   9.504   5.726   1.418
 1882HO4    HW1 7526   9.560   5.808   1.411
 1882HO4    HW2 7527   9.554   5.655   1.468
 1882HO4     MW 7528   9.504   5.726   1.418
 1883HO4     OW 7529   3.698   9.554   3.136
 1883HO4    HW1 7530   3.645   9.538   3.220
 1883HO4    HW2 7531   3.641   9.533   3.056
 1883HO4     MW 7532   3.698   9.554   3.136
 1884HO4     OW 7533   7.431   7.288   8.914
 1884HO4    HW1 7534   7.356   7.283   8.848
 1884HO4    HW2 7535   7.394   7.294   9.008
 1884HO4     MW 7536   7.431   7.288   8.914
 1885HO4     OW 7537   7.016   2.068   7.678
 1885HO4    HW1 7538   6.968   2.130   7.741
 1885HO4    HW2 7539   7.025   1.977   7.720
 1885HO4     MW 7540   7.016   2.068   7.678
 1886HO4     OW 7541   8.175   5.399   0.319
 1886HO4    HW1 7542   8.222   5.351   0.244
 1886HO4    HW2 7543   8.184   5.346   0.403
 1886HO4     MW 7544   8.175   5.399   0.319
 1887HO4     OW 7545  10.065   4.543   0.743
 1887HO4    HW1 7546   9.994   4.568   0.677
 1887HO4    HW2 7547  10.072   4.443   0.750
 1887HO4     MW 7548  10.065   4.543   0.743
 1888HO4     OW 7549   9.883   3.793   5.947
 1888HO4    HW1 7550   9.888   3.703   5.990
 1888HO4    HW2 7551   9.814   3.849   5.994
 1888HO4     MW 7552   9.883   3.793   5.947
 1889HO4     OW 7553   6.087   3.293   8.374
 1889HO4    HW1 7554   6.186   3.309   8.376
 1889HO4    HW2 7555   6.069   3.197   8.353
 1889HO4     MW 7556   6.087   3.293   8.374
 1890HO4     OW 7557   3.207   6.076   8.567
 1890HO4    HW1 7558   3.301   6.081   8.602
 1890HO4    HW2 7559   3.160   6.163   8.583
 1890HO4     MW 7560   3.207   6.076   8.567
 1891HO4     OW 7561   6.186   4.280   1.761
 1891HO4    HW1 7562   6.125   4.301   1.684
 1891HO4    HW2 7563   6.171   4.185   1.790
 1891HO4     MW 7564   6.186   4.280   1.761
 1892HO4     OW 7565   4.361   3.713   8.303
 1892HO4    HW1 7566   4.295   3.766   8.356
 1892HO4    HW2 7567   4.338   3.615   8.309
 1892HO4     MW 7568   4.361   3.713   8.303
 1893HO4     OW 7569   2.560   5.617   5.941
 1893HO4    HW1 7570   2.572   5.608   5.842
 1893HO4    HW2 7571   2.580   5.712   5.969
 1893HO4     MW 7572   2.560   5.617   5.941
 1894HO4     OW 7573   5.928   3.129   3.097
 1894HO4    HW1 7574   5.913   3.132   2.998
 1894HO4    HW2 7575   5.843   3.152   3.145
 1894HO4     MW 7576   5.928   3.129   3.097
 1895HO4     OW 7577   8.946   8.892   1.485
 1895HO4    HW1 7578   8.944   8.808   1.430
 1895HO4    HW2 7579   9.020   8.886   1.553
 1895HO4     MW 7580   8.946   8.892   1.485
 1896HO4     OW 7581   6.335   2.140   0.498
 1896HO4    HW1 7582   6.333   2.185   0.408
 1896HO4    HW2 7583   6.339   2.209   0.570
 1896HO4     MW 7584   6.335   2.140   0.498
 1897HO4     OW 7585   2.551   4.685   7.798
 1897HO4    HW1 7586   2.563   4.761   7.733
 1897HO4    HW2 7587   2.575   4.717   7.890
 1897HO4     MW 7588   2.551   4.685   7.798
 1898HO4     OW 7589   1.099   1.567   1.505
 1898HO4    HW1 7590   1.060   1.603   1.590
 1898HO4    HW2 7591   1.051   1.606   1.426
 1898HO4     MW 7592   1.099   1.567   1.505
 1899HO4     OW 7593   0.560   0.923   4.944
 1899HO4    HW1 7594   0.600   0.902   4.854
 1899HO4    HW2 7595   0.611   0.875   5.016
 1899HO4     MW 7596   0.560   0.923   4.944
 1900HO4     OW 7597   0.544   6.979   4.120
 1900HO4    HW1 7598   0.603   7.019   4.049
 1900HO4    HW2 7599   0.448   6.984   4.091
 1900HO4     MW 7600   0.544   6.979   4.120
 1901HO4     OW 7601   2.969   6.448   8.723
 1901HO4    HW1 7602   2.917   6.449   8.638
 1901HO4    HW2 7603   2.976   6.354   8.757
 1901HO4     MW 7604   2.969   6.448   8.723
 1902HO4     OW 7605   2.316   9.540   5.636
 1902HO4    HW1 7606   2.219   9.522   5.619
 1902HO4    HW2 7607   2.327   9.635   5.668
 1902HO4     MW 7608   2.316   9.540   5.636
 1903HO4     OW 7609   3.923   4.105   3.294
 1903HO4    HW1 7610   3.878   4.075   3.209
 1903HO4    HW2 7611   3.878   4.062   3.372
 1903HO4     MW 7612   3.923   4.105   3.294
 1904HO4     OW 7613   2.641   1.800   9.657
 1904HO4    HW1 7614   2.682   1.719   9.615
 1904HO4    HW2 7615   2.663   1.802   9.755
 1904HO4     MW 7616   2.641   1.800   9.657
 1905HO4     OW 7617   7.497   3.132  10.151
 1905HO4    HW1 7618   7.510   3.133  10.052
 1905HO4    HW2 7619   7.516   3.039  10.185
 1905HO4     MW 7620   7.497   3.132  10.151
 1906HO4     OW 7621   9.213   0.287   7.772
 1906HO4    HW1 7622   9.189   0.280   7.674
 1906HO4    HW2 7623   9.163   0.217   7.823
 1906HO4     MW 7624   9.213   0.287   7.772
 1907HO4     OW 7625   7.877   2.110   9.810
 1907HO4    HW1 7626   7.910   2.056   9.887
 1907HO4    HW2 7627   7.853   2.050   9.733
 1907HO4     MW 7628   7.877   2.110   9.810
 1908HO4     OW 7629   8.400   9.506   6.706
 1908HO4    HW1 7630   8.422   9.564   6.786
 1908HO4    HW2 7631   8.422   9.556   6.622
 1908HO4     MW 7632   8.400   9.506   6.706
 1909HO4     OW 7633   6.839   3.047   1.663
 1909HO4    HW1 7634   6.750   3.021   1.702
 1909HO4    HW2 7635   6.854   2.997   1.578
 1909HO4     MW 7636   6.839   3.047   1.663
 1910HO4     OW 7637   5.941   6.273  10.128
 1910HO4    HW1 7638   5.957   6.332  10.208
 1910HO4    HW2 7639   6.027   6.228  10.102
 1910HO4     MW 7640   5.941   6.273  10.128
 1911HO4     OW 7641   4.131   9.089   5.427
 1911HO4    HW1 7642   4.108   9.171   5.373
 1911HO4    HW2 7643   4.167   9.118   5.517
 1911HO4     MW 7644   4.131   9.089   5.427
 1912HO4     OW 7645   2.051   3.886   0.525
 1912HO4    HW1 7646   1.997   3.873   0.608
 1912HO4    HW2 7647   1.993   3.871   0.444
 1912HO4     MW 7648   2.051   3.886   0.525
 1913HO4     OW 7649   4.316  10.105   7.334
 1913HO4    HW1 7650   4.359  10.033   7.390
 1913HO4    HW2 7651   4.366  10.113   7.247
 1913HO4     MW 7652   4.316  10.105   7.334
 1914HO4     OW 7653   7.995   4.296   5.433
 1914HO4    HW1 7654   8.092   4.307   5.458
 1914HO4    HW2 7655   7.987   4.283   5.334
 1914HO4     MW 7656   7.995   4.296   5.433
 1915HO4     OW 7657   7.045   1.791   2.563
 1915HO4    HW1 7658   6.997   1.750   2.485
 1915HO4    HW2 7659   6.980   1.842   2.619
 1915HO4     MW 7660   7.045   1.791   2.563
 1916HO4     OW 7661   1.237   8.057   6.289
 1916HO4    HW1 7662   1.298   8.099   6.222
 1916HO4    HW2 7663   1.192   7.977   6.249
 1916HO4     MW 7664   1.237   8.057   6.289
 1917HO4     OW 7665   0.726   1.235   5.351
 1917HO4    HW1 7666   0.712   1.144   5.389
 1917HO4    HW2 7667   0.816   1.270   5.381
 1917HO4     MW 7668   0.726   1.235   5.351
 1918HO4     OW 7669   7.661   4.989   9.332
 1918HO4    HW1 7670   7.635   4.934   9.252
 1918HO4    HW2 7671   7.638   4.938   9.415
 1918HO4     MW 7672   7.661   4.989   9.332
 1919HO4     OW 7673   2.368   1.062   5.870
 1919HO4    HW1 7674   2.346   1.137   5.807
 1919HO4    HW2 7675   2.419   1.099   5.949
 1919HO4     MW 7676   2.368   1.062   5.870
 1920HO4     OW 7677   4.047   0.810   7.656
 1920HO4    HW1 7678   3.975   0.826   7.588
 1920HO4    HW2 7679   4.008   0.820   7.748
 1920HO4     MW 7680   4.047   0.810   7.656
 1921HO4     OW 7681   8.538   4.676   9.277
 1921HO4    HW1 7682   8.452   4.627   9.296
 1921HO4    HW2 7683   8.529   4.729   9.192
 1921HO4     MW 7684   8.538   4.676   9.277
 1922HO4     OW 7685   9.872   0.013   6.791
 1922HO4    HW1 7686   9.932   0.067   6.730
 1922HO4    HW2 7687   9.779   0.051   6.788
 1922HO4     MW 7688   9.872   0.013   6.791
 1923HO4     OW 7689   5.621   5.742   6.761
 1923HO4    HW1 7690   5.585   5.698   6.678
 1923HO4    HW2 7691   5.557   5.813   6.792
 1923HO4     MW 7692   5.621   5.742   6.761
 1924HO4     OW 7693   7.034   9.164   1.527
 1924HO4    HW1 7694   6.978   9.193   1.605
 1924HO4    HW2 7695   7.056   9.067   1.535
 1924HO4     MW 7696   7.034   9.164   1.527
 1925HO4     OW 7697   2.354   6.717   7.732
 1925HO4    HW1 7698   2.312   6.669   7.809
 1925HO4    HW2 7699   2.450   6.737   7.752
 1925HO4     MW 7700   2.354   6.717   7.732
 1926HO4     OW 7701   9.900   9.555   8.188
 1926HO4    HW1 7702   9.927   9.616   8.112
 1926HO4    HW2 7703   9.920   9.599   8.275
 1926HO4     MW 7704   9.900   9.555   8.188
 1927HO4     OW 7705   9.812   0.309   2.662
 1927HO4    HW1 7706   9.749   0.259   2.722
 1927HO4    HW2 7707   9.773   0.317   2.570
 1927HO4     MW 7708   9.812   0.309   2.662
 1928HO4     OW 7709   4.093   3.118   8.909
 1928HO4    HW1 7710   4.110   3.093   9.004
 1928HO4    HW2 7711   3.997   3.099   8.886
 1928HO4     MW 7712   4.093   3.118   8.909
 1929HO4     OW 7713   0.005   2.866   7.707
 1929HO4    HW1 7714   0.009   2.902   7.801
 1929HO4    HW2 7715   0.087   2.893   7.657
 1929HO4     MW 7716   0.005   2.866   7.707
 1930HO4     OW 7717   5.249   1.612   6.339
 1930HO4    HW1 7718   5.225   1.575   6.429
 1930HO4    HW2 7719   5.176   1.594   6.274
 1930HO4     MW 7720   5.249   1.612   6.339
 1931HO4     OW 7721   8.100   3.969   3.401
 1931HO4    HW1 7722   8.110   4.035   3.476
 1931HO4    HW2 7723   8.115   3.876   3.436
 1931HO4     MW 7724   8.100   3.969   3.401
 1932HO4     OW 7725   8.311   6.525   6.771
 1932HO4    HW1 7726   8.311   6.474   6.684
 1932HO4    HW2 7727   8.263   6.471   6.841
 1932HO4     MW 7728   8.311   6.525   6.771
 1933HO4     OW 7729   3.957   8.216   9.820
 1933HO4    HW1 7730   3.881   8.240   9.880
 1933HO4    HW2 7731   3.966   8.284   9.747
 1933HO4     MW 7732   3.957   8.216   9.820
 1934HO4     OW 7733   5.011   7.043   7.827
 1934HO4    HW1 7734   5.072   7.017   7.902
 1934HO4    HW2 7735   5.065   7.056   7.743
 1934HO4     MW 7736   5.011   7.043   7.827
 1935HO4     OW 7737   1.809   2.452   4.836
 1935HO4    HW1 7738   1.869   2.373   4.849
 1935HO4    HW2 7739   1.848   2.532   4.883
 1935HO4     MW 7740   1.809   2.452   4.836
 1936HO4     OW 7741   7.222   3.275   2.361
 1936HO4    HW1 7742   7.259   3.183   2.371
 1936HO4    HW2 7743   7.218   3.319   2.452
 1936HO4     MW 7744   7.222   3.275   2.361
 1937HO4     OW 7745   2.613   8.476   0.998
 1937HO4    HW1 7746   2.665   8.435   0.923
 1937HO4    HW2 7747   2.530   8.422   1.014
 1937HO4     MW 7748   2.613   8.476   0.998
 1938HO4     OW 7749   5.222   3.266   0.237
 1938HO4    HW1 7750   5.253   3.355   0.202
 1938HO4    HW2 7751   5.268   3.246   0.324
 1938HO4     MW 7752   5.222   3.266   0.237
 1939HO4     OW 7753   5.048   5.081   8.522
 1939HO4    HW1 7754   5.009   5.173   8.528
 1939HO4    HW2 7755   4.978   5.016   8.493
 1939HO4     MW 7756   5.048   5.081   8.522
 1940HO4     OW 7757   3.757   3.360   5.422
 1940HO4    HW1 7758   3.823   3.433   5.440
 1940HO4    HW2 7759   3.796   3.294   5.357
 1940HO4     MW 7760   3.757   3.360   5.422
 1941HO4     OW 7761   4.969   3.430   9.974
 1941HO4    HW1 7762   5.003   3.456  10.065
 1941HO4    HW2 7763   5.009   3.343   9.947
 1941HO4     MW 7764   4.969   3.430   9.974
 1942HO4     OW 7765   4.589   4.908   3.098
 1942HO4    HW1 7766   4.526   4.964   3.153
 1942HO4    HW2 7767   4.549   4.817   3.084
 1942HO4     MW 7768   4.589   4.908   3.098
 1943HO4     OW 7769   9.955   9.776   0.748
 1943HO4    HW1 7770  10.015   9.766   0.828
 1943HO4    HW2 7771   9.987   9.716   0.674
 1943HO4     MW 7772   9.955   9.776   0.748
 1944HO4     OW 7773   2.759   3.759   8.622
 1944HO4    HW1 7774   2.730   3.665   8.601
 1944HO4    HW2 7775   2.679   3.820   8.620
 1944HO4     MW 7776   2.759   3.759   8.622
 1945HO4     OW 7777   3.774   9.302   7.995
 1945HO4    HW1 7778   3.740   9.395   8.013
 1945HO4    HW2 7779   3.715   9.235   8.040
 1945HO4     MW 7780   3.774   9.302   7.995
 1946HO4     OW 7781   1.144   5.870   5.489
 1946HO4    HW1 7782   1.112   5.898   5.580
 1946HO4    HW2 7783   1.216   5.932   5.458
 1946HO4     MW 7784   1.144   5.870   5.489
 1947HO4     OW 7785   8.964   0.041   0.631
 1947HO4    HW1 7786   8.970   0.118   0.566
 1947HO4    HW2 7787   8.868   0.028   0.658
 1947HO4     MW 7788   8.964   0.041   0.631
 1948HO4     OW 7789   6.694   3.757   9.309
 1948HO4    HW1 7790   6.636   3.740   9.228
 1948HO4    HW2 7791   6.677   3.850   9.343
 1948HO4     MW 7792   6.694   3.757   9.309
 1949HO4     OW 7793   3.445   8.954  10.098
 1949HO4    HW1 7794   3.443   8.909  10.008
 1949HO4    HW2 7795   3.465   8.886  10.169
 1949HO4     MW 7796   3.445   8.954  10.098
 1950HO4     OW 7797   6.428   1.322   4.296
 1950HO4    HW1 7798   6.402   1.248   4.233
 1950HO4    HW2 7799   6.524   1.313   4.321
 1950HO4     MW 7800   6.428   1.322   4.296
 1951HO4     OW 7801   0.171   2.926   0.269
 1951HO4    HW1 7802   0.157   2.842   0.323
 1951HO4    HW2 7803   0.097   2.991   0.289
 1951HO4     MW 7804   0.171   2.926   0.269
 1952HO4     OW 7805   2.692   1.648   1.945
 1952HO4    HW1 7806   2.758   1.677   1.875
 1952HO4    HW2 7807   2.634   1.575   1.908
 1952HO4     MW 7808   2.692   1.648   1.945
 1953HO4     OW 7809   6.510   3.191   7.720
 1953HO4    HW1 7810   6.425   3.224   7.762
 1953HO4    HW2 7811   6.527   3.242   7.635
 1953HO4     MW 7812   6.510   3.191   7.720
 1954HO4     OW 7813   5.116   0.356   1.933
 1954HO4    HW1 7814   5.132   0.418   1.855
 1954HO4    HW2 7815   5.055   0.400   1.998
 1954HO4     MW 7816   5.116   0.356   1.933
 1955HO4     OW 7817   3.907   4.112   5.169
 1955HO4    HW1 7818   3.958   4.118   5.255
 1955HO4    HW2 7819   3.862   4.200   5.150
 1955HO4     MW 7820   3.907   4.112   5.169
 1956HO4     OW 7821   0.162   8.357   3.455
 1956HO4    HW1 7822   0.106   8.384   3.534
 1956HO4    HW2 7823   0.110   8.375   3.371
 1956HO4     MW 7824   0.162   8.357   3.455
 1957HO4     OW 7825   5.111   6.704   0.490
 1957HO4    HW1 7826   5.160   6.660   0.565
 1957HO4    HW2 7827   5.119   6.648   0.407
 1957HO4     MW 7828   5.111   6.704   0.490
 1958HO4     OW 7829   9.998   1.284   7.389
 1958HO4    HW1 7830  10.049   1.345   7.451
 1958HO4    HW2 7831   9.899   1.298   7.402
 1958HO4     MW 7832   9.998   1.284   7.389
 1959HO4     OW 7833   1.778   9.232   1.679
 1959HO4    HW1 7834   1.852   9.221   1.611
 1959HO4    HW2 7835   1.697   9.269   1.634
 1959HO4     MW 7836   1.778   9.232   1.679
 1960HO4     OW 7837   5.319   2.612   5.756
 1960HO4    HW1 7838   5.329   2.593   5.854
 1960HO4    HW2 7839   5.355   2.535   5.703
 1960HO4     MW 7840   5.319   2.612   5.756
 1961HO4     OW 7841   1.089   5.929   4.852
 1961HO4    HW1 7842   1.036   5.966   4.775
 1961HO4    HW2 7843   1.032   5.927   4.935
 1961HO4     MW 7844   1.089   5.929   4.852
 1962HO4     OW 7845  10.041   6.016   5.383
 1962HO4    HW1 7846  10.048   6.032   5.284
 1962HO4    HW2 7847  10.067   5.922   5.404
 1962HO4     MW 7848  10.041   6.016   5.383
 1963HO4     OW 7849   6.678   1.249   3.333
 1963HO4    HW1 7850   6.766   1.297   3.334
 1963HO4    HW2 7851   6.686   1.165   3.279
 1963HO4     MW 7852   6.678   1.249   3.333
 1964HO4     OW 7853   4.941   3.488   9.695
 1964HO4    HW1 7854   4.846   3.479   9.665
 1964HO4    HW2 7855   4.998   3.517   9.617
 1964HO4     MW 7856   4.941   3.488   9.695
 1965HO4     OW 7857   6.905   6.694   9.808
 1965HO4    HW1 7858   6.882   6.782   9.851
 1965HO4    HW2 7859   6.898   6.620   9.877
 1965HO4     MW 7860   6.905   6.694   9.808
 1966HO4     OW 7861   9.489   6.293   8.632
 1966HO4    HW1 7862   9.455   6.387   8.645
 1966HO4    HW2 7863   9.505   6.276   8.535
 1966HO4     MW 7864   9.489   6.293   8.632
 1967HO4     OW 7865   0.592   0.324   3.810
 1967HO4    HW1 7866   0.615   0.296   3.904
 1967HO4    HW2 7867   0.674   0.319   3.753
 1967HO4     MW 7868   0.592   0.324   3.810
 1968HO4     OW 7869   3.070   5.252   9.366
 1968HO4    HW1 7870   3.080   5.274   9.268
 1968HO4    HW2 7871   3.127   5.314   9.420
 1968HO4     MW 7872   3.070   5.252   9.366
 1969HO4     OW 7873   2.914   5.163   0.672
 1969HO4    HW1 7874   2.841   5.199   0.612
 1969HO4    HW2 7875   2.935   5.069   0.645
 1969HO4     MW 7876   2.914   5.163   0.672
 1970HO4     OW 7877   3.579   8.944   1.461
 1970HO4    HW1 7878   3.641   8.906   1.530
 1970HO4    HW2 7879   3.597   9.042   1.449
 1970HO4     MW 7880   3.579   8.944   1.461
 1971HO4     OW 7881   4.469   0.911   3.586
 1971HO4    HW1 7882   4.408   0.832   3.601
 1971HO4    HW2 7883   4.554   0.898   3.637
 1971HO4     MW 7884   4.469   0.911   3.586
 1972HO4     OW 7885   7.034   2.078   6.688
 1972HO4    HW1 7886   6.997   2.142   6.620
 1972HO4    HW2 7887   6.962   2.012   6.714
 1972HO4     MW 7888   7.034   2.078   6.688
 1973HO4     OW 7889   0.730   7.155   9.774
 1973HO4    HW1 7890   0.728   7.177   9.872
 1973HO4    HW2 7891   0.805   7.205   9.730
 1973HO4     MW 7892   0.730   7.155   9.774
 1974HO4     OW 7893   7.033   9.834   9.487
 1974HO4    HW1 7894   7.077   9.860   9.401
 1974HO4    HW2 7895   7.069   9.746   9.518
 1974HO4     MW 7896   7.033   9.834   9.487
 1975HO4     OW 7897   5.941   0.912   1.855
 1975HO4    HW1 7898   5.896   0.831   1.894
 1975HO4    HW2 7899   5.881   0.955   1.787
 1975HO4     MW 7900   5.941   0.912   1.855
 1976HO4     OW 7901   9.635   6.909   0.664
 1976HO4    HW1 7902   9.724   6.935   0.703
 1976HO4    HW2 7903   9.620   6.957   0.578
 1976HO4     MW 7904   9.635   6.909   0.664
 1977HO4     OW 7905   7.347   5.757   9.051
 1977HO4    HW1 7906   7.363   5.834   8.989
 1977HO4    HW2 7907   7.248   5.742   9.060
 1977HO4     MW 7908   7.347   5.757   9.051
 1978HO4     OW 7909   2.800   8.762   4.583
 1978HO4    HW1 7910   2.810   8.799   4.675
 1978HO4    HW2 7911   2.859   8.813   4.520
 1978HO4     MW 7912   2.800   8.762   4.583
 1979HO4     OW 7913   3.514   2.216   3.046
 1979HO4    HW1 7914   3.530   2.152   2.970
 1979HO4    HW2 7915   3.482   2.165   3.126
 1979HO4     MW 7916   3.514   2.216   3.046
 1980HO4     OW 7917   9.243   7.036   3.970
 1980HO4    HW1 7918   9.303   7.037   3.889
 1980HO4    HW2 7919   9.291   6.992   4.046
 1980HO4     MW 7920   9.243   7.036   3.970
 1981HO4     OW 7921   7.589   9.587   6.650
 1981HO4    HW1 7922   7.600   9.640   6.735
 1981HO4    HW2 7923   7.568   9.650   6.574
 1981HO4     MW 7924   7.589   9.587   6.650
 1982HO4     OW 7925   3.550   7.099   7.986
 1982HO4    HW1 7926   3.565   7.000   7.998
 1982HO4    HW2 7927   3.562   7.145   8.075
 1982HO4     MW 7928   3.550   7.099   7.986
 1983HO4     OW 7929   5.703   1.014   3.430
 1983HO4    HW1 7930   5.677   1.042   3.337
 1983HO4    HW2 7931   5.632   1.044   3.494
 1983HO4     MW 7932   5.703   1.014   3.430
 1984HO4     OW 7933   0.462   1.864   1.403
 1984HO4    HW1 7934   0.396   1.939   1.389
 1984HO4    HW2 7935   0.458   1.801   1.325
 1984HO4     MW 7936   0.462   1.864   1.403
 1985HO4     OW 7937   2.583   8.412   3.550
 1985HO4    HW1 7938   2.628   8.355   3.482
 1985HO4    HW2 7939   2.486   8.385   3.558
 1985HO4     MW 7940   2.583   8.412   3.550
 1986HO4     OW 7941   8.401   7.500   7.791
 1986HO4    HW1 7942   8.360   7.413   7.820
 1986HO4    HW2 7943   8.328   7.567   7.773
 1986HO4     MW 7944   8.401   7.500   7.791
 1987HO4     OW 7945   1.073   6.635   7.994
 1987HO4    HW1 7946   1.090   6.537   8.000
 1987HO4    HW2 7947   1.116   6.682   8.072
 1987HO4     MW 7948   1.073   6.635   7.994
 1988HO4     OW 7949   5.723   3.045   7.942
 1988HO4    HW1 7950   5.794   3.108   7.975
 1988HO4    HW2 7951   5.756   2.998   7.860
 1988HO4     MW 7952   5.723   3.045   7.942
 1989HO4     OW 7953   3.238   5.920  10.050
 1989HO4    HW1 7954   3.166   5.985  10.075
 1989HO4    HW2 7955   3.267   5.937   9.955
 1989HO4     MW 7956   3.238   5.920  10.050
 1990HO4     OW 7957   8.019   8.475   6.322
 1990HO4    HW1 7958   8.061   8.405   6.264
 1990HO4    HW2 7959   7.929   8.444   6.353
 1990HO4     MW 7960   8.019   8.475   6.322
 1991HO4     OW 7961   4.584   1.966   3.635
 1991HO4    HW1 7962   4.655   1.978   3.564
 1991HO4    HW2 7963   4.603   1.882   3.687
 1991HO4     MW 7964   4.584   1.966   3.635
 1992HO4     OW 7965   7.097   6.288  10.104
 1992HO4    HW1 7966   7.190   6.263  10.076
 1992HO4    HW2 7967   7.033   6.218  10.071
 1992HO4     MW 7968   7.097   6.288  10.104
 1993HO4     OW 7969   0.387   4.738   5.337
 1993HO4    HW1 7970   0.343   4.667   5.282
 1993HO4    HW2 7971   0.487   4.722   5.339
 1993HO4     MW 7972   0.387   4.738   5.337
 1994HO4     OW 7973   8.364   0.737   2.865
 1994HO4    HW1 7974   8.303   0.812   2.840
 1994HO4    HW2 7975   8.318   0.650   2.850
 1994HO4     MW 7976   8.364   0.737   2.865
 1995HO4     OW 7977   0.858   5.549   7.182
 1995HO4    HW1 7978   0.901   5.521   7.269
 1995HO4    HW2 7979   0.805   5.472   7.145
 1995HO4     MW 7980   0.858   5.549   7.182
 1996HO4     OW 7981   1.743   4.890   4.736
 1996HO4    HW1 7982   1.685   4.943   4.799
 1996HO4    HW2 7983   1.712   4.906   4.642
 1996HO4     MW 7984   1.743   4.890   4.736
 1997HO4     OW 7985   8.634   2.424   7.234
 1997HO4    HW1 7986   8.630   2.346   7.171
 1997HO4    HW2 7987   8.549   2.428   7.288
 1997HO4     MW 7988   8.634   2.424   7.234
 1998HO4     OW 7989   7.281   5.049   9.566
 1998HO4    HW1 7990   7.244   4.962   9.601
 1998HO4    HW2 7991   7.380   5.039   9.551
 1998HO4     MW 7992   7.281   5.049   9.566
 1999HO4     OW 7993   2.107   2.145  10.108
 1999HO4    HW1 7994   2.152   2.064  10.069
 1999HO4    HW2 7995   2.098   2.133  10.207
 1999HO4     MW 7996   2.107   2.145  10.108
 2000HO4     OW 7997   9.186   4.196   1.922
 2000HO4    HW1 7998   9.137   4.152   1.998
 2000HO4    HW2 7999   9.285   4.191   1.938
 2000HO4     MW 8000   9.186   4.196   1.922
 2001HO4     OW 8001   6.774   0.625   6.745
 2001HO4    HW1 8002   6.767   0.715   6.790
 2001HO4    HW2 8003   6.683   0.583   6.739
 2001HO4     MW 8004   6.774   0.625   6.745
 2002HO4     OW 8005   0.098   1.014   9.848
 2002HO4    HW1 8006   0.194   0.992   9.826
 2002HO4    HW2 8007   0.077   0.985   9.941
 2002HO4     MW 8008   0.098   1.014   9.848
 2003HO4     OW 8009   0.729   2.249   7.747
 2003HO4    HW1 8010   0.800   2.217   7.683
 2003HO4    HW2 8011   0.682   2.329   7.708
 2003HO4     MW 8012   0.729   2.249   7.747
 2004HO4     OW 8013   3.578   1.953   4.827
 2004HO4    HW1 8014   3.550   2.042   4.863
 2004HO4    HW2 8015   3.525   1.933   4.743
 2004HO4     MW 8016   3.578   1.953   4.827
 2005HO4     OW 8017   5.959   0.124   9.784
 2005HO4    HW1 8018   6.047   0.111   9.832
 2005HO4    HW2 8019   5.975   0.170   9.696
 2005HO4     MW 8020   5.959   0.124   9.784
 2006HO4     OW 8021   4.973   6.119   1.486
 2006HO4    HW1 8022   5.066   6.085   1.469
 2006HO4    HW2 8023   4.924   6.054   1.544
 2006HO4     MW 8024   4.973   6.119   1.486
 2007HO4     OW 8025   7.590   4.624   0.129
 2007HO4    HW1 8026   7.625   4.591   0.217
 2007HO4    HW2 8027   7.662   4.678   0.083
 2007HO4     MW 8028   7.590   4.624   0.129
 2008HO4     OW 8029   7.376   2.733   9.465
 2008HO4    HW1 8030   7.308   2.764   9.399
 2008HO4    HW2 8031   7.405   2.639   9.442
 2008HO4     MW 8032   7.376   2.733   9.465
 2009HO4     OW 8033   9.393   0.212   3.787
 2009HO4    HW1 8034   9.327   0.138   3.768
 2009HO4    HW2 8035   9.361   0.266   3.865
 2009HO4     MW 8036   9.393   0.212   3.787
 2010HO4     OW 8037   6.896   6.206   5.053
 2010HO4    HW1 8038   6.915   6.196   5.152
 2010HO4    HW2 8039   6.809   6.162   5.031
 2010HO4     MW 8040   6.896   6.206   5.053
 2011HO4     OW 8041   7.611   7.157   9.054
 2011HO4    HW1 8042   7.511   7.166   9.057
 2011HO4    HW2 8043   7.651   7.202   9.135
 2011HO4     MW 8044   7.611   7.157   9.054
 2012HO4     OW 8045   0.682   3.550   4.142
 2012HO4    HW1 8046   0.715   3.474   4.200
 2012HO4    HW2 8047   0.761   3.601   4.107
 2012HO4     MW 8048   0.682   3.550   4.142
 2013HO4     OW 8049   6.271   9.528   8.271
 2013HO4    HW1 8050   6.327   9.577   8.338
 2013HO4    HW2 8051   6.330   9.490   8.199
 2013HO4     MW 8052   6.271   9.528   8.271
 2014HO4     OW 8053   7.617   6.365   7.743
 2014HO4    HW1 8054   7.533   6.381   7.690
 2014HO4    HW2 8055   7.613   6.274   7.785
 2014HO4     MW 8056   7.617   6.365   7.743
 2015HO4     OW 8057   8.205   8.700   4.387
 2015HO4    HW1 8058   8.278   8.658   4.333
 2015HO4    HW2 8059   8.236   8.789   4.422
 2015HO4     MW 8060   8.205   8.700   4.387
 2016HO4     OW 8061   8.291   3.112   3.752
 2016HO4    HW1 8062   8.244   3.151   3.832
 2016HO4    HW2 8063   8.332   3.023   3.777
 2016HO4     MW 8064   8.291   3.112   3.752
 2017HO4     OW 8065   2.087   9.205   2.471
 2017HO4    HW1 8066   2.104   9.160   2.559
 2017HO4    HW2 8067   2.143   9.162   2.400
 2017HO4     MW 8068   2.087   9.205   2.471
 2018HO4     OW 8069   6.014   1.479   1.184
 2018HO4    HW1 8070   6.039   1.524   1.270
 2018HO4    HW2 8071   5.990   1.383   1.203
 2018HO4     MW 8072   6.014   1.479   1.184
 2019HO4     OW 8073   6.665   7.637   3.810
 2019HO4    HW1 8074   6.630   7.682   3.893
 2019HO4    HW2 8075   6.647   7.695   3.730
 2019HO4     MW 8076   6.665   7.637   3.810
 2020HO4     OW 8077   3.636   4.203   1.178
 2020HO4    HW1 8078   3.607   4.259   1.256
 2020HO4    HW2 8079   3.595   4.238   1.094
 2020HO4     MW 8080   3.636   4.203   1.178
 2021HO4     OW 8081   3.309   1.766   0.152
 2021HO4    HW1 8082   3.279   1.715   0.070
 2021HO4    HW2 8083   3.308   1.705   0.231
 2021HO4     MW 8084   3.309   1.766   0.152
 2022HO4     OW 8085  10.030   8.374   9.416
 2022HO4    HW1 8086  10.059   8.427   9.336
 2022HO4    HW2 8087   9.945   8.412   9.452
 2022HO4     MW 8088  10.030   8.374   9.416
 2023HO4     OW 8089   0.520   8.668   5.998
 2023HO4    HW1 8090   0.513   8.610   6.079
 2023HO4    HW2 8091   0.519   8.611   5.915
 2023HO4     MW 8092   0.520   8.668   5.998
 2024HO4     OW 8093   1.045   3.786   7.118
 2024HO4    HW1 8094   1.102   3.780   7.035
 2024HO4    HW2 8095   1.100   3.820   7.194
 2024HO4     MW 8096   1.045   3.786   7.118
 2025HO4     OW 8097   8.993   2.467   1.203
 2025HO4    HW1 8098   8.989   2.424   1.113
 2025HO4    HW2 8099   8.927   2.423   1.265
 2025HO4     MW 8100   8.993   2.467   1.203
 2026HO4     OW 8101   4.414   1.226   9.745
 2026HO4    HW1 8102   4.365   1.282   9.812
 2026HO4    HW2 8103   4.498   1.273   9.717
 2026HO4     MW 8104   4.414   1.226   9.745
 2027HO4     OW 8105   9.465   8.043   1.442
 2027HO4    HW1 8106   9.469   8.103   1.362
 2027HO4    HW2 8107   9.387   7.981   1.434
 2027HO4     MW 8108   9.465   8.043   1.442
 2028HO4     OW 8109   9.346   7.432   3.608
 2028HO4    HW1 8110   9.340   7.444   3.508
 2028HO4    HW2 8111   9.339   7.522   3.652
 2028HO4     MW 8112   9.346   7.432   3.608
 2029HO4     OW 8113   8.533   1.265   6.309
 2029HO4    HW1 8114   8.575   1.235   6.396
 2029HO4    HW2 8115   8.599   1.251   6.234
 2029HO4     MW 8116   8.533   1.265   6.309
 2030HO4     OW 8117   5.463   9.037   5.238
 2030HO4    HW1 8118   5.508   9.071   5.321
 2030HO4    HW2 8119   5.505   9.081   5.157
 2030HO4     MW 8120   5.463   9.037   5.238
 2031HO4     OW 8121   9.785   9.522   2.279
 2031HO4    HW1 8122   9.800   9.514   2.378
 2031HO4    HW2 8123   9.832   9.447   2.232
 2031HO4     MW 8124   9.785   9.522   2.279
 2032HO4     OW 8125   0.731   9.952   9.373
 2032HO4    HW1 8126   0.705   9.992   9.285
 2032HO4    HW2 8127   0.654   9.958   9.437
 2032HO4     MW 8128   0.731   9.952   9.373
 2033HO4     OW 8129   9.356   3.185   1.596
 2033HO4    HW1 8130   9.394   3.205   1.506
 2033HO4    HW2 8131   9.430   3.183   1.664
 2033HO4     MW 8132   9.356   3.185   1.596
 2034HO4     OW 8133   1.338   6.027   6.011
 2034HO4    HW1 8134   1.264   5.960   6.021
 2034HO4    HW2 8135   1.404   5.993   5.944
 2034HO4     MW 8136   1.338   6.027   6.011
 2035HO4     OW 8137   8.948   1.999   9.262
 2035HO4    HW1 8138   8.959   1.899   9.259
 2035HO4    HW2 8139   9.035   2.042   9.287
 2035HO4     MW 8140   8.948   1.999   9.262
 2036HO4     OW 8141   4.473   8.139   7.489
 2036HO4    HW1 8142   4.536   8.166   7.416
 2036HO4    HW2 8143   4.519   8.073   7.550
 2036HO4     MW 8144   4.473   8.139   7.489
 2037HO4     OW 8145   1.291  10.174   9.111
 2037HO4    HW1 8146   1.366  10.108   9.100
 2037HO4    HW2 8147   1.229  10.168   9.032
 2037HO4     MW 8148   1.291  10.174   9.111
 2038HO4     OW 8149   1.854   5.915   2.239
 2038HO4    HW1 8150   1.806   5.833   2.207
 2038HO4    HW2 8151   1.796   5.967   2.302
 2038HO4     MW 8152   1.854   5.915   2.239
 2039HO4     OW 8153   6.277   7.102   9.128
 2039HO4    HW1 8154   6.191   7.104   9.180
 2039HO4    HW2 8155   6.311   7.008   9.123
 2039HO4     MW 8156   6.277   7.102   9.128
 2040HO4     OW 8157   0.957   8.649   0.162
 2040HO4    HW1 8158   0.971   8.654   0.063
 2040HO4    HW2 8159   1.046   8.651   0.209
 2040HO4     MW 8160   0.957   8.649   0.162
 2041HO4     OW 8161   1.757   1.650   0.516
 2041HO4    HW1 8162   1.841   1.597   0.509
 2041HO4    HW2 8163   1.680   1.595   0.483
 2041HO4     MW 8164   1.757   1.650   0.516
 2042HO4     OW 8165   7.331   8.597   4.735
 2042HO4    HW1 8166   7.409   8.553   4.781
 2042HO4    HW2 8167   7.347   8.598   4.635
 2042HO4     MW 8168   7.331   8.597   4.735
 2043HO4     OW 8169   0.710   1.295   2.420
 2043HO4    HW1 8170   0.794   1.297   2.364
 2043HO4    HW2 8171   0.655   1.215   2.396
 2043HO4     MW 8172   0.710   1.295   2.420
 2044HO4     OW 8173   9.128   0.167   2.019
 2044HO4    HW1 8174   9.174   0.137   2.104
 2044HO4    HW2 8175   9.133   0.267   2.012
 2044HO4     MW 8176   9.128   0.167   2.019
 2045HO4     OW 8177  -0.013   1.636   0.227
 2045HO4    HW1 8178  -0.001   1.570   0.152
 2045HO4    HW2 8179   0.064   1.627   0.292
 2045HO4     MW 8180  -0.013   1.636   0.227
 2046HO4     OW 8181   8.036   9.599   6.951
 2046HO4    HW1 8182   8.014   9.657   7.030
 2046HO4    HW2 8183   8.099   9.647   6.890
 2046HO4     MW 8184   8.036   9.599   6.951
 2047HO4     OW 8185   5.783   9.733   8.882
 2047HO4    HW1 8186   5.820   9.795   8.952
 2047HO4    HW2 8187   5.823   9.757   8.793
 2047HO4     MW 8188   5.783   9.733   8.882
 2048HO4     OW 8189   8.380   9.505   5.199
 2048HO4    HW1 8190   8.303   9.447   5.171
 2048HO4    HW2 8191   8.428   9.540   5.118
 2048HO4     MW 8192   8.380   9.505   5.199
 2049HO4     OW 8193   8.328   0.426   1.578
 2049HO4    HW1 8194   8.418   0.469   1.592
 2049HO4    HW2 8195   8.279   0.476   1.506
 2049HO4     MW 8196   8.328   0.426   1.578
 2050HO4     OW 8197   9.390   6.732   0.270
 2050HO4    HW1 8198   9.298   6.702   0.244
 2050HO4    HW2 8199   9.390   6.832   0.283
 2050HO4     MW 8200   9.390   6.732   0.270
 2051HO4     OW 8201   0.570  10.067   6.137
 2051HO4    HW1 8202   0.479  10.055   6.095
 2051HO4    HW2 8203   0.575  10.014   6.221
 2051HO4     MW 8204   0.570  10.067   6.137
 2052HO4     OW 8205   8.759   5.084   9.991
 2052HO4    HW1 8206   8.724   5.095   9.897
 2052HO4    HW2 8207   8.854   5.053   9.988
 2052HO4     MW 8208   8.759   5.084   9.991
 2053HO4     OW 8209   4.529   4.065   3.237
 2053HO4    HW1 8210   4.624   4.042   3.259
 2053HO4    HW2 8211   4.492   4.127   3.307
 2053HO4     MW 8212   4.529   4.065   3.237
 2054HO4     OW 8213   1.487   3.886   9.675
 2054HO4    HW1 8214   1.492   3.930   9.765
 2054HO4    HW2 8215   1.400   3.837   9.667
 2054HO4     MW 8216   1.487   3.886   9.675
 2055HO4     OW 8217   3.238   1.147   5.846
 2055HO4    HW1 8218   3.280   1.179   5.931
 2055HO4    HW2 8219   3.296   1.174   5.768
 2055HO4     MW 8220   3.238   1.147   5.846
 2056HO4     OW 8221   1.268   1.508   5.020
 2056HO4    HW1 8222   1.325   1.430   4.995
 2056HO4    HW2 8223   1.271   1.522   5.120
 2056HO4     MW 8224   1.268   1.508   5.020
 2057HO4     OW 8225   8.370   6.144   2.937
 2057HO4    HW1 8226   8.376   6.146   2.837
 2057HO4    HW2 8227   8.441   6.082   2.973
 2057HO4     MW 8228   8.370   6.144   2.937
 2058HO4     OW 8229   8.644   4.577   6.707
 2058HO4    HW1 8230   8.604   4.502   6.653
 2058HO4    HW2 8231   8.744   4.576   6.697
 2058HO4     MW 8232   8.644   4.577   6.707
 2059HO4     OW 8233   7.407   2.318   0.866
 2059HO4    HW1 8234   7.438   2.298   0.772
 2059HO4    HW2 8235   7.383   2.415   0.873
 2059HO4     MW 8236   7.407   2.318   0.866
 2060HO4     OW 8237   2.395   6.651   5.853
 2060HO4    HW1 8238   2.431   6.672   5.944
 2060HO4    HW2 8239   2.471   6.651   5.787
 2060HO4     MW 8240   2.395   6.651   5.853
 2061HO4     OW 8241   6.803   0.159   9.460
 2061HO4    HW1 8242   6.768   0.103   9.535
 2061HO4    HW2 8243   6.798   0.107   9.374
 2061HO4     MW 8244   6.803   0.159   9.460
 2062HO4     OW 8245   7.101   2.920   2.388
 2062HO4    HW1 8246   7.065   2.864   2.313
 2062HO4    HW2 8247   7.095   2.869   2.474
 2062HO4     MW 8248   7.101   2.920   2.388
 2063HO4     OW 8249   7.827   7.786   7.091
 2063HO4    HW1 8250   7.744   7.735   7.115
 2063HO4    HW2 8251   7.862   7.755   7.002
 2063HO4     MW 8252   7.827   7.786   7.091
 2064HO4     OW 8253   4.061   4.551   6.128
 2064HO4    HW1 8254   4.096   4.588   6.042
 2064HO4    HW2 8255   4.119   4.581   6.204
 2064HO4     MW 8256   4.061   4.551   6.128
 2065HO4     OW 8257   8.582   3.405   0.006
 2065HO4    HW1 8258   8.604   3.445   0.096
 2065HO4    HW2 8259   8.486   3.424  -0.016
 2065HO4     MW 8260   8.582   3.405   0.006
 2066HO4     OW 8261   3.275   2.103   3.313
 2066HO4    HW1 8262   3.317   2.190   3.342
 2066HO4    HW2 8263   3.175   2.110   3.320
 2066HO4     MW 8264   3.275   2.103   3.313
 2067HO4     OW 8265   6.991   8.623   2.274
 2067HO4    HW1 8266   7.007   8.562   2.195
 2067HO4    HW2 8267   6.953   8.570   2.350
 2067HO4     MW 8268   6.991   8.623   2.274
 2068HO4     OW 8269   4.795   1.126   1.687
 2068HO4    HW1 8270   4.878   1.169   1.725
 2068HO4    HW2 8271   4.796   1.136   1.587
 2068HO4     MW 8272   4.795   1.126   1.687
 2069HO4     OW 8273   3.744   2.972   8.543
 2069HO4    HW1 8274   3.659   3.007   8.502
 2069HO4    HW2 8275   3.810   3.048   8.553
 2069HO4     MW 8276   3.744   2.972   8.543
 2070HO4     OW 8277   6.429   4.371   6.780
 2070HO4    HW1 8278   6.468   4.396   6.869
 2070HO4    HW2 8279   6.488   4.405   6.706
 2070HO4     MW 8280   6.429   4.371   6.780
 2071HO4     OW 8281   8.582   5.931   2.673
 2071HO4    HW1 8282   8.539   5.879   2.748
 2071HO4    HW2 8283   8.681   5.935   2.688
 2071HO4     MW 8284   8.582   5.931   2.673
 2072HO4     OW 8285   9.256   7.599   8.430
 2072HO4    HW1 8286   9.314   7.576   8.508
 2072HO4    HW2 8287   9.285   7.548   8.349
 2072HO4     MW 8288   9.256   7.599   8.430
 2073HO4     OW 8289   7.203   8.126   0.347
 2073HO4    HW1 8290   7.241   8.066   0.276
 2073HO4    HW2 8291   7.102   8.124   0.341
 2073HO4     MW 8292   7.203   8.126   0.347
 2074HO4     OW 8293   3.276   3.915   2.261
 2074HO4    HW1 8294   3.225   3.949   2.341
 2074HO4    HW2 8295   3.345   3.849   2.291
 2074HO4     MW 8296   3.276   3.915   2.261
 2075HO4     OW 8297   5.176   0.054   4.853
 2075HO4    HW1 8298   5.208   0.055   4.948
 2075HO4    HW2 8299   5.184   0.146   4.814
 2075HO4     MW 8300   5.176   0.054   4.853
 2076HO4     OW 8301   0.797   4.877   6.759
 2076HO4    HW1 8302   0.700   4.884   6.785
 2076HO4    HW2 8303   0.804   4.832   6.670
 2076HO4     MW 8304   0.797   4.877   6.759
 2077HO4     OW 8305   1.390   5.171   3.957
 2077HO4    HW1 8306   1.436   5.187   3.869
 2077HO4    HW2 8307   1.357   5.259   3.993
 2077HO4     MW 8308   1.390   5.171   3.957
 2078HO4     OW 8309   0.734   7.427   4.125
 2078HO4    HW1 8310   0.655   7.367   4.108
 2078HO4    HW2 8311   0.703   7.523   4.126
 2078HO4     MW 8312   0.734   7.427   4.125
 2079HO4     OW 8313   0.694   3.399   1.984
 2079HO4    HW1 8314   0.727   3.462   1.913
 2079HO4    HW2 8315   0.735   3.309   1.969
 2079HO4     MW 8316   0.694   3.399   1.984
 2080HO4     OW 8317   7.779   3.360   7.398
 2080HO4    HW1 8318   7.829   3.281   7.433
 2080HO4    HW2 8319   7.680   3.344   7.406
 2080HO4     MW 8320   7.779   3.360   7.398
 2081HO4     OW 8321   7.628   1.816   5.373
 2081HO4    HW1 8322   7.580   1.757   5.439
 2081HO4    HW2 8323   7.584   1.807   5.283
 2081HO4     MW 8324   7.628   1.816   5.373
 2082HO4     OW 8325  10.092   0.444   0.532
 2082HO4    HW1 8326  10.132   0.354   0.509
 2082HO4    HW2 8327  10.163   0.504   0.567
 2082HO4     MW 8328  10.092   0.444   0.532
 2083HO4     OW 8329   2.288   1.501   1.129
 2083HO4    HW1 8330   2.277   1.537   1.036
 2083HO4    HW2 8331   2.284   1.577   1.194
 2083HO4     MW 8332   2.288   1.501   1.129
 2084HO4     OW 8333   9.150   6.148   6.196
 2084HO4    HW1 8334   9.110   6.078   6.256
 2084HO4    HW2 8335   9.172   6.230   6.250
 2084HO4     MW 8336   9.150   6.148   6.196
 2085HO4     OW 8337   2.120   9.779   2.477
 2085HO4    HW1 8338   2.035   9.815   2.436
 2085HO4    HW2 8339   2.167   9.852   2.527
 2085HO4     MW 8340   2.120   9.779   2.477
 2086HO4     OW 8341   9.919   7.904   8.054
 2086HO4    HW1 8342   9.888   7.845   7.979
 2086HO4    HW2 8343   9.898   7.860   8.142
 2086HO4     MW 8344   9.919   7.904   8.054
 2087HO4     OW 8345   0.501   8.452   4.902
 2087HO4    HW1 8346   0.429   8.406   4.954
 2087HO4    HW2 8347   0.584   8.462   4.959
 2087HO4     MW 8348   0.501   8.452   4.902
 2088HO4     OW 8349   1.537   2.955   2.258
 2088HO4    HW1 8350   1.468   3.004   2.312
 2088HO4    HW2 8351   1.493   2.912   2.178
 2088HO4     MW 8352   1.537   2.955   2.258
 2089HO4     OW 8353   0.130   0.749   4.516
 2089HO4    HW1 8354   0.074   0.832   4.507
 2089HO4    HW2 8355   0.071   0.668   4.513
 2089HO4     MW 8356   0.130   0.749   4.516
 2090HO4     OW 8357   8.947   2.750   8.379
 2090HO4    HW1 8358   8.874   2.682   8.369
 2090HO4    HW2 8359   8.943   2.790   8.470
 2090HO4     MW 8360   8.947   2.750   8.379
 2091HO4     OW 8361   3.146   8.059   0.595
 2091HO4    HW1 8362   3.144   8.092   0.690
 2091HO4    HW2 8363   3.055   8.068   0.554
 2091HO4     MW 8364   3.146   8.059   0.595
 2092HO4     OW 8365   2.935   6.064   5.045
 2092HO4    HW1 8366   2.856   6.101   4.996
 2092HO4    HW2 8367   2.982   5.998   4.985
 2092HO4     MW 8368   2.935   6.064   5.045
 2093HO4     OW 8369   9.004   1.944   6.418
 2093HO4    HW1 8370   8.939   2.011   6.454
 2093HO4    HW2 8371   8.984   1.927   6.321
 2093HO4     MW 8372   9.004   1.944   6.418
 2094HO4     OW 8373   4.048   2.383   0.279
 2094HO4    HW1 8374   4.080   2.356   0.188
 2094HO4    HW2 8375   4.109   2.343   0.349
 2094HO4     MW 8376   4.048   2.383   0.279
 2095HO4     OW 8377   5.595   1.393   3.876
 2095HO4    HW1 8378   5.660   1.392   3.799
 2095HO4    HW2 8379   5.637   1.347   3.955
 2095HO4     MW 8380   5.595   1.393   3.876
 2096HO4     OW 8381   4.772   5.057   1.932
 2096HO4    HW1 8382   4.825   5.041   2.016
 2096HO4    HW2 8383   4.830   5.040   1.852
 2096HO4     MW 8384   4.772   5.057   1.932
 2097HO4     OW 8385   5.882   3.035   0.948
 2097HO4    HW1 8386   5.830   3.116   0.976
 2097HO4    HW2 8387   5.847   2.955   0.999
 2097HO4     MW 8388   5.882   3.035   0.948
 2098HO4     OW 8389   4.038   8.339   3.530
 2098HO4    HW1 8390   4.048   8.407   3.603
 2098HO4    HW2 8391   3.964   8.275   3.553
 2098HO4     MW 8392   4.038   8.339   3.530
 2099HO4     OW 8393   3.762   1.179   6.907
 2099HO4    HW1 8394   3.698   1.108   6.876
 2099HO4    HW2 8395   3.781   1.167   7.004
 2099HO4     MW 8396   3.762   1.179   6.907
 2100HO4     OW 8397   0.467   9.556   3.367
 2100HO4    HW1 8398   0.469   9.456   3.361
 2100HO4    HW2 8399   0.496   9.595   3.279
 2100HO4     MW 8400   0.467   9.556   3.367
 2101HO4     OW 8401   5.852   4.733   8.819
 2101HO4    HW1 8402   5.807   4.651   8.855
 2101HO4    HW2 8403   5.782   4.796   8.782
 2101HO4     MW 8404   5.852   4.733   8.819
 2102HO4     OW 8405   1.042   9.762   6.747
 2102HO4    HW1 8406   1.115   9.818   6.708
 2102HO4    HW2 8407   0.955   9.782   6.701
 2102HO4     MW 8408   1.042   9.762   6.747
 2103HO4     OW 8409   8.585   2.860   2.599
 2103HO4    HW1 8410   8.653   2.904   2.539
 2103HO4    HW2 8411   8.575   2.764   2.574
 2103HO4     MW 8412   8.585   2.860   2.599
 2104HO4     OW 8413   2.841   9.959   1.078
 2104HO4    HW1 8414   2.770   9.903   1.035
 2104HO4    HW2 8415   2.816  10.056   1.070
 2104HO4     MW 8416   2.841   9.959   1.078
 2105HO4     OW 8417   5.924   3.982   1.398
 2105HO4    HW1 8418   6.004   3.950   1.449
 2105HO4    HW2 8419   5.923   3.940   1.307
 2105HO4     MW 8420   5.924   3.982   1.398
 2106HO4     OW 8421   3.083   6.426   3.182
 2106HO4    HW1 8422   3.069   6.497   3.252
 2106HO4    HW2 8423   3.163   6.450   3.126
 2106HO4     MW 8424   3.083   6.426   3.182
 2107HO4     OW 8425   1.393   1.957   0.057
 2107HO4    HW1 8426   1.308   1.965   0.109
 2107HO4    HW2 8427   1.403   2.038  -0.002
 2107HO4     MW 8428   1.393   1.957   0.057
 2108HO4     OW 8429   6.035   5.084   7.615
 2108HO4    HW1 8430   6.105   5.022   7.578
 2108HO4    HW2 8431   5.945   5.041   7.605
 2108HO4     MW 8432   6.035   5.084   7.615
 2109HO4     OW 8433   0.440   2.818   7.355
 2109HO4    HW1 8434   0.489   2.786   7.273
 2109HO4    HW2 8435   0.495   2.798   7.437
 2109HO4     MW 8436   0.440   2.818   7.355
 2110HO4     OW 8437   0.133   7.706   7.135
 2110HO4    HW1 8438   0.094   7.783   7.186
 2110HO4    HW2 8439   0.233   7.705   7.146
 2110HO4     MW 8440   0.133   7.706   7.135
 2111HO4     OW 8441   1.753   1.460   5.899
 2111HO4    HW1 8442   1.803   1.487   5.817
 2111HO4    HW2 8443   1.760   1.533   5.968
 2111HO4     MW 8444   1.753   1.460   5.899
 2112HO4     OW 8445   8.680   5.336   6.118
 2112HO4    HW1 8446   8.656   5.355   6.214
 2112HO4    HW2 8447   8.689   5.236   6.106
 2112HO4     MW 8448   8.680   5.336   6.118
 2113HO4     OW 8449   5.767   8.654   5.248
 2113HO4    HW1 8450   5.763   8.591   5.169
 2113HO4    HW2 8451   5.740   8.605   5.331
 2113HO4     MW 8452   5.767   8.654   5.248
 2114HO4     OW 8453   7.289   0.450   0.982
 2114HO4    HW1 8454   7.315   0.354   0.973
 2114HO4    HW2 8455   7.291   0.495   0.892
 2114HO4     MW 8456   7.289   0.450   0.982
 2115HO4     OW 8457   3.319   8.601   6.430
 2115HO4    HW1 8458   3.409   8.583   6.470
 2115HO4    HW2 8459   3.252   8.613   6.503
 2115HO4     MW 8460   3.319   8.601   6.430
 2116HO4     OW 8461   3.315   1.077   2.365
 2116HO4    HW1 8462   3.241   1.010   2.355
 2116HO4    HW2 8463   3.354   1.071   2.458
 2116HO4     MW 8464   3.315   1.077   2.365
 2117HO4     OW 8465   6.825  10.111   8.334
 2117HO4    HW1 8466   6.791  10.069   8.419
 2117HO4    HW2 8467   6.751  10.162   8.290
 2117HO4     MW 8468   6.825  10.111   8.334
 2118HO4     OW 8469   1.355   9.171   4.147
 2118HO4    HW1 8470   1.334   9.086   4.097
 2118HO4    HW2 8471   1.303   9.247   4.108
 2118HO4     MW 8472   1.355   9.171   4.147
 2119HO4     OW 8473   5.001   7.985   0.019
 2119HO4    HW1 8474   4.968   8.080   0.026
 2119HO4    HW2 8475   5.071   7.968   0.089
 2119HO4     MW 8476   5.001   7.985   0.019
 2120HO4     OW 8477   2.593   9.759   3.740
 2120HO4    HW1 8478   2.541   9.724   3.818
 2120HO4    HW2 8479   2.539   9.749   3.656
 2120HO4     MW 8480   2.593   9.759   3.740
 2121HO4     OW 8481   3.331   1.301   1.791
 2121HO4    HW1 8482   3.381   1.280   1.875
 2121HO4    HW2 8483   3.394   1.301   1.713
 2121HO4     MW 8484   3.331   1.301   1.791
 2122HO4     OW 8485   8.361   2.056   6.864
 2122HO4    HW1 8486   8.398   1.965   6.885
 2122HO4    HW2 8487   8.314   2.093   6.944
 2122HO4     MW 8488   8.361   2.056   6.864
 2123HO4     OW 8489   3.733   7.861   9.082
 2123HO4    HW1 8490   3.672   7.907   9.017
 2123HO4    HW2 8491   3.818   7.834   9.035
 2123HO4     MW 8492   3.733   7.861   9.082
 2124HO4     OW 8493   3.762   7.526   2.844
 2124HO4    HW1 8494   3.723   7.498   2.933
 2124HO4    HW2 8495   3.715   7.475   2.770
 2124HO4     MW 8496   3.762   7.526   2.844
 2125HO4     OW 8497   6.610   5.608   9.768
 2125HO4    HW1 8498   6.614   5.524   9.823
 2125HO4    HW2 8499   6.571   5.682   9.822
 2125HO4     MW 8500   6.610   5.608   9.768
 2126HO4     OW 8501   9.986   5.086   9.660
 2126HO4    HW1 8502   9.921   5.012   9.680
 2126HO4    HW2 8503   9.945   5.150   9.594
 2126HO4     MW 8504   9.986   5.086   9.660
 2127HO4     OW 8505   6.888   5.219   3.329
 2127HO4    HW1 8506   6.833   5.187   3.251
 2127HO4    HW2 8507   6.831   5.273   3.391
 2127HO4     MW 8508   6.888   5.219   3.329
 2128HO4     OW 8509   4.169   6.161   1.365
 2128HO4    HW1 8510   4.221   6.176   1.450
 2128HO4    HW2 8511   4.071   6.157   1.387
 2128HO4     MW 8512   4.169   6.161   1.365
 2129HO4     OW 8513   1.201   7.105   1.098
 2129HO4    HW1 8514   1.210   7.129   1.196
 2129HO4    HW2 8515   1.289   7.122   1.052
 2129HO4     MW 8516   1.201   7.105   1.098
 2130HO4     OW 8517   6.170   0.313   2.151
 2130HO4    HW1 8518   6.095   0.312   2.084
 2130HO4    HW2 8519   6.214   0.403   2.151
 2130HO4     MW 8520   6.170   0.313   2.151
 2131HO4     OW 8521   6.242   1.462  10.096
 2131HO4    HW1 8522   6.325   1.483  10.043
 2131HO4    HW2 8523   6.249   1.505  10.187
 2131HO4     MW 8524   6.242   1.462  10.096
 2132HO4     OW 8525   5.558   4.152   2.279
 2132HO4    HW1 8526   5.646   4.128   2.322
 2132HO4    HW2 8527   5.526   4.240   2.316
 2132HO4     MW 8528   5.558   4.152   2.279
 2133HO4     OW 8529   3.089   5.874   8.811
 2133HO4    HW1 8530   3.044   5.839   8.728
 2133HO4    HW2 8531   3.044   5.836   8.892
 2133HO4     MW 8532   3.089   5.874   8.811
 2134HO4     OW 8533   1.207   0.110   6.677
 2134HO4    HW1 8534   1.144   0.127   6.601
 2134HO4    HW2 8535   1.155   0.100   6.762
 2134HO4     MW 8536   1.207   0.110   6.677
 2135HO4     OW 8537   2.643   4.313   7.849
 2135HO4    HW1 8538   2.615   4.221   7.878
 2135HO4    HW2 8539   2.716   4.305   7.781
 2135HO4     MW 8540   2.643   4.313   7.849
 2136HO4     OW 8541   6.666   0.357   1.098
 2136HO4    HW1 8542   6.604   0.344   1.020
 2136HO4    HW2 8543   6.616   0.339   1.183
 2136HO4     MW 8544   6.666   0.357   1.098
 2137HO4     OW 8545   0.007   1.542   9.659
 2137HO4    HW1 8546   0.071   1.471   9.688
 2137HO4    HW2 8547   0.053   1.631   9.660
 2137HO4     MW 8548   0.007   1.542   9.659
 2138HO4     OW 8549   2.958   9.237   2.238
 2138HO4    HW1 8550   2.994   9.297   2.310
 2138HO4    HW2 8551   3.011   9.251   2.154
 2138HO4     MW 8552   2.958   9.237   2.238
 2139HO4     OW 8553   2.144   6.451   1.249
 2139HO4    HW1 8554   2.239   6.427   1.271
 2139HO4    HW2 8555   2.083   6.397   1.308
 2139HO4     MW 8556   2.144   6.451   1.249
 2140HO4     OW 8557   9.854   7.985   1.952
 2140HO4    HW1 8558   9.921   8.060   1.951
 2140HO4    HW2 8559   9.772   8.013   1.901
 2140HO4     MW 8560   9.854   7.985   1.952
 2141HO4     OW 8561   7.256   9.617   0.649
 2141HO4    HW1 8562   7.286   9.670   0.569
 2141HO4    HW2 8563   7.319   9.541   0.664
 2141HO4     MW 8564   7.256   9.617   0.649
 2142HO4     OW 8565   0.718   7.112   8.253
 2142HO4    HW1 8566   0.691   7.173   8.178
 2142HO4    HW2 8567   0.710   7.162   8.341
 2142HO4     MW 8568   0.718   7.112   8.253
 2143HO4     OW 8569   7.734   9.709   0.062
 2143HO4    HW1 8570   7.657   9.644   0.070
 2143HO4    HW2 8571   7.769   9.707  -0.032
 2143HO4     MW 8572   7.734   9.709   0.062
 2144HO4     OW 8573   3.755   9.545   5.317
 2144HO4    HW1 8574   3.756   9.507   5.224
 2144HO4    HW2 8575   3.790   9.477   5.382
 2144HO4     MW 8576   3.755   9.545   5.317
 2145HO4     OW 8577   5.945   3.543   9.354
 2145HO4    HW1 8578   5.930   3.448   9.326
 2145HO4    HW2 8579   5.873   3.602   9.315
 2145HO4     MW 8580   5.945   3.543   9.354
 2146HO4     OW 8581   5.873   6.378   3.344
 2146HO4    HW1 8582   5.813   6.421   3.413
 2146HO4    HW2 8583   5.959   6.428   3.339
 2146HO4     MW 8584   5.873   6.378   3.344
 2147HO4     OW 8585   3.445   2.004   6.325
 2147HO4    HW1 8586   3.486   1.979   6.237
 2147HO4    HW2 8587   3.477   2.096   6.351
 2147HO4     MW 8588   3.445   2.004   6.325
 2148HO4     OW 8589   4.007   7.846   1.135
 2148HO4    HW1 8590   4.033   7.897   1.217
 2148HO4    HW2 8591   4.012   7.906   1.054
 2148HO4     MW 8592   4.007   7.846   1.135
 2149HO4     OW 8593   0.024   4.828   0.071
 2149HO4    HW1 8594   0.075   4.742   0.082
 2149HO4    HW2 8595   0.033   4.861  -0.024
 2149HO4     MW 8596   0.024   4.828   0.071
 2150HO4     OW 8597   9.595   9.476   6.454
 2150HO4    HW1 8598   9.541   9.452   6.373
 2150HO4    HW2 8599   9.630   9.392   6.497
 2150HO4     MW 8600   9.595   9.476   6.454
 2151HO4     OW 8601   6.936   3.278   7.448
 2151HO4    HW1 8602   6.966   3.299   7.541
 2151HO4    HW2 8603   7.004   3.221   7.402
 2151HO4     MW 8604   6.936   3.278   7.448
 2152HO4     OW 8605   7.921   9.994   8.067
 2152HO4    HW1 8606   7.835   9.972   8.114
 2152HO4    HW2 8607   7.937  10.093   8.072
 2152HO4     MW 8608   7.921   9.994   8.067
 2153HO4     OW 8609   0.606   0.893   0.233
 2153HO4    HW1 8610   0.612   0.795   0.212
 2153HO4    HW2 8611   0.683   0.919   0.293
 2153HO4     MW 8612   0.606   0.893   0.233
 2154HO4     OW 8613   6.615   9.434   4.653
 2154HO4    HW1 8614   6.640   9.376   4.730
 2154HO4    HW2 8615   6.611   9.379   4.569
 2154HO4     MW 8616   6.615   9.434   4.653
 2155HO4     OW 8617   2.776   3.304   4.659
 2155HO4    HW1 8618   2.712   3.273   4.729
 2155HO4    HW2 8619   2.754   3.260   4.571
 2155HO4     MW 8620   2.776   3.304   4.659
 2156HO4     OW 8621   7.106   0.102   6.631
 2156HO4    HW1 8622   7.151   0.161   6.564
 2156HO4    HW2 8623   7.172   0.074   6.701
 2156HO4     MW 8624   7.106   0.102   6.631
 2157HO4     OW 8625   9.359   0.351   1.603
 2157HO4    HW1 8626   9.437   0.405   1.635
 2157HO4    HW2 8627   9.305   0.321   1.683
 2157HO4     MW 8628   9.359   0.351   1.603
 2158HO4     OW 8629   6.740   6.452   5.031
 2158HO4    HW1 8630   6.747   6.412   5.123
 2158HO4    HW2 8631   6.727   6.379   4.963
 2158HO4     MW 8632   6.740   6.452   5.031
 2159HO4     OW 8633   4.002   2.061   2.484
 2159HO4    HW1 8634   3.990   2.160   2.468
 2159HO4    HW2 8635   4.095   2.045   2.518
 2159HO4     MW 8636   4.002   2.061   2.484
 2160HO4     OW 8637   0.459   4.841   7.265
 2160HO4    HW1 8638   0.441   4.836   7.166
 2160HO4    HW2 8639   0.404   4.915   7.305
 2160HO4     MW 8640   0.459   4.841   7.265
 2161HO4     OW 8641   8.280   3.854   1.097
 2161HO4    HW1 8642   8.295   3.936   1.041
 2161HO4    HW2 8643   8.181   3.837   1.105
 2161HO4     MW 8644   8.280   3.854   1.097
 2162HO4     OW 8645   8.447   5.770   4.527
 2162HO4    HW1 8646   8.459   5.671   4.537
 2162HO4    HW2 8647   8.526   5.809   4.479
 2162HO4     MW 8648   8.447   5.770   4.527
 2163HO4     OW 8649   5.030   4.901   0.177
 2163HO4    HW1 8650   4.947   4.956   0.190
 2163HO4    HW2 8651   5.007   4.817   0.126
 2163HO4     MW 8652   5.030   4.901   0.177
 2164HO4     OW 8653   6.987   6.227   9.867
 2164HO4    HW1 8654   6.936   6.140   9.866
 2164HO4    HW2 8655   6.958   6.283   9.789
 2164HO4     MW 8656   6.987   6.227   9.867
 2165HO4     OW 8657   0.169   9.802   2.117
 2165HO4    HW1 8658   0.112   9.808   2.199
 2165HO4    HW2 8659   0.124   9.851   2.041
 2165HO4     MW 8660   0.169   9.802   2.117
 2166HO4     OW 8661   1.073   1.954   0.617
 2166HO4    HW1 8662   1.012   2.026   0.651
 2166HO4    HW2 8663   1.167   1.973   0.647
 2166HO4     MW 8664   1.073   1.954   0.617
 2167HO4     OW 8665   2.655   8.554   8.982
 2167HO4    HW1 8666   2.618   8.602   8.902
 2167HO4    HW2 8667   2.617   8.595   9.065
 2167HO4     MW 8668   2.655   8.554   8.982
 2168HO4     OW 8669   3.330   5.898   6.169
 2168HO4    HW1 8670   3.323   5.932   6.264
 2168HO4    HW2 8671   3.402   5.829   6.163
 2168HO4     MW 8672   3.330   5.898   6.169
 2169HO4     OW 8673   5.500   3.078   9.590
 2169HO4    HW1 8674   5.553   3.075   9.505
 2169HO4    HW2 8675   5.482   3.173   9.615
 2169HO4     MW 8676   5.500   3.078   9.590
 2170HO4     OW 8677   6.501   9.117   9.431
 2170HO4    HW1 8678   6.583   9.088   9.379
 2170HO4    HW2 8679   6.528   9.143   9.524
 2170HO4     MW 8680   6.501   9.117   9.431
 2171HO4     OW 8681   6.282  10.059   7.669
 2171HO4    HW1 8682   6.350  10.014   7.728
 2171HO4    HW2 8683   6.325  10.083   7.581
 2171HO4     MW 8684   6.282  10.059   7.669
 2172HO4     OW 8685   1.814   5.273   4.928
 2172HO4    HW1 8686   1.845   5.352   4.982
 2172HO4    HW2 8687   1.832   5.289   4.831
 2172HO4     MW 8688   1.814   5.273   4.928
 2173HO4     OW 8689   9.012   8.114   0.821
 2173HO4    HW1 8690   8.946   8.068   0.881
 2173HO4    HW2 8691   9.003   8.079   0.727
 2173HO4     MW 8692   9.012   8.114   0.821
 2174HO4     OW 8693   9.109   4.951   3.357
 2174HO4    HW1 8694   9.080   5.010   3.281
 2174HO4    HW2 8695   9.163   5.005   3.422
 2174HO4     MW 8696   9.109   4.951   3.357
 2175HO4     OW 8697   3.728   8.792   5.174
 2175HO4    HW1 8698   3.743   8.861   5.103
 2175HO4    HW2 8699   3.713   8.837   5.263
 2175HO4     MW 8700   3.728   8.792   5.174
 2176HO4     OW 8701   3.697   5.741   8.111
 2176HO4    HW1 8702   3.683   5.736   8.011
 2176HO4    HW2 8703   3.615   5.778   8.155
 2176HO4     MW 8704   3.697   5.741   8.111
 2177HO4     OW 8705   8.174   1.324   7.529
 2177HO4    HW1 8706   8.191   1.274   7.614
 2177HO4    HW2 8707   8.176   1.261   7.451
 2177HO4     MW 8708   8.174   1.324   7.529
 2178HO4     OW 8709   9.073   9.807   7.602
 2178HO4    HW1 8710   9.031   9.780   7.689
 2178HO4    HW2 8711   9.007   9.792   7.528
 2178HO4     MW 8712   9.073   9.807   7.602
 2179HO4     OW 8713   8.956   8.269   9.607
 2179HO4    HW1 8714   8.983   8.300   9.698
 2179HO4    HW2 8715   9.026   8.208   9.569
 2179HO4     MW 8716   8.956   8.269   9.607
 2180HO4     OW 8717   2.203   2.644   1.659
 2180HO4    HW1 8718   2.111   2.623   1.626
 2180HO4    HW2 8719   2.231   2.578   1.729
 2180HO4     MW 8720   2.203   2.644   1.659
 2181HO4     OW 8721  10.100   4.457   3.316
 2181HO4    HW1 8722  10.031   4.442   3.388
 2181HO4    HW2 8723  10.055   4.492   3.234
 2181HO4     MW 8724  10.100   4.457   3.316
 2182HO4     OW 8725   0.683   1.511   2.994
 2182HO4    HW1 8726   0.710   1.421   3.031
 2182HO4    HW2 8727   0.592   1.503   2.953
 2182HO4     MW 8728   0.683   1.511   2.994
 2183HO4     OW 8729   4.627   5.437   1.353
 2183HO4    HW1 8730   4.642   5.500   1.276
 2183HO4    HW2 8731   4.562   5.365   1.325
 2183HO4     MW 8732   4.627   5.437   1.353
 2184HO4     OW 8733   8.574   2.081   3.740
 2184HO4    HW1 8734   8.629   2.059   3.822
 2184HO4    HW2 8735   8.628   2.060   3.658
 2184HO4     MW 8736   8.574   2.081   3.740
 2185HO4     OW 8737   4.061   3.682   7.361
 2185HO4    HW1 8738   3.993   3.755   7.362
 2185HO4    HW2 8739   4.074   3.648   7.455
 2185HO4     MW 8740   4.061   3.682   7.361
 2186HO4     OW 8741   6.171   3.608   2.641
 2186HO4    HW1 8742   6.189   3.666   2.561
 2186HO4    HW2 8743   6.188   3.661   2.725
 2186HO4     MW 8744   6.171   3.608   2.641
 2187HO4     OW 8745   0.122   1.529   2.207
 2187HO4    HW1 8746   0.073   1.616   2.219
 2187HO4    HW2 8747   0.215   1.548   2.173
 2187HO4     MW 8748   0.122   1.529   2.207
 2188HO4     OW 8749   0.499   3.350   9.678
 2188HO4    HW1 8750   0.458   3.394   9.597
 2188HO4    HW2 8751   0.438   3.361   9.757
 2188HO4     MW 8752   0.499   3.350   9.678
 2189HO4     OW 8753   5.556   3.557   1.712
 2189HO4    HW1 8754   5.531   3.505   1.794
 2189HO4    HW2 8755   5.576   3.493   1.637
 2189HO4     MW 8756   5.556   3.557   1.712
 2190HO4     OW 8757   3.242   2.391   1.778
 2190HO4    HW1 8758   3.230   2.326   1.702
 2190HO4    HW2 8759   3.230   2.343   1.865
 2190HO4     MW 8760   3.242   2.391   1.778
 2191HO4     OW 8761   7.142   7.544   9.571
 2191HO4    HW1 8762   7.200   7.521   9.650
 2191HO4    HW2 8763   7.188   7.517   9.486
 2191HO4     MW 8764   7.142   7.544   9.571
 2192HO4     OW 8765   4.351   4.619   1.204
 2192HO4    HW1 8766   4.444   4.656   1.205
 2192HO4    HW2 8767   4.318   4.614   1.109
 2192HO4     MW 8768   4.351   4.619   1.204
 2193HO4     OW 8769   9.851   0.661   7.214
 2193HO4    HW1 8770   9.822   0.690   7.122
 2193HO4    HW2 8771   9.784   0.597   7.252
 2193HO4     MW 8772   9.851   0.661   7.214
 2194HO4     OW 8773   1.155   3.333   7.196
 2194HO4    HW1 8774   1.110   3.335   7.106
 2194HO4    HW2 8775   1.156   3.239   7.231
 2194HO4     MW 8776   1.155   3.333   7.196
 2195HO4     OW 8777   2.606   9.027   1.987
 2195HO4    HW1 8778   2.619   8.974   2.072
 2195HO4    HW2 8779   2.628   9.124   2.005
 2195HO4     MW 8780   2.606   9.027   1.987
 2196HO4     OW 8781   4.919   5.918   6.557
 2196HO4    HW1 8782   4.890   5.881   6.468
 2196HO4    HW2 8783   4.859   5.996   6.581
 2196HO4     MW 8784   4.919   5.918   6.557
 2197HO4     OW 8785   1.722   3.206   7.956
 2197HO4    HW1 8786   1.652   3.146   7.915
 2197HO4    HW2 8787   1.767   3.259   7.883
 2197HO4     MW 8788   1.722   3.206   7.956
 2198HO4     OW 8789   0.295   0.910   4.204
 2198HO4    HW1 8790   0.337   0.886   4.292
 2198HO4    HW2 8791   0.212   0.964   4.220
 2198HO4     MW 8792   0.295   0.910   4.204
 2199HO4     OW 8793   0.395   9.462   8.633
 2199HO4    HW1 8794   0.453   9.508   8.566
 2199HO4    HW2 8795   0.432   9.478   8.725
 2199HO4     MW 8796   0.395   9.462   8.633
 2200HO4     OW 8797   0.230   1.000   1.891
 2200HO4    HW1 8798   0.191   1.036   1.806
 2200HO4    HW2 8799   0.185   1.042   1.970
 2200HO4     MW 8800   0.230   1.000   1.891
 2201HO4     OW 8801   7.139   6.455   8.368
 2201HO4    HW1 8802   7.130   6.469   8.269
 2201HO4    HW2 8803   7.050   6.429   8.406
 2201HO4     MW 8804   7.139   6.455   8.368
 2202HO4     OW 8805   8.882   6.698   0.037
 2202HO4    HW1 8806   8.938   6.679   0.118
 2202HO4    HW2 8807   8.937   6.681  -0.046
 2202HO4     MW 8808   8.882   6.698   0.037
 2203HO4     OW 8809   5.896   9.272   6.003
 2203HO4    HW1 8810   5.912   9.312   5.913
 2203HO4    HW2 8811   5.926   9.336   6.075
 2203HO4     MW 8812   5.896   9.272   6.003
 2204HO4     OW 8813   4.718   5.210   2.761
 2204HO4    HW1 8814   4.636   5.242   2.714
 2204HO4    HW2 8815   4.701   5.120   2.802
 2204HO4     MW 8816   4.718   5.210   2.761
 2205HO4     OW 8817   7.499   9.319   6.892
 2205HO4    HW1 8818   7.479   9.300   6.796
 2205HO4    HW2 8819   7.594   9.292   6.913
 2205HO4     MW 8820   7.499   9.319   6.892
 2206HO4     OW 8821   8.515   9.254   8.649
 2206HO4    HW1 8822   8.474   9.291   8.732
 2206HO4    HW2 8823   8.443   9.224   8.586
 2206HO4     MW 8824   8.515   9.254   8.649
 2207HO4     OW 8825   7.728   3.937   5.107
 2207HO4    HW1 8826   7.755   3.969   5.198
 2207HO4    HW2 8827   7.686   3.846   5.114
 2207HO4     MW 8828   7.728   3.937   5.107
 2208HO4     OW 8829   0.151   3.959   4.953
 2208HO4    HW1 8830   0.229   3.959   5.016
 2208HO4    HW2 8831   0.157   4.038   4.891
 2208HO4     MW 8832   0.151   3.959   4.953
 2209HO4     OW 8833   8.453   4.201   4.756
 2209HO4    HW1 8834   8.458   4.105   4.783
 2209HO4    HW2 8835   8.388   4.249   4.815
 2209HO4     MW 8836   8.453   4.201   4.756
 2210HO4     OW 8837   9.829   2.881   1.699
 2210HO4    HW1 8838   9.738   2.858   1.737
 2210HO4    HW2 8839   9.844   2.830   1.614
 2210HO4     MW 8840   9.829   2.881   1.699
 2211HO4     OW 8841   6.458   6.276   8.966
 2211HO4    HW1 8842   6.457   6.311   8.872
 2211HO4    HW2 8843   6.368   6.238   8.989
 2211HO4     MW 8844   6.458   6.276   8.966
 2212HO4     OW 8845   7.073   3.992   4.495
 2212HO4    HW1 8846   7.143   3.950   4.436
 2212HO4    HW2 8847   7.119   4.047   4.566
 2212HO4     MW 8848   7.073   3.992   4.495
 2213HO4     OW 8849   7.798   4.959   6.444
 2213HO4    HW1 8850   7.796   5.048   6.398
 2213HO4    HW2 8851   7.716   4.907   6.422
 2213HO4     MW 8852   7.798   4.959   6.444
 2214HO4     OW 8853   5.667  10.016   2.907
 2214HO4    HW1 8854   5.585  10.025   2.849
 2214HO4    HW2 8855   5.696   9.920   2.909
 2214HO4     MW 8856   5.667  10.016   2.907
 2215HO4     OW 8857   8.434   8.428   9.963
 2215HO4    HW1 8858   8.385   8.429   9.875
 2215HO4    HW2 8859   8.529   8.456   9.948
 2215HO4     MW 8860   8.434   8.428   9.963
 2216HO4     OW 8861   3.260   9.661   7.285
 2216HO4    HW1 8862   3.310   9.743   7.254
 2216HO4    HW2 8863   3.188   9.689   7.349
 2216HO4     MW 8864   3.260   9.661   7.285
 2217HO4     OW 8865   4.778   1.142   7.449
 2217HO4    HW1 8866   4.724   1.211   7.398
 2217HO4    HW2 8867   4.790   1.061   7.392
 2217HO4     MW 8868   4.778   1.142   7.449
 2218HO4     OW 8869   4.024   0.542   3.157
 2218HO4    HW1 8870   4.046   0.564   3.252
 2218HO4    HW2 8871   4.022   0.626   3.102
 2218HO4     MW 8872   4.024   0.542   3.157
 2219HO4     OW 8873   3.160   4.254   9.109
 2219HO4    HW1 8874   3.145   4.233   9.012
 2219HO4    HW2 8875   3.079   4.228   9.162
 2219HO4     MW 8876   3.160   4.254   9.109
 2220HO4     OW 8877   9.216   7.068   4.360
 2220HO4    HW1 8878   9.227   7.167   4.350
 2220HO4    HW2 8879   9.194   7.028   4.270
 2220HO4     MW 8880   9.216   7.068   4.360
 2221HO4     OW 8881   1.683   2.977   8.791
 2221HO4    HW1 8882   1.714   2.922   8.713
 2221HO4    HW2 8883   1.708   2.931   8.876
 2221HO4     MW 8884   1.683   2.977   8.791
 2222HO4     OW 8885   9.010   4.885   2.857
 2222HO4    HW1 8886   8.982   4.838   2.941
 2222HO4    HW2 8887   8.957   4.849   2.780
 2222HO4     MW 8888   9.010   4.885   2.857
 2223HO4     OW 8889   2.966   0.268   6.669
 2223HO4    HW1 8890   3.042   0.229   6.616
 2223HO4    HW2 8891   2.969   0.233   6.763
 2223HO4     MW 8892   2.966   0.268   6.669
 2224HO4     OW 8893   5.783   7.323   3.833
 2224HO4    HW1 8894   5.716   7.358   3.899
 2224HO4    HW2 8895   5.755   7.347   3.740
 2224HO4     MW 8896   5.783   7.323   3.833
 2225HO4     OW 8897   7.520   6.533   5.328
 2225HO4    HW1 8898   7.588   6.475   5.375
 2225HO4    HW2 8899   7.519   6.510   5.230
 2225HO4     MW 8900   7.520   6.533   5.328
 2226HO4     OW 8901   1.909   2.576   9.918
 2226HO4    HW1 8902   1.958   2.600  10.003
 2226HO4    HW2 8903   1.966   2.599   9.839
 2226HO4     MW 8904   1.909   2.576   9.918
 2227HO4     OW 8905   3.750   7.825   5.600
 2227HO4    HW1 8906   3.664   7.842   5.648
 2227HO4    HW2 8907   3.787   7.911   5.564
 2227HO4     MW 8908   3.750   7.825   5.600
 2228HO4     OW 8909   3.702   7.126   7.725
 2228HO4    HW1 8910   3.633   7.194   7.753
 2228HO4    HW2 8911   3.771   7.171   7.667
 2228HO4     MW 8912   3.702   7.126   7.725
 2229HO4     OW 8913   1.347   8.844   2.391
 2229HO4    HW1 8914   1.298   8.787   2.324
 2229HO4    HW2 8915   1.338   8.803   2.482
 2229HO4     MW 8916   1.347   8.844   2.391
 2230HO4     OW 8917   5.409   7.028   5.063
 2230HO4    HW1 8918   5.366   6.983   4.984
 2230HO4    HW2 8919   5.408   6.965   5.142
 2230HO4     MW 8920   5.409   7.028   5.063
 2231HO4     OW 8921   1.256   5.235   4.703
 2231HO4    HW1 8922   1.178   5.246   4.641
 2231HO4    HW2 8923   1.248   5.147   4.751
 2231HO4     MW 8924   1.256   5.235   4.703
 2232HO4     OW 8925   4.707   6.028   9.398
 2232HO4    HW1 8926   4.661   5.953   9.349
 2232HO4    HW2 8927   4.806   6.016   9.392
 2232HO4     MW 8928   4.707   6.028   9.398
 2233HO4     OW 8929   5.451   7.843   6.952
 2233HO4    HW1 8930   5.499   7.800   7.029
 2233HO4    HW2 8931   5.450   7.943   6.965
 2233HO4     MW 8932   5.451   7.843   6.952
 2234HO4     OW 8933   0.532   2.333   9.795
 2234HO4    HW1 8934   0.469   2.407   9.820
 2234HO4    HW2 8935   0.583   2.303   9.876
 2234HO4     MW 8936   0.532   2.333   9.795
 2235HO4     OW 8937   6.519   0.572   1.876
 2235HO4    HW1 8938   6.557   0.636   1.943
 2235HO4    HW2 8939   6.512   0.617   1.787
 2235HO4     MW 8940   6.519   0.572   1.876
 2236HO4     OW 8941   6.730   3.663   7.188
 2236HO4    HW1 8942   6.742   3.723   7.109
 2236HO4    HW2 8943   6.732   3.718   7.272
 2236HO4     MW 8944   6.730   3.663   7.188
 2237HO4     OW 8945   4.316   0.395   5.298
 2237HO4    HW1 8946   4.397   0.367   5.350
 2237HO4    HW2 8947   4.241   0.331   5.315
 2237HO4     MW 8948   4.316   0.395   5.298
 2238HO4     OW 8949   8.071   9.635   7.525
 2238HO4    HW1 8950   8.092   9.606   7.619
 2238HO4    HW2 8951   8.054   9.554   7.468
 2238HO4     MW 8952   8.071   9.635   7.525
 2239HO4     OW 8953   1.911   3.894   2.697
 2239HO4    HW1 8954   1.857   3.883   2.613
 2239HO4    HW2 8955   1.851   3.887   2.777
 2239HO4     MW 8956   1.911   3.894   2.697
 2240HO4     OW 8957   0.121   4.732   3.790
 2240HO4    HW1 8958   0.130   4.811   3.728
 2240HO4    HW2 8959   0.041   4.678   3.764
 2240HO4     MW 8960   0.121   4.732   3.790
 2241HO4     OW 8961   3.738   3.973   5.357
 2241HO4    HW1 8962   3.823   4.010   5.318
 2241HO4    HW2 8963   3.659   4.019   5.317
 2241HO4     MW 8964   3.738   3.973   5.357
 2242HO4     OW 8965   7.720   5.261   4.445
 2242HO4    HW1 8966   7.792   5.301   4.503
 2242HO4    HW2 8967   7.657   5.207   4.502
 2242HO4     MW 8968   7.720   5.261   4.445
 2243HO4     OW 8969   7.675   4.324   7.048
 2243HO4    HW1 8970   7.659   4.247   6.986
 2243HO4    HW2 8971   7.766   4.362   7.033
 2243HO4     MW 8972   7.675   4.324   7.048
 2244HO4     OW 8973   4.201   9.143   9.259
 2244HO4    HW1 8974   4.188   9.068   9.194
 2244HO4    HW2 8975   4.185   9.109   9.352
 2244HO4     MW 8976   4.201   9.143   9.259
 2245HO4     OW 8977   9.405   2.597   5.641
 2245HO4    HW1 8978   9.375   2.618   5.548
 2245HO4    HW2 8979   9.475   2.664   5.669
 2245HO4     MW 8980   9.405   2.597   5.641
 2246HO4     OW 8981   4.594   0.982   8.140
 2246HO4    HW1 8982   4.680   0.964   8.189
 2246HO4    HW2 8983   4.595   0.933   8.052
 2246HO4     MW 8984   4.594   0.982   8.140
 2247HO4     OW 8985   0.945   3.583   2.955
 2247HO4    HW1 8986   0.905   3.608   2.866
 2247HO4    HW2 8987   0.902   3.498   2.989
 2247HO4     MW 8988   0.945   3.583   2.955
 2248HO4     OW 8989   5.950   8.804   8.464
 2248HO4    HW1 8990   5.895   8.888   8.475
 2248HO4    HW2 8991   5.984   8.799   8.370
 2248HO4     MW 8992   5.950   8.804   8.464
 2249HO4     OW 8993   0.372   8.775   9.666
 2249HO4    HW1 8994   0.428   8.695   9.643
 2249HO4    HW2 8995   0.282   8.745   9.701
 2249HO4     MW 8996   0.372   8.775   9.666
 2250HO4     OW 8997   9.413   1.954   2.785
 2250HO4    HW1 8998   9.437   1.860   2.813
 2250HO4    HW2 8999   9.485   1.990   2.724
 2250HO4     MW 9000   9.413   1.954   2.785
 2251HO4     OW 9001   1.897   1.958   5.031
 2251HO4    HW1 9002   1.844   2.040   5.008
 2251HO4    HW2 9003   1.994   1.983   5.042
 2251HO4     MW 9004   1.897   1.958   5.031
 2252HO4     OW 9005   7.302   8.496   5.877
 2252HO4    HW1 9006   7.252   8.427   5.930
 2252HO4    HW2 9007   7.318   8.461   5.784
 2252HO4     MW 9008   7.302   8.496   5.877
 2253HO4     OW 9009   0.794   7.660   1.861
 2253HO4    HW1 9010   0.786   7.673   1.960
 2253HO4    HW2 9011   0.787   7.749   1.815
 2253HO4     MW 9012   0.794   7.660   1.861
 2254HO4     OW 9013   6.248   9.029   6.433
 2254HO4    HW1 9014   6.330   8.975   6.451
 2254HO4    HW2 9015   6.255   9.118   6.478
 2254HO4     MW 9016   6.248   9.029   6.433
 2255HO4     OW 9017   8.668   5.241   0.928
 2255HO4    HW1 9018   8.645   5.261   1.023
 2255HO4    HW2 9019   8.644   5.319   0.870
 2255HO4     MW 9020   8.668   5.241   0.928
 2256HO4     OW 9021   5.435   4.204   7.175
 2256HO4    HW1 9022   5.434   4.236   7.080
 2256HO4    HW2 9023   5.357   4.242   7.225
 2256HO4     MW 9024   5.435   4.204   7.175
 2257HO4     OW 9025  10.136   4.394   1.388
 2257HO4    HW1 9026  10.161   4.302   1.358
 2257HO4    HW2 9027  10.143   4.399   1.488
 2257HO4     MW 9028  10.136   4.394   1.388
 2258HO4     OW 9029   4.006   4.994   3.814
 2258HO4    HW1 9030   3.972   4.916   3.761
 2258HO4    HW2 9031   3.986   5.079   3.765
 2258HO4     MW 9032   4.006   4.994   3.814
 2259HO4     OW 9033   3.182   4.649   3.865
 2259HO4    HW1 9034   3.135   4.563   3.889
 2259HO4    HW2 9035   3.174   4.666   3.767
 2259HO4     MW 9036   3.182   4.649   3.865
 2260HO4     OW 9037   2.372   7.955   3.955
 2260HO4    HW1 9038   2.284   7.997   3.930
 2260HO4    HW2 9039   2.401   7.990   4.044
 2260HO4     MW 9040   2.372   7.955   3.955
 2261HO4     OW 9041   0.344   4.750   7.579
 2261HO4    HW1 9042   0.405   4.733   7.502
 2261HO4    HW2 9043   0.296   4.837   7.566
 2261HO4     MW 9044   0.344   4.750   7.579
 2262HO4     OW 9045   8.596   7.231   1.486
 2262HO4    HW1 9046   8.606   7.301   1.557
 2262HO4    HW2 9047   8.546   7.269   1.408
 2262HO4     MW 9048   8.596   7.231   1.486
 2263HO4     OW 9049   6.423   2.809   2.837
 2263HO4    HW1 9050   6.342   2.863   2.862
 2263HO4    HW2 9051   6.431   2.805   2.737
 2263HO4     MW 9052   6.423   2.809   2.837
 2264HO4     OW 9053   5.833   9.909   6.964
 2264HO4    HW1 9054   5.900   9.887   6.892
 2264HO4    HW2 9055   5.870   9.881   7.053
 2264HO4     MW 9056   5.833   9.909   6.964
 2265HO4     OW 9057   4.305   8.584   1.673
 2265HO4    HW1 9058   4.403   8.576   1.656
 2265HO4    HW2 9059   4.264   8.650   1.609
 2265HO4     MW 9060   4.305   8.584   1.673
 2266HO4     OW 9061   2.207   5.229   4.743
 2266HO4    HW1 9062   2.125   5.277   4.710
 2266HO4    HW2 9063   2.252   5.183   4.666
 2266HO4     MW 9064   2.207   5.229   4.743
 2267HO4     OW 9065   5.818   0.906   5.045
 2267HO4    HW1 9066   5.786   0.951   4.961
 2267HO4    HW2 9067   5.782   0.955   5.125
 2267HO4     MW 9068   5.818   0.906   5.045
 2268HO4     OW 9069   0.859   5.643   6.946
 2268HO4    HW1 9070   0.780   5.687   6.901
 2268HO4    HW2 9071   0.890   5.565   6.891
 2268HO4     MW 9072   0.859   5.643   6.946
 2269HO4     OW 9073   1.216   3.550   0.370
 2269HO4    HW1 9074   1.297   3.538   0.312
 2269HO4    HW2 9075   1.242   3.540   0.466
 2269HO4     MW 9076   1.216   3.550   0.370
 2270HO4     OW 9077   4.177   1.054   1.310
 2270HO4    HW1 9078   4.096   1.069   1.368
 2270HO4    HW2 9079   4.258   1.094   1.354
 2270HO4     MW 9080   4.177   1.054   1.310
 2271HO4     OW 9081   2.545   5.168   1.335
 2271HO4    HW1 9082   2.640   5.200   1.341
 2271HO4    HW2 9083   2.506   5.192   1.246
 2271HO4     MW 9084   2.545   5.168   1.335
 2272HO4     OW 9085   3.869   8.608   2.089
 2272HO4    HW1 9086   3.918   8.585   2.174
 2272HO4    HW2 9087   3.926   8.666   2.031
 2272HO4     MW 9088   3.869   8.608   2.089
 2273HO4     OW 9089   2.038   7.259   7.711
 2273HO4    HW1 9090   2.037   7.302   7.802
 2273HO4    HW2 9091   2.117   7.293   7.659
 2273HO4     MW 9092   2.038   7.259   7.711
 2274HO4     OW 9093   3.151   3.094   1.383
 2274HO4    HW1 9094   3.222   3.120   1.450
 2274HO4    HW2 9095   3.100   3.015   1.418
 2274HO4     MW 9096   3.151   3.094   1.383
 2275HO4     OW 9097   6.518   2.887   0.082
 2275HO4    HW1 9098   6.424   2.852   0.077
 2275HO4    HW2 9099   6.556   2.894  -0.011
 2275HO4     MW 9100   6.518   2.887   0.082
 2276HO4     OW 9101   7.122   3.395   3.701
 2276HO4    HW1 9102   7.039   3.401   3.758
 2276HO4    HW2 9103   7.117   3.313   3.644
 2276HO4     MW 9104   7.122   3.395   3.701
 2277HO4     OW 9105   0.943   4.046   7.111
 2277HO4    HW1 9106   0.924   4.118   7.044
 2277HO4    HW2 9107   0.915   4.076   7.202
 2277HO4     MW 9108   0.943   4.046   7.111
 2278HO4     OW 9109   9.628   0.980   4.896
 2278HO4    HW1 9110   9.644   0.957   4.992
 2278HO4    HW2 9111   9.671   1.068   4.874
 2278HO4     MW 9112   9.628   0.980   4.896
 2279HO4     OW 9113   4.447   5.867   1.319
 2279HO4    HW1 9114   4.360   5.854   1.271
 2279HO4    HW2 9115   4.462   5.965   1.335
 2279HO4     MW 9116   4.447   5.867   1.319
 2280HO4     OW 9117   1.893   3.581   8.758
 2280HO4    HW1 9118   1.808   3.536   8.731
 2280HO4    HW2 9119   1.908   3.662   8.701
 2280HO4     MW 9120   1.893   3.581   8.758
 2281HO4     OW 9121   6.436   4.256   9.417
 2281HO4    HW1 9122   6.459   4.219   9.326
 2281HO4    HW2 9123   6.467   4.351   9.424
 2281HO4     MW 9124   6.436   4.256   9.417
 2282HO4     OW 9125   0.916   4.845   3.819
 2282HO4    HW1 9126   0.955   4.789   3.893
 2282HO4    HW2 9127   0.938   4.803   3.730
 2282HO4     MW 9128   0.916   4.845   3.819
 2283HO4     OW 9129   7.236   8.148   1.157
 2283HO4    HW1 9130   7.169   8.157   1.231
 2283HO4    HW2 9131   7.214   8.067   1.101
 2283HO4     MW 9132   7.236   8.148   1.157
 2284HO4     OW 9133   7.720   8.727   7.409
 2284HO4    HW1 9134   7.675   8.774   7.486
 2284HO4    HW2 9135   7.657   8.658   7.372
 2284HO4     MW 9136   7.720   8.727   7.409
 2285HO4     OW 9137   7.555   2.489   8.831
 2285HO4    HW1 9138   7.516   2.492   8.924
 2285HO4    HW2 9139   7.481   2.480   8.764
 2285HO4     MW 9140   7.555   2.489   8.831
 2286HO4     OW 9141   7.611   6.769   2.462
 2286HO4    HW1 9142   7.592   6.770   2.561
 2286HO4    HW2 9143   7.706   6.740   2.446
 2286HO4     MW 9144   7.611   6.769   2.462
 2287HO4     OW 9145   9.566   6.277   1.963
 2287HO4    HW1 9146   9.558   6.216   2.043
 2287HO4    HW2 9147   9.530   6.231   1.882
 2287HO4     MW 9148   9.566   6.277   1.963
 2288HO4     OW 9149   8.277   1.625   5.498
 2288HO4    HW1 9150   8.246   1.550   5.556
 2288HO4    HW2 9151   8.238   1.615   5.406
 2288HO4     MW 9152   8.277   1.625   5.498
 2289HO4     OW 9153   5.955   3.537   8.947
 2289HO4    HW1 9154   5.872   3.496   8.908
 2289HO4    HW2 9155   5.976   3.493   9.035
 2289HO4     MW 9156   5.955   3.537   8.947
 2290HO4     OW 9157   4.421   9.967   3.495
 2290HO4    HW1 9158   4.351  10.029   3.457
 2290HO4    HW2 9159   4.507  10.017   3.507
 2290HO4     MW 9160   4.421   9.967   3.495
 2291HO4     OW 9161   2.308   4.662   5.503
 2291HO4    HW1 9162   2.282   4.729   5.434
 2291HO4    HW2 9163   2.407   4.669   5.521
 2291HO4     MW 9164   2.308   4.662   5.503
 2292HO4     OW 9165   7.219   5.157   7.084
 2292HO4    HW1 9166   7.279   5.228   7.046
 2292HO4    HW2 9167   7.224   5.159   7.185
 2292HO4     MW 9168   7.219   5.157   7.084
 2293HO4     OW 9169   0.980   0.051   2.398
 2293HO4    HW1 9170   0.957   0.132   2.342
 2293HO4    HW2 9171   1.077   0.052   2.421
 2293HO4     MW 9172   0.980   0.051   2.398
 2294HO4     OW 9173   0.728   6.130   6.635
 2294HO4    HW1 9174   0.657   6.195   6.608
 2294HO4    HW2 9175   0.701   6.085   6.721
 2294HO4     MW 9176   0.728   6.130   6.635
 2295HO4     OW 9177   0.107   6.422   5.057
 2295HO4    HW1 9178   0.197   6.450   5.093
 2295HO4    HW2 9179   0.086   6.476   4.974
 2295HO4     MW 9180   0.107   6.422   5.057
 2296HO4     OW 9181   0.301   0.887   8.963
 2296HO4    HW1 9182   0.387   0.910   9.009
 2296HO4    HW2 9183   0.269   0.966   8.910
 2296HO4     MW 9184   0.301   0.887   8.963
 2297HO4     OW 9185   9.633   8.891   3.639
 2297HO4    HW1 9186   9.729   8.915   3.621
 2297HO4    HW2 9187   9.629   8.804   3.690
 2297HO4     MW 9188   9.633   8.891   3.639
 2298HO4     OW 9189   2.250   9.984   6.447
 2298HO4    HW1 9190   2.286  10.063   6.497
 2298HO4    HW2 9191   2.319   9.951   6.381
 2298HO4     MW 9192   2.250   9.984   6.447
 2299HO4     OW 9193   2.152   2.227   0.397
 2299HO4    HW1 9194   2.190   2.224   0.304
 2299HO4    HW2 9195   2.223   2.198   0.463
 2299HO4     MW 9196   2.152   2.227   0.397
 2300HO4     OW 9197   8.827   7.613   2.800
 2300HO4    HW1 9198   8.748   7.660   2.841
 2300HO4    HW2 9199   8.911   7.662   2.824
 2300HO4     MW 9200   8.827   7.613   2.800
 2301HO4     OW 9201   6.156   0.358   3.685
 2301HO4    HW1 9202   6.111   0.441   3.719
 2301HO4    HW2 9203   6.213   0.381   3.605
 2301HO4     MW 9204   6.156   0.358   3.685
 2302HO4     OW 9205   9.277   7.169   2.634
 2302HO4    HW1 9206   9.300   7.113   2.554
 2302HO4    HW2 9207   9.353   7.165   2.701
 2302HO4     MW 9208   9.277   7.169   2.634
 2303HO4     OW 9209   2.923   9.640   4.453
 2303HO4    HW1 9210   2.988   9.692   4.508
 2303HO4    HW2 9211   2.930   9.668   4.357
 2303HO4     MW 9212   2.923   9.640   4.453
 2304HO4     OW 9213   8.442   1.315   0.658
 2304HO4    HW1 9214   8.366   1.283   0.601
 2304HO4    HW2 9215   8.431   1.280   0.752
 2304HO4     MW 9216   8.442   1.315   0.658
 2305HO4     OW 9217   0.560   0.998   2.502
 2305HO4    HW1 9218   0.513   1.019   2.589
 2305HO4    HW2 9219   0.603   0.908   2.507
 2305HO4     MW 9220   0.560   0.998   2.502
 2306HO4     OW 9221   5.676   1.936   5.205
 2306HO4    HW1 9222   5.694   1.985   5.291
 2306HO4    HW2 9223   5.670   2.002   5.129
 2306HO4     MW 9224   5.676   1.936   5.205
 2307HO4     OW 9225   0.939   3.037   3.614
 2307HO4    HW1 9226   0.914   3.134   3.623
 2307HO4    HW2 9227   0.997   3.010   3.691
 2307HO4     MW 9228   0.939   3.037   3.614
 2308HO4     OW 9229   1.741   4.282   9.510
 2308HO4    HW1 9230   1.738   4.257   9.413
 2308HO4    HW2 9231   1.750   4.199   9.566
 2308HO4     MW 9232   1.741   4.282   9.510
 2309HO4     OW 9233   1.652   9.400   9.451
 2309HO4    HW1 9234   1.687   9.453   9.374
 2309HO4    HW2 9235   1.704   9.422   9.534
 2309HO4     MW 9236   1.652   9.400   9.451
 2310HO4     OW 9237   0.577   5.005   6.541
 2310HO4    HW1 9238   0.587   5.105   6.535
 2310HO4    HW2 9239   0.604   4.974   6.633
 2310HO4     MW 9240   0.577   5.005   6.541
 2311HO4     OW 9241   4.357   7.348   8.967
 2311HO4    HW1 9242   4.361   7.436   8.920
 2311HO4    HW2 9243   4.446   7.303   8.962
 2311HO4     MW 9244   4.357   7.348   8.967
 2312HO4     OW 9245   4.897   4.144   5.211
 2312HO4    HW1 9246   4.871   4.098   5.297
 2312HO4    HW2 9247   4.820   4.141   5.148
 2312HO4     MW 9248   4.897   4.144   5.211
 2313HO4     OW 9249   4.951   5.458   2.179
 2313HO4    HW1 9250   4.908   5.476   2.090
 2313HO4    HW2 9251   4.880   5.445   2.249
 2313HO4     MW 9252   4.951   5.458   2.179
 2314HO4     OW 9253   3.606   4.746   2.505
 2314HO4    HW1 9254   3.598   4.845   2.512
 2314HO4    HW2 9255   3.643   4.709   2.591
 2314HO4     MW 9256   3.606   4.746   2.505
 2315HO4     OW 9257   0.708   7.114   5.201
 2315HO4    HW1 9258   0.685   7.172   5.280
 2315HO4    HW2 9259   0.623   7.082   5.158
 2315HO4     MW 9260   0.708   7.114   5.201
 2316HO4     OW 9261   9.129   2.817   9.617
 2316HO4    HW1 9262   9.182   2.878   9.558
 2316HO4    HW2 9263   9.157   2.722   9.601
 2316HO4     MW 9264   9.129   2.817   9.617
 2317HO4     OW 9265   0.985   8.189   8.457
 2317HO4    HW1 9266   0.993   8.207   8.358
 2317HO4    HW2 9267   1.022   8.099   8.478
 2317HO4     MW 9268   0.985   8.189   8.457
 2318HO4     OW 9269   8.307   4.208   3.303
 2318HO4    HW1 9270   8.370   4.237   3.375
 2318HO4    HW2 9271   8.337   4.120   3.265
 2318HO4     MW 9272   8.307   4.208   3.303
 2319HO4     OW 9273   1.952   4.297   1.777
 2319HO4    HW1 9274   1.993   4.294   1.869
 2319HO4    HW2 9275   2.025   4.309   1.709
 2319HO4     MW 9276   1.952   4.297   1.777
 2320HO4     OW 9277   6.474   9.969   0.775
 2320HO4    HW1 9278   6.480  10.007   0.868
 2320HO4    HW2 9279   6.479  10.043   0.708
 2320HO4     MW 9280   6.474   9.969   0.775
 2321HO4     OW 9281   1.488   0.005   6.662
 2321HO4    HW1 9282   1.460   0.045   6.749
 2321HO4    HW2 9283   1.460   0.065   6.586
 2321HO4     MW 9284   1.488   0.005   6.662
 2322HO4     OW 9285   9.704   4.580   7.102
 2322HO4    HW1 9286   9.785   4.603   7.046
 2322HO4    HW2 9287   9.623   4.624   7.062
 2322HO4     MW 9288   9.704   4.580   7.102
 2323HO4     OW 9289   3.614   6.407   2.466
 2323HO4    HW1 9290   3.568   6.481   2.415
 2323HO4    HW2 9291   3.652   6.443   2.551
 2323HO4     MW 9292   3.614   6.407   2.466
 2324HO4     OW 9293   5.592   6.625   7.393
 2324HO4    HW1 9294   5.555   6.658   7.481
 2324HO4    HW2 9295   5.562   6.686   7.319
 2324HO4     MW 9296   5.592   6.625   7.393
 2325HO4     OW 9297   6.769   0.614   8.399
 2325HO4    HW1 9298   6.765   0.657   8.489
 2325HO4    HW2 9299   6.860   0.574   8.385
 2325HO4     MW 9300   6.769   0.614   8.399
 2326HO4     OW 9301   3.657   9.887   6.057
 2326HO4    HW1 9302   3.660   9.906   6.156
 2326HO4    HW2 9303   3.681   9.970   6.006
 2326HO4     MW 9304   3.657   9.887   6.057
 2327HO4     OW 9305   3.270   5.291   2.298
 2327HO4    HW1 9306   3.220   5.344   2.229
 2327HO4    HW2 9307   3.311   5.353   2.365
 2327HO4     MW 9308   3.270   5.291   2.298
 2328HO4     OW 9309   2.918   5.214   8.821
 2328HO4    HW1 9310   2.948   5.174   8.908
 2328HO4    HW2 9311   2.887   5.308   8.837
 2328HO4     MW 9312   2.918   5.214   8.821
 2329HO4     OW 9313   9.441   0.104   8.948
 2329HO4    HW1 9314   9.421   0.168   8.874
 2329HO4    HW2 9315   9.448   0.155   9.035
 2329HO4     MW 9316   9.441   0.104   8.948
 2330HO4     OW 9317   4.778   6.155   2.058
 2330HO4    HW1 9318   4.687   6.158   2.015
 2330HO4    HW2 9319   4.792   6.067   2.104
 2330HO4     MW 9320   4.778   6.155   2.058
 2331HO4     OW 9321   0.026   1.216   5.300
 2331HO4    HW1 9322   0.116   1.221   5.344
 2331HO4    HW2 9323   0.028   1.268   5.214
 2331HO4     MW 9324   0.026   1.216   5.300
 2332HO4     OW 9325   6.720  10.100   5.063
 2332HO4    HW1 9326   6.657  10.178   5.065
 2332HO4    HW2 9327   6.735  10.072   4.968
 2332HO4     MW 9328   6.720  10.100   5.063
 2333HO4     OW 9329   4.143   3.248   3.767
 2333HO4    HW1 9330   4.157   3.298   3.681
 2333HO4    HW2 9331   4.154   3.312   3.845
 2333HO4     MW 9332   4.143   3.248   3.767
 2334HO4     OW 9333   0.075   1.450   7.164
 2334HO4    HW1 9334   0.028   1.417   7.247
 2334HO4    HW2 9335   0.020   1.428   7.083
 2334HO4     MW 9336   0.075   1.450   7.164
 2335HO4     OW 9337   1.608   0.787   1.586
 2335HO4    HW1 9338   1.580   0.757   1.494
 2335HO4    HW2 9339   1.576   0.721   1.654
 2335HO4     MW 9340   1.608   0.787   1.586
 2336HO4     OW 9341   7.507   9.693   7.953
 2336HO4    HW1 9342   7.422   9.742   7.933
 2336HO4    HW2 9343   7.546   9.656   7.868
 2336HO4     MW 9344   7.507   9.693   7.953
 2337HO4     OW 9345   8.961   6.927   4.272
 2337HO4    HW1 9346   8.875   6.966   4.306
 2337HO4    HW2 9347   9.014   6.999   4.227
 2337HO4     MW 9348   8.961   6.927   4.272
 2338HO4     OW 9349  10.007   7.161   8.073
 2338HO4    HW1 9350  10.095   7.208   8.060
 2338HO4    HW2 9351   9.956   7.206   8.147
 2338HO4     MW 9352  10.007   7.161   8.073
 2339HO4     OW 9353   9.642   2.744   3.620
 2339HO4    HW1 9354   9.593   2.715   3.538
 2339HO4    HW2 9355   9.580   2.794   3.680
 2339HO4     MW 9356   9.642   2.744   3.620
 2340HO4     OW 9357   7.922   1.757   0.605
 2340HO4    HW1 9358   8.016   1.723   0.607
 2340HO4    HW2 9359   7.859   1.679   0.594
 2340HO4     MW 9360   7.922   1.757   0.605
 2341HO4     OW 9361   4.236   4.713   4.905
 2341HO4    HW1 9362   4.141   4.742   4.918
 2341HO4    HW2 9363   4.248   4.682   4.810
 2341HO4     MW 9364   4.236   4.713   4.905
 2342HO4     OW 9365   3.497   9.217   8.122
 2342HO4    HW1 9366   3.465   9.207   8.028
 2342HO4    HW2 9367   3.433   9.172   8.185
 2342HO4     MW 9368   3.497   9.217   8.122
 2343HO4     OW 9369   3.435   8.318   7.683
 2343HO4    HW1 9370   3.437   8.300   7.781
 2343HO4    HW2 9371   3.378   8.399   7.665
 2343HO4     MW 9372   3.435   8.318   7.683
 2344HO4     OW 9373   2.333   7.789   8.364
 2344HO4    HW1 9374   2.400   7.735   8.416
 2344HO4    HW2 9375   2.351   7.777   8.266
 2344HO4     MW 9376   2.333   7.789   8.364
 2345HO4     OW 9377   1.830   1.132   0.225
 2345HO4    HW1 9378   1.751   1.071   0.211
 2345HO4    HW2 9379   1.912   1.077   0.243
 2345HO4     MW 9380   1.830   1.132   0.225
 2346HO4     OW 9381   5.339  10.002   7.702
 2346HO4    HW1 9382   5.428   9.998   7.748
 2346HO4    HW2 9383   5.328   9.920   7.644
 2346HO4     MW 9384   5.339  10.002   7.702
 2347HO4     OW 9385   4.482   9.140   0.662
 2347HO4    HW1 9386   4.430   9.176   0.740
 2347HO4    HW2 9387   4.433   9.162   0.577
 2347HO4     MW 9388   4.482   9.140   0.662
 2348HO4     OW 9389   5.859   1.077   0.572
 2348HO4    HW1 9390   5.857   0.992   0.519
 2348HO4    HW2 9391   5.859   1.055   0.670
 2348HO4     MW 9392   5.859   1.077   0.572
 2349HO4     OW 9393   4.515   8.812   6.759
 2349HO4    HW1 9394   4.454   8.799   6.681
 2349HO4    HW2 9395   4.582   8.737   6.762
 2349HO4     MW 9396   4.515   8.812   6.759
 2350HO4     OW 9397   9.063   1.958   7.880
 2350HO4    HW1 9398   9.014   1.957   7.968
 2350HO4    HW2 9399   8.997   1.960   7.805
 2350HO4     MW 9400   9.063   1.958   7.880
 2351HO4     OW 9401   8.857   8.297   4.780
 2351HO4    HW1 9402   8.855   8.381   4.836
 2351HO4    HW2 9403   8.800   8.309   4.699
 2351HO4     MW 9404   8.857   8.297   4.780
 2352HO4     OW 9405   6.614   2.713   8.712
 2352HO4    HW1 9406   6.626   2.660   8.628
 2352HO4    HW2 9407   6.593   2.650   8.788
 2352HO4     MW 9408   6.614   2.713   8.712
 2353HO4     OW 9409   7.687   6.657   2.245
 2353HO4    HW1 9410   7.647   6.644   2.336
 2353HO4    HW2 9411   7.635   6.602   2.178
 2353HO4     MW 9412   7.687   6.657   2.245
 2354HO4     OW 9413   2.591   2.161   3.264
 2354HO4    HW1 9414   2.508   2.138   3.317
 2354HO4    HW2 9415   2.568   2.228   3.193
 2354HO4     MW 9416   2.591   2.161   3.264
 2355HO4     OW 9417   7.952   5.119   1.399
 2355HO4    HW1 9418   7.978   5.090   1.306
 2355HO4    HW2 9419   8.033   5.117   1.458
 2355HO4     MW 9420   7.952   5.119   1.399
 2356HO4     OW 9421   1.685  10.151   5.164
 2356HO4    HW1 9422   1.777  10.175   5.196
 2356HO4    HW2 9423   1.682  10.152   5.064
 2356HO4     MW 9424   1.685  10.151   5.164
 2357HO4     OW 9425   4.479   0.878   0.978
 2357HO4    HW1 9426   4.519   0.922   0.897
 2357HO4    HW2 9427   4.476   0.944   1.054
 2357HO4     MW 9428   4.479   0.878   0.978
 2358HO4     OW 9429   7.815  10.107   9.079
 2358HO4    HW1 9430   7.804  10.182   9.014
 2358HO4    HW2 9431   7.824  10.143   9.172
 2358HO4     MW 9432   7.815  10.107   9.079
 2359HO4     OW 9433   6.237   9.405   2.273
 2359HO4    HW1 9434   6.178   9.368   2.201
 2359HO4    HW2 9435   6.228   9.350   2.356
 2359HO4     MW 9436   6.237   9.405   2.273
 2360HO4     OW 9437   9.862   0.663   4.308
 2360HO4    HW1 9438   9.881   0.619   4.220
 2360HO4    HW2 9439   9.840   0.593   4.376
 2360HO4     MW 9440   9.862   0.663   4.308
 2361HO4     OW 9441   7.960   4.556   4.219
 2361HO4    HW1 9442   7.953   4.457   4.210
 2361HO4    HW2 9443   8.009   4.579   4.304
 2361HO4     MW 9444   7.960   4.556   4.219
 2362HO4     OW 9445   5.786   3.465   7.436
 2362HO4    HW1 9446   5.799   3.543   7.496
 2362HO4    HW2 9447   5.738   3.494   7.352
 2362HO4     MW 9448   5.786   3.465   7.436
 2363HO4     OW 9449   8.741   1.578   9.460
 2363HO4    HW1 9450   8.704   1.536   9.376
 2363HO4    HW2 9451   8.691   1.544   9.540
 2363HO4     MW 9452   8.741   1.578   9.460
 2364HO4     OW 9453   6.952   2.607   1.175
 2364HO4    HW1 9454   6.930   2.654   1.089
 2364HO4    HW2 9455   6.917   2.661   1.252
 2364HO4     MW 9456   6.952   2.607   1.175
 2365HO4     OW 9457   8.943   3.926   4.860
 2365HO4    HW1 9458   8.963   3.913   4.957
 2365HO4    HW2 9459   8.913   4.021   4.844
 2365HO4     MW 9460   8.943   3.926   4.860
 2366HO4     OW 9461   8.831   4.008   5.814
 2366HO4    HW1 9462   8.776   3.979   5.734
 2366HO4    HW2 9463   8.771   4.017   5.894
 2366HO4     MW 9464   8.831   4.008   5.814
 2367HO4     OW 9465   3.744   7.115   3.520
 2367HO4    HW1 9466   3.736   7.214   3.514
 2367HO4    HW2 9467   3.705   7.072   3.438
 2367HO4     MW 9468   3.744   7.115   3.520
 2368HO4     OW 9469   2.373   1.266   9.381
 2368HO4    HW1 9470   2.335   1.221   9.463
 2368HO4    HW2 9471   2.436   1.339   9.409
 2368HO4     MW 9472   2.373   1.266   9.381
 2369HO4     OW 9473   7.790   3.008   3.853
 2369HO4    HW1 9474   7.793   3.010   3.954
 2369HO4    HW2 9475   7.729   2.935   3.822
 2369HO4     MW 9476   7.790   3.008   3.853
 2370HO4     OW 9477   1.866   6.162   8.967
 2370HO4    HW1 9478   1.857   6.132   8.872
 2370HO4    HW2 9479   1.867   6.082   9.028
 2370HO4     MW 9480   1.866   6.162   8.967
 2371HO4     OW 9481   1.780   6.741   1.973
 2371HO4    HW1 9482   1.682   6.734   1.994
 2371HO4    HW2 9483   1.820   6.649   1.968
 2371HO4     MW 9484   1.780   6.741   1.973
 2372HO4     OW 9485   8.083   5.972   4.989
 2372HO4    HW1 9486   8.079   6.041   4.916
 2372HO4    HW2 9487   8.059   6.014   5.077
 2372HO4     MW 9488   8.083   5.972   4.989
 2373HO4     OW 9489   7.271   8.329   0.015
 2373HO4    HW1 9490   7.345   8.356   0.078
 2373HO4    HW2 9491   7.183   8.334   0.064
 2373HO4     MW 9492   7.271   8.329   0.015
 2374HO4     OW 9493   5.076   6.140   7.565
 2374HO4    HW1 9494   5.126   6.194   7.497
 2374HO4    HW2 9495   5.029   6.063   7.520
 2374HO4     MW 9496   5.076   6.140   7.565
 2375HO4     OW 9497   8.257  10.030   7.269
 2375HO4    HW1 9498   8.247   9.978   7.354
 2375HO4    HW2 9499   8.240   9.969   7.191
 2375HO4     MW 9500   8.257  10.030   7.269
 2376HO4     OW 9501   1.363   3.482   6.966
 2376HO4    HW1 9502   1.360   3.571   6.919
 2376HO4    HW2 9503   1.354   3.497   7.065
 2376HO4     MW 9504   1.363   3.482   6.966
 2377HO4     OW 9505   3.288   5.065   8.797
 2377HO4    HW1 9506   3.357   5.095   8.730
 2377HO4    HW2 9507   3.204   5.038   8.749
 2377HO4     MW 9508   3.288   5.065   8.797
 2378HO4     OW 9509   8.078   5.359   6.987
 2378HO4    HW1 9510   8.037   5.449   6.971
 2378HO4    HW2 9511   8.014   5.288   6.957
 2378HO4     MW 9512   8.078   5.359   6.987
 2379HO4     OW 9513   4.265   1.198   0.141
 2379HO4    HW1 9514   4.317   1.257   0.078
 2379HO4    HW2 9515   4.263   1.104   0.104
 2379HO4     MW 9516   4.265   1.198   0.141
 2380HO4     OW 9517   6.891   6.777   8.927
 2380HO4    HW1 9518   6.877   6.720   8.845
 2380HO4    HW2 9519   6.877   6.722   9.009
 2380HO4     MW 9520   6.891   6.777   8.927
 2381HO4     OW 9521   3.411   3.392   2.486
 2381HO4    HW1 9522   3.427   3.315   2.548
 2381HO4    HW2 9523   3.313   3.406   2.475
 2381HO4     MW 9524   3.411   3.392   2.486
 2382HO4     OW 9525   9.118   1.586   9.509
 2382HO4    HW1 9526   9.073   1.531   9.581
 2382HO4    HW2 9527   9.144   1.527   9.432
 2382HO4     MW 9528   9.118   1.586   9.509
 2383HO4     OW 9529   1.667   4.002   2.344
 2383HO4    HW1 9530   1.720   4.069   2.395
 2383HO4    HW2 9531   1.623   4.046   2.265
 2383HO4     MW 9532   1.667   4.002   2.344
 2384HO4     OW 9533   6.527   3.693   7.739
 2384HO4    HW1 9534   6.460   3.726   7.807
 2384HO4    HW2 9535   6.484   3.621   7.683
 2384HO4     MW 9536   6.527   3.693   7.739
 2385HO4     OW 9537   7.887   7.193   0.610
 2385HO4    HW1 9538   7.884   7.194   0.711
 2385HO4    HW2 9539   7.978   7.221   0.579
 2385HO4     MW 9540   7.887   7.193   0.610
 2386HO4     OW 9541   3.424   8.040   4.073
 2386HO4    HW1 9542   3.456   8.054   4.167
 2386HO4    HW2 9543   3.392   8.127   4.036
 2386HO4     MW 9544   3.424   8.040   4.073
 2387HO4     OW 9545   8.623   7.602   0.227
 2387HO4    HW1 9546   8.622   7.556   0.317
 2387HO4    HW2 9547   8.667   7.691   0.235
 2387HO4     MW 9548   8.623   7.602   0.227
 2388HO4     OW 9549   1.595   8.311   7.180
 2388HO4    HW1 9550   1.621   8.363   7.098
 2388HO4    HW2 9551   1.617   8.365   7.262
 2388HO4     MW 9552   1.595   8.311   7.180
 2389HO4     OW 9553   7.637   9.258   7.679
 2389HO4    HW1 9554   7.688   9.247   7.765
 2389HO4    HW2 9555   7.701   9.257   7.602
 2389HO4     MW 9556   7.637   9.258   7.679
 2390HO4     OW 9557   7.979   3.781   3.559
 2390HO4    HW1 9558   7.951   3.718   3.486
 2390HO4    HW2 9559   7.933   3.755   3.645
 2390HO4     MW 9560   7.979   3.781   3.559
 2391HO4     OW 9561   2.568   3.568   3.729
 2391HO4    HW1 9562   2.494   3.627   3.762
 2391HO4    HW2 9563   2.575   3.487   3.787
 2391HO4     MW 9564   2.568   3.568   3.729
 2392HO4     OW 9565   2.587   7.540   7.666
 2392HO4    HW1 9566   2.648   7.509   7.593
 2392HO4    HW2 9567   2.492   7.536   7.635
 2392HO4     MW 9568   2.587   7.540   7.666
 2393HO4     OW 9569   4.994   5.372   0.921
 2393HO4    HW1 9570   4.926   5.361   0.995
 2393HO4    HW2 9571   4.997   5.468   0.893
 2393HO4     MW 9572   4.994   5.372   0.921
 2394HO4     OW 9573   0.036   9.743   4.385
 2394HO4    HW1 9574  -0.064   9.757   4.386
 2394HO4    HW2 9575   0.067   9.731   4.290
 2394HO4     MW 9576   0.036   9.743   4.385
 2395HO4     OW 9577   6.436   2.214   6.513
 2395HO4    HW1 9578   6.495   2.245   6.438
 2395HO4    HW2 9579   6.483   2.229   6.601
 2395HO4     MW 9580   6.436   2.214   6.513
 2396HO4     OW 9581   3.608  10.104   5.080
 2396HO4    HW1 9582   3.539  10.128   5.150
 2396HO4    HW2 9583   3.564  10.100   4.990
 2396HO4     MW 9584   3.608  10.104   5.080
 2397HO4     OW 9585   2.344   5.841   0.845
 2397HO4    HW1 9586   2.282   5.795   0.780
 2397HO4    HW2 9587   2.311   5.934   0.863
 2397HO4     MW 9588   2.344   5.841   0.845
 2398HO4     OW 9589   6.926   1.770   2.102
 2398HO4    HW1 9590   6.843   1.751   2.155
 2398HO4    HW2 9591   6.970   1.684   2.076
 2398HO4     MW 9592   6.926   1.770   2.102
 2399HO4     OW 9593   6.403   3.860   2.682
 2399HO4    HW1 9594   6.438   3.832   2.592
 2399HO4    HW2 9595   6.326   3.801   2.708
 2399HO4     MW 9596   6.403   3.860   2.682
 2400HO4     OW 9597   8.879   5.143   7.032
 2400HO4    HW1 9598   8.967   5.117   7.072
 2400HO4    HW2 9599   8.858   5.084   6.954
 2400HO4     MW 9600   8.879   5.143   7.032
 2401HO4     OW 9601   1.367   5.563   8.395
 2401HO4    HW1 9602   1.282   5.558   8.447
 2401HO4    HW2 9603   1.353   5.618   8.312
 2401HO4     MW 9604   1.367   5.563   8.395
 2402HO4     OW 9605   2.358   8.839   6.516
 2402HO4    HW1 9606   2.388   8.771   6.448
 2402HO4    HW2 9607   2.259   8.850   6.509
 2402HO4     MW 9608   2.358   8.839   6.516
 2403HO4     OW 9609   0.659   5.338   4.356
 2403HO4    HW1 9610   0.611   5.264   4.308
 2403HO4    HW2 9611   0.688   5.408   4.290
 2403HO4     MW 9612   0.659   5.338   4.356
 2404HO4     OW 9613   5.108   0.903   8.342
 2404HO4    HW1 9614   5.198   0.894   8.385
 2404HO4    HW2 9615   5.110   0.860   8.251
 2404HO4     MW 9616   5.108   0.903   8.342
 2405HO4     OW 9617   3.569   7.757   3.005
 2405HO4    HW1 9618   3.628   7.762   2.924
 2405HO4    HW2 9619   3.523   7.667   3.007
 2405HO4     MW 9620   3.569   7.757   3.005
 2406HO4     OW 9621  10.141   0.136   3.740
 2406HO4    HW1 9622  10.169   0.074   3.814
 2406HO4    HW2 9623  10.162   0.095   3.651
 2406HO4     MW 9624  10.141   0.136   3.740
 2407HO4     OW 9625   8.190   8.013   6.029
 2407HO4    HW1 9626   8.249   7.956   5.971
 2407HO4    HW2 9627   8.173   8.101   5.982
 2407HO4     MW 9628   8.190   8.013   6.029
 2408HO4     OW 9629   0.585   6.070   7.403
 2408HO4    HW1 9630   0.636   6.157   7.402
 2408HO4    HW2 9631   0.644   5.997   7.366
 2408HO4     MW 9632   0.585   6.070   7.403
 2409HO4     OW 9633   9.007   7.185   7.831
 2409HO4    HW1 9634   8.920   7.138   7.811
 2409HO4    HW2 9635   9.018   7.196   7.930
 2409HO4     MW 9636   9.007   7.185   7.831
 2410HO4     OW 9637   8.565   0.049   1.280
 2410HO4    HW1 9638   8.637  -0.020   1.267
 2410HO4    HW2 9639   8.565   0.112   1.202
 2410HO4     MW 9640   8.565   0.049   1.280
 2411HO4     OW 9641   1.094   8.310   9.108
 2411HO4    HW1 9642   1.047   8.230   9.069
 2411HO4    HW2 9643   1.042   8.393   9.087
 2411HO4     MW 9644   1.094   8.310   9.108
 2412HO4     OW 9645   1.424   5.091   4.255
 2412HO4    HW1 9646   1.343   5.129   4.300
 2412HO4    HW2 9647   1.502   5.151   4.270
 2412HO4     MW 9648   1.424   5.091   4.255
 2413HO4     OW 9649   4.196   2.518   1.020
 2413HO4    HW1 9650   4.145   2.432   1.018
 2413HO4    HW2 9651   4.213   2.549   0.926
 2413HO4     MW 9652   4.196   2.518   1.020
 2414HO4     OW 9653   6.566   8.514   9.393
 2414HO4    HW1 9654   6.606   8.590   9.445
 2414HO4    HW2 9655   6.608   8.512   9.301
 2414HO4     MW 9656   6.566   8.514   9.393
 2415HO4     OW 9657   8.147   8.090   8.132
 2415HO4    HW1 9658   8.187   8.052   8.216
 2415HO4    HW2 9659   8.199   8.057   8.053
 2415HO4     MW 9660   8.147   8.090   8.132
 2416HO4     OW 9661   7.393   7.135   0.304
 2416HO4    HW1 9662   7.423   7.153   0.398
 2416HO4    HW2 9663   7.393   7.035   0.287
 2416HO4     MW 9664   7.393   7.135   0.304
 2417HO4     OW 9665   6.083   1.984   3.024
 2417HO4    HW1 9666   6.072   2.046   3.102
 2417HO4    HW2 9667   6.019   1.907   3.034
 2417HO4     MW 9668   6.083   1.984   3.024
 2418HO4     OW 9669   6.134   5.488   4.852
 2418HO4    HW1 9670   6.221   5.472   4.899
 2418HO4    HW2 9671   6.063   5.510   4.920
 2418HO4     MW 9672   6.134   5.488   4.852
 2419HO4     OW 9673   1.678   7.000   1.776
 2419HO4    HW1 9674   1.623   6.954   1.847
 2419HO4    HW2 9675   1.696   7.095   1.804
 2419HO4     MW 9676   1.678   7.000   1.776
 2420HO4     OW 9677   9.622   7.569   4.509
 2420HO4    HW1 9678   9.693   7.507   4.543
 2420HO4    HW2 9679   9.578   7.528   4.428
 2420HO4     MW 9680   9.622   7.569   4.509
 2421HO4     OW 9681   7.129   1.079   8.585
 2421HO4    HW1 9682   7.107   1.026   8.502
 2421HO4    HW2 9683   7.150   1.174   8.560
 2421HO4     MW 9684   7.129   1.079   8.585
 2422HO4     OW 9685   8.240   9.568   4.131
 2422HO4    HW1 9686   8.146   9.547   4.103
 2422HO4    HW2 9687   8.260   9.523   4.218
 2422HO4     MW 9688   8.240   9.568   4.131
 2423HO4     OW 9689   7.837   7.665   2.971
 2423HO4    HW1 9690   7.827   7.741   3.036
 2423HO4    HW2 9691   7.802   7.692   2.881
 2423HO4     MW 9692   7.837   7.665   2.971
 2424HO4     OW 9693   6.690   2.989   0.318
 2424HO4    HW1 9694   6.718   2.895   0.341
 2424HO4    HW2 9695   6.639   2.988   0.232
 2424HO4     MW 9696   6.690   2.989   0.318
 2425HO4     OW 9697   4.069  10.107   7.079
 2425HO4    HW1 9698   3.995  10.159   7.038
 2425HO4    HW2 9699   4.150  10.165   7.088
 2425HO4     MW 9700   4.069  10.107   7.079
 2426HO4     OW 9701   5.990   3.075   9.660
 2426HO4    HW1 9702   5.959   3.106   9.570
 2426HO4    HW2 9703   5.958   2.980   9.675
 2426HO4     MW 9704   5.990   3.075   9.660
 2427HO4     OW 9705   6.621   3.298   3.158
 2427HO4    HW1 9706   6.676   3.343   3.087
 2427HO4    HW2 9707   6.614   3.199   3.137
 2427HO4     MW 9708   6.621   3.298   3.158
 2428HO4     OW 9709   9.914   3.749   6.979
 2428HO4    HW1 9710   9.955   3.731   6.889
 2428HO4    HW2 9711   9.944   3.680   7.045
 2428HO4     MW 9712   9.914   3.749   6.979
 2429HO4     OW 9713   1.550   3.293   0.287
 2429HO4    HW1 9714   1.536   3.347   0.204
 2429HO4    HW2 9715   1.532   3.351   0.367
 2429HO4     MW 9716   1.550   3.293   0.287
 2430HO4     OW 9717   6.178   2.792   6.402
 2430HO4    HW1 9718   6.135   2.881   6.420
 2430HO4    HW2 9719   6.125   2.743   6.333
 2430HO4     MW 9720   6.178   2.792   6.402
 2431HO4     OW 9721   2.802   5.108   7.010
 2431HO4    HW1 9722   2.861   5.121   7.091
 2431HO4    HW2 9723   2.856   5.125   6.927
 2431HO4     MW 9724   2.802   5.108   7.010
 2432HO4     OW 9725   6.908   2.463   2.837
 2432HO4    HW1 9726   6.970   2.476   2.759
 2432HO4    HW2 9727   6.955   2.488   2.922
 2432HO4     MW 9728   6.908   2.463   2.837
 2433HO4     OW 9729   0.368   0.259   9.258
 2433HO4    HW1 9730   0.388   0.323   9.332
 2433HO4    HW2 9731   0.281   0.285   9.213
 2433HO4     MW 9732   0.368   0.259   9.258
 2434HO4     OW 9733   3.069   3.270   0.859
 2434HO4    HW1 9734   3.081   3.353   0.913
 2434HO4    HW2 9735   3.087   3.290   0.762
 2434HO4     MW 9736   3.069   3.270   0.859
 2435HO4     OW 9737   1.319   9.430   6.609
 2435HO4    HW1 9738   1.319   9.343   6.658
 2435HO4    HW2 9739   1.369   9.499   6.663
 2435HO4     MW 9740   1.319   9.430   6.609
 2436HO4     OW 9741   6.581   3.852   6.391
 2436HO4    HW1 9742   6.523   3.890   6.319
 2436HO4    HW2 9743   6.586   3.917   6.467
 2436HO4     MW 9744   6.581   3.852   6.391
 2437HO4     OW 9745   3.951   4.566   2.218
 2437HO4    HW1 9746   3.867   4.609   2.184
 2437HO4    HW2 9747   3.981   4.611   2.302
 2437HO4     MW 9748   3.951   4.566   2.218
 2438HO4     OW 9749   0.287   2.686   9.158
 2438HO4    HW1 9750   0.383   2.712   9.165
 2438HO4    HW2 9751   0.254   2.702   9.065
 2438HO4     MW 9752   0.287   2.686   9.158
 2439HO4     OW 9753   0.809   3.515   9.813
 2439HO4    HW1 9754   0.720   3.468   9.807
 2439HO4    HW2 9755   0.879   3.450   9.842
 2439HO4     MW 9756   0.809   3.515   9.813
 2440HO4     OW 9757   1.080   5.159   6.881
 2440HO4    HW1 9758   1.046   5.227   6.947
 2440HO4    HW2 9759   1.017   5.154   6.803
 2440HO4     MW 9760   1.080   5.159   6.881
 2441HO4     OW 9761   4.579   9.246   3.847
 2441HO4    HW1 9762   4.514   9.293   3.908
 2441HO4    HW2 9763   4.615   9.312   3.780
 2441HO4     MW 9764   4.579   9.246   3.847
 2442HO4     OW 9765   5.230   9.945   6.261
 2442HO4    HW1 9766   5.181   9.865   6.296
 2442HO4    HW2 9767   5.200   9.965   6.168
 2442HO4     MW 9768   5.230   9.945   6.261
 2443HO4     OW 9769   4.901   4.004   1.122
 2443HO4    HW1 9770   4.902   3.992   1.221
 2443HO4    HW2 9771   4.871   4.098   1.100
 2443HO4     MW 9772   4.901   4.004   1.122
 2444HO4     OW 9773   3.033   4.719   5.777
 2444HO4    HW1 9774   3.002   4.772   5.856
 2444HO4    HW2 9775   3.130   4.740   5.759
 2444HO4     MW 9776   3.033   4.719   5.777
 2445HO4     OW 9777   3.590   7.736   3.783
 2445HO4    HW1 9778   3.533   7.726   3.865
 2445HO4    HW2 9779   3.668   7.673   3.789
 2445HO4     MW 9780   3.590   7.736   3.783
 2446HO4     OW 9781   9.334   7.683   3.175
 2446HO4    HW1 9782   9.390   7.599   3.174
 2446HO4    HW2 9783   9.326   7.719   3.082
 2446HO4     MW 9784   9.334   7.683   3.175
 2447HO4     OW 9785   4.846   7.038   6.560
 2447HO4    HW1 9786   4.933   7.088   6.554
 2447HO4    HW2 9787   4.781   7.089   6.617
 2447HO4     MW 9788   4.846   7.038   6.560
 2448HO4     OW 9789   6.147   6.328   2.209
 2448HO4    HW1 9790   6.099   6.353   2.294
 2448HO4    HW2 9791   6.086   6.276   2.150
 2448HO4     MW 9792   6.147   6.328   2.209
 2449HO4     OW 9793   2.002   1.020   8.881
 2449HO4    HW1 9794   1.996   1.112   8.921
 2449HO4    HW2 9795   2.010   1.028   8.781
 2449HO4     MW 9796   2.002   1.020   8.881
 2450HO4     OW 9797   7.487   7.897   2.323
 2450HO4    HW1 9798   7.522   7.983   2.285
 2450HO4    HW2 9799   7.445   7.842   2.250
 2450HO4     MW 9800   7.487   7.897   2.323
 2451HO4     OW 9801   9.308   5.921   8.150
 2451HO4    HW1 9802   9.251   5.956   8.225
 2451HO4    HW2 9803   9.264   5.943   8.062
 2451HO4     MW 9804   9.308   5.921   8.150
 2452HO4     OW 9805   0.767   6.528   5.794
 2452HO4    HW1 9806   0.788   6.524   5.892
 2452HO4    HW2 9807   0.672   6.497   5.779
 2452HO4     MW 9808   0.767   6.528   5.794
 2453HO4     OW 9809   9.252   3.904   6.905
 2453HO4    HW1 9810   9.345   3.869   6.915
 2453HO4    HW2 9811   9.248   3.999   6.938
 2453HO4     MW 9812   9.252   3.904   6.905
 2454HO4     OW 9813   6.594   6.292   3.545
 2454HO4    HW1 9814   6.690   6.305   3.519
 2454HO4    HW2 9815   6.584   6.207   3.597
 2454HO4     MW 9816   6.594   6.292   3.545
 2455HO4     OW 9817   8.730   6.109   0.708
 2455HO4    HW1 9818   8.802   6.160   0.756
 2455HO4    HW2 9819   8.730   6.133   0.611
 2455HO4     MW 9820   8.730   6.109   0.708
 2456HO4     OW 9821   3.675   2.738   6.704
 2456HO4    HW1 9822   3.709   2.790   6.784
 2456HO4    HW2 9823   3.674   2.798   6.624
 2456HO4     MW 9824   3.675   2.738   6.704
 2457HO4     OW 9825   7.697   0.401   9.035
 2457HO4    HW1 9826   7.613   0.440   8.994
 2457HO4    HW2 9827   7.711   0.442   9.126
 2457HO4     MW 9828   7.697   0.401   9.035
 2458HO4     OW 9829   1.159   7.501   5.102
 2458HO4    HW1 9830   1.130   7.459   5.015
 2458HO4    HW2 9831   1.100   7.470   5.176
 2458HO4     MW 9832   1.159   7.501   5.102
 2459HO4     OW 9833   4.046   1.444   3.774
 2459HO4    HW1 9834   3.949   1.422   3.789
 2459HO4    HW2 9835   4.103   1.366   3.803
 2459HO4     MW 9836   4.046   1.444   3.774
 2460HO4     OW 9837   9.606   5.522   0.065
 2460HO4    HW1 9838   9.621   5.531   0.164
 2460HO4    HW2 9839   9.591   5.425   0.042
 2460HO4     MW 9840   9.606   5.522   0.065
 2461HO4     OW 9841   5.487   5.885   2.809
 2461HO4    HW1 9842   5.448   5.793   2.812
 2461HO4    HW2 9843   5.470   5.933   2.896
 2461HO4     MW 9844   5.487   5.885   2.809
 2462HO4     OW 9845   8.737   6.406   7.254
 2462HO4    HW1 9846   8.761   6.339   7.325
 2462HO4    HW2 9847   8.638   6.422   7.255
 2462HO4     MW 9848   8.737   6.406   7.254
 2463HO4     OW 9849   3.257   0.248   0.837
 2463HO4    HW1 9850   3.325   0.214   0.903
 2463HO4    HW2 9851   3.165   0.225   0.869
 2463HO4     MW 9852   3.257   0.248   0.837
 2464HO4     OW 9853   5.523   1.232   3.498
 2464HO4    HW1 9854   5.469   1.277   3.570
 2464HO4    HW2 9855   5.462   1.183   3.436
 2464HO4     MW 9856   5.523   1.232   3.498
 2465HO4     OW 9857   9.167   6.557   1.209
 2465HO4    HW1 9858   9.211   6.624   1.269
 2465HO4    HW2 9859   9.159   6.596   1.116
 2465HO4     MW 9860   9.167   6.557   1.209
 2466HO4     OW 9861   4.220   8.203   8.159
 2466HO4    HW1 9862   4.184   8.142   8.088
 2466HO4    HW2 9863   4.221   8.155   8.247
 2466HO4     MW 9864   4.220   8.203   8.159
 2467HO4     OW 9865   8.544   3.516   7.408
 2467HO4    HW1 9866   8.555   3.590   7.340
 2467HO4    HW2 9867   8.446   3.503   7.427
 2467HO4     MW 9868   8.544   3.516   7.408
 2468HO4     OW 9869   5.656   5.740   9.712
 2468HO4    HW1 9870   5.735   5.785   9.756
 2468HO4    HW2 9871   5.608   5.806   9.653
 2468HO4     MW 9872   5.656   5.740   9.712
 2469HO4     OW 9873   7.685   1.170   2.113
 2469HO4    HW1 9874   7.658   1.256   2.070
 2469HO4    HW2 9875   7.662   1.172   2.211
 2469HO4     MW 9876   7.685   1.170   2.113
 2470HO4     OW 9877   0.126   1.069   7.440
 2470HO4    HW1 9878   0.153   0.972   7.438
 2470HO4    HW2 9879   0.034   1.079   7.402
 2470HO4     MW 9880   0.126   1.069   7.440
 2471HO4     OW 9881  10.098   2.482   1.111
 2471HO4    HW1 9882  10.039   2.563   1.120
 2471HO4    HW2 9883  10.116   2.464   1.013
 2471HO4     MW 9884  10.098   2.482   1.111
 2472HO4     OW 9885   8.284   1.709   6.798
 2472HO4    HW1 9886   8.316   1.793   6.754
 2472HO4    HW2 9887   8.355   1.675   6.861
 2472HO4     MW 9888   8.284   1.709   6.798
 2473HO4     OW 9889   7.831   7.313   7.759
 2473HO4    HW1 9890   7.914   7.365   7.780
 2473HO4    HW2 9891   7.752   7.356   7.804
 2473HO4     MW 9892   7.831   7.313   7.759
 2474HO4     OW 9893   9.971   7.239  10.083
 2474HO4    HW1 9894   9.901   7.290  10.031
 2474HO4    HW2 9895   9.930   7.203  10.168
 2474HO4     MW 9896   9.971   7.239  10.083
 2475HO4     OW 9897   9.190   6.089   1.536
 2475HO4    HW1 9898   9.196   6.156   1.611
 2475HO4    HW2 9899   9.165   5.999   1.574
 2475HO4     MW 9900   9.190   6.089   1.536
 2476HO4     OW 9901   8.767   0.428   0.270
 2476HO4    HW1 9902   8.848   0.462   0.319
 2476HO4    HW2 9903   8.720   0.360   0.327
 2476HO4     MW 9904   8.767   0.428   0.270
 2477HO4     OW 9905   0.850   1.910   5.637
 2477HO4    HW1 9906   0.851   1.889   5.735
 2477HO4    HW2 9907   0.823   1.829   5.585
 2477HO4     MW 9908   0.850   1.910   5.637
 2478HO4     OW 9909   5.845   4.152   9.262
 2478HO4    HW1 9910   5.793   4.092   9.324
 2478HO4    HW2 9911   5.838   4.117   9.168
 2478HO4     MW 9912   5.845   4.152   9.262
 2479HO4     OW 9913   6.955   3.655   2.722
 2479HO4    HW1 9914   6.915   3.692   2.638
 2479HO4    HW2 9915   7.048   3.690   2.733
 2479HO4     MW 9916   6.955   3.655   2.722
 2480HO4     OW 9917   9.302   2.364   8.176
 2480HO4    HW1 9918   9.239   2.430   8.134
 2480HO4    HW2 9919   9.263   2.331   8.262
 2480HO4     MW 9920   9.302   2.364   8.176
 2481HO4     OW 9921   8.316   5.751   5.026
 2481HO4    HW1 9922   8.334   5.844   4.991
 2481HO4    HW2 9923   8.244   5.708   4.972
 2481HO4     MW 9924   8.316   5.751   5.026
 2482HO4     OW 9925   2.255   8.593   5.788
 2482HO4    HW1 9926   2.176   8.650   5.813
 2482HO4    HW2 9927   2.292   8.549   5.871
 2482HO4     MW 9928   2.255   8.593   5.788
 2483HO4     OW 9929   0.374   3.671   1.566
 2483HO4    HW1 9930   0.373   3.621   1.479
 2483HO4    HW2 9931   0.358   3.607   1.642
 2483HO4     MW 9932   0.374   3.671   1.566
 2484HO4     OW 9933   0.257   4.139   5.064
 2484HO4    HW1 9934   0.267   4.165   5.160
 2484HO4    HW2 9935   0.237   4.220   5.009
 2484HO4     MW 9936   0.257   4.139   5.064
 2485HO4     OW 9937   4.478   7.638   1.156
 2485HO4    HW1 9938   4.421   7.636   1.074
 2485HO4    HW2 9939   4.427   7.599   1.233
 2485HO4     MW 9940   4.478   7.638   1.156
 2486HO4     OW 9941   4.844   9.789   2.061
 2486HO4    HW1 9942   4.797   9.807   2.148
 2486HO4    HW2 9943   4.776   9.765   1.991
 2486HO4     MW 9944   4.844   9.789   2.061
 2487HO4     OW 9945   5.109   2.026   8.684
 2487HO4    HW1 9946   5.139   2.071   8.599
 2487HO4    HW2 9947   5.090   2.096   8.754
 2487HO4     MW 9948   5.109   2.026   8.684
 2488HO4     OW 9949   4.909   0.075   4.493
 2488HO4    HW1 9950   4.867  -0.016   4.500
 2488HO4    HW2 9951   4.966   0.079   4.411
 2488HO4     MW 9952   4.909   0.075   4.493
 2489HO4     OW 9953   7.178   8.674   5.707
 2489HO4    HW1 9954   7.254   8.645   5.766
 2489HO4    HW2 9955   7.206   8.669   5.611
 2489HO4     MW 9956   7.178   8.674   5.707
 2490HO4     OW 9957   2.609   7.639   9.088
 2490HO4    HW1 9958   2.675   7.578   9.043
 2490HO4    HW2 9959   2.529   7.652   9.028
 2490HO4     MW 9960   2.609   7.639   9.088
 2491HO4     OW 9961   9.975   2.121   1.082
 2491HO4    HW1 9962  10.013   2.156   1.168
 2491HO4    HW2 9963  10.013   2.173   1.004
 2491HO4     MW 9964   9.975   2.121   1.082
 2492HO4     OW 9965   9.718   2.289   4.481
 2492HO4    HW1 9966   9.626   2.320   4.506
 2492HO4    HW2 9967   9.768   2.264   4.565
 2492HO4     MW 9968   9.718   2.289   4.481
 2493HO4     OW 9969   9.147   5.822   4.586
 2493HO4    HW1 9970   9.071   5.854   4.643
 2493HO4    HW2 9971   9.112   5.764   4.512
 2493HO4     MW 9972   9.147   5.822   4.586
 2494HO4     OW 9973   3.961   4.922   4.929
 2494HO4    HW1 9974   4.057   4.898   4.910
 2494HO4    HW2 9975   3.901   4.877   4.863
 2494HO4     MW 9976   3.961   4.922   4.929
 2495HO4     OW 9977   8.651   5.809   9.483
 2495HO4    HW1 9978   8.716   5.739   9.514
 2495HO4    HW2 9979   8.630   5.794   9.386
 2495HO4     MW 9980   8.651   5.809   9.483
 2496HO4     OW 9981   2.624   2.878   6.973
 2496HO4    HW1 9982   2.573   2.950   6.924
 2496HO4    HW2 9983   2.585   2.866   7.065
 2496HO4     MW 9984   2.624   2.878   6.973
 2497HO4     OW 9985   5.812   9.409   1.076
 2497HO4    HW1 9986   5.767   9.408   1.165
 2497HO4    HW2 9987   5.748   9.376   1.006
 2497HO4     MW 9988   5.812   9.409   1.076
 2498HO4     OW 9989   3.119   5.766   3.561
 2498HO4    HW1 9990   3.122   5.807   3.652
 2498HO4    HW2 9991   3.152   5.833   3.493
 2498HO4     MW 9992   3.119   5.766   3.561
 2499HO4     OW 9993   7.347   1.397   4.260
 2499HO4    HW1 9994   7.409   1.428   4.187
 2499HO4    HW2 9995   7.270   1.460   4.268
 2499HO4     MW 9996   7.347   1.397   4.260
 2500HO4     OW 9997   9.435   8.785   9.551
 2500HO4    HW1 9998   9.390   8.803   9.463
 2500HO4    HW2 9999   9.429   8.866   9.609
 2500HO4     MW10000   9.435   8.785   9.551
 2501HO4     OW10001   1.703   2.399   1.952
 2501HO4    HW110002   1.645   2.367   1.877
 2501HO4    HW210003   1.673   2.357   2.038
 2501HO4     MW10004   1.703   2.399   1.952
 2502HO4     OW10005   9.669   0.865   2.589
 2502HO4    HW110006   9.596   0.924   2.552
 2502HO4    HW210007   9.662   0.774   2.549
 2502HO4     MW10008   9.669   0.865   2.589
 2503HO4     OW10009   4.219   9.753   2.005
 2503HO4    HW110010   4.278   9.732   2.084
 2503HO4    HW210011   4.125   9.770   2.037
 2503HO4     MW10012   4.219   9.753   2.005
 2504HO4     OW10013   3.291   5.141   0.515
 2504HO4    HW110014   3.331   5.079   0.583
 2504HO4    HW210015   3.243   5.215   0.562
 2504HO4     MW10016   3.291   5.141   0.515
 2505HO4     OW10017   5.575   8.120   6.166
 2505HO4    HW110018   5.572   8.172   6.252
 2505HO4    HW210019   5.662   8.138   6.119
 2505HO4     MW10020   5.575   8.120   6.166
 2506HO4     OW10021   8.692   6.376   0.993
 2506HO4    HW110022   8.655   6.424   1.073
 2506HO4    HW210023   8.781   6.414   0.969
 2506HO4     MW10024   8.692   6.376   0.993
 2507HO4     OW10025   9.691   5.542   2.368
 2507HO4    HW110026   9.754   5.544   2.290
 2507HO4    HW210027   9.741   5.567   2.452
 2507HO4     MW10028   9.691   5.542   2.368
 2508HO4     OW10029   0.682   4.256   8.500
 2508HO4    HW110030   0.665   4.159   8.519
 2508HO4    HW210031   0.648   4.312   8.577
 2508HO4     MW10032   0.682   4.256   8.500
 2509HO4     OW10033   3.725   3.565   6.493
 2509HO4    HW110034   3.746   3.512   6.576
 2509HO4    HW210035   3.677   3.650   6.519
 2509HO4     MW10036   3.725   3.565   6.493
 2510HO4     OW10037  10.081   3.502   5.498
 2510HO4    HW110038  10.159   3.565   5.488
 2510HO4    HW210039  10.011   3.543   5.556
 2510HO4     MW10040  10.081   3.502   5.498
 2511HO4     OW10041   0.639   9.626   7.342
 2511HO4    HW110042   0.690   9.709   7.317
 2511HO4    HW210043   0.580   9.645   7.421
 2511HO4     MW10044   0.639   9.626   7.342
 2512HO4     OW10045   3.781   0.257  10.007
 2512HO4    HW110046   3.737   0.345  10.024
 2512HO4    HW210047   3.873   0.257  10.048
 2512HO4     MW10048   3.781   0.257  10.007
 2513HO4     OW10049   0.923   4.088   4.998
 2513HO4    HW110050   0.924   4.187   5.016
 2513HO4    HW210051   0.941   4.039   5.084
 2513HO4     MW10052   0.923   4.088   4.998
 2514HO4     OW10053   8.836   5.325   2.234
 2514HO4    HW110054   8.919   5.271   2.252
 2514HO4    HW210055   8.858   5.400   2.171
 2514HO4     MW10056   8.836   5.325   2.234
 2515HO4     OW10057   6.159   0.250   9.088
 2515HO4    HW110058   6.118   0.210   9.005
 2515HO4    HW210059   6.121   0.205   9.169
 2515HO4     MW10060   6.159   0.250   9.088
 2516HO4     OW10061   9.426   7.008   5.499
 2516HO4    HW110062   9.390   6.959   5.579
 2516HO4    HW210063   9.449   7.102   5.526
 2516HO4     MW10064   9.426   7.008   5.499
 2517HO4     OW10065   5.012   4.855   8.283
 2517HO4    HW110066   5.111   4.857   8.300
 2517HO4    HW210067   4.995   4.813   8.193
 2517HO4     MW10068   5.012   4.855   8.283
 2518HO4     OW10069   9.059   1.341   0.670
 2518HO4    HW110070   9.000   1.335   0.589
 2518HO4    HW210071   9.003   1.331   0.753
 2518HO4     MW10072   9.059   1.341   0.670
 2519HO4     OW10073   4.323   1.335   2.587
 2519HO4    HW110074   4.314   1.425   2.631
 2519HO4    HW210075   4.325   1.347   2.487
 2519HO4     MW10076   4.323   1.335   2.587
 2520HO4     OW10077  -0.003   9.948   6.897
 2520HO4    HW110078   0.048   9.998   6.826
 2520HO4    HW210079  -0.011   9.851   6.870
 2520HO4     MW10080  -0.003   9.948   6.897
 2521HO4     OW10081   9.914   5.079   2.822
 2521HO4    HW110082   9.948   5.084   2.916
 2521HO4    HW210083   9.927   4.985   2.787
 2521HO4     MW10084   9.914   5.079   2.822
 2522HO4     OW10085   7.916   6.607   0.158
 2522HO4    HW110086   7.828   6.599   0.110
 2522HO4    HW210087   7.979   6.536   0.123
 2522HO4     MW10088   7.916   6.607   0.158
 2523HO4     OW10089   3.901   7.434   0.899
 2523HO4    HW110090   3.867   7.409   0.990
 2523HO4    HW210091   3.824   7.435   0.834
 2523HO4     MW10092   3.901   7.434   0.899
 2524HO4     OW10093   7.043   8.608   2.966
 2524HO4    HW110094   6.976   8.540   2.936
 2524HO4    HW210095   7.134   8.583   2.932
 2524HO4     MW10096   7.043   8.608   2.966
 2525HO4     OW10097   6.151   6.218   0.493
 2525HO4    HW110098   6.167   6.273   0.575
 2525HO4    HW210099   6.160   6.276   0.411
 2525HO4     MW10100   6.151   6.218   0.493
 2526HO4     OW10101   2.575   3.772   6.108
 2526HO4    HW110102   2.562   3.680   6.069
 2526HO4    HW210103   2.488   3.807   6.143
 2526HO4     MW10104   2.575   3.772   6.108
 2527HO4     OW10105   9.804   6.946   8.475
 2527HO4    HW110106   9.783   7.017   8.407
 2527HO4    HW210107   9.815   6.989   8.565
 2527HO4     MW10108   9.804   6.946   8.475
 2528HO4     OW10109   6.198   5.188   3.865
 2528HO4    HW110110   6.249   5.185   3.951
 2528HO4    HW210111   6.241   5.126   3.799
 2528HO4     MW10112   6.198   5.188   3.865
 2529HO4     OW10113   9.946   3.687   2.039
 2529HO4    HW110114  10.002   3.631   1.978
 2529HO4    HW210115   9.921   3.633   2.120
 2529HO4     MW10116   9.946   3.687   2.039
 2530HO4     OW10117   9.767   1.681   4.001
 2530HO4    HW110118   9.732   1.623   3.927
 2530HO4    HW210119   9.789   1.772   3.964
 2530HO4     MW10120   9.767   1.681   4.001
 2531HO4     OW10121   3.297   1.286   1.428
 2531HO4    HW110122   3.247   1.275   1.341
 2531HO4    HW210123   3.232   1.295   1.503
 2531HO4     MW10124   3.297   1.286   1.428
 2532HO4     OW10125   2.312   6.690   9.457
 2532HO4    HW110126   2.345   6.755   9.387
 2532HO4    HW210127   2.327   6.730   9.548
 2532HO4     MW10128   2.312   6.690   9.457
 2533HO4     OW10129   0.541   6.140   4.092
 2533HO4    HW110130   0.517   6.185   4.006
 2533HO4    HW210131   0.633   6.099   4.084
 2533HO4     MW10132   0.541   6.140   4.092
 2534HO4     OW10133   7.371   0.472   2.276
 2534HO4    HW110134   7.304   0.534   2.319
 2534HO4    HW210135   7.348   0.459   2.180
 2534HO4     MW10136   7.371   0.472   2.276
 2535HO4     OW10137   1.964   7.361   2.316
 2535HO4    HW110138   2.053   7.365   2.271
 2535HO4    HW210139   1.914   7.280   2.284
 2535HO4     MW10140   1.964   7.361   2.316
 2536HO4     OW10141   0.530   3.883   1.622
 2536HO4    HW110142   0.588   3.855   1.545
 2536HO4    HW210143   0.584   3.882   1.707
 2536HO4     MW10144   0.530   3.883   1.622
 2537HO4     OW10145   1.339   1.346   0.208
 2537HO4    HW110146   1.396   1.367   0.288
 2537HO4    HW210147   1.394   1.355   0.124
 2537HO4     MW10148   1.339   1.346   0.208
 2538HO4     OW10149   9.268   9.146   5.839
 2538HO4    HW110150   9.240   9.232   5.794
 2538HO4    HW210151   9.238   9.148   5.934
 2538HO4     MW10152   9.268   9.146   5.839
 2539HO4     OW10153   5.587   3.380   5.700
 2539HO4    HW110154   5.590   3.317   5.622
 2539HO4    HW210155   5.678   3.418   5.718
 2539HO4     MW10156   5.587   3.380   5.700
 2540HO4     OW10157   8.957   6.976   9.637
 2540HO4    HW110158   8.975   6.884   9.673
 2540HO4    HW210159   8.986   6.981   9.541
 2540HO4     MW10160   8.957   6.976   9.637
 2541HO4     OW10161   3.985   8.173   9.235
 2541HO4    HW110162   3.921   8.098   9.217
 2541HO4    HW210163   3.970   8.208   9.328
 2541HO4     MW10164   3.985   8.173   9.235
 2542HO4     OW10165   9.330   4.363   9.608
 2542HO4    HW110166   9.379   4.450   9.619
 2542HO4    HW210167   9.233   4.382   9.592
 2542HO4     MW10168   9.330   4.363   9.608
 2543HO4     OW10169   6.136   4.303   9.092
 2543HO4    HW110170   6.219   4.299   9.149
 2543HO4    HW210171   6.153   4.254   9.006
 2543HO4     MW10172   6.136   4.303   9.092
 2544HO4     OW10173   5.851   4.283   2.211
 2544HO4    HW110174   5.800   4.248   2.131
 2544HO4    HW210175   5.794   4.350   2.260
 2544HO4     MW10176   5.851   4.283   2.211
 2545HO4     OW10177   4.168   9.025   2.746
 2545HO4    HW110178   4.230   8.950   2.722
 2545HO4    HW210179   4.086   9.020   2.689
 2545HO4     MW10180   4.168   9.025   2.746
 2546HO4     OW10181   7.527   8.255  10.046
 2546HO4    HW110182   7.596   8.314  10.003
 2546HO4    HW210183   7.452   8.312  10.081
 2546HO4     MW10184   7.527   8.255  10.046
 2547HO4     OW10185   5.600   4.512   5.093
 2547HO4    HW110186   5.641   4.553   5.010
 2547HO4    HW210187   5.641   4.554   5.174
 2547HO4     MW10188   5.600   4.512   5.093
 2548HO4     OW10189   3.111   9.645   2.256
 2548HO4    HW110190   3.153   9.576   2.316
 2548HO4    HW210191   3.012   9.629   2.252
 2548HO4     MW10192   3.111   9.645   2.256
 2549HO4     OW10193   5.206   7.333   4.356
 2549HO4    HW110194   5.261   7.400   4.408
 2549HO4    HW210195   5.255   7.309   4.272
 2549HO4     MW10196   5.206   7.333   4.356
 2550HO4     OW10197   7.469   2.694   2.553
 2550HO4    HW110198   7.385   2.680   2.500
 2550HO4    HW210199   7.523   2.769   2.512
 2550HO4     MW10200   7.469   2.694   2.553
 2551HO4     OW10201   4.482   2.888   9.809
 2551HO4    HW110202   4.493   2.945   9.891
 2551HO4    HW210203   4.385   2.867   9.795
 2551HO4     MW10204   4.482   2.888   9.809
 2552HO4     OW10205   1.418   5.372   9.481
 2552HO4    HW110206   1.320   5.395   9.471
 2552HO4    HW210207   1.440   5.362   9.578
 2552HO4     MW10208   1.418   5.372   9.481
 2553HO4     OW10209   5.505   3.943   1.709
 2553HO4    HW110210   5.445   3.932   1.629
 2553HO4    HW210211   5.496   3.863   1.769
 2553HO4     MW10212   5.505   3.943   1.709
 2554HO4     OW10213   5.050   0.429   5.689
 2554HO4    HW110214   5.065   0.390   5.781
 2554HO4    HW210215   5.075   0.362   5.619
 2554HO4     MW10216   5.050   0.429   5.689
 2555HO4     OW10217   7.469   7.805   4.087
 2555HO4    HW110218   7.406   7.882   4.098
 2555HO4    HW210219   7.555   7.826   4.134
 2555HO4     MW10220   7.469   7.805   4.087
 2556HO4     OW10221   3.275   8.377   5.876
 2556HO4    HW110222   3.308   8.446   5.940
 2556HO4    HW210223   3.304   8.400   5.783
 2556HO4     MW10224   3.275   8.377   5.876
 2557HO4     OW10225   6.028   6.793  10.120
 2557HO4    HW110226   6.041   6.853  10.041
 2557HO4    HW210227   6.046   6.845  10.204
 2557HO4     MW10228   6.028   6.793  10.120
 2558HO4     OW10229   3.578   0.917   2.232
 2558HO4    HW110230   3.567   0.996   2.294
 2558HO4    HW210231   3.675   0.898   2.218
 2558HO4     MW10232   3.578   0.917   2.232
 2559HO4     OW10233   4.682   4.927   4.227
 2559HO4    HW110234   4.618   4.852   4.246
 2559HO4    HW210235   4.648   4.982   4.150
 2559HO4     MW10236   4.682   4.927   4.227
 2560HO4     OW10237   6.399   8.394   2.286
 2560HO4    HW110238   6.424   8.299   2.266
 2560HO4    HW210239   6.325   8.422   2.223
 2560HO4     MW10240   6.399   8.394   2.286
 2561HO4     OW10241   2.303   8.417   5.643
 2561HO4    HW110242   2.357   8.483   5.589
 2561HO4    HW210243   2.365   8.365   5.703
 2561HO4     MW10244   2.303   8.417   5.643
 2562HO4     OW10245   6.180   2.643   0.783
 2562HO4    HW110246   6.096   2.697   0.770
 2562HO4    HW210247   6.216   2.615   0.694
 2562HO4     MW10248   6.180   2.643   0.783
 2563HO4     OW10249   4.855   4.418   2.406
 2563HO4    HW110250   4.906   4.437   2.321
 2563HO4    HW210251   4.902   4.460   2.484
 2563HO4     MW10252   4.855   4.418   2.406
 2564HO4     OW10253   1.517   3.266   3.831
 2564HO4    HW110254   1.602   3.261   3.884
 2564HO4    HW210255   1.495   3.176   3.794
 2564HO4     MW10256   1.517   3.266   3.831
 2565HO4     OW10257   6.369   5.814   2.255
 2565HO4    HW110258   6.431   5.795   2.178
 2565HO4    HW210259   6.317   5.898   2.236
 2565HO4     MW10260   6.369   5.814   2.255
 2566HO4     OW10261   8.395   6.722   4.928
 2566HO4    HW110262   8.439   6.729   5.018
 2566HO4    HW210263   8.426   6.638   4.882
 2566HO4     MW10264   8.395   6.722   4.928
 2567HO4     OW10265   1.439   0.344   5.118
 2567HO4    HW110266   1.403   0.391   5.036
 2567HO4    HW210267   1.392   0.379   5.199
 2567HO4     MW10268   1.439   0.344   5.118
 2568HO4     OW10269   6.724   4.920   4.133
 2568HO4    HW110270   6.760   4.827   4.137
 2568HO4    HW210271   6.778   4.975   4.069
 2568HO4     MW10272   6.724   4.920   4.133
 2569HO4     OW10273   8.510   6.321   6.372
 2569HO4    HW110274   8.437   6.252   6.377
 2569HO4    HW210275   8.592   6.280   6.330
 2569HO4     MW10276   8.510   6.321   6.372
 2570HO4     OW10277   6.100   0.227  10.064
 2570HO4    HW110278   6.109   0.147  10.004
 2570HO4    HW210279   6.097   0.311  10.009
 2570HO4     MW10280   6.100   0.227  10.064
 2571HO4     OW10281   5.537   1.484   9.793
 2571HO4    HW110282   5.626   1.528   9.805
 2571HO4    HW210283   5.467   1.554   9.775
 2571HO4     MW10284   5.537   1.484   9.793
 2572HO4     OW10285   7.781   0.405  10.043
 2572HO4    HW110286   7.820   0.388   9.952
 2572HO4    HW210287   7.854   0.428  10.107
 2572HO4     MW10288   7.781   0.405  10.043
 2573HO4     OW10289   4.078   8.972   8.636
 2573HO4    HW110290   4.043   8.924   8.556
 2573HO4    HW210291   4.042   8.929   8.719
 2573HO4     MW10292   4.078   8.972   8.636
 2574HO4     OW10293   5.412   5.876   8.577
 2574HO4    HW110294   5.398   5.811   8.502
 2574HO4    HW210295   5.464   5.833   8.651
 2574HO4     MW10296   5.412   5.876   8.577
 2575HO4     OW10297   2.843   2.226   5.991
 2575HO4    HW110298   2.900   2.236   5.909
 2575HO4    HW210299   2.900   2.240   6.072
 2575HO4     MW10300   2.843   2.226   5.991
 2576HO4     OW10301   7.835   4.768   7.590
 2576HO4    HW110302   7.746   4.729   7.615
 2576HO4    HW210303   7.867   4.828   7.663
 2576HO4     MW10304   7.835   4.768   7.590
 2577HO4     OW10305   7.021   2.928   7.297
 2577HO4    HW110306   7.078   2.933   7.380
 2577HO4    HW210307   7.053   2.851   7.240
 2577HO4     MW10308   7.021   2.928   7.297
 2578HO4     OW10309   4.736   8.818   3.890
 2578HO4    HW110310   4.772   8.825   3.797
 2578HO4    HW210311   4.788   8.749   3.941
 2578HO4     MW10312   4.736   8.818   3.890
 2579HO4     OW10313   3.571   5.709   4.306
 2579HO4    HW110314   3.508   5.721   4.229
 2579HO4    HW210315   3.523   5.732   4.392
 2579HO4     MW10316   3.571   5.709   4.306
 2580HO4     OW10317  10.158   2.739  10.188
 2580HO4    HW110318  10.153   2.673  10.114
 2580HO4    HW210319  10.104   2.821  10.164
 2580HO4     MW10320  10.158   2.739  10.188
 2581HO4     OW10321   4.609   8.169   6.702
 2581HO4    HW110322   4.579   8.198   6.610
 2581HO4    HW210323   4.566   8.082   6.725
 2581HO4     MW10324   4.609   8.169   6.702
 2582HO4     OW10325   5.569   6.397   5.019
 2582HO4    HW110326   5.630   6.387   5.098
 2582HO4    HW210327   5.624   6.402   4.935
 2582HO4     MW10328   5.569   6.397   5.019
 2583HO4     OW10329   9.972   8.502   7.264
 2583HO4    HW110330  10.010   8.582   7.311
 2583HO4    HW210331   9.958   8.428   7.331
 2583HO4     MW10332   9.972   8.502   7.264
 2584HO4     OW10333   4.679   6.327   9.736
 2584HO4    HW110334   4.719   6.378   9.660
 2584HO4    HW210335   4.715   6.234   9.738
 2584HO4     MW10336   4.679   6.327   9.736
 2585HO4     OW10337   2.341   3.978   5.824
 2585HO4    HW110338   2.298   3.930   5.748
 2585HO4    HW210339   2.315   3.934   5.911
 2585HO4     MW10340   2.341   3.978   5.824
 2586HO4     OW10341   8.764   7.901   5.111
 2586HO4    HW110342   8.808   7.952   5.185
 2586HO4    HW210343   8.794   7.939   5.022
 2586HO4     MW10344   8.764   7.901   5.111
 2587HO4     OW10345   6.185   8.969   1.295
 2587HO4    HW110346   6.111   9.011   1.243
 2587HO4    HW210347   6.171   8.985   1.393
 2587HO4     MW10348   6.185   8.969   1.295
 2588HO4     OW10349   3.002   5.346   8.675
 2588HO4    HW110350   2.992   5.251   8.644
 2588HO4    HW210351   2.925   5.401   8.640
 2588HO4     MW10352   3.002   5.346   8.675
 2589HO4     OW10353   2.238   6.172   7.341
 2589HO4    HW110354   2.249   6.264   7.302
 2589HO4    HW210355   2.166   6.123   7.290
 2589HO4     MW10356   2.238   6.172   7.341
 2590HO4     OW10357   1.752   6.639   8.087
 2590HO4    HW110358   1.759   6.592   7.998
 2590HO4    HW210359   1.835   6.694   8.102
 2590HO4     MW10360   1.752   6.639   8.087
 2591HO4     OW10361   2.557   5.938   5.997
 2591HO4    HW110362   2.543   5.987   6.083
 2591HO4    HW210363   2.597   6.001   5.929
 2591HO4     MW10364   2.557   5.938   5.997
 2592HO4     OW10365   6.581   0.617  10.147
 2592HO4    HW110366   6.539   0.530  10.117
 2592HO4    HW210367   6.668   0.598  10.193
 2592HO4     MW10368   6.581   0.617  10.147
 2593HO4     OW10369   6.834   5.785   4.691
 2593HO4    HW110370   6.744   5.829   4.681
 2593HO4    HW210371   6.859   5.780   4.788
 2593HO4     MW10372   6.834   5.785   4.691
 2594HO4     OW10373   5.399   9.711   6.118
 2594HO4    HW110374   5.401   9.720   6.218
 2594HO4    HW210375   5.359   9.793   6.077
 2594HO4     MW10376   5.399   9.711   6.118
 2595HO4     OW10377   6.684   5.675   1.719
 2595HO4    HW110378   6.696   5.656   1.817
 2595HO4    HW210379   6.649   5.768   1.707
 2595HO4     MW10380   6.684   5.675   1.719
 2596HO4     OW10381   4.505   9.988   5.024
 2596HO4    HW110382   4.404   9.996   5.023
 2596HO4    HW210383   4.541  10.049   5.096
 2596HO4     MW10384   4.505   9.988   5.024
 2597HO4     OW10385   8.203   1.349   4.261
 2597HO4    HW110386   8.235   1.385   4.349
 2597HO4    HW210387   8.248   1.401   4.187
 2597HO4     MW10388   8.203   1.349   4.261
 2598HO4     OW10389   6.653   6.999   0.998
 2598HO4    HW110390   6.752   7.009   0.983
 2598HO4    HW210391   6.613   7.088   1.020
 2598HO4     MW10392   6.653   6.999   0.998
 2599HO4     OW10393   3.463   6.026   1.879
 2599HO4    HW110394   3.480   6.077   1.963
 2599HO4    HW210395   3.457   6.090   1.802
 2599HO4     MW10396   3.463   6.026   1.879
 2600HO4     OW10397   3.592   4.521   6.353
 2600HO4    HW110398   3.542   4.607   6.363
 2600HO4    HW210399   3.615   4.484   6.444
 2600HO4     MW10400   3.592   4.521   6.353
 2601HO4     OW10401   2.479   5.753   5.349
 2601HO4    HW110402   2.498   5.823   5.280
 2601HO4    HW210403   2.547   5.680   5.342
 2601HO4     MW10404   2.479   5.753   5.349
 2602HO4     OW10405   3.985   0.085   2.778
 2602HO4    HW110406   4.071   0.069   2.826
 2602HO4    HW210407   3.964   0.007   2.718
 2602HO4     MW10408   3.985   0.085   2.778
 2603HO4     OW10409   9.431   1.169   2.784
 2603HO4    HW110410   9.459   1.234   2.713
 2603HO4    HW210411   9.505   1.102   2.799
 2603HO4     MW10412   9.431   1.169   2.784
 2604HO4     OW10413   7.524   0.022   4.363
 2604HO4    HW110414   7.500   0.075   4.282
 2604HO4    HW210415   7.453   0.033   4.433
 2604HO4     MW10416   7.524   0.022   4.363
 2605HO4     OW10417   9.545   5.086   1.139
 2605HO4    HW110418   9.497   5.065   1.053
 2605HO4    HW210419   9.480   5.124   1.205
 2605HO4     MW10420   9.545   5.086   1.139
 2606HO4     OW10421   3.959   0.181   8.973
 2606HO4    HW110422   4.053   0.214   8.981
 2606HO4    HW210423   3.951   0.090   9.015
 2606HO4     MW10424   3.959   0.181   8.973
 2607HO4     OW10425   5.470   0.904   5.949
 2607HO4    HW110426   5.422   0.865   5.871
 2607HO4    HW210427   5.404   0.927   6.021
 2607HO4     MW10428   5.470   0.904   5.949
 2608HO4     OW10429   7.804   7.216   3.283
 2608HO4    HW110430   7.876   7.286   3.293
 2608HO4    HW210431   7.714   7.258   3.294
 2608HO4     MW10432   7.804   7.216   3.283
 2609HO4     OW10433   2.800   2.188   2.629
 2609HO4    HW110434   2.844   2.189   2.720
 2609HO4    HW210435   2.808   2.096   2.590
 2609HO4     MW10436   2.800   2.188   2.629
 2610HO4     OW10437   3.238   7.778   2.740
 2610HO4    HW110438   3.244   7.874   2.711
 2610HO4    HW210439   3.250   7.772   2.840
 2610HO4     MW10440   3.238   7.778   2.740
 2611HO4     OW10441   6.365   3.780  10.063
 2611HO4    HW110442   6.368   3.719   9.982
 2611HO4    HW210443   6.314   3.735  10.136
 2611HO4     MW10444   6.365   3.780  10.063
 2612HO4     OW10445   5.869   2.263   2.037
 2612HO4    HW110446   5.944   2.198   2.055
 2612HO4    HW210447   5.834   2.248   1.944
 2612HO4     MW10448   5.869   2.263   2.037
 2613HO4     OW10449   3.530   0.810   1.595
 2613HO4    HW110450   3.620   0.767   1.585
 2613HO4    HW210451   3.511   0.823   1.693
 2613HO4     MW10452   3.530   0.810   1.595
 2614HO4     OW10453   9.116   1.243   7.266
 2614HO4    HW110454   9.025   1.204   7.249
 2614HO4    HW210455   9.118   1.339   7.235
 2614HO4     MW10456   9.116   1.243   7.266
 2615HO4     OW10457   9.711   7.631   1.824
 2615HO4    HW110458   9.676   7.562   1.760
 2615HO4    HW210459   9.738   7.586   1.910
 2615HO4     MW10460   9.711   7.631   1.824
 2616HO4     OW10461   4.579   5.283   4.936
 2616HO4    HW110462   4.582   5.312   4.840
 2616HO4    HW210463   4.651   5.214   4.953
 2616HO4     MW10464   4.579   5.283   4.936
 2617HO4     OW10465   5.523   0.976   0.365
 2617HO4    HW110466   5.555   0.974   0.460
 2617HO4    HW210467   5.602   0.973   0.303
 2617HO4     MW10468   5.523   0.976   0.365
 2618HO4     OW10469   6.330   1.083   3.806
 2618HO4    HW110470   6.380   1.028   3.738
 2618HO4    HW210471   6.314   1.028   3.889
 2618HO4     MW10472   6.330   1.083   3.806
 2619HO4     OW10473   9.283   7.053   0.908
 2619HO4    HW110474   9.361   7.085   0.963
 2619HO4    HW210475   9.272   6.954   0.920
 2619HO4     MW10476   9.283   7.053   0.908
 2620HO4     OW10477   5.032   3.623   4.458
 2620HO4    HW110478   4.975   3.664   4.387
 2620HO4    HW210479   4.977   3.561   4.514
 2620HO4     MW10480   5.032   3.623   4.458
 2621HO4     OW10481   7.393   9.917   3.595
 2621HO4    HW110482   7.420   9.981   3.667
 2621HO4    HW210483   7.378   9.968   3.509
 2621HO4     MW10484   7.393   9.917   3.595
 2622HO4     OW10485   5.325   1.645   5.208
 2622HO4    HW110486   5.226   1.660   5.201
 2622HO4    HW210487   5.355   1.584   5.134
 2622HO4     MW10488   5.325   1.645   5.208
 2623HO4     OW10489   0.047   4.979   7.219
 2623HO4    HW110490   0.073   4.925   7.300
 2623HO4    HW210491   0.130   5.011   7.173
 2623HO4     MW10492   0.047   4.979   7.219
 2624HO4     OW10493   1.498   5.619   6.169
 2624HO4    HW110494   1.566   5.606   6.096
 2624HO4    HW210495   1.543   5.616   6.258
 2624HO4     MW10496   1.498   5.619   6.169
 2625HO4     OW10497   6.293   7.150   7.510
 2625HO4    HW110498   6.246   7.184   7.428
 2625HO4    HW210499   6.253   7.192   7.592
 2625HO4     MW10500   6.293   7.150   7.510
 2626HO4     OW10501   4.267   6.605   5.585
 2626HO4    HW110502   4.239   6.691   5.629
 2626HO4    HW210503   4.221   6.596   5.496
 2626HO4     MW10504   4.267   6.605   5.585
 2627HO4     OW10505   2.604   7.981   1.221
 2627HO4    HW110506   2.631   7.901   1.276
 2627HO4    HW210507   2.505   7.980   1.207
 2627HO4     MW10508   2.604   7.981   1.221
 2628HO4     OW10509   8.460   2.562   2.254
 2628HO4    HW110510   8.455   2.595   2.349
 2628HO4    HW210511   8.428   2.633   2.192
 2628HO4     MW10512   8.460   2.562   2.254
 2629HO4     OW10513   0.966   9.262  10.099
 2629HO4    HW110514   0.994   9.177  10.053
 2629HO4    HW210515   0.870   9.283  10.078
 2629HO4     MW10516   0.966   9.262  10.099
 2630HO4     OW10517   6.835   5.442   0.175
 2630HO4    HW110518   6.831   5.506   0.253
 2630HO4    HW210519   6.798   5.354   0.204
 2630HO4     MW10520   6.835   5.442   0.175
 2631HO4     OW10521   0.960   7.310   6.739
 2631HO4    HW110522   0.948   7.399   6.695
 2631HO4    HW210523   0.871   7.277   6.771
 2631HO4     MW10524   0.960   7.310   6.739
 2632HO4     OW10525   6.140   3.164   0.613
 2632HO4    HW110526   6.127   3.261   0.591
 2632HO4    HW210527   6.238   3.143   0.622
 2632HO4     MW10528   6.140   3.164   0.613
 2633HO4     OW10529   4.128   7.293   0.930
 2633HO4    HW110530   4.071   7.275   1.010
 2633HO4    HW210531   4.097   7.377   0.884
 2633HO4     MW10532   4.128   7.293   0.930
 2634HO4     OW10533   4.390   1.967   7.358
 2634HO4    HW110534   4.406   1.910   7.438
 2634HO4    HW210535   4.395   1.910   7.275
 2634HO4     MW10536   4.390   1.967   7.358
 2635HO4     OW10537   3.883   8.940   1.684
 2635HO4    HW110538   3.944   8.920   1.762
 2635HO4    HW210539   3.938   8.975   1.608
 2635HO4     MW10540   3.883   8.940   1.684
 2636HO4     OW10541   1.773   6.833   1.648
 2636HO4    HW110542   1.704   6.893   1.606
 2636HO4    HW210543   1.787   6.753   1.589
 2636HO4     MW10544   1.773   6.833   1.648
 2637HO4     OW10545   1.101   5.097   5.741
 2637HO4    HW110546   1.188   5.056   5.712
 2637HO4    HW210547   1.109   5.131   5.835
 2637HO4     MW10548   1.101   5.097   5.741
 2638HO4     OW10549   2.188   0.690   4.476
 2638HO4    HW110550   2.264   0.689   4.410
 2638HO4    HW210551   2.158   0.784   4.491
 2638HO4     MW10552   2.188   0.690   4.476
 2639HO4     OW10553   1.631   8.728   4.472
 2639HO4    HW110554   1.542   8.716   4.519
 2639HO4    HW210555   1.676   8.811   4.507
 2639HO4     MW10556   1.631   8.728   4.472
 2640HO4     OW10557   5.548   3.142   7.642
 2640HO4    HW110558   5.501   3.224   7.675
 2640HO4    HW210559   5.504   3.108   7.559
 2640HO4     MW10560   5.548   3.142   7.642
 2641HO4     OW10561   5.396   0.326   0.958
 2641HO4    HW110562   5.349   0.312   1.046
 2641HO4    HW210563   5.340   0.287   0.884
 2641HO4     MW10564   5.396   0.326   0.958
 2642HO4     OW10565   3.968   8.597   1.747
 2642HO4    HW110566   4.002   8.687   1.776
 2642HO4    HW210567   3.870   8.591   1.768
 2642HO4     MW10568   3.968   8.597   1.747
 2643HO4     OW10569   0.342   1.705   6.948
 2643HO4    HW110570   0.364   1.743   6.858
 2643HO4    HW210571   0.258   1.748   6.983
 2643HO4     MW10572   0.342   1.705   6.948
 2644HO4     OW10573   6.724   8.805   5.494
 2644HO4    HW110574   6.692   8.713   5.518
 2644HO4    HW210575   6.655   8.850   5.437
 2644HO4     MW10576   6.724   8.805   5.494
 2645HO4     OW10577   7.158   0.284   4.298
 2645HO4    HW110578   7.095   0.258   4.372
 2645HO4    HW210579   7.120   0.252   4.210
 2645HO4     MW10580   7.158   0.284   4.298
 2646HO4     OW10581   1.774   7.315   0.902
 2646HO4    HW110582   1.799   7.347   0.811
 2646HO4    HW210583   1.772   7.215   0.903
 2646HO4     MW10584   1.774   7.315   0.902
 2647HO4     OW10585   8.869   5.767   0.014
 2647HO4    HW110586   8.795   5.758   0.081
 2647HO4    HW210587   8.834   5.746  -0.078
 2647HO4     MW10588   8.869   5.767   0.014
 2648HO4     OW10589   8.482   7.042   3.122
 2648HO4    HW110590   8.418   6.987   3.177
 2648HO4    HW210591   8.545   7.090   3.183
 2648HO4     MW10592   8.482   7.042   3.122
 2649HO4     OW10593   1.478   6.468   2.849
 2649HO4    HW110594   1.407   6.455   2.919
 2649HO4    HW210595   1.472   6.561   2.812
 2649HO4     MW10596   1.478   6.468   2.849
 2650HO4     OW10597   4.811   7.454   8.100
 2650HO4    HW110598   4.829   7.476   8.197
 2650HO4    HW210599   4.777   7.360   8.092
 2650HO4     MW10600   4.811   7.454   8.100
 2651HO4     OW10601   5.229   4.010   2.148
 2651HO4    HW110602   5.209   4.085   2.212
 2651HO4    HW210603   5.214   3.922   2.194
 2651HO4     MW10604   5.229   4.010   2.148
 2652HO4     OW10605   4.588   9.116   7.498
 2652HO4    HW110606   4.539   9.143   7.415
 2652HO4    HW210607   4.526   9.116   7.576
 2652HO4     MW10608   4.588   9.116   7.498
 2653HO4     OW10609   4.247   4.279   9.651
 2653HO4    HW110610   4.228   4.331   9.735
 2653HO4    HW210611   4.333   4.312   9.611
 2653HO4     MW10612   4.247   4.279   9.651
 2654HO4     OW10613   3.092   7.849   8.832
 2654HO4    HW110614   3.033   7.868   8.752
 2654HO4    HW210615   3.125   7.936   8.870
 2654HO4     MW10616   3.092   7.849   8.832
 2655HO4     OW10617   4.239   1.840   7.646
 2655HO4    HW110618   4.243   1.806   7.740
 2655HO4    HW210619   4.250   1.763   7.582
 2655HO4     MW10620   4.239   1.840   7.646
 2656HO4     OW10621   8.861   4.467  10.133
 2656HO4    HW110622   8.785   4.455  10.198
 2656HO4    HW210623   8.934   4.402  10.154
 2656HO4     MW10624   8.861   4.467  10.133
 2657HO4     OW10625   3.900   4.646   7.216
 2657HO4    HW110626   3.949   4.658   7.303
 2657HO4    HW210627   3.950   4.693   7.143
 2657HO4     MW10628   3.900   4.646   7.216
 2658HO4     OW10629   9.687   3.797   2.699
 2658HO4    HW110630   9.746   3.848   2.636
 2658HO4    HW210631   9.711   3.821   2.794
 2658HO4     MW10632   9.687   3.797   2.699
 2659HO4     OW10633   3.126   7.756   0.333
 2659HO4    HW110634   3.141   7.780   0.430
 2659HO4    HW210635   3.089   7.663   0.327
 2659HO4     MW10636   3.126   7.756   0.333
 2660HO4     OW10637   2.549   8.814   2.718
 2660HO4    HW110638   2.599   8.850   2.797
 2660HO4    HW210639   2.501   8.729   2.744
 2660HO4     MW10640   2.549   8.814   2.718
 2661HO4     OW10641   7.547   3.837   2.332
 2661HO4    HW110642   7.529   3.887   2.418
 2661HO4    HW210643   7.574   3.743   2.353
 2661HO4     MW10644   7.547   3.837   2.332
 2662HO4     OW10645  10.067  10.142   2.475
 2662HO4    HW110646   9.979  10.165   2.433
 2662HO4    HW210647  10.142  10.176   2.418
 2662HO4     MW10648  10.067  10.142   2.475
 2663HO4     OW10649   7.973   6.160   8.590
 2663HO4    HW110650   8.017   6.205   8.668
 2663HO4    HW210651   8.024   6.180   8.506
 2663HO4     MW10652   7.973   6.160   8.590
 2664HO4     OW10653   1.333   7.080   0.106
 2664HO4    HW110654   1.336   7.027   0.020
 2664HO4    HW210655   1.387   7.032   0.176
 2664HO4     MW10656   1.333   7.080   0.106
 2665HO4     OW10657   3.837   9.687   4.144
 2665HO4    HW110658   3.797   9.731   4.063
 2665HO4    HW210659   3.797   9.596   4.156
 2665HO4     MW10660   3.837   9.687   4.144
 2666HO4     OW10661   0.608   7.844   1.209
 2666HO4    HW110662   0.679   7.844   1.138
 2666HO4    HW210663   0.612   7.758   1.261
 2666HO4     MW10664   0.608   7.844   1.209
 2667HO4     OW10665   3.932   4.742   6.506
 2667HO4    HW110666   3.898   4.649   6.523
 2667HO4    HW210667   3.866   4.809   6.540
 2667HO4     MW10668   3.932   4.742   6.506
 2668HO4     OW10669   8.488   2.644   3.110
 2668HO4    HW110670   8.458   2.549   3.098
 2668HO4    HW210671   8.517   2.658   3.205
 2668HO4     MW10672   8.488   2.644   3.110
 2669HO4     OW10673   4.928   4.602   1.574
 2669HO4    HW110674   4.922   4.563   1.667
 2669HO4    HW210675   4.857   4.561   1.516
 2669HO4     MW10676   4.928   4.602   1.574
 2670HO4     OW10677   5.895   5.984   1.023
 2670HO4    HW110678   5.945   6.002   0.938
 2670HO4    HW210679   5.905   5.888   1.048
 2670HO4     MW10680   5.895   5.984   1.023
 2671HO4     OW10681   0.514   0.109   8.989
 2671HO4    HW110682   0.526   0.054   8.906
 2671HO4    HW210683   0.488   0.050   9.066
 2671HO4     MW10684   0.514   0.109   8.989
 2672HO4     OW10685   2.856   1.677   3.672
 2672HO4    HW110686   2.859   1.654   3.769
 2672HO4    HW210687   2.943   1.653   3.628
 2672HO4     MW10688   2.856   1.677   3.672
 2673HO4     OW10689   8.131   2.379   3.104
 2673HO4    HW110690   8.192   2.386   3.024
 2673HO4    HW210691   8.187   2.372   3.187
 2673HO4     MW10692   8.131   2.379   3.104
 2674HO4     OW10693   7.168   7.063   2.680
 2674HO4    HW110694   7.187   6.965   2.688
 2674HO4    HW210695   7.251   7.110   2.649
 2674HO4     MW10696   7.168   7.063   2.680
 2675HO4     OW10697   1.879   6.495   0.178
 2675HO4    HW110698   1.934   6.507   0.095
 2675HO4    HW210699   1.880   6.580   0.232
 2675HO4     MW10700   1.879   6.495   0.178
 2676HO4     OW10701   1.195   4.903   1.799
 2676HO4    HW110702   1.120   4.970   1.811
 2676HO4    HW210703   1.224   4.869   1.888
 2676HO4     MW10704   1.195   4.903   1.799
 2677HO4     OW10705   1.289   0.888   6.315
 2677HO4    HW110706   1.200   0.877   6.361
 2677HO4    HW210707   1.312   0.802   6.267
 2677HO4     MW10708   1.289   0.888   6.315
 2678HO4     OW10709   8.596   0.430   3.149
 2678HO4    HW110710   8.498   0.447   3.130
 2678HO4    HW210711   8.651   0.459   3.070
 2678HO4     MW10712   8.596   0.430   3.149
 2679HO4     OW10713   0.548   3.627   5.566
 2679HO4    HW110714   0.635   3.625   5.615
 2679HO4    HW210715   0.475   3.594   5.626
 2679HO4     MW10716   0.548   3.627   5.566
 2680HO4     OW10717   7.378   6.150   8.083
 2680HO4    HW110718   7.366   6.112   7.991
 2680HO4    HW210719   7.474   6.174   8.098
 2680HO4     MW10720   7.378   6.150   8.083
 2681HO4     OW10721   0.197   4.595   4.666
 2681HO4    HW110722   0.251   4.617   4.748
 2681HO4    HW210723   0.250   4.619   4.584
 2681HO4     MW10724   0.197   4.595   4.666
 2682HO4     OW10725   5.508   8.938   4.882
 2682HO4    HW110726   5.606   8.953   4.867
 2682HO4    HW210727   5.494   8.847   4.922
 2682HO4     MW10728   5.508   8.938   4.882
 2683HO4     OW10729   5.584   8.427   0.431
 2683HO4    HW110730   5.545   8.493   0.497
 2683HO4    HW210731   5.565   8.458   0.338
 2683HO4     MW10732   5.584   8.427   0.431
 2684HO4     OW10733   9.079   0.522   0.954
 2684HO4    HW110734   9.029   0.579   1.019
 2684HO4    HW210735   9.114   0.579   0.879
 2684HO4     MW10736   9.079   0.522   0.954
 2685HO4     OW10737  10.157   4.101   4.217
 2685HO4    HW110738  10.244   4.140   4.185
 2685HO4    HW210739  10.092   4.175   4.233
 2685HO4     MW10740  10.157   4.101   4.217
 2686HO4     OW10741   2.941   9.665   7.112
 2686HO4    HW110742   3.015   9.728   7.086
 2686HO4    HW210743   2.965   9.620   7.198
 2686HO4     MW10744   2.941   9.665   7.112
 2687HO4     OW10745   4.515   9.794   9.874
 2687HO4    HW110746   4.456   9.733   9.928
 2687HO4    HW210747   4.458   9.849   9.812
 2687HO4     MW10748   4.515   9.794   9.874
 2688HO4     OW10749   8.330   6.186   2.128
 2688HO4    HW110750   8.353   6.201   2.032
 2688HO4    HW210751   8.400   6.129   2.171
 2688HO4     MW10752   8.330   6.186   2.128
 2689HO4     OW10753   6.997   4.111   3.292
 2689HO4    HW110754   7.039   4.151   3.374
 2689HO4    HW210755   7.039   4.151   3.210
 2689HO4     MW10756   6.997   4.111   3.292
 2690HO4     OW10757   2.571   4.660   0.991
 2690HO4    HW110758   2.511   4.587   1.026
 2690HO4    HW210759   2.515   4.741   0.967
 2690HO4     MW10760   2.571   4.660   0.991
 2691HO4     OW10761   1.285   0.312   0.079
 2691HO4    HW110762   1.320   0.363   0.157
 2691HO4    HW210763   1.342   0.331  -0.002
 2691HO4     MW10764   1.285   0.312   0.079
 2692HO4     OW10765   6.646   9.090   0.025
 2692HO4    HW110766   6.635   9.089   0.125
 2692HO4    HW210767   6.739   9.119   0.002
 2692HO4     MW10768   6.646   9.090   0.025
 2693HO4     OW10769   1.984   4.269   9.431
 2693HO4    HW110770   1.978   4.336   9.505
 2693HO4    HW210771   1.952   4.310   9.345
 2693HO4     MW10772   1.984   4.269   9.431
 2694HO4     OW10773   0.807   8.007   2.385
 2694HO4    HW110774   0.778   8.010   2.481
 2694HO4    HW210775   0.786   8.094   2.340
 2694HO4     MW10776   0.807   8.007   2.385
 2695HO4     OW10777   0.576   4.988   8.980
 2695HO4    HW110778   0.600   4.982   9.077
 2695HO4    HW210779   0.589   5.082   8.947
 2695HO4     MW10780   0.576   4.988   8.980
 2696HO4     OW10781   7.514   3.854   6.263
 2696HO4    HW110782   7.452   3.925   6.297
 2696HO4    HW210783   7.478   3.763   6.288
 2696HO4     MW10784   7.514   3.854   6.263
 2697HO4     OW10785   0.723   8.641   2.620
 2697HO4    HW110786   0.704   8.732   2.582
 2697HO4    HW210787   0.704   8.641   2.719
 2697HO4     MW10788   0.723   8.641   2.620
 2698HO4     OW10789   4.331   3.677   1.039
 2698HO4    HW110790   4.391   3.696   0.960
 2698HO4    HW210791   4.383   3.624   1.107
 2698HO4     MW10792   4.331   3.677   1.039
 2699HO4     OW10793   6.795   0.985   8.216
 2699HO4    HW110794   6.711   1.017   8.171
 2699HO4    HW210795   6.849   1.064   8.246
 2699HO4     MW10796   6.795   0.985   8.216
 2700HO4     OW10797   7.993   4.680   3.089
 2700HO4    HW110798   8.058   4.732   3.033
 2700HO4    HW210799   8.036   4.656   3.177
 2700HO4     MW10800   7.993   4.680   3.089
 2701HO4     OW10801   3.798   6.060   1.053
 2701HO4    HW110802   3.853   6.046   0.970
 2701HO4    HW210803   3.703   6.079   1.027
 2701HO4     MW10804   3.798   6.060   1.053
 2702HO4     OW10805   6.192   9.351   5.068
 2702HO4    HW110806   6.172   9.448   5.084
 2702HO4    HW210807   6.290   9.334   5.079
 2702HO4     MW10808   6.192   9.351   5.068
 2703HO4     OW10809   0.031   7.730   7.910
 2703HO4    HW110810  -0.030   7.713   7.832
 2703HO4    HW210811  -0.020   7.721   7.996
 2703HO4     MW10812   0.031   7.730   7.910
 2704HO4     OW10813   8.561   4.585   2.869
 2704HO4    HW110814   8.658   4.590   2.895
 2704HO4    HW210815   8.552   4.532   2.785
 2704HO4     MW10816   8.561   4.585   2.869
 2705HO4     OW10817   6.725   6.216   1.084
 2705HO4    HW110818   6.709   6.118   1.075
 2705HO4    HW210819   6.655   6.267   1.034
 2705HO4     MW10820   6.725   6.216   1.084
 2706HO4     OW10821   0.158   7.565   4.862
 2706HO4    HW110822   0.186   7.584   4.767
 2706HO4    HW210823   0.186   7.642   4.920
 2706HO4     MW10824   0.158   7.565   4.862
 2707HO4     OW10825   7.821   3.277   5.426
 2707HO4    HW110826   7.912   3.262   5.465
 2707HO4    HW210827   7.782   3.189   5.397
 2707HO4     MW10828   7.821   3.277   5.426
 2708HO4     OW10829   8.439   4.233   6.112
 2708HO4    HW110830   8.470   4.329   6.110
 2708HO4    HW210831   8.437   4.201   6.208
 2708HO4     MW10832   8.439   4.233   6.112
 2709HO4     OW10833   7.682   9.295   6.074
 2709HO4    HW110834   7.769   9.295   6.024
 2709HO4    HW210835   7.695   9.339   6.164
 2709HO4     MW10836   7.682   9.295   6.074
 2710HO4     OW10837   8.429   9.709   1.259
 2710HO4    HW110838   8.405   9.777   1.189
 2710HO4    HW210839   8.356   9.705   1.328
 2710HO4     MW10840   8.429   9.709   1.259
 2711HO4     OW10841   0.348   3.831   2.891
 2711HO4    HW110842   0.317   3.924   2.913
 2711HO4    HW210843   0.419   3.835   2.821
 2711HO4     MW10844   0.348   3.831   2.891
 2712HO4     OW10845   5.713   5.735   8.630
 2712HO4    HW110846   5.710   5.672   8.551
 2712HO4    HW210847   5.700   5.682   8.715
 2712HO4     MW10848   5.713   5.735   8.630
 2713HO4     OW10849   7.858   6.643   5.077
 2713HO4    HW110850   7.893   6.595   4.997
 2713HO4    HW210851   7.935   6.678   5.132
 2713HO4     MW10852   7.858   6.643   5.077
 2714HO4     OW10853   4.394   7.026   6.560
 2714HO4    HW110854   4.417   6.941   6.511
 2714HO4    HW210855   4.476   7.083   6.568
 2714HO4     MW10856   4.394   7.026   6.560
 2715HO4     OW10857   4.328   7.415   1.482
 2715HO4    HW110858   4.427   7.411   1.464
 2715HO4    HW210859   4.312   7.441   1.578
 2715HO4     MW10860   4.328   7.415   1.482
 2716HO4     OW10861   2.012   5.528   7.756
 2716HO4    HW110862   2.036   5.580   7.838
 2716HO4    HW210863   2.076   5.551   7.682
 2716HO4     MW10864   2.012   5.528   7.756
 2717HO4     OW10865   6.672   9.549   9.286
 2717HO4    HW110866   6.756   9.605   9.291
 2717HO4    HW210867   6.651   9.528   9.190
 2717HO4     MW10868   6.672   9.549   9.286
 2718HO4     OW10869   3.572  10.036   1.339
 2718HO4    HW110870   3.521   9.949   1.348
 2718HO4    HW210871   3.518  10.101   1.285
 2718HO4     MW10872   3.572  10.036   1.339
 2719HO4     OW10873   9.319   6.380   4.508
 2719HO4    HW110874   9.411   6.417   4.519
 2719HO4    HW210875   9.275   6.422   4.429
 2719HO4     MW10876   9.319   6.380   4.508
 2720HO4     OW10877   4.166   4.191   7.167
 2720HO4    HW110878   4.189   4.244   7.085
 2720HO4    HW210879   4.067   4.196   7.184
 2720HO4     MW10880   4.166   4.191   7.167
 2721HO4     OW10881   2.565   2.833   9.122
 2721HO4    HW110882   2.575   2.908   9.056
 2721HO4    HW210883   2.468   2.811   9.135
 2721HO4     MW10884   2.565   2.833   9.122
 2722HO4     OW10885   2.764   4.888   5.732
 2722HO4    HW110886   2.774   4.979   5.773
 2722HO4    HW210887   2.707   4.894   5.649
 2722HO4     MW10888   2.764   4.888   5.732
 2723HO4     OW10889   2.625   4.686   8.483
 2723HO4    HW110890   2.704   4.746   8.500
 2723HO4    HW210891   2.577   4.668   8.569
 2723HO4     MW10892   2.625   4.686   8.483
 2724HO4     OW10893   5.704   3.280   8.739
 2724HO4    HW110894   5.701   3.213   8.663
 2724HO4    HW210895   5.649   3.246   8.815
 2724HO4     MW10896   5.704   3.280   8.739
 2725HO4     OW10897   8.112   4.105   6.207
 2725HO4    HW110898   8.174   4.073   6.278
 2725HO4    HW210899   8.100   4.034   6.137
 2725HO4     MW10900   8.112   4.105   6.207
 2726HO4     OW10901   3.456   8.096   8.111
 2726HO4    HW110902   3.473   8.001   8.138
 2726HO4    HW210903   3.463   8.104   8.011
 2726HO4     MW10904   3.456   8.096   8.111
 2727HO4     OW10905   0.170   6.843   9.092
 2727HO4    HW110906   0.171   6.786   9.175
 2727HO4    HW210907   0.122   6.795   9.018
 2727HO4     MW10908   0.170   6.843   9.092
 2728HO4     OW10909   3.432   6.784   9.209
 2728HO4    HW110910   3.465   6.726   9.134
 2728HO4    HW210911   3.335   6.765   9.225
 2728HO4     MW10912   3.432   6.784   9.209
 2729HO4     OW10913   8.744   2.283   9.024
 2729HO4    HW110914   8.806   2.268   8.947
 2729HO4    HW210915   8.693   2.368   9.010
 2729HO4     MW10916   8.744   2.283   9.024
 2730HO4     OW10917   4.565   5.583   0.602
 2730HO4    HW110918   4.640   5.631   0.649
 2730HO4    HW210919   4.581   5.584   0.503
 2730HO4     MW10920   4.565   5.583   0.602
 2731HO4     OW10921   2.745   8.452   5.825
 2731HO4    HW110922   2.830   8.447   5.772
 2731HO4    HW210923   2.762   8.423   5.919
 2731HO4     MW10924   2.745   8.452   5.825
 2732HO4     OW10925   7.219   2.458   2.660
 2732HO4    HW110926   7.140   2.402   2.687
 2732HO4    HW210927   7.298   2.434   2.717
 2732HO4     MW10928   7.219   2.458   2.660
 2733HO4     OW10929   8.328   3.472   6.498
 2733HO4    HW110930   8.281   3.489   6.585
 2733HO4    HW210931   8.261   3.444   6.428
 2733HO4     MW10932   8.328   3.472   6.498
 2734HO4     OW10933   2.119  10.149   3.697
 2734HO4    HW110934   2.095  10.246   3.708
 2734HO4    HW210935   2.059  10.107   3.628
 2734HO4     MW10936   2.119  10.149   3.697
 2735HO4     OW10937   7.371   7.092   3.179
 2735HO4    HW110938   7.445   7.068   3.115
 2735HO4    HW210939   7.307   7.015   3.187
 2735HO4     MW10940   7.371   7.092   3.179
 2736HO4     OW10941   9.934   7.671   1.501
 2736HO4    HW110942   9.932   7.653   1.402
 2736HO4    HW210943   9.976   7.760   1.519
 2736HO4     MW10944   9.934   7.671   1.501
 2737HO4     OW10945   3.578   3.853   2.558
 2737HO4    HW110946   3.585   3.906   2.644
 2737HO4    HW210947   3.639   3.894   2.489
 2737HO4     MW10948   3.578   3.853   2.558
 2738HO4     OW10949   9.932   7.497   3.186
 2738HO4    HW110950   9.877   7.581   3.186
 2738HO4    HW210951   9.874   7.419   3.163
 2738HO4     MW10952   9.932   7.497   3.186
 2739HO4     OW10953   3.187   5.354   7.459
 2739HO4    HW110954   3.106   5.386   7.509
 2739HO4    HW210955   3.167   5.265   7.416
 2739HO4     MW10956   3.187   5.354   7.459
 2740HO4     OW10957   0.751   1.714   2.315
 2740HO4    HW110958   0.797   1.627   2.293
 2740HO4    HW210959   0.705   1.706   2.404
 2740HO4     MW10960   0.751   1.714   2.315
 2741HO4     OW10961   3.881   2.002   4.874
 2741HO4    HW110962   3.845   1.977   4.783
 2741HO4    HW210963   3.814   2.059   4.922
 2741HO4     MW10964   3.881   2.002   4.874
 2742HO4     OW10965   9.133   9.865   5.818
 2742HO4    HW110966   9.095   9.853   5.726
 2742HO4    HW210967   9.061   9.852   5.887
 2742HO4     MW10968   9.133   9.865   5.818
 2743HO4     OW10969   7.336   9.061   7.404
 2743HO4    HW110970   7.425   9.023   7.430
 2743HO4    HW210971   7.263   9.016   7.458
 2743HO4     MW10972   7.336   9.061   7.404
 2744HO4     OW10973   5.588   0.204   0.682
 2744HO4    HW110974   5.581   0.303   0.701
 2744HO4    HW210975   5.534   0.153   0.750
 2744HO4     MW10976   5.588   0.204   0.682
 2745HO4     OW10977   7.671   6.361   3.338
 2745HO4    HW110978   7.707   6.406   3.420
 2745HO4    HW210979   7.702   6.411   3.256
 2745HO4     MW10980   7.671   6.361   3.338
 2746HO4     OW10981   6.795   1.383   0.715
 2746HO4    HW110982   6.737   1.342   0.786
 2746HO4    HW210983   6.743   1.389   0.629
 2746HO4     MW10984   6.795   1.383   0.715
 2747HO4     OW10985   4.184   1.526   1.156
 2747HO4    HW110986   4.194   1.465   1.078
 2747HO4    HW210987   4.157   1.618   1.124
 2747HO4     MW10988   4.184   1.526   1.156
 2748HO4     OW10989   4.946   2.198   5.996
 2748HO4    HW110990   4.991   2.136   5.931
 2748HO4    HW210991   5.013   2.266   6.029
 2748HO4     MW10992   4.946   2.198   5.996
 2749HO4     OW10993   6.447   2.834   5.153
 2749HO4    HW110994   6.400   2.847   5.066
 2749HO4    HW210995   6.495   2.918   5.178
 2749HO4     MW10996   6.447   2.834   5.153
 2750HO4     OW10997   9.768   8.721   7.640
 2750HO4    HW110998   9.808   8.812   7.651
 2750HO4    HW210999   9.813   8.674   7.564
 2750HO4     MW11000   9.768   8.721   7.640
 2751HO4     OW11001   3.852   3.721   3.211
 2751HO4    HW111002   3.775   3.731   3.275
 2751HO4    HW211003   3.825   3.661   3.135
 2751HO4     MW11004   3.852   3.721   3.211
 2752HO4     OW11005   4.954   7.584   2.431
 2752HO4    HW111006   5.024   7.517   2.405
 2752HO4    HW211007   4.998   7.663   2.475
 2752HO4     MW11008   4.954   7.584   2.431
 2753HO4     OW11009   4.941   0.064   3.412
 2753HO4    HW111010   4.946   0.137   3.481
 2753HO4    HW211011   4.977   0.098   3.325
 2753HO4     MW11012   4.941   0.064   3.412
 2754HO4     OW11013   5.145   3.083   0.835
 2754HO4    HW111014   5.209   3.068   0.911
 2754HO4    HW211015   5.142   3.181   0.812
 2754HO4     MW11016   5.145   3.083   0.835
 2755HO4     OW11017   3.815   1.169   3.003
 2755HO4    HW111018   3.882   1.239   2.978
 2755HO4    HW211019   3.777   1.129   2.919
 2755HO4     MW11020   3.815   1.169   3.003
 2756HO4     OW11021   2.263   5.168   0.055
 2756HO4    HW111022   2.178   5.218   0.031
 2756HO4    HW211023   2.321   5.227   0.112
 2756HO4     MW11024   2.263   5.168   0.055
 2757HO4     OW11025   0.904  10.109   9.128
 2757HO4    HW111026   0.842  10.121   9.206
 2757HO4    HW211027   0.920  10.010   9.114
 2757HO4     MW11028   0.904  10.109   9.128
 2758HO4     OW11029   7.499   9.862  10.135
 2758HO4    HW111030   7.416   9.806  10.135
 2758HO4    HW211031   7.504   9.915  10.220
 2758HO4     MW11032   7.499   9.862  10.135
 2759HO4     OW11033   2.008   3.758   6.331
 2759HO4    HW111034   2.052   3.806   6.408
 2759HO4    HW211035   1.912   3.741   6.353
 2759HO4     MW11036   2.008   3.758   6.331
 2760HO4     OW11037   2.356   6.947   8.189
 2760HO4    HW111038   2.328   6.974   8.282
 2760HO4    HW211039   2.288   6.885   8.150
 2760HO4     MW11040   2.356   6.947   8.189
 2761HO4     OW11041   6.700   1.119   9.553
 2761HO4    HW111042   6.717   1.163   9.642
 2761HO4    HW211043   6.609   1.079   9.553
 2761HO4     MW11044   6.700   1.119   9.553
 2762HO4     OW11045   7.302   5.948   1.274
 2762HO4    HW111046   7.346   6.001   1.201
 2762HO4    HW211047   7.217   5.907   1.240
 2762HO4     MW11048   7.302   5.948   1.274
 2763HO4     OW11049   2.915   5.344   4.780
 2763HO4    HW111050   2.877   5.306   4.696
 2763HO4    HW211051   2.875   5.296   4.859
 2763HO4     MW11052   2.915   5.344   4.780
 2764HO4     OW11053   2.207   9.213   5.175
 2764HO4    HW111054   2.281   9.237   5.111
 2764HO4    HW211055   2.210   9.276   5.254
 2764HO4     MW11056   2.207   9.213   5.175
 2765HO4     OW11057   1.721   6.391   2.296
 2765HO4    HW111058   1.759   6.305   2.262
 2765HO4    HW211059   1.710   6.387   2.396
 2765HO4     MW11060   1.721   6.391   2.296
 2766HO4     OW11061   0.070   1.896   2.959
 2766HO4    HW111062   0.039   1.852   2.874
 2766HO4    HW211063   0.129   1.974   2.937
 2766HO4     MW11064   0.070   1.896   2.959
 2767HO4     OW11065   5.076   6.006   4.127
 2767HO4    HW111066   5.089   5.948   4.046
 2767HO4    HW211067   5.151   5.991   4.192
 2767HO4     MW11068   5.076   6.006   4.127
 2768HO4     OW11069   9.953   7.014   9.337
 2768HO4    HW111070   9.893   7.021   9.256
 2768HO4    HW211071   9.900   7.035   9.420
 2768HO4     MW11072   9.953   7.014   9.337
 2769HO4     OW11073   8.337   7.255   9.091
 2769HO4    HW111074   8.313   7.190   9.164
 2769HO4    HW211075   8.282   7.235   9.010
 2769HO4     MW11076   8.337   7.255   9.091
 2770HO4     OW11077   6.798   2.746   7.411
 2770HO4    HW111078   6.718   2.693   7.437
 2770HO4    HW211079   6.872   2.731   7.478
 2770HO4     MW11080   6.798   2.746   7.411
 2771HO4     OW11081   1.135   3.640   2.111
 2771HO4    HW111082   1.147   3.740   2.118
 2771HO4    HW211083   1.038   3.617   2.118
 2771HO4     MW11084   1.135   3.640   2.111
 2772HO4     OW11085   3.522   6.658   3.071
 2772HO4    HW111086   3.560   6.689   2.983
 2772HO4    HW211087   3.595   6.657   3.140
 2772HO4     MW11088   3.522   6.658   3.071
 2773HO4     OW11089   2.029   7.084   2.188
 2773HO4    HW111090   2.093   7.107   2.114
 2773HO4    HW211091   1.974   7.165   2.211
 2773HO4     MW11092   2.029   7.084   2.188
 2774HO4     OW11093   6.088   0.272   4.997
 2774HO4    HW111094   6.095   0.335   4.920
 2774HO4    HW211095   6.044   0.318   5.074
 2774HO4     MW11096   6.088   0.272   4.997
 2775HO4     OW11097   4.047   5.318   9.889
 2775HO4    HW111098   3.952   5.330   9.860
 2775HO4    HW211099   4.071   5.220   9.886
 2775HO4     MW11100   4.047   5.318   9.889
 2776HO4     OW11101   4.649   0.034   3.853
 2776HO4    HW111102   4.596  -0.050   3.871
 2776HO4    HW211103   4.698   0.024   3.766
 2776HO4     MW11104   4.649   0.034   3.853
 2777HO4     OW11105   0.333   4.852   0.709
 2777HO4    HW111106   0.328   4.806   0.620
 2777HO4    HW211107   0.330   4.784   0.782
 2777HO4     MW11108   0.333   4.852   0.709
 2778HO4     OW11109   4.298   5.939   1.020
 2778HO4    HW111110   4.300   6.024   0.969
 2778HO4    HW211111   4.356   5.948   1.102
 2778HO4     MW11112   4.298   5.939   1.020
 2779HO4     OW11113   0.492   8.886   7.012
 2779HO4    HW111114   0.414   8.949   7.008
 2779HO4    HW211115   0.527   8.884   7.106
 2779HO4     MW11116   0.492   8.886   7.012
 2780HO4     OW11117   3.340   8.877   8.553
 2780HO4    HW111118   3.318   8.830   8.467
 2780HO4    HW211119   3.336   8.977   8.538
 2780HO4     MW11120   3.340   8.877   8.553
 2781HO4     OW11121   4.308   4.033   1.469
 2781HO4    HW111122   4.348   3.945   1.440
 2781HO4    HW211123   4.359   4.069   1.547
 2781HO4     MW11124   4.308   4.033   1.469
 2782HO4     OW11125   7.064   3.667   9.339
 2782HO4    HW111126   7.029   3.593   9.281
 2782HO4    HW211127   6.988   3.710   9.389
 2782HO4     MW11128   7.064   3.667   9.339
 2783HO4     OW11129   6.876   5.376   7.233
 2783HO4    HW111130   6.788   5.333   7.255
 2783HO4    HW211131   6.903   5.438   7.308
 2783HO4     MW11132   6.876   5.376   7.233
 2784HO4     OW11133   2.909   2.315   3.490
 2784HO4    HW111134   2.859   2.372   3.555
 2784HO4    HW211135   2.857   2.309   3.404
 2784HO4     MW11136   2.909   2.315   3.490
 2785HO4     OW11137   5.243   1.936   9.298
 2785HO4    HW111138   5.198   1.984   9.221
 2785HO4    HW211139   5.315   1.876   9.262
 2785HO4     MW11140   5.243   1.936   9.298
 2786HO4     OW11141   5.863   3.853   7.760
 2786HO4    HW111142   5.856   3.907   7.844
 2786HO4    HW211143   5.898   3.761   7.781
 2786HO4     MW11144   5.863   3.853   7.760
 2787HO4     OW11145   4.619   2.837   5.491
 2787HO4    HW111146   4.520   2.819   5.490
 2787HO4    HW211147   4.665   2.772   5.430
 2787HO4     MW11148   4.619   2.837   5.491
 2788HO4     OW11149   4.914   3.184   9.383
 2788HO4    HW111150   4.979   3.194   9.307
 2788HO4    HW211151   4.823   3.164   9.346
 2788HO4     MW11152   4.914   3.184   9.383
 2789HO4     OW11153   6.430   5.568   8.713
 2789HO4    HW111154   6.395   5.527   8.798
 2789HO4    HW211155   6.392   5.518   8.634
 2789HO4     MW11156   6.430   5.568   8.713
 2790HO4     OW11157  10.060   6.287   1.892
 2790HO4    HW111158  10.003   6.367   1.914
 2790HO4    HW211159  10.150   6.319   1.858
 2790HO4     MW11160  10.060   6.287   1.892
 2791HO4     OW11161   0.065   0.327   5.976
 2791HO4    HW111162   0.112   0.296   5.892
 2791HO4    HW211163   0.015   0.250   6.016
 2791HO4     MW11164   0.065   0.327   5.976
 2792HO4     OW11165   0.229   8.859   6.729
 2792HO4    HW111166   0.219   8.919   6.649
 2792HO4    HW211167   0.260   8.769   6.699
 2792HO4     MW11168   0.229   8.859   6.729
 2793HO4     OW11169   3.074   4.279   1.116
 2793HO4    HW111170   3.120   4.224   1.186
 2793HO4    HW211171   3.117   4.261   1.027
 2793HO4     MW11172   3.074   4.279   1.116
 2794HO4     OW11173   2.190   8.408   5.301
 2794HO4    HW111174   2.288   8.426   5.313
 2794HO4    HW211175   2.173   8.375   5.208
 2794HO4     MW11176   2.190   8.408   5.301
 2795HO4     OW11177   1.635   2.481   5.404
 2795HO4    HW111178   1.730   2.480   5.438
 2795HO4    HW211179   1.635   2.486   5.304
 2795HO4     MW11180   1.635   2.481   5.404
 2796HO4     OW11181   8.152   7.669   3.930
 2796HO4    HW111182   8.091   7.660   3.850
 2796HO4    HW211183   8.097   7.667   4.014
 2796HO4     MW11184   8.152   7.669   3.930
 2797HO4     OW11185   3.355   4.827   5.865
 2797HO4    HW111186   3.402   4.810   5.952
 2797HO4    HW211187   3.392   4.910   5.822
 2797HO4     MW11188   3.355   4.827   5.865
 2798HO4     OW11189   6.318   4.349   0.597
 2798HO4    HW111190   6.235   4.405   0.592
 2798HO4    HW211191   6.341   4.330   0.693
 2798HO4     MW11192   6.318   4.349   0.597
 2799HO4     OW11193   7.881   0.584   0.541
 2799HO4    HW111194   7.865   0.656   0.609
 2799HO4    HW211195   7.861   0.620   0.449
 2799HO4     MW11196   7.881   0.584   0.541
 2800HO4     OW11197   2.805   0.926   6.185
 2800HO4    HW111198   2.847   0.932   6.276
 2800HO4    HW211199   2.875   0.940   6.114
 2800HO4     MW11200   2.805   0.926   6.185
 2801HO4     OW11201   6.978   9.113   4.711
 2801HO4    HW111202   6.895   9.160   4.679
 2801HO4    HW211203   6.968   9.092   4.809
 2801HO4     MW11204   6.978   9.113   4.711
 2802HO4     OW11205   4.953   7.275   0.106
 2802HO4    HW111206   4.969   7.368   0.141
 2802HO4    HW211207   4.894   7.280   0.025
 2802HO4     MW11208   4.953   7.275   0.106
 2803HO4     OW11209  10.003   9.363   0.449
 2803HO4    HW111210   9.973   9.312   0.531
 2803HO4    HW211211   9.984   9.308   0.367
 2803HO4     MW11212  10.003   9.363   0.449
 2804HO4     OW11213   0.717   6.029  10.173
 2804HO4    HW111214   0.618   6.025  10.160
 2804HO4    HW211215   0.760   6.067  10.091
 2804HO4     MW11216   0.717   6.029  10.173
 2805HO4     OW11217   8.143   6.432   2.694
 2805HO4    HW111218   8.227   6.471   2.655
 2805HO4    HW211219   8.125   6.473   2.784
 2805HO4     MW11220   8.143   6.432   2.694
 2806HO4     OW11221   1.146   1.856   3.573
 2806HO4    HW111222   1.136   1.841   3.474
 2806HO4    HW211223   1.236   1.896   3.592
 2806HO4     MW11224   1.146   1.856   3.573
 2807HO4     OW11225  10.112   4.798   3.321
 2807HO4    HW111226  10.055   4.771   3.399
 2807HO4    HW211227  10.067   4.770   3.236
 2807HO4     MW11228  10.112   4.798   3.321
 2808HO4     OW11229   7.205   7.970   1.902
 2808HO4    HW111230   7.158   7.924   1.826
 2808HO4    HW211231   7.171   7.934   1.990
 2808HO4     MW11232   7.205   7.970   1.902
 2809HO4     OW11233   5.116   8.346   3.456
 2809HO4    HW111234   5.163   8.272   3.505
 2809HO4    HW211235   5.124   8.431   3.508
 2809HO4     MW11236   5.116   8.346   3.456
 2810HO4     OW11237   5.619   8.290   4.955
 2810HO4    HW111238   5.692   8.237   5.000
 2810HO4    HW211239   5.659   8.368   4.907
 2810HO4     MW11240   5.619   8.290   4.955
 2811HO4     OW11241   5.713   8.788   9.441
 2811HO4    HW111242   5.685   8.846   9.364
 2811HO4    HW211243   5.663   8.816   9.524
 2811HO4     MW11244   5.713   8.788   9.441
 2812HO4     OW11245   3.355   0.242   2.774
 2812HO4    HW111246   3.437   0.197   2.737
 2812HO4    HW211247   3.299   0.276   2.697
 2812HO4     MW11248   3.355   0.242   2.774
 2813HO4     OW11249   8.619   5.586   1.899
 2813HO4    HW111250   8.675   5.508   1.928
 2813HO4    HW211251   8.553   5.609   1.972
 2813HO4     MW11252   8.619   5.586   1.899
 2814HO4     OW11253  10.046   5.053   6.595
 2814HO4    HW111254  10.144   5.071   6.588
 2814HO4    HW211255  10.017   4.999   6.515
 2814HO4     MW11256  10.046   5.053   6.595
 2815HO4     OW11257   1.364   4.576   2.629
 2815HO4    HW111258   1.406   4.491   2.595
 2815HO4    HW211259   1.361   4.574   2.729
 2815HO4     MW11260   1.364   4.576   2.629
 2816HO4     OW11261   9.428   9.076   9.479
 2816HO4    HW111262   9.355   9.128   9.433
 2816HO4    HW211263   9.506   9.137   9.495
 2816HO4     MW11264   9.428   9.076   9.479
 2817HO4     OW11265   0.337   6.350   8.269
 2817HO4    HW111266   0.243   6.351   8.233
 2817HO4    HW211267   0.354   6.436   8.319
 2817HO4     MW11268   0.337   6.350   8.269
 2818HO4     OW11269   2.564   0.066   5.804
 2818HO4    HW111270   2.520   0.020   5.727
 2818HO4    HW211271   2.535   0.022   5.890
 2818HO4     MW11272   2.564   0.066   5.804
 2819HO4     OW11273   4.708   1.642   9.430
 2819HO4    HW111274   4.716   1.590   9.344
 2819HO4    HW211275   4.724   1.581   9.508
 2819HO4     MW11276   4.708   1.642   9.430
 2820HO4     OW11277   7.166   4.002   0.784
 2820HO4    HW111278   7.214   3.930   0.834
 2820HO4    HW211279   7.083   4.028   0.834
 2820HO4     MW11280   7.166   4.002   0.784
 2821HO4     OW11281   6.040   0.088   3.635
 2821HO4    HW111282   6.067   0.003   3.588
 2821HO4    HW211283   6.106   0.160   3.612
 2821HO4     MW11284   6.040   0.088   3.635
 2822HO4     OW11285   9.430   6.512   3.790
 2822HO4    HW111286   9.367   6.491   3.865
 2822HO4    HW211287   9.378   6.529   3.706
 2822HO4     MW11288   9.430   6.512   3.790
 2823HO4     OW11289   5.344   5.384   2.347
 2823HO4    HW111290   5.403   5.423   2.275
 2823HO4    HW211291   5.251   5.374   2.313
 2823HO4     MW11292   5.344   5.384   2.347
 2824HO4     OW11293   5.122   7.053   0.800
 2824HO4    HW111294   5.114   7.108   0.883
 2824HO4    HW211295   5.030   7.038   0.761
 2824HO4     MW11296   5.122   7.053   0.800
 2825HO4     OW11297   0.144   2.837   3.162
 2825HO4    HW111298   0.121   2.742   3.184
 2825HO4    HW211299   0.209   2.838   3.085
 2825HO4     MW11300   0.144   2.837   3.162
 2826HO4     OW11301   5.976   9.242   5.545
 2826HO4    HW111302   5.912   9.318   5.538
 2826HO4    HW211303   6.037   9.256   5.623
 2826HO4     MW11304   5.976   9.242   5.545
 2827HO4     OW11305   6.106   8.449   5.297
 2827HO4    HW111306   6.065   8.410   5.381
 2827HO4    HW211307   6.067   8.402   5.217
 2827HO4     MW11308   6.106   8.449   5.297
 2828HO4     OW11309   4.271   7.511   8.288
 2828HO4    HW111310   4.302   7.462   8.205
 2828HO4    HW211311   4.296   7.458   8.369
 2828HO4     MW11312   4.271   7.511   8.288
 2829HO4     OW11313   6.499   8.800   2.085
 2829HO4    HW111314   6.416   8.833   2.131
 2829HO4    HW211315   6.474   8.757   1.998
 2829HO4     MW11316   6.499   8.800   2.085
 2830HO4     OW11317   0.107   4.873   4.423
 2830HO4    HW111318   0.010   4.889   4.443
 2830HO4    HW211319   0.115   4.799   4.355
 2830HO4     MW11320   0.107   4.873   4.423
 2831HO4     OW11321   5.067   1.313   4.291
 2831HO4    HW111322   5.123   1.397   4.292
 2831HO4    HW211323   5.127   1.233   4.296
 2831HO4     MW11324   5.067   1.313   4.291
 2832HO4     OW11325   6.975   4.846   1.531
 2832HO4    HW111326   6.906   4.866   1.602
 2832HO4    HW211327   6.954   4.899   1.448
 2832HO4     MW11328   6.975   4.846   1.531
 2833HO4     OW11329   9.961  10.043   7.189
 2833HO4    HW111330  10.051  10.001   7.170
 2833HO4    HW211331   9.966  10.092   7.277
 2833HO4     MW11332   9.961  10.043   7.189
 2834HO4     OW11333   2.141   7.907   7.460
 2834HO4    HW111334   2.162   7.956   7.546
 2834HO4    HW211335   2.193   7.822   7.457
 2834HO4     MW11336   2.141   7.907   7.460
 2835HO4     OW11337   9.130   4.508   9.463
 2835HO4    HW111338   9.034   4.485   9.483
 2835HO4    HW211339   9.150   4.602   9.494
 2835HO4     MW11340   9.130   4.508   9.463
 2836HO4     OW11341   5.341   1.643   9.339
 2836HO4    HW111342   5.320   1.580   9.264
 2836HO4    HW211343   5.439   1.641   9.358
 2836HO4     MW11344   5.341   1.643   9.339
 2837HO4     OW11345   4.423   8.495   5.051
 2837HO4    HW111346   4.468   8.477   4.963
 2837HO4    HW211347   4.369   8.415   5.079
 2837HO4     MW11348   4.423   8.495   5.051
 2838HO4     OW11349   0.039   2.634   8.822
 2838HO4    HW111350  -0.024   2.705   8.790
 2838HO4    HW211351  -0.010   2.567   8.878
 2838HO4     MW11352   0.039   2.634   8.822
 2839HO4     OW11353   2.824   6.231   5.652
 2839HO4    HW111354   2.739   6.213   5.703
 2839HO4    HW211355   2.885   6.289   5.707
 2839HO4     MW11356   2.824   6.231   5.652
 2840HO4     OW11357   6.066   2.258   9.222
 2840HO4    HW111358   5.982   2.211   9.251
 2840HO4    HW211359   6.134   2.253   9.295
 2840HO4     MW11360   6.066   2.258   9.222
 2841HO4     OW11361   8.515   5.374   4.989
 2841HO4    HW111362   8.498   5.338   5.081
 2841HO4    HW211363   8.563   5.305   4.935
 2841HO4     MW11364   8.515   5.374   4.989
 2842HO4     OW11365   9.708   8.331   4.016
 2842HO4    HW111366   9.760   8.338   3.931
 2842HO4    HW211367   9.770   8.309   4.092
 2842HO4     MW11368   9.708   8.331   4.016
 2843HO4     OW11369   0.599   1.332   1.535
 2843HO4    HW111370   0.688   1.334   1.580
 2843HO4    HW211371   0.530   1.373   1.595
 2843HO4     MW11372   0.599   1.332   1.535
 2844HO4     OW11373   6.413   9.831   3.816
 2844HO4    HW111374   6.464   9.753   3.854
 2844HO4    HW211375   6.410   9.905   3.884
 2844HO4     MW11376   6.413   9.831   3.816
 2845HO4     OW11377   5.850   5.222   5.612
 2845HO4    HW111378   5.752   5.212   5.631
 2845HO4    HW211379   5.903   5.195   5.692
 2845HO4     MW11380   5.850   5.222   5.612
 2846HO4     OW11381   0.031   7.244   3.842
 2846HO4    HW111382   0.101   7.216   3.775
 2846HO4    HW211383   0.059   7.213   3.934
 2846HO4     MW11384   0.031   7.244   3.842
 2847HO4     OW11385   0.146   6.497   6.396
 2847HO4    HW111386   0.156   6.423   6.463
 2847HO4    HW211387   0.064   6.551   6.418
 2847HO4     MW11388   0.146   6.497   6.396
 2848HO4     OW11389   6.675   2.149   2.095
 2848HO4    HW111390   6.695   2.245   2.075
 2848HO4    HW211391   6.577   2.139   2.119
 2848HO4     MW11392   6.675   2.149   2.095
 2849HO4     OW11393   3.959   0.439   1.631
 2849HO4    HW111394   4.041   0.414   1.684
 2849HO4    HW211395   3.957   0.539   1.618
 2849HO4     MW11396   3.959   0.439   1.631
 2850HO4     OW11397   3.967   7.269   4.533
 2850HO4    HW111398   3.972   7.309   4.441
 2850HO4    HW211399   3.920   7.333   4.595
 2850HO4     MW11400   3.967   7.269   4.533
 2851HO4     OW11401   1.426   7.799   9.955
 2851HO4    HW111402   1.510   7.805  10.009
 2851HO4    HW211403   1.408   7.888   9.912
 2851HO4     MW11404   1.426   7.799   9.955
 2852HO4     OW11405   3.839   7.450   6.983
 2852HO4    HW111406   3.910   7.438   7.053
 2852HO4    HW211407   3.764   7.386   7.000
 2852HO4     MW11408   3.839   7.450   6.983
 2853HO4     OW11409   2.616   9.471   6.730
 2853HO4    HW111410   2.666   9.497   6.813
 2853HO4    HW211411   2.655   9.519   6.651
 2853HO4     MW11412   2.616   9.471   6.730
 2854HO4     OW11413   7.473   1.405   2.074
 2854HO4    HW111414   7.423   1.484   2.111
 2854HO4    HW211415   7.447   1.323   2.126
 2854HO4     MW11416   7.473   1.405   2.074
 2855HO4     OW11417   3.428   0.752   9.654
 2855HO4    HW111418   3.476   0.785   9.573
 2855HO4    HW211419   3.472   0.668   9.687
 2855HO4     MW11420   3.428   0.752   9.654
 2856HO4     OW11421   8.383   1.548   7.851
 2856HO4    HW111422   8.331   1.462   7.854
 2856HO4    HW211423   8.371   1.591   7.761
 2856HO4     MW11424   8.383   1.548   7.851
 2857HO4     OW11425   6.409   6.431   4.891
 2857HO4    HW111426   6.387   6.520   4.931
 2857HO4    HW211427   6.422   6.441   4.792
 2857HO4     MW11428   6.409   6.431   4.891
 2858HO4     OW11429   3.830   4.835   2.405
 2858HO4    HW111430   3.893   4.898   2.359
 2858HO4    HW211431   3.882   4.765   2.454
 2858HO4     MW11432   3.830   4.835   2.405
 2859HO4     OW11433   0.749   0.212   5.823
 2859HO4    HW111434   0.834   0.160   5.829
 2859HO4    HW211435   0.758   0.285   5.755
 2859HO4     MW11436   0.749   0.212   5.823
 2860HO4     OW11437   0.642   8.404   2.474
 2860HO4    HW111438   0.549   8.409   2.436
 2860HO4    HW211439   0.650   8.467   2.552
 2860HO4     MW11440   0.642   8.404   2.474
 2861HO4     OW11441   4.523   7.701   9.245
 2861HO4    HW111442   4.454   7.766   9.277
 2861HO4    HW211443   4.554   7.644   9.322
 2861HO4     MW11444   4.523   7.701   9.245
 2862HO4     OW11445   4.490   5.459   5.887
 2862HO4    HW111446   4.519   5.546   5.928
 2862HO4    HW211447   4.543   5.384   5.928
 2862HO4     MW11448   4.490   5.459   5.887
 2863HO4     OW11449   5.178   4.100   4.673
 2863HO4    HW111450   5.196   4.045   4.755
 2863HO4    HW211451   5.110   4.054   4.615
 2863HO4     MW11452   5.178   4.100   4.673
 2864HO4     OW11453   8.337   4.490   1.684
 2864HO4    HW111454   8.304   4.396   1.695
 2864HO4    HW211455   8.437   4.489   1.672
 2864HO4     MW11456   8.337   4.490   1.684
 2865HO4     OW11457   0.773   0.668   9.615
 2865HO4    HW111458   0.816   0.743   9.564
 2865HO4    HW211459   0.681   0.697   9.645
 2865HO4     MW11460   0.773   0.668   9.615
 2866HO4     OW11461   5.677   1.359   0.776
 2866HO4    HW111462   5.611   1.304   0.725
 2866HO4    HW211463   5.743   1.298   0.822
 2866HO4     MW11464   5.677   1.359   0.776
 2867HO4     OW11465   2.617   6.793   3.806
 2867HO4    HW111466   2.542   6.838   3.855
 2867HO4    HW211467   2.674   6.862   3.760
 2867HO4     MW11468   2.617   6.793   3.806
 2868HO4     OW11469  10.014   4.586   3.013
 2868HO4    HW111470   9.997   4.587   3.112
 2868HO4    HW211471   9.926   4.577   2.964
 2868HO4     MW11472  10.014   4.586   3.013
 2869HO4     OW11473   2.622   3.358   2.839
 2869HO4    HW111474   2.573   3.405   2.765
 2869HO4    HW211475   2.558   3.301   2.891
 2869HO4     MW11476   2.622   3.358   2.839
 2870HO4     OW11477   2.006   7.972   9.507
 2870HO4    HW111478   1.972   8.030   9.581
 2870HO4    HW211479   1.975   8.009   9.419
 2870HO4     MW11480   2.006   7.972   9.507
 2871HO4     OW11481   7.198   0.775   3.749
 2871HO4    HW111482   7.161   0.740   3.663
 2871HO4    HW211483   7.197   0.702   3.818
 2871HO4     MW11484   7.198   0.775   3.749
 2872HO4     OW11485   5.112   7.160   8.124
 2872HO4    HW111486   5.046   7.123   8.190
 2872HO4    HW211487   5.100   7.116   8.035
 2872HO4     MW11488   5.112   7.160   8.124
 2873HO4     OW11489   0.727   7.410   0.314
 2873HO4    HW111490   0.652   7.426   0.380
 2873HO4    HW211491   0.688   7.386   0.225
 2873HO4     MW11492   0.727   7.410   0.314
 2874HO4     OW11493   6.490   0.699   9.905
 2874HO4    HW111494   6.408   0.731   9.857
 2874HO4    HW211495   6.463   0.630   9.973
 2874HO4     MW11496   6.490   0.699   9.905
 2875HO4     OW11497   7.382   0.588   7.436
 2875HO4    HW111498   7.422   0.677   7.458
 2875HO4    HW211499   7.455   0.519   7.428
 2875HO4     MW11500   7.382   0.588   7.436
 2876HO4     OW11501   5.668   2.055   9.731
 2876HO4    HW111502   5.663   1.958   9.706
 2876HO4    HW211503   5.628   2.111   9.658
 2876HO4     MW11504   5.668   2.055   9.731
 2877HO4     OW11505   9.586   1.456   6.546
 2877HO4    HW111506   9.621   1.533   6.490
 2877HO4    HW211507   9.495   1.430   6.514
 2877HO4     MW11508   9.586   1.456   6.546
 2878HO4     OW11509   5.287   7.231   8.881
 2878HO4    HW111510   5.323   7.305   8.824
 2878HO4    HW211511   5.189   7.246   8.898
 2878HO4     MW11512   5.287   7.231   8.881
 2879HO4     OW11513   1.568   2.651   2.221
 2879HO4    HW111514   1.618   2.566   2.241
 2879HO4    HW211515   1.581   2.715   2.297
 2879HO4     MW11516   1.568   2.651   2.221
 2880HO4     OW11517   4.663   6.784   9.625
 2880HO4    HW111518   4.691   6.881   9.627
 2880HO4    HW211519   4.633   6.757   9.717
 2880HO4     MW11520   4.663   6.784   9.625
 2881HO4     OW11521   3.281   1.486   8.072
 2881HO4    HW111522   3.330   1.440   8.147
 2881HO4    HW211523   3.240   1.416   8.012
 2881HO4     MW11524   3.281   1.486   8.072
 2882HO4     OW11525   7.882   9.193   6.458
 2882HO4    HW111526   7.812   9.127   6.428
 2882HO4    HW211527   7.950   9.205   6.385
 2882HO4     MW11528   7.882   9.193   6.458
 2883HO4     OW11529   4.347   7.955   4.886
 2883HO4    HW111530   4.363   8.024   4.957
 2883HO4    HW211531   4.293   7.995   4.812
 2883HO4     MW11532   4.347   7.955   4.886
 2884HO4     OW11533   0.141   7.524   7.863
 2884HO4    HW111534   0.141   7.448   7.797
 2884HO4    HW211535   0.134   7.611   7.813
 2884HO4     MW11536   0.141   7.524   7.863
 2885HO4     OW11537   2.836   2.598   1.658
 2885HO4    HW111538   2.839   2.514   1.712
 2885HO4    HW211539   2.782   2.583   1.575
 2885HO4     MW11540   2.836   2.598   1.658
 2886HO4     OW11541   8.916   6.587   9.716
 2886HO4    HW111542   8.898   6.672   9.766
 2886HO4    HW211543   8.998   6.543   9.755
 2886HO4     MW11544   8.916   6.587   9.716
 2887HO4     OW11545   5.227   1.069   3.114
 2887HO4    HW111546   5.273   1.111   3.035
 2887HO4    HW211547   5.254   0.973   3.122
 2887HO4     MW11548   5.227   1.069   3.114
 2888HO4     OW11549   3.190   9.656   2.753
 2888HO4    HW111550   3.233   9.647   2.843
 2888HO4    HW211551   3.182   9.753   2.729
 2888HO4     MW11552   3.190   9.656   2.753
 2889HO4     OW11553   7.138   6.259   0.160
 2889HO4    HW111554   7.219   6.261   0.219
 2889HO4    HW211555   7.110   6.352   0.137
 2889HO4     MW11556   7.138   6.259   0.160
 2890HO4     OW11557   3.178   1.280   7.008
 2890HO4    HW111558   3.211   1.222   6.932
 2890HO4    HW211559   3.090   1.321   6.982
 2890HO4     MW11560   3.178   1.280   7.008
 2891HO4     OW11561   0.149   0.482   9.465
 2891HO4    HW111562   0.105   0.540   9.533
 2891HO4    HW211563   0.151   0.387   9.497
 2891HO4     MW11564   0.149   0.482   9.465
 2892HO4     OW11565   8.534   3.386   0.936
 2892HO4    HW111566   8.494   3.412   1.024
 2892HO4    HW211567   8.473   3.416   0.862
 2892HO4     MW11568   8.534   3.386   0.936
 2893HO4     OW11569   0.429   0.767   9.641
 2893HO4    HW111570   0.412   0.794   9.546
 2893HO4    HW211571   0.420   0.847   9.701
 2893HO4     MW11572   0.429   0.767   9.641
 2894HO4     OW11573   7.803   2.809  10.134
 2894HO4    HW111574   7.809   2.736  10.065
 2894HO4    HW211575   7.823   2.772  10.225
 2894HO4     MW11576   7.803   2.809  10.134
 2895HO4     OW11577   2.734   3.665   9.291
 2895HO4    HW111578   2.713   3.567   9.302
 2895HO4    HW211579   2.781   3.679   9.203
 2895HO4     MW11580   2.734   3.665   9.291
 2896HO4     OW11581   6.013   0.938   9.909
 2896HO4    HW111582   5.982   0.988   9.990
 2896HO4    HW211583   6.089   0.877   9.934
 2896HO4     MW11584   6.013   0.938   9.909
 2897HO4     OW11585   3.326   4.279   8.147
 2897HO4    HW111586   3.353   4.228   8.229
 2897HO4    HW211587   3.400   4.275   8.079
 2897HO4     MW11588   3.326   4.279   8.147
 2898HO4     OW11589   2.124   8.786   7.944
 2898HO4    HW111590   2.104   8.841   8.026
 2898HO4    HW211591   2.128   8.846   7.864
 2898HO4     MW11592   2.124   8.786   7.944
 2899HO4     OW11593   3.882   2.701   7.845
 2899HO4    HW111594   3.820   2.628   7.816
 2899HO4    HW211595   3.976   2.666   7.850
 2899HO4     MW11596   3.882   2.701   7.845
 2900HO4     OW11597   7.395   0.607   5.393
 2900HO4    HW111598   7.477   0.581   5.342
 2900HO4    HW211599   7.418   0.679   5.459
 2900HO4     MW11600   7.395   0.607   5.393
 2901HO4     OW11601   9.852   4.780   6.600
 2901HO4    HW111602   9.859   4.710   6.672
 2901HO4    HW211603   9.934   4.838   6.602
 2901HO4     MW11604   9.852   4.780   6.600
 2902HO4     OW11605   2.948   2.676   7.701
 2902HO4    HW111606   2.887   2.690   7.779
 2902HO4    HW211607   2.900   2.623   7.630
 2902HO4     MW11608   2.948   2.676   7.701
 2903HO4     OW11609   7.280   7.109   3.640
 2903HO4    HW111610   7.347   7.035   3.636
 2903HO4    HW211611   7.206   7.083   3.703
 2903HO4     MW11612   7.280   7.109   3.640
 2904HO4     OW11613   1.021   3.625   3.418
 2904HO4    HW111614   1.025   3.723   3.397
 2904HO4    HW211615   1.109   3.596   3.457
 2904HO4     MW11616   1.021   3.625   3.418
 2905HO4     OW11617   8.474   1.843   8.993
 2905HO4    HW111618   8.393   1.794   9.026
 2905HO4    HW211619   8.456   1.881   8.902
 2905HO4     MW11620   8.474   1.843   8.993
 2906HO4     OW11621   0.012   9.305   7.291
 2906HO4    HW111622   0.103   9.312   7.249
 2906HO4    HW211623  -0.023   9.396   7.312
 2906HO4     MW11624   0.012   9.305   7.291
 2907HO4     OW11625   1.405   3.499   9.888
 2907HO4    HW111626   1.370   3.518   9.980
 2907HO4    HW211627   1.504   3.517   9.887
 2907HO4     MW11628   1.405   3.499   9.888
 2908HO4     OW11629   3.574   4.659   0.508
 2908HO4    HW111630   3.672   4.639   0.514
 2908HO4    HW211631   3.561   4.747   0.462
 2908HO4     MW11632   3.574   4.659   0.508
 2909HO4     OW11633   9.110   2.571   9.790
 2909HO4    HW111634   9.151   2.545   9.702
 2909HO4    HW211635   9.174   2.548   9.864
 2909HO4     MW11636   9.110   2.571   9.790
 2910HO4     OW11637   2.630   7.216   0.171
 2910HO4    HW111638   2.605   7.255   0.260
 2910HO4    HW211639   2.604   7.280   0.098
 2910HO4     MW11640   2.630   7.216   0.171
 2911HO4     OW11641   8.729   4.979   9.531
 2911HO4    HW111642   8.790   5.021   9.598
 2911HO4    HW211643   8.766   4.890   9.503
 2911HO4     MW11644   8.729   4.979   9.531
 2912HO4     OW11645   0.359   5.294  10.031
 2912HO4    HW111646   0.334   5.198  10.043
 2912HO4    HW211647   0.345   5.344  10.117
 2912HO4     MW11648   0.359   5.294  10.031
 2913HO4     OW11649   3.434   0.311   1.743
 2913HO4    HW111650   3.352   0.346   1.791
 2913HO4    HW211651   3.407   0.278   1.652
 2913HO4     MW11652   3.434   0.311   1.743
 2914HO4     OW11653   1.410   1.887   9.171
 2914HO4    HW111654   1.395   1.945   9.251
 2914HO4    HW211655   1.419   1.945   9.089
 2914HO4     MW11656   1.410   1.887   9.171
 2915HO4     OW11657   9.956   2.911   1.191
 2915HO4    HW111658   9.942   2.969   1.110
 2915HO4    HW211659   9.948   2.967   1.274
 2915HO4     MW11660   9.956   2.911   1.191
 2916HO4     OW11661   7.856   6.886   9.734
 2916HO4    HW111662   7.882   6.970   9.783
 2916HO4    HW211663   7.759   6.866   9.751
 2916HO4     MW11664   7.856   6.886   9.734
 2917HO4     OW11665   9.878   0.353   1.105
 2917HO4    HW111666   9.812   0.312   1.169
 2917HO4    HW211667   9.835   0.366   1.015
 2917HO4     MW11668   9.878   0.353   1.105
 2918HO4     OW11669   8.510   6.710   3.776
 2918HO4    HW111670   8.548   6.706   3.869
 2918HO4    HW211671   8.579   6.676   3.711
 2918HO4     MW11672   8.510   6.710   3.776
 2919HO4     OW11673   4.409   3.617   8.539
 2919HO4    HW111674   4.423   3.622   8.440
 2919HO4    HW211675   4.445   3.699   8.583
 2919HO4     MW11676   4.409   3.617   8.539
 2920HO4     OW11677   0.351   3.337   7.916
 2920HO4    HW111678   0.376   3.283   7.997
 2920HO4    HW211679   0.257   3.370   7.925
 2920HO4     MW11680   0.351   3.337   7.916
 2921HO4     OW11681   9.480   2.074   0.393
 2921HO4    HW111682   9.461   2.033   0.303
 2921HO4    HW211683   9.433   2.021   0.464
 2921HO4     MW11684   9.480   2.074   0.393
 2922HO4     OW11685   0.458   3.238   2.903
 2922HO4    HW111686   0.390   3.183   2.953
 2922HO4    HW211687   0.414   3.319   2.864
 2922HO4     MW11688   0.458   3.238   2.903
 2923HO4     OW11689  10.075   7.314   1.671
 2923HO4    HW111690  10.020   7.391   1.637
 2923HO4    HW211691  10.048   7.292   1.765
 2923HO4     MW11692  10.075   7.314   1.671
 2924HO4     OW11693   1.166   7.856   1.008
 2924HO4    HW111694   1.228   7.820   1.078
 2924HO4    HW211695   1.071   7.842   1.037
 2924HO4     MW11696   1.166   7.856   1.008
 2925HO4     OW11697   5.975   0.335   9.369
 2925HO4    HW111698   5.951   0.399   9.296
 2925HO4    HW211699   5.947   0.374   9.458
 2925HO4     MW11700   5.975   0.335   9.369
 2926HO4     OW11701   6.921   8.340   7.861
 2926HO4    HW111702   6.938   8.272   7.789
 2926HO4    HW211703   6.865   8.299   7.934
 2926HO4     MW11704   6.921   8.340   7.861
 2927HO4     OW11705   6.030   1.179   3.581
 2927HO4    HW111706   6.074   1.218   3.500
 2927HO4    HW211707   6.086   1.199   3.662
 2927HO4     MW11708   6.030   1.179   3.581
 2928HO4     OW11709   2.802   6.246   2.539
 2928HO4    HW111710   2.775   6.235   2.635
 2928HO4    HW211711   2.728   6.292   2.489
 2928HO4     MW11712   2.802   6.246   2.539
 2929HO4     OW11713   3.873   6.827   7.430
 2929HO4    HW111714   3.904   6.762   7.360
 2929HO4    HW211715   3.927   6.815   7.513
 2929HO4     MW11716   3.873   6.827   7.430
 2930HO4     OW11717   9.965   5.938   7.349
 2930HO4    HW111718  10.029   5.869   7.315
 2930HO4    HW211719   9.895   5.894   7.406
 2930HO4     MW11720   9.965   5.938   7.349
 2931HO4     OW11721   6.773   1.600   1.078
 2931HO4    HW111722   6.845   1.531   1.065
 2931HO4    HW211723   6.787   1.675   1.013
 2931HO4     MW11724   6.773   1.600   1.078
 2932HO4     OW11725   3.471   4.473   5.701
 2932HO4    HW111726   3.441   4.380   5.676
 2932HO4    HW211727   3.403   4.515   5.762
 2932HO4     MW11728   3.471   4.473   5.701
 2933HO4     OW11729   1.030   9.845   4.009
 2933HO4    HW111730   1.010   9.789   3.929
 2933HO4    HW211731   0.975   9.813   4.087
 2933HO4     MW11732   1.030   9.845   4.009
 2934HO4     OW11733   4.964   7.390   3.302
 2934HO4    HW111734   4.966   7.336   3.217
 2934HO4    HW211735   4.989   7.331   3.379
 2934HO4     MW11736   4.964   7.390   3.302
 2935HO4     OW11737   8.598   2.691   6.542
 2935HO4    HW111738   8.597   2.779   6.492
 2935HO4    HW211739   8.626   2.618   6.479
 2935HO4     MW11740   8.598   2.691   6.542
 2936HO4     OW11741   0.726   2.186   6.733
 2936HO4    HW111742   0.636   2.215   6.698
 2936HO4    HW211743   0.727   2.194   6.833
 2936HO4     MW11744   0.726   2.186   6.733
 2937HO4     OW11745   1.438   7.552   4.217
 2937HO4    HW111746   1.432   7.615   4.296
 2937HO4    HW211747   1.358   7.565   4.158
 2937HO4     MW11748   1.438   7.552   4.217
 2938HO4     OW11749   8.786   7.363   4.642
 2938HO4    HW111750   8.882   7.392   4.639
 2938HO4    HW211751   8.761   7.340   4.737
 2938HO4     MW11752   8.786   7.363   4.642
 2939HO4     OW11753   2.097   0.144   9.195
 2939HO4    HW111754   2.181   0.137   9.250
 2939HO4    HW211755   2.075   0.241   9.180
 2939HO4     MW11756   2.097   0.144   9.195
 2940HO4     OW11757   0.189   1.622   0.904
 2940HO4    HW111758   0.155   1.656   0.816
 2940HO4    HW211759   0.274   1.572   0.891
 2940HO4     MW11760   0.189   1.622   0.904
 2941HO4     OW11761   7.558   0.518   5.818
 2941HO4    HW111762   7.610   0.566   5.746
 2941HO4    HW211763   7.612   0.517   5.903
 2941HO4     MW11764   7.558   0.518   5.818
 2942HO4     OW11765   9.257   0.665   0.059
 2942HO4    HW111766   9.277   0.637  -0.035
 2942HO4    HW211767   9.255   0.583   0.118
 2942HO4     MW11768   9.257   0.665   0.059
 2943HO4     OW11769   1.714   5.855   0.967
 2943HO4    HW111770   1.781   5.847   1.042
 2943HO4    HW211771   1.762   5.846   0.880
 2943HO4     MW11772   1.714   5.855   0.967
 2944HO4     OW11773   3.560   9.437   6.068
 2944HO4    HW111774   3.502   9.429   5.986
 2944HO4    HW211775   3.509   9.480   6.142
 2944HO4     MW11776   3.560   9.437   6.068
 2945HO4     OW11777   1.559   0.869  10.082
 2945HO4    HW111778   1.646   0.919  10.077
 2945HO4    HW211779   1.543   0.839  10.176
 2945HO4     MW11780   1.559   0.869  10.082
 2946HO4     OW11781  10.027   3.894   8.807
 2946HO4    HW111782  10.024   3.949   8.891
 2946HO4    HW211783  10.066   3.803   8.828
 2946HO4     MW11784  10.027   3.894   8.807
 2947HO4     OW11785   0.526   7.279   8.118
 2947HO4    HW111786   0.588   7.303   8.042
 2947HO4    HW211787   0.512   7.180   8.120
 2947HO4     MW11788   0.526   7.279   8.118
 2948HO4     OW11789   5.409   4.997   8.339
 2948HO4    HW111790   5.318   4.980   8.300
 2948HO4    HW211791   5.437   5.091   8.319
 2948HO4     MW11792   5.409   4.997   8.339
 2949HO4     OW11793   9.451   7.227   2.454
 2949HO4    HW111794   9.524   7.288   2.486
 2949HO4    HW211795   9.396   7.274   2.384
 2949HO4     MW11796   9.451   7.227   2.454
 2950HO4     OW11797   2.238   7.294   2.721
 2950HO4    HW111798   2.234   7.194   2.712
 2950HO4    HW211799   2.147   7.330   2.744
 2950HO4     MW11800   2.238   7.294   2.721
 2951HO4     OW11801   8.798   9.081   8.100
 2951HO4    HW111802   8.892   9.051   8.117
 2951HO4    HW211803   8.777   9.160   8.160
 2951HO4     MW11804   8.798   9.081   8.100
 2952HO4     OW11805   2.991   0.246   7.670
 2952HO4    HW111806   2.974   0.307   7.747
 2952HO4    HW211807   2.984   0.297   7.584
 2952HO4     MW11808   2.991   0.246   7.670
 2953HO4     OW11809   2.988   6.310   5.368
 2953HO4    HW111810   2.943   6.301   5.458
 2953HO4    HW211811   3.030   6.222   5.343
 2953HO4     MW11812   2.988   6.310   5.368
 2954HO4     OW11813   3.003   0.377   1.041
 2954HO4    HW111814   3.079   0.341   0.985
 2954HO4    HW211815   3.028   0.373   1.138
 2954HO4     MW11816   3.003   0.377   1.041
 2955HO4     OW11817   9.286   4.374   3.188
 2955HO4    HW111818   9.224   4.307   3.231
 2955HO4    HW211819   9.241   4.415   3.109
 2955HO4     MW11820   9.286   4.374   3.188
 2956HO4     OW11821   0.929   6.635   3.357
 2956HO4    HW111822   0.849   6.655   3.299
 2956HO4    HW211823   0.914   6.673   3.449
 2956HO4     MW11824   0.929   6.635   3.357
 2957HO4     OW11825   9.245  10.133   7.597
 2957HO4    HW111826   9.216  10.184   7.678
 2957HO4    HW211827   9.255  10.196   7.519
 2957HO4     MW11828   9.245  10.133   7.597
 2958HO4     OW11829   3.822  10.003   7.858
 2958HO4    HW111830   3.792  10.090   7.898
 2958HO4    HW211831   3.909  10.017   7.809
 2958HO4     MW11832   3.822  10.003   7.858
 2959HO4     OW11833   4.835   7.771   0.325
 2959HO4    HW111834   4.935   7.757   0.331
 2959HO4    HW211835   4.793   7.692   0.280
 2959HO4     MW11836   4.835   7.771   0.325
 2960HO4     OW11837   5.622   9.721   3.094
 2960HO4    HW111838   5.574   9.801   3.056
 2960HO4    HW211839   5.710   9.710   3.048
 2960HO4     MW11840   5.622   9.721   3.094
 2961HO4     OW11841   4.697   4.883   9.640
 2961HO4    HW111842   4.759   4.850   9.568
 2961HO4    HW211843   4.733   4.969   9.677
 2961HO4     MW11844   4.697   4.883   9.640
 2962HO4     OW11845   6.163   9.238   1.364
 2962HO4    HW111846   6.241   9.292   1.397
 2962HO4    HW211847   6.136   9.270   1.272
 2962HO4     MW11848   6.163   9.238   1.364
 2963HO4     OW11849   5.200  10.049   2.848
 2963HO4    HW111850   5.120  10.036   2.907
 2963HO4    HW211851   5.174  10.105   2.769
 2963HO4     MW11852   5.200  10.049   2.848
 2964HO4     OW11853   7.751   2.052   1.914
 2964HO4    HW111854   7.776   2.021   1.821
 2964HO4    HW211855   7.732   1.972   1.972
 2964HO4     MW11856   7.751   2.052   1.914
 2965HO4     OW11857   1.752   1.349   8.157
 2965HO4    HW111858   1.803   1.334   8.243
 2965HO4    HW211859   1.793   1.426   8.107
 2965HO4     MW11860   1.752   1.349   8.157
 2966HO4     OW11861   8.165   3.262   3.139
 2966HO4    HW111862   8.142   3.267   3.041
 2966HO4    HW211863   8.157   3.168   3.171
 2966HO4     MW11864   8.165   3.262   3.139
 2967HO4     OW11865   5.620   6.872   8.847
 2967HO4    HW111866   5.628   6.776   8.875
 2967HO4    HW211867   5.582   6.926   8.923
 2967HO4     MW11868   5.620   6.872   8.847
 2968HO4     OW11869   2.217   4.834   2.675
 2968HO4    HW111870   2.280   4.793   2.608
 2968HO4    HW211871   2.204   4.931   2.653
 2968HO4     MW11872   2.217   4.834   2.675
 2969HO4     OW11873   7.740   4.766   9.464
 2969HO4    HW111874   7.721   4.715   9.380
 2969HO4    HW211875   7.692   4.723   9.541
 2969HO4     MW11876   7.740   4.766   9.464
 2970HO4     OW11877   9.184   1.666   3.057
 2970HO4    HW111878   9.193   1.693   2.961
 2970HO4    HW211879   9.121   1.589   3.065
 2970HO4     MW11880   9.184   1.666   3.057
 2971HO4     OW11881   7.221   4.985   6.107
 2971HO4    HW111882   7.221   4.906   6.046
 2971HO4    HW211883   7.314   5.000   6.143
 2971HO4     MW11884   7.221   4.985   6.107
 2972HO4     OW11885   8.110   6.578   6.035
 2972HO4    HW111886   8.152   6.538   5.953
 2972HO4    HW211887   8.153   6.538   6.117
 2972HO4     MW11888   8.110   6.578   6.035
 2973HO4     OW11889   2.947   8.492   6.825
 2973HO4    HW111890   3.039   8.460   6.850
 2973HO4    HW211891   2.952   8.546   6.741
 2973HO4     MW11892   2.947   8.492   6.825
 2974HO4     OW11893   3.947   8.411   2.241
 2974HO4    HW111894   4.008   8.348   2.289
 2974HO4    HW211895   3.856   8.369   2.233
 2974HO4     MW11896   3.947   8.411   2.241
 2975HO4     OW11897   8.557   8.568   8.454
 2975HO4    HW111898   8.480   8.625   8.482
 2975HO4    HW211899   8.625   8.564   8.528
 2975HO4     MW11900   8.557   8.568   8.454
 2976HO4     OW11901   6.827   5.721   4.975
 2976HO4    HW111902   6.919   5.750   5.003
 2976HO4    HW211903   6.799   5.642   5.030
 2976HO4     MW11904   6.827   5.721   4.975
 2977HO4     OW11905   0.143   2.456   7.661
 2977HO4    HW111906   0.165   2.551   7.684
 2977HO4    HW211907   0.064   2.453   7.600
 2977HO4     MW11908   0.143   2.456   7.661
 2978HO4     OW11909   0.392   3.945   5.639
 2978HO4    HW111910   0.412   3.867   5.699
 2978HO4    HW211911   0.443   3.935   5.553
 2978HO4     MW11912   0.392   3.945   5.639
 2979HO4     OW11913   8.686   9.472   6.594
 2979HO4    HW111914   8.746   9.477   6.514
 2979HO4    HW211915   8.720   9.533   6.666
 2979HO4     MW11916   8.686   9.472   6.594
 2980HO4     OW11917   9.472   4.530   6.020
 2980HO4    HW111918   9.572   4.525   6.022
 2980HO4    HW211919   9.438   4.488   5.935
 2980HO4     MW11920   9.472   4.530   6.020
 2981HO4     OW11921   1.893   1.280   7.121
 2981HO4    HW111922   1.880   1.314   7.028
 2981HO4    HW211923   1.852   1.189   7.129
 2981HO4     MW11924   1.893   1.280   7.121
 2982HO4     OW11925   7.721   7.999   8.230
 2982HO4    HW111926   7.716   8.059   8.310
 2982HO4    HW211927   7.708   8.053   8.146
 2982HO4     MW11928   7.721   7.999   8.230
 2983HO4     OW11929   4.447   6.599   0.064
 2983HO4    HW111930   4.480   6.693   0.050
 2983HO4    HW211931   4.459   6.572   0.160
 2983HO4     MW11932   4.447   6.599   0.064
 2984HO4     OW11933   7.858   0.954   0.876
 2984HO4    HW111934   7.877   1.011   0.795
 2984HO4    HW211935   7.874   1.008   0.959
 2984HO4     MW11936   7.858   0.954   0.876
 2985HO4     OW11937   4.981   5.656   2.892
 2985HO4    HW111938   5.014   5.562   2.904
 2985HO4    HW211939   5.052   5.711   2.846
 2985HO4     MW11940   4.981   5.656   2.892
 2986HO4     OW11941   8.591   3.490   9.643
 2986HO4    HW111942   8.633   3.492   9.552
 2986HO4    HW211943   8.515   3.425   9.644
 2986HO4     MW11944   8.591   3.490   9.643
 2987HO4     OW11945   0.371   8.439   2.343
 2987HO4    HW111946   0.311   8.457   2.422
 2987HO4    HW211947   0.324   8.377   2.280
 2987HO4     MW11948   0.371   8.439   2.343
 2988HO4     OW11949   1.397   4.675   8.671
 2988HO4    HW111950   1.404   4.718   8.761
 2988HO4    HW211951   1.386   4.745   8.600
 2988HO4     MW11952   1.397   4.675   8.671
 2989HO4     OW11953   6.420   9.540   5.281
 2989HO4    HW111954   6.404   9.626   5.331
 2989HO4    HW211955   6.464   9.474   5.342
 2989HO4     MW11956   6.420   9.540   5.281
 2990HO4     OW11957   4.472   8.819   5.184
 2990HO4    HW111958   4.534   8.846   5.110
 2990HO4    HW211959   4.520   8.755   5.246
 2990HO4     MW11960   4.472   8.819   5.184
 2991HO4     OW11961   9.777   5.645   8.107
 2991HO4    HW111962   9.797   5.558   8.061
 2991HO4    HW211963   9.733   5.626   8.195
 2991HO4     MW11964   9.777   5.645   8.107
 2992HO4     OW11965   5.863   6.668   5.074
 2992HO4    HW111966   5.833   6.746   5.130
 2992HO4    HW211967   5.833   6.681   4.979
 2992HO4     MW11968   5.863   6.668   5.074
 2993HO4     OW11969   4.856   4.116   0.785
 2993HO4    HW111970   4.811   4.184   0.727
 2993HO4    HW211971   4.844   4.141   0.882
 2993HO4     MW11972   4.856   4.116   0.785
 2994HO4     OW11973   2.776   5.776   7.324
 2994HO4    HW111974   2.795   5.720   7.243
 2994HO4    HW211975   2.691   5.745   7.368
 2994HO4     MW11976   2.776   5.776   7.324
 2995HO4     OW11977   6.306   4.310   3.702
 2995HO4    HW111978   6.354   4.226   3.674
 2995HO4    HW211979   6.207   4.294   3.700
 2995HO4     MW11980   6.306   4.310   3.702
 2996HO4     OW11981   2.249   1.959   7.415
 2996HO4    HW111982   2.318   1.947   7.342
 2996HO4    HW211983   2.287   2.017   7.488
 2996HO4     MW11984   2.249   1.959   7.415
 2997HO4     OW11985   4.377   7.877   0.071
 2997HO4    HW111986   4.392   7.811  -0.004
 2997HO4    HW211987   4.364   7.827   0.157
 2997HO4     MW11988   4.377   7.877   0.071
 2998HO4     OW11989   6.966   2.012   2.452
 2998HO4    HW111990   6.990   1.960   2.535
 2998HO4    HW211991   6.993   1.959   2.371
 2998HO4     MW11992   6.966   2.012   2.452
 2999HO4     OW11993   3.459   0.948   5.634
 2999HO4    HW111994   3.526   0.884   5.595
 2999HO4    HW211995   3.471   0.953   5.733
 2999HO4     MW11996   3.459   0.948   5.634
 3000HO4     OW11997   4.771   7.309   6.101
 3000HO4    HW111998   4.827   7.227   6.085
 3000HO4    HW211999   4.674   7.283   6.102
 3000HO4     MW12000   4.771   7.309   6.101
 3001HO4     OW12001   1.179   1.246   4.645
 3001HO4    HW112002   1.199   1.252   4.547
 3001HO4    HW212003   1.120   1.323   4.672
 3001HO4     MW12004   1.179   1.246   4.645
 3002HO4     OW12005   6.560   2.976   8.160
 3002HO4    HW112006   6.469   3.007   8.189
 3002HO4    HW212007   6.589   3.029   8.080
 3002HO4     MW12008   6.560   2.976   8.160
 3003HO4     OW12009   4.612   6.061   4.087
 3003HO4    HW112010   4.545   6.101   4.150
 3003HO4    HW212011   4.592   6.093   3.994
 3003HO4     MW12012   4.612   6.061   4.087
 3004HO4     OW12013   1.594   2.879   9.332
 3004HO4    HW112014   1.571   2.781   9.330
 3004HO4    HW212015   1.595   2.911   9.427
 3004HO4     MW12016   1.594   2.879   9.332
 3005HO4     OW12017   2.512   3.361  10.068
 3005HO4    HW112018   2.608   3.332  10.068
 3005HO4    HW212019   2.490   3.404  10.157
 3005HO4     MW12020   2.512   3.361  10.068
 3006HO4     OW12021   9.273   2.630   3.106
 3006HO4    HW112022   9.330   2.557   3.067
 3006HO4    HW212023   9.294   2.639   3.204
 3006HO4     MW12024   9.273   2.630   3.106
 3007HO4     OW12025   7.888   4.961   4.375
 3007HO4    HW112026   7.941   5.005   4.302
 3007HO4    HW212027   7.916   4.865   4.385
 3007HO4     MW12028   7.888   4.961   4.375
 3008HO4     OW12029   2.943   7.704   1.925
 3008HO4    HW112030   2.929   7.785   1.867
 3008HO4    HW212031   2.864   7.694   1.986
 3008HO4     MW12032   2.943   7.704   1.925
 3009HO4     OW12033   3.519   3.868   5.350
 3009HO4    HW112034   3.575   3.793   5.386
 3009HO4    HW212035   3.429   3.867   5.395
 3009HO4     MW12036   3.519   3.868   5.350
 3010HO4     OW12037   3.775   2.474   8.654
 3010HO4    HW112038   3.853   2.442   8.709
 3010HO4    HW212039   3.809   2.534   8.581
 3010HO4     MW12040   3.775   2.474   8.654
 3011HO4     OW12041   9.119   5.886   2.231
 3011HO4    HW112042   9.206   5.935   2.240
 3011HO4    HW212043   9.046   5.938   2.276
 3011HO4     MW12044   9.119   5.886   2.231
 3012HO4     OW12045   2.091   3.714   5.674
 3012HO4    HW112046   2.141   3.628   5.656
 3012HO4    HW212047   2.001   3.693   5.712
 3012HO4     MW12048   2.091   3.714   5.674
 3013HO4     OW12049   4.421   3.404   3.871
 3013HO4    HW112050   4.356   3.336   3.837
 3013HO4    HW212051   4.453   3.376   3.963
 3013HO4     MW12052   4.421   3.404   3.871
 3014HO4     OW12053   9.114   8.490   5.483
 3014HO4    HW112054   9.153   8.488   5.575
 3014HO4    HW212055   9.020   8.526   5.487
 3014HO4     MW12056   9.114   8.490   5.483
 3015HO4     OW12057   6.884   6.646   7.527
 3015HO4    HW112058   6.785   6.650   7.510
 3015HO4    HW212059   6.931   6.624   7.441
 3015HO4     MW12060   6.884   6.646   7.527
 3016HO4     OW12061   3.998   2.242   1.092
 3016HO4    HW112062   4.023   2.201   1.180
 3016HO4    HW212063   4.055   2.323   1.076
 3016HO4     MW12064   3.998   2.242   1.092
 3017HO4     OW12065   0.272   6.238   2.976
 3017HO4    HW112066   0.267   6.291   2.891
 3017HO4    HW212067   0.255   6.299   3.054
 3017HO4     MW12068   0.272   6.238   2.976
 3018HO4     OW12069   0.571   6.601   1.641
 3018HO4    HW112070   0.640   6.637   1.705
 3018HO4    HW212071   0.485   6.653   1.651
 3018HO4     MW12072   0.571   6.601   1.641
 3019HO4     OW12073   6.827   9.970   6.585
 3019HO4    HW112074   6.905   9.956   6.646
 3019HO4    HW212075   6.860   9.996   6.493
 3019HO4     MW12076   6.827   9.970   6.585
 3020HO4     OW12077   4.700   1.461   0.171
 3020HO4    HW112078   4.694   1.555   0.137
 3020HO4    HW212079   4.735   1.461   0.265
 3020HO4     MW12080   4.700   1.461   0.171
 3021HO4     OW12081   3.096   0.048   4.148
 3021HO4    HW112082   3.036   0.105   4.091
 3021HO4    HW212083   3.082   0.071   4.245
 3021HO4     MW12084   3.096   0.048   4.148
 3022HO4     OW12085   1.512   9.778   3.966
 3022HO4    HW112086   1.602   9.735   3.959
 3022HO4    HW212087   1.444   9.708   3.995
 3022HO4     MW12088   1.512   9.778   3.966
 3023HO4     OW12089   9.723   0.501   8.994
 3023HO4    HW112090   9.746   0.428   8.929
 3023HO4    HW212091   9.799   0.512   9.059
 3023HO4     MW12092   9.723   0.501   8.994
 3024HO4     OW12093   3.855   2.891   8.354
 3024HO4    HW112094   3.897   2.859   8.439
 3024HO4    HW212095   3.892   2.980   8.329
 3024HO4     MW12096   3.855   2.891   8.354
 3025HO4     OW12097   5.930   0.236   1.270
 3025HO4    HW112098   5.859   0.177   1.230
 3025HO4    HW212099   6.009   0.240   1.208
 3025HO4     MW12100   5.930   0.236   1.270
 3026HO4     OW12101   6.429   7.736   9.090
 3026HO4    HW112102   6.392   7.819   9.048
 3026HO4    HW212103   6.358   7.665   9.091
 3026HO4     MW12104   6.429   7.736   9.090
 3027HO4     OW12105   8.146   3.415   9.789
 3027HO4    HW112106   8.051   3.443   9.778
 3027HO4    HW212107   8.196   3.486   9.839
 3027HO4     MW12108   8.146   3.415   9.789
 3028HO4     OW12109   7.124   0.266   2.252
 3028HO4    HW112110   7.219   0.282   2.279
 3028HO4    HW212111   7.121   0.200   2.176
 3028HO4     MW12112   7.124   0.266   2.252
 3029HO4     OW12113   3.749   2.875   9.316
 3029HO4    HW112114   3.770   2.827   9.401
 3029HO4    HW212115   3.740   2.809   9.241
 3029HO4     MW12116   3.749   2.875   9.316
 3030HO4     OW12117   7.739   3.875   2.689
 3030HO4    HW112118   7.798   3.914   2.761
 3030HO4    HW212119   7.790   3.804   2.639
 3030HO4     MW12120   7.739   3.875   2.689
 3031HO4     OW12121   9.144   1.841   3.782
 3031HO4    HW112122   9.043   1.841   3.788
 3031HO4    HW212123   9.176   1.935   3.770
 3031HO4     MW12124   9.144   1.841   3.782
 3032HO4     OW12125   0.065   7.579   8.791
 3032HO4    HW112126  -0.001   7.654   8.804
 3032HO4    HW212127   0.110   7.588   8.701
 3032HO4     MW12128   0.065   7.579   8.791
 3033HO4     OW12129   6.570   9.353   3.112
 3033HO4    HW112130   6.560   9.258   3.082
 3033HO4    HW212131   6.511   9.412   3.056
 3033HO4     MW12132   6.570   9.353   3.112
 3034HO4     OW12133   4.770   7.830   1.420
 3034HO4    HW112134   4.843   7.844   1.488
 3034HO4    HW212135   4.810   7.830   1.328
 3034HO4     MW12136   4.770   7.830   1.420
 3035HO4     OW12137   5.381   0.304   3.601
 3035HO4    HW112138   5.360   0.216   3.559
 3035HO4    HW212139   5.424   0.288   3.691
 3035HO4     MW12140   5.381   0.304   3.601
 3036HO4     OW12141   4.650   0.944   0.094
 3036HO4    HW112142   4.595   0.891   0.158
 3036HO4    HW212143   4.628   0.917  -0.000
 3036HO4     MW12144   4.650   0.944   0.094
 3037HO4     OW12145   3.323   7.232   8.331
 3037HO4    HW112146   3.372   7.312   8.294
 3037HO4    HW212147   3.260   7.262   8.403
 3037HO4     MW12148   3.323   7.232   8.331
 3038HO4     OW12149   7.613   4.417   6.166
 3038HO4    HW112150   7.701   4.407   6.213
 3038HO4    HW212151   7.548   4.465   6.226
 3038HO4     MW12152   7.613   4.417   6.166
 3039HO4     OW12153   4.098   1.196   0.427
 3039HO4    HW112154   4.121   1.281   0.379
 3039HO4    HW212155   4.108   1.118   0.365
 3039HO4     MW12156   4.098   1.196   0.427
 3040HO4     OW12157   5.089   7.203   6.962
 3040HO4    HW112158   5.058   7.281   7.016
 3040HO4    HW212159   5.134   7.236   6.879
 3040HO4     MW12160   5.089   7.203   6.962
 3041HO4     OW12161   6.112   2.019   5.740
 3041HO4    HW112162   6.105   2.087   5.814
 3041HO4    HW212163   6.052   2.045   5.664
 3041HO4     MW12164   6.112   2.019   5.740
 3042HO4     OW12165   7.564   1.514   2.345
 3042HO4    HW112166   7.555   1.460   2.429
 3042HO4    HW212167   7.575   1.453   2.266
 3042HO4     MW12168   7.564   1.514   2.345
 3043HO4     OW12169   0.650   5.362   6.450
 3043HO4    HW112170   0.577   5.310   6.404
 3043HO4    HW212171   0.718   5.298   6.488
 3043HO4     MW12172   0.650   5.362   6.450
 3044HO4     OW12173   3.927   1.429   6.668
 3044HO4    HW112174   3.947   1.423   6.766
 3044HO4    HW212175   4.002   1.386   6.616
 3044HO4     MW12176   3.927   1.429   6.668
 3045HO4     OW12177   9.625   7.443   9.211
 3045HO4    HW112178   9.648   7.422   9.307
 3045HO4    HW212179   9.706   7.426   9.153
 3045HO4     MW12180   9.625   7.443   9.211
 3046HO4     OW12181   4.865   5.776   1.809
 3046HO4    HW112182   4.888   5.779   1.711
 3046HO4    HW212183   4.826   5.686   1.830
 3046HO4     MW12184   4.865   5.776   1.809
 3047HO4     OW12185   5.732   6.018   7.690
 3047HO4    HW112186   5.796   6.084   7.732
 3047HO4    HW212187   5.703   5.952   7.760
 3047HO4     MW12188   5.732   6.018   7.690
 3048HO4     OW12189   2.175   7.746   3.955
 3048HO4    HW112190   2.206   7.659   3.994
 3048HO4    HW212191   2.130   7.729   3.867
 3048HO4     MW12192   2.175   7.746   3.955
 3049HO4     OW12193   3.437   6.799   6.170
 3049HO4    HW112194   3.411   6.819   6.075
 3049HO4    HW212195   3.366   6.743   6.213
 3049HO4     MW12196   3.437   6.799   6.170
 3050HO4     OW12197   3.920   6.659   0.553
 3050HO4    HW112198   3.957   6.602   0.627
 3050HO4    HW212199   3.995   6.704   0.505
 3050HO4     MW12200   3.920   6.659   0.553
 3051HO4     OW12201   9.293   6.386   5.497
 3051HO4    HW112202   9.288   6.369   5.596
 3051HO4    HW212203   9.355   6.464   5.479
 3051HO4     MW12204   9.293   6.386   5.497
 3052HO4     OW12205   3.460   4.584   6.013
 3052HO4    HW112206   3.552   4.574   5.975
 3052HO4    HW212207   3.452   4.527   6.096
 3052HO4     MW12208   3.460   4.584   6.013
 3053HO4     OW12209   1.171   2.716   6.845
 3053HO4    HW112210   1.216   2.715   6.755
 3053HO4    HW212211   1.229   2.766   6.911
 3053HO4     MW12212   1.171   2.716   6.845
 3054HO4     OW12213   2.792  10.064   1.355
 3054HO4    HW112214   2.794  10.080   1.256
 3054HO4    HW212215   2.772  10.150   1.403
 3054HO4     MW12216   2.792  10.064   1.355
 3055HO4     OW12217   6.406   0.183   1.036
 3055HO4    HW112218   6.503   0.157   1.034
 3055HO4    HW212219   6.354   0.115   1.088
 3055HO4     MW12220   6.406   0.183   1.036
 3056HO4     OW12221   6.675   9.380   1.803
 3056HO4    HW112222   6.712   9.458   1.854
 3056HO4    HW212223   6.743   9.348   1.736
 3056HO4     MW12224   6.675   9.380   1.803
 3057HO4     OW12225   1.362   0.654   9.667
 3057HO4    HW112226   1.314   0.634   9.581
 3057HO4    HW212227   1.317   0.604   9.742
 3057HO4     MW12228   1.362   0.654   9.667
 3058HO4     OW12229   6.728   4.429   9.643
 3058HO4    HW112230   6.803   4.491   9.664
 3058HO4    HW212231   6.693   4.448   9.551
 3058HO4     MW12232   6.728   4.429   9.643
 3059HO4     OW12233   8.822   4.639   5.238
 3059HO4    HW112234   8.755   4.606   5.305
 3059HO4    HW212235   8.798   4.607   5.146
 3059HO4     MW12236   8.822   4.639   5.238
 3060HO4     OW12237   7.936   9.310   2.218
 3060HO4    HW112238   7.853   9.361   2.196
 3060HO4    HW212239   7.990   9.296   2.134
 3060HO4     MW12240   7.936   9.310   2.218
 3061HO4     OW12241   8.287   1.284   7.992
 3061HO4    HW112242   8.203   1.338   7.994
 3061HO4    HW212243   8.265   1.187   8.007
 3061HO4     MW12244   8.287   1.284   7.992
 3062HO4     OW12245   7.974   4.977   4.953
 3062HO4    HW112246   7.919   5.027   5.021
 3062HO4    HW212247   8.012   5.042   4.886
 3062HO4     MW12248   7.974   4.977   4.953
 3063HO4     OW12249   2.949   4.064   1.040
 3063HO4    HW112250   2.861   4.048   0.994
 3063HO4    HW212251   2.969   3.989   1.103
 3063HO4     MW12252   2.949   4.064   1.040
 3064HO4     OW12253   7.696   4.265   6.802
 3064HO4    HW112254   7.785   4.309   6.814
 3064HO4    HW212255   7.623   4.331   6.821
 3064HO4     MW12256   7.696   4.265   6.802
 3065HO4     OW12257   3.477   0.423   4.663
 3065HO4    HW112258   3.495   0.469   4.576
 3065HO4    HW212259   3.548   0.447   4.730
 3065HO4     MW12260   3.477   0.423   4.663
 3066HO4     OW12261   6.638   4.804   3.925
 3066HO4    HW112262   6.548   4.835   3.956
 3066HO4    HW212263   6.662   4.849   3.839
 3066HO4     MW12264   6.638   4.804   3.925
 3067HO4     OW12265   9.556   2.870   1.500
 3067HO4    HW112266   9.577   2.800   1.569
 3067HO4    HW212267   9.641   2.908   1.463
 3067HO4     MW12268   9.556   2.870   1.500
 3068HO4     OW12269   5.165   7.966   4.701
 3068HO4    HW112270   5.206   7.894   4.758
 3068HO4    HW212271   5.119   7.924   4.623
 3068HO4     MW12272   5.165   7.966   4.701
 3069HO4     OW12273   7.789   6.619   9.094
 3069HO4    HW112274   7.817   6.673   9.174
 3069HO4    HW212275   7.867   6.562   9.064
 3069HO4     MW12276   7.789   6.619   9.094
 3070HO4     OW12277   1.342   0.404   0.643
 3070HO4    HW112278   1.242   0.392   0.641
 3070HO4    HW212279   1.369   0.470   0.573
 3070HO4     MW12280   1.342   0.404   0.643
 3071HO4     OW12281   9.003   3.500   3.826
 3071HO4    HW112282   9.054   3.585   3.814
 3071HO4    HW212283   8.957   3.501   3.916
 3071HO4     MW12284   9.003   3.500   3.826
 3072HO4     OW12285   5.049   5.132   3.905
 3072HO4    HW112286   5.104   5.157   3.985
 3072HO4    HW212287   5.108   5.129   3.824
 3072HO4     MW12288   5.049   5.132   3.905
 3073HO4     OW12289   8.735   3.595   1.958
 3073HO4    HW112290   8.825   3.565   1.927
 3073HO4    HW212291   8.741   3.631   2.051
 3073HO4     MW12292   8.735   3.595   1.958
 3074HO4     OW12293   5.497   9.654   3.610
 3074HO4    HW112294   5.422   9.623   3.550
 3074HO4    HW212295   5.468   9.646   3.706
 3074HO4     MW12296   5.497   9.654   3.610
 3075HO4     OW12297   3.071   4.595   4.853
 3075HO4    HW112298   3.118   4.645   4.927
 3075HO4    HW212299   2.973   4.592   4.871
 3075HO4     MW12300   3.071   4.595   4.853
 3076HO4     OW12301   0.841   7.834   8.997
 3076HO4    HW112302   0.841   7.779   9.081
 3076HO4    HW212303   0.825   7.775   8.918
 3076HO4     MW12304   0.841   7.834   8.997
 3077HO4     OW12305   0.559   7.403   2.695
 3077HO4    HW112306   0.588   7.317   2.651
 3077HO4    HW212307   0.634   7.438   2.751
 3077HO4     MW12308   0.559   7.403   2.695
 3078HO4     OW12309  10.116   0.862   5.258
 3078HO4    HW112310  10.089   0.892   5.166
 3078HO4    HW212311  10.057   0.906   5.326
 3078HO4     MW12312  10.116   0.862   5.258
 3079HO4     OW12313   7.249   0.609   0.556
 3079HO4    HW112314   7.219   0.674   0.627
 3079HO4    HW212315   7.199   0.628   0.471
 3079HO4     MW12316   7.249   0.609   0.556
 3080HO4     OW12317   2.234   5.638   2.295
 3080HO4    HW112318   2.216   5.629   2.197
 3080HO4    HW212319   2.147   5.654   2.343
 3080HO4     MW12320   2.234   5.638   2.295
 3081HO4     OW12321   4.699   6.761   5.513
 3081HO4    HW112322   4.673   6.826   5.585
 3081HO4    HW212323   4.662   6.792   5.425
 3081HO4     MW12324   4.699   6.761   5.513
 3082HO4     OW12325   6.507   6.663   0.898
 3082HO4    HW112326   6.504   6.622   0.989
 3082HO4    HW212327   6.536   6.594   0.831
 3082HO4     MW12328   6.507   6.663   0.898
 3083HO4     OW12329   6.785   0.553   6.483
 3083HO4    HW112330   6.795   0.612   6.563
 3083HO4    HW212331   6.750   0.607   6.405
 3083HO4     MW12332   6.785   0.553   6.483
 3084HO4     OW12333   0.981   4.020   6.373
 3084HO4    HW112334   0.887   4.018   6.338
 3084HO4    HW212335   1.034   3.947   6.331
 3084HO4     MW12336   0.981   4.020   6.373
 3085HO4     OW12337   1.810   2.161   3.679
 3085HO4    HW112338   1.803   2.257   3.706
 3085HO4    HW212339   1.744   2.142   3.606
 3085HO4     MW12340   1.810   2.161   3.679
 3086HO4     OW12341   4.848   8.351   8.643
 3086HO4    HW112342   4.864   8.291   8.722
 3086HO4    HW212343   4.787   8.306   8.578
 3086HO4     MW12344   4.848   8.351   8.643
 3087HO4     OW12345   8.214   5.068   9.605
 3087HO4    HW112346   8.236   4.999   9.675
 3087HO4    HW212347   8.298   5.118   9.581
 3087HO4     MW12348   8.214   5.068   9.605
 3088HO4     OW12349   9.389   4.045   4.199
 3088HO4    HW112350   9.321   4.056   4.126
 3088HO4    HW212351   9.369   3.961   4.251
 3088HO4     MW12352   9.389   4.045   4.199
 3089HO4     OW12353   5.907   1.732   9.795
 3089HO4    HW112354   5.941   1.672   9.722
 3089HO4    HW212355   5.867   1.677   9.868
 3089HO4     MW12356   5.907   1.732   9.795
 3090HO4     OW12357   5.559   3.898   5.880
 3090HO4    HW112358   5.502   3.828   5.923
 3090HO4    HW212359   5.603   3.860   5.798
 3090HO4     MW12360   5.559   3.898   5.880
 3091HO4     OW12361   4.410   2.825   6.980
 3091HO4    HW112362   4.372   2.801   6.890
 3091HO4    HW212363   4.341   2.874   7.034
 3091HO4     MW12364   4.410   2.825   6.980
 3092HO4     OW12365   2.682   5.142   7.876
 3092HO4    HW112366   2.623   5.214   7.913
 3092HO4    HW212367   2.768   5.183   7.843
 3092HO4     MW12368   2.682   5.142   7.876
 3093HO4     OW12369   3.066   0.047   8.191
 3093HO4    HW112370   3.063  -0.017   8.268
 3093HO4    HW212371   3.047  -0.002   8.106
 3093HO4     MW12372   3.066   0.047   8.191
 3094HO4     OW12373   0.106   5.317   8.575
 3094HO4    HW112374   0.204   5.314   8.598
 3094HO4    HW212375   0.054   5.345   8.657
 3094HO4     MW12376   0.106   5.317   8.575
 3095HO4     OW12377   1.842   6.476   2.067
 3095HO4    HW112378   1.863   6.546   2.136
 3095HO4    HW212379   1.856   6.516   1.975
 3095HO4     MW12380   1.842   6.476   2.067
 3096HO4     OW12381   7.327  10.137   5.747
 3096HO4    HW112382   7.403  10.127   5.683
 3096HO4    HW212383   7.290  10.231   5.741
 3096HO4     MW12384   7.327  10.137   5.747
 3097HO4     OW12385   0.997   2.899   3.908
 3097HO4    HW112386   0.986   2.960   3.988
 3097HO4    HW212387   0.967   2.807   3.933
 3097HO4     MW12388   0.997   2.899   3.908
 3098HO4     OW12389   6.564   9.981   2.325
 3098HO4    HW112390   6.637   9.913   2.318
 3098HO4    HW212391   6.475   9.938   2.308
 3098HO4     MW12392   6.564   9.981   2.325
 3099HO4     OW12393   4.094   8.641   3.261
 3099HO4    HW112394   4.065   8.730   3.223
 3099HO4    HW212395   4.170   8.656   3.325
 3099HO4     MW12396   4.094   8.641   3.261
 3100HO4     OW12397   8.860   3.327   7.803
 3100HO4    HW112398   8.859   3.394   7.727
 3100HO4    HW212399   8.855   3.376   7.890
 3100HO4     MW12400   8.860   3.327   7.803
 3101HO4     OW12401   6.758   6.835   3.557
 3101HO4    HW112402   6.730   6.876   3.470
 3101HO4    HW212403   6.851   6.866   3.580
 3101HO4     MW12404   6.758   6.835   3.557
 3102HO4     OW12405   1.578   4.240   7.681
 3102HO4    HW112406   1.546   4.325   7.638
 3102HO4    HW212407   1.648   4.197   7.623
 3102HO4     MW12408   1.578   4.240   7.681
 3103HO4     OW12409   2.444   5.343   7.746
 3103HO4    HW112410   2.462   5.291   7.829
 3103HO4    HW212411   2.463   5.285   7.665
 3103HO4     MW12412   2.444   5.343   7.746
 3104HO4     OW12413   1.521   5.449   9.006
 3104HO4    HW112414   1.452   5.384   9.040
 3104HO4    HW212415   1.582   5.476   9.081
 3104HO4     MW12416   1.521   5.449   9.006
 3105HO4     OW12417   9.632   3.425   4.369
 3105HO4    HW112418   9.574   3.387   4.442
 3105HO4    HW212419   9.575   3.447   4.289
 3105HO4     MW12420   9.632   3.425   4.369
 3106HO4     OW12421   4.304   4.069   2.867
 3106HO4    HW112422   4.273   3.979   2.836
 3106HO4    HW212423   4.383   4.098   2.812
 3106HO4     MW12424   4.304   4.069   2.867
 3107HO4     OW12425   0.158   9.260   2.273
 3107HO4    HW112426   0.102   9.202   2.333
 3107HO4    HW212427   0.199   9.334   2.328
 3107HO4     MW12428   0.158   9.260   2.273
 3108HO4     OW12429   0.960   0.523   8.021
 3108HO4    HW112430   0.916   0.488   7.938
 3108HO4    HW212431   0.928   0.471   8.101
 3108HO4     MW12432   0.960   0.523   8.021
 3109HO4     OW12433   3.715   5.949   9.520
 3109HO4    HW112434   3.752   5.913   9.605
 3109HO4    HW212435   3.703   6.048   9.527
 3109HO4     MW12436   3.715   5.949   9.520
 3110HO4     OW12437   8.697   5.945   7.640
 3110HO4    HW112438   8.746   5.955   7.553
 3110HO4    HW212439   8.756   5.975   7.716
 3110HO4     MW12440   8.697   5.945   7.640
 3111HO4     OW12441  10.044   4.383   2.379
 3111HO4    HW112442  10.060   4.426   2.469
 3111HO4    HW212443  10.112   4.417   2.314
 3111HO4     MW12444  10.044   4.383   2.379
 3112HO4     OW12445   3.032   5.362   3.640
 3112HO4    HW112446   3.023   5.289   3.572
 3112HO4    HW212447   3.128   5.391   3.645
 3112HO4     MW12448   3.032   5.362   3.640
 3113HO4     OW12449   3.955   7.107   0.658
 3113HO4    HW112450   3.966   7.205   0.677
 3113HO4    HW212451   4.015   7.081   0.582
 3113HO4     MW12452   3.955   7.107   0.658
 3114HO4     OW12453   0.381   0.448  10.124
 3114HO4    HW112454   0.319   0.508  10.175
 3114HO4    HW212455   0.443   0.504  10.067
 3114HO4     MW12456   0.381   0.448  10.124
 3115HO4     OW12457   6.694   2.761   4.671
 3115HO4    HW112458   6.716   2.781   4.767
 3115HO4    HW212459   6.663   2.846   4.626
 3115HO4     MW12460   6.694   2.761   4.671
 3116HO4     OW12461   8.313   0.769   1.855
 3116HO4    HW112462   8.343   0.863   1.837
 3116HO4    HW212463   8.331   0.713   1.774
 3116HO4     MW12464   8.313   0.769   1.855
 3117HO4     OW12465   9.632   1.994   7.611
 3117HO4    HW112466   9.730   2.015   7.613
 3117HO4    HW212467   9.617   1.898   7.637
 3117HO4     MW12468   9.632   1.994   7.611
 3118HO4     OW12469   3.805   7.831   7.837
 3118HO4    HW112470   3.728   7.827   7.902
 3118HO4    HW212471   3.770   7.852   7.746
 3118HO4     MW12472   3.805   7.831   7.837
 3119HO4     OW12473   5.920   4.954   7.138
 3119HO4    HW112474   5.881   4.985   7.225
 3119HO4    HW212475   6.012   4.993   7.127
 3119HO4     MW12476   5.920   4.954   7.138
 3120HO4     OW12477   7.630   5.613   6.799
 3120HO4    HW112478   7.690   5.590   6.722
 3120HO4    HW212479   7.685   5.622   6.883
 3120HO4     MW12480   7.630   5.613   6.799
 3121HO4     OW12481   3.296   3.655   8.785
 3121HO4    HW112482   3.309   3.720   8.709
 3121HO4    HW212483   3.303   3.561   8.750
 3121HO4     MW12484   3.296   3.655   8.785
 3122HO4     OW12485   1.552   9.601   6.941
 3122HO4    HW112486   1.560   9.659   6.859
 3122HO4    HW212487   1.573   9.657   7.023
 3122HO4     MW12488   1.552   9.601   6.941
 3123HO4     OW12489   7.517   9.756   0.749
 3123HO4    HW112490   7.515   9.792   0.843
 3123HO4    HW212491   7.515   9.656   0.752
 3123HO4     MW12492   7.517   9.756   0.749
 3124HO4     OW12493   4.520   1.355   8.119
 3124HO4    HW112494   4.568   1.442   8.138
 3124HO4    HW212495   4.466   1.328   8.199
 3124HO4     MW12496   4.520   1.355   8.119
 3125HO4     OW12497   5.047   1.198   5.697
 3125HO4    HW112498   5.054   1.112   5.645
 3125HO4    HW212499   5.098   1.270   5.651
 3125HO4     MW12500   5.047   1.198   5.697
 3126HO4     OW12501   0.906   1.269   8.015
 3126HO4    HW112502   0.836   1.217   8.066
 3126HO4    HW212503   0.896   1.251   7.917
 3126HO4     MW12504   0.906   1.269   8.015
 3127HO4     OW12505   1.214   5.408   7.117
 3127HO4    HW112506   1.293   5.445   7.067
 3127HO4    HW212507   1.232   5.413   7.216
 3127HO4     MW12508   1.214   5.408   7.117
 3128HO4     OW12509   4.117   8.861   4.841
 3128HO4    HW112510   4.140   8.826   4.933
 3128HO4    HW212511   4.043   8.805   4.802
 3128HO4     MW12512   4.117   8.861   4.841
 3129HO4     OW12513   1.022   2.560   4.250
 3129HO4    HW112514   1.004   2.462   4.237
 3129HO4    HW212515   1.099   2.571   4.313
 3129HO4     MW12516   1.022   2.560   4.250
 3130HO4     OW12517   4.298   7.462   0.418
 3130HO4    HW112518   4.307   7.382   0.358
 3130HO4    HW212519   4.372   7.527   0.398
 3130HO4     MW12520   4.298   7.462   0.418
 3131HO4     OW12521   8.254   6.616   1.164
 3131HO4    HW112522   8.224   6.615   1.259
 3131HO4    HW212523   8.187   6.567   1.107
 3131HO4     MW12524   8.254   6.616   1.164
 3132HO4     OW12525   3.185   9.986   9.877
 3132HO4    HW112526   3.195   9.928   9.795
 3132HO4    HW212527   3.218   9.935   9.957
 3132HO4     MW12528   3.185   9.986   9.877
 3133HO4     OW12529   5.944   7.312   2.946
 3133HO4    HW112530   6.026   7.353   2.986
 3133HO4    HW212531   5.956   7.213   2.940
 3133HO4     MW12532   5.944   7.312   2.946
 3134HO4     OW12533   1.865   5.788   9.328
 3134HO4    HW112534   1.879   5.850   9.250
 3134HO4    HW212535   1.835   5.841   9.408
 3134HO4     MW12536   1.865   5.788   9.328
 3135HO4     OW12537   5.464   3.314   2.801
 3135HO4    HW112538   5.370   3.349   2.798
 3135HO4    HW212539   5.467   3.223   2.759
 3135HO4     MW12540   5.464   3.314   2.801
 3136HO4     OW12541   2.495   6.716   3.102
 3136HO4    HW112542   2.476   6.792   3.039
 3136HO4    HW212543   2.504   6.631   3.049
 3136HO4     MW12544   2.495   6.716   3.102
 3137HO4     OW12545  10.061  10.073   0.599
 3137HO4    HW112546  10.127  10.018   0.651
 3137HO4    HW212547  10.073  10.170   0.622
 3137HO4     MW12548  10.061  10.073   0.599
 3138HO4     OW12549   4.802   4.037   1.535
 3138HO4    HW112550   4.779   4.130   1.503
 3138HO4    HW212551   4.871   4.044   1.608
 3138HO4     MW12552   4.802   4.037   1.535
 3139HO4     OW12553   6.218   9.487   0.683
 3139HO4    HW112554   6.286   9.485   0.757
 3139HO4    HW212555   6.128   9.463   0.721
 3139HO4     MW12556   6.218   9.487   0.683
 3140HO4     OW12557   5.350  10.073   9.344
 3140HO4    HW112558   5.320  10.147   9.405
 3140HO4    HW212559   5.272  10.041   9.290
 3140HO4     MW12560   5.350  10.073   9.344
 3141HO4     OW12561   3.938   7.215   2.941
 3141HO4    HW112562   3.896   7.181   2.856
 3141HO4    HW212563   4.025   7.260   2.920
 3141HO4     MW12564   3.938   7.215   2.941
 3142HO4     OW12565   4.664   2.258   0.732
 3142HO4    HW112566   4.712   2.272   0.645
 3142HO4    HW212567   4.690   2.169   0.771
 3142HO4     MW12568   4.664   2.258   0.732
 3143HO4     OW12569   6.720   7.176  10.098
 3143HO4    HW112570   6.662   7.099  10.070
 3143HO4    HW212571   6.710   7.191  10.197
 3143HO4     MW12572   6.720   7.176  10.098
 3144HO4     OW12573   4.138   2.677   5.028
 3144HO4    HW112574   4.215   2.684   5.093
 3144HO4    HW212575   4.172   2.652   4.937
 3144HO4     MW12576   4.138   2.677   5.028
 3145HO4     OW12577  10.089   3.624   6.600
 3145HO4    HW112578  10.051   3.703   6.550
 3145HO4    HW212579  10.051   3.621   6.692
 3145HO4     MW12580  10.089   3.624   6.600
 3146HO4     OW12581   6.973   9.098   6.260
 3146HO4    HW112582   7.008   9.111   6.167
 3146HO4    HW212583   6.955   9.000   6.276
 3146HO4     MW12584   6.973   9.098   6.260
 3147HO4     OW12585   7.233   6.775   8.175
 3147HO4    HW112586   7.327   6.805   8.153
 3147HO4    HW212587   7.235   6.719   8.258
 3147HO4     MW12588   7.233   6.775   8.175
 3148HO4     OW12589   7.200   9.732   7.465
 3148HO4    HW112590   7.115   9.765   7.507
 3148HO4    HW212591   7.237   9.802   7.403
 3148HO4     MW12592   7.200   9.732   7.465
 3149HO4     OW12593   0.794   3.465   3.211
 3149HO4    HW112594   0.696   3.470   3.232
 3149HO4    HW212595   0.822   3.546   3.159
 3149HO4     MW12596   0.794   3.465   3.211
 3150HO4     OW12597   7.442   9.290   5.449
 3150HO4    HW112598   7.471   9.233   5.372
 3150HO4    HW212599   7.411   9.231   5.524
 3150HO4     MW12600   7.442   9.290   5.449
 3151HO4     OW12601   3.831   5.164   1.338
 3151HO4    HW112602   3.913   5.120   1.375
 3151HO4    HW212603   3.754   5.099   1.339
 3151HO4     MW12604   3.831   5.164   1.338
 3152HO4     OW12605   0.138   1.437   3.747
 3152HO4    HW112606   0.096   1.444   3.656
 3152HO4    HW212607   0.071   1.462   3.817
 3152HO4     MW12608   0.138   1.437   3.747
 3153HO4     OW12609   9.192   3.741   7.862
 3153HO4    HW112610   9.223   3.653   7.899
 3153HO4    HW212611   9.246   3.815   7.904
 3153HO4     MW12612   9.192   3.741   7.862
 3154HO4     OW12613   3.699   1.210   2.354
 3154HO4    HW112614   3.605   1.226   2.387
 3154HO4    HW212615   3.697   1.142   2.280
 3154HO4     MW12616   3.699   1.210   2.354
 3155HO4     OW12617   4.698   3.969   3.567
 3155HO4    HW112618   4.647   3.922   3.494
 3155HO4    HW212619   4.658   3.945   3.656
 3155HO4     MW12620   4.698   3.969   3.567
 3156HO4     OW12621   6.069   9.409   3.222
 3156HO4    HW112622   5.973   9.432   3.236
 3156HO4    HW212623   6.123   9.442   3.300
 3156HO4     MW12624   6.069   9.409   3.222
 3157HO4     OW12625   9.320   1.496   7.660
 3157HO4    HW112626   9.317   1.429   7.735
 3157HO4    HW212627   9.415   1.507   7.629
 3157HO4     MW12628   9.320   1.496   7.660
 3158HO4     OW12629   8.259   1.122   4.098
 3158HO4    HW112630   8.318   1.144   4.176
 3158HO4    HW212631   8.182   1.066   4.129
 3158HO4     MW12632   8.259   1.122   4.098
 3159HO4     OW12633   2.886   8.791   8.135
 3159HO4    HW112634   2.955   8.807   8.206
 3159HO4    HW212635   2.916   8.836   8.050
 3159HO4     MW12636   2.886   8.791   8.135
 3160HO4     OW12637   8.236   3.364   8.959
 3160HO4    HW112638   8.208   3.280   9.007
 3160HO4    HW212639   8.277   3.341   8.871
 3160HO4     MW12640   8.236   3.364   8.959
 3161HO4     OW12641   3.428   4.306   3.120
 3161HO4    HW112642   3.470   4.277   3.033
 3161HO4    HW212643   3.476   4.387   3.155
 3161HO4     MW12644   3.428   4.306   3.120
 3162HO4     OW12645   3.465   1.861   9.593
 3162HO4    HW112646   3.540   1.845   9.657
 3162HO4    HW212647   3.455   1.960   9.576
 3162HO4     MW12648   3.465   1.861   9.593
 3163HO4     OW12649   8.800   5.617   7.167
 3163HO4    HW112650   8.831   5.712   7.156
 3163HO4    HW212651   8.748   5.609   7.253
 3163HO4     MW12652   8.800   5.617   7.167
 3164HO4     OW12653   7.504   5.732   9.304
 3164HO4    HW112654   7.465   5.650   9.261
 3164HO4    HW212655   7.519   5.714   9.402
 3164HO4     MW12656   7.504   5.732   9.304
 3165HO4     OW12657   4.320   0.812   9.179
 3165HO4    HW112658   4.413   0.843   9.158
 3165HO4    HW212659   4.256   0.849   9.111
 3165HO4     MW12660   4.320   0.812   9.179
 3166HO4     OW12661   4.056   4.834   0.382
 3166HO4    HW112662   3.988   4.772   0.423
 3166HO4    HW212663   4.061   4.817   0.283
 3166HO4     MW12664   4.056   4.834   0.382
 3167HO4     OW12665   6.633   0.408   4.952
 3167HO4    HW112666   6.538   0.381   4.973
 3167HO4    HW212667   6.689   0.399   5.034
 3167HO4     MW12668   6.633   0.408   4.952
 3168HO4     OW12669   2.913   1.920   6.501
 3168HO4    HW112670   2.872   1.892   6.589
 3168HO4    HW212671   2.879   1.859   6.429
 3168HO4     MW12672   2.913   1.920   6.501
 3169HO4     OW12673   6.624   7.989   6.260
 3169HO4    HW112674   6.615   7.890   6.274
 3169HO4    HW212675   6.600   8.038   6.344
 3169HO4     MW12676   6.624   7.989   6.260
 3170HO4     OW12677   1.168   0.464   9.490
 3170HO4    HW112678   1.131   0.520   9.415
 3170HO4    HW212679   1.127   0.492   9.577
 3170HO4     MW12680   1.168   0.464   9.490
 3171HO4     OW12681   9.109   5.861   7.241
 3171HO4    HW112682   9.061   5.885   7.157
 3171HO4    HW212683   9.100   5.936   7.308
 3171HO4     MW12684   9.109   5.861   7.241
 3172HO4     OW12685   5.976   1.055   3.336
 3172HO4    HW112686   6.061   1.032   3.383
 3172HO4    HW212687   5.997   1.091   3.244
 3172HO4     MW12688   5.976   1.055   3.336
 3173HO4     OW12689   0.975   1.835   2.065
 3173HO4    HW112690   0.977   1.911   2.000
 3173HO4    HW212691   1.022   1.755   2.026
 3173HO4     MW12692   0.975   1.835   2.065
 3174HO4     OW12693   1.057   9.155   4.702
 3174HO4    HW112694   1.065   9.162   4.802
 3174HO4    HW212695   1.056   9.248   4.662
 3174HO4     MW12696   1.057   9.155   4.702
 3175HO4     OW12697   0.900   3.991   3.740
 3175HO4    HW112698   0.945   3.902   3.738
 3175HO4    HW212699   0.893   4.028   3.647
 3175HO4     MW12700   0.900   3.991   3.740
 3176HO4     OW12701   2.953   9.331   1.953
 3176HO4    HW112702   2.877   9.369   1.900
 3176HO4    HW212703   2.989   9.400   2.016
 3176HO4     MW12704   2.953   9.331   1.953
 3177HO4     OW12705   5.727   7.511   0.845
 3177HO4    HW112706   5.662   7.508   0.922
 3177HO4    HW212707   5.695   7.451   0.772
 3177HO4     MW12708   5.727   7.511   0.845
 3178HO4     OW12709   3.785   7.184   7.185
 3178HO4    HW112710   3.730   7.239   7.120
 3178HO4    HW212711   3.756   7.205   7.279
 3178HO4     MW12712   3.785   7.184   7.185
 3179HO4     OW12713   1.639   8.372   5.524
 3179HO4    HW112714   1.617   8.429   5.604
 3179HO4    HW212715   1.614   8.422   5.440
 3179HO4     MW12716   1.639   8.372   5.524
 3180HO4     OW12717   1.410   8.625   2.150
 3180HO4    HW112718   1.459   8.711   2.168
 3180HO4    HW212719   1.333   8.644   2.088
 3180HO4     MW12720   1.410   8.625   2.150
 3181HO4     OW12721  10.064   4.483   6.991
 3181HO4    HW112722  10.071   4.560   7.056
 3181HO4    HW212723  10.016   4.514   6.908
 3181HO4     MW12724  10.064   4.483   6.991
 3182HO4     OW12725   4.354   2.558  10.063
 3182HO4    HW112726   4.372   2.643  10.113
 3182HO4    HW212727   4.304   2.578   9.978
 3182HO4     MW12728   4.354   2.558  10.063
 3183HO4     OW12729   0.778   7.015   6.142
 3183HO4    HW112730   0.701   7.055   6.091
 3183HO4    HW212731   0.771   7.040   6.239
 3183HO4     MW12732   0.778   7.015   6.142
 3184HO4     OW12733   4.473   7.182   1.735
 3184HO4    HW112734   4.377   7.165   1.710
 3184HO4    HW212735   4.485   7.279   1.758
 3184HO4     MW12736   4.473   7.182   1.735
 3185HO4     OW12737   8.978   2.698   3.802
 3185HO4    HW112738   8.894   2.752   3.794
 3185HO4    HW212739   9.051   2.739   3.747
 3185HO4     MW12740   8.978   2.698   3.802
 3186HO4     OW12741   4.866   2.980   0.286
 3186HO4    HW112742   4.823   2.943   0.203
 3186HO4    HW212743   4.823   2.939   0.367
 3186HO4     MW12744   4.866   2.980   0.286
 3187HO4     OW12745   1.868   3.088   5.358
 3187HO4    HW112746   1.957   3.069   5.401
 3187HO4    HW212747   1.879   3.161   5.290
 3187HO4     MW12748   1.868   3.088   5.358
 3188HO4     OW12749   8.295   4.923   4.270
 3188HO4    HW112750   8.335   4.972   4.348
 3188HO4    HW212751   8.337   4.956   4.185
 3188HO4     MW12752   8.295   4.923   4.270
 3189HO4     OW12753   5.719  10.133   4.404
 3189HO4    HW112754   5.813  10.158   4.427
 3189HO4    HW212755   5.712  10.033   4.394
 3189HO4     MW12756   5.719  10.133   4.404
 3190HO4     OW12757   7.686   3.289   8.410
 3190HO4    HW112758   7.715   3.382   8.433
 3190HO4    HW212759   7.742   3.254   8.334
 3190HO4     MW12760   7.686   3.289   8.410
 3191HO4     OW12761   8.984   1.074   6.083
 3191HO4    HW112762   8.933   1.041   6.162
 3191HO4    HW212763   8.939   1.043   5.999
 3191HO4     MW12764   8.984   1.074   6.083
 3192HO4     OW12765   8.932   6.220   1.819
 3192HO4    HW112766   8.959   6.176   1.733
 3192HO4    HW212767   8.934   6.153   1.894
 3192HO4     MW12768   8.932   6.220   1.819
 3193HO4     OW12769   5.093   4.844   9.790
 3193HO4    HW112770   5.078   4.758   9.740
 3193HO4    HW212771   5.047   4.919   9.741
 3193HO4     MW12772   5.093   4.844   9.790
 3194HO4     OW12773   9.359   2.311   7.178
 3194HO4    HW112774   9.298   2.321   7.099
 3194HO4    HW212775   9.305   2.318   7.263
 3194HO4     MW12776   9.359   2.311   7.178
 3195HO4     OW12777   2.083   1.441   2.685
 3195HO4    HW112778   2.015   1.460   2.614
 3195HO4    HW212779   2.043   1.458   2.776
 3195HO4     MW12780   2.083   1.441   2.685
 3196HO4     OW12781   2.701   7.023   0.832
 3196HO4    HW112782   2.654   7.088   0.892
 3196HO4    HW212783   2.655   6.934   0.837
 3196HO4     MW12784   2.701   7.023   0.832
 3197HO4     OW12785   7.432   7.801   5.525
 3197HO4    HW112786   7.464   7.871   5.460
 3197HO4    HW212787   7.495   7.723   5.523
 3197HO4     MW12788   7.432   7.801   5.525
 3198HO4     OW12789   5.852   5.193  10.071
 3198HO4    HW112790   5.823   5.261  10.003
 3198HO4    HW212791   5.790   5.196  10.149
 3198HO4     MW12792   5.852   5.193  10.071
 3199HO4     OW12793   6.092   5.886   3.673
 3199HO4    HW112794   6.037   5.938   3.739
 3199HO4    HW212795   6.152   5.949   3.622
 3199HO4     MW12796   6.092   5.886   3.673
 3200HO4     OW12797   6.068   8.271   3.574
 3200HO4    HW112798   6.091   8.230   3.485
 3200HO4    HW212799   6.049   8.198   3.640
 3200HO4     MW12800   6.068   8.271   3.574
 3201HO4     OW12801   9.287   0.157   4.192
 3201HO4    HW112802   9.260   0.206   4.108
 3201HO4    HW212803   9.330   0.221   4.256
 3201HO4     MW12804   9.287   0.157   4.192
 3202HO4     OW12805   5.697   1.552   0.344
 3202HO4    HW112806   5.753   1.579   0.265
 3202HO4    HW212807   5.739   1.588   0.428
 3202HO4     MW12808   5.697   1.552   0.344
 3203HO4     OW12809   7.091   6.870   7.354
 3203HO4    HW112810   7.019   6.931   7.321
 3203HO4    HW212811   7.170   6.924   7.384
 3203HO4     MW12812   7.091   6.870   7.354
 3204HO4     OW12813   1.096   4.956   8.210
 3204HO4    HW112814   1.145   4.928   8.293
 3204HO4    HW212815   1.128   4.902   8.132
 3204HO4     MW12816   1.096   4.956   8.210
 3205HO4     OW12817   6.426   2.348   2.926
 3205HO4    HW112818   6.389   2.294   2.850
 3205HO4    HW212819   6.418   2.446   2.905
 3205HO4     MW12820   6.426   2.348   2.926
 3206HO4     OW12821   5.515   1.913   2.705
 3206HO4    HW112822   5.420   1.933   2.733
 3206HO4    HW212823   5.576   1.926   2.784
 3206HO4     MW12824   5.515   1.913   2.705
 3207HO4     OW12825   8.407   8.665   1.444
 3207HO4    HW112826   8.355   8.596   1.394
 3207HO4    HW212827   8.477   8.705   1.384
 3207HO4     MW12828   8.407   8.665   1.444
 3208HO4     OW12829   7.146   2.166   9.171
 3208HO4    HW112830   7.222   2.134   9.113
 3208HO4    HW212831   7.133   2.264   9.157
 3208HO4     MW12832   7.146   2.166   9.171
 3209HO4     OW12833   8.479   4.354   6.428
 3209HO4    HW112834   8.518   4.365   6.336
 3209HO4    HW212835   8.521   4.421   6.490
 3209HO4     MW12836   8.479   4.354   6.428
 3210HO4     OW12837   8.815   7.284   6.980
 3210HO4    HW112838   8.786   7.310   6.888
 3210HO4    HW212839   8.887   7.346   7.012
 3210HO4     MW12840   8.815   7.284   6.980
 3211HO4     OW12841   0.105   2.218   5.225
 3211HO4    HW112842   0.023   2.183   5.270
 3211HO4    HW212843   0.096   2.208   5.126
 3211HO4     MW12844   0.105   2.218   5.225
 3212HO4     OW12845   6.378   3.982   1.938
 3212HO4    HW112846   6.460   4.039   1.936
 3212HO4    HW212847   6.360   3.945   1.847
 3212HO4     MW12848   6.378   3.982   1.938
 3213HO4     OW12849   9.145   1.104   8.185
 3213HO4    HW112850   9.107   1.045   8.113
 3213HO4    HW212851   9.118   1.068   8.275
 3213HO4     MW12852   9.145   1.104   8.185
 3214HO4     OW12853   4.416   9.680   0.687
 3214HO4    HW112854   4.350   9.724   0.749
 3214HO4    HW212855   4.437   9.741   0.610
 3214HO4     MW12856   4.416   9.680   0.687
 3215HO4     OW12857   8.653   0.746   4.983
 3215HO4    HW112858   8.668   0.813   4.910
 3215HO4    HW212859   8.720   0.761   5.056
 3215HO4     MW12860   8.653   0.746   4.983
 3216HO4     OW12861   6.237   1.152   9.666
 3216HO4    HW112862   6.276   1.240   9.636
 3216HO4    HW212863   6.262   1.135   9.761
 3216HO4     MW12864   6.237   1.152   9.666
 3217HO4     OW12865   5.389   3.025   5.342
 3217HO4    HW112866   5.407   2.973   5.426
 3217HO4    HW212867   5.430   2.978   5.264
 3217HO4     MW12868   5.389   3.025   5.342
 3218HO4     OW12869   0.356  10.094   5.216
 3218HO4    HW112870   0.410  10.092   5.301
 3218HO4    HW212871   0.401  10.037   5.147
 3218HO4     MW12872   0.356  10.094   5.216
 3219HO4     OW12873   9.900   9.289   1.720
 3219HO4    HW112874   9.843   9.262   1.798
 3219HO4    HW212875   9.913   9.389   1.721
 3219HO4     MW12876   9.900   9.289   1.720
 3220HO4     OW12877   0.614   2.720   7.066
 3220HO4    HW112878   0.515   2.715   7.081
 3220HO4    HW212879   0.661   2.724   7.155
 3220HO4     MW12880   0.614   2.720   7.066
 3221HO4     OW12881   0.316  10.038   6.387
 3221HO4    HW112882   0.224  10.017   6.421
 3221HO4    HW212883   0.333   9.987   6.302
 3221HO4     MW12884   0.316  10.038   6.387
 3222HO4     OW12885  10.096   6.044   4.476
 3222HO4    HW112886  10.105   6.091   4.564
 3222HO4    HW212887  10.047   6.104   4.411
 3222HO4     MW12888  10.096   6.044   4.476
 3223HO4     OW12889   8.029   5.025   7.487
 3223HO4    HW112890   8.051   4.982   7.575
 3223HO4    HW212891   8.071   4.974   7.413
 3223HO4     MW12892   8.029   5.025   7.487
 3224HO4     OW12893   0.211   4.355   5.322
 3224HO4    HW112894   0.175   4.391   5.235
 3224HO4    HW212895   0.262   4.428   5.369
 3224HO4     MW12896   0.211   4.355   5.322
 3225HO4     OW12897   3.922   4.553   5.103
 3225HO4    HW112898   3.991   4.609   5.151
 3225HO4    HW212899   3.955   4.533   5.010
 3225HO4     MW12900   3.922   4.553   5.103
 3226HO4     OW12901   1.128   0.697   9.205
 3226HO4    HW112902   1.034   0.702   9.169
 3226HO4    HW212903   1.146   0.604   9.238
 3226HO4     MW12904   1.128   0.697   9.205
 3227HO4     OW12905   1.740   9.626   3.805
 3227HO4    HW112906   1.734   9.609   3.706
 3227HO4    HW212907   1.812   9.567   3.844
 3227HO4     MW12908   1.740   9.626   3.805
 3228HO4     OW12909   3.194   9.410   8.857
 3228HO4    HW112910   3.253   9.348   8.910
 3228HO4    HW212911   3.108   9.364   8.836
 3228HO4     MW12912   3.194   9.410   8.857
 3229HO4     OW12913   7.434   0.018   0.398
 3229HO4    HW112914   7.454   0.107   0.441
 3229HO4    HW212915   7.518  -0.020   0.359
 3229HO4     MW12916   7.434   0.018   0.398
 3230HO4     OW12917   3.923   6.566   6.099
 3230HO4    HW112918   3.882   6.607   6.181
 3230HO4    HW212919   3.865   6.586   6.020
 3230HO4     MW12920   3.923   6.566   6.099
 3231HO4     OW12921   3.223   9.452   1.155
 3231HO4    HW112922   3.151   9.436   1.223
 3231HO4    HW212923   3.188   9.515   1.084
 3231HO4     MW12924   3.223   9.452   1.155
 3232HO4     OW12925   6.833   6.530   5.867
 3232HO4    HW112926   6.919   6.543   5.817
 3232HO4    HW212927   6.835   6.585   5.951
 3232HO4     MW12928   6.833   6.530   5.867
 3233HO4     OW12929   1.846   9.493   5.850
 3233HO4    HW112930   1.895   9.551   5.784
 3233HO4    HW212931   1.765   9.453   5.806
 3233HO4     MW12932   1.846   9.493   5.850
 3234HO4     OW12933   3.708  10.007   0.809
 3234HO4    HW112934   3.717   9.996   0.909
 3234HO4    HW212935   3.756   9.931   0.763
 3234HO4     MW12936   3.708  10.007   0.809
 3235HO4     OW12937   9.561   0.988   9.405
 3235HO4    HW112938   9.627   1.010   9.477
 3235HO4    HW212939   9.609   0.978   9.317
 3235HO4     MW12940   9.561   0.988   9.405
 3236HO4     OW12941   3.728   4.518   0.292
 3236HO4    HW112942   3.765   4.452   0.357
 3236HO4    HW212943   3.788   4.599   0.289
 3236HO4     MW12944   3.728   4.518   0.292
 3237HO4     OW12945   1.416   6.932   4.188
 3237HO4    HW112946   1.415   6.995   4.267
 3237HO4    HW212947   1.511   6.910   4.164
 3237HO4     MW12948   1.416   6.932   4.188
 3238HO4     OW12949   9.884   5.473   6.668
 3238HO4    HW112950   9.813   5.427   6.723
 3238HO4    HW212951   9.845   5.501   6.580
 3238HO4     MW12952   9.884   5.473   6.668
 3239HO4     OW12953   0.945   4.513   0.971
 3239HO4    HW112954   0.938   4.434   0.909
 3239HO4    HW212955   1.008   4.581   0.931
 3239HO4     MW12956   0.945   4.513   0.971
 3240HO4     OW12957   4.706   0.882   2.764
 3240HO4    HW112958   4.690   0.964   2.819
 3240HO4    HW212959   4.628   0.819   2.774
 3240HO4     MW12960   4.706   0.882   2.764
 3241HO4     OW12961   9.990   2.398   9.042
 3241HO4    HW112962   9.896   2.379   9.071
 3241HO4    HW212963  10.047   2.317   9.060
 3241HO4     MW12964   9.990   2.398   9.042
 3242HO4     OW12965   0.041   6.663   3.317
 3242HO4    HW112966   0.112   6.723   3.356
 3242HO4    HW212967   0.057   6.653   3.219
 3242HO4     MW12968   0.041   6.663   3.317
 3243HO4     OW12969   7.957   1.972   4.601
 3243HO4    HW112970   7.894   1.901   4.635
 3243HO4    HW212971   8.045   1.930   4.577
 3243HO4     MW12972   7.957   1.972   4.601
 3244HO4     OW12973   9.053   1.777   6.761
 3244HO4    HW112974   9.095   1.802   6.674
 3244HO4    HW212975   9.121   1.787   6.835
 3244HO4     MW12976   9.053   1.777   6.761
 3245HO4     OW12977   2.452   6.776   6.243
 3245HO4    HW112978   2.485   6.843   6.175
 3245HO4    HW212979   2.378   6.722   6.203
 3245HO4     MW12980   2.452   6.776   6.243
 3246HO4     OW12981   0.982   8.148   4.279
 3246HO4    HW112982   1.043   8.073   4.251
 3246HO4    HW212983   0.890   8.133   4.240
 3246HO4     MW12984   0.982   8.148   4.279
 3247HO4     OW12985   5.950   0.590   2.185
 3247HO4    HW112986   5.945   0.661   2.256
 3247HO4    HW212987   5.874   0.526   2.197
 3247HO4     MW12988   5.950   0.590   2.185
 3248HO4     OW12989   9.115   5.705   3.769
 3248HO4    HW112990   9.065   5.618   3.775
 3248HO4    HW212991   9.102   5.745   3.677
 3248HO4     MW12992   9.115   5.705   3.769
 3249HO4     OW12993   8.652   4.446   6.936
 3249HO4    HW112994   8.726   4.458   6.870
 3249HO4    HW212995   8.647   4.526   6.996
 3249HO4     MW12996   8.652   4.446   6.936
 3250HO4     OW12997   8.679   1.988   3.434
 3250HO4    HW112998   8.663   1.916   3.502
 3250HO4    HW212999   8.747   1.956   3.367
 3250HO4     MW13000   8.679   1.988   3.434
 3251HO4     OW13001   5.419   7.728   3.999
 3251HO4    HW113002   5.480   7.783   3.941
 3251HO4    HW213003   5.323   7.754   3.981
 3251HO4     MW13004   5.419   7.728   3.999
 3252HO4     OW13005   0.828   9.257   9.044
 3252HO4    HW113006   0.916   9.289   9.081
 3252HO4    HW213007   0.841   9.230   8.948
 3252HO4     MW13008   0.828   9.257   9.044
 3253HO4     OW13009   5.964   0.158   7.336
 3253HO4    HW113010   6.003   0.213   7.262
 3253HO4    HW213011   5.998   0.064   7.329
 3253HO4     MW13012   5.964   0.158   7.336
 3254HO4     OW13013   9.688   3.639   9.294
 3254HO4    HW113014   9.624   3.716   9.300
 3254HO4    HW213015   9.748   3.651   9.215
 3254HO4     MW13016   9.688   3.639   9.294
 3255HO4     OW13017   3.915   1.222   3.278
 3255HO4    HW113018   3.902   1.234   3.376
 3255HO4    HW213019   3.832   1.251   3.229
 3255HO4     MW13020   3.915   1.222   3.278
 3256HO4     OW13021   4.953   4.020   0.308
 3256HO4    HW113022   5.009   4.000   0.389
 3256HO4    HW213023   5.007   4.001   0.225
 3256HO4     MW13024   4.953   4.020   0.308
 3257HO4     OW13025   3.699   6.733   5.341
 3257HO4    HW113026   3.611   6.759   5.382
 3257HO4    HW213027   3.707   6.774   5.249
 3257HO4     MW13028   3.699   6.733   5.341
 3258HO4     OW13029   2.145   5.670   2.894
 3258HO4    HW113030   2.169   5.604   2.965
 3258HO4    HW213031   2.220   5.676   2.827
 3258HO4     MW13032   2.145   5.670   2.894
 3259HO4     OW13033   4.020   3.236   7.882
 3259HO4    HW113034   4.113   3.232   7.843
 3259HO4    HW213035   3.972   3.150   7.864
 3259HO4     MW13036   4.020   3.236   7.882
 3260HO4     OW13037   7.737   7.784   5.997
 3260HO4    HW113038   7.792   7.705   6.026
 3260HO4    HW213039   7.671   7.755   5.928
 3260HO4     MW13040   7.737   7.784   5.997
 3261HO4     OW13041   8.054   4.183   3.404
 3261HO4    HW113042   8.085   4.235   3.484
 3261HO4    HW213043   8.073   4.236   3.321
 3261HO4     MW13044   8.054   4.183   3.404
 3262HO4     OW13045   8.395   8.431   9.599
 3262HO4    HW113046   8.445   8.498   9.654
 3262HO4    HW213047   8.420   8.441   9.503
 3262HO4     MW13048   8.395   8.431   9.599
 3263HO4     OW13049   6.575   0.934   5.268
 3263HO4    HW113050   6.589   1.033   5.263
 3263HO4    HW213051   6.581   0.904   5.363
 3263HO4     MW13052   6.575   0.934   5.268
 3264HO4     OW13053   4.322   6.130   6.753
 3264HO4    HW113054   4.318   6.210   6.692
 3264HO4    HW213055   4.368   6.054   6.706
 3264HO4     MW13056   4.322   6.130   6.753
 3265HO4     OW13057   6.357   7.159   3.841
 3265HO4    HW113058   6.428   7.177   3.910
 3265HO4    HW213059   6.400   7.145   3.752
 3265HO4     MW13060   6.357   7.159   3.841
 3266HO4     OW13061   8.337   4.627  10.058
 3266HO4    HW113062   8.344   4.537  10.101
 3266HO4    HW213063   8.285   4.689  10.117
 3266HO4     MW13064   8.337   4.627  10.058
 3267HO4     OW13065   8.768   0.883   0.092
 3267HO4    HW113066   8.738   0.885  -0.004
 3267HO4    HW213067   8.731   0.962   0.140
 3267HO4     MW13068   8.768   0.883   0.092
 3268HO4     OW13069   7.262   7.066   0.570
 3268HO4    HW113070   7.282   7.164   0.586
 3268HO4    HW213071   7.314   7.035   0.490
 3268HO4     MW13072   7.262   7.066   0.570
 3269HO4     OW13073   2.146   2.108   2.969
 3269HO4    HW113074   2.190   2.150   3.049
 3269HO4    HW213075   2.060   2.154   2.950
 3269HO4     MW13076   2.146   2.108   2.969
 3270HO4     OW13077   9.335   6.460   6.653
 3270HO4    HW113078   9.338   6.368   6.612
 3270HO4    HW213079   9.257   6.511   6.615
 3270HO4     MW13080   9.335   6.460   6.653
 3271HO4     OW13081   3.684   6.839   8.954
 3271HO4    HW113082   3.653   6.935   8.952
 3271HO4    HW213083   3.664   6.795   8.866
 3271HO4     MW13084   3.684   6.839   8.954
 3272HO4     OW13085   0.076   3.511   1.290
 3272HO4    HW113086   0.005   3.554   1.347
 3272HO4    HW213087   0.074   3.551   1.198
 3272HO4     MW13088   0.076   3.511   1.290
 3273HO4     OW13089   1.439   0.284   4.430
 3273HO4    HW113090   1.401   0.348   4.362
 3273HO4    HW213091   1.539   0.285   4.425
 3273HO4     MW13092   1.439   0.284   4.430
 3274HO4     OW13093   2.978   9.514   8.128
 3274HO4    HW113094   3.073   9.545   8.119
 3274HO4    HW213095   2.923   9.551   8.052
 3274HO4     MW13096   2.978   9.514   8.128
 3275HO4     OW13097   6.787   6.943   1.953
 3275HO4    HW113098   6.774   6.886   1.871
 3275HO4    HW213099   6.772   6.887   2.035
 3275HO4     MW13100   6.787   6.943   1.953
 3276HO4     OW13101   5.196   9.797   4.770
 3276HO4    HW113102   5.202   9.881   4.715
 3276HO4    HW213103   5.253   9.726   4.727
 3276HO4     MW13104   5.196   9.797   4.770
 3277HO4     OW13105   0.026   6.142   7.423
 3277HO4    HW113106  -0.061   6.107   7.386
 3277HO4    HW213107   0.061   6.078   7.492
 3277HO4     MW13108   0.026   6.142   7.423
 3278HO4     OW13109   3.112   4.045   9.208
 3278HO4    HW113110   3.054   3.984   9.262
 3278HO4    HW213111   3.088   4.036   9.110
 3278HO4     MW13112   3.112   4.045   9.208
 3279HO4     OW13113   3.179   7.280   6.391
 3279HO4    HW113114   3.185   7.207   6.323
 3279HO4    HW213115   3.198   7.368   6.348
 3279HO4     MW13116   3.179   7.280   6.391
 3280HO4     OW13117   3.893   7.447   3.794
 3280HO4    HW113118   3.813   7.409   3.841
 3280HO4    HW213119   3.945   7.504   3.858
 3280HO4     MW13120   3.893   7.447   3.794
 3281HO4     OW13121   1.642   8.850   5.985
 3281HO4    HW113122   1.712   8.870   6.054
 3281HO4    HW213123   1.552   8.844   6.028
 3281HO4     MW13124   1.642   8.850   5.985
 3282HO4     OW13125   6.475   0.057   4.550
 3282HO4    HW113126   6.494   0.155   4.554
 3282HO4    HW213127   6.392   0.041   4.495
 3282HO4     MW13128   6.475   0.057   4.550
 3283HO4     OW13129   5.960   9.313   8.935
 3283HO4    HW113130   6.025   9.248   8.894
 3283HO4    HW213131   5.983   9.327   9.031
 3283HO4     MW13132   5.960   9.313   8.935
 3284HO4     OW13133   7.858   9.707   9.164
 3284HO4    HW113134   7.950   9.748   9.157
 3284HO4    HW213135   7.855   9.623   9.109
 3284HO4     MW13136   7.858   9.707   9.164
 3285HO4     OW13137   9.256   2.302   5.966
 3285HO4    HW113138   9.214   2.335   6.051
 3285HO4    HW213139   9.233   2.364   5.891
 3285HO4     MW13140   9.256   2.302   5.966
 3286HO4     OW13141   2.045   8.099   6.335
 3286HO4    HW113142   2.001   8.109   6.245
 3286HO4    HW213143   2.002   8.163   6.400
 3286HO4     MW13144   2.045   8.099   6.335
 3287HO4     OW13145   2.154   3.284   2.962
 3287HO4    HW113146   2.091   3.360   2.947
 3287HO4    HW213147   2.103   3.198   2.968
 3287HO4     MW13148   2.154   3.284   2.962
 3288HO4     OW13149   1.861   7.009   2.866
 3288HO4    HW113150   1.902   7.092   2.827
 3288HO4    HW213151   1.851   7.020   2.966
 3288HO4     MW13152   1.861   7.009   2.866
 3289HO4     OW13153   1.220   9.281   8.727
 3289HO4    HW113154   1.192   9.307   8.634
 3289HO4    HW213155   1.260   9.361   8.773
 3289HO4     MW13156   1.220   9.281   8.727
 3290HO4     OW13157   1.729   0.494   5.542
 3290HO4    HW113158   1.822   0.492   5.504
 3290HO4    HW213159   1.683   0.407   5.522
 3290HO4     MW13160   1.729   0.494   5.542
 3291HO4     OW13161   2.180   3.391   4.857
 3291HO4    HW113162   2.122   3.379   4.938
 3291HO4    HW213163   2.125   3.380   4.774
 3291HO4     MW13164   2.180   3.391   4.857
 3292HO4     OW13165   1.967   3.593   3.533
 3292HO4    HW113166   1.966   3.632   3.440
 3292HO4    HW213167   1.921   3.656   3.596
 3292HO4     MW13168   1.967   3.593   3.533
 3293HO4     OW13169   2.033   4.284   0.514
 3293HO4    HW113170   1.989   4.272   0.425
 3293HO4    HW213171   1.963   4.288   0.586
 3293HO4     MW13172   2.033   4.284   0.514
 3294HO4     OW13173  10.065   3.652   3.197
 3294HO4    HW113174  10.111   3.740   3.204
 3294HO4    HW213175  10.113   3.584   3.255
 3294HO4     MW13176  10.065   3.652   3.197
 3295HO4     OW13177   6.313   8.711   0.723
 3295HO4    HW113178   6.302   8.627   0.668
 3295HO4    HW213179   6.283   8.693   0.817
 3295HO4     MW13180   6.313   8.711   0.723
 3296HO4     OW13181   3.442   5.783   1.202
 3296HO4    HW113182   3.484   5.773   1.293
 3296HO4    HW213183   3.422   5.692   1.164
 3296HO4     MW13184   3.442   5.783   1.202
 3297HO4     OW13185   2.460   0.921   4.788
 3297HO4    HW113186   2.490   0.910   4.883
 3297HO4    HW213187   2.436   0.831   4.750
 3297HO4     MW13188   2.460   0.921   4.788
 3298HO4     OW13189   4.830   8.658   2.367
 3298HO4    HW113190   4.857   8.618   2.279
 3298HO4    HW213191   4.884   8.616   2.441
 3298HO4     MW13192   4.830   8.658   2.367
 3299HO4     OW13193   7.625   3.327   6.452
 3299HO4    HW113194   7.638   3.272   6.534
 3299HO4    HW213195   7.638   3.270   6.370
 3299HO4     MW13196   7.625   3.327   6.452
 3300HO4     OW13197   4.519   5.737   6.022
 3300HO4    HW113198   4.462   5.716   6.102
 3300HO4    HW213199   4.491   5.680   5.945
 3300HO4     MW13200   4.519   5.737   6.022
 3301HO4     OW13201   5.617   2.554   9.107
 3301HO4    HW113202   5.660   2.630   9.056
 3301HO4    HW213203   5.666   2.540   9.194
 3301HO4     MW13204   5.617   2.554   9.107
 3302HO4     OW13205   3.775   7.995   1.017
 3302HO4    HW113206   3.677   7.976   1.020
 3302HO4    HW213207   3.790   8.094   1.007
 3302HO4     MW13208   3.775   7.995   1.017
 3303HO4     OW13209   4.489   8.798   4.324
 3303HO4    HW113210   4.438   8.740   4.388
 3303HO4    HW213211   4.545   8.864   4.376
 3303HO4     MW13212   4.489   8.798   4.324
 3304HO4     OW13213   8.942   9.026   3.278
 3304HO4    HW113214   8.929   9.037   3.179
 3304HO4    HW213215   8.926   9.114   3.324
 3304HO4     MW13216   8.942   9.026   3.278
 3305HO4     OW13217   4.980   9.907   0.457
 3305HO4    HW113218   5.030   9.912   0.371
 3305HO4    HW213219   5.039   9.937   0.532
 3305HO4     MW13220   4.980   9.907   0.457
 3306HO4     OW13221   7.743   6.425   4.070
 3306HO4    HW113222   7.738   6.479   3.986
 3306HO4    HW213223   7.732   6.485   4.150
 3306HO4     MW13224   7.743   6.425   4.070
 3307HO4     OW13225   4.524   3.736   3.055
 3307HO4    HW113226   4.459   3.782   3.116
 3307HO4    HW213227   4.550   3.799   2.980
 3307HO4     MW13228   4.524   3.736   3.055
 3308HO4     OW13229   3.755   2.577   3.849
 3308HO4    HW113230   3.703   2.524   3.781
 3308HO4    HW213231   3.826   2.630   3.802
 3308HO4     MW13232   3.755   2.577   3.849
 3309HO4     OW13233   9.984   8.634   3.682
 3309HO4    HW113234   9.902   8.685   3.655
 3309HO4    HW213235   9.998   8.557   3.618
 3309HO4     MW13236   9.984   8.634   3.682
 3310HO4     OW13237   7.118   5.892   2.517
 3310HO4    HW113238   7.193   5.952   2.545
 3310HO4    HW213239   7.035   5.947   2.501
 3310HO4     MW13240   7.118   5.892   2.517
 3311HO4     OW13241   9.591   7.309   2.745
 3311HO4    HW113242   9.536   7.364   2.682
 3311HO4    HW213243   9.679   7.356   2.762
 3311HO4     MW13244   9.591   7.309   2.745
 3312HO4     OW13245   2.587   9.093   8.949
 3312HO4    HW113246   2.626   9.137   8.868
 3312HO4    HW213247   2.661   9.053   9.004
 3312HO4     MW13248   2.587   9.093   8.949
 3313HO4     OW13249   3.433   3.637   5.129
 3313HO4    HW113250   3.413   3.667   5.223
 3313HO4    HW213251   3.456   3.539   5.129
 3313HO4     MW13252   3.433   3.637   5.129
 3314HO4     OW13253   9.341   5.754   1.757
 3314HO4    HW113254   9.360   5.754   1.659
 3314HO4    HW213255   9.248   5.718   1.773
 3314HO4     MW13256   9.341   5.754   1.757
 3315HO4     OW13257   6.642   7.280   9.741
 3315HO4    HW113258   6.671   7.243   9.652
 3315HO4    HW213259   6.698   7.239   9.814
 3315HO4     MW13260   6.642   7.280   9.741
 3316HO4     OW13261   5.851   4.192   8.292
 3316HO4    HW113262   5.753   4.207   8.310
 3316HO4    HW213263   5.878   4.102   8.329
 3316HO4     MW13264   5.851   4.192   8.292
 3317HO4     OW13265   5.426   3.160   7.834
 3317HO4    HW113266   5.468   3.205   7.913
 3317HO4    HW213267   5.327   3.179   7.833
 3317HO4     MW13268   5.426   3.160   7.834
 3318HO4     OW13269   6.301   4.190   5.606
 3318HO4    HW113270   6.254   4.125   5.667
 3318HO4    HW213271   6.274   4.173   5.511
 3318HO4     MW13272   6.301   4.190   5.606
 3319HO4     OW13273   7.149   2.692   6.231
 3319HO4    HW113274   7.057   2.668   6.197
 3319HO4    HW213275   7.143   2.778   6.282
 3319HO4     MW13276   7.149   2.692   6.231
 3320HO4     OW13277   6.806   9.369  10.097
 3320HO4    HW113278   6.777   9.452  10.145
 3320HO4    HW213279   6.902   9.348  10.120
 3320HO4     MW13280   6.806   9.369  10.097
 3321HO4     OW13281   4.453   8.275   7.170
 3321HO4    HW113282   4.515   8.197   7.187
 3321HO4    HW213283   4.415   8.307   7.257
 3321HO4     MW13284   4.453   8.275   7.170
 3322HO4     OW13285   4.868   7.815   9.615
 3322HO4    HW113286   4.801   7.741   9.609
 3322HO4    HW213287   4.916   7.809   9.703
 3322HO4     MW13288   4.868   7.815   9.615
 3323HO4     OW13289   4.587   7.663   3.252
 3323HO4    HW113290   4.613   7.715   3.334
 3323HO4    HW213291   4.613   7.715   3.170
 3323HO4     MW13292   4.587   7.663   3.252
 3324HO4     OW13293   5.095   3.347   3.612
 3324HO4    HW113294   5.060   3.426   3.663
 3324HO4    HW213295   5.082   3.363   3.513
 3324HO4     MW13296   5.095   3.347   3.612
 3325HO4     OW13297   6.388   3.315   1.171
 3325HO4    HW113298   6.477   3.295   1.130
 3325HO4    HW213299   6.338   3.230   1.189
 3325HO4     MW13300   6.388   3.315   1.171
 3326HO4     OW13301   8.736   7.836   9.134
 3326HO4    HW113302   8.754   7.902   9.061
 3326HO4    HW213303   8.750   7.879   9.224
 3326HO4     MW13304   8.736   7.836   9.134
 3327HO4     OW13305   8.915   6.996   2.501
 3327HO4    HW113306   9.004   6.964   2.469
 3327HO4    HW213307   8.928   7.051   2.585
 3327HO4     MW13308   8.915   6.996   2.501
 3328HO4     OW13309   6.878   9.447   0.301
 3328HO4    HW113310   6.821   9.434   0.219
 3328HO4    HW213311   6.838   9.396   0.378
 3328HO4     MW13312   6.878   9.447   0.301
 3329HO4     OW13313   1.457   8.087   9.764
 3329HO4    HW113314   1.513   8.005   9.779
 3329HO4    HW213315   1.477   8.126   9.674
 3329HO4     MW13316   1.457   8.087   9.764
 3330HO4     OW13317   0.597   3.364   5.080
 3330HO4    HW113318   0.624   3.325   5.168
 3330HO4    HW213319   0.554   3.453   5.095
 3330HO4     MW13320   0.597   3.364   5.080
 3331HO4     OW13321   9.904   6.625   8.029
 3331HO4    HW113322   9.947   6.627   8.120
 3331HO4    HW213323   9.919   6.535   7.987
 3331HO4     MW13324   9.904   6.625   8.029
 3332HO4     OW13325   2.496   9.030   0.801
 3332HO4    HW113326   2.535   9.097   0.738
 3332HO4    HW213327   2.494   9.069   0.894
 3332HO4     MW13328   2.496   9.030   0.801
 3333HO4     OW13329   0.247   7.461   9.682
 3333HO4    HW113330   0.186   7.455   9.761
 3333HO4    HW213331   0.199   7.505   9.605
 3333HO4     MW13332   0.247   7.461   9.682
 3334HO4     OW13333   7.312   8.555   1.736
 3334HO4    HW113334   7.382   8.620   1.705
 3334HO4    HW213335   7.351   8.493   1.804
 3334HO4     MW13336   7.312   8.555   1.736
 3335HO4     OW13337   1.340   1.424   6.758
 3335HO4    HW113338   1.428   1.383   6.731
 3335HO4    HW213339   1.298   1.469   6.680
 3335HO4     MW13340   1.340   1.424   6.758
 3336HO4     OW13341   3.481   6.388   3.064
 3336HO4    HW113342   3.460   6.475   3.018
 3336HO4    HW213343   3.420   6.377   3.143
 3336HO4     MW13344   3.481   6.388   3.064
 3337HO4     OW13345   2.847   8.467   2.589
 3337HO4    HW113346   2.849   8.520   2.674
 3337HO4    HW213347   2.780   8.392   2.598
 3337HO4     MW13348   2.847   8.467   2.589
 3338HO4     OW13349   2.193   4.044   1.876
 3338HO4    HW113350   2.224   4.129   1.919
 3338HO4    HW213351   2.095   4.050   1.856
 3338HO4     MW13352   2.193   4.044   1.876
 3339HO4     OW13353   1.533   2.769   8.495
 3339HO4    HW113354   1.519   2.868   8.495
 3339HO4    HW213355   1.630   2.749   8.478
 3339HO4     MW13356   1.533   2.769   8.495
 3340HO4     OW13357   4.192   7.955   5.268
 3340HO4    HW113358   4.169   7.914   5.180
 3340HO4    HW213359   4.291   7.947   5.284
 3340HO4     MW13360   4.192   7.955   5.268
 3341HO4     OW13361   7.976   1.052   8.407
 3341HO4    HW113362   8.013   0.969   8.448
 3341HO4    HW213363   7.937   1.031   8.317
 3341HO4     MW13364   7.976   1.052   8.407
 3342HO4     OW13365   1.838   2.878   1.395
 3342HO4    HW113366   1.911   2.823   1.437
 3342HO4    HW213367   1.750   2.852   1.435
 3342HO4     MW13368   1.838   2.878   1.395
 3343HO4     OW13369   1.008   5.983   5.774
 3343HO4    HW113370   0.964   5.991   5.684
 3343HO4    HW213371   0.976   5.898   5.818
 3343HO4     MW13372   1.008   5.983   5.774
 3344HO4     OW13373   3.910   2.689   8.961
 3344HO4    HW113374   3.929   2.700   9.059
 3344HO4    HW213375   3.973   2.747   8.908
 3344HO4     MW13376   3.910   2.689   8.961
 3345HO4     OW13377   0.902   1.991   9.259
 3345HO4    HW113378   0.990   2.020   9.297
 3345HO4    HW213379   0.864   1.917   9.315
 3345HO4     MW13380   0.902   1.991   9.259
 3346HO4     OW13381   3.735   7.731   6.724
 3346HO4    HW113382   3.732   7.632   6.702
 3346HO4    HW213383   3.737   7.783   6.638
 3346HO4     MW13384   3.735   7.731   6.724
 3347HO4     OW13385   7.526   0.502   4.848
 3347HO4    HW113386   7.510   0.403   4.837
 3347HO4    HW213387   7.465   0.553   4.786
 3347HO4     MW13388   7.526   0.502   4.848
 3348HO4     OW13389   4.564   0.932   9.712
 3348HO4    HW113390   4.522   0.896   9.628
 3348HO4    HW213391   4.525   0.885   9.792
 3348HO4     MW13392   4.564   0.932   9.712
 3349HO4     OW13393   4.852   5.323   0.263
 3349HO4    HW113394   4.832   5.422   0.265
 3349HO4    HW213395   4.930   5.306   0.202
 3349HO4     MW13396   4.852   5.323   0.263
 3350HO4     OW13397   7.956   9.157   1.729
 3350HO4    HW113398   7.946   9.249   1.690
 3350HO4    HW213399   7.909   9.153   1.818
 3350HO4     MW13400   7.956   9.157   1.729
 3351HO4     OW13401   1.871   4.160   6.275
 3351HO4    HW113402   1.883   4.171   6.374
 3351HO4    HW213403   1.836   4.068   6.255
 3351HO4     MW13404   1.871   4.160   6.275
 3352HO4     OW13405   6.710   6.952   7.944
 3352HO4    HW113406   6.751   6.913   8.027
 3352HO4    HW213407   6.769   6.932   7.865
 3352HO4     MW13408   6.710   6.952   7.944
 3353HO4     OW13409   1.757   2.600   3.363
 3353HO4    HW113410   1.699   2.539   3.309
 3353HO4    HW213411   1.701   2.649   3.431
 3353HO4     MW13412   1.757   2.600   3.363
 3354HO4     OW13413   9.109   1.801   2.832
 3354HO4    HW113414   9.180   1.848   2.885
 3354HO4    HW213415   9.145   1.779   2.741
 3354HO4     MW13416   9.109   1.801   2.832
 3355HO4     OW13417   2.431   7.433   3.689
 3355HO4    HW113418   2.338   7.471   3.686
 3355HO4    HW213419   2.498   7.507   3.680
 3355HO4     MW13420   2.431   7.433   3.689
 3356HO4     OW13421   5.144   3.807   7.552
 3356HO4    HW113422   5.240   3.809   7.584
 3356HO4    HW213423   5.085   3.770   7.624
 3356HO4     MW13424   5.144   3.807   7.552
 3357HO4     OW13425   2.796   8.102   5.458
 3357HO4    HW113426   2.749   8.013   5.458
 3357HO4    HW213427   2.827   8.124   5.366
 3357HO4     MW13428   2.796   8.102   5.458
 3358HO4     OW13429   8.902   0.562   5.631
 3358HO4    HW113430   8.986   0.596   5.675
 3358HO4    HW213431   8.921   0.539   5.535
 3358HO4     MW13432   8.902   0.562   5.631
 3359HO4     OW13433   3.853   4.725   1.497
 3359HO4    HW113434   3.907   4.660   1.442
 3359HO4    HW213435   3.775   4.677   1.537
 3359HO4     MW13436   3.853   4.725   1.497
 3360HO4     OW13437   2.911   6.733   6.969
 3360HO4    HW113438   2.872   6.646   6.938
 3360HO4    HW213439   2.872   6.757   7.058
 3360HO4     MW13440   2.911   6.733   6.969
 3361HO4     OW13441   5.983   4.195   0.972
 3361HO4    HW113442   6.001   4.279   0.920
 3361HO4    HW213443   6.023   4.204   1.064
 3361HO4     MW13444   5.983   4.195   0.972
 3362HO4     OW13445   0.495   7.222   4.953
 3362HO4    HW113446   0.508   7.280   5.033
 3362HO4    HW213447   0.571   7.235   4.889
 3362HO4     MW13448   0.495   7.222   4.953
 3363HO4     OW13449   0.320   9.959   8.536
 3363HO4    HW113450   0.372   9.904   8.602
 3363HO4    HW213451   0.246   9.904   8.496
 3363HO4     MW13452   0.320   9.959   8.536
 3364HO4     OW13453   7.432   4.587   8.227
 3364HO4    HW113454   7.427   4.671   8.172
 3364HO4    HW213455   7.448   4.610   8.324
 3364HO4     MW13456   7.432   4.587   8.227
 3365HO4     OW13457   0.643   3.590   6.906
 3365HO4    HW113458   0.565   3.598   6.844
 3365HO4    HW213459   0.698   3.510   6.880
 3365HO4     MW13460   0.643   3.590   6.906
 3366HO4     OW13461   3.738   8.897   4.406
 3366HO4    HW113462   3.682   8.964   4.456
 3366HO4    HW213463   3.719   8.805   4.441
 3366HO4     MW13464   3.738   8.897   4.406
 3367HO4     OW13465   8.916   4.929   5.267
 3367HO4    HW113466   8.849   4.858   5.243
 3367HO4    HW213467   8.984   4.891   5.331
 3367HO4     MW13468   8.916   4.929   5.267
 3368HO4     OW13469   2.592   7.675   0.496
 3368HO4    HW113470   2.637   7.739   0.559
 3368HO4    HW213471   2.593   7.583   0.536
 3368HO4     MW13472   2.592   7.675   0.496
 3369HO4     OW13473   7.410   3.364   4.474
 3369HO4    HW113474   7.504   3.327   4.465
 3369HO4    HW213475   7.345   3.288   4.482
 3369HO4     MW13476   7.410   3.364   4.474
 3370HO4     OW13477   3.040   5.434   9.581
 3370HO4    HW113478   3.097   5.454   9.501
 3370HO4    HW213479   3.064   5.497   9.656
 3370HO4     MW13480   3.040   5.434   9.581
 3371HO4     OW13481   4.483   3.679   9.096
 3371HO4    HW113482   4.496   3.746   9.170
 3371HO4    HW213483   4.488   3.725   9.008
 3371HO4     MW13484   4.483   3.679   9.096
 3372HO4     OW13485   2.952   4.680   6.245
 3372HO4    HW113486   2.858   4.704   6.218
 3372HO4    HW213487   2.953   4.584   6.276
 3372HO4     MW13488   2.952   4.680   6.245
 3373HO4     OW13489   6.011   9.629   6.620
 3373HO4    HW113490   6.057   9.658   6.704
 3373HO4    HW213491   6.072   9.645   6.542
 3373HO4     MW13492   6.011   9.629   6.620
 3374HO4     OW13493   7.116   8.966   5.904
 3374HO4    HW113494   7.072   8.947   5.992
 3374HO4    HW213495   7.187   8.896   5.887
 3374HO4     MW13496   7.116   8.966   5.904
 3375HO4     OW13497   2.009   5.466   1.154
 3375HO4    HW113498   2.023   5.565   1.140
 3375HO4    HW213499   1.941   5.433   1.088
 3375HO4     MW13500   2.009   5.466   1.154
 3376HO4     OW13501   1.337   8.378   4.910
 3376HO4    HW113502   1.272   8.326   4.966
 3376HO4    HW213503   1.300   8.469   4.891
 3376HO4     MW13504   1.337   8.378   4.910
 3377HO4     OW13505   5.039   8.574   9.357
 3377HO4    HW113506   5.090   8.497   9.317
 3377HO4    HW213507   4.987   8.541   9.436
 3377HO4     MW13508   5.039   8.574   9.357
 3378HO4     OW13509   7.364   2.818   4.946
 3378HO4    HW113510   7.436   2.805   4.877
 3378HO4    HW213511   7.382   2.903   4.997
 3378HO4     MW13512   7.364   2.818   4.946
 3379HO4     OW13513   2.038   2.333   3.360
 3379HO4    HW113514   2.103   2.319   3.285
 3379HO4    HW213515   2.077   2.298   3.446
 3379HO4     MW13516   2.038   2.333   3.360
 3380HO4     OW13517   5.487   3.898   5.520
 3380HO4    HW113518   5.459   3.988   5.484
 3380HO4    HW213519   5.461   3.891   5.616
 3380HO4     MW13520   5.487   3.898   5.520
 3381HO4     OW13521   2.947   6.998   6.541
 3381HO4    HW113522   2.887   6.969   6.466
 3381HO4    HW213523   2.903   6.980   6.629
 3381HO4     MW13524   2.947   6.998   6.541
 3382HO4     OW13525   0.151   2.993   4.457
 3382HO4    HW113526   0.131   2.935   4.377
 3382HO4    HW213527   0.246   3.026   4.452
 3382HO4     MW13528   0.151   2.993   4.457
 3383HO4     OW13529   8.769   6.278   6.805
 3383HO4    HW113530   8.840   6.257   6.873
 3383HO4    HW213531   8.796   6.358   6.751
 3383HO4     MW13532   8.769   6.278   6.805
 3384HO4     OW13533   8.895   6.806   2.692
 3384HO4    HW113534   8.848   6.771   2.774
 3384HO4    HW213535   8.849   6.770   2.610
 3384HO4     MW13536   8.895   6.806   2.692
 3385HO4     OW13537   5.826   0.582   2.643
 3385HO4    HW113538   5.909   0.622   2.604
 3385HO4    HW213539   5.755   0.576   2.572
 3385HO4     MW13540   5.826   0.582   2.643
 3386HO4     OW13541   3.861   4.264   9.051
 3386HO4    HW113542   3.929   4.333   9.024
 3386HO4    HW213543   3.827   4.218   8.968
 3386HO4     MW13544   3.861   4.264   9.051
 3387HO4     OW13545   2.416   2.415   7.986
 3387HO4    HW113546   2.396   2.388   8.081
 3387HO4    HW213547   2.346   2.376   7.925
 3387HO4     MW13548   2.416   2.415   7.986
 3388HO4     OW13549   7.390   7.593   5.388
 3388HO4    HW113550   7.332   7.591   5.306
 3388HO4    HW213551   7.487   7.589   5.361
 3388HO4     MW13552   7.390   7.593   5.388
 3389HO4     OW13553   2.535   4.241   5.439
 3389HO4    HW113554   2.590   4.265   5.359
 3389HO4    HW213555   2.581   4.271   5.522
 3389HO4     MW13556   2.535   4.241   5.439
 3390HO4     OW13557   0.839   8.506   2.277
 3390HO4    HW113558   0.930   8.465   2.273
 3390HO4    HW213559   0.827   8.555   2.364
 3390HO4     MW13560   0.839   8.506   2.277
 3391HO4     OW13561   0.697   3.208   1.707
 3391HO4    HW113562   0.748   3.201   1.621
 3391HO4    HW213563   0.761   3.207   1.784
 3391HO4     MW13564   0.697   3.208   1.707
 3392HO4     OW13565   6.301   3.225   6.103
 3392HO4    HW113566   6.200   3.227   6.102
 3392HO4    HW213567   6.336   3.319   6.112
 3392HO4     MW13568   6.301   3.225   6.103
 3393HO4     OW13569   7.019   1.857   0.159
 3393HO4    HW113570   7.110   1.887   0.189
 3393HO4    HW213571   7.026   1.816   0.068
 3393HO4     MW13572   7.019   1.857   0.159
 3394HO4     OW13573   1.450   4.801   3.387
 3394HO4    HW113574   1.521   4.741   3.349
 3394HO4    HW213575   1.413   4.761   3.470
 3394HO4     MW13576   1.450   4.801   3.387
 3395HO4     OW13577   4.675   7.962   3.035
 3395HO4    HW113578   4.711   8.026   3.104
 3395HO4    HW213579   4.576   7.973   3.028
 3395HO4     MW13580   4.675   7.962   3.035
 3396HO4     OW13581   4.420   8.240   6.441
 3396HO4    HW113582   4.381   8.156   6.402
 3396HO4    HW213583   4.379   8.257   6.531
 3396HO4     MW13584   4.420   8.240   6.441
 3397HO4     OW13585   0.091   5.339   8.192
 3397HO4    HW113586   0.170   5.363   8.134
 3397HO4    HW213587   0.101   5.381   8.282
 3397HO4     MW13588   0.091   5.339   8.192
 3398HO4     OW13589   1.169   9.299   0.573
 3398HO4    HW113590   1.216   9.337   0.653
 3398HO4    HW213591   1.179   9.199   0.571
 3398HO4     MW13592   1.169   9.299   0.573
 3399HO4     OW13593   9.839   8.716   7.350
 3399HO4    HW113594   9.855   8.809   7.315
 3399HO4    HW213595   9.861   8.649   7.279
 3399HO4     MW13596   9.839   8.716   7.350
 3400HO4     OW13597  10.134   2.964   9.138
 3400HO4    HW113598  10.169   2.955   9.044
 3400HO4    HW213599  10.038   2.937   9.140
 3400HO4     MW13600  10.134   2.964   9.138
 3401HO4     OW13601   1.820   3.519   7.949
 3401HO4    HW113602   1.743   3.478   8.000
 3401HO4    HW213603   1.823   3.618   7.965
 3401HO4     MW13604   1.820   3.519   7.949
 3402HO4     OW13605   7.733   5.759   3.798
 3402HO4    HW113606   7.697   5.817   3.724
 3402HO4    HW213607   7.716   5.803   3.887
 3402HO4     MW13608   7.733   5.759   3.798
 3403HO4     OW13609   2.613   1.179   9.698
 3403HO4    HW113610   2.676   1.176   9.776
 3403HO4    HW213611   2.664   1.201   9.614
 3403HO4     MW13612   2.613   1.179   9.698
 3404HO4     OW13613   5.561   7.290   1.947
 3404HO4    HW113614   5.504   7.207   1.938
 3404HO4    HW213615   5.551   7.328   2.039
 3404HO4     MW13616   5.561   7.290   1.947
 3405HO4     OW13617   3.444   4.869   6.927
 3405HO4    HW113618   3.394   4.919   6.856
 3405HO4    HW213619   3.395   4.877   7.014
 3405HO4     MW13620   3.444   4.869   6.927
 3406HO4     OW13621   5.963   3.839   6.641
 3406HO4    HW113622   6.021   3.759   6.661
 3406HO4    HW213623   6.019   3.922   6.646
 3406HO4     MW13624   5.963   3.839   6.641
 3407HO4     OW13625   6.372   0.334   7.062
 3407HO4    HW113626   6.276   0.327   7.092
 3407HO4    HW213627   6.379   0.304   6.967
 3407HO4     MW13628   6.372   0.334   7.062
 3408HO4     OW13629   7.186   8.016   7.734
 3408HO4    HW113630   7.252   7.990   7.663
 3408HO4    HW213631   7.185   7.945   7.805
 3408HO4     MW13632   7.186   8.016   7.734
 3409HO4     OW13633   7.806   8.427   3.353
 3409HO4    HW113634   7.726   8.434   3.292
 3409HO4    HW213635   7.777   8.384   3.439
 3409HO4     MW13636   7.806   8.427   3.353
 3410HO4     OW13637   3.954   9.516   5.713
 3410HO4    HW113638   4.038   9.463   5.700
 3410HO4    HW213639   3.947   9.545   5.809
 3410HO4     MW13640   3.954   9.516   5.713
 3411HO4     OW13641   7.761   3.860   3.385
 3411HO4    HW113642   7.821   3.786   3.353
 3411HO4    HW213643   7.682   3.821   3.433
 3411HO4     MW13644   7.761   3.860   3.385
 3412HO4     OW13645   0.833   7.859   4.277
 3412HO4    HW113646   0.908   7.907   4.231
 3412HO4    HW213647   0.788   7.922   4.342
 3412HO4     MW13648   0.833   7.859   4.277
 3413HO4     OW13649   4.657  10.120   6.236
 3413HO4    HW113650   4.605  10.151   6.317
 3413HO4    HW213651   4.755  10.137   6.252
 3413HO4     MW13652   4.657  10.120   6.236
 3414HO4     OW13653   0.496   5.076   4.291
 3414HO4    HW113654   0.446   5.085   4.378
 3414HO4    HW213655   0.442   5.119   4.218
 3414HO4     MW13656   0.496   5.076   4.291
 3415HO4     OW13657   8.286   8.286   4.953
 3415HO4    HW113658   8.332   8.360   4.904
 3415HO4    HW213659   8.201   8.320   4.994
 3415HO4     MW13660   8.286   8.286   4.953
 3416HO4     OW13661   1.103   0.570   2.864
 3416HO4    HW113662   1.033   0.534   2.802
 3416HO4    HW213663   1.098   0.520   2.951
 3416HO4     MW13664   1.103   0.570   2.864
 3417HO4     OW13665   0.145   6.452   5.663
 3417HO4    HW113666   0.159   6.440   5.564
 3417HO4    HW213667   0.224   6.414   5.713
 3417HO4     MW13668   0.145   6.452   5.663
 3418HO4     OW13669   7.611   1.155   6.869
 3418HO4    HW113670   7.642   1.119   6.780
 3418HO4    HW213671   7.607   1.081   6.936
 3418HO4     MW13672   7.611   1.155   6.869
 3419HO4     OW13673   1.132   5.032   7.245
 3419HO4    HW113674   1.165   4.997   7.333
 3419HO4    HW213675   1.140   5.132   7.243
 3419HO4     MW13676   1.132   5.032   7.245
 3420HO4     OW13677   1.798   9.388   9.067
 3420HO4    HW113678   1.896   9.402   9.050
 3420HO4    HW213679   1.775   9.419   9.160
 3420HO4     MW13680   1.798   9.388   9.067
 3421HO4     OW13681   0.846   1.281   8.396
 3421HO4    HW113682   0.871   1.221   8.320
 3421HO4    HW213683   0.868   1.235   8.483
 3421HO4     MW13684   0.846   1.281   8.396
 3422HO4     OW13685   8.955   6.754   0.318
 3422HO4    HW113686   8.912   6.800   0.396
 3422HO4    HW213687   8.945   6.654   0.329
 3422HO4     MW13688   8.955   6.754   0.318
 3423HO4     OW13689   5.174   3.234   6.046
 3423HO4    HW113690   5.262   3.260   6.004
 3423HO4    HW213691   5.172   3.135   6.062
 3423HO4     MW13692   5.174   3.234   6.046
 3424HO4     OW13693   8.448   5.383   5.759
 3424HO4    HW113694   8.378   5.455   5.763
 3424HO4    HW213695   8.494   5.386   5.670
 3424HO4     MW13696   8.448   5.383   5.759
 3425HO4     OW13697   9.976   1.632   0.898
 3425HO4    HW113698  10.010   1.704   0.959
 3425HO4    HW213699   9.975   1.666   0.804
 3425HO4     MW13700   9.976   1.632   0.898
 3426HO4     OW13701   2.986   1.074   3.867
 3426HO4    HW113702   2.908   1.086   3.805
 3426HO4    HW213703   3.051   1.150   3.855
 3426HO4     MW13704   2.986   1.074   3.867
 3427HO4     OW13705   6.571   1.650   6.161
 3427HO4    HW113706   6.635   1.580   6.128
 3427HO4    HW213707   6.481   1.634   6.119
 3427HO4     MW13708   6.571   1.650   6.161
 3428HO4     OW13709   1.245   8.347   6.929
 3428HO4    HW113710   1.233   8.383   6.836
 3428HO4    HW213711   1.275   8.251   6.925
 3428HO4     MW13712   1.245   8.347   6.929
 3429HO4     OW13713   1.564   1.922   7.535
 3429HO4    HW113714   1.545   1.941   7.438
 3429HO4    HW213715   1.598   1.828   7.544
 3429HO4     MW13716   1.564   1.922   7.535
 3430HO4     OW13717   8.467   0.504   5.656
 3430HO4    HW113718   8.438   0.560   5.734
 3430HO4    HW213719   8.483   0.410   5.687
 3430HO4     MW13720   8.467   0.504   5.656
 3431HO4     OW13721   1.167   6.492   0.050
 3431HO4    HW113722   1.223   6.468   0.130
 3431HO4    HW213723   1.073   6.511   0.079
 3431HO4     MW13724   1.167   6.492   0.050
 3432HO4     OW13725   3.245   2.661   3.860
 3432HO4    HW113726   3.329   2.666   3.915
 3432HO4    HW213727   3.192   2.745   3.873
 3432HO4     MW13728   3.245   2.661   3.860
 3433HO4     OW13729   5.304   0.583   3.311
 3433HO4    HW113730   5.281   0.524   3.233
 3433HO4    HW213731   5.370   0.536   3.370
 3433HO4     MW13732   5.304   0.583   3.311
 3434HO4     OW13733   7.932   3.424   5.828
 3434HO4    HW113734   7.859   3.420   5.759
 3434HO4    HW213735   7.899   3.381   5.913
 3434HO4     MW13736   7.932   3.424   5.828
 3435HO4     OW13737   2.536   0.366   8.297
 3435HO4    HW113738   2.500   0.459   8.307
 3435HO4    HW213739   2.464   0.306   8.260
 3435HO4     MW13740   2.536   0.366   8.297
 3436HO4     OW13741   1.967   2.439   6.564
 3436HO4    HW113742   1.953   2.446   6.664
 3436HO4    HW213743   1.917   2.512   6.518
 3436HO4     MW13744   1.967   2.439   6.564
 3437HO4     OW13745   1.209   2.323   9.570
 3437HO4    HW113746   1.226   2.226   9.588
 3437HO4    HW213747   1.205   2.339   9.471
 3437HO4     MW13748   1.209   2.323   9.570
 3438HO4     OW13749   1.696   1.501   7.821
 3438HO4    HW113750   1.699   1.450   7.907
 3438HO4    HW213751   1.612   1.478   7.771
 3438HO4     MW13752   1.696   1.501   7.821
 3439HO4     OW13753   9.193   5.077   1.210
 3439HO4    HW113754   9.196   5.174   1.186
 3439HO4    HW213755   9.111   5.035   1.170
 3439HO4     MW13756   9.193   5.077   1.210
 3440HO4     OW13757   7.434   2.911   3.303
 3440HO4    HW113758   7.462   2.875   3.214
 3440HO4    HW213759   7.440   2.839   3.372
 3440HO4     MW13760   7.434   2.911   3.303
 3441HO4     OW13761   3.469   5.117   1.588
 3441HO4    HW113762   3.514   5.135   1.500
 3441HO4    HW213763   3.442   5.204   1.630
 3441HO4     MW13764   3.469   5.117   1.588
 3442HO4     OW13765   6.481   0.072   1.917
 3442HO4    HW113766   6.457  -0.026   1.914
 3442HO4    HW213767   6.555   0.090   1.853
 3442HO4     MW13768   6.481   0.072   1.917
 3443HO4     OW13769   7.990   5.564   9.502
 3443HO4    HW113770   8.021   5.555   9.406
 3443HO4    HW213771   8.058   5.616   9.554
 3443HO4     MW13772   7.990   5.564   9.502
 3444HO4     OW13773   0.501   5.204   3.289
 3444HO4    HW113774   0.492   5.145   3.208
 3444HO4    HW213775   0.472   5.155   3.371
 3444HO4     MW13776   0.501   5.204   3.289
 3445HO4     OW13777   8.743   9.402   1.746
 3445HO4    HW113778   8.778   9.390   1.839
 3445HO4    HW213779   8.813   9.372   1.680
 3445HO4     MW13780   8.743   9.402   1.746
 3446HO4     OW13781   2.629   9.557   5.572
 3446HO4    HW113782   2.588   9.515   5.653
 3446HO4    HW213783   2.634   9.490   5.497
 3446HO4     MW13784   2.629   9.557   5.572
 3447HO4     OW13785  -0.018   4.049   6.325
 3447HO4    HW113786   0.037   4.031   6.243
 3447HO4    HW213787   0.037   4.031   6.407
 3447HO4     MW13788  -0.018   4.049   6.325
 3448HO4     OW13789   6.886   1.798   5.044
 3448HO4    HW113790   6.897   1.716   5.101
 3448HO4    HW213791   6.966   1.858   5.058
 3448HO4     MW13792   6.886   1.798   5.044
 3449HO4     OW13793   1.519   0.725   8.268
 3449HO4    HW113794   1.482   0.744   8.176
 3449HO4    HW213795   1.444   0.721   8.334
 3449HO4     MW13796   1.519   0.725   8.268
 3450HO4     OW13797   6.726   8.125   5.025
 3450HO4    HW113798   6.651   8.139   5.091
 3450HO4    HW213799   6.772   8.038   5.044
 3450HO4     MW13800   6.726   8.125   5.025
 3451HO4     OW13801   9.401   0.710   1.597
 3451HO4    HW113802   9.334   0.748   1.532
 3451HO4    HW213803   9.462   0.645   1.548
 3451HO4     MW13804   9.401   0.710   1.597
 3452HO4     OW13805   0.740  10.176   4.219
 3452HO4    HW113806   0.758  10.210   4.312
 3452HO4    HW213807   0.795  10.093   4.203
 3452HO4     MW13808   0.740  10.176   4.219
 3453HO4     OW13809   7.531   2.278   7.899
 3453HO4    HW113810   7.548   2.220   7.979
 3453HO4    HW213811   7.546   2.224   7.815
 3453HO4     MW13812   7.531   2.278   7.899
 3454HO4     OW13813   7.532   0.213   2.223
 3454HO4    HW113814   7.512   0.310   2.209
 3454HO4    HW213815   7.619   0.203   2.274
 3454HO4     MW13816   7.532   0.213   2.223
 3455HO4     OW13817   8.915   2.451   9.235
 3455HO4    HW113818   8.910   2.351   9.242
 3455HO4    HW213819   9.007   2.481   9.264
 3455HO4     MW13820   8.915   2.451   9.235
 3456HO4     OW13821   1.590   0.358   7.798
 3456HO4    HW113822   1.650   0.408   7.735
 3456HO4    HW213823   1.604   0.391   7.891
 3456HO4     MW13824   1.590   0.358   7.798
 3457HO4     OW13825   0.572   1.258   5.760
 3457HO4    HW113826   0.580   1.335   5.697
 3457HO4    HW213827   0.652   1.198   5.750
 3457HO4     MW13828   0.572   1.258   5.760
 3458HO4     OW13829   3.720   3.631   5.932
 3458HO4    HW113830   3.749   3.609   5.838
 3458HO4    HW213831   3.634   3.683   5.929
 3458HO4     MW13832   3.720   3.631   5.932
 3459HO4     OW13833   2.523   3.298   4.525
 3459HO4    HW113834   2.545   3.207   4.489
 3459HO4    HW213835   2.554   3.304   4.620
 3459HO4     MW13836   2.523   3.298   4.525
 3460HO4     OW13837   4.120   9.645   1.507
 3460HO4    HW113838   4.201   9.586   1.501
 3460HO4    HW213839   4.101   9.666   1.603
 3460HO4     MW13840   4.120   9.645   1.507
 3461HO4     OW13841   0.495   5.197   2.854
 3461HO4    HW113842   0.438   5.211   2.935
 3461HO4    HW213843   0.560   5.122   2.871
 3461HO4     MW13844   0.495   5.197   2.854
 3462HO4     OW13845   7.980   4.027   2.786
 3462HO4    HW113846   8.027   4.061   2.868
 3462HO4    HW213847   8.047   4.014   2.712
 3462HO4     MW13848   7.980   4.027   2.786
 3463HO4     OW13849   1.476   4.975   0.750
 3463HO4    HW113850   1.485   4.954   0.847
 3463HO4    HW213851   1.517   4.901   0.695
 3463HO4     MW13852   1.476   4.975   0.750
 3464HO4     OW13853   8.670   9.868   0.899
 3464HO4    HW113854   8.594   9.933   0.904
 3464HO4    HW213855   8.636   9.779   0.866
 3464HO4     MW13856   8.670   9.868   0.899
 3465HO4     OW13857   1.429   2.353  10.110
 3465HO4    HW113858   1.329   2.354  10.118
 3465HO4    HW213859   1.468   2.424  10.169
 3465HO4     MW13860   1.429   2.353  10.110
 3466HO4     OW13861   9.998   8.544   5.880
 3466HO4    HW113862  10.065   8.482   5.923
 3466HO4    HW213863  10.014   8.545   5.780
 3466HO4     MW13864   9.998   8.544   5.880
 3467HO4     OW13865   8.126   9.321   2.950
 3467HO4    HW113866   8.223   9.328   2.927
 3467HO4    HW213867   8.071   9.318   2.866
 3467HO4     MW13868   8.126   9.321   2.950
 3468HO4     OW13869   4.432   4.336   1.843
 3468HO4    HW113870   4.442   4.241   1.872
 3468HO4    HW213871   4.518   4.385   1.861
 3468HO4     MW13872   4.432   4.336   1.843
 3469HO4     OW13873   1.197   8.458   8.654
 3469HO4    HW113874   1.276   8.444   8.715
 3469HO4    HW213875   1.201   8.391   8.579
 3469HO4     MW13876   1.197   8.458   8.654
 3470HO4     OW13877   2.832   5.778   6.315
 3470HO4    HW113878   2.890   5.813   6.389
 3470HO4    HW213879   2.836   5.841   6.237
 3470HO4     MW13880   2.832   5.778   6.315
 3471HO4     OW13881   8.111   8.944   2.994
 3471HO4    HW113882   8.073   8.852   3.010
 3471HO4    HW213883   8.149   8.979   3.080
 3471HO4     MW13884   8.111   8.944   2.994
 3472HO4     OW13885   7.928   8.928   6.044
 3472HO4    HW113886   7.880   9.014   6.027
 3472HO4    HW213887   7.959   8.924   6.140
 3472HO4     MW13888   7.928   8.928   6.044
 3473HO4     OW13889   9.279   2.540   7.846
 3473HO4    HW113890   9.183   2.562   7.827
 3473HO4    HW213891   9.337   2.619   7.822
 3473HO4     MW13892   9.279   2.540   7.846
 3474HO4     OW13893   1.864   4.658   3.823
 3474HO4    HW113894   1.819   4.748   3.820
 3474HO4    HW213895   1.932   4.652   3.749
 3474HO4     MW13896   1.864   4.658   3.823
 3475HO4     OW13897   6.692   6.758   6.396
 3475HO4    HW113898   6.755   6.722   6.327
 3475HO4    HW213899   6.741   6.821   6.457
 3475HO4     MW13900   6.692   6.758   6.396
 3476HO4     OW13901   7.963   8.120   3.111
 3476HO4    HW113902   7.876   8.073   3.130
 3476HO4    HW213903   7.980   8.118   3.012
 3476HO4     MW13904   7.963   8.120   3.111
 3477HO4     OW13905   1.218   1.932   6.740
 3477HO4    HW113906   1.222   1.832   6.756
 3477HO4    HW213907   1.212   1.950   6.642
 3477HO4     MW13908   1.218   1.932   6.740
 3478HO4     OW13909   8.068  10.155   1.487
 3478HO4    HW113910   8.019  10.097   1.421
 3478HO4    HW213911   8.167  10.142   1.476
 3478HO4     MW13912   8.068  10.155   1.487
 3479HO4     OW13913   9.556   1.406   2.423
 3479HO4    HW113914   9.554   1.502   2.392
 3479HO4    HW213915   9.598   1.401   2.514
 3479HO4     MW13916   9.556   1.406   2.423
 3480HO4     OW13917   7.037   9.329   1.342
 3480HO4    HW113918   7.073   9.399   1.280
 3480HO4    HW213919   7.109   9.263   1.363
 3480HO4     MW13920   7.037   9.329   1.342
 3481HO4     OW13921   2.142   5.003   1.566
 3481HO4    HW113922   2.121   4.907   1.542
 3481HO4    HW213923   2.220   5.004   1.630
 3481HO4     MW13924   2.142   5.003   1.566
 3482HO4     OW13925   2.423   8.305   1.390
 3482HO4    HW113926   2.431   8.221   1.335
 3482HO4    HW213927   2.437   8.385   1.331
 3482HO4     MW13928   2.423   8.305   1.390
 3483HO4     OW13929   9.277   5.253   5.696
 3483HO4    HW113930   9.226   5.205   5.623
 3483HO4    HW213931   9.299   5.346   5.666
 3483HO4     MW13932   9.277   5.253   5.696
 3484HO4     OW13933   5.146   5.475   6.689
 3484HO4    HW113934   5.210   5.422   6.746
 3484HO4    HW213935   5.120   5.420   6.609
 3484HO4     MW13936   5.146   5.475   6.689
 3485HO4     OW13937   4.900   2.573   9.216
 3485HO4    HW113938   4.960   2.585   9.137
 3485HO4    HW213939   4.953   2.587   9.301
 3485HO4     MW13940   4.900   2.573   9.216
 3486HO4     OW13941   7.058   5.980   6.993
 3486HO4    HW113942   7.049   5.996   6.895
 3486HO4    HW213943   7.154   5.994   7.021
 3486HO4     MW13944   7.058   5.980   6.993
 3487HO4     OW13945   7.455   0.149   8.449
 3487HO4    HW113946   7.515   0.127   8.372
 3487HO4    HW213947   7.502   0.129   8.536
 3487HO4     MW13948   7.455   0.149   8.449
 3488HO4     OW13949   7.662   2.344   9.357
 3488HO4    HW113950   7.721   2.392   9.291
 3488HO4    HW213951   7.718   2.285   9.416
 3488HO4     MW13952   7.662   2.344   9.357
 3489HO4     OW13953   0.550   4.136   9.104
 3489HO4    HW113954   0.557   4.193   9.186
 3489HO4    HW213955   0.558   4.193   9.022
 3489HO4     MW13956   0.550   4.136   9.104
 3490HO4     OW13957   5.601   8.594   4.309
 3490HO4    HW113958   5.547   8.584   4.394
 3490HO4    HW213959   5.601   8.508   4.259
 3490HO4     MW13960   5.601   8.594   4.309
 3491HO4     OW13961   6.405   7.256   7.958
 3491HO4    HW113962   6.321   7.214   7.993
 3491HO4    HW213963   6.456   7.297   8.034
 3491HO4     MW13964   6.405   7.256   7.958
 3492HO4     OW13965   4.295   9.526   6.361
 3492HO4    HW113966   4.325   9.579   6.441
 3492HO4    HW213967   4.312   9.579   6.278
 3492HO4     MW13968   4.295   9.526   6.361
 3493HO4     OW13969   2.532   6.209   8.033
 3493HO4    HW113970   2.446   6.161   8.016
 3493HO4    HW213971   2.608   6.156   7.994
 3493HO4     MW13972   2.532   6.209   8.033
 3494HO4     OW13973   9.896   7.380   7.978
 3494HO4    HW113974   9.818   7.317   7.992
 3494HO4    HW213975   9.941   7.398   8.065
 3494HO4     MW13976   9.896   7.380   7.978
 3495HO4     OW13977   6.415   9.033   7.697
 3495HO4    HW113978   6.499   9.065   7.741
 3495HO4    HW213979   6.404   8.934   7.715
 3495HO4     MW13980   6.415   9.033   7.697
 3496HO4     OW13981   9.831   2.865   7.691
 3496HO4    HW113982   9.878   2.841   7.777
 3496HO4    HW213983   9.799   2.781   7.646
 3496HO4     MW13984   9.831   2.865   7.691
 3497HO4     OW13985   3.218   7.091   6.145
 3497HO4    HW113986   3.272   7.097   6.060
 3497HO4    HW213987   3.268   7.136   6.219
 3497HO4     MW13988   3.218   7.091   6.145
 3498HO4     OW13989   4.695   1.004   2.075
 3498HO4    HW113990   4.677   0.911   2.109
 3498HO4    HW213991   4.714   1.000   1.977
 3498HO4     MW13992   4.695   1.004   2.075
 3499HO4     OW13993   9.807   4.036   8.874
 3499HO4    HW113994   9.871   4.031   8.797
 3499HO4    HW213995   9.859   4.038   8.960
 3499HO4     MW13996   9.807   4.036   8.874
 3500HO4     OW13997   1.793   1.319   3.795
 3500HO4    HW113998   1.869   1.255   3.781
 3500HO4    HW213999   1.797   1.356   3.889
 3500HO4     MW14000   1.793   1.319   3.795
 3501HO4     OW14001   0.568   8.722   8.766
 3501HO4    HW114002   0.537   8.760   8.854
 3501HO4    HW214003   0.551   8.788   8.693
 3501HO4     MW14004   0.568   8.722   8.766
 3502HO4     OW14005   9.983   8.230   5.337
 3502HO4    HW114006  10.056   8.242   5.405
 3502HO4    HW214007  10.024   8.202   5.249
 3502HO4     MW14008   9.983   8.230   5.337
 3503HO4     OW14009   1.442   0.681   6.258
 3503HO4    HW114010   1.492   0.714   6.339
 3503HO4    HW214011   1.508   0.666   6.183
 3503HO4     MW14012   1.442   0.681   6.258
 3504HO4     OW14013   4.893   3.410   4.656
 3504HO4    HW114014   4.956   3.450   4.723
 3504HO4    HW214015   4.848   3.483   4.604
 3504HO4     MW14016   4.893   3.410   4.656
 3505HO4     OW14017   0.596   9.726   4.694
 3505HO4    HW114018   0.642   9.763   4.775
 3505HO4    HW214019   0.629   9.774   4.612
 3505HO4     MW14020   0.596   9.726   4.694
 3506HO4     OW14021   1.783   5.516   2.626
 3506HO4    HW114022   1.801   5.609   2.591
 3506HO4    HW214023   1.783   5.517   2.726
 3506HO4     MW14024   1.783   5.516   2.626
 3507HO4     OW14025   6.783   9.748   1.873
 3507HO4    HW114026   6.767   9.679   1.802
 3507HO4    HW214027   6.877   9.738   1.909
 3507HO4     MW14028   6.783   9.748   1.873
 3508HO4     OW14029   1.900   1.326   2.578
 3508HO4    HW114030   1.966   1.254   2.602
 3508HO4    HW214031   1.942   1.390   2.514
 3508HO4     MW14032   1.900   1.326   2.578
 3509HO4     OW14033   5.127   8.195   4.224
 3509HO4    HW114034   5.152   8.291   4.236
 3509HO4    HW214035   5.028   8.184   4.234
 3509HO4     MW14036   5.127   8.195   4.224
 3510HO4     OW14037   4.652   1.967   5.036
 3510HO4    HW114038   4.635   2.060   5.002
 3510HO4    HW214039   4.696   1.972   5.126
 3510HO4     MW14040   4.652   1.967   5.036
 3511HO4     OW14041   3.370   6.696   0.129
 3511HO4    HW114042   3.338   6.676   0.222
 3511HO4    HW214043   3.291   6.699   0.067
 3511HO4     MW14044   3.370   6.696   0.129
 3512HO4     OW14045   3.428   5.804   6.532
 3512HO4    HW114046   3.407   5.710   6.505
 3512HO4    HW214047   3.381   5.868   6.470
 3512HO4     MW14048   3.428   5.804   6.532
 3513HO4     OW14049   3.910   3.345   9.830
 3513HO4    HW114050   3.891   3.441   9.853
 3513HO4    HW214051   3.849   3.286   9.885
 3513HO4     MW14052   3.910   3.345   9.830
 3514HO4     OW14053   2.330   7.409   8.494
 3514HO4    HW114054   2.291   7.431   8.584
 3514HO4    HW214055   2.300   7.478   8.428
 3514HO4     MW14056   2.330   7.409   8.494
 3515HO4     OW14057   0.164   3.294   5.302
 3515HO4    HW114058   0.154   3.282   5.203
 3515HO4    HW214059   0.073   3.308   5.343
 3515HO4     MW14060   0.164   3.294   5.302
 3516HO4     OW14061   5.997   1.693   2.009
 3516HO4    HW114062   5.919   1.753   2.032
 3516HO4    HW214063   6.075   1.750   1.980
 3516HO4     MW14064   5.997   1.693   2.009
 3517HO4     OW14065   4.655   9.771   5.287
 3517HO4    HW114066   4.649   9.708   5.209
 3517HO4    HW214067   4.563   9.791   5.321
 3517HO4     MW14068   4.655   9.771   5.287
 3518HO4     OW14069   9.856   2.598   5.221
 3518HO4    HW114070   9.834   2.548   5.305
 3518HO4    HW214071   9.779   2.589   5.156
 3518HO4     MW14072   9.856   2.598   5.221
 3519HO4     OW14073   1.192   5.739   8.800
 3519HO4    HW114074   1.135   5.675   8.852
 3519HO4    HW214075   1.232   5.691   8.721
 3519HO4     MW14076   1.192   5.739   8.800
 3520HO4     OW14077   6.004   0.748   6.792
 3520HO4    HW114078   6.001   0.728   6.891
 3520HO4    HW214079   5.996   0.662   6.741
 3520HO4     MW14080   6.004   0.748   6.792
 3521HO4     OW14081   1.609   8.317   7.860
 3521HO4    HW114082   1.679   8.383   7.832
 3521HO4    HW214083   1.625   8.229   7.814
 3521HO4     MW14084   1.609   8.317   7.860
 3522HO4     OW14085   3.999   8.326   7.832
 3522HO4    HW114086   4.008   8.411   7.884
 3522HO4    HW214087   4.051   8.253   7.877
 3522HO4     MW14088   3.999   8.326   7.832
 3523HO4     OW14089   3.189   4.671   9.972
 3523HO4    HW114090   3.273   4.664   9.916
 3523HO4    HW214091   3.210   4.648  10.067
 3523HO4     MW14092   3.189   4.671   9.972
 3524HO4     OW14093   3.521   0.738   6.313
 3524HO4    HW114094   3.504   0.672   6.239
 3524HO4    HW214095   3.448   0.807   6.313
 3524HO4     MW14096   3.521   0.738   6.313
 3525HO4     OW14097   8.168   2.403   7.712
 3525HO4    HW114098   8.248   2.416   7.653
 3525HO4    HW214099   8.108   2.333   7.671
 3525HO4     MW14100   8.168   2.403   7.712
 3526HO4     OW14101   2.010   3.533   5.892
 3526HO4    HW114102   2.061   3.479   5.824
 3526HO4    HW214103   1.938   3.586   5.847
 3526HO4     MW14104   2.010   3.533   5.892
 3527HO4     OW14105   0.206   8.049   6.254
 3527HO4    HW114106   0.273   8.058   6.328
 3527HO4    HW214107   0.213   8.129   6.193
 3527HO4     MW14108   0.206   8.049   6.254
 3528HO4     OW14109   8.024   5.014   1.664
 3528HO4    HW114110   8.001   5.013   1.762
 3528HO4    HW214111   8.045   5.108   1.635
 3528HO4     MW14112   8.024   5.014   1.664
 3529HO4     OW14113   8.354   7.668   0.739
 3529HO4    HW114114   8.372   7.713   0.651
 3529HO4    HW214115   8.441   7.650   0.786
 3529HO4     MW14116   8.354   7.668   0.739
 3530HO4     OW14117   7.583   9.118   8.815
 3530HO4    HW114118   7.637   9.054   8.760
 3530HO4    HW214119   7.485   9.101   8.801
 3530HO4     MW14120   7.583   9.118   8.815
 3531HO4     OW14121   5.747   0.348   4.312
 3531HO4    HW114122   5.756   0.417   4.239
 3531HO4    HW214123   5.832   0.344   4.364
 3531HO4     MW14124   5.747   0.348   4.312
 3532HO4     OW14125   4.288   9.733   9.556
 3532HO4    HW114126   4.281   9.686   9.467
 3532HO4    HW214127   4.322   9.668   9.625
 3532HO4     MW14128   4.288   9.733   9.556
 3533HO4     OW14129   7.671   2.262   0.363
 3533HO4    HW114130   7.571   2.262   0.379
 3533HO4    HW214131   7.718   2.258   0.452
 3533HO4     MW14132   7.671   2.262   0.363
 3534HO4     OW14133   2.082   1.069  10.129
 3534HO4    HW114134   2.108   1.029  10.042
 3534HO4    HW214135   2.132   1.155  10.143
 3534HO4     MW14136   2.082   1.069  10.129
 3535HO4     OW14137   1.296   8.917   9.507
 3535HO4    HW114138   1.263   8.868   9.588
 3535HO4    HW214139   1.220   8.932   9.444
 3535HO4     MW14140   1.296   8.917   9.507
 3536HO4     OW14141   5.725   5.338   2.885
 3536HO4    HW114142   5.767   5.418   2.928
 3536HO4    HW214143   5.664   5.367   2.811
 3536HO4     MW14144   5.725   5.338   2.885
 3537HO4     OW14145   2.615   2.811   6.584
 3537HO4    HW114146   2.643   2.721   6.549
 3537HO4    HW214147   2.687   2.878   6.566
 3537HO4     MW14148   2.615   2.811   6.584
 3538HO4     OW14149   0.108   1.070   3.583
 3538HO4    HW114150   0.198   1.107   3.558
 3538HO4    HW214151   0.085   1.096   3.678
 3538HO4     MW14152   0.108   1.070   3.583
 3539HO4     OW14153   1.972   5.940   2.740
 3539HO4    HW114154   1.950   6.037   2.729
 3539HO4    HW214155   1.900   5.894   2.793
 3539HO4     MW14156   1.972   5.940   2.740
 3540HO4     OW14157   0.505   7.650   2.414
 3540HO4    HW114158   0.511   7.559   2.456
 3540HO4    HW214159   0.483   7.719   2.484
 3540HO4     MW14160   0.505   7.650   2.414
 3541HO4     OW14161   1.869   7.295   2.813
 3541HO4    HW114162   1.825   7.323   2.899
 3541HO4    HW214163   1.815   7.327   2.735
 3541HO4     MW14164   1.869   7.295   2.813
 3542HO4     OW14165   6.218   1.493   1.354
 3542HO4    HW114166   6.200   1.535   1.265
 3542HO4    HW214167   6.217   1.563   1.426
 3542HO4     MW14168   6.218   1.493   1.354
 3543HO4     OW14169   0.160   7.933   0.728
 3543HO4    HW114170   0.081   7.936   0.790
 3543HO4    HW214171   0.159   8.014   0.669
 3543HO4     MW14172   0.160   7.933   0.728
 3544HO4     OW14173   0.902   2.509   5.094
 3544HO4    HW114174   0.964   2.479   5.168
 3544HO4    HW214175   0.807   2.491   5.120
 3544HO4     MW14176   0.902   2.509   5.094
 3545HO4     OW14177   2.791   6.126   2.021
 3545HO4    HW114178   2.778   6.190   1.944
 3545HO4    HW214179   2.724   6.147   2.093
 3545HO4     MW14180   2.791   6.126   2.021
 3546HO4     OW14181   5.350   6.079   3.505
 3546HO4    HW114182   5.359   6.178   3.511
 3546HO4    HW214183   5.334   6.040   3.596
 3546HO4     MW14184   5.350   6.079   3.505
 3547HO4     OW14185   7.747   8.207  10.108
 3547HO4    HW114186   7.745   8.149  10.190
 3547HO4    HW214187   7.743   8.149  10.026
 3547HO4     MW14188   7.747   8.207  10.108
 3548HO4     OW14189   5.571   7.130   5.469
 3548HO4    HW114190   5.596   7.189   5.546
 3548HO4    HW214191   5.519   7.183   5.402
 3548HO4     MW14192   5.571   7.130   5.469
 3549HO4     OW14193   2.771   8.378   5.374
 3549HO4    HW114194   2.790   8.429   5.290
 3549HO4    HW214195   2.672   8.356   5.378
 3549HO4     MW14196   2.771   8.378   5.374
 3550HO4     OW14197   2.842   2.461   2.211
 3550HO4    HW114198   2.843   2.416   2.300
 3550HO4    HW214199   2.792   2.404   2.145
 3550HO4     MW14200   2.842   2.461   2.211
 3551HO4     OW14201   4.765   2.851   8.929
 3551HO4    HW114202   4.790   2.769   8.980
 3551HO4    HW214203   4.798   2.842   8.834
 3551HO4     MW14204   4.765   2.851   8.929
 3552HO4     OW14205   8.878  10.093   9.466
 3552HO4    HW114206   8.861  10.101   9.368
 3552HO4    HW214207   8.828  10.014   9.503
 3552HO4     MW14208   8.878  10.093   9.466
 3553HO4     OW14209   7.458   6.617   1.051
 3553HO4    HW114210   7.489   6.677   1.125
 3553HO4    HW214211   7.465   6.666   0.963
 3553HO4     MW14212   7.458   6.617   1.051
 3554HO4     OW14213   0.344   2.690   3.772
 3554HO4    HW114214   0.369   2.640   3.688
 3554HO4    HW214215   0.359   2.788   3.759
 3554HO4     MW14216   0.344   2.690   3.772
 3555HO4     OW14217   7.483   3.833   1.831
 3555HO4    HW114218   7.450   3.836   1.926
 3555HO4    HW214219   7.583   3.828   1.830
 3555HO4     MW14220   7.483   3.833   1.831
 3556HO4     OW14221   5.161   3.062   1.960
 3556HO4    HW114222   5.140   3.139   2.021
 3556HO4    HW214223   5.188   3.096   1.870
 3556HO4     MW14224   5.161   3.062   1.960
 3557HO4     OW14225  10.030   7.448   2.570
 3557HO4    HW114226   9.975   7.414   2.647
 3557HO4    HW214227  10.015   7.389   2.490
 3557HO4     MW14228  10.030   7.448   2.570
 3558HO4     OW14229   1.100   7.602   3.423
 3558HO4    HW114230   1.151   7.613   3.337
 3558HO4    HW214231   1.155   7.639   3.498
 3558HO4     MW14232   1.100   7.602   3.423
 3559HO4     OW14233   5.788   7.004   0.782
 3559HO4    HW114234   5.852   6.982   0.707
 3559HO4    HW214235   5.839   7.047   0.857
 3559HO4     MW14236   5.788   7.004   0.782
 3560HO4     OW14237   4.768   5.167   9.568
 3560HO4    HW114238   4.727   5.226   9.638
 3560HO4    HW214239   4.726   5.188   9.479
 3560HO4     MW14240   4.768   5.167   9.568
 3561HO4     OW14241  10.037   8.672   0.440
 3561HO4    HW114242  10.023   8.711   0.349
 3561HO4    HW214243  10.050   8.747   0.506
 3561HO4     MW14244  10.037   8.672   0.440
 3562HO4     OW14245   5.988   8.305   4.722
 3562HO4    HW114246   6.020   8.326   4.815
 3562HO4    HW214247   5.940   8.216   4.723
 3562HO4     MW14248   5.988   8.305   4.722
 3563HO4     OW14249   9.585   4.079   1.492
 3563HO4    HW114250   9.674   4.048   1.456
 3563HO4    HW214251   9.516   4.009   1.474
 3563HO4     MW14252   9.585   4.079   1.492
 3564HO4     OW14253   3.427   5.719   9.150
 3564HO4    HW114254   3.472   5.665   9.078
 3564HO4    HW214255   3.469   5.810   9.154
 3564HO4     MW14256   3.427   5.719   9.150
 3565HO4     OW14257   1.669   3.707   1.113
 3565HO4    HW114258   1.720   3.688   1.197
 3565HO4    HW214259   1.679   3.804   1.088
 3565HO4     MW14260   1.669   3.707   1.113
 3566HO4     OW14261   0.256   9.419   7.737
 3566HO4    HW114262   0.282   9.515   7.725
 3566HO4    HW214263   0.264   9.394   7.834
 3566HO4     MW14264   0.256   9.419   7.737
 3567HO4     OW14265   6.038   2.216   5.056
 3567HO4    HW114266   6.049   2.126   5.013
 3567HO4    HW214267   6.119   2.239   5.110
 3567HO4     MW14268   6.038   2.216   5.056
 3568HO4     OW14269   1.759   0.990   3.453
 3568HO4    HW114270   1.770   1.090   3.445
 3568HO4    HW214271   1.695   0.970   3.527
 3568HO4     MW14272   1.759   0.990   3.453
 3569HO4     OW14273   5.180   7.981   5.462
 3569HO4    HW114274   5.269   8.008   5.500
 3569HO4    HW214275   5.194   7.911   5.391
 3569HO4     MW14276   5.180   7.981   5.462
 3570HO4     OW14277   0.403   7.154   3.769
 3570HO4    HW114278   0.452   7.182   3.686
 3570HO4    HW214279   0.466   7.106   3.831
 3570HO4     MW14280   0.403   7.154   3.769
 3571HO4     OW14281   0.778   4.322   0.102
 3571HO4    HW114282   0.695   4.376   0.085
 3571HO4    HW214283   0.850   4.380   0.139
 3571HO4     MW14284   0.778   4.322   0.102
 3572HO4     OW14285   9.684   8.890   5.115
 3572HO4    HW114286   9.620   8.858   5.186
 3572HO4    HW214287   9.737   8.967   5.151
 3572HO4     MW14288   9.684   8.890   5.115
 3573HO4     OW14289   9.312   1.123   6.148
 3573HO4    HW114290   9.299   1.177   6.231
 3573HO4    HW214291   9.305   1.183   6.067
 3573HO4     MW14292   9.312   1.123   6.148
 3574HO4     OW14293   5.515   9.608   6.420
 3574HO4    HW114294   5.429   9.557   6.426
 3574HO4    HW214295   5.555   9.615   6.512
 3574HO4     MW14296   5.515   9.608   6.420
 3575HO4     OW14297   1.796   2.701   0.006
 3575HO4    HW114298   1.755   2.735   0.092
 3575HO4    HW214299   1.890   2.669   0.025
 3575HO4     MW14300   1.796   2.701   0.006
 3576HO4     OW14301   8.761   6.263   7.848
 3576HO4    HW114302   8.742   6.164   7.848
 3576HO4    HW214303   8.687   6.311   7.895
 3576HO4     MW14304   8.761   6.263   7.848
 3577HO4     OW14305   5.873   4.216   5.826
 3577HO4    HW114306   5.904   4.154   5.898
 3577HO4    HW214307   5.952   4.246   5.771
 3577HO4     MW14308   5.873   4.216   5.826
 3578HO4     OW14309   1.461   4.361   7.316
 3578HO4    HW114310   1.554   4.374   7.282
 3578HO4    HW214311   1.455   4.393   7.411
 3578HO4     MW14312   1.461   4.361   7.316
 3579HO4     OW14313   4.431   1.451   2.184
 3579HO4    HW114314   4.378   1.514   2.127
 3579HO4    HW214315   4.451   1.495   2.272
 3579HO4     MW14316   4.431   1.451   2.184
 3580HO4     OW14317   8.642   2.026   9.853
 3580HO4    HW114318   8.712   1.986   9.794
 3580HO4    HW214319   8.551   2.010   9.813
 3580HO4     MW14320   8.642   2.026   9.853
 3581HO4     OW14321   5.823   3.917   0.547
 3581HO4    HW114322   5.836   3.879   0.639
 3581HO4    HW214323   5.755   3.990   0.550
 3581HO4     MW14324   5.823   3.917   0.547
 3582HO4     OW14325   8.171   7.019   3.505
 3582HO4    HW114326   8.107   6.953   3.545
 3582HO4    HW214327   8.265   6.987   3.517
 3582HO4     MW14328   8.171   7.019   3.505
 3583HO4     OW14329   6.114   9.235   3.853
 3583HO4    HW114330   6.199   9.287   3.861
 3583HO4    HW214331   6.134   9.137   3.856
 3583HO4     MW14332   6.114   9.235   3.853
 3584HO4     OW14333   2.409   1.852   7.686
 3584HO4    HW114334   2.358   1.826   7.768
 3584HO4    HW214335   2.358   1.826   7.604
 3584HO4     MW14336   2.409   1.852   7.686
 3585HO4     OW14337   3.787   5.509   4.520
 3585HO4    HW114338   3.785   5.600   4.478
 3585HO4    HW214339   3.757   5.441   4.452
 3585HO4     MW14340   3.787   5.509   4.520
 3586HO4     OW14341   5.075   1.267   0.089
 3586HO4    HW114342   5.029   1.230   0.170
 3586HO4    HW214343   5.045   1.215   0.008
 3586HO4     MW14344   5.075   1.267   0.089
 3587HO4     OW14345   9.611   2.634   0.209
 3587HO4    HW114346   9.615   2.536   0.184
 3587HO4    HW214347   9.645   2.646   0.303
 3587HO4     MW14348   9.611   2.634   0.209
 3588HO4     OW14349   4.640   8.369   2.373
 3588HO4    HW114350   4.563   8.431   2.357
 3588HO4    HW214351   4.722   8.406   2.330
 3588HO4     MW14352   4.640   8.369   2.373
 3589HO4     OW14353   2.100   9.779   4.977
 3589HO4    HW114354   2.122   9.858   4.919
 3589HO4    HW214355   2.128   9.695   4.930
 3589HO4     MW14356   2.100   9.779   4.977
 3590HO4     OW14357   9.629   5.121   3.833
 3590HO4    HW114358   9.657   5.127   3.929
 3590HO4    HW214359   9.630   5.025   3.804
 3590HO4     MW14360   9.629   5.121   3.833
 3591HO4     OW14361   9.479   1.499   1.290
 3591HO4    HW114362   9.485   1.447   1.376
 3591HO4    HW214363   9.466   1.435   1.214
 3591HO4     MW14364   9.479   1.499   1.290
 3592HO4     OW14365   9.852   5.917   8.638
 3592HO4    HW114366   9.783   5.965   8.584
 3592HO4    HW214367   9.943   5.957   8.620
 3592HO4     MW14368   9.852   5.917   8.638
 3593HO4     OW14369   3.709   6.114   7.075
 3593HO4    HW114370   3.632   6.054   7.102
 3593HO4    HW214371   3.718   6.188   7.142
 3593HO4     MW14372   3.709   6.114   7.075
 3594HO4     OW14373   6.484   3.366   4.893
 3594HO4    HW114374   6.391   3.389   4.863
 3594HO4    HW214375   6.492   3.382   4.992
 3594HO4     MW14376   6.484   3.366   4.893
 3595HO4     OW14377   5.564   0.925   1.132
 3595HO4    HW114378   5.469   0.892   1.119
 3595HO4    HW214379   5.585   0.994   1.063
 3595HO4     MW14380   5.564   0.925   1.132
 3596HO4     OW14381   7.525   9.862   2.733
 3596HO4    HW114382   7.484   9.925   2.666
 3596HO4    HW214383   7.559   9.914   2.811
 3596HO4     MW14384   7.525   9.862   2.733
 3597HO4     OW14385   4.952   9.916   5.921
 3597HO4    HW114386   5.034   9.973   5.923
 3597HO4    HW214387   4.891   9.946   5.848
 3597HO4     MW14388   4.952   9.916   5.921
 3598HO4     OW14389   3.605   0.341   8.147
 3598HO4    HW114390   3.513   0.317   8.177
 3598HO4    HW214391   3.625   0.437   8.171
 3598HO4     MW14392   3.605   0.341   8.147
 3599HO4     OW14393   0.740   3.076   9.905
 3599HO4    HW114394   0.763   2.998   9.963
 3599HO4    HW214395   0.678   3.138   9.954
 3599HO4     MW14396   0.740   3.076   9.905
 3600HO4     OW14397   6.848   9.662   3.503
 3600HO4    HW114398   6.782   9.610   3.447
 3600HO4    HW214399   6.803   9.696   3.585
 3600HO4     MW14400   6.848   9.662   3.503
 3601HO4     OW14401   1.586   3.854   6.490
 3601HO4    HW114402   1.514   3.842   6.421
 3601HO4    HW214403   1.583   3.948   6.526
 3601HO4     MW14404   1.586   3.854   6.490
 3602HO4     OW14405   8.498   3.274   7.624
 3602HO4    HW114406   8.470   3.370   7.635
 3602HO4    HW214407   8.582   3.257   7.676
 3602HO4     MW14408   8.498   3.274   7.624
 3603HO4     OW14409   7.621   5.139   0.110
 3603HO4    HW114410   7.658   5.232   0.101
 3603HO4    HW214411   7.663   5.080   0.041
 3603HO4     MW14412   7.621   5.139   0.110
 3604HO4     OW14413   8.105   2.285   0.074
 3604HO4    HW114414   8.151   2.321  -0.008
 3604HO4    HW214415   8.110   2.352   0.148
 3604HO4     MW14416   8.105   2.285   0.074
 3605HO4     OW14417   6.562   4.506   8.583
 3605HO4    HW114418   6.521   4.465   8.665
 3605HO4    HW214419   6.521   4.465   8.501
 3605HO4     MW14420   6.562   4.506   8.583
 3606HO4     OW14421   4.538   2.211   3.396
 3606HO4    HW114422   4.592   2.294   3.377
 3606HO4    HW214423   4.553   2.182   3.490
 3606HO4     MW14424   4.538   2.211   3.396
 3607HO4     OW14425   8.262   3.006   3.492
 3607HO4    HW114426   8.322   3.034   3.416
 3607HO4    HW214427   8.316   3.002   3.577
 3607HO4     MW14428   8.262   3.006   3.492
 3608HO4     OW14429   0.482   8.425   9.977
 3608HO4    HW114430   0.462   8.377  10.063
 3608HO4    HW214431   0.406   8.409   9.912
 3608HO4     MW14432   0.482   8.425   9.977
 3609HO4     OW14433   6.702   2.658   9.202
 3609HO4    HW114434   6.649   2.656   9.117
 3609HO4    HW214435   6.644   2.628   9.279
 3609HO4     MW14436   6.702   2.658   9.202
 3610HO4     OW14437   9.760   0.867   6.784
 3610HO4    HW114438   9.817   0.885   6.865
 3610HO4    HW214439   9.819   0.851   6.705
 3610HO4     MW14440   9.760   0.867   6.784
 3611HO4     OW14441   4.092   1.918   2.271
 3611HO4    HW114442   4.130   2.009   2.288
 3611HO4    HW214443   4.012   1.926   2.210
 3611HO4     MW14444   4.092   1.918   2.271
 3612HO4     OW14445   2.975   5.663   9.959
 3612HO4    HW114446   3.076   5.670   9.957
 3612HO4    HW214447   2.936   5.724   9.890
 3612HO4     MW14448   2.975   5.663   9.959
 3613HO4     OW14449   6.820   5.893   0.021
 3613HO4    HW114450   6.819   5.993   0.010
 3613HO4    HW214451   6.875   5.869   0.102
 3613HO4     MW14452   6.820   5.893   0.021
 3614HO4     OW14453   8.061   2.345   6.089
 3614HO4    HW114454   7.984   2.370   6.030
 3614HO4    HW214455   8.138   2.407   6.073
 3614HO4     MW14456   8.061   2.345   6.089
 3615HO4     OW14457   7.794   3.798   4.601
 3615HO4    HW114458   7.813   3.857   4.681
 3615HO4    HW214459   7.813   3.849   4.517
 3615HO4     MW14460   7.794   3.798   4.601
 3616HO4     OW14461   9.865   0.642   5.183
 3616HO4    HW114462   9.813   0.600   5.259
 3616HO4    HW214463   9.835   0.602   5.096
 3616HO4     MW14464   9.865   0.642   5.183
 3617HO4     OW14465   4.746   0.580   2.350
 3617HO4    HW114466   4.806   0.501   2.369
 3617HO4    HW214467   4.710   0.572   2.256
 3617HO4     MW14468   4.746   0.580   2.350
 3618HO4     OW14469   2.853   5.343   2.562
 3618HO4    HW114470   2.753   5.352   2.565
 3618HO4    HW214471   2.895   5.429   2.592
 3618HO4     MW14472   2.853   5.343   2.562
 3619HO4     OW14473   5.272   4.379   8.710
 3619HO4    HW114474   5.224   4.465   8.726
 3619HO4    HW214475   5.366   4.385   8.746
 3619HO4     MW14476   5.272   4.379   8.710
 3620HO4     OW14477   8.074   2.306   3.498
 3620HO4    HW114478   8.037   2.373   3.562
 3620HO4    HW214479   8.171   2.326   3.480
 3620HO4     MW14480   8.074   2.306   3.498
 3621HO4     OW14481   1.458   1.830   7.005
 3621HO4    HW114482   1.421   1.786   7.088
 3621HO4    HW214483   1.421   1.785   6.924
 3621HO4     MW14484   1.458   1.830   7.005
 3622HO4     OW14485   8.234   6.408   0.633
 3622HO4    HW114486   8.168   6.365   0.571
 3622HO4    HW214487   8.238   6.356   0.719
 3622HO4     MW14488   8.234   6.408   0.633
 3623HO4     OW14489   3.617   5.665   8.623
 3623HO4    HW114490   3.569   5.699   8.542
 3623HO4    HW214491   3.576   5.705   8.705
 3623HO4     MW14492   3.617   5.665   8.623
 3624HO4     OW14493   8.588   8.539   7.043
 3624HO4    HW114494   8.589   8.510   7.140
 3624HO4    HW214495   8.533   8.474   6.990
 3624HO4     MW14496   8.588   8.539   7.043
 3625HO4     OW14497   3.138   3.843   5.161
 3625HO4    HW114498   3.087   3.902   5.099
 3625HO4    HW214499   3.074   3.798   5.224
 3625HO4     MW14500   3.138   3.843   5.161
 3626HO4     OW14501   9.324   8.590   6.812
 3626HO4    HW114502   9.369   8.591   6.722
 3626HO4    HW214503   9.252   8.520   6.812
 3626HO4     MW14504   9.324   8.590   6.812
 3627HO4     OW14505   2.182   3.643   6.520
 3627HO4    HW114506   2.241   3.628   6.439
 3627HO4    HW214507   2.239   3.649   6.602
 3627HO4     MW14508   2.182   3.643   6.520
 3628HO4     OW14509   2.272   2.205   7.292
 3628HO4    HW114510   2.193   2.268   7.284
 3628HO4    HW214511   2.348   2.242   7.238
 3628HO4     MW14512   2.272   2.205   7.292
 3629HO4     OW14513   1.033  10.149   4.672
 3629HO4    HW114514   0.987  10.124   4.757
 3629HO4    HW214515   1.029  10.071   4.608
 3629HO4     MW14516   1.033  10.149   4.672
 3630HO4     OW14517   7.846   2.210   3.349
 3630HO4    HW114518   7.759   2.243   3.388
 3630HO4    HW214519   7.893   2.286   3.303
 3630HO4     MW14520   7.846   2.210   3.349
 3631HO4     OW14521   7.651   9.678   2.381
 3631HO4    HW114522   7.694   9.620   2.451
 3631HO4    HW214523   7.555   9.651   2.370
 3631HO4     MW14524   7.651   9.678   2.381
 3632HO4     OW14525   5.506   3.967   2.060
 3632HO4    HW114526   5.549   3.991   1.973
 3632HO4    HW214527   5.546   4.022   2.134
 3632HO4     MW14528   5.506   3.967   2.060
 3633HO4     OW14529   9.860   1.275   6.007
 3633HO4    HW114530   9.898   1.346   6.067
 3633HO4    HW214531   9.760   1.275   6.014
 3633HO4     MW14532   9.860   1.275   6.007
 3634HO4     OW14533   1.756   5.233   3.637
 3634HO4    HW114534   1.843   5.199   3.599
 3634HO4    HW214535   1.686   5.161   3.628
 3634HO4     MW14536   1.756   5.233   3.637
 3635HO4     OW14537   9.491   4.334   1.066
 3635HO4    HW114538   9.583   4.363   1.094
 3635HO4    HW214539   9.479   4.236   1.088
 3635HO4     MW14540   9.491   4.334   1.066
 3636HO4     OW14541   2.907   9.781   1.657
 3636HO4    HW114542   2.957   9.695   1.649
 3636HO4    HW214543   2.884   9.798   1.753
 3636HO4     MW14544   2.907   9.781   1.657
 3637HO4     OW14545   8.885   5.249   5.538
 3637HO4    HW114546   8.963   5.186   5.543
 3637HO4    HW214547   8.844   5.243   5.447
 3637HO4     MW14548   8.885   5.249   5.538
 3638HO4     OW14549   2.521   5.499   3.110
 3638HO4    HW114550   2.525   5.450   3.023
 3638HO4    HW214551   2.551   5.439   3.185
 3638HO4     MW14552   2.521   5.499   3.110
 3639HO4     OW14553   3.630   6.416   4.154
 3639HO4    HW114554   3.663   6.441   4.246
 3639HO4    HW214555   3.545   6.465   4.135
 3639HO4     MW14556   3.630   6.416   4.154
 3640HO4     OW14557   3.057   0.309   4.562
 3640HO4    HW114558   3.090   0.252   4.486
 3640HO4    HW214559   2.975   0.359   4.533
 3640HO4     MW14560   3.057   0.309   4.562
 3641HO4     OW14561   1.122   9.793   1.683
 3641HO4    HW114562   1.099   9.791   1.585
 3641HO4    HW214563   1.221   9.781   1.694
 3641HO4     MW14564   1.122   9.793   1.683
 3642HO4     OW14565   4.626   7.006   1.443
 3642HO4    HW114566   4.653   7.043   1.354
 3642HO4    HW214567   4.703   7.014   1.507
 3642HO4     MW14568   4.626   7.006   1.443
 3643HO4     OW14569   6.398   0.374   2.925
 3643HO4    HW114570   6.406   0.392   3.023
 3643HO4    HW214571   6.466   0.430   2.875
 3643HO4     MW14572   6.398   0.374   2.925
 3644HO4     OW14573   1.971   4.902   5.229
 3644HO4    HW114574   1.962   4.894   5.328
 3644HO4    HW214575   1.880   4.913   5.187
 3644HO4     MW14576   1.971   4.902   5.229
 3645HO4     OW14577   8.042   3.160   7.676
 3645HO4    HW114578   8.050   3.102   7.594
 3645HO4    HW214579   8.040   3.101   7.758
 3645HO4     MW14580   8.042   3.160   7.676
 3646HO4     OW14581   6.700   3.584   0.716
 3646HO4    HW114582   6.695   3.518   0.640
 3646HO4    HW214583   6.635   3.558   0.787
 3646HO4     MW14584   6.700   3.584   0.716
 3647HO4     OW14585   0.721   3.210   3.023
 3647HO4    HW114586   0.807   3.227   2.974
 3647HO4    HW214587   0.738   3.209   3.122
 3647HO4     MW14588   0.721   3.210   3.023
 3648HO4     OW14589   6.617  10.091   3.419
 3648HO4    HW114590   6.674  10.098   3.502
 3648HO4    HW214591   6.674  10.111   3.338
 3648HO4     MW14592   6.617  10.091   3.419
 3649HO4     OW14593   9.249   5.364   5.893
 3649HO4    HW114594   9.259   5.400   5.986
 3649HO4    HW214595   9.283   5.433   5.827
 3649HO4     MW14596   9.249   5.364   5.893
 3650HO4     OW14597   0.216   3.207   8.764
 3650HO4    HW114598   0.272   3.258   8.831
 3650HO4    HW214599   0.271   3.133   8.724
 3650HO4     MW14600   0.216   3.207   8.764
 3651HO4     OW14601   6.942   9.973   0.320
 3651HO4    HW114602   6.845   9.948   0.326
 3651HO4    HW214603   6.951  10.069   0.294
 3651HO4     MW14604   6.942   9.973   0.320
 3652HO4     OW14605   8.410   7.404   7.251
 3652HO4    HW114606   8.444   7.377   7.160
 3652HO4    HW214607   8.481   7.385   7.320
 3652HO4     MW14608   8.410   7.404   7.251
 3653HO4     OW14609   1.203   9.043   4.305
 3653HO4    HW114610   1.162   9.088   4.225
 3653HO4    HW214611   1.161   9.078   4.389
 3653HO4     MW14612   1.203   9.043   4.305
 3654HO4     OW14613   5.899   6.350   8.044
 3654HO4    HW114614   5.835   6.283   8.083
 3654HO4    HW214615   5.975   6.301   7.999
 3654HO4     MW14616   5.899   6.350   8.044
 3655HO4     OW14617   1.772   2.814   3.665
 3655HO4    HW114618   1.828   2.784   3.743
 3655HO4    HW214619   1.832   2.835   3.587
 3655HO4     MW14620   1.772   2.814   3.665
 3656HO4     OW14621   3.950   4.396   4.245
 3656HO4    HW114622   3.917   4.393   4.340
 3656HO4    HW214623   3.872   4.405   4.183
 3656HO4     MW14624   3.950   4.396   4.245
 3657HO4     OW14625   9.376   6.637   7.801
 3657HO4    HW114626   9.316   6.610   7.725
 3657HO4    HW214627   9.332   6.709   7.855
 3657HO4     MW14628   9.376   6.637   7.801
 3658HO4     OW14629   7.890   2.411   5.260
 3658HO4    HW114630   7.810   2.372   5.305
 3658HO4    HW214631   7.923   2.348   5.189
 3658HO4     MW14632   7.890   2.411   5.260
 3659HO4     OW14633   0.627   7.524   7.776
 3659HO4    HW114634   0.681   7.484   7.851
 3659HO4    HW214635   0.614   7.622   7.791
 3659HO4     MW14636   0.627   7.524   7.776
 3660HO4     OW14637   4.368   7.806   5.082
 3660HO4    HW114638   4.446   7.748   5.057
 3660HO4    HW214639   4.301   7.752   5.133
 3660HO4     MW14640   4.368   7.806   5.082
 3661HO4     OW14641   9.827   3.847   8.062
 3661HO4    HW114642   9.739   3.879   8.097
 3661HO4    HW214643   9.826   3.746   8.057
 3661HO4     MW14644   9.827   3.847   8.062
 3662HO4     OW14645   1.162   0.220   0.398
 3662HO4    HW114646   1.254   0.189   0.373
 3662HO4    HW214647   1.167   0.315   0.431
 3662HO4     MW14648   1.162   0.220   0.398
 3663HO4     OW14649   4.191   5.976   9.200
 3663HO4    HW114650   4.223   6.065   9.235
 3663HO4    HW214651   4.192   5.978   9.100
 3663HO4     MW14652   4.191   5.976   9.200
 3664HO4     OW14653   7.612   7.045   8.308
 3664HO4    HW114654   7.648   6.990   8.384
 3664HO4    HW214655   7.523   7.085   8.334
 3664HO4     MW14656   7.612   7.045   8.308
 3665HO4     OW14657   7.752   5.449   3.260
 3665HO4    HW114658   7.796   5.468   3.348
 3665HO4    HW214659   7.822   5.438   3.189
 3665HO4     MW14660   7.752   5.449   3.260
 3666HO4     OW14661   6.282   7.420   1.210
 3666HO4    HW114662   6.242   7.357   1.277
 3666HO4    HW214663   6.210   7.457   1.152
 3666HO4     MW14664   6.282   7.420   1.210
 3667HO4     OW14665   6.561   9.005   1.377
 3667HO4    HW114666   6.539   9.084   1.435
 3667HO4    HW214667   6.661   8.995   1.370
 3667HO4     MW14668   6.561   9.005   1.377
 3668HO4     OW14669   4.001   4.639   5.380
 3668HO4    HW114670   3.995   4.585   5.296
 3668HO4    HW214671   3.981   4.581   5.459
 3668HO4     MW14672   4.001   4.639   5.380
 3669HO4     OW14673   1.539   5.744   4.932
 3669HO4    HW114674   1.493   5.686   5.001
 3669HO4    HW214675   1.598   5.686   4.875
 3669HO4     MW14676   1.539   5.744   4.932
 3670HO4     OW14677   1.894   8.398   9.689
 3670HO4    HW114678   1.819   8.416   9.625
 3670HO4    HW214679   1.861   8.340   9.764
 3670HO4     MW14680   1.894   8.398   9.689
 3671HO4     OW14681   4.371   5.418   3.158
 3671HO4    HW114682   4.316   5.461   3.230
 3671HO4    HW214683   4.368   5.318   3.170
 3671HO4     MW14684   4.371   5.418   3.158
 3672HO4     OW14685   9.950   4.890   7.891
 3672HO4    HW114686   9.997   4.879   7.979
 3672HO4    HW214687   9.998   4.960   7.836
 3672HO4     MW14688   9.950   4.890   7.891
 3673HO4     OW14689   4.920   0.256   6.418
 3673HO4    HW114690   4.971   0.249   6.332
 3673HO4    HW214691   4.847   0.188   6.419
 3673HO4     MW14692   4.920   0.256   6.418
 3674HO4     OW14693   1.985   4.573   0.228
 3674HO4    HW114694   2.021   4.497   0.284
 3674HO4    HW214695   2.049   4.592   0.153
 3674HO4     MW14696   1.985   4.573   0.228
 3675HO4     OW14697   3.191   1.432   2.554
 3675HO4    HW114698   3.258   1.445   2.481
 3675HO4    HW214699   3.236   1.392   2.634
 3675HO4     MW14700   3.191   1.432   2.554
 3676HO4     OW14701   8.716   4.274   8.257
 3676HO4    HW114702   8.779   4.312   8.188
 3676HO4    HW214703   8.764   4.205   8.311
 3676HO4     MW14704   8.716   4.274   8.257
 3677HO4     OW14705   9.391   8.384   7.727
 3677HO4    HW114706   9.365   8.449   7.655
 3677HO4    HW214707   9.393   8.431   7.816
 3677HO4     MW14708   9.391   8.384   7.727
 3678HO4     OW14709   5.844   8.306   7.045
 3678HO4    HW114710   5.871   8.247   7.122
 3678HO4    HW214711   5.816   8.248   6.967
 3678HO4     MW14712   5.844   8.306   7.045
 3679HO4     OW14713   4.667   7.157   3.853
 3679HO4    HW114714   4.621   7.117   3.933
 3679HO4    HW214715   4.632   7.114   3.769
 3679HO4     MW14716   4.667   7.157   3.853
 3680HO4     OW14717   1.675   2.411   6.134
 3680HO4    HW114718   1.687   2.424   6.232
 3680HO4    HW214719   1.620   2.486   6.096
 3680HO4     MW14720   1.675   2.411   6.134
 3681HO4     OW14721   4.623   4.752   6.118
 3681HO4    HW114722   4.653   4.668   6.072
 3681HO4    HW214723   4.696   4.784   6.180
 3681HO4     MW14724   4.623   4.752   6.118
 3682HO4     OW14725   2.362   7.425   4.494
 3682HO4    HW114726   2.313   7.494   4.549
 3682HO4    HW214727   2.388   7.464   4.406
 3682HO4     MW14728   2.362   7.425   4.494
 3683HO4     OW14729   8.420   1.722   7.505
 3683HO4    HW114730   8.447   1.793   7.570
 3683HO4    HW214731   8.403   1.636   7.554
 3683HO4     MW14732   8.420   1.722   7.505
 3684HO4     OW14733   1.688   6.067  10.156
 3684HO4    HW114734   1.645   6.110  10.236
 3684HO4    HW214735   1.617   6.022  10.101
 3684HO4     MW14736   1.688   6.067  10.156
 3685HO4     OW14737   3.715   8.188   7.757
 3685HO4    HW114738   3.662   8.159   7.677
 3685HO4    HW214739   3.658   8.181   7.839
 3685HO4     MW14740   3.715   8.188   7.757
 3686HO4     OW14741   7.105   9.592   9.180
 3686HO4    HW114742   7.044   9.670   9.162
 3686HO4    HW214743   7.069   9.510   9.134
 3686HO4     MW14744   7.105   9.592   9.180
 3687HO4     OW14745   9.635   7.598   8.700
 3687HO4    HW114746   9.653   7.665   8.627
 3687HO4    HW214747   9.628   7.645   8.788
 3687HO4     MW14748   9.635   7.598   8.700
 3688HO4     OW14749   6.785   6.315   2.229
 3688HO4    HW114750   6.816   6.291   2.322
 3688HO4    HW214751   6.824   6.250   2.163
 3688HO4     MW14752   6.785   6.315   2.229
 3689HO4     OW14753   1.874   8.258   2.485
 3689HO4    HW114754   1.925   8.190   2.537
 3689HO4    HW214755   1.934   8.335   2.462
 3689HO4     MW14756   1.874   8.258   2.485
 3690HO4     OW14757   5.428   8.133   2.187
 3690HO4    HW114758   5.405   8.154   2.091
 3690HO4    HW214759   5.522   8.162   2.207
 3690HO4     MW14760   5.428   8.133   2.187
 3691HO4     OW14761   9.215  10.170   6.143
 3691HO4    HW114762   9.188  10.157   6.239
 3691HO4    HW214763   9.212  10.082   6.095
 3691HO4     MW14764   9.215  10.170   6.143
 3692HO4     OW14765   8.636   8.576   1.612
 3692HO4    HW114766   8.683   8.634   1.679
 3692HO4    HW214767   8.676   8.590   1.521
 3692HO4     MW14768   8.636   8.576   1.612
 3693HO4     OW14769   7.792   0.472   4.473
 3693HO4    HW114770   7.845   0.519   4.402
 3693HO4    HW214771   7.733   0.537   4.520
 3693HO4     MW14772   7.792   0.472   4.473
 3694HO4     OW14773   0.119   8.967   2.731
 3694HO4    HW114774   0.107   9.021   2.815
 3694HO4    HW214775   0.080   8.876   2.744
 3694HO4     MW14776   0.119   8.967   2.731
 3695HO4     OW14777   5.250   6.126   2.615
 3695HO4    HW114778   5.253   6.053   2.546
 3695HO4    HW214779   5.267   6.086   2.706
 3695HO4     MW14780   5.250   6.126   2.615
 3696HO4     OW14781   8.334   1.094   4.943
 3696HO4    HW114782   8.284   1.031   5.004
 3696HO4    HW214783   8.388   1.041   4.877
 3696HO4     MW14784   8.334   1.094   4.943
 3697HO4     OW14785   9.901   7.523   7.269
 3697HO4    HW114786   9.939   7.482   7.353
 3697HO4    HW214787   9.842   7.600   7.294
 3697HO4     MW14788   9.901   7.523   7.269
 3698HO4     OW14789   2.349   8.998   6.997
 3698HO4    HW114790   2.394   8.995   7.087
 3698HO4    HW214791   2.314   9.091   6.979
 3698HO4     MW14792   2.349   8.998   6.997
 3699HO4     OW14793   1.177   0.639   3.877
 3699HO4    HW114794   1.137   0.621   3.967
 3699HO4    HW214795   1.184   0.738   3.863
 3699HO4     MW14796   1.177   0.639   3.877
 3700HO4     OW14797   5.079   0.216   8.469
 3700HO4    HW114798   5.152   0.224   8.537
 3700HO4    HW214799   5.096   0.282   8.394
 3700HO4     MW14800   5.079   0.216   8.469
 3701HO4     OW14801   9.674   4.932   2.208
 3701HO4    HW114802   9.621   4.946   2.123
 3701HO4    HW214803   9.667   5.015   2.264
 3701HO4     MW14804   9.674   4.932   2.208
 3702HO4     OW14805   7.012   2.332   1.128
 3702HO4    HW114806   6.993   2.277   1.047
 3702HO4    HW214807   6.964   2.294   1.207
 3702HO4     MW14808   7.012   2.332   1.128
 3703HO4     OW14809   6.658   3.281   6.737
 3703HO4    HW114810   6.733   3.283   6.804
 3703HO4    HW214811   6.696   3.270   6.644
 3703HO4     MW14812   6.658   3.281   6.737
 3704HO4     OW14813   6.246   7.649   2.276
 3704HO4    HW114814   6.303   7.602   2.344
 3704HO4    HW214815   6.294   7.653   2.188
 3704HO4     MW14816   6.246   7.649   2.276
 3705HO4     OW14817   8.950   1.255   8.590
 3705HO4    HW114818   8.911   1.207   8.511
 3705HO4    HW214819   8.926   1.207   8.674
 3705HO4     MW14820   8.950   1.255   8.590
 3706HO4     OW14821   7.941  10.074   4.848
 3706HO4    HW114822   7.881  10.143   4.889
 3706HO4    HW214823   7.933   9.988   4.899
 3706HO4     MW14824   7.941  10.074   4.848
 3707HO4     OW14825   6.760   0.911   7.721
 3707HO4    HW114826   6.722   1.001   7.743
 3707HO4    HW214827   6.791   0.909   7.626
 3707HO4     MW14828   6.760   0.911   7.721
 3708HO4     OW14829   8.637   6.527   3.153
 3708HO4    HW114830   8.629   6.581   3.069
 3708HO4    HW214831   8.555   6.542   3.210
 3708HO4     MW14832   8.637   6.527   3.153
 3709HO4     OW14833   6.616   6.101   4.297
 3709HO4    HW114834   6.655   6.054   4.377
 3709HO4    HW214835   6.597   6.196   4.321
 3709HO4     MW14836   6.616   6.101   4.297
 3710HO4     OW14837   4.213   5.516   6.612
 3710HO4    HW114838   4.284   5.528   6.683
 3710HO4    HW214839   4.232   5.578   6.536
 3710HO4     MW14840   4.213   5.516   6.612
 3711HO4     OW14841   9.810   1.061   6.908
 3711HO4    HW114842   9.796   1.126   6.983
 3711HO4    HW214843   9.875   0.990   6.937
 3711HO4     MW14844   9.810   1.061   6.908
 3712HO4     OW14845   9.623   8.873   6.459
 3712HO4    HW114846   9.611   8.816   6.378
 3712HO4    HW214847   9.553   8.849   6.527
 3712HO4     MW14848   9.623   8.873   6.459
 3713HO4     OW14849   3.622   7.020   0.992
 3713HO4    HW114850   3.561   7.057   0.922
 3713HO4    HW214851   3.577   7.025   1.082
 3713HO4     MW14852   3.622   7.020   0.992
 3714HO4     OW14853   9.146   7.324   1.263
 3714HO4    HW114854   9.076   7.342   1.332
 3714HO4    HW214855   9.205   7.405   1.252
 3714HO4     MW14856   9.146   7.324   1.263
 3715HO4     OW14857   7.862   9.018   1.921
 3715HO4    HW114858   7.941   8.973   1.879
 3715HO4    HW214859   7.779   8.997   1.869
 3715HO4     MW14860   7.862   9.018   1.921
 3716HO4     OW14861   1.624   6.505   7.875
 3716HO4    HW114862   1.540   6.480   7.827
 3716HO4    HW214863   1.692   6.432   7.862
 3716HO4     MW14864   1.624   6.505   7.875
 3717HO4     OW14865   4.927   6.864   8.099
 3717HO4    HW114866   4.879   6.932   8.155
 3717HO4    HW214867   4.870   6.837   8.022
 3717HO4     MW14868   4.927   6.864   8.099
 3718HO4     OW14869   4.297   0.309   3.847
 3718HO4    HW114870   4.202   0.303   3.879
 3718HO4    HW214871   4.309   0.394   3.796
 3718HO4     MW14872   4.297   0.309   3.847
 3719HO4     OW14873   5.929   9.415   8.287
 3719HO4    HW114874   6.004   9.356   8.256
 3719HO4    HW214875   5.843   9.364   8.289
 3719HO4     MW14876   5.929   9.415   8.287
 3720HO4     OW14877   5.423   9.186   1.347
 3720HO4    HW114878   5.363   9.265   1.359
 3720HO4    HW214879   5.435   9.167   1.249
 3720HO4     MW14880   5.423   9.186   1.347
 3721HO4     OW14881   9.077   1.642   1.802
 3721HO4    HW114882   9.092   1.720   1.740
 3721HO4    HW214883   9.129   1.563   1.770
 3721HO4     MW14884   9.077   1.642   1.802
 3722HO4     OW14885   5.048   4.584   2.907
 3722HO4    HW114886   5.040   4.578   3.007
 3722HO4    HW214887   4.985   4.655   2.873
 3722HO4     MW14888   5.048   4.584   2.907
 3723HO4     OW14889   5.790   7.516   1.336
 3723HO4    HW114890   5.813   7.423   1.368
 3723HO4    HW214891   5.735   7.510   1.252
 3723HO4     MW14892   5.790   7.516   1.336
 3724HO4     OW14893   6.418   0.277   9.173
 3724HO4    HW114894   6.457   0.255   9.083
 3724HO4    HW214895   6.319   0.285   9.166
 3724HO4     MW14896   6.418   0.277   9.173
 3725HO4     OW14897   8.100   5.973   6.044
 3725HO4    HW114898   8.085   5.874   6.051
 3725HO4    HW214899   8.172   5.992   5.977
 3725HO4     MW14900   8.100   5.973   6.044
 3726HO4     OW14901   4.791   5.384   9.187
 3726HO4    HW114902   4.842   5.460   9.145
 3726HO4    HW214903   4.855   5.310   9.211
 3726HO4     MW14904   4.791   5.384   9.187
 3727HO4     OW14905   4.970   9.132   4.835
 3727HO4    HW114906   4.980   9.179   4.747
 3727HO4    HW214907   5.061   9.105   4.868
 3727HO4     MW14908   4.970   9.132   4.835
 3728HO4     OW14909   9.679   1.600   1.039
 3728HO4    HW114910   9.729   1.643   0.963
 3728HO4    HW214911   9.743   1.581   1.114
 3728HO4     MW14912   9.679   1.600   1.039
 3729HO4     OW14913   2.341   9.107   9.147
 3729HO4    HW114914   2.393   9.129   9.064
 3729HO4    HW214915   2.391   9.140   9.227
 3729HO4     MW14916   2.341   9.107   9.147
 3730HO4     OW14917   9.506   9.452   7.741
 3730HO4    HW114918   9.599   9.483   7.716
 3730HO4    HW214919   9.446   9.457   7.660
 3730HO4     MW14920   9.506   9.452   7.741
 3731HO4     OW14921   1.740   7.956   7.480
 3731HO4    HW114922   1.779   7.952   7.387
 3731HO4    HW214923   1.672   8.029   7.484
 3731HO4     MW14924   1.740   7.956   7.480
 3732HO4     OW14925   1.924   0.280   3.169
 3732HO4    HW114926   1.914   0.225   3.252
 3732HO4    HW214927   1.988   0.356   3.187
 3732HO4     MW14928   1.924   0.280   3.169
 3733HO4     OW14929   9.662   2.256   7.571
 3733HO4    HW114930   9.591   2.200   7.528
 3733HO4    HW214931   9.653   2.351   7.540
 3733HO4     MW14932   9.662   2.256   7.571
 3734HO4     OW14933   5.251   9.249   3.708
 3734HO4    HW114934   5.290   9.157   3.693
 3734HO4    HW214935   5.322   9.310   3.744
 3734HO4     MW14936   5.251   9.249   3.708
 3735HO4     OW14937   4.509   9.484   4.140
 3735HO4    HW114938   4.552   9.482   4.049
 3735HO4    HW214939   4.536   9.568   4.187
 3735HO4     MW14940   4.509   9.484   4.140
 3736HO4     OW14941   3.217   4.437   1.672
 3736HO4    HW114942   3.314   4.414   1.681
 3736HO4    HW214943   3.198   4.522   1.722
 3736HO4     MW14944   3.217   4.437   1.672
 3737HO4     OW14945   7.720   3.520   1.043
 3737HO4    HW114946   7.684   3.576   0.968
 3737HO4    HW214947   7.668   3.539   1.127
 3737HO4     MW14948   7.720   3.520   1.043
 3738HO4     OW14949   2.471   5.275   5.071
 3738HO4    HW114950   2.454   5.282   5.170
 3738HO4    HW214951   2.517   5.359   5.041
 3738HO4     MW14952   2.471   5.275   5.071
 3739HO4     OW14953   5.887   4.252   9.712
 3739HO4    HW114954   5.853   4.302   9.793
 3739HO4    HW214955   5.809   4.223   9.656
 3739HO4     MW14956   5.887   4.252   9.712
 3740HO4     OW14957   0.836   7.662   5.361
 3740HO4    HW114958   0.871   7.719   5.436
 3740HO4    HW214959   0.793   7.721   5.292
 3740HO4     MW14960   0.836   7.662   5.361
 3741HO4     OW14961   7.126   5.634   6.018
 3741HO4    HW114962   7.102   5.679   6.105
 3741HO4    HW214963   7.051   5.574   5.990
 3741HO4     MW14964   7.126   5.634   6.018
 3742HO4     OW14965   6.767   0.845   1.145
 3742HO4    HW114966   6.743   0.824   1.240
 3742HO4    HW214967   6.777   0.945   1.135
 3742HO4     MW14968   6.767   0.845   1.145
 3743HO4     OW14969   7.159   8.156   0.116
 3743HO4    HW114970   7.243   8.201   0.149
 3743HO4    HW214971   7.081   8.182   0.173
 3743HO4     MW14972   7.159   8.156   0.116
 3744HO4     OW14973   3.738   3.549   0.412
 3744HO4    HW114974   3.720   3.532   0.315
 3744HO4    HW214975   3.673   3.497   0.468
 3744HO4     MW14976   3.738   3.549   0.412
 3745HO4     OW14977   1.339   5.475   7.546
 3745HO4    HW114978   1.418   5.525   7.508
 3745HO4    HW214979   1.262   5.538   7.557
 3745HO4     MW14980   1.339   5.475   7.546
 3746HO4     OW14981   5.461   3.464   7.258
 3746HO4    HW114982   5.535   3.400   7.236
 3746HO4    HW214983   5.468   3.544   7.197
 3746HO4     MW14984   5.461   3.464   7.258
 3747HO4     OW14985   7.857   3.819   1.503
 3747HO4    HW114986   7.828   3.795   1.410
 3747HO4    HW214987   7.886   3.735   1.551
 3747HO4     MW14988   7.857   3.819   1.503
 3748HO4     OW14989   5.287   8.281   3.910
 3748HO4    HW114990   5.300   8.375   3.877
 3748HO4    HW214991   5.329   8.217   3.844
 3748HO4     MW14992   5.287   8.281   3.910
 3749HO4     OW14993   8.878   2.320   0.721
 3749HO4    HW114994   8.950   2.290   0.784
 3749HO4    HW214995   8.887   2.270   0.634
 3749HO4     MW14996   8.878   2.320   0.721
 3750HO4     OW14997   2.851   1.217   3.082
 3750HO4    HW114998   2.867   1.207   2.983
 3750HO4    HW214999   2.925   1.173   3.133
 3750HO4     MW15000   2.851   1.217   3.082
 3751HO4     OW15001   8.511   5.904   7.051
 3751HO4    HW115002   8.456   5.870   6.974
 3751HO4    HW215003   8.507   6.004   7.053
 3751HO4     MW15004   8.511   5.904   7.051
 3752HO4     OW15005   9.157   8.538   4.494
 3752HO4    HW115006   9.177   8.535   4.395
 3752HO4    HW215007   9.199   8.458   4.538
 3752HO4     MW15008   9.157   8.538   4.494
 3753HO4     OW15009   4.497   6.086   8.787
 3753HO4    HW115010   4.419   6.089   8.851
 3753HO4    HW215011   4.499   5.996   8.742
 3753HO4     MW15012   4.497   6.086   8.787
 3754HO4     OW15013   7.629   9.492   6.281
 3754HO4    HW115014   7.677   9.425   6.339
 3754HO4    HW215015   7.588   9.445   6.202
 3754HO4     MW15016   7.629   9.492   6.281
 3755HO4     OW15017   8.607   3.028   9.239
 3755HO4    HW115018   8.573   3.070   9.154
 3755HO4    HW215019   8.564   3.073   9.318
 3755HO4     MW15020   8.607   3.028   9.239
 3756HO4     OW15021   1.819   5.747   0.232
 3756HO4    HW115022   1.808   5.650   0.256
 3756HO4    HW215023   1.817   5.758   0.132
 3756HO4     MW15024   1.819   5.747   0.232
 3757HO4     OW15025   3.917   6.076   2.435
 3757HO4    HW115026   3.905   6.129   2.519
 3757HO4    HW215027   4.003   6.102   2.391
 3757HO4     MW15028   3.917   6.076   2.435
 3758HO4     OW15029   7.060   2.192   7.440
 3758HO4    HW115030   7.004   2.250   7.381
 3758HO4    HW215031   7.039   2.096   7.422
 3758HO4     MW15032   7.060   2.192   7.440
 3759HO4     OW15033   6.361   4.991   5.683
 3759HO4    HW115034   6.361   5.092   5.686
 3759HO4    HW215035   6.288   4.959   5.622
 3759HO4     MW15036   6.361   4.991   5.683
 3760HO4     OW15037   1.795   2.036   1.109
 3760HO4    HW115038   1.696   2.025   1.123
 3760HO4    HW215039   1.834   1.951   1.074
 3760HO4     MW15040   1.795   2.036   1.109
 3761HO4     OW15041   6.778   9.579   1.369
 3761HO4    HW115042   6.773   9.655   1.305
 3761HO4    HW215043   6.689   9.568   1.416
 3761HO4     MW15044   6.778   9.579   1.369
 3762HO4     OW15045   6.562   8.416   8.833
 3762HO4    HW115046   6.528   8.496   8.883
 3762HO4    HW215047   6.591   8.444   8.741
 3762HO4     MW15048   6.562   8.416   8.833
 3763HO4     OW15049   9.461   4.864   0.974
 3763HO4    HW115050   9.514   4.897   1.053
 3763HO4    HW215051   9.523   4.832   0.902
 3763HO4     MW15052   9.461   4.864   0.974
 3764HO4     OW15053   1.703   5.936   6.340
 3764HO4    HW115054   1.694   5.891   6.251
 3764HO4    HW215055   1.662   5.878   6.411
 3764HO4     MW15056   1.703   5.936   6.340
 3765HO4     OW15057   8.297   4.577   7.097
 3765HO4    HW115058   8.301   4.637   7.177
 3765HO4    HW215059   8.301   4.632   7.014
 3765HO4     MW15060   8.297   4.577   7.097
 3766HO4     OW15061   0.876   8.979   8.321
 3766HO4    HW115062   0.955   9.039   8.336
 3766HO4    HW215063   0.814   9.022   8.255
 3766HO4     MW15064   0.876   8.979   8.321
 3767HO4     OW15065   9.546   5.151   9.725
 3767HO4    HW115066   9.642   5.123   9.720
 3767HO4    HW215067   9.524   5.207   9.644
 3767HO4     MW15068   9.546   5.151   9.725
 3768HO4     OW15069   1.375   5.865   4.286
 3768HO4    HW115070   1.367   5.912   4.375
 3768HO4    HW215071   1.300   5.799   4.277
 3768HO4     MW15072   1.375   5.865   4.286
 3769HO4     OW15073   0.885   9.520   2.874
 3769HO4    HW115074   0.813   9.488   2.810
 3769HO4    HW215075   0.889   9.620   2.872
 3769HO4     MW15076   0.885   9.520   2.874
 3770HO4     OW15077   2.915   8.691   2.008
 3770HO4    HW115078   2.954   8.700   1.915
 3770HO4    HW215079   2.937   8.772   2.062
 3770HO4     MW15080   2.915   8.691   2.008
 3771HO4     OW15081   9.366   1.850   4.140
 3771HO4    HW115082   9.317   1.850   4.052
 3771HO4    HW215083   9.300   1.854   4.215
 3771HO4     MW15084   9.366   1.850   4.140
 3772HO4     OW15085   3.426   1.760   4.540
 3772HO4    HW115086   3.445   1.704   4.458
 3772HO4    HW215087   3.331   1.791   4.538
 3772HO4     MW15088   3.426   1.760   4.540
 3773HO4     OW15089   8.974   3.039   3.898
 3773HO4    HW115090   9.063   3.048   3.944
 3773HO4    HW215091   8.900   3.051   3.965
 3773HO4     MW15092   8.974   3.039   3.898
 3774HO4     OW15093   0.142   7.874   6.050
 3774HO4    HW115094   0.202   7.796   6.071
 3774HO4    HW215095   0.047   7.849   6.071
 3774HO4     MW15096   0.142   7.874   6.050
 3775HO4     OW15097   2.743   2.414   5.391
 3775HO4    HW115098   2.716   2.503   5.429
 3775HO4    HW215099   2.661   2.360   5.370
 3775HO4     MW15100   2.743   2.414   5.391
 3776HO4     OW15101   2.703   8.975   6.976
 3776HO4    HW115102   2.618   9.000   7.024
 3776HO4    HW215103   2.683   8.901   6.911
 3776HO4     MW15104   2.703   8.975   6.976
 3777HO4     OW15105   9.479   7.458   4.712
 3777HO4    HW115106   9.458   7.376   4.658
 3777HO4    HW215107   9.579   7.465   4.724
 3777HO4     MW15108   9.479   7.458   4.712
 3778HO4     OW15109   3.370   2.966   7.962
 3778HO4    HW115110   3.365   3.060   7.924
 3778HO4    HW215111   3.284   2.946   8.011
 3778HO4     MW15112   3.370   2.966   7.962
 3779HO4     OW15113   6.745   8.660   4.426
 3779HO4    HW115114   6.659   8.709   4.410
 3779HO4    HW215115   6.798   8.657   4.340
 3779HO4     MW15116   6.745   8.660   4.426
 3780HO4     OW15117   6.753   2.460   3.903
 3780HO4    HW115118   6.846   2.497   3.904
 3780HO4    HW215119   6.706   2.488   3.819
 3780HO4     MW15120   6.753   2.460   3.903
 3781HO4     OW15121   1.442   7.672   2.462
 3781HO4    HW115122   1.394   7.701   2.379
 3781HO4    HW215123   1.375   7.641   2.530
 3781HO4     MW15124   1.442   7.672   2.462
 3782HO4     OW15125   9.335   7.541   1.573
 3782HO4    HW115126   9.243   7.514   1.542
 3782HO4    HW215127   9.404   7.485   1.526
 3782HO4     MW15128   9.335   7.541   1.573
 3783HO4     OW15129   4.816   9.930   3.567
 3783HO4    HW115130   4.767   9.995   3.509
 3783HO4    HW215131   4.836   9.972   3.656
 3783HO4     MW15132   4.816   9.930   3.567
 3784HO4     OW15133   0.111   8.769   3.338
 3784HO4    HW115134   0.154   8.693   3.388
 3784HO4    HW215135   0.071   8.735   3.253
 3784HO4     MW15136   0.111   8.769   3.338
 3785HO4     OW15137   8.273   2.370   6.409
 3785HO4    HW115138   8.356   2.425   6.396
 3785HO4    HW215139   8.293   2.274   6.386
 3785HO4     MW15140   8.273   2.370   6.409
 3786HO4     OW15141   9.933   7.188   5.964
 3786HO4    HW115142  10.012   7.229   5.917
 3786HO4    HW215143   9.893   7.255   6.028
 3786HO4     MW15144   9.933   7.188   5.964
 3787HO4     OW15145   7.890   3.758   8.165
 3787HO4    HW115146   7.947   3.742   8.246
 3787HO4    HW215147   7.944   3.739   8.083
 3787HO4     MW15148   7.890   3.758   8.165
 3788HO4     OW15149   9.449   5.023   9.057
 3788HO4    HW115150   9.474   5.075   9.139
 3788HO4    HW215151   9.440   5.085   8.979
 3788HO4     MW15152   9.449   5.023   9.057
 3789HO4     OW15153   5.840   4.912   1.854
 3789HO4    HW115154   5.939   4.909   1.867
 3789HO4    HW215155   5.819   4.939   1.760
 3789HO4     MW15156   5.840   4.912   1.854
 3790HO4     OW15157   0.329   4.485   1.962
 3790HO4    HW115158   0.343   4.582   1.941
 3790HO4    HW215159   0.406   4.451   2.017
 3790HO4     MW15160   0.329   4.485   1.962
 3791HO4     OW15161   0.576   7.800   5.073
 3791HO4    HW115162   0.630   7.846   5.002
 3791HO4    HW215163   0.514   7.733   5.032
 3791HO4     MW15164   0.576   7.800   5.073
 3792HO4     OW15165   3.749   9.078   7.813
 3792HO4    HW115166   3.742   9.013   7.737
 3792HO4    HW215167   3.668   9.138   7.813
 3792HO4     MW15168   3.749   9.078   7.813
 3793HO4     OW15169   8.885   5.431   0.356
 3793HO4    HW115170   8.844   5.452   0.446
 3793HO4    HW215171   8.836   5.481   0.284
 3793HO4     MW15172   8.885   5.431   0.356
 3794HO4     OW15173   6.012   6.132   8.437
 3794HO4    HW115174   6.061   6.118   8.350
 3794HO4    HW215175   5.954   6.213   8.430
 3794HO4     MW15176   6.012   6.132   8.437
 3795HO4     OW15177   2.008   2.219   8.188
 3795HO4    HW115178   2.016   2.178   8.097
 3795HO4    HW215179   1.911   2.233   8.211
 3795HO4     MW15180   2.008   2.219   8.188
 3796HO4     OW15181   0.109   8.641   4.735
 3796HO4    HW115182   0.139   8.572   4.668
 3796HO4    HW215183   0.142   8.616   4.826
 3796HO4     MW15184   0.109   8.641   4.735
 3797HO4     OW15185   5.696   2.810   3.987
 3797HO4    HW115186   5.773   2.871   3.969
 3797HO4    HW215187   5.609   2.860   3.974
 3797HO4     MW15188   5.696   2.810   3.987
 3798HO4     OW15189   6.990   9.580   0.582
 3798HO4    HW115190   6.967   9.669   0.623
 3798HO4    HW215191   6.909   9.522   0.581
 3798HO4     MW15192   6.990   9.580   0.582
 3799HO4     OW15193   2.104  10.077   4.650
 3799HO4    HW115194   2.017  10.028   4.662
 3799HO4    HW215195   2.154  10.037   4.572
 3799HO4     MW15196   2.104  10.077   4.650
 3800HO4     OW15197   9.139   1.646   6.007
 3800HO4    HW115198   9.043   1.638   5.977
 3800HO4    HW215199   9.141   1.659   6.107
 3800HO4     MW15200   9.139   1.646   6.007
 3801HO4     OW15201   7.912   4.105   5.026
 3801HO4    HW115202   7.920   4.128   4.928
 3801HO4    HW215203   7.982   4.154   5.078
 3801HO4     MW15204   7.912   4.105   5.026
 3802HO4     OW15205   0.092   1.298   7.789
 3802HO4    HW115206   0.068   1.339   7.878
 3802HO4    HW215207   0.184   1.258   7.795
 3802HO4     MW15208   0.092   1.298   7.789
 3803HO4     OW15209   7.007   1.382   0.161
 3803HO4    HW115210   7.007   1.382   0.061
 3803HO4    HW215211   6.972   1.295   0.196
 3803HO4     MW15212   7.007   1.382   0.161
 3804HO4     OW15213   8.282   8.673   6.641
 3804HO4    HW115214   8.200   8.616   6.632
 3804HO4    HW215215   8.313   8.672   6.736
 3804HO4     MW15216   8.282   8.673   6.641
 3805HO4     OW15217   9.648   2.887   9.263
 3805HO4    HW115218   9.605   2.875   9.173
 3805HO4    HW215219   9.583   2.930   9.326
 3805HO4     MW15220   9.648   2.887   9.263
 3806HO4     OW15221   9.431   8.551   9.342
 3806HO4    HW115222   9.413   8.538   9.440
 3806HO4    HW215223   9.347   8.583   9.296
 3806HO4     MW15224   9.431   8.551   9.342
 3807HO4     OW15225   1.436   8.038   3.837
 3807HO4    HW115226   1.391   8.076   3.919
 3807HO4    HW215227   1.391   8.076   3.755
 3807HO4     MW15228   1.436   8.038   3.837
 3808HO4     OW15229   5.641   1.002   9.368
 3808HO4    HW115230   5.593   0.962   9.289
 3808HO4    HW215231   5.585   0.992   9.450
 3808HO4     MW15232   5.641   1.002   9.368
 3809HO4     OW15233   7.007   7.429   0.466
 3809HO4    HW115234   7.007   7.360   0.393
 3809HO4    HW215235   7.101   7.442   0.500
 3809HO4     MW15236   7.007   7.429   0.466
 3810HO4     OW15237   3.168   2.069   6.472
 3810HO4    HW115238   3.214   2.078   6.561
 3810HO4    HW215239   3.231   2.095   6.399
 3810HO4     MW15240   3.168   2.069   6.472
 3811HO4     OW15241   3.698   8.683   9.731
 3811HO4    HW115242   3.685   8.594   9.775
 3811HO4    HW215243   3.695   8.756   9.801
 3811HO4     MW15244   3.698   8.683   9.731
 3812HO4     OW15245   7.646   2.640   5.274
 3812HO4    HW115246   7.601   2.624   5.185
 3812HO4    HW215247   7.595   2.592   5.346
 3812HO4     MW15248   7.646   2.640   5.274
 3813HO4     OW15249   0.317   5.749   7.065
 3813HO4    HW115250   0.347   5.678   7.129
 3813HO4    HW215251   0.360   5.734   6.975
 3813HO4     MW15252   0.317   5.749   7.065
 3814HO4     OW15253   3.017   1.815   1.205
 3814HO4    HW115254   3.114   1.830   1.185
 3814HO4    HW215255   2.971   1.780   1.123
 3814HO4     MW15256   3.017   1.815   1.205
 3815HO4     OW15257   5.725   0.367   9.911
 3815HO4    HW115258   5.765   0.455   9.937
 3815HO4    HW215259   5.668   0.378   9.829
 3815HO4     MW15260   5.725   0.367   9.911
 3816HO4     OW15261   3.802   1.359   5.924
 3816HO4    HW115262   3.824   1.394   5.833
 3816HO4    HW215263   3.786   1.260   5.919
 3816HO4     MW15264   3.802   1.359   5.924
 3817HO4     OW15265   0.087   4.953   0.390
 3817HO4    HW115266   0.071   4.901   0.474
 3817HO4    HW215267   0.091   4.890   0.312
 3817HO4     MW15268   0.087   4.953   0.390
 3818HO4     OW15269   1.695   0.668   8.641
 3818HO4    HW115270   1.701   0.573   8.672
 3818HO4    HW215271   1.736   0.729   8.710
 3818HO4     MW15272   1.695   0.668   8.641
 3819HO4     OW15273   3.325   9.008   5.575
 3819HO4    HW115274   3.325   8.949   5.656
 3819HO4    HW215275   3.324   8.952   5.492
 3819HO4     MW15276   3.325   9.008   5.575
 3820HO4     OW15277   1.614   8.690   0.772
 3820HO4    HW115278   1.535   8.642   0.733
 3820HO4    HW215279   1.583   8.765   0.831
 3820HO4     MW15280   1.614   8.690   0.772
 3821HO4     OW15281   2.111   0.444   2.167
 3821HO4    HW115282   2.167   0.436   2.084
 3821HO4    HW215283   2.156   0.397   2.243
 3821HO4     MW15284   2.111   0.444   2.167
 3822HO4     OW15285   6.471   2.692   3.461
 3822HO4    HW115286   6.396   2.726   3.519
 3822HO4    HW215287   6.436   2.673   3.369
 3822HO4     MW15288   6.471   2.692   3.461
 3823HO4     OW15289   4.872   4.237  10.013
 3823HO4    HW115290   4.853   4.152   9.962
 3823HO4    HW215291   4.870   4.218  10.111
 3823HO4     MW15292   4.872   4.237  10.013
 3824HO4     OW15293   1.927   0.664   4.152
 3824HO4    HW115294   1.940   0.694   4.058
 3824HO4    HW215295   1.890   0.740   4.207
 3824HO4     MW15296   1.927   0.664   4.152
 3825HO4     OW15297   9.538  10.094   1.487
 3825HO4    HW115298   9.557  10.055   1.397
 3825HO4    HW215299   9.527  10.020   1.554
 3825HO4     MW15300   9.538  10.094   1.487
 3826HO4     OW15301   0.157   9.860   6.701
 3826HO4    HW115302   0.224   9.914   6.754
 3826HO4    HW215303   0.202   9.779   6.663
 3826HO4     MW15304   0.157   9.860   6.701
 3827HO4     OW15305   4.351   8.891   0.427
 3827HO4    HW115306   4.441   8.856   0.401
 3827HO4    HW215307   4.334   8.979   0.381
 3827HO4     MW15308   4.351   8.891   0.427
 3828HO4     OW15309   2.278   7.535   5.966
 3828HO4    HW115310   2.307   7.481   5.887
 3828HO4    HW215311   2.292   7.482   6.050
 3828HO4     MW15312   2.278   7.535   5.966
 3829HO4     OW15313   5.302   7.343   9.346
 3829HO4    HW115314   5.257   7.254   9.358
 3829HO4    HW215315   5.239   7.407   9.302
 3829HO4     MW15316   5.302   7.343   9.346
 3830HO4     OW15317   3.952   8.039   5.669
 3830HO4    HW115318   3.956   7.974   5.592
 3830HO4    HW215319   3.921   7.991   5.752
 3830HO4     MW15320   3.952   8.039   5.669
 3831HO4     OW15321   6.083   4.768   8.457
 3831HO4    HW115322   6.066   4.847   8.399
 3831HO4    HW215323   6.143   4.794   8.534
 3831HO4     MW15324   6.083   4.768   8.457
 3832HO4     OW15325   0.406   2.362   5.664
 3832HO4    HW115326   0.369   2.387   5.754
 3832HO4    HW215327   0.353   2.287   5.625
 3832HO4     MW15328   0.406   2.362   5.664
 3833HO4     OW15329   8.289  10.062   9.271
 3833HO4    HW115330   8.328  10.072   9.180
 3833HO4    HW215331   8.201  10.014   9.265
 3833HO4     MW15332   8.289  10.062   9.271
 3834HO4     OW15333   7.675   6.599   5.648
 3834HO4    HW115334   7.739   6.569   5.577
 3834HO4    HW215335   7.670   6.531   5.721
 3834HO4     MW15336   7.675   6.599   5.648
 3835HO4     OW15337   2.870   1.001   1.030
 3835HO4    HW115338   2.880   0.943   0.949
 3835HO4    HW215339   2.837   1.092   1.003
 3835HO4     MW15340   2.870   1.001   1.030
 3836HO4     OW15341   3.848   5.868   6.834
 3836HO4    HW115342   3.875   5.816   6.753
 3836HO4    HW215343   3.880   5.820   6.917
 3836HO4     MW15344   3.848   5.868   6.834
 3837HO4     OW15345   6.688   5.363   4.372
 3837HO4    HW115346   6.781   5.327   4.384
 3837HO4    HW215347   6.680   5.404   4.281
 3837HO4     MW15348   6.688   5.363   4.372
 3838HO4     OW15349   0.241   1.539   5.308
 3838HO4    HW115350   0.280   1.505   5.394
 3838HO4    HW215351   0.280   1.489   5.231
 3838HO4     MW15352   0.241   1.539   5.308
 3839HO4     OW15353   1.626   7.816   6.054
 3839HO4    HW115354   1.648   7.874   5.975
 3839HO4    HW215355   1.662   7.858   6.137
 3839HO4     MW15356   1.626   7.816   6.054
 3840HO4     OW15357   8.425   6.668   6.497
 3840HO4    HW115358   8.404   6.651   6.400
 3840HO4    HW215359   8.409   6.584   6.550
 3840HO4     MW15360   8.425   6.668   6.497
 3841HO4     OW15361   7.063   8.190   7.444
 3841HO4    HW115362   6.996   8.197   7.370
 3841HO4    HW215363   7.101   8.096   7.445
 3841HO4     MW15364   7.063   8.190   7.444
 3842HO4     OW15365   8.931   6.683   6.785
 3842HO4    HW115366   8.895   6.591   6.769
 3842HO4    HW215367   8.974   6.686   6.876
 3842HO4     MW15368   8.931   6.683   6.785
 3843HO4     OW15369   2.614   3.452   0.204
 3843HO4    HW115370   2.568   3.414   0.124
 3843HO4    HW215371   2.610   3.386   0.280
 3843HO4     MW15372   2.614   3.452   0.204
 3844HO4     OW15373   5.612   9.430   4.034
 3844HO4    HW115374   5.515   9.455   4.042
 3844HO4    HW215375   5.622   9.330   4.039
 3844HO4     MW15376   5.612   9.430   4.034
 3845HO4     OW15377   0.624   0.608   6.079
 3845HO4    HW115378   0.619   0.686   6.017
 3845HO4    HW215379   0.683   0.537   6.038
 3845HO4     MW15380   0.624   0.608   6.079
 3846HO4     OW15381   2.849   5.775   7.544
 3846HO4    HW115382   2.753   5.745   7.542
 3846HO4    HW215383   2.870   5.815   7.633
 3846HO4     MW15384   2.849   5.775   7.544
 3847HO4     OW15385   1.568   3.054   1.692
 3847HO4    HW115386   1.612   3.082   1.777
 3847HO4    HW215387   1.577   3.126   1.623
 3847HO4     MW15388   1.568   3.054   1.692
 3848HO4     OW15389   6.660   4.473   4.977
 3848HO4    HW115390   6.583   4.444   5.035
 3848HO4    HW215391   6.703   4.392   4.937
 3848HO4     MW15392   6.660   4.473   4.977
 3849HO4     OW15393   1.704   3.471   0.267
 3849HO4    HW115394   1.657   3.505   0.350
 3849HO4    HW215395   1.661   3.512   0.186
 3849HO4     MW15396   1.704   3.471   0.267
 3850HO4     OW15397   9.873   3.021   3.256
 3850HO4    HW115398   9.930   3.004   3.175
 3850HO4    HW215399   9.927   3.005   3.339
 3850HO4     MW15400   9.873   3.021   3.256
 3851HO4     OW15401   8.398   8.421   6.104
 3851HO4    HW115402   8.339   8.453   6.029
 3851HO4    HW215403   8.457   8.496   6.134
 3851HO4     MW15404   8.398   8.421   6.104
 3852HO4     OW15405   1.737   2.240   9.974
 3852HO4    HW115406   1.672   2.241  10.051
 3852HO4    HW215407   1.687   2.254   9.888
 3852HO4     MW15408   1.737   2.240   9.974
 3853HO4     OW15409   4.761   9.822   1.154
 3853HO4    HW115410   4.840   9.831   1.093
 3853HO4    HW215411   4.678   9.806   1.100
 3853HO4     MW15412   4.761   9.822   1.154
 3854HO4     OW15413   0.040   3.214   3.332
 3854HO4    HW115414  -0.031   3.142   3.331
 3854HO4    HW215415   0.080   3.220   3.424
 3854HO4     MW15416   0.040   3.214   3.332
 3855HO4     OW15417   5.053   5.900   0.881
 3855HO4    HW115418   5.011   5.963   0.815
 3855HO4    HW215419   4.985   5.877   0.952
 3855HO4     MW15420   5.053   5.900   0.881
 3856HO4     OW15421   9.487   0.645   5.530
 3856HO4    HW115422   9.453   0.618   5.621
 3856HO4    HW215423   9.461   0.576   5.462
 3856HO4     MW15424   9.487   0.645   5.530
 3857HO4     OW15425   9.821   9.194   0.694
 3857HO4    HW115426   9.866   9.155   0.775
 3857HO4    HW215427   9.876   9.175   0.612
 3857HO4     MW15428   9.821   9.194   0.694
 3858HO4     OW15429   3.477   9.008   2.656
 3858HO4    HW115430   3.554   9.070   2.640
 3858HO4    HW215431   3.424   8.998   2.571
 3858HO4     MW15432   3.477   9.008   2.656
 3859HO4     OW15433   6.534   7.279   6.587
 3859HO4    HW115434   6.496   7.291   6.679
 3859HO4    HW215435   6.490   7.345   6.524
 3859HO4     MW15436   6.534   7.279   6.587
 3860HO4     OW15437   2.310   1.479   3.464
 3860HO4    HW115438   2.399   1.438   3.442
 3860HO4    HW215439   2.292   1.556   3.402
 3860HO4     MW15440   2.310   1.479   3.464
 3861HO4     OW15441   3.822   0.421   5.333
 3861HO4    HW115442   3.852   0.446   5.240
 3861HO4    HW215443   3.879   0.468   5.400
 3861HO4     MW15444   3.822   0.421   5.333
 3862HO4     OW15445   4.749   2.899   6.138
 3862HO4    HW115446   4.729   2.942   6.050
 3862HO4    HW215447   4.671   2.910   6.200
 3862HO4     MW15448   4.749   2.899   6.138
 3863HO4     OW15449   6.863  10.037   9.903
 3863HO4    HW115450   6.887  10.086   9.987
 3863HO4    HW215451   6.905  10.083   9.824
 3863HO4     MW15452   6.863  10.037   9.903
 3864HO4     OW15453   2.211   5.534   9.280
 3864HO4    HW115454   2.163   5.537   9.368
 3864HO4    HW215455   2.146   5.548   9.205
 3864HO4     MW15456   2.211   5.534   9.280
 3865HO4     OW15457   8.495   6.400   5.770
 3865HO4    HW115458   8.399   6.393   5.741
 3865HO4    HW215459   8.499   6.424   5.867
 3865HO4     MW15460   8.495   6.400   5.770
 3866HO4     OW15461   9.192   9.934   0.306
 3866HO4    HW115462   9.132   9.858   0.333
 3866HO4    HW215463   9.286   9.915   0.337
 3866HO4     MW15464   9.192   9.934   0.306
 3867HO4     OW15465  10.019   5.018   9.193
 3867HO4    HW115466  10.056   4.967   9.115
 3867HO4    HW215467  10.018   4.960   9.275
 3867HO4     MW15468  10.019   5.018   9.193
 3868HO4     OW15469   3.425   3.256   3.458
 3868HO4    HW115470   3.522   3.274   3.436
 3868HO4    HW215471   3.410   3.270   3.556
 3868HO4     MW15472   3.425   3.256   3.458
 3869HO4     OW15473   3.447  10.053   1.639
 3869HO4    HW115474   3.454   9.990   1.562
 3869HO4    HW215475   3.476  10.006   1.723
 3869HO4     MW15476   3.447  10.053   1.639
 3870HO4     OW15477   1.326   0.158   8.846
 3870HO4    HW115478   1.366   0.190   8.932
 3870HO4    HW215479   1.235   0.199   8.834
 3870HO4     MW15480   1.326   0.158   8.846
 3871HO4     OW15481   9.715   6.916   8.028
 3871HO4    HW115482   9.760   6.910   8.117
 3871HO4    HW215483   9.702   7.013   8.004
 3871HO4     MW15484   9.715   6.916   8.028
 3872HO4     OW15485   9.600   8.681   4.952
 3872HO4    HW115486   9.560   8.711   4.866
 3872HO4    HW215487   9.664   8.606   4.935
 3872HO4     MW15488   9.600   8.681   4.952
 3873HO4     OW15489   0.280   2.502   3.448
 3873HO4    HW115490   0.369   2.510   3.494
 3873HO4    HW215491   0.259   2.405   3.433
 3873HO4     MW15492   0.280   2.502   3.448
 3874HO4     OW15493   2.572   1.397   7.767
 3874HO4    HW115494   2.508   1.408   7.691
 3874HO4    HW215495   2.540   1.449   7.846
 3874HO4     MW15496   2.572   1.397   7.767
 3875HO4     OW15497   0.542   9.268   2.829
 3875HO4    HW115498   0.512   9.175   2.807
 3875HO4    HW215499   0.574   9.271   2.925
 3875HO4     MW15500   0.542   9.268   2.829
 3876HO4     OW15501   6.210   6.592   2.331
 3876HO4    HW115502   6.165   6.606   2.243
 3876HO4    HW215503   6.285   6.658   2.341
 3876HO4     MW15504   6.210   6.592   2.331
 3877HO4     OW15505   9.898   2.428   8.425
 3877HO4    HW115506   9.950   2.346   8.454
 3877HO4    HW215507   9.938   2.464   8.341
 3877HO4     MW15508   9.898   2.428   8.425
 3878HO4     OW15509   0.809   9.555   3.592
 3878HO4    HW115510   0.789   9.457   3.580
 3878HO4    HW215511   0.725   9.602   3.620
 3878HO4     MW15512   0.809   9.555   3.592
 3879HO4     OW15513   8.148   6.839   7.250
 3879HO4    HW115514   8.085   6.831   7.328
 3879HO4    HW215515   8.202   6.755   7.242
 3879HO4     MW15516   8.148   6.839   7.250
 3880HO4     OW15517   1.304   5.637   9.954
 3880HO4    HW115518   1.382   5.637  10.018
 3880HO4    HW215519   1.325   5.697   9.876
 3880HO4     MW15520   1.304   5.637   9.954
 3881HO4     OW15521   3.400   5.650   7.111
 3881HO4    HW115522   3.349   5.617   7.031
 3881HO4    HW215523   3.382   5.591   7.190
 3881HO4     MW15524   3.400   5.650   7.111
 3882HO4     OW15525   5.655   8.882   8.966
 3882HO4    HW115526   5.585   8.885   8.894
 3882HO4    HW215527   5.620   8.831   9.045
 3882HO4     MW15528   5.655   8.882   8.966
 3883HO4     OW15529   6.945   3.362   2.621
 3883HO4    HW115530   6.966   3.361   2.523
 3883HO4    HW215531   6.926   3.268   2.652
 3883HO4     MW15532   6.945   3.362   2.621
 3884HO4     OW15533   2.285  10.005   0.127
 3884HO4    HW115534   2.198   9.998   0.076
 3884HO4    HW215535   2.269  10.051   0.214
 3884HO4     MW15536   2.285  10.005   0.127
 3885HO4     OW15537   1.581   4.587   0.119
 3885HO4    HW115538   1.615   4.563   0.210
 3885HO4    HW215539   1.650   4.562   0.050
 3885HO4     MW15540   1.581   4.587   0.119
 3886HO4     OW15541   7.874   5.318   2.672
 3886HO4    HW115542   7.820   5.312   2.587
 3886HO4    HW215543   7.818   5.359   2.744
 3886HO4     MW15544   7.874   5.318   2.672
 3887HO4     OW15545   9.804   4.684   2.164
 3887HO4    HW115546   9.801   4.625   2.245
 3887HO4    HW215547   9.854   4.637   2.090
 3887HO4     MW15548   9.804   4.684   2.164
 3888HO4     OW15549   9.183   1.464   4.441
 3888HO4    HW115550   9.143   1.516   4.517
 3888HO4    HW215551   9.158   1.506   4.354
 3888HO4     MW15552   9.183   1.464   4.441
 3889HO4     OW15553   6.926   2.563   8.385
 3889HO4    HW115554   6.963   2.650   8.353
 3889HO4    HW215555   6.995   2.518   8.444
 3889HO4     MW15556   6.926   2.563   8.385
 3890HO4     OW15557   0.158   9.609   6.077
 3890HO4    HW115558   0.174   9.511   6.071
 3890HO4    HW215559   0.082   9.627   6.140
 3890HO4     MW15560   0.158   9.609   6.077
 3891HO4     OW15561  10.073   0.427   4.273
 3891HO4    HW115562  10.139   0.453   4.201
 3891HO4    HW215563  10.071   0.498   4.344
 3891HO4     MW15564  10.073   0.427   4.273
 3892HO4     OW15565   5.315   6.071   5.680
 3892HO4    HW115566   5.288   6.133   5.606
 3892HO4    HW215567   5.268   6.097   5.764
 3892HO4     MW15568   5.315   6.071   5.680
 3893HO4     OW15569   4.104   1.705   8.449
 3893HO4    HW115570   4.043   1.718   8.370
 3893HO4    HW215571   4.069   1.760   8.526
 3893HO4     MW15572   4.104   1.705   8.449
 3894HO4     OW15573   7.773   6.264   5.811
 3894HO4    HW115574   7.745   6.283   5.716
 3894HO4    HW215575   7.870   6.285   5.822
 3894HO4     MW15576   7.773   6.264   5.811
 3895HO4     OW15577   7.759   0.050   6.601
 3895HO4    HW115578   7.811   0.090   6.677
 3895HO4    HW215579   7.819   0.038   6.522
 3895HO4     MW15580   7.759   0.050   6.601
 3896HO4     OW15581   3.341   2.923   6.932
 3896HO4    HW115582   3.328   2.996   6.863
 3896HO4    HW215583   3.266   2.857   6.925
 3896HO4     MW15584   3.341   2.923   6.932
 3897HO4     OW15585   7.198   9.225   0.053
 3897HO4    HW115586   7.178   9.182  -0.035
 3897HO4    HW215587   7.176   9.162   0.127
 3897HO4     MW15588   7.198   9.225   0.053
 3898HO4     OW15589   8.184   5.691   7.758
 3898HO4    HW115590   8.163   5.644   7.844
 3898HO4    HW215591   8.202   5.622   7.687
 3898HO4     MW15592   8.184   5.691   7.758
 3899HO4     OW15593   7.597   3.925   0.227
 3899HO4    HW115594   7.600   3.829   0.198
 3899HO4    HW215595   7.570   3.983   0.149
 3899HO4     MW15596   7.597   3.925   0.227
 3900HO4     OW15597   5.238   9.129   7.095
 3900HO4    HW115598   5.147   9.161   7.122
 3900HO4    HW215599   5.304   9.204   7.106
 3900HO4     MW15600   5.238   9.129   7.095
 3901HO4     OW15601   4.445   9.575   3.389
 3901HO4    HW115602   4.477   9.511   3.460
 3901HO4    HW215603   4.350   9.601   3.408
 3901HO4     MW15604   4.445   9.575   3.389
 3902HO4     OW15605   3.856   8.549   6.515
 3902HO4    HW115606   3.768   8.502   6.504
 3902HO4    HW215607   3.883   8.548   6.612
 3902HO4     MW15608   3.856   8.549   6.515
 3903HO4     OW15609   1.703   0.359   5.744
 3903HO4    HW115610   1.776   0.426   5.761
 3903HO4    HW215611   1.712   0.283   5.808
 3903HO4     MW15612   1.703   0.359   5.744
 3904HO4     OW15613   2.982   8.775   0.697
 3904HO4    HW115614   3.035   8.764   0.612
 3904HO4    HW215615   3.045   8.773   0.776
 3904HO4     MW15616   2.982   8.775   0.697
 3905HO4     OW15617   9.056   4.189   5.570
 3905HO4    HW115618   9.070   4.285   5.596
 3905HO4    HW215619   9.062   4.131   5.652
 3905HO4     MW15620   9.056   4.189   5.570
 3906HO4     OW15621   4.374  10.066   4.385
 3906HO4    HW115622   4.437  10.098   4.314
 3906HO4    HW215623   4.355  10.141   4.449
 3906HO4     MW15624   4.374  10.066   4.385
 3907HO4     OW15625   6.856   1.664   9.981
 3907HO4    HW115626   6.934   1.728   9.979
 3907HO4    HW215627   6.772   1.715  10.000
 3907HO4     MW15628   6.856   1.664   9.981
 3908HO4     OW15629   0.765   8.798   6.265
 3908HO4    HW115630   0.786   8.782   6.362
 3908HO4    HW215631   0.832   8.863   6.226
 3908HO4     MW15632   0.765   8.798   6.265
 3909HO4     OW15633   7.622   7.033   2.052
 3909HO4    HW115634   7.550   7.102   2.066
 3909HO4    HW215635   7.698   7.050   2.115
 3909HO4     MW15636   7.622   7.033   2.052
 3910HO4     OW15637   5.054   8.280   8.053
 3910HO4    HW115638   5.005   8.336   7.986
 3910HO4    HW215639   5.005   8.194   8.066
 3910HO4     MW15640   5.054   8.280   8.053
 3911HO4     OW15641   1.840   0.784   7.022
 3911HO4    HW115642   1.855   0.715   7.093
 3911HO4    HW215643   1.744   0.780   6.992
 3911HO4     MW15644   1.840   0.784   7.022
 3912HO4     OW15645   8.043   2.129   6.280
 3912HO4    HW115646   8.095   2.128   6.194
 3912HO4    HW215647   7.950   2.096   6.263
 3912HO4     MW15648   8.043   2.129   6.280
 3913HO4     OW15649   9.278   7.658   9.309
 3913HO4    HW115650   9.372   7.692   9.296
 3913HO4    HW215651   9.216   7.710   9.249
 3913HO4     MW15652   9.278   7.658   9.309
 3914HO4     OW15653   4.000   0.832   1.342
 3914HO4    HW115654   3.920   0.876   1.301
 3914HO4    HW215655   4.041   0.893   1.411
 3914HO4     MW15656   4.000   0.832   1.342
 3915HO4     OW15657   3.949   0.213   4.284
 3915HO4    HW115658   3.972   0.293   4.228
 3915HO4    HW215659   3.923   0.242   4.376
 3915HO4     MW15660   3.949   0.213   4.284
 3916HO4     OW15661   5.560   4.341   1.181
 3916HO4    HW115662   5.548   4.261   1.240
 3916HO4    HW215663   5.477   4.355   1.126
 3916HO4     MW15664   5.560   4.341   1.181
 3917HO4     OW15665   2.937   9.706   6.482
 3917HO4    HW115666   2.904   9.642   6.552
 3917HO4    HW215667   2.926   9.665   6.391
 3917HO4     MW15668   2.937   9.706   6.482
 3918HO4     OW15669   0.162   8.068  10.045
 3918HO4    HW115670   0.249   8.026  10.075
 3918HO4    HW215671   0.091   8.048  10.113
 3918HO4     MW15672   0.162   8.068  10.045
 3919HO4     OW15673   0.224   1.623   3.074
 3919HO4    HW115674   0.250   1.642   3.169
 3919HO4    HW215675   0.303   1.584   3.025
 3919HO4     MW15676   0.224   1.623   3.074
 3920HO4     OW15677   6.229   6.127   5.300
 3920HO4    HW115678   6.224   6.046   5.358
 3920HO4    HW215679   6.197   6.207   5.351
 3920HO4     MW15680   6.229   6.127   5.300
 3921HO4     OW15681   1.405   2.989   0.249
 3921HO4    HW115682   1.496   2.948   0.239
 3921HO4    HW215683   1.357   2.947   0.326
 3921HO4     MW15684   1.405   2.989   0.249
 3922HO4     OW15685   6.445   2.858   8.883
 3922HO4    HW115686   6.503   2.929   8.843
 3922HO4    HW215687   6.379   2.825   8.815
 3922HO4     MW15688   6.445   2.858   8.883
 3923HO4     OW15689   0.160   2.385   3.806
 3923HO4    HW115690   0.170   2.457   3.737
 3923HO4    HW215691   0.230   2.315   3.792
 3923HO4     MW15692   0.160   2.385   3.806
 3924HO4     OW15693   6.111   4.343   6.006
 3924HO4    HW115694   6.047   4.277   5.966
 3924HO4    HW215695   6.100   4.346   6.105
 3924HO4     MW15696   6.111   4.343   6.006
 3925HO4     OW15697   2.612   7.278   3.481
 3925HO4    HW115698   2.547   7.252   3.552
 3925HO4    HW215699   2.702   7.238   3.501
 3925HO4     MW15700   2.612   7.278   3.481
 3926HO4     OW15701  10.173   8.553   8.255
 3926HO4    HW115702  10.116   8.585   8.332
 3926HO4    HW215703  10.136   8.589   8.169
 3926HO4     MW15704  10.173   8.553   8.255
 3927HO4     OW15705   3.640   9.593   6.718
 3927HO4    HW115706   3.661   9.688   6.743
 3927HO4    HW215707   3.595   9.590   6.629
 3927HO4     MW15708   3.640   9.593   6.718
 3928HO4     OW15709   3.053   8.860   7.925
 3928HO4    HW115710   2.995   8.853   7.844
 3928HO4    HW215711   3.113   8.779   7.930
 3928HO4     MW15712   3.053   8.860   7.925
 3929HO4     OW15713   6.295   8.250   1.631
 3929HO4    HW115714   6.198   8.271   1.620
 3929HO4    HW215715   6.317   8.167   1.578
 3929HO4     MW15716   6.295   8.250   1.631
 3930HO4     OW15717   3.424   9.654   8.704
 3930HO4    HW115718   3.362   9.624   8.777
 3930HO4    HW215719   3.423   9.587   8.629
 3930HO4     MW15720   3.424   9.654   8.704
 3931HO4     OW15721   5.148   8.222   9.522
 3931HO4    HW115722   5.081   8.272   9.466
 3931HO4    HW215723   5.127   8.124   9.521
 3931HO4     MW15724   5.148   8.222   9.522
 3932HO4     OW15725   6.590  10.067   9.061
 3932HO4    HW115726   6.650   9.995   9.099
 3932HO4    HW215727   6.596  10.065   8.961
 3932HO4     MW15728   6.590  10.067   9.061
 3933HO4     OW15729   6.377   9.561   7.598
 3933HO4    HW115730   6.367   9.518   7.508
 3933HO4    HW215731   6.452   9.517   7.648
 3933HO4     MW15732   6.377   9.561   7.598
 3934HO4     OW15733   9.592   1.188   1.891
 3934HO4    HW115734   9.540   1.229   1.815
 3934HO4    HW215735   9.561   1.228   1.977
 3934HO4     MW15736   9.592   1.188   1.891
 3935HO4     OW15737   5.020   8.245   5.888
 3935HO4    HW115738   4.984   8.314   5.951
 3935HO4    HW215739   5.109   8.275   5.853
 3935HO4     MW15740   5.020   8.245   5.888
 3936HO4     OW15741   2.003   9.455   7.864
 3936HO4    HW115742   1.926   9.395   7.890
 3936HO4    HW215743   2.089   9.405   7.874
 3936HO4     MW15744   2.003   9.455   7.864
 3937HO4     OW15745   4.093   7.483   8.846
 3937HO4    HW115746   4.170   7.456   8.905
 3937HO4    HW215747   4.124   7.490   8.751
 3937HO4     MW15748   4.093   7.483   8.846
 3938HO4     OW15749   7.971   7.064   1.536
 3938HO4    HW115750   7.875   7.038   1.547
 3938HO4    HW215751   7.979   7.165   1.538
 3938HO4     MW15752   7.971   7.064   1.536
 3939HO4     OW15753   7.815   0.650   0.901
 3939HO4    HW115754   7.759   0.568   0.886
 3939HO4    HW215755   7.891   0.650   0.836
 3939HO4     MW15756   7.815   0.650   0.901
 3940HO4     OW15757   2.942   4.070   3.153
 3940HO4    HW115758   2.918   4.035   3.062
 3940HO4    HW215759   2.901   4.010   3.223
 3940HO4     MW15760   2.942   4.070   3.153
 3941HO4     OW15761   6.164   3.353   3.589
 3941HO4    HW115762   6.195   3.258   3.592
 3941HO4    HW215763   6.065   3.356   3.608
 3941HO4     MW15764   6.164   3.353   3.589
 3942HO4     OW15765   7.111   9.687   4.881
 3942HO4    HW115766   7.182   9.620   4.857
 3942HO4    HW215767   7.040   9.641   4.936
 3942HO4     MW15768   7.111   9.687   4.881
 3943HO4     OW15769   5.040   0.628   5.015
 3943HO4    HW115770   5.132   0.646   4.978
 3943HO4    HW215771   5.020   0.530   5.009
 3943HO4     MW15772   5.040   0.628   5.015
 3944HO4     OW15773   5.847   1.400   7.655
 3944HO4    HW115774   5.816   1.488   7.690
 3944HO4    HW215775   5.768   1.345   7.626
 3944HO4     MW15776   5.847   1.400   7.655
 3945HO4     OW15777   5.958   2.208   6.214
 3945HO4    HW115778   6.047   2.254   6.219
 3945HO4    HW215779   5.967   2.114   6.247
 3945HO4     MW15780   5.958   2.208   6.214
 3946HO4     OW15781   6.840   3.241   9.152
 3946HO4    HW115782   6.760   3.187   9.178
 3946HO4    HW215783   6.895   3.261   9.233
 3946HO4     MW15784   6.840   3.241   9.152
 3947HO4     OW15785   9.120   3.477   5.021
 3947HO4    HW115786   9.087   3.538   4.948
 3947HO4    HW215787   9.070   3.498   5.106
 3947HO4     MW15788   9.120   3.477   5.021
 3948HO4     OW15789   8.478  10.136   6.136
 3948HO4    HW115790   8.432  10.177   6.057
 3948HO4    HW215791   8.411  10.125   6.211
 3948HO4     MW15792   8.478  10.136   6.136
 3949HO4     OW15793   5.794   7.025   6.216
 3949HO4    HW115794   5.713   7.041   6.273
 3949HO4    HW215795   5.775   7.051   6.121
 3949HO4     MW15796   5.794   7.025   6.216
 3950HO4     OW15797   5.834   4.014   3.144
 3950HO4    HW115798   5.892   4.095   3.133
 3950HO4    HW215799   5.852   3.949   3.070
 3950HO4     MW15800   5.834   4.014   3.144
 3951HO4     OW15801   8.807   0.342   7.147
 3951HO4    HW115802   8.893   0.377   7.186
 3951HO4    HW215803   8.775   0.405   7.075
 3951HO4     MW15804   8.807   0.342   7.147
 3952HO4     OW15805   0.048   2.340   4.376
 3952HO4    HW115806  -0.019   2.299   4.313
 3952HO4    HW215807   0.101   2.410   4.327
 3952HO4     MW15808   0.048   2.340   4.376
 3953HO4     OW15809   4.733   2.753   2.240
 3953HO4    HW115810   4.807   2.686   2.248
 3953HO4    HW215811   4.690   2.768   2.330
 3953HO4     MW15812   4.733   2.753   2.240
 3954HO4     OW15813   1.257   5.520   2.595
 3954HO4    HW115814   1.270   5.435   2.647
 3954HO4    HW215815   1.206   5.500   2.511
 3954HO4     MW15816   1.257   5.520   2.595
 3955HO4     OW15817   0.676   4.731   6.225
 3955HO4    HW115818   0.609   4.807   6.226
 3955HO4    HW215819   0.690   4.699   6.319
 3955HO4     MW15820   0.676   4.731   6.225
 3956HO4     OW15821   0.247   4.180   0.428
 3956HO4    HW115822   0.315   4.163   0.356
 3956HO4    HW215823   0.190   4.258   0.402
 3956HO4     MW15824   0.247   4.180   0.428
 3957HO4     OW15825   9.282   0.933   6.627
 3957HO4    HW115826   9.231   0.965   6.547
 3957HO4    HW215827   9.337   0.852   6.601
 3957HO4     MW15828   9.282   0.933   6.627
 3958HO4     OW15829   2.231   9.430   2.602
 3958HO4    HW115830   2.138   9.459   2.624
 3958HO4    HW215831   2.295   9.469   2.669
 3958HO4     MW15832   2.231   9.430   2.602
 3959HO4     OW15833   6.075   0.645   7.810
 3959HO4    HW115834   6.151   0.597   7.856
 3959HO4    HW215835   6.105   0.736   7.781
 3959HO4     MW15836   6.075   0.645   7.810
 3960HO4     OW15837   0.743   7.216   7.657
 3960HO4    HW115838   0.693   7.136   7.691
 3960HO4    HW215839   0.821   7.186   7.601
 3960HO4     MW15840   0.743   7.216   7.657
 3961HO4     OW15841   9.027   2.809   4.152
 3961HO4    HW115842   8.976   2.868   4.215
 3961HO4    HW215843   9.103   2.765   4.202
 3961HO4     MW15844   9.027   2.809   4.152
 3962HO4     OW15845   3.327   4.005   0.764
 3962HO4    HW115846   3.358   4.084   0.710
 3962HO4    HW215847   3.403   3.942   0.779
 3962HO4     MW15848   3.327   4.005   0.764
 3963HO4     OW15849   8.573   9.786   4.568
 3963HO4    HW115850   8.499   9.736   4.614
 3963HO4    HW215851   8.561   9.780   4.469
 3963HO4     MW15852   8.573   9.786   4.568
 3964HO4     OW15853   4.382   3.537   1.588
 3964HO4    HW115854   4.478   3.564   1.597
 3964HO4    HW215855   4.343   3.521   1.679
 3964HO4     MW15856   4.382   3.537   1.588
 3965HO4     OW15857   9.717   8.287   2.997
 3965HO4    HW115858   9.656   8.235   2.937
 3965HO4    HW215859   9.685   8.382   3.003
 3965HO4     MW15860   9.717   8.287   2.997
 3966HO4     OW15861   2.434   2.071   4.789
 3966HO4    HW115862   2.489   2.073   4.705
 3966HO4    HW215863   2.495   2.073   4.869
 3966HO4     MW15864   2.434   2.071   4.789
 3967HO4     OW15865   3.336   5.108   8.495
 3967HO4    HW115866   3.238   5.089   8.481
 3967HO4    HW215867   3.358   5.199   8.458
 3967HO4     MW15868   3.336   5.108   8.495
 3968HO4     OW15869   0.522   7.676   0.073
 3968HO4    HW115870   0.464   7.681   0.155
 3968HO4    HW215871   0.464   7.683  -0.009
 3968HO4     MW15872   0.522   7.676   0.073
 3969HO4     OW15873   0.559   3.552   6.270
 3969HO4    HW115874   0.513   3.479   6.322
 3969HO4    HW215875   0.591   3.514   6.183
 3969HO4     MW15876   0.559   3.552   6.270
 3970HO4     OW15877   8.534   6.580   2.923
 3970HO4    HW115878   8.515   6.637   3.003
 3970HO4    HW215879   8.514   6.633   2.840
 3970HO4     MW15880   8.534   6.580   2.923
 3971HO4     OW15881   3.907   5.085   4.620
 3971HO4    HW115882   3.851   5.007   4.590
 3971HO4    HW215883   3.853   5.169   4.615
 3971HO4     MW15884   3.907   5.085   4.620
 3972HO4     OW15885   0.959   3.258   1.902
 3972HO4    HW115886   0.949   3.308   1.815
 3972HO4    HW215887   0.932   3.318   1.978
 3972HO4     MW15888   0.959   3.258   1.902
 3973HO4     OW15889   6.453   8.758   7.968
 3973HO4    HW115890   6.462   8.709   8.056
 3973HO4    HW215891   6.355   8.768   7.946
 3973HO4     MW15892   6.453   8.758   7.968
 3974HO4     OW15893   1.661   6.941   6.379
 3974HO4    HW115894   1.572   6.914   6.416
 3974HO4    HW215895   1.686   6.880   6.303
 3974HO4     MW15896   1.661   6.941   6.379
 3975HO4     OW15897   4.051   4.613   7.613
 3975HO4    HW115898   4.138   4.586   7.569
 3975HO4    HW215899   4.048   4.575   7.706
 3975HO4     MW15900   4.051   4.613   7.613
 3976HO4     OW15901   3.188   3.365   1.741
 3976HO4    HW115902   3.162   3.280   1.787
 3976HO4    HW215903   3.247   3.419   1.802
 3976HO4     MW15904   3.188   3.365   1.741
 3977HO4     OW15905   9.430   9.655   7.532
 3977HO4    HW115906   9.400   9.661   7.436
 3977HO4    HW215907   9.350   9.654   7.593
 3977HO4     MW15908   9.430   9.655   7.532
 3978HO4     OW15909   7.393   5.744   6.184
 3978HO4    HW115910   7.316   5.701   6.232
 3978HO4    HW215911   7.415   5.691   6.101
 3978HO4     MW15912   7.393   5.744   6.184
 3979HO4     OW15913   1.814   1.362   3.213
 3979HO4    HW115914   1.809   1.461   3.227
 3979HO4    HW215915   1.765   1.338   3.129
 3979HO4     MW15916   1.814   1.362   3.213
 3980HO4     OW15917   3.610   5.400   2.862
 3980HO4    HW115918   3.621   5.305   2.894
 3980HO4    HW215919   3.582   5.458   2.939
 3980HO4     MW15920   3.610   5.400   2.862
 3981HO4     OW15921   2.100   8.110   3.484
 3981HO4    HW115922   2.094   8.041   3.557
 3981HO4    HW215923   2.167   8.180   3.510
 3981HO4     MW15924   2.100   8.110   3.484
 3982HO4     OW15925   8.485   3.598   2.604
 3982HO4    HW115926   8.488   3.620   2.506
 3982HO4    HW215927   8.440   3.673   2.654
 3982HO4     MW15928   8.485   3.598   2.604
 3983HO4     OW15929   6.470   5.386   9.988
 3983HO4    HW115930   6.436   5.339  10.070
 3983HO4    HW215931   6.435   5.340   9.906
 3983HO4     MW15932   6.470   5.386   9.988
 3984HO4     OW15933   4.853   1.237   3.900
 3984HO4    HW115934   4.840   1.222   3.802
 3984HO4    HW215935   4.764   1.234   3.946
 3984HO4     MW15936   4.853   1.237   3.900
 3985HO4     OW15937   7.668   2.102   8.194
 3985HO4    HW115938   7.756   2.111   8.242
 3985HO4    HW215939   7.652   2.005   8.172
 3985HO4     MW15940   7.668   2.102   8.194
 3986HO4     OW15941   2.011   0.326   2.660
 3986HO4    HW115942   2.021   0.226   2.669
 3986HO4    HW215943   2.024   0.352   2.564
 3986HO4     MW15944   2.011   0.326   2.660
 3987HO4     OW15945   5.528   0.154   9.437
 3987HO4    HW115946   5.513   0.178   9.534
 3987HO4    HW215947   5.469   0.077   9.412
 3987HO4     MW15948   5.528   0.154   9.437
 3988HO4     OW15949   0.301   1.853   0.845
 3988HO4    HW115950   0.251   1.935   0.873
 3988HO4    HW215951   0.285   1.836   0.747
 3988HO4     MW15952   0.301   1.853   0.845
 3989HO4     OW15953   6.966   9.181   5.867
 3989HO4    HW115954   7.050   9.221   5.903
 3989HO4    HW215955   6.969   9.182   5.766
 3989HO4     MW15956   6.966   9.181   5.867
 3990HO4     OW15957   4.292   4.577   5.503
 3990HO4    HW115958   4.241   4.635   5.438
 3990HO4    HW215959   4.243   4.574   5.591
 3990HO4     MW15960   4.292   4.577   5.503
 3991HO4     OW15961   9.273   1.629   1.171
 3991HO4    HW115962   9.218   1.585   1.242
 3991HO4    HW215963   9.320   1.709   1.209
 3991HO4     MW15964   9.273   1.629   1.171
 3992HO4     OW15965   6.436   6.644   4.250
 3992HO4    HW115966   6.433   6.587   4.333
 3992HO4    HW215967   6.527   6.637   4.208
 3992HO4     MW15968   6.436   6.644   4.250
 3993HO4     OW15969   1.169   1.821   6.401
 3993HO4    HW115970   1.178   1.921   6.401
 3993HO4    HW215971   1.200   1.785   6.312
 3993HO4     MW15972   1.169   1.821   6.401
 3994HO4     OW15973   9.585   2.992   9.819
 3994HO4    HW115974   9.487   2.973   9.805
 3994HO4    HW215975   9.629   3.010   9.731
 3994HO4     MW15976   9.585   2.992   9.819
 3995HO4     OW15977   8.058   6.294   6.847
 3995HO4    HW115978   8.006   6.209   6.857
 3995HO4    HW215979   8.145   6.275   6.802
 3995HO4     MW15980   8.058   6.294   6.847
 3996HO4     OW15981   9.651   6.647   9.418
 3996HO4    HW115982   9.590   6.701   9.360
 3996HO4    HW215983   9.747   6.664   9.392
 3996HO4     MW15984   9.651   6.647   9.418
 3997HO4     OW15985   6.774   0.341   9.215
 3997HO4    HW115986   6.798   0.375   9.306
 3997HO4    HW215987   6.681   0.305   9.216
 3997HO4     MW15988   6.774   0.341   9.215
 3998HO4     OW15989   2.050   8.655   9.903
 3998HO4    HW115990   2.035   8.562   9.940
 3998HO4    HW215991   2.047   8.652   9.803
 3998HO4     MW15992   2.050   8.655   9.903
 3999HO4     OW15993   7.445   5.280   9.442
 3999HO4    HW115994   7.355   5.285   9.486
 3999HO4    HW215995   7.435   5.306   9.345
 3999HO4     MW15996   7.445   5.280   9.442
 4000HO4     OW15997   4.916   6.966   2.897
 4000HO4    HW115998   4.929   7.039   2.965
 4000HO4    HW215999   4.884   7.007   2.811
 4000HO4     MW16000   4.916   6.966   2.897
 4001HO4     OW16001   3.677   9.159   7.326
 4001HO4    HW116002   3.644   9.188   7.236
 4001HO4    HW216003   3.643   9.222   7.397
 4001HO4     MW16004   3.677   9.159   7.326
 4002HO4     OW16005   5.460   2.947   2.647
 4002HO4    HW116006   5.457   2.891   2.564
 4002HO4    HW216007   5.413   2.899   2.722
 4002HO4     MW16008   5.460   2.947   2.647
 4003HO4     OW16009   5.005   8.436   6.249
 4003HO4    HW116010   4.968   8.490   6.173
 4003HO4    HW216011   5.103   8.418   6.233
 4003HO4     MW16012   5.005   8.436   6.249
 4004HO4     OW16013   6.923   5.568   8.214
 4004HO4    HW116014   6.914   5.593   8.311
 4004HO4    HW216015   6.971   5.480   8.208
 4004HO4     MW16016   6.923   5.568   8.214
 4005HO4     OW16017   4.888   9.902   9.818
 4005HO4    HW116018   4.904   9.863   9.910
 4005HO4    HW216019   4.790   9.914   9.804
 4005HO4     MW16020   4.888   9.902   9.818
 4006HO4     OW16021   3.946   7.964   6.875
 4006HO4    HW116022   3.871   7.920   6.824
 4006HO4    HW216023   3.908   8.012   6.955
 4006HO4     MW16024   3.946   7.964   6.875
 4007HO4     OW16025   4.612   9.943   1.270
 4007HO4    HW116026   4.676  10.018   1.251
 4007HO4    HW216027   4.661   9.867   1.312
 4007HO4     MW16028   4.612   9.943   1.270
 4008HO4     OW16029   0.378   6.708   7.030
 4008HO4    HW116030   0.369   6.610   7.013
 4008HO4    HW216031   0.474   6.730   7.048
 4008HO4     MW16032   0.378   6.708   7.030
 4009HO4     OW16033   7.771   5.061   1.613
 4009HO4    HW116034   7.766   5.047   1.513
 4009HO4    HW216035   7.732   5.151   1.635
 4009HO4     MW16036   7.771   5.061   1.613
 4010HO4     OW16037   6.975   9.782   1.660
 4010HO4    HW116038   6.952   9.819   1.750
 4010HO4    HW216039   6.928   9.835   1.589
 4010HO4     MW16040   6.975   9.782   1.660
 4011HO4     OW16041   5.450   7.251   8.025
 4011HO4    HW116042   5.433   7.249   7.926
 4011HO4    HW216043   5.518   7.180   8.048
 4011HO4     MW16044   5.450   7.251   8.025
 4012HO4     OW16045   8.697   7.661   6.108
 4012HO4    HW116046   8.684   7.609   6.193
 4012HO4    HW216047   8.676   7.603   6.029
 4012HO4     MW16048   8.697   7.661   6.108
 4013HO4     OW16049   0.890   3.194   6.960
 4013HO4    HW116050   0.861   3.221   7.052
 4013HO4    HW216051   0.828   3.233   6.892
 4013HO4     MW16052   0.890   3.194   6.960
 4014HO4     OW16053   5.645   8.466   7.341
 4014HO4    HW116054   5.567   8.408   7.317
 4014HO4    HW216055   5.669   8.524   7.263
 4014HO4     MW16056   5.645   8.466   7.341
 4015HO4     OW16057   6.356   0.164   3.055
 4015HO4    HW116058   6.328   0.171   2.959
 4015HO4    HW216059   6.373   0.256   3.092
 4015HO4     MW16060   6.356   0.164   3.055
 4016HO4     OW16061   3.536   3.887   1.656
 4016HO4    HW116062   3.522   3.943   1.738
 4016HO4    HW216063   3.492   3.797   1.669
 4016HO4     MW16064   3.536   3.887   1.656
 4017HO4     OW16065   9.064   5.470   9.094
 4017HO4    HW116066   9.113   5.512   9.170
 4017HO4    HW216067   9.011   5.392   9.128
 4017HO4     MW16068   9.064   5.470   9.094
 4018HO4     OW16069   8.277   8.733   7.644
 4018HO4    HW116070   8.306   8.653   7.697
 4018HO4    HW216071   8.310   8.724   7.549
 4018HO4     MW16072   8.277   8.733   7.644
 4019HO4     OW16073   4.903   4.768   4.017
 4019HO4    HW116074   4.915   4.769   4.117
 4019HO4    HW216075   4.904   4.862   3.982
 4019HO4     MW16076   4.903   4.768   4.017
 4020HO4     OW16077   8.359   6.170   1.001
 4020HO4    HW116078   8.425   6.106   1.042
 4020HO4    HW216079   8.266   6.130   1.007
 4020HO4     MW16080   8.359   6.170   1.001
 4021HO4     OW16081   0.577   6.655   7.273
 4021HO4    HW116082   0.563   6.601   7.190
 4021HO4    HW216083   0.658   6.622   7.322
 4021HO4     MW16084   0.577   6.655   7.273
 4022HO4     OW16085   9.042   9.236   0.635
 4022HO4    HW116086   9.018   9.327   0.599
 4022HO4    HW216087   9.041   9.169   0.561
 4022HO4     MW16088   9.042   9.236   0.635
 4023HO4     OW16089   9.427   3.770   3.980
 4023HO4    HW116090   9.376   3.765   4.066
 4023HO4    HW216091   9.493   3.695   3.975
 4023HO4     MW16092   9.427   3.770   3.980
 4024HO4     OW16093   9.120   7.017   5.274
 4024HO4    HW116094   9.022   7.033   5.257
 4024HO4    HW216095   9.174   7.057   5.200
 4024HO4     MW16096   9.120   7.017   5.274
 4025HO4     OW16097   9.225   6.383   7.693
 4025HO4    HW116098   9.279   6.399   7.610
 4025HO4    HW216099   9.285   6.392   7.773
 4025HO4     MW16100   9.225   6.383   7.693
 4026HO4     OW16101   9.392   9.256   6.426
 4026HO4    HW116102   9.456   9.234   6.500
 4026HO4    HW216103   9.425   9.217   6.339
 4026HO4     MW16104   9.392   9.256   6.426
 4027HO4     OW16105   9.479   1.913   0.593
 4027HO4    HW116106   9.504   1.832   0.647
 4027HO4    HW216107   9.507   1.899   0.497
 4027HO4     MW16108   9.479   1.913   0.593
 4028HO4     OW16109   9.458   5.772   3.895
 4028HO4    HW116110   9.508   5.722   3.825
 4028HO4    HW216111   9.360   5.748   3.891
 4028HO4     MW16112   9.458   5.772   3.895
 4029HO4     OW16113   4.742   8.751   4.538
 4029HO4    HW116114   4.799   8.833   4.524
 4029HO4    HW216115   4.788   8.688   4.600
 4029HO4     MW16116   4.742   8.751   4.538
 4030HO4     OW16117   3.278   3.405   3.172
 4030HO4    HW116118   3.351   3.432   3.234
 4030HO4    HW216119   3.212   3.481   3.162
 4030HO4     MW16120   3.278   3.405   3.172
 4031HO4     OW16121   1.747   1.169   2.213
 4031HO4    HW116122   1.752   1.134   2.119
 4031HO4    HW216123   1.824   1.134   2.266
 4031HO4     MW16124   1.747   1.169   2.213
 4032HO4     OW16125   6.576   2.756   7.904
 4032HO4    HW116126   6.543   2.707   7.985
 4032HO4    HW216127   6.560   2.700   7.822
 4032HO4     MW16128   6.576   2.756   7.904
 4033HO4     OW16129   3.412   1.889   8.692
 4033HO4    HW116130   3.422   1.928   8.783
 4033HO4    HW216131   3.493   1.912   8.637
 4033HO4     MW16132   3.412   1.889   8.692
 4034HO4     OW16133   5.155   1.765   0.360
 4034HO4    HW116134   5.171   1.730   0.267
 4034HO4    HW216135   5.226   1.832   0.383
 4034HO4     MW16136   5.155   1.765   0.360
 4035HO4     OW16137   4.255   8.899   4.002
 4035HO4    HW116138   4.238   8.840   3.923
 4035HO4    HW216139   4.326   8.966   3.979
 4035HO4     MW16140   4.255   8.899   4.002
 4036HO4     OW16141   4.338   7.763   2.729
 4036HO4    HW116142   4.396   7.839   2.759
 4036HO4    HW216143   4.242   7.793   2.729
 4036HO4     MW16144   4.338   7.763   2.729
 4037HO4     OW16145   1.950  10.100   8.160
 4037HO4    HW116146   2.021  10.152   8.111
 4037HO4    HW216147   1.887  10.164   8.204
 4037HO4     MW16148   1.950  10.100   8.160
 4038HO4     OW16149   8.503   4.020   1.756
 4038HO4    HW116150   8.562   4.078   1.699
 4038HO4    HW216151   8.507   4.051   1.851
 4038HO4     MW16152   8.503   4.020   1.756
 4039HO4     OW16153   6.756   0.338   2.350
 4039HO4    HW116154   6.705   0.325   2.436
 4039HO4    HW216155   6.696   0.316   2.273
 4039HO4     MW16156   6.756   0.338   2.350
 4040HO4     OW16157   3.872   8.256   8.974
 4040HO4    HW116158   3.798   8.259   9.042
 4040HO4    HW216159   3.847   8.194   8.900
 4040HO4     MW16160   3.872   8.256   8.974
 4041HO4     OW16161   3.922   4.976   9.878
 4041HO4    HW116162   3.917   4.992   9.977
 4041HO4    HW216163   3.942   4.879   9.861
 4041HO4     MW16164   3.922   4.976   9.878
 4042HO4     OW16165   6.866   2.072   7.994
 4042HO4    HW116166   6.829   2.159   8.027
 4042HO4    HW216167   6.791   2.013   7.962
 4042HO4     MW16168   6.866   2.072   7.994
 4043HO4     OW16169   3.191   3.017   5.611
 4043HO4    HW116170   3.159   3.099   5.660
 4043HO4    HW216171   3.157   3.019   5.517
 4043HO4     MW16172   3.191   3.017   5.611
 4044HO4     OW16173   2.388   0.811   8.952
 4044HO4    HW116174   2.413   0.762   9.036
 4044HO4    HW216175   2.460   0.799   8.883
 4044HO4     MW16176   2.388   0.811   8.952
 4045HO4     OW16177  -0.022   7.690   0.206
 4045HO4    HW116178   0.051   7.710   0.273
 4045HO4    HW216179   0.016   7.636   0.131
 4045HO4     MW16180  -0.022   7.690   0.206
 4046HO4     OW16181   6.555   6.182   5.816
 4046HO4    HW116182   6.465   6.137   5.807
 4046HO4    HW216183   6.542   6.282   5.811
 4046HO4     MW16184   6.555   6.182   5.816
 4047HO4     OW16185   8.389   4.435   0.222
 4047HO4    HW116186   8.431   4.358   0.272
 4047HO4    HW216187   8.300   4.406   0.186
 4047HO4     MW16188   8.389   4.435   0.222
 4048HO4     OW16189   9.321   7.930   1.787
 4048HO4    HW116190   9.277   7.976   1.865
 4048HO4    HW216191   9.392   7.991   1.749
 4048HO4     MW16192   9.321   7.930   1.787
 4049HO4     OW16193   9.624   4.880   6.841
 4049HO4    HW116194   9.527   4.877   6.817
 4049HO4    HW216195   9.676   4.825   6.775
 4049HO4     MW16196   9.624   4.880   6.841
 4050HO4     OW16197   1.935   4.993   8.852
 4050HO4    HW116198   1.913   4.920   8.787
 4050HO4    HW216199   1.871   5.070   8.839
 4050HO4     MW16200   1.935   4.993   8.852
 4051HO4     OW16201   2.088   1.726   0.993
 4051HO4    HW116202   2.050   1.799   0.935
 4051HO4    HW216203   2.175   1.694   0.953
 4051HO4     MW16204   2.088   1.726   0.993
 4052HO4     OW16205   1.198   7.066   9.823
 4052HO4    HW116206   1.205   7.039   9.920
 4052HO4    HW216207   1.118   7.125   9.811
 4052HO4     MW16208   1.198   7.066   9.823
 4053HO4     OW16209   9.584   7.030   4.128
 4053HO4    HW116210   9.600   7.086   4.210
 4053HO4    HW216211   9.601   7.085   4.046
 4053HO4     MW16212   9.584   7.030   4.128
 4054HO4     OW16213   2.260   9.792   1.001
 4054HO4    HW116214   2.330   9.800   0.930
 4054HO4    HW216215   2.295   9.736   1.077
 4054HO4     MW16216   2.260   9.792   1.001
 4055HO4     OW16217   7.724   7.580   5.649
 4055HO4    HW116218   7.807   7.568   5.593
 4055HO4    HW216219   7.705   7.495   5.699
 4055HO4     MW16220   7.724   7.580   5.649
 4056HO4     OW16221   9.769   1.320   2.008
 4056HO4    HW116222   9.779   1.327   1.909
 4056HO4    HW216223   9.672   1.312   2.032
 4056HO4     MW16224   9.769   1.320   2.008
 4057HO4     OW16225   1.549   4.123   3.325
 4057HO4    HW116226   1.508   4.187   3.389
 4057HO4    HW216227   1.504   4.130   3.235
 4057HO4     MW16228   1.549   4.123   3.325
 4058HO4     OW16229   8.491   0.089   2.717
 4058HO4    HW116230   8.590   0.094   2.700
 4058HO4    HW216231   8.473   0.023   2.791
 4058HO4     MW16232   8.491   0.089   2.717
 4059HO4     OW16233   7.389   3.706   6.818
 4059HO4    HW116234   7.461   3.736   6.881
 4059HO4    HW216235   7.308   3.764   6.829
 4059HO4     MW16236   7.389   3.706   6.818
 4060HO4     OW16237   0.424   2.500  10.134
 4060HO4    HW116238   0.424   2.571  10.063
 4060HO4    HW216239   0.366   2.529  10.210
 4060HO4     MW16240   0.424   2.500  10.134
 4061HO4     OW16241   7.940   2.203   7.021
 4061HO4    HW116242   7.881   2.270   6.975
 4061HO4    HW216243   7.886   2.147   7.084
 4061HO4     MW16244   7.940   2.203   7.021
 4062HO4     OW16245   4.707   4.429   5.400
 4062HO4    HW116246   4.732   4.443   5.496
 4062HO4    HW216247   4.727   4.513   5.348
 4062HO4     MW16248   4.707   4.429   5.400
 4063HO4     OW16249   1.155   6.542   4.783
 4063HO4    HW116250   1.102   6.517   4.864
 4063HO4    HW216251   1.103   6.518   4.700
 4063HO4     MW16252   1.155   6.542   4.783
 4064HO4     OW16253   3.380   7.388   3.209
 4064HO4    HW116254   3.358   7.474   3.256
 4064HO4    HW216255   3.445   7.406   3.135
 4064HO4     MW16256   3.380   7.388   3.209
 4065HO4     OW16257   1.061   6.396   9.132
 4065HO4    HW116258   1.049   6.378   9.230
 4065HO4    HW216259   1.159   6.390   9.108
 4065HO4     MW16260   1.061   6.396   9.132
 4066HO4     OW16261   7.009   3.954   1.812
 4066HO4    HW116262   6.933   4.003   1.855
 4066HO4    HW216263   7.044   4.007   1.734
 4066HO4     MW16264   7.009   3.954   1.812
 4067HO4     OW16265   2.446   8.525   8.505
 4067HO4    HW116266   2.446   8.528   8.605
 4067HO4    HW216267   2.351   8.513   8.472
 4067HO4     MW16268   2.446   8.525   8.505
 4068HO4     OW16269   8.792   6.915   9.272
 4068HO4    HW116270   8.829   6.981   9.338
 4068HO4    HW216271   8.867   6.865   9.229
 4068HO4     MW16272   8.792   6.915   9.272
 4069HO4     OW16273   7.261   9.331   6.825
 4069HO4    HW116274   7.259   9.404   6.756
 4069HO4    HW216275   7.278   9.371   6.915
 4069HO4     MW16276   7.261   9.331   6.825
 4070HO4     OW16277   3.766   1.988   8.265
 4070HO4    HW116278   3.737   1.930   8.342
 4070HO4    HW216279   3.735   1.947   8.179
 4070HO4     MW16280   3.766   1.988   8.265
 4071HO4     OW16281   8.892   5.645   4.527
 4071HO4    HW116282   8.799   5.610   4.537
 4071HO4    HW216283   8.914   5.653   4.429
 4071HO4     MW16284   8.892   5.645   4.527
 4072HO4     OW16285   5.916   6.764   0.989
 4072HO4    HW116286   5.867   6.725   0.910
 4072HO4    HW216287   5.915   6.698   1.064
 4072HO4     MW16288   5.916   6.764   0.989
 4073HO4     OW16289   3.294   9.857   2.341
 4073HO4    HW116290   3.249   9.898   2.262
 4073HO4    HW216291   3.252   9.892   2.425
 4073HO4     MW16292   3.294   9.857   2.341
 4074HO4     OW16293   2.859   4.021   4.078
 4074HO4    HW116294   2.770   4.057   4.108
 4074HO4    HW216295   2.870   4.037   3.980
 4074HO4     MW16296   2.859   4.021   4.078
 4075HO4     OW16297   9.477   1.069   8.834
 4075HO4    HW116298   9.501   0.979   8.871
 4075HO4    HW216299   9.494   1.070   8.735
 4075HO4     MW16300   9.477   1.069   8.834
 4076HO4     OW16301   0.333   4.930   9.026
 4076HO4    HW116302   0.247   4.970   8.993
 4076HO4    HW216303   0.349   4.842   8.980
 4076HO4     MW16304   0.333   4.930   9.026
 4077HO4     OW16305   1.078   0.940   5.178
 4077HO4    HW116306   1.053   0.994   5.259
 4077HO4    HW216307   1.077   1.000   5.096
 4077HO4     MW16308   1.078   0.940   5.178
 4078HO4     OW16309   4.061   6.016   5.679
 4078HO4    HW116310   3.978   5.970   5.647
 4078HO4    HW216311   4.139   5.953   5.673
 4078HO4     MW16312   4.061   6.016   5.679
 4079HO4     OW16313   6.727   8.836   7.800
 4079HO4    HW116314   6.802   8.844   7.734
 4079HO4    HW216315   6.764   8.809   7.889
 4079HO4     MW16316   6.727   8.836   7.800
 4080HO4     OW16317   4.504   3.097   9.080
 4080HO4    HW116318   4.506   3.030   9.154
 4080HO4    HW216319   4.434   3.166   9.100
 4080HO4     MW16320   4.504   3.097   9.080
 4081HO4     OW16321   0.897   3.213   4.895
 4081HO4    HW116322   0.923   3.305   4.864
 4081HO4    HW216323   0.979   3.165   4.927
 4081HO4     MW16324   0.897   3.213   4.895
 4082HO4     OW16325   0.011   9.508   2.626
 4082HO4    HW116326   0.063   9.573   2.683
 4082HO4    HW216327  -0.075   9.484   2.672
 4082HO4     MW16328   0.011   9.508   2.626
 4083HO4     OW16329   3.089   8.385   1.945
 4083HO4    HW116330   3.075   8.285   1.943
 4083HO4    HW216331   3.001   8.430   1.961
 4083HO4     MW16332   3.089   8.385   1.945
 4084HO4     OW16333   3.363   2.536   7.163
 4084HO4    HW116334   3.424   2.545   7.242
 4084HO4    HW216335   3.383   2.609   7.097
 4084HO4     MW16336   3.363   2.536   7.163
 4085HO4     OW16337   7.823   5.923   9.127
 4085HO4    HW116338   7.781   6.011   9.148
 4085HO4    HW216339   7.834   5.915   9.027
 4085HO4     MW16340   7.823   5.923   9.127
 4086HO4     OW16341   7.034   1.161   0.532
 4086HO4    HW116342   7.118   1.107   0.546
 4086HO4    HW216343   7.058   1.257   0.517
 4086HO4     MW16344   7.034   1.161   0.532
 4087HO4     OW16345   4.414   9.134   8.533
 4087HO4    HW116346   4.375   9.080   8.608
 4087HO4    HW216347   4.426   9.076   8.452
 4087HO4     MW16348   4.414   9.134   8.533
 4088HO4     OW16349   7.560   7.463   6.610
 4088HO4    HW116350   7.625   7.487   6.683
 4088HO4    HW216351   7.479   7.522   6.617
 4088HO4     MW16352   7.560   7.463   6.610
 4089HO4     OW16353   1.909   0.397   2.241
 4089HO4    HW116354   1.893   0.328   2.312
 4089HO4    HW216355   1.935   0.351   2.155
 4089HO4     MW16356   1.909   0.397   2.241
 4090HO4     OW16357   2.028   3.871   4.644
 4090HO4    HW116358   1.983   3.897   4.729
 4090HO4    HW216359   2.014   3.942   4.575
 4090HO4     MW16360   2.028   3.871   4.644
 4091HO4     OW16361   6.554   0.463   2.627
 4091HO4    HW116362   6.528   0.421   2.539
 4091HO4    HW216363   6.486   0.439   2.696
 4091HO4     MW16364   6.554   0.463   2.627
 4092HO4     OW16365   0.192   6.664   7.772
 4092HO4    HW116366   0.235   6.579   7.805
 4092HO4    HW216367   0.103   6.676   7.816
 4092HO4     MW16368   0.192   6.664   7.772
 4093HO4     OW16369   9.040   9.844   5.412
 4093HO4    HW116370   8.968   9.839   5.481
 4093HO4    HW216371   8.999   9.857   5.321
 4093HO4     MW16372   9.040   9.844   5.412
 4094HO4     OW16373   0.393   9.184   0.771
 4094HO4    HW116374   0.323   9.183   0.699
 4094HO4    HW216375   0.481   9.153   0.732
 4094HO4     MW16376   0.393   9.184   0.771
 4095HO4     OW16377   7.983   6.412   7.930
 4095HO4    HW116378   7.942   6.410   8.022
 4095HO4    HW216379   7.997   6.318   7.898
 4095HO4     MW16380   7.983   6.412   7.930
 4096HO4     OW16381   9.083   5.374   3.032
 4096HO4    HW116382   9.097   5.313   3.111
 4096HO4    HW216383   9.092   5.320   2.947
 4096HO4     MW16384   9.083   5.374   3.032
 4097HO4     OW16385   8.534   1.310   2.864
 4097HO4    HW116386   8.596   1.301   2.941
 4097HO4    HW216387   8.487   1.399   2.869
 4097HO4     MW16388   8.534   1.310   2.864
 4098HO4     OW16389   9.669  -0.009   6.350
 4098HO4    HW116390   9.661   0.048   6.433
 4098HO4    HW216391   9.699   0.048   6.273
 4098HO4     MW16392   9.669  -0.009   6.350
 4099HO4     OW16393   1.900   5.024   5.894
 4099HO4    HW116394   1.871   5.064   5.806
 4099HO4    HW216395   1.873   4.927   5.897
 4099HO4     MW16396   1.900   5.024   5.894
 4100HO4     OW16397   0.082   9.779   3.696
 4100HO4    HW116398  -0.005   9.730   3.698
 4100HO4    HW216399   0.157   9.712   3.691
 4100HO4     MW16400   0.082   9.779   3.696
 4101HO4     OW16401   2.866   0.616   1.676
 4101HO4    HW116402   2.924   0.536   1.657
 4101HO4    HW216403   2.922   0.690   1.715
 4101HO4     MW16404   2.866   0.616   1.676
 4102HO4     OW16405   5.295   2.219   1.962
 4102HO4    HW116406   5.299   2.270   2.049
 4102HO4    HW216407   5.291   2.284   1.886
 4102HO4     MW16408   5.295   2.219   1.962
 4103HO4     OW16409   4.231   0.934   7.497
 4103HO4    HW116410   4.172   0.939   7.415
 4103HO4    HW216411   4.175   0.944   7.579
 4103HO4     MW16412   4.231   0.934   7.497
 4104HO4     OW16413   7.205   1.826   8.705
 4104HO4    HW116414   7.142   1.903   8.717
 4104HO4    HW216415   7.228   1.816   8.608
 4104HO4     MW16416   7.205   1.826   8.705
 4105HO4     OW16417   0.339   0.943   6.116
 4105HO4    HW116418   0.422   0.991   6.144
 4105HO4    HW216419   0.324   0.957   6.017
 4105HO4     MW16420   0.339   0.943   6.116
 4106HO4     OW16421   8.235   5.139   5.674
 4106HO4    HW116422   8.303   5.163   5.604
 4106HO4    HW216423   8.279   5.140   5.765
 4106HO4     MW16424   8.235   5.139   5.674
 4107HO4     OW16425   8.195   9.298   4.704
 4107HO4    HW116426   8.228   9.333   4.616
 4107HO4    HW216427   8.244   9.344   4.779
 4107HO4     MW16428   8.195   9.298   4.704
 4108HO4     OW16429   2.031   4.664   5.305
 4108HO4    HW116430   2.027   4.596   5.379
 4108HO4    HW216431   1.951   4.725   5.311
 4108HO4     MW16432   2.031   4.664   5.305
 4109HO4     OW16433   5.907   3.397   3.084
 4109HO4    HW116434   5.938   3.430   2.995
 4109HO4    HW216435   5.850   3.468   3.128
 4109HO4     MW16436   5.907   3.397   3.084
 4110HO4     OW16437   3.574   2.456   5.842
 4110HO4    HW116438   3.549   2.512   5.762
 4110HO4    HW216439   3.612   2.516   5.913
 4110HO4     MW16440   3.574   2.456   5.842
 4111HO4     OW16441   2.746   9.404   1.628
 4111HO4    HW116442   2.822   9.378   1.688
 4111HO4    HW216443   2.761   9.366   1.536
 4111HO4     MW16444   2.746   9.404   1.628
 4112HO4     OW16445   0.358   8.114   8.582
 4112HO4    HW116446   0.416   8.180   8.534
 4112HO4    HW216447   0.263   8.147   8.582
 4112HO4     MW16448   0.358   8.114   8.582
 4113HO4     OW16449   0.540   6.407   0.422
 4113HO4    HW116450   0.477   6.459   0.364
 4113HO4    HW216451   0.628   6.398   0.376
 4113HO4     MW16452   0.540   6.407   0.422
 4114HO4     OW16453   3.221   5.719   4.354
 4114HO4    HW116454   3.238   5.691   4.449
 4114HO4    HW216455   3.302   5.698   4.298
 4114HO4     MW16456   3.221   5.719   4.354
 4115HO4     OW16457   6.646   0.023   6.274
 4115HO4    HW116458   6.730   0.072   6.248
 4115HO4    HW216459   6.567   0.083   6.262
 4115HO4     MW16460   6.646   0.023   6.274
 4116HO4     OW16461  10.120   2.123   8.308
 4116HO4    HW116462  10.186   2.124   8.383
 4116HO4    HW216463  10.160   2.168   8.227
 4116HO4     MW16464  10.120   2.123   8.308
 4117HO4     OW16465   5.024   0.245   8.918
 4117HO4    HW116466   5.080   0.162   8.911
 4117HO4    HW216467   5.028   0.296   8.831
 4117HO4     MW16468   5.024   0.245   8.918
 4118HO4     OW16469   9.522   3.739   0.034
 4118HO4    HW116470   9.482   3.652   0.003
 4118HO4    HW216471   9.609   3.754  -0.015
 4118HO4     MW16472   9.522   3.739   0.034
 4119HO4     OW16473   8.896   3.091   1.260
 4119HO4    HW116474   8.934   3.171   1.307
 4119HO4    HW216475   8.927   3.090   1.165
 4119HO4     MW16476   8.896   3.091   1.260
 4120HO4     OW16477   9.008   3.459   7.350
 4120HO4    HW116478   8.934   3.475   7.283
 4120HO4    HW216479   8.979   3.388   7.415
 4120HO4     MW16480   9.008   3.459   7.350
 4121HO4     OW16481   3.787   7.989   9.903
 4121HO4    HW116482   3.857   8.011   9.972
 4121HO4    HW216483   3.699   8.029   9.930
 4121HO4     MW16484   3.787   7.989   9.903
 4122HO4     OW16485   1.778   4.824   2.418
 4122HO4    HW116486   1.853   4.783   2.366
 4122HO4    HW216487   1.690   4.793   2.379
 4122HO4     MW16488   1.778   4.824   2.418
 4123HO4     OW16489   2.929   7.073   1.327
 4123HO4    HW116490   2.896   7.154   1.279
 4123HO4    HW216491   2.860   7.043   1.395
 4123HO4     MW16492   2.929   7.073   1.327
 4124HO4     OW16493   2.631   5.735   0.671
 4124HO4    HW116494   2.670   5.802   0.607
 4124HO4    HW216495   2.670   5.749   0.762
 4124HO4     MW16496   2.631   5.735   0.671
 4125HO4     OW16497   2.979   7.503   3.044
 4125HO4    HW116498   3.002   7.459   2.956
 4125HO4    HW216499   3.020   7.450   3.119
 4125HO4     MW16500   2.979   7.503   3.044
 4126HO4     OW16501   1.968   1.452   0.605
 4126HO4    HW116502   2.042   1.514   0.578
 4126HO4    HW216503   1.959   1.452   0.705
 4126HO4     MW16504   1.968   1.452   0.605
 4127HO4     OW16505   1.697   4.552   9.418
 4127HO4    HW116506   1.629   4.573   9.348
 4127HO4    HW216507   1.770   4.495   9.378
 4127HO4     MW16508   1.697   4.552   9.418
 4128HO4     OW16509   7.472   2.671   9.061
 4128HO4    HW116510   7.548   2.627   9.109
 4128HO4    HW216511   7.385   2.632   9.093
 4128HO4     MW16512   7.472   2.671   9.061
 4129HO4     OW16513   0.582   3.164   1.214
 4129HO4    HW116514   0.545   3.111   1.291
 4129HO4    HW216515   0.549   3.124   1.127
 4129HO4     MW16516   0.582   3.164   1.214
 4130HO4     OW16517   5.590   9.347   7.176
 4130HO4    HW116518   5.585   9.397   7.088
 4130HO4    HW216519   5.546   9.257   7.165
 4130HO4     MW16520   5.590   9.347   7.176
 4131HO4     OW16521   5.222   2.742   8.910
 4131HO4    HW116522   5.208   2.646   8.936
 4131HO4    HW216523   5.167   2.762   8.828
 4131HO4     MW16524   5.222   2.742   8.910
 4132HO4     OW16525   2.109   4.201   8.630
 4132HO4    HW116526   2.113   4.128   8.561
 4132HO4    HW216527   2.160   4.281   8.596
 4132HO4     MW16528   2.109   4.201   8.630
 4133HO4     OW16529   3.487   0.473   5.012
 4133HO4    HW116530   3.426   0.538   4.965
 4133HO4    HW216531   3.470   0.477   5.111
 4133HO4     MW16532   3.487   0.473   5.012
 4134HO4     OW16533   0.782   0.907   0.834
 4134HO4    HW116534   0.751   0.819   0.872
 4134HO4    HW216535   0.760   0.911   0.736
 4134HO4     MW16536   0.782   0.907   0.834
 4135HO4     OW16537   8.550   0.854   6.380
 4135HO4    HW116538   8.614   0.802   6.439
 4135HO4    HW216539   8.562   0.952   6.398
 4135HO4     MW16540   8.550   0.854   6.380
 4136HO4     OW16541   3.352   8.397   6.857
 4136HO4    HW116542   3.404   8.311   6.864
 4136HO4    HW216543   3.299   8.410   6.942
 4136HO4     MW16544   3.352   8.397   6.857
 4137HO4     OW16545   6.295   6.658   7.064
 4137HO4    HW116546   6.373   6.716   7.089
 4137HO4    HW216547   6.240   6.705   6.993
 4137HO4     MW16548   6.295   6.658   7.064
 4138HO4     OW16549   3.216   3.093   5.155
 4138HO4    HW116550   3.310   3.125   5.167
 4138HO4    HW216551   3.169   3.152   5.088
 4138HO4     MW16552   3.216   3.093   5.155
 4139HO4     OW16553   3.040   5.311   1.566
 4139HO4    HW116554   3.046   5.269   1.474
 4139HO4    HW216555   3.003   5.244   1.630
 4139HO4     MW16556   3.040   5.311   1.566
 4140HO4     OW16557   7.994   9.932   7.467
 4140HO4    HW116558   7.936   9.944   7.386
 4140HO4    HW216559   8.039  10.019   7.488
 4140HO4     MW16560   7.994   9.932   7.467
 4141HO4     OW16561   6.555   6.484   8.031
 4141HO4    HW116562   6.604   6.454   7.949
 4141HO4    HW216563   6.576   6.423   8.107
 4141HO4     MW16564   6.555   6.484   8.031
 4142HO4     OW16565   6.824   6.396   5.382
 4142HO4    HW116566   6.812   6.366   5.287
 4142HO4    HW216567   6.790   6.324   5.444
 4142HO4     MW16568   6.824   6.396   5.382
 4143HO4     OW16569   2.368   3.887   9.445
 4143HO4    HW116570   2.347   3.821   9.518
 4143HO4    HW216571   2.322   3.858   9.360
 4143HO4     MW16572   2.368   3.887   9.445
 4144HO4     OW16573   1.634   9.235   4.568
 4144HO4    HW116574   1.551   9.288   4.548
 4144HO4    HW216575   1.713   9.282   4.529
 4144HO4     MW16576   1.634   9.235   4.568
 4145HO4     OW16577   7.184   3.977   7.620
 4145HO4    HW116578   7.172   3.998   7.718
 4145HO4    HW216579   7.204   4.062   7.571
 4145HO4     MW16580   7.184   3.977   7.620
 4146HO4     OW16581   2.807   2.332   4.963
 4146HO4    HW116582   2.851   2.242   4.973
 4146HO4    HW216583   2.764   2.338   4.872
 4146HO4     MW16584   2.807   2.332   4.963
 4147HO4     OW16585   2.506   8.025   2.074
 4147HO4    HW116586   2.569   8.042   1.997
 4147HO4    HW216587   2.418   8.070   2.057
 4147HO4     MW16588   2.506   8.025   2.074
 4148HO4     OW16589   4.280   3.948   1.983
 4148HO4    HW116590   4.380   3.944   1.973
 4148HO4    HW216591   4.246   4.036   1.948
 4148HO4     MW16592   4.280   3.948   1.983
 4149HO4     OW16593   6.846   8.496  10.055
 4149HO4    HW116594   6.939   8.494  10.093
 4149HO4    HW216595   6.844   8.448   9.968
 4149HO4     MW16596   6.846   8.496  10.055
 4150HO4     OW16597   4.021   7.507   4.417
 4150HO4    HW116598   4.067   7.454   4.345
 4150HO4    HW216599   4.026   7.604   4.395
 4150HO4     MW16600   4.021   7.507   4.417
 4151HO4     OW16601   2.643   0.253   4.725
 4151HO4    HW116602   2.581   0.331   4.734
 4151HO4    HW216603   2.731   0.284   4.688
 4151HO4     MW16604   2.643   0.253   4.725
 4152HO4     OW16605   3.931   1.894   4.639
 4152HO4    HW116606   3.886   1.960   4.578
 4152HO4    HW216607   4.026   1.882   4.610
 4152HO4     MW16608   3.931   1.894   4.639
 4153HO4     OW16609   1.925   9.446   1.024
 4153HO4    HW116610   1.833   9.433   0.986
 4153HO4    HW216611   1.955   9.360   1.067
 4153HO4     MW16612   1.925   9.446   1.024
 4154HO4     OW16613   1.295   4.947   9.181
 4154HO4    HW116614   1.238   5.013   9.132
 4154HO4    HW216615   1.392   4.971   9.171
 4154HO4     MW16616   1.295   4.947   9.181
 4155HO4     OW16617   7.139   4.539   1.963
 4155HO4    HW116618   7.146   4.439   1.967
 4155HO4    HW216619   7.049   4.567   1.999
 4155HO4     MW16620   7.139   4.539   1.963
 4156HO4     OW16621   7.248   3.190   3.187
 4156HO4    HW116622   7.236   3.186   3.087
 4156HO4    HW216623   7.171   3.240   3.228
 4156HO4     MW16624   7.248   3.190   3.187
 4157HO4     OW16625   8.790   5.520   9.546
 4157HO4    HW116626   8.774   5.523   9.645
 4157HO4    HW216627   8.734   5.591   9.501
 4157HO4     MW16628   8.790   5.520   9.546
 4158HO4     OW16629   4.934   0.233   8.659
 4158HO4    HW116630   4.879   0.192   8.585
 4158HO4    HW216631   4.905   0.196   8.747
 4158HO4     MW16632   4.934   0.233   8.659
 4159HO4     OW16633   5.473   2.146   8.004
 4159HO4    HW116634   5.418   2.217   8.050
 4159HO4    HW216635   5.424   2.113   7.923
 4159HO4     MW16636   5.473   2.146   8.004
 4160HO4     OW16637   0.122   8.613   2.046
 4160HO4    HW116638   0.064   8.571   1.976
 4160HO4    HW216639   0.101   8.574   2.136
 4160HO4     MW16640   0.122   8.613   2.046
 4161HO4     OW16641   7.110   1.682   8.342
 4161HO4    HW116642   7.067   1.756   8.290
 4161HO4    HW216643   7.201   1.662   8.303
 4161HO4     MW16644   7.110   1.682   8.342
 4162HO4     OW16645   7.912   7.561   6.304
 4162HO4    HW116646   7.837   7.582   6.367
 4162HO4    HW216647   7.876   7.513   6.223
 4162HO4     MW16648   7.912   7.561   6.304
 4163HO4     OW16649   8.081   7.882   2.307
 4163HO4    HW116650   8.090   7.808   2.240
 4163HO4    HW216651   8.069   7.969   2.258
 4163HO4     MW16652   8.081   7.882   2.307
 4164HO4     OW16653   3.094   8.083   6.297
 4164HO4    HW116654   3.066   8.126   6.383
 4164HO4    HW216655   3.041   7.999   6.283
 4164HO4     MW16656   3.094   8.083   6.297
 4165HO4     OW16657   6.739   8.922   0.704
 4165HO4    HW116658   6.658   8.941   0.760
 4165HO4    HW216659   6.779   9.008   0.671
 4165HO4     MW16660   6.739   8.922   0.704
 4166HO4     OW16661   5.332   6.815   6.993
 4166HO4    HW116662   5.424   6.782   6.971
 4166HO4    HW216663   5.319   6.907   6.954
 4166HO4     MW16664   5.332   6.815   6.993
 4167HO4     OW16665   0.975   6.971   2.828
 4167HO4    HW116666   0.914   7.042   2.865
 4167HO4    HW216667   0.942   6.880   2.857
 4167HO4     MW16668   0.975   6.971   2.828
 4168HO4     OW16669   4.466   6.098   6.936
 4168HO4    HW116670   4.379   6.049   6.924
 4168HO4    HW216671   4.468   6.178   6.876
 4168HO4     MW16672   4.466   6.098   6.936
 4169HO4     OW16673   5.059  10.037   6.975
 4169HO4    HW116674   5.113  10.058   7.057
 4169HO4    HW216675   5.112  10.059   6.893
 4169HO4     MW16676   5.059  10.037   6.975
 4170HO4     OW16677   9.054   6.443   0.319
 4170HO4    HW116678   9.137   6.420   0.371
 4170HO4    HW216679   9.073   6.437   0.221
 4170HO4     MW16680   9.054   6.443   0.319
 4171HO4     OW16681   4.051   5.234   3.445
 4171HO4    HW116682   3.985   5.262   3.515
 4171HO4    HW216683   4.002   5.222   3.357
 4171HO4     MW16684   4.051   5.234   3.445
 4172HO4     OW16685   3.039   1.672   2.513
 4172HO4    HW116686   3.130   1.686   2.552
 4172HO4    HW216687   2.970   1.675   2.586
 4172HO4     MW16688   3.039   1.672   2.513
 4173HO4     OW16689   6.644   9.776   2.733
 4173HO4    HW116690   6.621   9.755   2.828
 4173HO4    HW216691   6.722   9.720   2.704
 4173HO4     MW16692   6.644   9.776   2.733
 4174HO4     OW16693   4.994   0.972   2.940
 4174HO4    HW116694   4.964   1.024   2.859
 4174HO4    HW216695   4.973   1.024   3.023
 4174HO4     MW16696   4.994   0.972   2.940
 4175HO4     OW16697   0.705   0.933   7.706
 4175HO4    HW116698   0.758   0.911   7.788
 4175HO4    HW216699   0.756   0.903   7.625
 4175HO4     MW16700   0.705   0.933   7.706
 4176HO4     OW16701   1.920   8.951   4.162
 4176HO4    HW116702   1.888   8.892   4.088
 4176HO4    HW216703   2.008   8.917   4.197
 4176HO4     MW16704   1.920   8.951   4.162
 4177HO4     OW16705   1.825   7.003   8.147
 4177HO4    HW116706   1.841   7.078   8.213
 4177HO4    HW216707   1.913   6.970   8.112
 4177HO4     MW16708   1.825   7.003   8.147
 4178HO4     OW16709   0.662   9.302  10.105
 4178HO4    HW116710   0.704   9.341  10.022
 4178HO4    HW216711   0.697   9.350  10.186
 4178HO4     MW16712   0.662   9.302  10.105
 4179HO4     OW16713   3.120   1.730   5.559
 4179HO4    HW116714   3.218   1.752   5.561
 4179HO4    HW216715   3.106   1.642   5.514
 4179HO4     MW16716   3.120   1.730   5.559
 4180HO4     OW16717   0.180   1.806  10.114
 4180HO4    HW116718   0.223   1.716  10.121
 4180HO4    HW216719   0.117   1.819  10.192
 4180HO4     MW16720   0.180   1.806  10.114
 4181HO4     OW16721   1.392   7.973   5.784
 4181HO4    HW116722   1.473   8.031   5.771
 4181HO4    HW216723   1.322   8.024   5.834
 4181HO4     MW16724   1.392   7.973   5.784
 4182HO4     OW16725   5.225   0.521   6.536
 4182HO4    HW116726   5.283   0.535   6.455
 4182HO4    HW216727   5.229   0.603   6.594
 4182HO4     MW16728   5.225   0.521   6.536
 4183HO4     OW16729   9.873   6.613   5.302
 4183HO4    HW116730   9.930   6.552   5.247
 4183HO4    HW216731   9.919   6.701   5.313
 4183HO4     MW16732   9.873   6.613   5.302
 4184HO4     OW16733   3.399   0.240   7.288
 4184HO4    HW116734   3.308   0.207   7.263
 4184HO4    HW216735   3.467   0.168   7.270
 4184HO4     MW16736   3.399   0.240   7.288
 4185HO4     OW16737   6.346   2.388   2.055
 4185HO4    HW116738   6.443   2.407   2.072
 4185HO4    HW216739   6.323   2.297   2.090
 4185HO4     MW16740   6.346   2.388   2.055
 4186HO4     OW16741   5.319   4.524  10.055
 4186HO4    HW116742   5.333   4.515  10.154
 4186HO4    HW216743   5.336   4.435  10.011
 4186HO4     MW16744   5.319   4.524  10.055
 4187HO4     OW16745   8.428   8.384   2.894
 4187HO4    HW116746   8.399   8.432   2.811
 4187HO4    HW216747   8.528   8.387   2.901
 4187HO4     MW16748   8.428   8.384   2.894
 4188HO4     OW16749   9.214   6.265   4.939
 4188HO4    HW116750   9.252   6.297   4.852
 4188HO4    HW216751   9.138   6.324   4.967
 4188HO4     MW16752   9.214   6.265   4.939
 4189HO4     OW16753   0.695   4.826   0.621
 4189HO4    HW116754   0.723   4.778   0.704
 4189HO4    HW216755   0.775   4.873   0.582
 4189HO4     MW16756   0.695   4.826   0.621
 4190HO4     OW16757   0.402   7.890   9.671
 4190HO4    HW116758   0.384   7.885   9.572
 4190HO4    HW216759   0.335   7.833   9.720
 4190HO4     MW16760   0.402   7.890   9.671
 4191HO4     OW16761   1.778   1.717   1.400
 4191HO4    HW116762   1.844   1.672   1.461
 4191HO4    HW216763   1.698   1.746   1.452
 4191HO4     MW16764   1.778   1.717   1.400
 4192HO4     OW16765   5.997   5.783   1.982
 4192HO4    HW116766   5.974   5.863   2.038
 4192HO4    HW216767   6.065   5.810   1.913
 4192HO4     MW16768   5.997   5.783   1.982
 4193HO4     OW16769   2.610   7.566   9.557
 4193HO4    HW116770   2.575   7.616   9.637
 4193HO4    HW216771   2.546   7.492   9.533
 4193HO4     MW16772   2.610   7.566   9.557
 4194HO4     OW16773   8.635   7.815   1.049
 4194HO4    HW116774   8.685   7.827   1.136
 4194HO4    HW216775   8.668   7.882   0.982
 4194HO4     MW16776   8.635   7.815   1.049
 4195HO4     OW16777   9.375   3.183   4.371
 4195HO4    HW116778   9.394   3.263   4.429
 4195HO4    HW216779   9.381   3.100   4.427
 4195HO4     MW16780   9.375   3.183   4.371
 4196HO4     OW16781   9.329   7.112   3.072
 4196HO4    HW116782   9.350   7.109   2.974
 4196HO4    HW216783   9.233   7.138   3.085
 4196HO4     MW16784   9.329   7.112   3.072
 4197HO4     OW16785   9.646   3.385   3.837
 4197HO4    HW116786   9.561   3.364   3.788
 4197HO4    HW216787   9.625   3.424   3.927
 4197HO4     MW16788   9.646   3.385   3.837
 4198HO4     OW16789   8.228   0.670   8.927
 4198HO4    HW116790   8.239   0.729   9.007
 4198HO4    HW216791   8.207   0.726   8.846
 4198HO4     MW16792   8.228   0.670   8.927
 4199HO4     OW16793   5.319   4.809   9.723
 4199HO4    HW116794   5.349   4.858   9.805
 4199HO4    HW216795   5.294   4.875   9.652
 4199HO4     MW16796   5.319   4.809   9.723
 4200HO4     OW16797   0.309   6.254   1.276
 4200HO4    HW116798   0.287   6.165   1.234
 4200HO4    HW216799   0.341   6.318   1.205
 4200HO4     MW16800   0.309   6.254   1.276
 4201HO4     OW16801   3.991   2.175   8.373
 4201HO4    HW116802   3.972   2.103   8.440
 4201HO4    HW216803   4.047   2.247   8.415
 4201HO4     MW16804   3.991   2.175   8.373
 4202HO4     OW16805   7.480   3.930   9.410
 4202HO4    HW116806   7.489   3.958   9.314
 4202HO4    HW216807   7.518   4.001   9.470
 4202HO4     MW16808   7.480   3.930   9.410
 4203HO4     OW16809   9.688   2.504   6.500
 4203HO4    HW116810   9.691   2.465   6.593
 4203HO4    HW216811   9.692   2.429   6.433
 4203HO4     MW16812   9.688   2.504   6.500
 4204HO4     OW16813   7.832   3.552   7.952
 4204HO4    HW116814   7.906   3.553   7.885
 4204HO4    HW216815   7.861   3.599   8.035
 4204HO4     MW16816   7.832   3.552   7.952
 4205HO4     OW16817   5.652   3.264   8.307
 4205HO4    HW116818   5.618   3.307   8.391
 4205HO4    HW216819   5.577   3.214   8.262
 4205HO4     MW16820   5.652   3.264   8.307
 4206HO4     OW16821   5.234   1.847   5.074
 4206HO4    HW116822   5.254   1.866   5.171
 4206HO4    HW216823   5.304   1.889   5.016
 4206HO4     MW16824   5.234   1.847   5.074
 4207HO4     OW16825   3.483   9.589   9.282
 4207HO4    HW116826   3.498   9.653   9.358
 4207HO4    HW216827   3.530   9.622   9.200
 4207HO4     MW16828   3.483   9.589   9.282
 4208HO4     OW16829   8.075   6.687   8.228
 4208HO4    HW116830   8.061   6.596   8.267
 4208HO4    HW216831   8.173   6.701   8.210
 4208HO4     MW16832   8.075   6.687   8.228
 4209HO4     OW16833   4.037   2.616   3.767
 4209HO4    HW116834   4.005   2.539   3.712
 4209HO4    HW216835   4.069   2.583   3.856
 4209HO4     MW16836   4.037   2.616   3.767
 4210HO4     OW16837   8.320   4.648   5.185
 4210HO4    HW116838   8.353   4.709   5.257
 4210HO4    HW216839   8.372   4.665   5.101
 4210HO4     MW16840   8.320   4.648   5.185
 4211HO4     OW16841  10.027   6.492   8.996
 4211HO4    HW116842  10.086   6.535   8.927
 4211HO4    HW216843  10.079   6.479   9.081
 4211HO4     MW16844  10.027   6.492   8.996
 4212HO4     OW16845   6.518   8.420   5.013
 4212HO4    HW116846   6.585   8.354   5.046
 4212HO4    HW216847   6.432   8.373   4.992
 4212HO4     MW16848   6.518   8.420   5.013
 4213HO4     OW16849   0.641   5.852   0.382
 4213HO4    HW116850   0.630   5.804   0.295
 4213HO4    HW216851   0.570   5.821   0.447
 4213HO4     MW16852   0.641   5.852   0.382
 4214HO4     OW16853   9.455   5.211   8.321
 4214HO4    HW116854   9.469   5.283   8.252
 4214HO4    HW216855   9.361   5.178   8.317
 4214HO4     MW16856   9.455   5.211   8.321
 4215HO4     OW16857   1.463   3.639   8.792
 4215HO4    HW116858   1.543   3.676   8.838
 4215HO4    HW216859   1.413   3.713   8.746
 4215HO4     MW16860   1.463   3.639   8.792
 4216HO4     OW16861  10.113   8.323   4.522
 4216HO4    HW116862  10.159   8.412   4.516
 4216HO4    HW216863  10.179   8.254   4.553
 4216HO4     MW16864  10.113   8.323   4.522
 4217HO4     OW16865   3.439   2.415   3.454
 4217HO4    HW116866   3.519   2.364   3.486
 4217HO4    HW216867   3.462   2.463   3.369
 4217HO4     MW16868   3.439   2.415   3.454
 4218HO4     OW16869   7.564   8.842   0.645
 4218HO4    HW116870   7.534   8.900   0.722
 4218HO4    HW216871   7.531   8.881   0.559
 4218HO4     MW16872   7.564   8.842   0.645
 4219HO4     OW16873   1.528   1.991   2.327
 4219HO4    HW116874   1.512   1.935   2.245
 4219HO4    HW216875   1.626   1.997   2.345
 4219HO4     MW16876   1.528   1.991   2.327
 4220HO4     OW16877   2.961   2.758  -0.009
 4220HO4    HW116878   2.923   2.666  -0.026
 4220HO4    HW216879   2.927   2.792   0.079
 4220HO4     MW16880   2.961   2.758  -0.009
 4221HO4     OW16881   4.732   9.971   0.971
 4221HO4    HW116882   4.732   9.984   1.071
 4221HO4    HW216883   4.674  10.041   0.928
 4221HO4     MW16884   4.732   9.971   0.971
 4222HO4     OW16885   5.088   4.077   7.569
 4222HO4    HW116886   5.036   3.991   7.579
 4222HO4    HW216887   5.183   4.062   7.597
 4222HO4     MW16888   5.088   4.077   7.569
 4223HO4     OW16889   0.265   0.778   5.755
 4223HO4    HW116890   0.233   0.738   5.668
 4223HO4    HW216891   0.250   0.712   5.829
 4223HO4     MW16892   0.265   0.778   5.755
 4224HO4     OW16893   2.924   9.851   9.451
 4224HO4    HW116894   2.936   9.790   9.373
 4224HO4    HW216895   2.871   9.804   9.523
 4224HO4     MW16896   2.924   9.851   9.451
 4225HO4     OW16897   1.326   4.710   6.842
 4225HO4    HW116898   1.280   4.659   6.769
 4225HO4    HW216899   1.260   4.732   6.914
 4225HO4     MW16900   1.326   4.710   6.842
 4226HO4     OW16901   1.215   7.383   4.665
 4226HO4    HW116902   1.307   7.391   4.626
 4226HO4    HW216903   1.209   7.438   4.748
 4226HO4     MW16904   1.215   7.383   4.665
 4227HO4     OW16905   1.856   6.030   5.571
 4227HO4    HW116906   1.790   5.975   5.520
 4227HO4    HW216907   1.824   6.125   5.575
 4227HO4     MW16908   1.856   6.030   5.571
 4228HO4     OW16909   7.820   3.904   5.626
 4228HO4    HW116910   7.754   3.861   5.564
 4228HO4    HW216911   7.783   3.905   5.720
 4228HO4     MW16912   7.820   3.904   5.626
 4229HO4     OW16913   3.869   0.757   9.037
 4229HO4    HW116914   3.917   0.767   9.125
 4229HO4    HW216915   3.928   0.791   8.963
 4229HO4     MW16916   3.869   0.757   9.037
 4230HO4     OW16917   5.752   4.888   2.492
 4230HO4    HW116918   5.799   4.921   2.574
 4230HO4    HW216919   5.800   4.919   2.410
 4230HO4     MW16920   5.752   4.888   2.492
 4231HO4     OW16921   0.086   5.877   1.041
 4231HO4    HW116922   0.169   5.934   1.034
 4231HO4    HW216923   0.005   5.936   1.041
 4231HO4     MW16924   0.086   5.877   1.041
 4232HO4     OW16925   8.996   2.412   8.757
 4232HO4    HW116926   8.912   2.405   8.812
 4232HO4    HW216927   9.017   2.323   8.715
 4232HO4     MW16928   8.996   2.412   8.757
 4233HO4     OW16929   2.924   9.253   6.061
 4233HO4    HW116930   2.980   9.248   6.145
 4233HO4    HW216931   2.848   9.316   6.076
 4233HO4     MW16932   2.924   9.253   6.061
 4234HO4     OW16933   5.426   3.665   2.121
 4234HO4    HW116934   5.377   3.671   2.208
 4234HO4    HW216935   5.508   3.607   2.132
 4234HO4     MW16936   5.426   3.665   2.121
 4235HO4     OW16937   6.565   3.984   5.725
 4235HO4    HW116938   6.544   3.963   5.629
 4235HO4    HW216939   6.525   4.073   5.749
 4235HO4     MW16940   6.565   3.984   5.725
 4236HO4     OW16941   7.617   7.768   6.611
 4236HO4    HW116942   7.665   7.681   6.596
 4236HO4    HW216943   7.684   7.839   6.635
 4236HO4     MW16944   7.617   7.768   6.611
 4237HO4     OW16945   2.676   4.634   9.129
 4237HO4    HW116946   2.763   4.607   9.086
 4237HO4    HW216947   2.692   4.710   9.192
 4237HO4     MW16948   2.676   4.634   9.129
 4238HO4     OW16949   0.761   1.785   3.813
 4238HO4    HW116950   0.792   1.794   3.908
 4238HO4    HW216951   0.834   1.815   3.751
 4238HO4     MW16952   0.761   1.785   3.813
 4239HO4     OW16953   3.001   6.581   9.723
 4239HO4    HW116954   3.043   6.600   9.633
 4239HO4    HW216955   2.939   6.502   9.715
 4239HO4     MW16956   3.001   6.581   9.723
 4240HO4     OW16957   7.920   0.865   2.133
 4240HO4    HW116958   7.864   0.912   2.201
 4240HO4    HW216959   8.001   0.825   2.178
 4240HO4     MW16960   7.920   0.865   2.133
 4241HO4     OW16961   7.651   2.305   0.979
 4241HO4    HW116962   7.621   2.361   1.057
 4241HO4    HW216963   7.642   2.357   0.894
 4241HO4     MW16964   7.651   2.305   0.979
 4242HO4     OW16965   2.798   7.577   8.819
 4242HO4    HW116966   2.873   7.599   8.755
 4242HO4    HW216967   2.831   7.511   8.888
 4242HO4     MW16968   2.798   7.577   8.819
 4243HO4     OW16969   7.424   9.063   3.927
 4243HO4    HW116970   7.508   9.093   3.881
 4243HO4    HW216971   7.442   9.050   4.024
 4243HO4     MW16972   7.424   9.063   3.927
 4244HO4     OW16973   3.850   2.256   2.506
 4244HO4    HW116974   3.829   2.310   2.424
 4244HO4    HW216975   3.831   2.310   2.588
 4244HO4     MW16976   3.850   2.256   2.506
 4245HO4     OW16977   5.579   9.771   2.109
 4245HO4    HW116978   5.594   9.772   2.208
 4245HO4    HW216979   5.481   9.753   2.091
 4245HO4     MW16980   5.579   9.771   2.109
 4246HO4     OW16981   2.994   0.934   6.510
 4246HO4    HW116982   3.037   0.854   6.467
 4246HO4    HW216983   3.037   0.953   6.598
 4246HO4     MW16984   2.994   0.934   6.510
 4247HO4     OW16985   4.118   1.885   5.191
 4247HO4    HW116986   4.117   1.983   5.167
 4247HO4    HW216987   4.055   1.868   5.267
 4247HO4     MW16988   4.118   1.885   5.191
 4248HO4     OW16989   2.620   7.461   2.945
 4248HO4    HW116990   2.697   7.397   2.941
 4248HO4    HW216991   2.553   7.429   3.013
 4248HO4     MW16992   2.620   7.461   2.945
 4249HO4     OW16993   1.715   6.534   6.192
 4249HO4    HW116994   1.796   6.478   6.209
 4249HO4    HW216995   1.642   6.509   6.256
 4249HO4     MW16996   1.715   6.534   6.192
 4250HO4     OW16997   3.585   5.273   7.521
 4250HO4    HW116998   3.513   5.230   7.576
 4250HO4    HW216999   3.597   5.223   7.434
 4250HO4     MW17000   3.585   5.273   7.521
 4251HO4     OW17001   9.271   3.924   3.950
 4251HO4    HW117002   9.186   3.883   3.985
 4251HO4    HW217003   9.328   3.953   4.027
 4251HO4     MW17004   9.271   3.924   3.950
 4252HO4     OW17005   1.468   6.739   3.576
 4252HO4    HW117006   1.403   6.666   3.599
 4252HO4    HW217007   1.418   6.822   3.549
 4252HO4     MW17008   1.468   6.739   3.576
 4253HO4     OW17009   8.052   0.884   7.672
 4253HO4    HW117010   8.004   0.920   7.752
 4253HO4    HW217011   8.137   0.935   7.658
 4253HO4     MW17012   8.052   0.884   7.672
 4254HO4     OW17013   4.691   3.384   7.074
 4254HO4    HW117014   4.693   3.284   7.067
 4254HO4    HW217015   4.779   3.416   7.111
 4254HO4     MW17016   4.691   3.384   7.074
 4255HO4     OW17017   4.786   4.527   3.618
 4255HO4    HW117018   4.744   4.580   3.692
 4255HO4    HW217019   4.714   4.477   3.568
 4255HO4     MW17020   4.786   4.527   3.618
 4256HO4     OW17021   5.242   2.029   1.485
 4256HO4    HW117022   5.305   1.967   1.438
 4256HO4    HW217023   5.255   2.020   1.584
 4256HO4     MW17024   5.242   2.029   1.485
 4257HO4     OW17025   6.344   1.176   2.425
 4257HO4    HW117026   6.352   1.264   2.377
 4257HO4    HW217027   6.343   1.101   2.357
 4257HO4     MW17028   6.344   1.176   2.425
 4258HO4     OW17029   2.051   6.342   2.753
 4258HO4    HW117030   2.015   6.379   2.667
 4258HO4    HW217031   1.975   6.317   2.813
 4258HO4     MW17032   2.051   6.342   2.753
 4259HO4     OW17033   3.073   1.366   4.108
 4259HO4    HW117034   3.122   1.279   4.103
 4259HO4    HW217035   3.060   1.391   4.205
 4259HO4     MW17036   3.073   1.366   4.108
 4260HO4     OW17037   6.207   9.976   2.702
 4260HO4    HW117038   6.267   9.898   2.683
 4260HO4    HW217039   6.123   9.944   2.747
 4260HO4     MW17040   6.207   9.976   2.702
 4261HO4     OW17041   8.847   1.308   8.036
 4261HO4    HW117042   8.763   1.361   8.024
 4261HO4    HW217043   8.923   1.369   8.059
 4261HO4     MW17044   8.847   1.308   8.036
 4262HO4     OW17045   7.669   9.436   1.209
 4262HO4    HW117046   7.585   9.381   1.219
 4262HO4    HW217047   7.726   9.397   1.136
 4262HO4     MW17048   7.669   9.436   1.209
 4263HO4     OW17049   0.284   0.080   6.235
 4263HO4    HW117050   0.331  -0.009   6.222
 4263HO4    HW217051   0.350   0.154   6.223
 4263HO4     MW17052   0.284   0.080   6.235
 4264HO4     OW17053   4.669   5.337   6.240
 4264HO4    HW117054   4.608   5.347   6.161
 4264HO4    HW217055   4.679   5.239   6.263
 4264HO4     MW17056   4.669   5.337   6.240
 4265HO4     OW17057   1.863   8.860   5.548
 4265HO4    HW117058   1.814   8.887   5.465
 4265HO4    HW217059   1.954   8.901   5.548
 4265HO4     MW17060   1.863   8.860   5.548
 4266HO4     OW17061   4.963   9.436   0.620
 4266HO4    HW117062   4.997   9.342   0.618
 4266HO4    HW217063   4.882   9.440   0.679
 4266HO4     MW17064   4.963   9.436   0.620
 4267HO4     OW17065   9.217   9.382   5.168
 4267HO4    HW117066   9.177   9.409   5.256
 4267HO4    HW217067   9.148   9.387   5.096
 4267HO4     MW17068   9.217   9.382   5.168
 4268HO4     OW17069   6.940   1.947   1.050
 4268HO4    HW117070   6.922   1.899   1.136
 4268HO4    HW217071   6.908   1.892   0.973
 4268HO4     MW17072   6.940   1.947   1.050
 4269HO4     OW17073   2.189   3.074   0.908
 4269HO4    HW117074   2.278   3.029   0.902
 4269HO4    HW217075   2.199   3.164   0.952
 4269HO4     MW17076   2.189   3.074   0.908
 4270HO4     OW17077  10.091   6.675   7.574
 4270HO4    HW117078  10.080   6.761   7.623
 4270HO4    HW217079  10.148   6.690   7.493
 4270HO4     MW17080  10.091   6.675   7.574
 4271HO4     OW17081   8.257   3.037   0.775
 4271HO4    HW117082   8.163   3.002   0.787
 4271HO4    HW217083   8.275   3.052   0.678
 4271HO4     MW17084   8.257   3.037   0.775
 4272HO4     OW17085   1.475   1.786   4.363
 4272HO4    HW117086   1.523   1.870   4.391
 4272HO4    HW217087   1.476   1.778   4.263
 4272HO4     MW17088   1.475   1.786   4.363
 4273HO4     OW17089   7.360   8.853   0.149
 4273HO4    HW117090   7.439   8.797   0.175
 4273HO4    HW217091   7.312   8.809   0.073
 4273HO4     MW17092   7.360   8.853   0.149
 4274HO4     OW17093   3.454   5.236   9.061
 4274HO4    HW117094   3.494   5.178   9.132
 4274HO4    HW217095   3.482   5.202   8.970
 4274HO4     MW17096   3.454   5.236   9.061
 4275HO4     OW17097   5.757   5.278   4.590
 4275HO4    HW117098   5.796   5.298   4.500
 4275HO4    HW217099   5.733   5.365   4.636
 4275HO4     MW17100   5.757   5.278   4.590
 4276HO4     OW17101   1.616   3.797   7.641
 4276HO4    HW117102   1.662   3.809   7.729
 4276HO4    HW217103   1.664   3.851   7.571
 4276HO4     MW17104   1.616   3.797   7.641
 4277HO4     OW17105   2.627   8.843   5.202
 4277HO4    HW117106   2.703   8.859   5.266
 4277HO4    HW217107   2.658   8.781   5.129
 4277HO4     MW17108   2.627   8.843   5.202
 4278HO4     OW17109   6.926   2.367   0.350
 4278HO4    HW117110   6.973   2.416   0.277
 4278HO4    HW217111   6.993   2.331   0.415
 4278HO4     MW17112   6.926   2.367   0.350
 4279HO4     OW17113   5.992   5.336   9.382
 4279HO4    HW117114   5.955   5.428   9.393
 4279HO4    HW217115   5.923   5.268   9.409
 4279HO4     MW17116   5.992   5.336   9.382
 4280HO4     OW17117   4.706   8.741   5.707
 4280HO4    HW117118   4.690   8.839   5.695
 4280HO4    HW217119   4.761   8.706   5.631
 4280HO4     MW17120   4.706   8.741   5.707
 4281HO4     OW17121   2.210   5.626   8.329
 4281HO4    HW117122   2.236   5.668   8.241
 4281HO4    HW217123   2.241   5.685   8.404
 4281HO4     MW17124   2.210   5.626   8.329
 4282HO4     OW17125   7.254   7.575   1.334
 4282HO4    HW117126   7.213   7.667   1.338
 4282HO4    HW217127   7.203   7.518   1.269
 4282HO4     MW17128   7.254   7.575   1.334
 4283HO4     OW17129  10.014   0.602   6.711
 4283HO4    HW117130  10.074   0.662   6.657
 4283HO4    HW217131  10.049   0.596   6.805
 4283HO4     MW17132  10.014   0.602   6.711
 4284HO4     OW17133   8.999   4.681   4.201
 4284HO4    HW117134   9.043   4.720   4.283
 4284HO4    HW217135   9.045   4.718   4.119
 4284HO4     MW17136   8.999   4.681   4.201
 4285HO4     OW17137   8.336   3.185   0.344
 4285HO4    HW117138   8.425   3.182   0.389
 4285HO4    HW217139   8.265   3.156   0.409
 4285HO4     MW17140   8.336   3.185   0.344
 4286HO4     OW17141  10.007   8.245   5.769
 4286HO4    HW117142  10.074   8.303   5.814
 4286HO4    HW217143   9.926   8.235   5.828
 4286HO4     MW17144  10.007   8.245   5.769
 4287HO4     OW17145   6.017   6.980   2.948
 4287HO4    HW117146   6.024   7.040   2.867
 4287HO4    HW217147   6.015   7.037   3.031
 4287HO4     MW17148   6.017   6.980   2.948
 4288HO4     OW17149   3.883   1.608   2.056
 4288HO4    HW117150   3.826   1.581   2.134
 4288HO4    HW217151   3.838   1.580   1.970
 4288HO4     MW17152   3.883   1.608   2.056
 4289HO4     OW17153   0.195   6.326   7.323
 4289HO4    HW117154   0.178   6.236   7.281
 4289HO4    HW217155   0.290   6.330   7.354
 4289HO4     MW17156   0.195   6.326   7.323
 4290HO4     OW17157   3.885   3.701   3.533
 4290HO4    HW117158   3.885   3.724   3.436
 4290HO4    HW217159   3.791   3.690   3.565
 4290HO4     MW17160   3.885   3.701   3.533
 4291HO4     OW17161   4.268   7.192   5.738
 4291HO4    HW117162   4.269   7.251   5.819
 4291HO4    HW217163   4.275   7.249   5.655
 4291HO4     MW17164   4.268   7.192   5.738
 4292HO4     OW17165   2.570   7.575   4.086
 4292HO4    HW117166   2.501   7.634   4.131
 4292HO4    HW217167   2.592   7.498   4.145
 4292HO4     MW17168   2.570   7.575   4.086
 4293HO4     OW17169   7.769  10.117  10.024
 4293HO4    HW117170   7.760  10.135  10.123
 4293HO4    HW217171   7.728  10.028  10.002
 4293HO4     MW17172   7.769  10.117  10.024
 4294HO4     OW17173   9.757   9.296   1.359
 4294HO4    HW117174   9.813   9.275   1.278
 4294HO4    HW217175   9.816   9.326   1.434
 4294HO4     MW17176   9.757   9.296   1.359
 4295HO4     OW17177   3.211   3.420   9.601
 4295HO4    HW117178   3.234   3.372   9.686
 4295HO4    HW217179   3.174   3.355   9.534
 4295HO4     MW17180   3.211   3.420   9.601
 4296HO4     OW17181   4.583   4.028   5.134
 4296HO4    HW117182   4.650   3.981   5.192
 4296HO4    HW217183   4.611   4.021   5.038
 4296HO4     MW17184   4.583   4.028   5.134
 4297HO4     OW17185   5.386   8.763   0.627
 4297HO4    HW117186   5.311   8.791   0.566
 4297HO4    HW217187   5.351   8.752   0.721
 4297HO4     MW17188   5.386   8.763   0.627
 4298HO4     OW17189   8.626   4.673   0.304
 4298HO4    HW117190   8.687   4.688   0.226
 4298HO4    HW217191   8.575   4.757   0.323
 4298HO4     MW17192   8.626   4.673   0.304
 4299HO4     OW17193   4.410   6.789   4.718
 4299HO4    HW117194   4.386   6.812   4.813
 4299HO4    HW217195   4.330   6.800   4.659
 4299HO4     MW17196   4.410   6.789   4.718
 4300HO4     OW17197   4.584   9.704   0.246
 4300HO4    HW117198   4.530   9.760   0.183
 4300HO4    HW217199   4.647   9.646   0.193
 4300HO4     MW17200   4.584   9.704   0.246
 4301HO4     OW17201   5.964   6.442   2.093
 4301HO4    HW117202   5.912   6.400   2.018
 4301HO4    HW217203   5.950   6.388   2.177
 4301HO4     MW17204   5.964   6.442   2.093
 4302HO4     OW17205   7.238   0.024   7.190
 4302HO4    HW117206   7.215   0.019   7.092
 4302HO4    HW217207   7.190   0.102   7.232
 4302HO4     MW17208   7.238   0.024   7.190
 4303HO4     OW17209   0.950   8.725   2.347
 4303HO4    HW117210   0.963   8.793   2.420
 4303HO4    HW217211   0.941   8.773   2.259
 4303HO4     MW17212   0.950   8.725   2.347
 4304HO4     OW17213   7.764   8.013   7.652
 4304HO4    HW117214   7.677   8.000   7.701
 4304HO4    HW217215   7.745   8.029   7.555
 4304HO4     MW17216   7.764   8.013   7.652
 4305HO4     OW17217   4.685   3.323   8.511
 4305HO4    HW117218   4.635   3.353   8.429
 4305HO4    HW217219   4.637   3.354   8.593
 4305HO4     MW17220   4.685   3.323   8.511
 4306HO4     OW17221   5.633   0.768   1.635
 4306HO4    HW117222   5.600   0.695   1.695
 4306HO4    HW217223   5.566   0.784   1.562
 4306HO4     MW17224   5.633   0.768   1.635
 4307HO4     OW17225   5.670   8.083   2.318
 4307HO4    HW117226   5.601   8.015   2.289
 4307HO4    HW217227   5.689   8.145   2.242
 4307HO4     MW17228   5.670   8.083   2.318
 4308HO4     OW17229   5.574   3.052   1.333
 4308HO4    HW117230   5.619   2.963   1.317
 4308HO4    HW217231   5.639   3.116   1.375
 4308HO4     MW17232   5.574   3.052   1.333
 4309HO4     OW17233   2.978   3.527   8.562
 4309HO4    HW117234   2.957   3.607   8.620
 4309HO4    HW217235   3.009   3.558   8.472
 4309HO4     MW17236   2.978   3.527   8.562
 4310HO4     OW17237   5.347   7.822   8.856
 4310HO4    HW117238   5.313   7.901   8.908
 4310HO4    HW217239   5.272   7.786   8.799
 4310HO4     MW17240   5.347   7.822   8.856
 4311HO4     OW17241   5.824   8.009   8.986
 4311HO4    HW117242   5.774   8.068   9.050
 4311HO4    HW217243   5.774   7.922   8.975
 4311HO4     MW17244   5.824   8.009   8.986
 4312HO4     OW17245   9.926   3.672   1.490
 4312HO4    HW117246   9.987   3.669   1.570
 4312HO4    HW217247   9.981   3.668   1.406
 4312HO4     MW17248   9.926   3.672   1.490
 4313HO4     OW17249   8.819   7.591   9.570
 4313HO4    HW117250   8.864   7.502   9.576
 4313HO4    HW217251   8.844   7.646   9.651
 4313HO4     MW17252   8.819   7.591   9.570
 4314HO4     OW17253   3.224   8.396   2.601
 4314HO4    HW117254   3.136   8.357   2.573
 4314HO4    HW217255   3.218   8.496   2.600
 4314HO4     MW17256   3.224   8.396   2.601
 4315HO4     OW17257   4.497   3.338   2.398
 4315HO4    HW117258   4.566   3.327   2.470
 4315HO4    HW217259   4.532   3.401   2.327
 4315HO4     MW17260   4.497   3.338   2.398
 4316HO4     OW17261   4.717   0.755   1.822
 4316HO4    HW117262   4.663   0.827   1.778
 4316HO4    HW217263   4.779   0.796   1.889
 4316HO4     MW17264   4.717   0.755   1.822
 4317HO4     OW17265   5.913   4.021   9.651
 4317HO4    HW117266   5.866   3.985   9.569
 4317HO4    HW217267   5.852   4.012   9.730
 4317HO4     MW17268   5.913   4.021   9.651
 4318HO4     OW17269   4.470   7.901   7.285
 4318HO4    HW117270   4.455   7.955   7.368
 4318HO4    HW217271   4.569   7.894   7.267
 4318HO4     MW17272   4.470   7.901   7.285
 4319HO4     OW17273   1.576   4.235   7.964
 4319HO4    HW117274   1.607   4.307   8.027
 4319HO4    HW217275   1.566   4.273   7.872
 4319HO4     MW17276   1.576   4.235   7.964
 4320HO4     OW17277   6.288   5.780   2.852
 4320HO4    HW117278   6.299   5.752   2.948
 4320HO4    HW217279   6.366   5.747   2.799
 4320HO4     MW17280   6.288   5.780   2.852
 4321HO4     OW17281   8.533   2.115   5.920
 4321HO4    HW117282   8.610   2.131   5.983
 4321HO4    HW217283   8.492   2.202   5.893
 4321HO4     MW17284   8.533   2.115   5.920
 4322HO4     OW17285   8.103   4.208   6.819
 4322HO4    HW117286   8.153   4.247   6.740
 4322HO4    HW217287   8.066   4.283   6.875
 4322HO4     MW17288   8.103   4.208   6.819
 4323HO4     OW17289   4.216   6.479   4.715
 4323HO4    HW117290   4.193   6.568   4.675
 4323HO4    HW217291   4.314   6.477   4.739
 4323HO4     MW17292   4.216   6.479   4.715
 4324HO4     OW17293   1.019   4.271   7.493
 4324HO4    HW117294   1.058   4.298   7.404
 4324HO4    HW217295   1.001   4.353   7.548
 4324HO4     MW17296   1.019   4.271   7.493
 4325HO4     OW17297   8.564   9.546   7.966
 4325HO4    HW117298   8.517   9.457   7.958
 4325HO4    HW217299   8.517   9.603   8.034
 4325HO4     MW17300   8.564   9.546   7.966
 4326HO4     OW17301   9.362   9.944   9.679
 4326HO4    HW117302   9.263   9.961   9.677
 4326HO4    HW217303   9.401   9.958   9.587
 4326HO4     MW17304   9.362   9.944   9.679
 4327HO4     OW17305   7.705   3.954   6.203
 4327HO4    HW117306   7.783   3.932   6.262
 4327HO4    HW217307   7.732   3.941   6.107
 4327HO4     MW17308   7.705   3.954   6.203
 4328HO4     OW17309   8.307   4.675   4.337
 4328HO4    HW117310   8.351   4.696   4.424
 4328HO4    HW217311   8.362   4.711   4.261
 4328HO4     MW17312   8.307   4.675   4.337
 4329HO4     OW17313   0.257   5.739   4.191
 4329HO4    HW117314   0.311   5.751   4.274
 4329HO4    HW217315   0.316   5.754   4.111
 4329HO4     MW17316   0.257   5.739   4.191
 4330HO4     OW17317   4.139   4.369   3.332
 4330HO4    HW117318   4.150   4.290   3.271
 4330HO4    HW217319   4.083   4.342   3.411
 4330HO4     MW17320   4.139   4.369   3.332
 4331HO4     OW17321   8.350   5.871   9.756
 4331HO4    HW117322   8.390   5.890   9.846
 4331HO4    HW217323   8.421   5.881   9.685
 4331HO4     MW17324   8.350   5.871   9.756
 4332HO4     OW17325  10.138   0.252   8.919
 4332HO4    HW117326  10.139   0.321   8.991
 4332HO4    HW217327  10.220   0.195   8.925
 4332HO4     MW17328  10.138   0.252   8.919
 4333HO4     OW17329   1.776   5.735   7.371
 4333HO4    HW117330   1.709   5.764   7.302
 4333HO4    HW217331   1.868   5.737   7.331
 4333HO4     MW17332   1.776   5.735   7.371
 4334HO4     OW17333   0.151   2.683   2.676
 4334HO4    HW117334   0.236   2.664   2.725
 4334HO4    HW217335   0.167   2.677   2.577
 4334HO4     MW17336   0.151   2.683   2.676
 4335HO4     OW17337   5.516   8.847   1.700
 4335HO4    HW117338   5.574   8.808   1.628
 4335HO4    HW217339   5.531   8.946   1.706
 4335HO4     MW17340   5.516   8.847   1.700
 4336HO4     OW17341   5.843   8.334   7.945
 4336HO4    HW117342   5.749   8.361   7.970
 4336HO4    HW217343   5.868   8.250   7.995
 4336HO4     MW17344   5.843   8.334   7.945
 4337HO4     OW17345   6.302   8.193   2.759
 4337HO4    HW117346   6.327   8.130   2.834
 4337HO4    HW217347   6.244   8.145   2.693
 4337HO4     MW17348   6.302   8.193   2.759
 4338HO4     OW17349   9.451   8.743   6.245
 4338HO4    HW117350   9.470   8.774   6.339
 4338HO4    HW217351   9.529   8.690   6.210
 4338HO4     MW17352   9.451   8.743   6.245
 4339HO4     OW17353   6.552   8.582   5.165
 4339HO4    HW117354   6.499   8.647   5.220
 4339HO4    HW217355   6.578   8.625   5.079
 4339HO4     MW17356   6.552   8.582   5.165
 4340HO4     OW17357   0.679   2.439   3.116
 4340HO4    HW117358   0.731   2.463   3.199
 4340HO4    HW217359   0.731   2.468   3.036
 4340HO4     MW17360   0.679   2.439   3.116
 4341HO4     OW17361   5.011   3.250   3.111
 4341HO4    HW117362   5.036   3.159   3.075
 4341HO4    HW217363   4.914   3.268   3.092
 4341HO4     MW17364   5.011   3.250   3.111
 4342HO4     OW17365   7.453   5.069   9.052
 4342HO4    HW117366   7.459   5.114   8.963
 4342HO4    HW217367   7.371   5.100   9.100
 4342HO4     MW17368   7.453   5.069   9.052
 4343HO4     OW17369   0.910   2.524   9.108
 4343HO4    HW117370   0.893   2.606   9.163
 4343HO4    HW217371   0.926   2.550   9.013
 4343HO4     MW17372   0.910   2.524   9.108
 4344HO4     OW17373   2.587   7.746   3.830
 4344HO4    HW117374   2.589   7.678   3.904
 4344HO4    HW217375   2.623   7.833   3.864
 4344HO4     MW17376   2.587   7.746   3.830
 4345HO4     OW17377   9.063   0.382   9.805
 4345HO4    HW117378   8.965   0.400   9.813
 4345HO4    HW217379   9.114   0.464   9.834
 4345HO4     MW17380   9.063   0.382   9.805
 4346HO4     OW17381   7.071   8.093   7.175
 4346HO4    HW117382   7.027   8.094   7.265
 4346HO4    HW217383   7.015   8.145   7.109
 4346HO4     MW17384   7.071   8.093   7.175
 4347HO4     OW17385   3.814   5.765   2.785
 4347HO4    HW117386   3.735   5.762   2.846
 4347HO4    HW217387   3.802   5.839   2.718
 4347HO4     MW17388   3.814   5.765   2.785
 4348HO4     OW17389   0.223   5.304   9.403
 4348HO4    HW117390   0.155   5.308   9.330
 4348HO4    HW217391   0.315   5.295   9.363
 4348HO4     MW17392   0.223   5.304   9.403
 4349HO4     OW17393   7.443   3.875   3.271
 4349HO4    HW117394   7.377   3.850   3.343
 4349HO4    HW217395   7.506   3.945   3.307
 4349HO4     MW17396   7.443   3.875   3.271
 4350HO4     OW17397   5.853   5.390   3.548
 4350HO4    HW117398   5.928   5.343   3.500
 4350HO4    HW217399   5.780   5.324   3.570
 4350HO4     MW17400   5.853   5.390   3.548
 4351HO4     OW17401   6.774   0.207   1.485
 4351HO4    HW117402   6.776   0.265   1.567
 4351HO4    HW217403   6.778   0.264   1.403
 4351HO4     MW17404   6.774   0.207   1.485
 4352HO4     OW17405   9.859   4.180   5.796
 4352HO4    HW117406   9.925   4.138   5.858
 4352HO4    HW217407   9.894   4.176   5.702
 4352HO4     MW17408   9.859   4.180   5.796
 4353HO4     OW17409   2.282   4.250   7.665
 4353HO4    HW117410   2.220   4.299   7.726
 4353HO4    HW217411   2.232   4.222   7.582
 4353HO4     MW17412   2.282   4.250   7.665
 4354HO4     OW17413  10.033   3.698   6.198
 4354HO4    HW117414  10.057   3.771   6.133
 4354HO4    HW217415  10.035   3.733   6.291
 4354HO4     MW17416  10.033   3.698   6.198
 4355HO4     OW17417   2.537   4.967   0.586
 4355HO4    HW117418   2.498   4.893   0.531
 4355HO4    HW217419   2.470   5.042   0.595
 4355HO4     MW17420   2.537   4.967   0.586
 4356HO4     OW17421   7.180   0.110   2.945
 4356HO4    HW117422   7.236   0.053   3.007
 4356HO4    HW217423   7.220   0.108   2.853
 4356HO4     MW17424   7.180   0.110   2.945
 4357HO4     OW17425   0.112   5.477   3.286
 4357HO4    HW117426   0.153   5.428   3.209
 4357HO4    HW217427   0.103   5.415   3.365
 4357HO4     MW17428   0.112   5.477   3.286
 4358HO4     OW17429   9.230   3.343   9.629
 4358HO4    HW117430   9.135   3.340   9.597
 4358HO4    HW217431   9.292   3.334   9.550
 4358HO4     MW17432   9.230   3.343   9.629
 4359HO4     OW17433   5.497   8.980   8.517
 4359HO4    HW117434   5.447   9.065   8.495
 4359HO4    HW217435   5.590   9.003   8.548
 4359HO4     MW17436   5.497   8.980   8.517
 4360HO4     OW17437   4.362   0.708   7.026
 4360HO4    HW117438   4.373   0.720   6.927
 4360HO4    HW217439   4.309   0.785   7.063
 4360HO4     MW17440   4.362   0.708   7.026
 4361HO4     OW17441   4.482   6.331   9.590
 4361HO4    HW117442   4.471   6.259   9.658
 4361HO4    HW217443   4.445   6.300   9.502
 4361HO4     MW17444   4.482   6.331   9.590
 4362HO4     OW17445   2.272   2.707   4.949
 4362HO4    HW117446   2.322   2.774   5.005
 4362HO4    HW217447   2.306   2.614   4.969
 4362HO4     MW17448   2.272   2.707   4.949
 4363HO4     OW17449   4.816   6.986   0.569
 4363HO4    HW117450   4.841   6.973   0.666
 4363HO4    HW217451   4.751   6.915   0.541
 4363HO4     MW17452   4.816   6.986   0.569
 4364HO4     OW17453   5.553   7.529   1.769
 4364HO4    HW117454   5.526   7.434   1.747
 4364HO4    HW217455   5.516   7.553   1.859
 4364HO4     MW17456   5.553   7.529   1.769
 4365HO4     OW17457   2.200   0.103   6.739
 4365HO4    HW117458   2.172   0.196   6.765
 4365HO4    HW217459   2.295   0.087   6.769
 4365HO4     MW17460   2.200   0.103   6.739
 4366HO4     OW17461   9.331   5.807   7.666
 4366HO4    HW117462   9.243   5.759   7.666
 4366HO4    HW217463   9.397   5.756   7.610
 4366HO4     MW17464   9.331   5.807   7.666
 4367HO4     OW17465   0.760   9.783   7.580
 4367HO4    HW117466   0.786   9.714   7.511
 4367HO4    HW217467   0.842   9.832   7.610
 4367HO4     MW17468   0.760   9.783   7.580
 4368HO4     OW17469   9.694   4.805   9.394
 4368HO4    HW117470   9.719   4.757   9.309
 4368HO4    HW217471   9.767   4.869   9.419
 4368HO4     MW17472   9.694   4.805   9.394
 4369HO4     OW17473   0.563   8.774   3.640
 4369HO4    HW117474   0.662   8.759   3.631
 4369HO4    HW217475   0.518   8.687   3.665
 4369HO4     MW17476   0.563   8.774   3.640
 4370HO4     OW17477   1.541   0.413   3.656
 4370HO4    HW117478   1.559   0.339   3.590
 4370HO4    HW217479   1.444   0.438   3.652
 4370HO4     MW17480   1.541   0.413   3.656
 4371HO4     OW17481   4.516   8.597   0.088
 4371HO4    HW117482   4.557   8.649   0.013
 4371HO4    HW217483   4.533   8.645   0.175
 4371HO4     MW17484   4.516   8.597   0.088
 4372HO4     OW17485   9.027   2.541   5.064
 4372HO4    HW117486   8.975   2.610   5.012
 4372HO4    HW217487   9.038   2.571   5.159
 4372HO4     MW17488   9.027   2.541   5.064
 4373HO4     OW17489   8.350   3.173   5.421
 4373HO4    HW117490   8.315   3.082   5.445
 4373HO4    HW217491   8.416   3.203   5.491
 4373HO4     MW17492   8.350   3.173   5.421
 4374HO4     OW17493   0.775   7.660   0.456
 4374HO4    HW117494   0.707   7.703   0.397
 4374HO4    HW217495   0.850   7.724   0.473
 4374HO4     MW17496   0.775   7.660   0.456
 4375HO4     OW17497   8.777   5.978   3.139
 4375HO4    HW117498   8.877   5.991   3.134
 4375HO4    HW217499   8.732   6.039   3.073
 4375HO4     MW17500   8.777   5.978   3.139
 4376HO4     OW17501   5.395  10.065   0.219
 4376HO4    HW117502   5.410  10.026   0.310
 4376HO4    HW217503   5.411   9.995   0.149
 4376HO4     MW17504   5.395  10.065   0.219
 4377HO4     OW17505   8.872   0.750   6.856
 4377HO4    HW117506   8.817   0.718   6.779
 4377HO4    HW217507   8.885   0.849   6.848
 4377HO4     MW17508   8.872   0.750   6.856
 4378HO4     OW17509   4.021   0.672   2.478
 4378HO4    HW117510   3.954   0.598   2.487
 4378HO4    HW217511   4.074   0.680   2.563
 4378HO4     MW17512   4.021   0.672   2.478
 4379HO4     OW17513   0.268   4.449  10.168
 4379HO4    HW117514   0.262   4.494  10.078
 4379HO4    HW217515   0.362   4.415  10.182
 4379HO4     MW17516   0.268   4.449  10.168
 4380HO4     OW17517   9.897   5.932   2.046
 4380HO4    HW117518   9.974   5.876   2.012
 4380HO4    HW217519   9.849   5.882   2.119
 4380HO4     MW17520   9.897   5.932   2.046
 4381HO4     OW17521   8.334   3.532   3.577
 4381HO4    HW117522   8.322   3.569   3.670
 4381HO4    HW217523   8.285   3.589   3.511
 4381HO4     MW17524   8.334   3.532   3.577
 4382HO4     OW17525   1.426   7.598   7.442
 4382HO4    HW117526   1.383   7.640   7.523
 4382HO4    HW217527   1.458   7.506   7.466
 4382HO4     MW17528   1.426   7.598   7.442
 4383HO4     OW17529   5.350   2.231   8.287
 4383HO4    HW117530   5.276   2.186   8.237
 4383HO4    HW217531   5.439   2.197   8.252
 4383HO4     MW17532   5.350   2.231   8.287
 4384HO4     OW17533   2.697   4.851   6.727
 4384HO4    HW117534   2.720   4.789   6.803
 4384HO4    HW217535   2.736   4.815   6.642
 4384HO4     MW17536   2.697   4.851   6.727
 4385HO4     OW17537   5.582   6.764   6.522
 4385HO4    HW117538   5.657   6.776   6.588
 4385HO4    HW217539   5.509   6.830   6.543
 4385HO4     MW17540   5.582   6.764   6.522
 4386HO4     OW17541   1.151   2.174   4.524
 4386HO4    HW117542   1.059   2.188   4.484
 4386HO4    HW217543   1.189   2.263   4.550
 4386HO4     MW17544   1.151   2.174   4.524
 4387HO4     OW17545   4.998   1.614   0.387
 4387HO4    HW117546   5.046   1.584   0.304
 4387HO4    HW217547   5.049   1.583   0.468
 4387HO4     MW17548   4.998   1.614   0.387
 4388HO4     OW17549   4.800   1.227   0.922
 4388HO4    HW117550   4.847   1.138   0.921
 4388HO4    HW217551   4.792   1.259   1.017
 4388HO4     MW17552   4.800   1.227   0.922
 4389HO4     OW17553   7.347   4.666   2.280
 4389HO4    HW117554   7.271   4.617   2.236
 4389HO4    HW217555   7.420   4.681   2.213
 4389HO4     MW17556   7.347   4.666   2.280
 4390HO4     OW17557   0.685   5.068   8.547
 4390HO4    HW117558   0.731   5.048   8.634
 4390HO4    HW217559   0.660   4.982   8.501
 4390HO4     MW17560   0.685   5.068   8.547
 4391HO4     OW17561   3.266   5.456   6.526
 4391HO4    HW117562   3.315   5.461   6.438
 4391HO4    HW217563   3.333   5.459   6.601
 4391HO4     MW17564   3.266   5.456   6.526
 4392HO4     OW17565   2.765   3.729   2.682
 4392HO4    HW117566   2.756   3.640   2.636
 4392HO4    HW217567   2.855   3.769   2.659
 4392HO4     MW17568   2.765   3.729   2.682
 4393HO4     OW17569   8.896   1.858   8.283
 4393HO4    HW117570   8.913   1.911   8.367
 4393HO4    HW217571   8.897   1.920   8.204
 4393HO4     MW17572   8.896   1.858   8.283
 4394HO4     OW17573   7.125   1.450   7.246
 4394HO4    HW117574   7.136   1.414   7.340
 4394HO4    HW217575   7.161   1.383   7.181
 4394HO4     MW17576   7.125   1.450   7.246
 4395HO4     OW17577   4.692   7.441   6.989
 4395HO4    HW117578   4.659   7.511   7.053
 4395HO4    HW217579   4.645   7.452   6.901
 4395HO4     MW17580   4.692   7.441   6.989
 4396HO4     OW17581   1.756   0.204   8.215
 4396HO4    HW117582   1.853   0.220   8.197
 4396HO4    HW217583   1.702   0.280   8.177
 4396HO4     MW17584   1.756   0.204   8.215
 4397HO4     OW17585   7.410   3.782   8.212
 4397HO4    HW117586   7.464   3.865   8.196
 4397HO4    HW217587   7.448   3.705   8.160
 4397HO4     MW17588   7.410   3.782   8.212
 4398HO4     OW17589   8.963   0.620   8.964
 4398HO4    HW117590   9.055   0.630   8.925
 4398HO4    HW217591   8.903   0.576   8.897
 4398HO4     MW17592   8.963   0.620   8.964
 4399HO4     OW17593   5.651   7.644   0.068
 4399HO4    HW117594   5.693   7.598  -0.011
 4399HO4    HW217595   5.650   7.743   0.053
 4399HO4     MW17596   5.651   7.644   0.068
 4400HO4     OW17597   7.738   8.025   0.468
 4400HO4    HW117598   7.645   8.054   0.447
 4400HO4    HW217599   7.780   8.089   0.533
 4400HO4     MW17600   7.738   8.025   0.468
 4401HO4     OW17601   9.324   7.293   8.625
 4401HO4    HW117602   9.297   7.341   8.709
 4401HO4    HW217603   9.388   7.219   8.648
 4401HO4     MW17604   9.324   7.293   8.625
 4402HO4     OW17605   2.690   6.446   5.008
 4402HO4    HW117606   2.638   6.442   4.922
 4402HO4    HW217607   2.738   6.359   5.022
 4402HO4     MW17608   2.690   6.446   5.008
 4403HO4     OW17609   6.695   2.239   8.794
 4403HO4    HW117610   6.764   2.170   8.817
 4403HO4    HW217611   6.720   2.327   8.836
 4403HO4     MW17612   6.695   2.239   8.794
 4404HO4     OW17613   4.483   0.667   3.841
 4404HO4    HW117614   4.472   0.601   3.916
 4404HO4    HW217615   4.448   0.627   3.756
 4404HO4     MW17616   4.483   0.667   3.841
 4405HO4     OW17617   5.277   5.793   5.323
 4405HO4    HW117618   5.309   5.715   5.269
 4405HO4    HW217619   5.318   5.790   5.415
 4405HO4     MW17620   5.277   5.793   5.323
 4406HO4     OW17621   9.185   2.057   1.137
 4406HO4    HW117622   9.207   2.127   1.205
 4406HO4    HW217623   9.203   2.093   1.044
 4406HO4     MW17624   9.185   2.057   1.137
 4407HO4     OW17625   5.962   6.026   5.931
 4407HO4    HW117626   6.002   6.067   6.014
 4407HO4    HW217627   6.002   6.067   5.850
 4407HO4     MW17628   5.962   6.026   5.931
 4408HO4     OW17629   5.772   2.434   1.328
 4408HO4    HW117630   5.681   2.393   1.334
 4408HO4    HW217631   5.836   2.383   1.385
 4408HO4     MW17632   5.772   2.434   1.328
 4409HO4     OW17633   4.116   3.320   4.295
 4409HO4    HW117634   4.201   3.371   4.282
 4409HO4    HW217635   4.120   3.234   4.243
 4409HO4     MW17636   4.116   3.320   4.295
 4410HO4     OW17637   9.920   6.804   5.793
 4410HO4    HW117638   9.863   6.726   5.823
 4410HO4    HW217639  10.017   6.783   5.809
 4410HO4     MW17640   9.920   6.804   5.793
 4411HO4     OW17641   6.777   7.667   7.331
 4411HO4    HW117642   6.736   7.662   7.422
 4411HO4    HW217643   6.819   7.758   7.318
 4411HO4     MW17644   6.777   7.667   7.331
 4412HO4     OW17645   6.563   9.920   1.498
 4412HO4    HW117646   6.480   9.947   1.547
 4412HO4    HW217647   6.607  10.001   1.458
 4412HO4     MW17648   6.563   9.920   1.498
 4413HO4     OW17649   8.436   7.852  10.117
 4413HO4    HW117650   8.423   7.906  10.200
 4413HO4    HW217651   8.387   7.895  10.040
 4413HO4     MW17652   8.436   7.852  10.117
 4414HO4     OW17653   5.358   4.862   0.261
 4414HO4    HW117654   5.319   4.833   0.172
 4414HO4    HW217655   5.294   4.838   0.334
 4414HO4     MW17656   5.358   4.862   0.261
 4415HO4     OW17657   3.602   9.844   4.685
 4415HO4    HW117658   3.661   9.895   4.748
 4415HO4    HW217659   3.550   9.775   4.735
 4415HO4     MW17660   3.602   9.844   4.685
 4416HO4     OW17661   1.676   9.432   6.621
 4416HO4    HW117662   1.620   9.410   6.541
 4416HO4    HW217663   1.633   9.394   6.704
 4416HO4     MW17664   1.676   9.432   6.621
 4417HO4     OW17665   9.033   0.645   2.098
 4417HO4    HW117666   8.956   0.589   2.067
 4417HO4    HW217667   9.064   0.704   2.024
 4417HO4     MW17668   9.033   0.645   2.098
 4418HO4     OW17669   8.672   6.450   9.904
 4418HO4    HW117670   8.660   6.431  10.002
 4418HO4    HW217671   8.766   6.425   9.877
 4418HO4     MW17672   8.672   6.450   9.904
 4419HO4     OW17673   3.814   6.550   8.380
 4419HO4    HW117674   3.784   6.598   8.297
 4419HO4    HW217675   3.752   6.573   8.456
 4419HO4     MW17676   3.814   6.550   8.380
 4420HO4     OW17677   6.268   4.378   7.585
 4420HO4    HW117678   6.290   4.459   7.639
 4420HO4    HW217679   6.315   4.382   7.497
 4420HO4     MW17680   6.268   4.378   7.585
 4421HO4     OW17681   5.413   9.515   8.699
 4421HO4    HW117682   5.321   9.476   8.691
 4421HO4    HW217683   5.425   9.587   8.630
 4421HO4     MW17684   5.413   9.515   8.699
 4422HO4     OW17685   6.723   1.817   4.648
 4422HO4    HW117686   6.683   1.725   4.649
 4422HO4    HW217687   6.817   1.814   4.685
 4422HO4     MW17688   6.723   1.817   4.648
 4423HO4     OW17689   8.151   3.187   0.940
 4423HO4    HW117690   8.249   3.197   0.922
 4423HO4    HW217691   8.133   3.193   1.038
 4423HO4     MW17692   8.151   3.187   0.940
 4424HO4     OW17693   6.928   1.644   4.343
 4424HO4    HW117694   6.997   1.611   4.408
 4424HO4    HW217695   6.974   1.690   4.266
 4424HO4     MW17696   6.928   1.644   4.343
 4425HO4     OW17697   6.451   1.700   9.570
 4425HO4    HW117698   6.429   1.645   9.489
 4425HO4    HW217699   6.427   1.649   9.653
 4425HO4     MW17700   6.451   1.700   9.570
 4426HO4     OW17701   5.663   7.392   2.575
 4426HO4    HW117702   5.680   7.422   2.669
 4426HO4    HW217703   5.689   7.465   2.511
 4426HO4     MW17704   5.663   7.392   2.575
 4427HO4     OW17705   8.884   7.604   0.209
 4427HO4    HW117706   8.815   7.607   0.137
 4427HO4    HW217707   8.842   7.629   0.297
 4427HO4     MW17708   8.884   7.604   0.209
 4428HO4     OW17709   7.468   3.139   8.669
 4428HO4    HW117710   7.548   3.096   8.627
 4428HO4    HW217711   7.484   3.151   8.767
 4428HO4     MW17712   7.468   3.139   8.669
 4429HO4     OW17713   7.861   3.712   0.814
 4429HO4    HW117714   7.846   3.679   0.907
 4429HO4    HW217715   7.834   3.641   0.748
 4429HO4     MW17716   7.861   3.712   0.814
 4430HO4     OW17717   7.307   6.957   9.136
 4430HO4    HW117718   7.217   6.987   9.167
 4430HO4    HW217719   7.297   6.877   9.075
 4430HO4     MW17720   7.307   6.957   9.136
 4431HO4     OW17721   5.756   9.908   9.339
 4431HO4    HW117722   5.848   9.879   9.314
 4431HO4    HW217723   5.723   9.976   9.273
 4431HO4     MW17724   5.756   9.908   9.339
 4432HO4     OW17725   3.937   0.741   4.190
 4432HO4    HW117726   3.943   0.746   4.291
 4432HO4    HW217727   3.925   0.834   4.153
 4432HO4     MW17728   3.937   0.741   4.190
 4433HO4     OW17729   2.520   4.340   8.288
 4433HO4    HW117730   2.504   4.416   8.351
 4433HO4    HW217731   2.588   4.368   8.220
 4433HO4     MW17732   2.520   4.340   8.288
 4434HO4     OW17733   3.094   4.417   5.063
 4434HO4    HW117734   3.039   4.383   5.140
 4434HO4    HW217735   3.041   4.485   5.012
 4434HO4     MW17736   3.094   4.417   5.063
 4435HO4     OW17737   5.494  10.180   1.391
 4435HO4    HW117738   5.533  10.138   1.473
 4435HO4    HW217739   5.528  10.134   1.309
 4435HO4     MW17740   5.494  10.180   1.391
 4436HO4     OW17741  10.017   2.089   2.288
 4436HO4    HW117742  10.068   2.014   2.331
 4436HO4    HW217743  10.078   2.136   2.223
 4436HO4     MW17744  10.017   2.089   2.288
 4437HO4     OW17745   3.377   8.132   1.463
 4437HO4    HW117746   3.387   8.224   1.422
 4437HO4    HW217747   3.396   8.138   1.561
 4437HO4     MW17748   3.377   8.132   1.463
 4438HO4     OW17749   2.363   1.559   8.941
 4438HO4    HW117750   2.413   1.641   8.969
 4438HO4    HW217751   2.406   1.520   8.860
 4438HO4     MW17752   2.363   1.559   8.941
 4439HO4     OW17753  10.066   7.172   4.645
 4439HO4    HW117754   9.988   7.205   4.700
 4439HO4    HW217755  10.049   7.076   4.619
 4439HO4     MW17756  10.066   7.172   4.645
 4440HO4     OW17757   7.122   8.136   7.956
 4440HO4    HW117758   7.026   8.139   7.926
 4440HO4    HW217759   7.156   8.042   7.949
 4440HO4     MW17760   7.122   8.136   7.956
 4441HO4     OW17761   2.588   3.109   3.406
 4441HO4    HW117762   2.659   3.038   3.409
 4441HO4    HW217763   2.556   3.120   3.312
 4441HO4     MW17764   2.588   3.109   3.406
 4442HO4     OW17765   7.338   3.996   6.543
 4442HO4    HW117766   7.302   4.048   6.621
 4442HO4    HW217767   7.273   3.924   6.517
 4442HO4     MW17768   7.338   3.996   6.543
 4443HO4     OW17769   4.007   4.488   9.373
 4443HO4    HW117770   3.989   4.479   9.471
 4443HO4    HW217771   3.926   4.460   9.321
 4443HO4     MW17772   4.007   4.488   9.373
 4444HO4     OW17773   7.998   2.296   7.353
 4444HO4    HW117774   8.063   2.226   7.385
 4444HO4    HW217775   8.047   2.381   7.334
 4444HO4     MW17776   7.998   2.296   7.353
 4445HO4     OW17777   8.395   3.651   8.747
 4445HO4    HW117778   8.424   3.663   8.652
 4445HO4    HW217779   8.367   3.739   8.785
 4445HO4     MW17780   8.395   3.651   8.747
 4446HO4     OW17781   3.404   2.124   3.785
 4446HO4    HW117782   3.325   2.182   3.805
 4446HO4    HW217783   3.424   2.125   3.687
 4446HO4     MW17784   3.404   2.124   3.785
 4447HO4     OW17785   1.606   9.316   2.935
 4447HO4    HW117786   1.690   9.260   2.932
 4447HO4    HW217787   1.538   9.276   2.873
 4447HO4     MW17788   1.606   9.316   2.935
 4448HO4     OW17789   3.473   6.517   0.214
 4448HO4    HW117790   3.480   6.610   0.251
 4448HO4    HW217791   3.519   6.453   0.277
 4448HO4     MW17792   3.473   6.517   0.214
 4449HO4     OW17793   1.661   7.213   1.511
 4449HO4    HW117794   1.638   7.150   1.436
 4449HO4    HW217795   1.605   7.296   1.504
 4449HO4     MW17796   1.661   7.213   1.511
 4450HO4     OW17797   8.834   4.577   2.024
 4450HO4    HW117798   8.849   4.493   1.972
 4450HO4    HW217799   8.742   4.577   2.063
 4450HO4     MW17800   8.834   4.577   2.024
 4451HO4     OW17801   3.979   5.553   6.773
 4451HO4    HW117802   3.929   5.492   6.835
 4451HO4    HW217803   3.951   5.534   6.678
 4451HO4     MW17804   3.979   5.553   6.773
 4452HO4     OW17805   5.735   1.957   8.781
 4452HO4    HW117806   5.780   1.979   8.868
 4452HO4    HW217807   5.649   2.008   8.774
 4452HO4     MW17808   5.735   1.957   8.781
 4453HO4     OW17809   7.335   0.967   9.867
 4453HO4    HW117810   7.409   0.908   9.834
 4453HO4    HW217811   7.333   0.965   9.968
 4453HO4     MW17812   7.335   0.967   9.867
 4454HO4     OW17813   1.392   2.326   4.571
 4454HO4    HW117814   1.321   2.299   4.637
 4454HO4    HW217815   1.477   2.275   4.590
 4454HO4     MW17816   1.392   2.326   4.571
 4455HO4     OW17817   3.159   0.699   1.676
 4455HO4    HW117818   3.181   0.797   1.680
 4455HO4    HW217819   3.085   0.679   1.741
 4455HO4     MW17820   3.159   0.699   1.676
 4456HO4     OW17821   5.207   8.750   9.192
 4456HO4    HW117822   5.256   8.776   9.276
 4456HO4    HW217823   5.148   8.671   9.211
 4456HO4     MW17824   5.207   8.750   9.192
 4457HO4     OW17825   1.120   3.094   1.250
 4457HO4    HW117826   1.159   3.115   1.160
 4457HO4    HW217827   1.062   3.012   1.243
 4457HO4     MW17828   1.120   3.094   1.250
 4458HO4     OW17829   7.852   4.788   5.662
 4458HO4    HW117830   7.757   4.756   5.662
 4458HO4    HW217831   7.913   4.711   5.685
 4458HO4     MW17832   7.852   4.788   5.662
 4459HO4     OW17833   7.343   1.772   4.979
 4459HO4    HW117834   7.374   1.803   5.069
 4459HO4    HW217835   7.250   1.804   4.962
 4459HO4     MW17836   7.343   1.772   4.979
 4460HO4     OW17837   5.002   5.979   2.534
 4460HO4    HW117838   4.961   5.887   2.533
 4460HO4    HW217839   4.972   6.030   2.453
 4460HO4     MW17840   5.002   5.979   2.534
 4461HO4     OW17841   0.111   6.846   2.184
 4461HO4    HW117842   0.032   6.863   2.243
 4461HO4    HW217843   0.195   6.868   2.235
 4461HO4     MW17844   0.111   6.846   2.184
 4462HO4     OW17845   3.298   0.627   9.789
 4462HO4    HW117846   3.224   0.573   9.749
 4462HO4    HW217847   3.363   0.565   9.834
 4462HO4     MW17848   3.298   0.627   9.789
 4463HO4     OW17849   9.037   9.186   3.815
 4463HO4    HW117850   8.995   9.251   3.879
 4463HO4    HW217851   9.011   9.211   3.721
 4463HO4     MW17852   9.037   9.186   3.815
 4464HO4     OW17853   4.387   9.529   7.318
 4464HO4    HW117854   4.459   9.491   7.259
 4464HO4    HW217855   4.312   9.462   7.325
 4464HO4     MW17856   4.387   9.529   7.318
 4465HO4     OW17857   5.722   2.343   4.087
 4465HO4    HW117858   5.664   2.303   4.015
 4465HO4    HW217859   5.804   2.384   4.046
 4465HO4     MW17860   5.722   2.343   4.087
 4466HO4     OW17861   8.910   8.952   5.524
 4466HO4    HW117862   8.852   8.998   5.592
 4466HO4    HW217863   8.868   8.961   5.433
 4466HO4     MW17864   8.910   8.952   5.524
 4467HO4     OW17865   7.566   0.365   7.959
 4467HO4    HW117866   7.593   0.462   7.961
 4467HO4    HW217867   7.638   0.311   7.914
 4467HO4     MW17868   7.566   0.365   7.959
 4468HO4     OW17869   7.658   7.458   9.023
 4468HO4    HW117870   7.704   7.535   9.067
 4468HO4    HW217871   7.594   7.492   8.953
 4468HO4     MW17872   7.658   7.458   9.023
 4469HO4     OW17873   8.234   6.989   0.417
 4469HO4    HW117874   8.211   6.918   0.485
 4469HO4    HW217875   8.223   6.951   0.324
 4469HO4     MW17876   8.234   6.989   0.417
 4470HO4     OW17877   4.216   1.998   8.412
 4470HO4    HW117878   4.219   1.898   8.420
 4470HO4    HW217879   4.126   2.026   8.377
 4470HO4     MW17880   4.216   1.998   8.412
 4471HO4     OW17881   7.659   5.203   1.274
 4471HO4    HW117882   7.611   5.243   1.352
 4471HO4    HW217883   7.602   5.131   1.232
 4471HO4     MW17884   7.659   5.203   1.274
 4472HO4     OW17885   2.358   5.146   2.684
 4472HO4    HW117886   2.264   5.170   2.660
 4472HO4    HW217887   2.405   5.227   2.721
 4472HO4     MW17888   2.358   5.146   2.684
 4473HO4     OW17889   6.298   1.740   7.350
 4473HO4    HW117890   6.327   1.762   7.257
 4473HO4    HW217891   6.346   1.800   7.415
 4473HO4     MW17892   6.298   1.740   7.350
 4474HO4     OW17893   8.853   3.986   6.277
 4474HO4    HW117894   8.922   4.012   6.345
 4474HO4    HW217895   8.899   3.968   6.189
 4474HO4     MW17896   8.853   3.986   6.277
 4475HO4     OW17897   4.460   0.036   0.020
 4475HO4    HW117898   4.550   0.028  -0.026
 4475HO4    HW217899   4.464  -0.011   0.109
 4475HO4     MW17900   4.460   0.036   0.020
 4476HO4     OW17901   0.202   2.327   8.720
 4476HO4    HW117902   0.220   2.290   8.812
 4476HO4    HW217903   0.243   2.418   8.712
 4476HO4     MW17904   0.202   2.327   8.720
 4477HO4     OW17905   6.979   0.685   8.321
 4477HO4    HW117906   6.960   0.746   8.243
 4477HO4    HW217907   6.919   0.710   8.398
 4477HO4     MW17908   6.979   0.685   8.321
 4478HO4     OW17909   1.566   8.451   4.260
 4478HO4    HW117910   1.629   8.451   4.183
 4478HO4    HW217911   1.586   8.373   4.320
 4478HO4     MW17912   1.566   8.451   4.260
 4479HO4     OW17913   9.104   7.565   1.114
 4479HO4    HW117914   9.164   7.494   1.076
 4479HO4    HW217915   9.100   7.642   1.051
 4479HO4     MW17916   9.104   7.565   1.114
 4480HO4     OW17917   4.250   7.629   2.227
 4480HO4    HW117918   4.301   7.690   2.288
 4480HO4    HW217919   4.196   7.685   2.162
 4480HO4     MW17920   4.250   7.629   2.227
 4481HO4     OW17921   8.836   7.321   9.019
 4481HO4    HW117922   8.894   7.261   8.963
 4481HO4    HW217923   8.868   7.319   9.114
 4481HO4     MW17924   8.836   7.321   9.019
 4482HO4     OW17925   3.509   4.148   4.347
 4482HO4    HW117926   3.507   4.096   4.261
 4482HO4    HW217927   3.445   4.107   4.412
 4482HO4     MW17928   3.509   4.148   4.347
 4483HO4     OW17929   5.598   5.483   0.449
 4483HO4    HW117930   5.663   5.406   0.449
 4483HO4    HW217931   5.646   5.567   0.424
 4483HO4     MW17932   5.598   5.483   0.449
 4484HO4     OW17933   0.806  10.078   7.446
 4484HO4    HW117934   0.867  10.037   7.378
 4484HO4    HW217935   0.849  10.072   7.537
 4484HO4     MW17936   0.806  10.078   7.446
 4485HO4     OW17937   5.591   7.509   3.998
 4485HO4    HW117938   5.683   7.473   4.015
 4485HO4    HW217939   5.596   7.609   3.985
 4485HO4     MW17940   5.591   7.509   3.998
 4486HO4     OW17941   4.302   4.055   5.710
 4486HO4    HW117942   4.290   4.143   5.756
 4486HO4    HW217943   4.399   4.042   5.686
 4486HO4     MW17944   4.302   4.055   5.710
 4487HO4     OW17945   8.096   0.172   0.040
 4487HO4    HW117946   8.072   0.138   0.132
 4487HO4    HW217947   8.079   0.100  -0.027
 4487HO4     MW17948   8.096   0.172   0.040
 4488HO4     OW17949   4.371   4.695   8.073
 4488HO4    HW117950   4.303   4.686   8.000
 4488HO4    HW217951   4.417   4.607   8.087
 4488HO4     MW17952   4.371   4.695   8.073
 4489HO4     OW17953   4.326   4.234   3.265
 4489HO4    HW117954   4.393   4.289   3.214
 4489HO4    HW217955   4.329   4.139   3.234
 4489HO4     MW17956   4.326   4.234   3.265
 4490HO4     OW17957   0.378   0.812   1.471
 4490HO4    HW117958   0.440   0.815   1.550
 4490HO4    HW217959   0.423   0.850   1.390
 4490HO4     MW17960   0.378   0.812   1.471
 4491HO4     OW17961   9.871   5.673   6.230
 4491HO4    HW117962   9.783   5.712   6.260
 4491HO4    HW217963   9.946   5.726   6.270
 4491HO4     MW17964   9.871   5.673   6.230
 4492HO4     OW17965   1.773   9.368   4.974
 4492HO4    HW117966   1.857   9.318   4.997
 4492HO4    HW217967   1.699   9.339   5.036
 4492HO4     MW17968   1.773   9.368   4.974
 4493HO4     OW17969   4.311   3.919   2.523
 4493HO4    HW117970   4.287   3.943   2.618
 4493HO4    HW217971   4.248   3.848   2.489
 4493HO4     MW17972   4.311   3.919   2.523
 4494HO4     OW17973   2.751   6.150   6.668
 4494HO4    HW117974   2.683   6.136   6.596
 4494HO4    HW217975   2.779   6.247   6.669
 4494HO4     MW17976   2.751   6.150   6.668
 4495HO4     OW17977   7.573   4.496   4.454
 4495HO4    HW117978   7.478   4.465   4.454
 4495HO4    HW217979   7.604   4.511   4.549
 4495HO4     MW17980   7.573   4.496   4.454
 4496HO4     OW17981   6.871   2.078   5.491
 4496HO4    HW117982   6.883   2.148   5.562
 4496HO4    HW217983   6.885   2.120   5.401
 4496HO4     MW17984   6.871   2.078   5.491
 4497HO4     OW17985   0.075   3.376   1.875
 4497HO4    HW117986   0.015   3.422   1.809
 4497HO4    HW217987   0.139   3.442   1.914
 4497HO4     MW17988   0.075   3.376   1.875
 4498HO4     OW17989   7.079   9.285   4.268
 4498HO4    HW117990   7.074   9.195   4.224
 4498HO4    HW217991   7.030   9.283   4.355
 4498HO4     MW17992   7.079   9.285   4.268
 4499HO4     OW17993   6.130   4.260   6.421
 4499HO4    HW117994   6.132   4.284   6.324
 4499HO4    HW217995   6.214   4.294   6.466
 4499HO4     MW17996   6.130   4.260   6.421
 4500HO4     OW17997   6.006   5.865   0.143
 4500HO4    HW117998   6.090   5.857   0.198
 4500HO4    HW217999   6.013   5.945   0.082
 4500HO4     MW18000   6.006   5.865   0.143
 4501HO4     OW18001   8.501   0.759   8.286
 4501HO4    HW118002   8.462   0.789   8.373
 4501HO4    HW218003   8.535   0.665   8.294
 4501HO4     MW18004   8.501   0.759   8.286
 4502HO4     OW18005   2.126   6.180   0.148
 4502HO4    HW118006   2.185   6.241   0.096
 4502HO4    HW218007   2.161   6.170   0.242
 4502HO4     MW18008   2.126   6.180   0.148
 4503HO4     OW18009   9.731   5.327   3.492
 4503HO4    HW118010   9.744   5.230   3.518
 4503HO4    HW218011   9.633   5.350   3.498
 4503HO4     MW18012   9.731   5.327   3.492
 4504HO4     OW18013   6.097   4.040   7.716
 4504HO4    HW118014   6.057   4.035   7.624
 4504HO4    HW218015   6.160   3.963   7.728
 4504HO4     MW18016   6.097   4.040   7.716
 4505HO4     OW18017   2.393   8.401   9.749
 4505HO4    HW118018   2.361   8.408   9.654
 4505HO4    HW218019   2.325   8.353   9.804
 4505HO4     MW18020   2.393   8.401   9.749
 4506HO4     OW18021   8.975   8.425   3.926
 4506HO4    HW118022   9.012   8.332   3.916
 4506HO4    HW218023   8.975   8.452   4.022
 4506HO4     MW18024   8.975   8.425   3.926
 4507HO4     OW18025   5.150   6.852   5.446
 4507HO4    HW118026   5.247   6.858   5.424
 4507HO4    HW218027   5.139   6.829   5.543
 4507HO4     MW18028   5.150   6.852   5.446
 4508HO4     OW18029   8.592   0.565   8.427
 4508HO4    HW118030   8.679   0.615   8.424
 4508HO4    HW218031   8.545   0.585   8.513
 4508HO4     MW18032   8.592   0.565   8.427
 4509HO4     OW18033   8.406   3.994   4.488
 4509HO4    HW118034   8.360   3.935   4.421
 4509HO4    HW218035   8.376   3.968   4.580
 4509HO4     MW18036   8.406   3.994   4.488
 4510HO4     OW18037   8.279   4.898   4.874
 4510HO4    HW118038   8.245   4.816   4.827
 4510HO4    HW218039   8.364   4.876   4.923
 4510HO4     MW18040   8.279   4.898   4.874
 4511HO4     OW18041   3.687   8.961   8.656
 4511HO4    HW118042   3.605   8.936   8.603
 4511HO4    HW218043   3.662   9.030   8.725
 4511HO4     MW18044   3.687   8.961   8.656
 4512HO4     OW18045   6.223   1.638   3.232
 4512HO4    HW118046   6.185   1.665   3.321
 4512HO4    HW218047   6.148   1.611   3.171
 4512HO4     MW18048   6.223   1.638   3.232
 4513HO4     OW18049   9.196   9.811   0.702
 4513HO4    HW118050   9.245   9.779   0.621
 4513HO4    HW218051   9.210   9.909   0.713
 4513HO4     MW18052   9.196   9.811   0.702
 4514HO4     OW18053   7.278   1.148   7.003
 4514HO4    HW118054   7.250   1.101   6.919
 4514HO4    HW218055   7.265   1.088   7.082
 4514HO4     MW18056   7.278   1.148   7.003
 4515HO4     OW18057   6.141   7.549   6.137
 4515HO4    HW118058   6.055   7.582   6.096
 4515HO4    HW218059   6.138   7.563   6.237
 4515HO4     MW18060   6.141   7.549   6.137
 4516HO4     OW18061   1.340   7.205   2.296
 4516HO4    HW118062   1.242   7.193   2.277
 4516HO4    HW218063   1.387   7.232   2.211
 4516HO4     MW18064   1.340   7.205   2.296
 4517HO4     OW18065   2.051   2.549   3.485
 4517HO4    HW118066   1.977   2.594   3.434
 4517HO4    HW218067   2.094   2.614   3.548
 4517HO4     MW18068   2.051   2.549   3.485
 4518HO4     OW18069   8.434   0.065   1.720
 4518HO4    HW118070   8.370   0.057   1.797
 4518HO4    HW218071   8.473   0.157   1.718
 4518HO4     MW18072   8.434   0.065   1.720
 4519HO4     OW18073   8.885   8.468   8.142
 4519HO4    HW118074   8.955   8.507   8.203
 4519HO4    HW218075   8.840   8.391   8.189
 4519HO4     MW18076   8.885   8.468   8.142
 4520HO4     OW18077   3.929   8.886   0.192
 4520HO4    HW118078   3.976   8.921   0.273
 4520HO4    HW218079   3.876   8.804   0.216
 4520HO4     MW18080   3.929   8.886   0.192
 4521HO4     OW18081   5.340   1.127   4.044
 4521HO4    HW118082   5.328   1.051   4.109
 4521HO4    HW218083   5.436   1.134   4.017
 4521HO4     MW18084   5.340   1.127   4.044
 4522HO4     OW18085   9.869   7.460   1.915
 4522HO4    HW118086   9.869   7.520   1.834
 4522HO4    HW218087   9.851   7.515   1.997
 4522HO4     MW18088   9.869   7.460   1.915
 4523HO4     OW18089   0.212   8.295   0.235
 4523HO4    HW118090   0.178   8.250   0.152
 4523HO4    HW218091   0.140   8.294   0.306
 4523HO4     MW18092   0.212   8.295   0.235
 4524HO4     OW18093   1.585   1.167   7.822
 4524HO4    HW118094   1.505   1.189   7.878
 4524HO4    HW218095   1.622   1.077   7.850
 4524HO4     MW18096   1.585   1.167   7.822
 4525HO4     OW18097   5.908   7.264   9.365
 4525HO4    HW118098   5.945   7.238   9.455
 4525HO4    HW218099   5.808   7.263   9.369
 4525HO4     MW18100   5.908   7.264   9.365
 4526HO4     OW18101   9.861   7.609   5.036
 4526HO4    HW118102   9.861   7.692   5.092
 4526HO4    HW218103   9.855   7.634   4.939
 4526HO4     MW18104   9.861   7.609   5.036
 4527HO4     OW18105   3.834   7.539   7.834
 4527HO4    HW118106   3.809   7.585   7.919
 4527HO4    HW218107   3.881   7.452   7.854
 4527HO4     MW18108   3.834   7.539   7.834
 4528HO4     OW18109   3.602   9.244   3.305
 4528HO4    HW118110   3.618   9.323   3.365
 4528HO4    HW218111   3.506   9.243   3.276
 4528HO4     MW18112   3.602   9.244   3.305
 4529HO4     OW18113   1.561   7.273  10.134
 4529HO4    HW118114   1.495   7.346  10.114
 4529HO4    HW218115   1.653   7.304  10.113
 4529HO4     MW18116   1.561   7.273  10.134
 4530HO4     OW18117   4.443   4.349   2.226
 4530HO4    HW118118   4.443   4.332   2.127
 4530HO4    HW218119   4.355   4.321   2.264
 4530HO4     MW18120   4.443   4.349   2.226
 4531HO4     OW18121   6.834   8.185   6.562
 4531HO4    HW118122   6.790   8.151   6.478
 4531HO4    HW218123   6.894   8.262   6.539
 4531HO4     MW18124   6.834   8.185   6.562
 4532HO4     OW18125   9.087   0.097   3.707
 4532HO4    HW118126   9.142   0.013   3.710
 4532HO4    HW218127   9.135   0.166   3.651
 4532HO4     MW18128   9.087   0.097   3.707
 4533HO4     OW18129   9.407   3.279   6.560
 4533HO4    HW118130   9.321   3.288   6.613
 4533HO4    HW218131   9.454   3.368   6.559
 4533HO4     MW18132   9.407   3.279   6.560
 4534HO4     OW18133   9.360   3.197   1.018
 4534HO4    HW118134   9.437   3.208   1.081
 4534HO4    HW218135   9.280   3.245   1.055
 4534HO4     MW18136   9.360   3.197   1.018
 4535HO4     OW18137   6.790   6.244   4.577
 4535HO4    HW118138   6.820   6.314   4.642
 4535HO4    HW218139   6.790   6.282   4.484
 4535HO4     MW18140   6.790   6.244   4.577
 4536HO4     OW18141   2.925   3.120   2.728
 4536HO4    HW118142   2.946   3.075   2.815
 4536HO4    HW218143   2.925   3.052   2.654
 4536HO4     MW18144   2.925   3.120   2.728
 4537HO4     OW18145   5.255   4.537   6.430
 4537HO4    HW118146   5.187   4.540   6.504
 4537HO4    HW218147   5.341   4.500   6.466
 4537HO4     MW18148   5.255   4.537   6.430
 4538HO4     OW18149   6.975   1.536   9.679
 4538HO4    HW118150   6.937   1.615   9.727
 4538HO4    HW218151   7.060   1.507   9.724
 4538HO4     MW18152   6.975   1.536   9.679
 4539HO4     OW18153   3.901   7.401   3.421
 4539HO4    HW118154   3.978   7.379   3.482
 4539HO4    HW218155   3.899   7.500   3.403
 4539HO4     MW18156   3.901   7.401   3.421
 4540HO4     OW18157   8.999   1.107   3.358
 4540HO4    HW118158   9.061   1.162   3.415
 4540HO4    HW218159   9.021   1.121   3.261
 4540HO4     MW18160   8.999   1.107   3.358
 4541HO4     OW18161   8.632   5.675   4.166
 4541HO4    HW118162   8.538   5.697   4.194
 4541HO4    HW218163   8.638   5.676   4.066
 4541HO4     MW18164   8.632   5.675   4.166
 4542HO4     OW18165   6.085   5.223   3.349
 4542HO4    HW118166   6.001   5.276   3.367
 4542HO4    HW218167   6.090   5.201   3.251
 4542HO4     MW18168   6.085   5.223   3.349
 4543HO4     OW18169   2.558   3.379   7.680
 4543HO4    HW118170   2.594   3.285   7.687
 4543HO4    HW218171   2.469   3.384   7.727
 4543HO4     MW18172   2.558   3.379   7.680
 4544HO4     OW18173   3.023   4.210   0.857
 4544HO4    HW118174   2.939   4.229   0.909
 4544HO4    HW218175   3.041   4.286   0.795
 4544HO4     MW18176   3.023   4.210   0.857
 4545HO4     OW18177   9.661   3.573   5.876
 4545HO4    HW118178   9.609   3.657   5.855
 4545HO4    HW218179   9.758   3.588   5.857
 4545HO4     MW18180   9.661   3.573   5.876
 4546HO4     OW18181   1.589   8.747   5.684
 4546HO4    HW118182   1.641   8.763   5.600
 4546HO4    HW218183   1.645   8.769   5.763
 4546HO4     MW18184   1.589   8.747   5.684
 4547HO4     OW18185   7.549   0.982   9.581
 4547HO4    HW118186   7.640   0.973   9.540
 4547HO4    HW218187   7.560   1.001   9.680
 4547HO4     MW18188   7.549   0.982   9.581
 4548HO4     OW18189   4.257   0.118   8.305
 4548HO4    HW118190   4.221   0.106   8.212
 4548HO4    HW218191   4.201   0.186   8.353
 4548HO4     MW18192   4.257   0.118   8.305
 4549HO4     OW18193   9.744   5.233   9.987
 4549HO4    HW118194   9.702   5.309  10.038
 4549HO4    HW218195   9.775   5.162  10.050
 4549HO4     MW18196   9.744   5.233   9.987
 4550HO4     OW18197   5.366   0.573   0.081
 4550HO4    HW118198   5.421   0.550   0.163
 4550HO4    HW218199   5.425   0.570  -0.000
 4550HO4     MW18200   5.366   0.573   0.081
 4551HO4     OW18201   5.747   7.053   7.249
 4551HO4    HW118202   5.741   6.995   7.167
 4551HO4    HW218203   5.745   6.996   7.331
 4551HO4     MW18204   5.747   7.053   7.249
 4552HO4     OW18205   7.534   5.693   2.796
 4552HO4    HW118206   7.488   5.673   2.709
 4552HO4    HW218207   7.527   5.792   2.816
 4552HO4     MW18208   7.534   5.693   2.796
 4553HO4     OW18209  10.139   0.555   2.366
 4553HO4    HW118210  10.188   0.559   2.278
 4553HO4    HW218211  10.133   0.647   2.404
 4553HO4     MW18212  10.139   0.555   2.366
 4554HO4     OW18213   6.593   7.449  10.059
 4554HO4    HW118214   6.591   7.400   9.972
 4554HO4    HW218215   6.657   7.403  10.122
 4554HO4     MW18216   6.593   7.449  10.059
 4555HO4     OW18217   7.304   4.356   3.550
 4555HO4    HW118218   7.356   4.360   3.465
 4555HO4    HW218219   7.366   4.336   3.626
 4555HO4     MW18220   7.304   4.356   3.550
 4556HO4     OW18221   2.773   0.288   2.834
 4556HO4    HW118222   2.755   0.230   2.914
 4556HO4    HW218223   2.748   0.238   2.750
 4556HO4     MW18224   2.773   0.288   2.834
 4557HO4     OW18225   8.912   4.335   6.007
 4557HO4    HW118226   8.995   4.311   6.059
 4557HO4    HW218227   8.928   4.419   5.955
 4557HO4     MW18228   8.912   4.335   6.007
 4558HO4     OW18229   1.924   3.159   0.514
 4558HO4    HW118230   1.906   3.060   0.506
 4558HO4    HW218231   1.993   3.187   0.447
 4558HO4     MW18232   1.924   3.159   0.514
 4559HO4     OW18233   7.248   3.154   6.921
 4559HO4    HW118234   7.213   3.230   6.977
 4559HO4    HW218235   7.338   3.178   6.884
 4559HO4     MW18236   7.248   3.154   6.921
 4560HO4     OW18237   3.846   4.782   3.476
 4560HO4    HW118238   3.898   4.784   3.562
 4560HO4    HW218239   3.898   4.729   3.408
 4560HO4     MW18240   3.846   4.782   3.476
 4561HO4     OW18241   9.254   9.713   9.249
 4561HO4    HW118242   9.242   9.656   9.331
 4561HO4    HW218243   9.166   9.725   9.203
 4561HO4     MW18244   9.254   9.713   9.249
 4562HO4     OW18245   0.157   5.108   4.494
 4562HO4    HW118246   0.105   5.187   4.528
 4562HO4    HW218247   0.255   5.121   4.514
 4562HO4     MW18248   0.157   5.108   4.494
 4563HO4     OW18249   1.916   0.907   9.502
 4563HO4    HW118250   2.005   0.905   9.548
 4563HO4    HW218251   1.926   0.950   9.411
 4563HO4     MW18252   1.916   0.907   9.502
 4564HO4     OW18253   9.803   3.728   9.920
 4564HO4    HW118254   9.760   3.645   9.884
 4564HO4    HW218255   9.810   3.721  10.020
 4564HO4     MW18256   9.803   3.728   9.920
 4565HO4     OW18257   3.564   7.035   3.878
 4565HO4    HW118258   3.608   6.948   3.854
 4565HO4    HW218259   3.619   7.081   3.949
 4565HO4     MW18260   3.564   7.035   3.878
 4566HO4     OW18261   7.492   1.892   8.759
 4566HO4    HW118262   7.577   1.906   8.706
 4566HO4    HW218263   7.516   1.883   8.856
 4566HO4     MW18264   7.492   1.892   8.759
 4567HO4     OW18265   7.262   2.114   3.137
 4567HO4    HW118266   7.167   2.084   3.120
 4567HO4    HW218267   7.265   2.169   3.220
 4567HO4     MW18268   7.262   2.114   3.137
 4568HO4     OW18269  10.107   3.804   4.334
 4568HO4    HW118270  10.169   3.775   4.260
 4568HO4    HW218271  10.160   3.821   4.417
 4568HO4     MW18272  10.107   3.804   4.334
 4569HO4     OW18273   7.461   6.912   1.216
 4569HO4    HW118274   7.535   6.943   1.277
 4569HO4    HW218275   7.417   6.831   1.256
 4569HO4     MW18276   7.461   6.912   1.216
 4570HO4     OW18277   1.613   6.272   7.685
 4570HO4    HW118278   1.622   6.337   7.609
 4570HO4    HW218279   1.551   6.309   7.754
 4570HO4     MW18280   1.613   6.272   7.685
 4571HO4     OW18281   8.169   4.727   1.100
 4571HO4    HW118282   8.104   4.766   1.166
 4571HO4    HW218283   8.162   4.777   1.013
 4571HO4     MW18284   8.169   4.727   1.100
 4572HO4     OW18285   6.370   1.120   9.353
 4572HO4    HW118286   6.387   1.207   9.307
 4572HO4    HW218287   6.366   1.134   9.453
 4572HO4     MW18288   6.370   1.120   9.353
 4573HO4     OW18289   7.077   5.575   7.002
 4573HO4    HW118290   7.009   5.555   7.073
 4573HO4    HW218291   7.030   5.605   6.918
 4573HO4     MW18292   7.077   5.575   7.002
 4574HO4     OW18293   8.120   2.967   0.080
 4574HO4    HW118294   8.201   2.985   0.137
 4574HO4    HW218295   8.107   3.043   0.015
 4574HO4     MW18296   8.120   2.967   0.080
 4575HO4     OW18297   2.022   0.644   6.655
 4575HO4    HW118298   2.000   0.700   6.575
 4575HO4    HW218299   2.009   0.699   6.739
 4575HO4     MW18300   2.022   0.644   6.655
 4576HO4     OW18301   1.077   4.813   0.869
 4576HO4    HW118302   1.056   4.904   0.832
 4576HO4    HW218303   1.070   4.816   0.969
 4576HO4     MW18304   1.077   4.813   0.869
 4577HO4     OW18305   9.329   1.082   7.656
 4577HO4    HW118306   9.267   1.074   7.578
 4577HO4    HW218307   9.422   1.055   7.627
 4577HO4     MW18308   9.329   1.082   7.656
 4578HO4     OW18309   7.880   5.315   7.327
 4578HO4    HW118310   7.861   5.223   7.363
 4578HO4    HW218311   7.852   5.384   7.395
 4578HO4     MW18312   7.880   5.315   7.327
 4579HO4     OW18313   9.218   5.365   1.763
 4579HO4    HW118314   9.215   5.459   1.729
 4579HO4    HW218315   9.127   5.338   1.795
 4579HO4     MW18316   9.218   5.365   1.763
 4580HO4     OW18317   1.971   9.587   8.762
 4580HO4    HW118318   2.058   9.584   8.812
 4580HO4    HW218319   1.966   9.671   8.707
 4580HO4     MW18320   1.971   9.587   8.762
 4581HO4     OW18321   2.514   8.190   9.874
 4581HO4    HW118322   2.540   8.198   9.777
 4581HO4    HW218323   2.414   8.184   9.882
 4581HO4     MW18324   2.514   8.190   9.874
 4582HO4     OW18325   7.152   7.904   2.432
 4582HO4    HW118326   7.125   7.959   2.511
 4582HO4    HW218327   7.190   7.816   2.463
 4582HO4     MW18328   7.152   7.904   2.432
 4583HO4     OW18329   3.007   0.620   9.752
 4583HO4    HW118330   3.023   0.659   9.661
 4583HO4    HW218331   3.088   0.566   9.780
 4583HO4     MW18332   3.007   0.620   9.752
 4584HO4     OW18333   8.169   7.716   9.415
 4584HO4    HW118334   8.159   7.698   9.514
 4584HO4    HW218335   8.261   7.752   9.397
 4584HO4     MW18336   8.169   7.716   9.415
 4585HO4     OW18337   5.075   6.818   2.064
 4585HO4    HW118338   5.094   6.786   1.971
 4585HO4    HW218339   5.156   6.803   2.122
 4585HO4     MW18340   5.075   6.818   2.064
 4586HO4     OW18341   7.173   8.924   8.053
 4586HO4    HW118342   7.195   8.853   7.986
 4586HO4    HW218343   7.155   9.011   8.004
 4586HO4     MW18344   7.173   8.924   8.053
 4587HO4     OW18345   4.971   8.234   6.819
 4587HO4    HW118346   4.939   8.141   6.796
 4587HO4    HW218347   5.012   8.276   6.738
 4587HO4     MW18348   4.971   8.234   6.819
 4588HO4     OW18349   2.019   3.074   7.445
 4588HO4    HW118350   2.115   3.094   7.466
 4588HO4    HW218351   1.995   2.983   7.481
 4588HO4     MW18352   2.019   3.074   7.445
 4589HO4     OW18353   7.282   1.458   1.914
 4589HO4    HW118354   7.183   1.472   1.906
 4589HO4    HW218355   7.308   1.460   2.011
 4589HO4     MW18356   7.282   1.458   1.914
 4590HO4     OW18357   1.592   6.807   2.729
 4590HO4    HW118358   1.582   6.747   2.650
 4590HO4    HW218359   1.590   6.752   2.813
 4590HO4     MW18360   1.592   6.807   2.729
 4591HO4     OW18361   0.336   3.219   9.226
 4591HO4    HW118362   0.284   3.138   9.256
 4591HO4    HW218363   0.290   3.302   9.259
 4591HO4     MW18364   0.336   3.219   9.226
 4592HO4     OW18365   5.185   5.941   1.610
 4592HO4    HW118366   5.201   5.980   1.519
 4592HO4    HW218367   5.254   5.870   1.630
 4592HO4     MW18368   5.185   5.941   1.610
 4593HO4     OW18369   8.218   5.584   7.403
 4593HO4    HW118370   8.271   5.656   7.448
 4593HO4    HW218371   8.272   5.546   7.326
 4593HO4     MW18372   8.218   5.584   7.403
 4594HO4     OW18373   9.425   1.705   2.259
 4594HO4    HW118374   9.380   1.789   2.228
 4594HO4    HW218375   9.493   1.727   2.330
 4594HO4     MW18376   9.425   1.705   2.259
 4595HO4     OW18377   0.741  10.130   4.662
 4595HO4    HW118378   0.644  10.113   4.646
 4595HO4    HW218379   0.787  10.045   4.688
 4595HO4     MW18380   0.741  10.130   4.662
 4596HO4     OW18381   5.829   1.821   7.060
 4596HO4    HW118382   5.834   1.743   7.123
 4596HO4    HW218383   5.756   1.805   6.993
 4596HO4     MW18384   5.829   1.821   7.060
 4597HO4     OW18385   6.646   0.167   3.723
 4597HO4    HW118386   6.582   0.164   3.801
 4597HO4    HW218387   6.595   0.152   3.638
 4597HO4     MW18388   6.646   0.167   3.723
 4598HO4     OW18389   6.479   6.041   3.429
 4598HO4    HW118390   6.437   6.005   3.513
 4598HO4    HW218391   6.541   5.972   3.391
 4598HO4     MW18392   6.479   6.041   3.429
 4599HO4     OW18393   7.973   6.720   1.221
 4599HO4    HW118394   8.013   6.810   1.240
 4599HO4    HW218395   7.916   6.726   1.138
 4599HO4     MW18396   7.973   6.720   1.221
 4600HO4     OW18397   6.612   4.620   6.862
 4600HO4    HW118398   6.698   4.567   6.871
 4600HO4    HW218399   6.562   4.617   6.948
 4600HO4     MW18400   6.612   4.620   6.862
 4601HO4     OW18401   0.789   4.595   7.151
 4601HO4    HW118402   0.838   4.682   7.158
 4601HO4    HW218403   0.723   4.599   7.075
 4601HO4     MW18404   0.789   4.595   7.151
 4602HO4     OW18405   5.756   0.120   6.378
 4602HO4    HW118406   5.723   0.128   6.473
 4602HO4    HW218407   5.828   0.050   6.373
 4602HO4     MW18408   5.756   0.120   6.378
 4603HO4     OW18409   1.454   4.912   3.760
 4603HO4    HW118410   1.393   4.837   3.735
 4603HO4    HW218411   1.549   4.886   3.742
 4603HO4     MW18412   1.454   4.912   3.760
 4604HO4     OW18413   6.394   7.731   5.197
 4604HO4    HW118414   6.389   7.790   5.116
 4604HO4    HW218415   6.463   7.767   5.261
 4604HO4     MW18416   6.394   7.731   5.197
 4605HO4     OW18417   7.735   6.610   8.055
 4605HO4    HW118418   7.731   6.606   8.155
 4605HO4    HW218419   7.656   6.562   8.016
 4605HO4     MW18420   7.735   6.610   8.055
 4606HO4     OW18421   5.329   5.868   1.378
 4606HO4    HW118422   5.386   5.908   1.305
 4606HO4    HW218423   5.378   5.873   1.465
 4606HO4     MW18424   5.329   5.868   1.378
 4607HO4     OW18425   9.842   2.909   2.468
 4607HO4    HW118426   9.745   2.915   2.445
 4607HO4    HW218427   9.893   2.977   2.414
 4607HO4     MW18428   9.842   2.909   2.468
 4608HO4     OW18429   6.337   4.352   7.239
 4608HO4    HW118430   6.264   4.346   7.171
 4608HO4    HW218431   6.336   4.269   7.296
 4608HO4     MW18432   6.337   4.352   7.239
 4609HO4     OW18433   5.238   7.172   1.044
 4609HO4    HW118434   5.328   7.129   1.033
 4609HO4    HW218435   5.229   7.249   0.980
 4609HO4     MW18436   5.238   7.172   1.044
 4610HO4     OW18437   8.893   8.260   0.462
 4610HO4    HW118438   8.808   8.305   0.436
 4610HO4    HW218439   8.925   8.297   0.550
 4610HO4     MW18440   8.893   8.260   0.462
 4611HO4     OW18441   5.977   4.080   1.644
 4611HO4    HW118442   6.011   4.140   1.571
 4611HO4    HW218443   6.044   4.008   1.662
 4611HO4     MW18444   5.977   4.080   1.644
 4612HO4     OW18445   0.520   0.030   5.545
 4612HO4    HW118446   0.581   0.040   5.465
 4612HO4    HW218447   0.576   0.028   5.628
 4612HO4     MW18448   0.520   0.030   5.545
 4613HO4     OW18449   0.246   7.178   6.282
 4613HO4    HW118450   0.259   7.234   6.365
 4613HO4    HW218451   0.152   7.145   6.278
 4613HO4     MW18452   0.246   7.178   6.282
 4614HO4     OW18453   2.436   6.771   1.211
 4614HO4    HW118454   2.491   6.693   1.179
 4614HO4    HW218455   2.494   6.833   1.265
 4614HO4     MW18456   2.436   6.771   1.211
 4615HO4     OW18457   9.186   2.541   9.336
 4615HO4    HW118458   9.166   2.602   9.414
 4615HO4    HW218459   9.128   2.567   9.258
 4615HO4     MW18460   9.186   2.541   9.336
 4616HO4     OW18461   6.828   0.693   9.732
 4616HO4    HW118462   6.832   0.783   9.777
 4616HO4    HW218463   6.734   0.660   9.731
 4616HO4     MW18464   6.828   0.693   9.732
 4617HO4     OW18465   6.556   5.368   3.536
 4617HO4    HW118466   6.629   5.300   3.525
 4617HO4    HW218467   6.593   5.460   3.522
 4617HO4     MW18468   6.556   5.368   3.536
 4618HO4     OW18469   9.246   6.604   8.886
 4618HO4    HW118470   9.231   6.585   8.788
 4618HO4    HW218471   9.215   6.526   8.941
 4618HO4     MW18472   9.246   6.604   8.886
 4619HO4     OW18473   2.284   2.035   2.249
 4619HO4    HW118474   2.307   2.114   2.306
 4619HO4    HW218475   2.363   1.973   2.243
 4619HO4     MW18476   2.284   2.035   2.249
 4620HO4     OW18477   4.604   3.844   4.256
 4620HO4    HW118478   4.623   3.840   4.355
 4620HO4    HW218479   4.663   3.912   4.213
 4620HO4     MW18480   4.604   3.844   4.256
 4621HO4     OW18481   7.169   6.977   8.037
 4621HO4    HW118482   7.142   6.900   8.096
 4621HO4    HW218483   7.223   6.943   7.959
 4621HO4     MW18484   7.169   6.977   8.037
 4622HO4     OW18485   0.510   6.469   6.857
 4622HO4    HW118486   0.521   6.504   6.951
 4622HO4    HW218487   0.457   6.535   6.803
 4622HO4     MW18488   0.510   6.469   6.857
 4623HO4     OW18489   3.881   6.579   7.103
 4623HO4    HW118490   3.924   6.661   7.063
 4623HO4    HW218491   3.783   6.581   7.086
 4623HO4     MW18492   3.881   6.579   7.103
 4624HO4     OW18493   7.244   1.488   9.949
 4624HO4    HW118494   7.296   1.472   9.865
 4624HO4    HW218495   7.231   1.586   9.963
 4624HO4     MW18496   7.244   1.488   9.949
 4625HO4     OW18497   1.130   4.812   0.557
 4625HO4    HW118498   1.147   4.849   0.465
 4625HO4    HW218499   1.197   4.852   0.621
 4625HO4     MW18500   1.130   4.812   0.557
 4626HO4     OW18501   2.652   8.334   1.811
 4626HO4    HW118502   2.574   8.392   1.784
 4626HO4    HW218503   2.618   8.245   1.841
 4626HO4     MW18504   2.652   8.334   1.811
 4627HO4     OW18505   1.086   8.665   6.321
 4627HO4    HW118506   1.110   8.570   6.342
 4627HO4    HW218507   1.121   8.689   6.230
 4627HO4     MW18508   1.086   8.665   6.321
 4628HO4     OW18509   4.327   0.486   1.955
 4628HO4    HW118510   4.345   0.477   2.053
 4628HO4    HW218511   4.388   0.556   1.916
 4628HO4     MW18512   4.327   0.486   1.955
 4629HO4     OW18513   7.519   5.989   0.693
 4629HO4    HW118514   7.538   6.009   0.596
 4629HO4    HW218515   7.585   6.038   0.751
 4629HO4     MW18516   7.519   5.989   0.693
 4630HO4     OW18517   1.529   0.645   5.043
 4630HO4    HW118518   1.479   0.579   4.987
 4630HO4    HW218519   1.564   0.599   5.125
 4630HO4     MW18520   1.529   0.645   5.043
 4631HO4     OW18521   8.298   8.820   6.854
 4631HO4    HW118522   8.272   8.856   6.764
 4631HO4    HW218523   8.248   8.870   6.925
 4631HO4     MW18524   8.298   8.820   6.854
 4632HO4     OW18525   3.871   8.824   4.680
 4632HO4    HW118526   3.868   8.878   4.765
 4632HO4    HW218527   3.859   8.884   4.601
 4632HO4     MW18528   3.871   8.824   4.680
 4633HO4     OW18529   1.394   7.707   0.965
 4633HO4    HW118530   1.342   7.677   0.885
 4633HO4    HW218531   1.464   7.772   0.938
 4633HO4     MW18532   1.394   7.707   0.965
 4634HO4     OW18533   4.227   0.591   2.784
 4634HO4    HW118534   4.274   0.622   2.867
 4634HO4    HW218535   4.134   0.561   2.807
 4634HO4     MW18536   4.227   0.591   2.784
 4635HO4     OW18537   3.659   3.334   7.348
 4635HO4    HW118538   3.569   3.372   7.372
 4635HO4    HW218539   3.730   3.380   7.402
 4635HO4     MW18540   3.659   3.334   7.348
 4636HO4     OW18541   9.925   6.284   8.943
 4636HO4    HW118542   9.924   6.316   8.848
 4636HO4    HW218543  10.007   6.319   8.989
 4636HO4     MW18544   9.925   6.284   8.943
 4637HO4     OW18545   9.475   9.498   9.830
 4637HO4    HW118546   9.571   9.526   9.837
 4637HO4    HW218547   9.428   9.559   9.765
 4637HO4     MW18548   9.475   9.498   9.830
 4638HO4     OW18549   4.071   5.372   0.760
 4638HO4    HW118550   4.104   5.331   0.675
 4638HO4    HW218551   4.142   5.362   0.831
 4638HO4     MW18552   4.071   5.372   0.760
 4639HO4     OW18553   5.584   5.234   5.895
 4639HO4    HW118554   5.617   5.285   5.975
 4639HO4    HW218555   5.630   5.268   5.812
 4639HO4     MW18556   5.584   5.234   5.895
 4640HO4     OW18557   3.093   3.324   8.402
 4640HO4    HW118558   3.190   3.299   8.395
 4640HO4    HW218559   3.041   3.246   8.437
 4640HO4     MW18560   3.093   3.324   8.402
 4641HO4     OW18561   8.535   7.873   7.494
 4641HO4    HW118562   8.523   7.971   7.476
 4641HO4    HW218563   8.616   7.859   7.552
 4641HO4     MW18564   8.535   7.873   7.494
 4642HO4     OW18565   5.376   4.336   8.036
 4642HO4    HW118566   5.356   4.280   7.955
 4642HO4    HW218567   5.353   4.283   8.119
 4642HO4     MW18568   5.376   4.336   8.036
 4643HO4     OW18569   0.344   1.342   7.880
 4643HO4    HW118570   0.336   1.393   7.794
 4643HO4    HW218571   0.297   1.392   7.954
 4643HO4     MW18572   0.344   1.342   7.880
 4644HO4     OW18573   8.875   5.903   1.399
 4644HO4    HW118574   8.897   5.834   1.329
 4644HO4    HW218575   8.953   5.964   1.412
 4644HO4     MW18576   8.875   5.903   1.399
 4645HO4     OW18577   1.141   7.768   1.743
 4645HO4    HW118578   1.084   7.834   1.794
 4645HO4    HW218579   1.152   7.799   1.648
 4645HO4     MW18580   1.141   7.768   1.743
 4646HO4     OW18581   7.046   3.164   2.019
 4646HO4    HW118582   7.065   3.120   1.931
 4646HO4    HW218583   7.122   3.225   2.043
 4646HO4     MW18584   7.046   3.164   2.019
 4647HO4     OW18585   5.948   6.696   2.163
 4647HO4    HW118586   5.961   6.779   2.107
 4647HO4    HW218587   5.960   6.719   2.260
 4647HO4     MW18588   5.948   6.696   2.163
 4648HO4     OW18589   0.611   7.159   2.066
 4648HO4    HW118590   0.695   7.213   2.060
 4648HO4    HW218591   0.625   7.081   2.129
 4648HO4     MW18592   0.611   7.159   2.066
 4649HO4     OW18593   1.308   8.999   0.472
 4649HO4    HW118594   1.330   9.030   0.566
 4649HO4    HW218595   1.215   8.962   0.470
 4649HO4     MW18596   1.308   8.999   0.472
 4650HO4     OW18597   8.728   5.399   3.960
 4650HO4    HW118598   8.800   5.388   4.030
 4650HO4    HW218599   8.727   5.495   3.928
 4650HO4     MW18600   8.728   5.399   3.960
 4651HO4     OW18601   8.161   0.026   8.450
 4651HO4    HW118602   8.178   0.009   8.352
 4651HO4    HW218603   8.179   0.122   8.471
 4651HO4     MW18604   8.161   0.026   8.450
 4652HO4     OW18605   7.029   2.729   4.679
 4652HO4    HW118606   7.004   2.632   4.668
 4652HO4    HW218607   7.108   2.737   4.740
 4652HO4     MW18608   7.029   2.729   4.679
 4653HO4     OW18609   1.623   1.456   8.537
 4653HO4    HW118610   1.719   1.430   8.527
 4653HO4    HW218611   1.574   1.436   8.451
 4653HO4     MW18612   1.623   1.456   8.537
 4654HO4     OW18613   6.565   2.511   1.652
 4654HO4    HW118614   6.577   2.434   1.588
 4654HO4    HW218615   6.646   2.571   1.647
 4654HO4     MW18616   6.565   2.511   1.652
 4655HO4     OW18617   8.076   3.769   2.894
 4655HO4    HW118618   8.069   3.796   2.990
 4655HO4    HW218619   8.065   3.850   2.835
 4655HO4     MW18620   8.076   3.769   2.894
 4656HO4     OW18621   9.311   4.655   1.640
 4656HO4    HW118622   9.292   4.663   1.542
 4656HO4    HW218623   9.301   4.745   1.684
 4656HO4     MW18624   9.311   4.655   1.640
 4657HO4     OW18625   0.092   3.584   2.223
 4657HO4    HW118626  -0.004   3.566   2.199
 4657HO4    HW218627   0.146   3.594   2.139
 4657HO4     MW18628   0.092   3.584   2.223
 4658HO4     OW18629   1.304   8.746   1.385
 4658HO4    HW118630   1.379   8.687   1.414
 4658HO4    HW218631   1.236   8.692   1.335
 4658HO4     MW18632   1.304   8.746   1.385
 4659HO4     OW18633   7.727   1.215   7.918
 4659HO4    HW118634   7.796   1.217   7.991
 4659HO4    HW218635   7.767   1.252   7.833
 4659HO4     MW18636   7.727   1.215   7.918
 4660HO4     OW18637   0.637   2.366   5.062
 4660HO4    HW118638   0.620   2.458   5.027
 4660HO4    HW218639   0.565   2.341   5.128
 4660HO4     MW18640   0.637   2.366   5.062
 4661HO4     OW18641   6.820   6.302   0.055
 4661HO4    HW118642   6.820   6.238   0.133
 4661HO4    HW218643   6.761   6.266  -0.018
 4661HO4     MW18644   6.820   6.302   0.055
 4662HO4     OW18645   5.707   8.730   5.648
 4662HO4    HW118646   5.700   8.661   5.576
 4662HO4    HW218647   5.800   8.729   5.686
 4662HO4     MW18648   5.707   8.730   5.648
 4663HO4     OW18649   3.557   4.571   7.909
 4663HO4    HW118650   3.513   4.581   7.999
 4663HO4    HW218651   3.498   4.613   7.839
 4663HO4     MW18652   3.557   4.571   7.909
 4664HO4     OW18653   7.239   4.648   5.057
 4664HO4    HW118654   7.229   4.582   5.132
 4664HO4    HW218655   7.154   4.699   5.045
 4664HO4     MW18656   7.239   4.648   5.057
 4665HO4     OW18657   8.991   6.536   8.744
 4665HO4    HW118658   9.030   6.472   8.677
 4665HO4    HW218659   8.950   6.614   8.696
 4665HO4     MW18660   8.991   6.536   8.744
 4666HO4     OW18661   3.856   9.706   4.730
 4666HO4    HW118662   3.912   9.753   4.660
 4666HO4    HW218663   3.825   9.618   4.694
 4666HO4     MW18664   3.856   9.706   4.730
 4667HO4     OW18665  10.038   8.345   1.463
 4667HO4    HW118666   9.974   8.268   1.451
 4667HO4    HW218667  10.106   8.321   1.533
 4667HO4     MW18668  10.038   8.345   1.463
 4668HO4     OW18669   9.447   2.976   3.617
 4668HO4    HW118670   9.473   2.909   3.687
 4668HO4    HW218671   9.529   3.026   3.587
 4668HO4     MW18672   9.447   2.976   3.617
 4669HO4     OW18673   1.206   0.952   5.796
 4669HO4    HW118674   1.299   0.964   5.830
 4669HO4    HW218675   1.203   0.975   5.698
 4669HO4     MW18676   1.206   0.952   5.796
 4670HO4     OW18677   2.838   1.261   8.693
 4670HO4    HW118678   2.935   1.280   8.674
 4670HO4    HW218679   2.786   1.261   8.607
 4670HO4     MW18680   2.838   1.261   8.693
 4671HO4     OW18681   0.214   4.047   0.111
 4671HO4    HW118682   0.312   4.050   0.131
 4671HO4    HW218683   0.197   4.085   0.019
 4671HO4     MW18684   0.214   4.047   0.111
 4672HO4     OW18685   4.485   1.912   1.554
 4672HO4    HW118686   4.510   1.987   1.492
 4672HO4    HW218687   4.442   1.950   1.637
 4672HO4     MW18688   4.485   1.912   1.554
 4673HO4     OW18689   4.286   7.352   5.064
 4673HO4    HW118690   4.347   7.278   5.034
 4673HO4    HW218691   4.223   7.376   4.989
 4673HO4     MW18692   4.286   7.352   5.064
 4674HO4     OW18693   1.601   1.303   0.764
 4674HO4    HW118694   1.596   1.253   0.677
 4674HO4    HW218695   1.523   1.366   0.771
 4674HO4     MW18696   1.601   1.303   0.764
 4675HO4     OW18697   3.690   0.467   2.643
 4675HO4    HW118698   3.655   0.373   2.639
 4675HO4    HW218699   3.615   0.529   2.667
 4675HO4     MW18700   3.690   0.467   2.643
 4676HO4     OW18701   3.617   6.566   0.541
 4676HO4    HW118702   3.703   6.595   0.582
 4676HO4    HW218703   3.630   6.554   0.442
 4676HO4     MW18704   3.617   6.566   0.541
 4677HO4     OW18705   2.653   7.907   6.847
 4677HO4    HW118706   2.709   7.898   6.930
 4677HO4    HW218707   2.711   7.932   6.769
 4677HO4     MW18708   2.653   7.907   6.847
 4678HO4     OW18709   6.090   8.755   1.036
 4678HO4    HW118710   6.146   8.691   0.983
 4678HO4    HW218711   6.083   8.723   1.131
 4678HO4     MW18712   6.090   8.755   1.036
 4679HO4     OW18713  -0.022   0.323   6.577
 4679HO4    HW118714  -0.002   0.327   6.676
 4679HO4    HW218715   0.051   0.273   6.530
 4679HO4     MW18716  -0.022   0.323   6.577
 4680HO4     OW18717   4.093   0.510   3.780
 4680HO4    HW118718   4.097   0.541   3.684
 4680HO4    HW218719   4.006   0.537   3.820
 4680HO4     MW18720   4.093   0.510   3.780
 4681HO4     OW18721   5.825   6.146   8.858
 4681HO4    HW118722   5.755   6.120   8.791
 4681HO4    HW218723   5.910   6.094   8.840
 4681HO4     MW18724   5.825   6.146   8.858
 4682HO4     OW18725   6.923   9.765   0.872
 4682HO4    HW118726   6.880   9.778   0.962
 4682HO4    HW218727   6.855   9.778   0.800
 4682HO4     MW18728   6.923   9.765   0.872
 4683HO4     OW18729   7.875   9.649   4.906
 4683HO4    HW118730   7.794   9.643   4.965
 4683HO4    HW218731   7.847   9.639   4.810
 4683HO4     MW18732   7.875   9.649   4.906
 4684HO4     OW18733   0.164   7.832   3.748
 4684HO4    HW118734   0.091   7.843   3.679
 4684HO4    HW218735   0.133   7.874   3.835
 4684HO4     MW18736   0.164   7.832   3.748
 4685HO4     OW18737   6.855   6.573   7.990
 4685HO4    HW118738   6.855   6.673   7.980
 4685HO4    HW218739   6.871   6.549   8.087
 4685HO4     MW18740   6.855   6.573   7.990
 4686HO4     OW18741   0.588   9.941   8.378
 4686HO4    HW118742   0.552   9.893   8.459
 4686HO4    HW218743   0.564   9.889   8.295
 4686HO4     MW18744   0.588   9.941   8.378
 4687HO4     OW18745   6.253   4.475   8.810
 4687HO4    HW118746   6.247   4.421   8.894
 4687HO4    HW218747   6.230   4.417   8.731
 4687HO4     MW18748   6.253   4.475   8.810
 4688HO4     OW18749   7.270   6.133   7.311
 4688HO4    HW118750   7.279   6.225   7.273
 4688HO4    HW218751   7.307   6.132   7.404
 4688HO4     MW18752   7.270   6.133   7.311
 4689HO4     OW18753   1.730   9.284   0.401
 4689HO4    HW118754   1.653   9.222   0.421
 4689HO4    HW218755   1.777   9.308   0.486
 4689HO4     MW18756   1.730   9.284   0.401
 4690HO4     OW18757   7.780   0.219   0.257
 4690HO4    HW118758   7.862   0.181   0.214
 4690HO4    HW218759   7.742   0.152   0.321
 4690HO4     MW18760   7.780   0.219   0.257
 4691HO4     OW18761   0.169   3.866   5.388
 4691HO4    HW118762   0.069   3.861   5.398
 4691HO4    HW218763   0.211   3.864   5.479
 4691HO4     MW18764   0.169   3.866   5.388
 4692HO4     OW18765   8.592   3.281   1.633
 4692HO4    HW118766   8.556   3.240   1.717
 4692HO4    HW218767   8.516   3.305   1.572
 4692HO4     MW18768   8.592   3.281   1.633
 4693HO4     OW18769   7.893   1.026   8.904
 4693HO4    HW118770   7.982   0.981   8.891
 4693HO4    HW218771   7.905   1.110   8.957
 4693HO4     MW18772   7.893   1.026   8.904
 4694HO4     OW18773   0.061   6.929   0.790
 4694HO4    HW118774   0.059   6.965   0.884
 4694HO4    HW218775   0.095   6.999   0.727
 4694HO4     MW18776   0.061   6.929   0.790
 4695HO4     OW18777   2.446   4.428   2.154
 4695HO4    HW118778   2.514   4.428   2.080
 4695HO4    HW218779   2.478   4.489   2.228
 4695HO4     MW18780   2.446   4.428   2.154
 4696HO4     OW18781   4.833   8.608   6.901
 4696HO4    HW118782   4.802   8.689   6.951
 4696HO4    HW218783   4.933   8.611   6.890
 4696HO4     MW18784   4.833   8.608   6.901
 4697HO4     OW18785   3.903   1.221   8.823
 4697HO4    HW118786   3.899   1.137   8.769
 4697HO4    HW218787   3.931   1.297   8.764
 4697HO4     MW18788   3.903   1.221   8.823
 4698HO4     OW18789   9.319   3.971   9.216
 4698HO4    HW118790   9.370   4.030   9.279
 4698HO4    HW218791   9.349   3.876   9.227
 4698HO4     MW18792   9.319   3.971   9.216
 4699HO4     OW18793   5.601   2.406   5.139
 4699HO4    HW118794   5.608   2.505   5.156
 4699HO4    HW218795   5.557   2.390   5.051
 4699HO4     MW18796   5.601   2.406   5.139
 4700HO4     OW18797   9.200   2.155   8.604
 4700HO4    HW118798   9.101   2.168   8.612
 4700HO4    HW218799   9.221   2.113   8.515
 4700HO4     MW18800   9.200   2.155   8.604
 4701HO4     OW18801   3.736   0.067   6.559
 4701HO4    HW118802   3.650   0.021   6.580
 4701HO4    HW218803   3.770   0.114   6.641
 4701HO4     MW18804   3.736   0.067   6.559
 4702HO4     OW18805   9.821   4.953   7.554
 4702HO4    HW118806   9.754   5.026   7.541
 4702HO4    HW218807   9.820   4.892   7.475
 4702HO4     MW18808   9.821   4.953   7.554
 4703HO4     OW18809   9.391   7.999   4.120
 4703HO4    HW118810   9.482   7.959   4.137
 4703HO4    HW218811   9.346   7.948   4.045
 4703HO4     MW18812   9.391   7.999   4.120
 4704HO4     OW18813   1.560   9.410   5.799
 4704HO4    HW118814   1.534   9.363   5.714
 4704HO4    HW218815   1.538   9.351   5.878
 4704HO4     MW18816   1.560   9.410   5.799
 4705HO4     OW18817   2.256   9.542   4.775
 4705HO4    HW118818   2.228   9.510   4.866
 4705HO4    HW218819   2.210   9.487   4.705
 4705HO4     MW18820   2.256   9.542   4.775
 4706HO4     OW18821   6.183   8.485   6.030
 4706HO4    HW118822   6.172   8.403   5.975
 4706HO4    HW218823   6.149   8.565   5.979
 4706HO4     MW18824   6.183   8.485   6.030
 4707HO4     OW18825   9.472   4.981   6.373
 4707HO4    HW118826   9.433   4.936   6.453
 4707HO4    HW218827   9.400   4.994   6.304
 4707HO4     MW18828   9.472   4.981   6.373
 4708HO4     OW18829   0.159   3.650   4.167
 4708HO4    HW118830   0.233   3.695   4.117
 4708HO4    HW218831   0.176   3.551   4.169
 4708HO4     MW18832   0.159   3.650   4.167
 4709HO4     OW18833   9.156   2.359   2.476
 4709HO4    HW118834   9.245   2.383   2.515
 4709HO4    HW218835   9.168   2.330   2.380
 4709HO4     MW18836   9.156   2.359   2.476
 4710HO4     OW18837   3.295   5.273   5.131
 4710HO4    HW118838   3.253   5.302   5.218
 4710HO4    HW218839   3.247   5.319   5.055
 4710HO4     MW18840   3.295   5.273   5.131
 4711HO4     OW18841   4.793   0.704   3.014
 4711HO4    HW118842   4.807   0.798   2.980
 4711HO4    HW218843   4.881   0.667   3.046
 4711HO4     MW18844   4.793   0.704   3.014
 4712HO4     OW18845   4.023   8.015   0.737
 4712HO4    HW118846   3.966   8.059   0.808
 4712HO4    HW218847   4.047   7.922   0.767
 4712HO4     MW18848   4.023   8.015   0.737
 4713HO4     OW18849   4.374   0.559   9.033
 4713HO4    HW118850   4.376   0.619   9.114
 4713HO4    HW218851   4.340   0.611   8.954
 4713HO4     MW18852   4.374   0.559   9.033
 4714HO4     OW18853   7.970   3.142   6.408
 4714HO4    HW118854   7.924   3.212   6.353
 4714HO4    HW218855   7.960   3.165   6.506
 4714HO4     MW18856   7.970   3.142   6.408
 4715HO4     OW18857   5.065   0.439   0.520
 4715HO4    HW118858   5.062   0.339   0.514
 4715HO4    HW218859   5.046   0.479   0.430
 4715HO4     MW18860   5.065   0.439   0.520
 4716HO4     OW18861   8.176   2.458   0.626
 4716HO4    HW118862   8.169   2.509   0.712
 4716HO4    HW218863   8.161   2.520   0.549
 4716HO4     MW18864   8.176   2.458   0.626
 4717HO4     OW18865   7.405   8.798   1.939
 4717HO4    HW118866   7.381   8.848   1.855
 4717HO4    HW218867   7.378   8.853   2.018
 4717HO4     MW18868   7.405   8.798   1.939
 4718HO4     OW18869   5.373   3.644   7.984
 4718HO4    HW118870   5.351   3.739   7.960
 4718HO4    HW218871   5.321   3.582   7.925
 4718HO4     MW18872   5.373   3.644   7.984
 4719HO4     OW18873   3.689   3.675   1.493
 4719HO4    HW118874   3.725   3.674   1.400
 4719HO4    HW218875   3.642   3.763   1.510
 4719HO4     MW18876   3.689   3.675   1.493
 4720HO4     OW18877   1.156   4.721   5.366
 4720HO4    HW118878   1.173   4.743   5.462
 4720HO4    HW218879   1.241   4.729   5.314
 4720HO4     MW18880   1.156   4.721   5.366
 4721HO4     OW18881   9.803   0.949   8.062
 4721HO4    HW118882   9.818   0.898   7.976
 4721HO4    HW218883   9.841   0.896   8.138
 4721HO4     MW18884   9.803   0.949   8.062
 4722HO4     OW18885   5.218   8.402   7.816
 4722HO4    HW118886   5.268   8.430   7.898
 4722HO4    HW218887   5.267   8.435   7.734
 4722HO4     MW18888   5.218   8.402   7.816
 4723HO4     OW18889   2.204   1.780   8.494
 4723HO4    HW118890   2.231   1.736   8.408
 4723HO4    HW218891   2.221   1.718   8.570
 4723HO4     MW18892   2.204   1.780   8.494
 4724HO4     OW18893   5.895   5.634   7.929
 4724HO4    HW118894   5.951   5.652   8.010
 4724HO4    HW218895   5.944   5.662   7.846
 4724HO4     MW18896   5.895   5.634   7.929
 4725HO4     OW18897   3.093   7.828   6.608
 4725HO4    HW118898   3.063   7.808   6.515
 4725HO4    HW218899   3.145   7.914   6.608
 4725HO4     MW18900   3.093   7.828   6.608
 4726HO4     OW18901   8.291   1.093   0.463
 4726HO4    HW118902   8.257   1.145   0.384
 4726HO4    HW218903   8.218   1.085   0.532
 4726HO4     MW18904   8.291   1.093   0.463
 4727HO4     OW18905   4.720   6.877   8.892
 4727HO4    HW118906   4.740   6.931   8.810
 4727HO4    HW218907   4.749   6.929   8.973
 4727HO4     MW18908   4.720   6.877   8.892
 4728HO4     OW18909   3.752   2.956   0.294
 4728HO4    HW118910   3.838   2.936   0.341
 4728HO4    HW218911   3.763   3.037   0.235
 4728HO4     MW18912   3.752   2.956   0.294
 4729HO4     OW18913   6.471   8.714   1.158
 4729HO4    HW118914   6.405   8.669   1.097
 4729HO4    HW218915   6.549   8.747   1.104
 4729HO4     MW18916   6.471   8.714   1.158
 4730HO4     OW18917   5.505   5.952   5.333
 4730HO4    HW118918   5.553   5.868   5.357
 4730HO4    HW218919   5.560   6.006   5.269
 4730HO4     MW18920   5.505   5.952   5.333
 4731HO4     OW18921   7.888   1.449   3.947
 4731HO4    HW118922   7.933   1.374   3.898
 4731HO4    HW218923   7.794   1.422   3.970
 4731HO4     MW18924   7.888   1.449   3.947
 4732HO4     OW18925   2.838   3.932   8.924
 4732HO4    HW118926   2.777   3.852   8.917
 4732HO4    HW218927   2.836   3.967   9.018
 4732HO4     MW18928   2.838   3.932   8.924
 4733HO4     OW18929   7.051   5.819   0.522
 4733HO4    HW118930   7.085   5.839   0.429
 4733HO4    HW218931   6.963   5.772   0.516
 4733HO4     MW18932   7.051   5.819   0.522
 4734HO4     OW18933   1.280   8.618   7.254
 4734HO4    HW118934   1.253   8.572   7.168
 4734HO4    HW218935   1.248   8.564   7.332
 4734HO4     MW18936   1.280   8.618   7.254
 4735HO4     OW18937   3.621   8.763   2.474
 4735HO4    HW118938   3.658   8.738   2.564
 4735HO4    HW218939   3.688   8.740   2.402
 4735HO4     MW18940   3.621   8.763   2.474
 4736HO4     OW18941   4.610   3.300   8.881
 4736HO4    HW118942   4.614   3.303   8.781
 4736HO4    HW218943   4.655   3.381   8.919
 4736HO4     MW18944   4.610   3.300   8.881
 4737HO4     OW18945   3.676   2.466   2.664
 4737HO4    HW118946   3.679   2.566   2.676
 4737HO4    HW218947   3.583   2.432   2.683
 4737HO4     MW18948   3.676   2.466   2.664
 4738HO4     OW18949   7.374   9.506   5.678
 4738HO4    HW118950   7.307   9.502   5.752
 4738HO4    HW218951   7.336   9.461   5.596
 4738HO4     MW18952   7.374   9.506   5.678
 4739HO4     OW18953   6.945   0.733   3.818
 4739HO4    HW118954   6.973   0.637   3.807
 4739HO4    HW218955   6.867   0.739   3.881
 4739HO4     MW18956   6.945   0.733   3.818
 4740HO4     OW18957   6.184   9.702   0.446
 4740HO4    HW118958   6.229   9.783   0.408
 4740HO4    HW218959   6.138   9.726   0.532
 4740HO4     MW18960   6.184   9.702   0.446
 4741HO4     OW18961   0.306   6.712   3.721
 4741HO4    HW118962   0.353   6.739   3.805
 4741HO4    HW218963   0.208   6.700   3.740
 4741HO4     MW18964   0.306   6.712   3.721
 4742HO4     OW18965   4.619   9.954   6.524
 4742HO4    HW118966   4.629  10.032   6.462
 4742HO4    HW218967   4.677   9.968   6.605
 4742HO4     MW18968   4.619   9.954   6.524
 4743HO4     OW18969   9.645   6.077   3.106
 4743HO4    HW118970   9.619   5.981   3.088
 4743HO4    HW218971   9.672   6.120   3.019
 4743HO4     MW18972   9.645   6.077   3.106
 4744HO4     OW18973   0.818   3.364   0.764
 4744HO4    HW118974   0.731   3.337   0.721
 4744HO4    HW218975   0.799   3.413   0.850
 4744HO4     MW18976   0.818   3.364   0.764
 4745HO4     OW18977   5.663   1.326   8.665
 4745HO4    HW118978   5.652   1.292   8.571
 4745HO4    HW218979   5.616   1.265   8.729
 4745HO4     MW18980   5.663   1.326   8.665
 4746HO4     OW18981   6.819   9.721   3.297
 4746HO4    HW118982   6.724   9.749   3.287
 4746HO4    HW218983   6.870   9.792   3.348
 4746HO4     MW18984   6.819   9.721   3.297
 4747HO4     OW18985   1.440   7.301   0.172
 4747HO4    HW118986   1.457   7.384   0.226
 4747HO4    HW218987   1.342   7.278   0.177
 4747HO4     MW18988   1.440   7.301   0.172
 4748HO4     OW18989   9.177   4.109   4.461
 4748HO4    HW118990   9.133   4.049   4.393
 4748HO4    HW218991   9.277   4.100   4.453
 4748HO4     MW18992   9.177   4.109   4.461
 4749HO4     OW18993   4.253   5.109   8.667
 4749HO4    HW118994   4.346   5.086   8.635
 4749HO4    HW218995   4.257   5.192   8.723
 4749HO4     MW18996   4.253   5.109   8.667
 4750HO4     OW18997   3.881   5.029   7.911
 4750HO4    HW118998   3.845   4.990   7.996
 4750HO4    HW218999   3.821   5.104   7.880
 4750HO4     MW19000   3.881   5.029   7.911
 4751HO4     OW19001   6.747   9.972   3.030
 4751HO4    HW119002   6.721  10.068   3.044
 4751HO4    HW219003   6.794   9.962   2.942
 4751HO4     MW19004   6.747   9.972   3.030
 4752HO4     OW19005   5.320   7.007   5.354
 4752HO4    HW119006   5.336   6.976   5.448
 4752HO4    HW219007   5.259   7.087   5.355
 4752HO4     MW19008   5.320   7.007   5.354
 4753HO4     OW19009   9.088   5.284   0.643
 4753HO4    HW119010   9.006   5.233   0.614
 4753HO4    HW219011   9.060   5.359   0.703
 4753HO4     MW19012   9.088   5.284   0.643
 4754HO4     OW19013   7.705   7.237   6.279
 4754HO4    HW119014   7.699   7.327   6.235
 4754HO4    HW219015   7.613   7.200   6.294
 4754HO4     MW19016   7.705   7.237   6.279
 4755HO4     OW19017   6.240   5.022   1.954
 4755HO4    HW119018   6.285   4.985   2.036
 4755HO4    HW219019   6.285   4.987   1.872
 4755HO4     MW19020   6.240   5.022   1.954
 4756HO4     OW19021   7.621   8.619   4.038
 4756HO4    HW119022   7.714   8.589   4.062
 4756HO4    HW219023   7.614   8.625   3.938
 4756HO4     MW19024   7.621   8.619   4.038
 4757HO4     OW19025   3.155   8.427  10.156
 4757HO4    HW119026   3.148   8.466  10.064
 4757HO4    HW219027   3.162   8.501  10.224
 4757HO4     MW19028   3.155   8.427  10.156
 4758HO4     OW19029   8.444   1.267   5.943
 4758HO4    HW119030   8.377   1.263   5.868
 4758HO4    HW219031   8.403   1.313   6.022
 4758HO4     MW19032   8.444   1.267   5.943
 4759HO4     OW19033   4.007   0.167   0.546
 4759HO4    HW119034   4.099   0.139   0.516
 4759HO4    HW219035   3.996   0.266   0.535
 4759HO4     MW19036   4.007   0.167   0.546
 4760HO4     OW19037   2.959   2.766   9.288
 4760HO4    HW119038   3.057   2.760   9.312
 4760HO4    HW219039   2.940   2.856   9.247
 4760HO4     MW19040   2.959   2.766   9.288
 4761HO4     OW19041   0.785   5.096   5.775
 4761HO4    HW119042   0.703   5.065   5.825
 4761HO4    HW219043   0.866   5.055   5.816
 4761HO4     MW19044   0.785   5.096   5.775
 4762HO4     OW19045   5.082   7.378   2.125
 4762HO4    HW119046   5.126   7.374   2.035
 4762HO4    HW219047   5.151   7.365   2.197
 4762HO4     MW19048   5.082   7.378   2.125
 4763HO4     OW19049   6.006   9.387   3.525
 4763HO4    HW119050   6.002   9.417   3.620
 4763HO4    HW219051   5.962   9.297   3.516
 4763HO4     MW19052   6.006   9.387   3.525
 4764HO4     OW19053   6.279   8.909   4.950
 4764HO4    HW119054   6.317   8.947   5.035
 4764HO4    HW219055   6.353   8.888   4.886
 4764HO4     MW19056   6.279   8.909   4.950
 4765HO4     OW19057   2.631   2.161  10.038
 4765HO4    HW119058   2.595   2.233  10.098
 4765HO4    HW219059   2.703   2.199   9.980
 4765HO4     MW19060   2.631   2.161  10.038
 4766HO4     OW19061   2.515   6.163   0.663
 4766HO4    HW119062   2.574   6.203   0.593
 4766HO4    HW219063   2.521   6.217   0.747
 4766HO4     MW19064   2.515   6.163   0.663
 4767HO4     OW19065   1.678   8.803   3.138
 4767HO4    HW119066   1.612   8.771   3.207
 4767HO4    HW219067   1.675   8.743   3.058
 4767HO4     MW19068   1.678   8.803   3.138
 4768HO4     OW19069   2.605   6.938   7.443
 4768HO4    HW119070   2.632   6.845   7.414
 4768HO4    HW219071   2.611   6.944   7.543
 4768HO4     MW19072   2.605   6.938   7.443
 4769HO4     OW19073   2.537   0.189   0.625
 4769HO4    HW119074   2.521   0.190   0.526
 4769HO4    HW219075   2.554   0.283   0.657
 4769HO4     MW19076   2.537   0.189   0.625
 4770HO4     OW19077   4.579   4.483   8.467
 4770HO4    HW119078   4.566   4.395   8.420
 4770HO4    HW219079   4.544   4.477   8.561
 4770HO4     MW19080   4.579   4.483   8.467
 4771HO4     OW19081   6.588   5.048   3.782
 4771HO4    HW119082   6.595   4.962   3.730
 4771HO4    HW219083   6.522   5.036   3.857
 4771HO4     MW19084   6.588   5.048   3.782
 4772HO4     OW19085   6.068   4.703   7.156
 4772HO4    HW119086   6.105   4.727   7.066
 4772HO4    HW219087   6.124   4.629   7.196
 4772HO4     MW19088   6.068   4.703   7.156
 4773HO4     OW19089   5.522   9.578   7.967
 4773HO4    HW119090   5.441   9.547   8.017
 4773HO4    HW219091   5.580   9.633   8.027
 4773HO4     MW19092   5.522   9.578   7.967
 4774HO4     OW19093   3.741   3.323   1.205
 4774HO4    HW119094   3.708   3.230   1.226
 4774HO4    HW219095   3.807   3.320   1.130
 4774HO4     MW19096   3.741   3.323   1.205
 4775HO4     OW19097   0.553   8.957   6.223
 4775HO4    HW119098   0.532   9.053   6.244
 4775HO4    HW219099   0.605   8.917   6.299
 4775HO4     MW19100   0.553   8.957   6.223
 4776HO4     OW19101   0.605   1.483   7.949
 4776HO4    HW119102   0.586   1.418   8.023
 4776HO4    HW219103   0.531   1.551   7.944
 4776HO4     MW19104   0.605   1.483   7.949
 4777HO4     OW19105   6.736   8.916   4.345
 4777HO4    HW119106   6.648   8.866   4.337
 4777HO4    HW219107   6.762   8.922   4.442
 4777HO4     MW19108   6.736   8.916   4.345
 4778HO4     OW19109   5.194   9.253   5.179
 4778HO4    HW119110   5.187   9.330   5.115
 4778HO4    HW219111   5.244   9.282   5.261
 4778HO4     MW19112   5.194   9.253   5.179
 4779HO4     OW19113   1.556   6.364   9.150
 4779HO4    HW119114   1.488   6.415   9.096
 4779HO4    HW219115   1.638   6.422   9.162
 4779HO4     MW19116   1.556   6.364   9.150
 4780HO4     OW19117   1.454   2.304   2.749
 4780HO4    HW119118   1.438   2.403   2.743
 4780HO4    HW219119   1.374   2.261   2.793
 4780HO4     MW19120   1.454   2.304   2.749
 4781HO4     OW19121   8.963   0.093   0.863
 4781HO4    HW119122   9.063   0.091   0.871
 4781HO4    HW219123   8.926   0.171   0.915
 4781HO4     MW19124   8.963   0.093   0.863
 4782HO4     OW19125   3.689   2.183   0.765
 4782HO4    HW119126   3.774   2.210   0.811
 4782HO4    HW219127   3.660   2.258   0.704
 4782HO4     MW19128   3.689   2.183   0.765
 4783HO4     OW19129   5.510   7.227   3.574
 4783HO4    HW119130   5.455   7.152   3.536
 4783HO4    HW219131   5.459   7.271   3.649
 4783HO4     MW19132   5.510   7.227   3.574
 4784HO4     OW19133   5.927   2.975   2.905
 4784HO4    HW119134   6.012   3.027   2.893
 4784HO4    HW219135   5.925   2.933   2.996
 4784HO4     MW19136   5.927   2.975   2.905
 4785HO4     OW19137   2.328   7.276   2.032
 4785HO4    HW119138   2.280   7.187   2.023
 4785HO4    HW219139   2.426   7.262   2.015
 4785HO4     MW19140   2.328   7.276   2.032
 4786HO4     OW19141   9.486   6.992   5.989
 4786HO4    HW119142   9.493   6.948   6.078
 4786HO4    HW219143   9.392   6.984   5.955
 4786HO4     MW19144   9.486   6.992   5.989
 4787HO4     OW19145   3.985   5.580   2.622
 4787HO4    HW119146   4.028   5.648   2.563
 4787HO4    HW219147   3.909   5.623   2.672
 4787HO4     MW19148   3.985   5.580   2.622
 4788HO4     OW19149   7.371   3.363   8.998
 4788HO4    HW119150   7.431   3.443   8.989
 4788HO4    HW219151   7.276   3.393   9.015
 4788HO4     MW19152   7.371   3.363   8.998
 4789HO4     OW19153   5.120   1.998   7.830
 4789HO4    HW119154   5.126   1.930   7.756
 4789HO4    HW219155   5.133   1.953   7.919
 4789HO4     MW19156   5.120   1.998   7.830
 4790HO4     OW19157   5.097   0.111   4.177
 4790HO4    HW119158   5.118   0.199   4.134
 4790HO4    HW219159   4.997   0.096   4.176
 4790HO4     MW19160   5.097   0.111   4.177
 4791HO4     OW19161   3.729   7.383   8.527
 4791HO4    HW119162   3.741   7.288   8.557
 4791HO4    HW219163   3.652   7.388   8.463
 4791HO4     MW19164   3.729   7.383   8.527
 4792HO4     OW19165   7.359   1.718   9.450
 4792HO4    HW119166   7.265   1.708   9.417
 4792HO4    HW219167   7.392   1.630   9.484
 4792HO4     MW19168   7.359   1.718   9.450
 4793HO4     OW19169   4.455   1.624   4.471
 4793HO4    HW119170   4.508   1.608   4.555
 4793HO4    HW219171   4.390   1.549   4.458
 4793HO4     MW19172   4.455   1.624   4.471
 4794HO4     OW19173   0.203   5.740   4.900
 4794HO4    HW119174   0.160   5.831   4.909
 4794HO4    HW219175   0.234   5.728   4.805
 4794HO4     MW19176   0.203   5.740   4.900
 4795HO4     OW19177   7.246   5.231   5.144
 4795HO4    HW119178   7.268   5.246   5.047
 4795HO4    HW219179   7.154   5.266   5.163
 4795HO4     MW19180   7.246   5.231   5.144
 4796HO4     OW19181   6.935   2.149   9.822
 4796HO4    HW119182   6.970   2.193   9.905
 4796HO4    HW219183   6.931   2.217   9.747
 4796HO4     MW19184   6.935   2.149   9.822
 4797HO4     OW19185   9.893   2.455   7.245
 4797HO4    HW119186   9.857   2.501   7.163
 4797HO4    HW219187   9.904   2.522   7.319
 4797HO4     MW19188   9.893   2.455   7.245
 4798HO4     OW19189   5.300   5.174   9.594
 4798HO4    HW119190   5.227   5.243   9.601
 4798HO4    HW219191   5.260   5.085   9.568
 4798HO4     MW19192   5.300   5.174   9.594
 4799HO4     OW19193   2.133   6.798   6.444
 4799HO4    HW119194   2.097   6.774   6.535
 4799HO4    HW219195   2.184   6.720   6.407
 4799HO4     MW19196   2.133   6.798   6.444
 4800HO4     OW19197   1.665   5.330   8.151
 4800HO4    HW119198   1.631   5.358   8.241
 4800HO4    HW219199   1.588   5.318   8.088
 4800HO4     MW19200   1.665   5.330   8.151
 4801HO4     OW19201   5.237   2.118   6.778
 4801HO4    HW119202   5.198   2.188   6.718
 4801HO4    HW219203   5.179   2.037   6.778
 4801HO4     MW19204   5.237   2.118   6.778
 4802HO4     OW19205   5.771   2.353   6.954
 4802HO4    HW119206   5.853   2.401   6.987
 4802HO4    HW219207   5.772   2.352   6.853
 4802HO4     MW19208   5.771   2.353   6.954
 4803HO4     OW19209   0.924   7.008   5.032
 4803HO4    HW119210   0.939   6.956   5.116
 4803HO4    HW219211   0.937   6.948   4.952
 4803HO4     MW19212   0.924   7.008   5.032
 4804HO4     OW19213   3.145   3.566   0.281
 4804HO4    HW119214   3.166   3.556   0.378
 4804HO4    HW219215   3.131   3.663   0.260
 4804HO4     MW19216   3.145   3.566   0.281
 4805HO4     OW19217   1.429   5.057   2.875
 4805HO4    HW119218   1.390   4.995   2.806
 4805HO4    HW219219   1.480   5.003   2.943
 4805HO4     MW19220   1.429   5.057   2.875
 4806HO4     OW19221   8.767   5.844   7.952
 4806HO4    HW119222   8.783   5.805   8.043
 4806HO4    HW219223   8.757   5.944   7.959
 4806HO4     MW19224   8.767   5.844   7.952
 4807HO4     OW19225   9.486   6.774   7.048
 4807HO4    HW119226   9.496   6.717   6.966
 4807HO4    HW219227   9.521   6.724   7.128
 4807HO4     MW19228   9.486   6.774   7.048
 4808HO4     OW19229   8.636   3.343   9.216
 4808HO4    HW119230   8.640   3.270   9.284
 4808HO4    HW219231   8.632   3.303   9.124
 4808HO4     MW19232   8.636   3.343   9.216
 4809HO4     OW19233   6.870   1.748   8.088
 4809HO4    HW119234   6.948   1.707   8.136
 4809HO4    HW219235   6.892   1.843   8.063
 4809HO4     MW19236   6.870   1.748   8.088
 4810HO4     OW19237   2.487   7.622   3.243
 4810HO4    HW119238   2.469   7.694   3.310
 4810HO4    HW219239   2.516   7.663   3.156
 4810HO4     MW19240   2.487   7.622   3.243
 4811HO4     OW19241   3.059   6.957   3.927
 4811HO4    HW119242   3.155   6.962   3.899
 4811HO4    HW219243   3.054   6.924   4.022
 4811HO4     MW19244   3.059   6.957   3.927
 4812HO4     OW19245   6.831   1.674   7.661
 4812HO4    HW119246   6.924   1.643   7.637
 4812HO4    HW219247   6.769   1.656   7.584
 4812HO4     MW19248   6.831   1.674   7.661
 4813HO4     OW19249   5.070   8.910   3.435
 4813HO4    HW119250   5.095   8.847   3.510
 4813HO4    HW219251   5.081   8.864   3.347
 4813HO4     MW19252   5.070   8.910   3.435
 4814HO4     OW19253   1.832   9.330   9.889
 4814HO4    HW119254   1.789   9.401   9.834
 4814HO4    HW219255   1.855   9.366   9.979
 4814HO4     MW19256   1.832   9.330   9.889
 4815HO4     OW19257   6.330   5.576   9.816
 4815HO4    HW119258   6.313   5.524   9.732
 4815HO4    HW219259   6.335   5.513   9.894
 4815HO4     MW19260   6.330   5.576   9.816
 4816HO4     OW19261   4.271   6.527   3.488
 4816HO4    HW119262   4.252   6.494   3.395
 4816HO4    HW219263   4.234   6.620   3.498
 4816HO4     MW19264   4.271   6.527   3.488
 4817HO4     OW19265   1.177   4.283   7.109
 4817HO4    HW119266   1.135   4.343   7.041
 4817HO4    HW219267   1.225   4.339   7.178
 4817HO4     MW19268   1.177   4.283   7.109
 4818HO4     OW19269   1.891   8.484   6.685
 4818HO4    HW119270   1.801   8.526   6.665
 4818HO4    HW219271   1.927   8.521   6.771
 4818HO4     MW19272   1.891   8.484   6.685
 4819HO4     OW19273   0.962   6.001   7.361
 4819HO4    HW119274   1.021   5.987   7.281
 4819HO4    HW219275   1.018   6.007   7.444
 4819HO4     MW19276   0.962   6.001   7.361
 4820HO4     OW19277   2.460   7.165   0.434
 4820HO4    HW119278   2.511   7.121   0.360
 4820HO4    HW219279   2.469   7.111   0.518
 4820HO4     MW19280   2.460   7.165   0.434
 4821HO4     OW19281   8.630   9.084   0.524
 4821HO4    HW119282   8.606   9.136   0.441
 4821HO4    HW219283   8.592   9.130   0.605
 4821HO4     MW19284   8.630   9.084   0.524
 4822HO4     OW19285   5.761   3.085   7.440
 4822HO4    HW119286   5.728   3.176   7.465
 4822HO4    HW219287   5.860   3.089   7.425
 4822HO4     MW19288   5.761   3.085   7.440
 4823HO4     OW19289   5.596   4.875   0.299
 4823HO4    HW119290   5.626   4.795   0.246
 4823HO4    HW219291   5.670   4.906   0.359
 4823HO4     MW19292   5.596   4.875   0.299
 4824HO4     OW19293   1.062   2.567   6.029
 4824HO4    HW119294   1.078   2.496   5.961
 4824HO4    HW219295   1.132   2.639   6.020
 4824HO4     MW19296   1.062   2.567   6.029
 4825HO4     OW19297   2.854   8.153   2.862
 4825HO4    HW119298   2.770   8.195   2.827
 4825HO4    HW219299   2.845   8.053   2.860
 4825HO4     MW19300   2.854   8.153   2.862
 4826HO4     OW19301   4.509   8.637   3.702
 4826HO4    HW119302   4.553   8.604   3.618
 4826HO4    HW219303   4.556   8.598   3.782
 4826HO4     MW19304   4.509   8.637   3.702
 4827HO4     OW19305   8.163   8.714   6.009
 4827HO4    HW119306   8.123   8.638   6.061
 4827HO4    HW219307   8.115   8.723   5.922
 4827HO4     MW19308   8.163   8.714   6.009
 4828HO4     OW19309   1.864   9.774   3.108
 4828HO4    HW119310   1.864   9.811   3.202
 4828HO4    HW219311   1.858   9.674   3.112
 4828HO4     MW19312   1.864   9.774   3.108
 4829HO4     OW19313   1.031   8.488   6.959
 4829HO4    HW119314   1.127   8.493   6.988
 4829HO4    HW219315   1.026   8.484   6.858
 4829HO4     MW19316   1.031   8.488   6.959
 4830HO4     OW19317   4.722   3.760   6.081
 4830HO4    HW119318   4.634   3.711   6.077
 4830HO4    HW219319   4.712   3.842   6.139
 4830HO4     MW19320   4.722   3.760   6.081
 4831HO4     OW19321   7.378   5.296   3.630
 4831HO4    HW119322   7.397   5.316   3.533
 4831HO4    HW219323   7.350   5.200   3.639
 4831HO4     MW19324   7.378   5.296   3.630
 4832HO4     OW19325   1.070   3.310   4.670
 4832HO4    HW119326   1.008   3.270   4.738
 4832HO4    HW219327   1.022   3.321   4.582
 4832HO4     MW19328   1.070   3.310   4.670
 4833HO4     OW19329   1.531   5.303   0.320
 4833HO4    HW119330   1.625   5.276   0.296
 4833HO4    HW219331   1.524   5.403   0.317
 4833HO4     MW19332   1.531   5.303   0.320
 4834HO4     OW19333   7.931   8.266   7.480
 4834HO4    HW119334   7.990   8.346   7.464
 4834HO4    HW219335   7.973   8.184   7.439
 4834HO4     MW19336   7.931   8.266   7.480
 4835HO4     OW19337   3.183   8.451   1.750
 4835HO4    HW119338   3.176   8.460   1.650
 4835HO4    HW219339   3.155   8.538   1.793
 4835HO4     MW19340   3.183   8.451   1.750
 4836HO4     OW19341   4.725   4.115   0.293
 4836HO4    HW119342   4.762   4.068   0.213
 4836HO4    HW219343   4.757   4.071   0.377
 4836HO4     MW19344   4.725   4.115   0.293
 4837HO4     OW19345   2.738   4.233   7.251
 4837HO4    HW119346   2.705   4.145   7.216
 4837HO4    HW219347   2.790   4.218   7.336
 4837HO4     MW19348   2.738   4.233   7.251
 4838HO4     OW19349   0.036   2.530   3.508
 4838HO4    HW119350   0.067   2.455   3.448
 4838HO4    HW219351  -0.006   2.602   3.452
 4838HO4     MW19352   0.036   2.530   3.508
 4839HO4     OW19353   5.395   4.614   8.659
 4839HO4    HW119354   5.334   4.565   8.597
 4839HO4    HW219355   5.393   4.712   8.638
 4839HO4     MW19356   5.395   4.614   8.659
 4840HO4     OW19357   5.400   2.876   8.432
 4840HO4    HW119358   5.385   2.906   8.527
 4840HO4    HW219359   5.313   2.848   8.391
 4840HO4     MW19360   5.400   2.876   8.432
 4841HO4     OW19361   7.557   6.565   3.561
 4841HO4    HW119362   7.654   6.546   3.583
 4841HO4    HW219363   7.545   6.663   3.545
 4841HO4     MW19364   7.557   6.565   3.561
 4842HO4     OW19365   1.996   3.909  10.123
 4842HO4    HW119366   2.059   3.952  10.057
 4842HO4    HW219367   1.941   3.981  10.167
 4842HO4     MW19368   1.996   3.909  10.123
 4843HO4     OW19369   9.351   8.824   8.136
 4843HO4    HW119370   9.420   8.864   8.074
 4843HO4    HW219371   9.278   8.782   8.082
 4843HO4     MW19372   9.351   8.824   8.136
 4844HO4     OW19373   3.143   5.766   1.342
 4844HO4    HW119374   3.049   5.731   1.335
 4844HO4    HW219375   3.141   5.865   1.362
 4844HO4     MW19376   3.143   5.766   1.342
 4845HO4     OW19377   5.101   3.576   4.726
 4845HO4    HW119378   5.139   3.586   4.634
 4845HO4    HW219379   5.056   3.662   4.753
 4845HO4     MW19380   5.101   3.576   4.726
 4846HO4     OW19381   3.364   8.492   1.014
 4846HO4    HW119382   3.442   8.440   1.049
 4846HO4    HW219383   3.376   8.589   1.038
 4846HO4     MW19384   3.364   8.492   1.014
 4847HO4     OW19385   8.057  10.129   5.134
 4847HO4    HW119386   8.025  10.143   5.228
 4847HO4    HW219387   7.979  10.098   5.077
 4847HO4     MW19388   8.057  10.129   5.134
 4848HO4     OW19389   0.489   4.682   0.993
 4848HO4    HW119390   0.566   4.685   0.928
 4848HO4    HW219391   0.451   4.775   1.004
 4848HO4     MW19392   0.489   4.682   0.993
 4849HO4     OW19393   3.914   6.549   3.548
 4849HO4    HW119394   3.853   6.574   3.623
 4849HO4    HW219395   3.996   6.503   3.585
 4849HO4     MW19396   3.914   6.549   3.548
 4850HO4     OW19397   6.407   3.179   5.477
 4850HO4    HW119398   6.311   3.182   5.505
 4850HO4    HW219399   6.421   3.101   5.415
 4850HO4     MW19400   6.407   3.179   5.477
 4851HO4     OW19401   4.867   6.194   8.438
 4851HO4    HW119402   4.847   6.117   8.500
 4851HO4    HW219403   4.937   6.167   8.371
 4851HO4     MW19404   4.867   6.194   8.438
 4852HO4     OW19405   5.663   3.365   1.922
 4852HO4    HW119406   5.689   3.420   1.843
 4852HO4    HW219407   5.637   3.273   1.891
 4852HO4     MW19408   5.663   3.365   1.922
 4853HO4     OW19409   4.625   4.625   1.987
 4853HO4    HW119410   4.606   4.564   1.909
 4853HO4    HW219411   4.715   4.667   1.975
 4853HO4     MW19412   4.625   4.625   1.987
 4854HO4     OW19413   2.606   0.841   0.040
 4854HO4    HW119414   2.532   0.858  -0.026
 4854HO4    HW219415   2.684   0.798  -0.006
 4854HO4     MW19416   2.606   0.841   0.040
 4855HO4     OW19417   7.349   4.875   4.506
 4855HO4    HW119418   7.297   4.790   4.521
 4855HO4    HW219419   7.401   4.868   4.421
 4855HO4     MW19420   7.349   4.875   4.506
 4856HO4     OW19421   0.156   8.649   3.703
 4856HO4    HW119422   0.216   8.586   3.752
 4856HO4    HW219423   0.131   8.610   3.614
 4856HO4     MW19424   0.156   8.649   3.703
 4857HO4     OW19425   7.333   0.086   3.982
 4857HO4    HW119426   7.359   0.083   3.885
 4857HO4    HW219427   7.311   0.181   4.007
 4857HO4     MW19428   7.333   0.086   3.982
 4858HO4     OW19429   6.430   3.459   2.891
 4858HO4    HW119430   6.462   3.415   2.975
 4858HO4    HW219431   6.436   3.394   2.815
 4858HO4     MW19432   6.430   3.459   2.891
 4859HO4     OW19433   6.277   9.374   7.810
 4859HO4    HW119434   6.354   9.312   7.791
 4859HO4    HW219435   6.193   9.338   7.767
 4859HO4     MW19436   6.277   9.374   7.810
 4860HO4     OW19437   0.347   5.670   8.137
 4860HO4    HW119438   0.398   5.720   8.207
 4860HO4    HW219439   0.249   5.674   8.157
 4860HO4     MW19440   0.347   5.670   8.137
 4861HO4     OW19441   5.289   0.431   4.480
 4861HO4    HW119442   5.225   0.493   4.434
 4861HO4    HW219443   5.239   0.374   4.547
 4861HO4     MW19444   5.289   0.431   4.480
 4862HO4     OW19445   3.371   5.460   5.776
 4862HO4    HW119446   3.358   5.519   5.856
 4862HO4    HW219447   3.304   5.385   5.779
 4862HO4     MW19448   3.371   5.460   5.776
 4863HO4     OW19449   5.386   1.269   5.987
 4863HO4    HW119450   5.486   1.267   5.998
 4863HO4    HW219451   5.362   1.234   5.896
 4863HO4     MW19452   5.386   1.269   5.987
 4864HO4     OW19453   3.387   7.146   9.822
 4864HO4    HW119454   3.291   7.165   9.840
 4864HO4    HW219455   3.418   7.199   9.742
 4864HO4     MW19456   3.387   7.146   9.822
 4865HO4     OW19457   6.228   7.768   5.429
 4865HO4    HW119458   6.226   7.754   5.528
 4865HO4    HW219459   6.278   7.853   5.409
 4865HO4     MW19460   6.228   7.768   5.429
 4866HO4     OW19461   4.793   1.341   5.051
 4866HO4    HW119462   4.778   1.288   4.967
 4866HO4    HW219463   4.736   1.303   5.125
 4866HO4     MW19464   4.793   1.341   5.051
 4867HO4     OW19465   2.331   8.551   9.394
 4867HO4    HW119466   2.375   8.626   9.344
 4867HO4    HW219467   2.335   8.569   9.493
 4867HO4     MW19468   2.331   8.551   9.394
 4868HO4     OW19469   1.862   9.074   2.513
 4868HO4    HW119470   1.875   9.167   2.548
 4868HO4    HW219471   1.859   9.009   2.590
 4868HO4     MW19472   1.862   9.074   2.513
 4869HO4     OW19473   2.256   9.445   7.154
 4869HO4    HW119474   2.242   9.402   7.244
 4869HO4    HW219475   2.185   9.412   7.090
 4869HO4     MW19476   2.256   9.445   7.154
 4870HO4     OW19477   0.405   9.214   8.140
 4870HO4    HW119478   0.318   9.238   8.096
 4870HO4    HW219479   0.389   9.200   8.239
 4870HO4     MW19480   0.405   9.214   8.140
 4871HO4     OW19481   1.859   4.077   8.464
 4871HO4    HW119482   1.782   4.014   8.473
 4871HO4    HW219483   1.839   4.162   8.514
 4871HO4     MW19484   1.859   4.077   8.464
 4872HO4     OW19485   9.230   5.233   5.061
 4872HO4    HW119486   9.282   5.177   4.995
 4872HO4    HW219487   9.139   5.254   5.023
 4872HO4     MW19488   9.230   5.233   5.061
 4873HO4     OW19489   0.420   1.571   3.320
 4873HO4    HW119490   0.441   1.645   3.256
 4873HO4    HW219491   0.451   1.597   3.412
 4873HO4     MW19492   0.420   1.571   3.320
 4874HO4     OW19493   6.341   2.535   5.621
 4874HO4    HW119494   6.433   2.554   5.655
 4874HO4    HW219495   6.275   2.542   5.697
 4874HO4     MW19496   6.341   2.535   5.621
 4875HO4     OW19497   9.989   2.469   3.468
 4875HO4    HW119498  10.008   2.412   3.548
 4875HO4    HW219499  10.005   2.416   3.384
 4875HO4     MW19500   9.989   2.469   3.468
 4876HO4     OW19501   3.926   9.070   9.922
 4876HO4    HW119502   3.950   9.062  10.019
 4876HO4    HW219503   3.826   9.072   9.913
 4876HO4     MW19504   3.926   9.070   9.922
 4877HO4     OW19505   2.296   4.274   0.233
 4877HO4    HW119506   2.259   4.286   0.326
 4877HO4    HW219507   2.303   4.176   0.213
 4877HO4     MW19508   2.296   4.274   0.233
 4878HO4     OW19509   1.150   3.431   3.228
 4878HO4    HW119510   1.225   3.498   3.232
 4878HO4    HW219511   1.121   3.408   3.321
 4878HO4     MW19512   1.150   3.431   3.228
 4879HO4     OW19513   1.514   9.554   8.052
 4879HO4    HW119514   1.460   9.609   7.988
 4879HO4    HW219515   1.565   9.484   8.001
 4879HO4     MW19516   1.514   9.554   8.052
 4880HO4     OW19517   8.236   4.520   6.313
 4880HO4    HW119518   8.202   4.566   6.396
 4880HO4    HW219519   8.166   4.526   6.241
 4880HO4     MW19520   8.236   4.520   6.313
 4881HO4     OW19521   3.120   3.761   8.422
 4881HO4    HW119522   3.042   3.728   8.476
 4881HO4    HW219523   3.204   3.714   8.452
 4881HO4     MW19524   3.120   3.761   8.422
 4882HO4     OW19525   2.560   1.223   6.482
 4882HO4    HW119526   2.575   1.153   6.552
 4882HO4    HW219527   2.619   1.204   6.402
 4882HO4     MW19528   2.560   1.223   6.482
 4883HO4     OW19529   8.217   7.775   7.837
 4883HO4    HW119530   8.245   7.700   7.776
 4883HO4    HW219531   8.298   7.811   7.884
 4883HO4     MW19532   8.217   7.775   7.837
 4884HO4     OW19533   5.992   4.646   2.710
 4884HO4    HW119534   5.959   4.586   2.636
 4884HO4    HW219535   5.982   4.599   2.798
 4884HO4     MW19536   5.992   4.646   2.710
 4885HO4     OW19537   6.380   7.589   0.800
 4885HO4    HW119538   6.436   7.514   0.838
 4885HO4    HW219539   6.440   7.652   0.749
 4885HO4     MW19540   6.380   7.589   0.800
 4886HO4     OW19541   8.424   8.184   7.528
 4886HO4    HW119542   8.433   8.177   7.428
 4886HO4    HW219543   8.425   8.280   7.556
 4886HO4     MW19544   8.424   8.184   7.528
 4887HO4     OW19545   9.161   9.458   5.817
 4887HO4    HW119546   9.167   9.371   5.767
 4887HO4    HW219547   9.230   9.459   5.890
 4887HO4     MW19548   9.161   9.458   5.817
 4888HO4     OW19549   3.936   1.258   0.716
 4888HO4    HW119550   3.898   1.346   0.688
 4888HO4    HW219551   3.864   1.203   0.759
 4888HO4     MW19552   3.936   1.258   0.716
 4889HO4     OW19553   5.747  10.030   2.218
 4889HO4    HW119554   5.718  10.000   2.309
 4889HO4    HW219555   5.667  10.039   2.158
 4889HO4     MW19556   5.747  10.030   2.218
 4890HO4     OW19557   7.982   9.060   8.928
 4890HO4    HW119558   8.040   8.999   8.981
 4890HO4    HW219559   8.026   9.080   8.840
 4890HO4     MW19560   7.982   9.060   8.928
 4891HO4     OW19561   9.139   8.092   5.972
 4891HO4    HW119562   9.236   8.082   5.949
 4891HO4    HW219563   9.126   8.174   6.029
 4891HO4     MW19564   9.139   8.092   5.972
 4892HO4     OW19565   4.135   8.778   0.671
 4892HO4    HW119566   4.220   8.785   0.723
 4892HO4    HW219567   4.155   8.765   0.574
 4892HO4     MW19568   4.135   8.778   0.671
 4893HO4     OW19569   4.350   8.231   3.165
 4893HO4    HW119570   4.341   8.149   3.109
 4893HO4    HW219571   4.442   8.236   3.204
 4893HO4     MW19572   4.350   8.231   3.165
 4894HO4     OW19573   7.962   5.712  10.166
 4894HO4    HW119574   7.997   5.644  10.231
 4894HO4    HW219575   7.945   5.667  10.077
 4894HO4     MW19576   7.962   5.712  10.166
 4895HO4     OW19577   7.764   2.804   0.420
 4895HO4    HW119578   7.791   2.851   0.505
 4895HO4    HW219579   7.776   2.865   0.342
 4895HO4     MW19580   7.764   2.804   0.420
 4896HO4     OW19581   7.348   1.730   8.957
 4896HO4    HW119582   7.261   1.682   8.946
 4896HO4    HW219583   7.347   1.814   8.903
 4896HO4     MW19584   7.348   1.730   8.957
 4897HO4     OW19585   3.851   3.590   5.663
 4897HO4    HW119586   3.754   3.572   5.682
 4897HO4    HW219587   3.860   3.655   5.587
 4897HO4     MW19588   3.851   3.590   5.663
 4898HO4     OW19589   3.900   5.347   0.897
 4898HO4    HW119590   3.954   5.327   0.979
 4898HO4    HW219591   3.808   5.377   0.924
 4898HO4     MW19592   3.900   5.347   0.897
 4899HO4     OW19593   9.993   0.388   3.378
 4899HO4    HW119594   9.950   0.299   3.398
 4899HO4    HW219595  10.091   0.374   3.360
 4899HO4     MW19596   9.993   0.388   3.378
 4900HO4     OW19597   1.219   1.420   3.516
 4900HO4    HW119598   1.159   1.464   3.583
 4900HO4    HW219599   1.172   1.412   3.428
 4900HO4     MW19600   1.219   1.420   3.516
 4901HO4     OW19601   2.834   3.775   7.258
 4901HO4    HW119602   2.884   3.688   7.267
 4901HO4    HW219603   2.736   3.759   7.274
 4901HO4     MW19604   2.834   3.775   7.258
 4902HO4     OW19605   6.513   1.211   0.156
 4902HO4    HW119606   6.466   1.280   0.100
 4902HO4    HW219607   6.606   1.242   0.177
 4902HO4     MW19608   6.513   1.211   0.156
 4903HO4     OW19609   9.653   6.186   1.470
 4903HO4    HW119610   9.753   6.189   1.477
 4903HO4    HW219611   9.616   6.137   1.549
 4903HO4     MW19612   9.653   6.186   1.470
 4904HO4     OW19613   5.919   8.412   7.560
 4904HO4    HW119614   5.955   8.342   7.498
 4904HO4    HW219615   5.820   8.398   7.572
 4904HO4     MW19616   5.919   8.412   7.560
 4905HO4     OW19617   0.461   0.692   2.807
 4905HO4    HW119618   0.502   0.672   2.717
 4905HO4    HW219619   0.382   0.632   2.822
 4905HO4     MW19620   0.461   0.692   2.807
 4906HO4     OW19621   8.717   9.283   4.054
 4906HO4    HW119622   8.720   9.183   4.060
 4906HO4    HW219623   8.793   9.315   3.996
 4906HO4     MW19624   8.717   9.283   4.054
 4907HO4     OW19625   3.318   9.363   4.687
 4907HO4    HW119626   3.360   9.348   4.598
 4907HO4    HW219627   3.358   9.445   4.729
 4907HO4     MW19628   3.318   9.363   4.687
 4908HO4     OW19629   3.484   5.302   7.199
 4908HO4    HW119630   3.543   5.287   7.279
 4908HO4    HW219631   3.537   5.285   7.115
 4908HO4     MW19632   3.484   5.302   7.199
 4909HO4     OW19633   3.428   3.818   4.785
 4909HO4    HW119634   3.408   3.830   4.688
 4909HO4    HW219635   3.354   3.860   4.839
 4909HO4     MW19636   3.428   3.818   4.785
 4910HO4     OW19637   8.353   0.665   3.803
 4910HO4    HW119638   8.423   0.645   3.872
 4910HO4    HW219639   8.377   0.618   3.718
 4910HO4     MW19640   8.353   0.665   3.803
 4911HO4     OW19641   2.988   1.081   8.999
 4911HO4    HW119642   2.899   1.067   8.955
 4911HO4    HW219643   3.061   1.066   8.931
 4911HO4     MW19644   2.988   1.081   8.999
 4912HO4     OW19645   5.726   2.019   2.525
 4912HO4    HW119646   5.637   2.063   2.537
 4912HO4    HW219647   5.790   2.085   2.484
 4912HO4     MW19648   5.726   2.019   2.525
 4913HO4     OW19649   5.701   4.027   5.982
 4913HO4    HW119650   5.689   4.127   5.981
 4913HO4    HW219651   5.671   3.991   6.071
 4913HO4     MW19652   5.701   4.027   5.982
 4914HO4     OW19653   7.531   4.791   0.545
 4914HO4    HW119654   7.557   4.881   0.508
 4914HO4    HW219655   7.470   4.804   0.624
 4914HO4     MW19656   7.531   4.791   0.545
 4915HO4     OW19657   1.304   9.184   3.748
 4915HO4    HW119658   1.300   9.116   3.822
 4915HO4    HW219659   1.288   9.138   3.660
 4915HO4     MW19660   1.304   9.184   3.748
 4916HO4     OW19661   2.245   9.755   4.550
 4916HO4    HW119662   2.233   9.658   4.573
 4916HO4    HW219663   2.175   9.809   4.597
 4916HO4     MW19664   2.245   9.755   4.550
 4917HO4     OW19665   6.329  10.028   6.733
 4917HO4    HW119666   6.413  10.071   6.766
 4917HO4    HW219667   6.341  10.002   6.636
 4917HO4     MW19668   6.329  10.028   6.733
 4918HO4     OW19669  10.081   8.610   9.125
 4918HO4    HW119670  10.011   8.655   9.069
 4918HO4    HW219671  10.166   8.664   9.122
 4918HO4     MW19672  10.081   8.610   9.125
 4919HO4     OW19673   9.379   6.986   2.331
 4919HO4    HW119674   9.402   6.931   2.250
 4919HO4    HW219675   9.283   7.015   2.325
 4919HO4     MW19676   9.379   6.986   2.331
 4920HO4     OW19677   7.801   8.221   4.943
 4920HO4    HW119678   7.881   8.178   4.986
 4920HO4    HW219679   7.727   8.229   5.010
 4920HO4     MW19680   7.801   8.221   4.943
 4921HO4     OW19681   8.309   7.371   8.176
 4921HO4    HW119682   8.335   7.319   8.095
 4921HO4    HW219683   8.330   7.468   8.163
 4921HO4     MW19684   8.309   7.371   8.176
 4922HO4     OW19685   6.739   3.929   2.129
 4922HO4    HW119686   6.747   4.022   2.091
 4922HO4    HW219687   6.660   3.924   2.191
 4922HO4     MW19688   6.739   3.929   2.129
 4923HO4     OW19689   3.461   5.423   7.786
 4923HO4    HW119690   3.533   5.451   7.850
 4923HO4    HW219691   3.502   5.403   7.696
 4923HO4     MW19692   3.461   5.423   7.786
 4924HO4     OW19693   4.433   3.372   6.680
 4924HO4    HW119694   4.407   3.427   6.760
 4924HO4    HW219695   4.403   3.418   6.596
 4924HO4     MW19696   4.433   3.372   6.680
 4925HO4     OW19697   4.529   5.191   7.147
 4925HO4    HW119698   4.506   5.186   7.245
 4925HO4    HW219699   4.515   5.285   7.114
 4925HO4     MW19700   4.529   5.191   7.147
 4926HO4     OW19701   7.161   5.587   6.387
 4926HO4    HW119702   7.194   5.644   6.463
 4926HO4    HW219703   7.203   5.618   6.301
 4926HO4     MW19704   7.161   5.587   6.387
 4927HO4     OW19705   8.210   1.065   8.612
 4927HO4    HW119706   8.158   1.147   8.584
 4927HO4    HW219707   8.307   1.077   8.587
 4927HO4     MW19708   8.210   1.065   8.612
 4928HO4     OW19709   5.253   0.094   2.264
 4928HO4    HW119710   5.245   0.174   2.324
 4928HO4    HW219711   5.162   0.057   2.244
 4928HO4     MW19712   5.253   0.094   2.264
 4929HO4     OW19713   7.516   4.892   7.154
 4929HO4    HW119714   7.538   4.938   7.241
 4929HO4    HW219715   7.601   4.874   7.103
 4929HO4     MW19716   7.516   4.892   7.154
 4930HO4     OW19717   7.474   0.926   7.379
 4930HO4    HW119718   7.448   0.889   7.289
 4930HO4    HW219719   7.396   0.920   7.442
 4930HO4     MW19720   7.474   0.926   7.379
 4931HO4     OW19721   2.865   8.315   2.065
 4931HO4    HW119722   2.797   8.346   2.133
 4931HO4    HW219723   2.849   8.219   2.043
 4931HO4     MW19724   2.865   8.315   2.065
 4932HO4     OW19725   4.769   6.646   7.278
 4932HO4    HW119726   4.689   6.692   7.317
 4932HO4    HW219727   4.830   6.615   7.352
 4932HO4     MW19728   4.769   6.646   7.278
 4933HO4     OW19729   0.690   6.357   6.987
 4933HO4    HW119730   0.781   6.322   7.012
 4933HO4    HW219731   0.637   6.376   7.071
 4933HO4     MW19732   0.690   6.357   6.987
 4934HO4     OW19733   9.130  10.023   8.778
 4934HO4    HW119734   9.151   9.992   8.871
 4934HO4    HW219735   9.208  10.004   8.718
 4934HO4     MW19736   9.130  10.023   8.778
 4935HO4     OW19737   0.403   5.581   9.281
 4935HO4    HW119738   0.314   5.586   9.329
 4935HO4    HW219739   0.397   5.515   9.206
 4935HO4     MW19740   0.403   5.581   9.281
 4936HO4     OW19741   2.088   9.112   8.019
 4936HO4    HW119742   2.055   9.094   7.926
 4936HO4    HW219743   2.048   9.198   8.052
 4936HO4     MW19744   2.088   9.112   8.019
 4937HO4     OW19745   3.039   6.262   5.892
 4937HO4    HW119746   3.035   6.174   5.940
 4937HO4    HW219747   3.127   6.270   5.844
 4937HO4     MW19748   3.039   6.262   5.892
 4938HO4     OW19749   6.080   4.200   2.491
 4938HO4    HW119750   6.123   4.291   2.500
 4938HO4    HW219751   5.981   4.212   2.476
 4938HO4     MW19752   6.080   4.200   2.491
 4939HO4     OW19753   4.080   8.192   5.277
 4939HO4    HW119754   4.085   8.211   5.376
 4939HO4    HW219755   4.124   8.266   5.226
 4939HO4     MW19756   4.080   8.192   5.277
 4940HO4     OW19757   3.322   0.579   6.298
 4940HO4    HW119758   3.305   0.499   6.357
 4940HO4    HW219759   3.237   0.607   6.254
 4940HO4     MW19760   3.322   0.579   6.298
 4941HO4     OW19761   6.076   5.721   8.327
 4941HO4    HW119762   6.068   5.626   8.294
 4941HO4    HW219763   6.113   5.721   8.420
 4941HO4     MW19764   6.076   5.721   8.327
 4942HO4     OW19765   9.892   9.577   9.480
 4942HO4    HW119766   9.821   9.526   9.430
 4942HO4    HW219767   9.981   9.535   9.464
 4942HO4     MW19768   9.892   9.577   9.480
 4943HO4     OW19769   9.125   5.990   9.607
 4943HO4    HW119770   9.031   5.999   9.575
 4943HO4    HW219771   9.188   6.026   9.537
 4943HO4     MW19772   9.125   5.990   9.607
 4944HO4     OW19773   3.367   4.830   3.519
 4944HO4    HW119774   3.274   4.839   3.482
 4944HO4    HW219775   3.418   4.914   3.500
 4944HO4     MW19776   3.367   4.830   3.519
 4945HO4     OW19777   0.762   6.180   7.725
 4945HO4    HW119778   0.758   6.146   7.819
 4945HO4    HW219779   0.858   6.192   7.698
 4945HO4     MW19780   0.762   6.180   7.725
 4946HO4     OW19781   3.302   2.536   3.676
 4946HO4    HW119782   3.328   2.457   3.620
 4946HO4    HW219783   3.255   2.504   3.759
 4946HO4     MW19784   3.302   2.536   3.676
 4947HO4     OW19785   2.681   5.757   2.732
 4947HO4    HW119786   2.713   5.780   2.824
 4947HO4    HW219787   2.645   5.839   2.688
 4947HO4     MW19788   2.681   5.757   2.732
 4948HO4     OW19789   1.810   2.791   7.524
 4948HO4    HW119790   1.773   2.704   7.560
 4948HO4    HW219791   1.749   2.866   7.551
 4948HO4     MW19792   1.810   2.791   7.524
 4949HO4     OW19793   9.728   4.350  10.072
 4949HO4    HW119794   9.820   4.388  10.059
 4949HO4    HW219795   9.671   4.416  10.120
 4949HO4     MW19796   9.728   4.350  10.072
 4950HO4     OW19797   5.259   0.923   6.184
 4950HO4    HW119798   5.265   1.001   6.122
 4950HO4    HW219799   5.167   0.883   6.179
 4950HO4     MW19800   5.259   0.923   6.184
 4951HO4     OW19801   3.673   1.814   5.797
 4951HO4    HW119802   3.638   1.721   5.786
 4951HO4    HW219803   3.606   1.880   5.761
 4951HO4     MW19804   3.673   1.814   5.797
 4952HO4     OW19805   9.138   0.839   3.341
 4952HO4    HW119806   9.231   0.806   3.324
 4952HO4    HW219807   9.122   0.843   3.440
 4952HO4     MW19808   9.138   0.839   3.341
 4953HO4     OW19809   2.940   7.018   3.609
 4953HO4    HW119810   2.936   6.928   3.565
 4953HO4    HW219811   2.973   7.008   3.704
 4953HO4     MW19812   2.940   7.018   3.609
 4954HO4     OW19813   9.556   1.052   5.197
 4954HO4    HW119814   9.592   1.057   5.103
 4954HO4    HW219815   9.631   1.032   5.261
 4954HO4     MW19816   9.556   1.052   5.197
 4955HO4     OW19817   3.838   6.335   4.106
 4955HO4    HW119818   3.774   6.322   4.029
 4955HO4    HW219819   3.850   6.247   4.154
 4955HO4     MW19820   3.838   6.335   4.106
 4956HO4     OW19821   9.107   6.104   8.645
 4956HO4    HW119822   9.106   6.130   8.549
 4956HO4    HW219823   9.111   6.186   8.703
 4956HO4     MW19824   9.107   6.104   8.645
 4957HO4     OW19825   6.167   2.386   4.147
 4957HO4    HW119826   6.086   2.335   4.118
 4957HO4    HW219827   6.172   2.385   4.248
 4957HO4     MW19828   6.167   2.386   4.147
 4958HO4     OW19829   7.247   4.101   8.657
 4958HO4    HW119830   7.176   4.080   8.726
 4958HO4    HW219831   7.215   4.175   8.598
 4958HO4     MW19832   7.247   4.101   8.657
 4959HO4     OW19833   4.622   1.631   5.724
 4959HO4    HW119834   4.642   1.678   5.810
 4959HO4    HW219835   4.707   1.598   5.683
 4959HO4     MW19836   4.622   1.631   5.724
 4960HO4     OW19837   3.220   8.189   5.192
 4960HO4    HW119838   3.198   8.233   5.105
 4960HO4    HW219839   3.206   8.255   5.267
 4960HO4     MW19840   3.220   8.189   5.192
 4961HO4     OW19841   6.385   3.837   2.352
 4961HO4    HW119842   6.381   3.918   2.293
 4961HO4    HW219843   6.347   3.860   2.442
 4961HO4     MW19844   6.385   3.837   2.352
 4962HO4     OW19845   2.976   7.217   6.642
 4962HO4    HW119846   2.928   7.136   6.678
 4962HO4    HW219847   3.069   7.220   6.679
 4962HO4     MW19848   2.976   7.217   6.642
 4963HO4     OW19849   9.582   4.124   9.322
 4963HO4    HW119850   9.607   4.151   9.416
 4963HO4    HW219851   9.485   4.147   9.306
 4963HO4     MW19852   9.582   4.124   9.322
 4964HO4     OW19853   4.752   4.455   3.038
 4964HO4    HW119854   4.754   4.524   2.965
 4964HO4    HW219855   4.684   4.482   3.107
 4964HO4     MW19856   4.752   4.455   3.038
 4965HO4     OW19857   6.393   5.850   4.359
 4965HO4    HW119858   6.319   5.782   4.357
 4965HO4    HW219859   6.417   5.877   4.265
 4965HO4     MW19860   6.393   5.850   4.359
 4966HO4     OW19861   3.985   9.642   6.268
 4966HO4    HW119862   3.971   9.596   6.180
 4966HO4    HW219863   3.941   9.589   6.341
 4966HO4     MW19864   3.985   9.642   6.268
 4967HO4     OW19865   3.908   0.029   5.757
 4967HO4    HW119866   3.858  -0.005   5.677
 4967HO4    HW219867   3.859   0.002   5.841
 4967HO4     MW19868   3.908   0.029   5.757
 4968HO4     OW19869   2.728   0.338   1.461
 4968HO4    HW119870   2.729   0.416   1.398
 4968HO4    HW219871   2.726   0.371   1.556
 4968HO4     MW19872   2.728   0.338   1.461
 4969HO4     OW19873   5.688   4.135   2.532
 4969HO4    HW119874   5.667   4.188   2.449
 4969HO4    HW219875   5.657   4.187   2.613
 4969HO4     MW19876   5.688   4.135   2.532
 4970HO4     OW19877   0.114   2.243   7.852
 4970HO4    HW119878   0.128   2.162   7.910
 4970HO4    HW219879   0.062   2.217   7.770
 4970HO4     MW19880   0.114   2.243   7.852
 4971HO4     OW19881   8.813   6.132   2.089
 4971HO4    HW119882   8.806   6.154   1.992
 4971HO4    HW219883   8.721   6.121   2.128
 4971HO4     MW19884   8.813   6.132   2.089
 4972HO4     OW19885   4.785   2.404   1.967
 4972HO4    HW119886   4.856   2.466   2.002
 4972HO4    HW219887   4.809   2.309   1.991
 4972HO4     MW19888   4.785   2.404   1.967
 4973HO4     OW19889   2.236   3.816   0.340
 4973HO4    HW119890   2.276   3.730   0.306
 4973HO4    HW219891   2.160   3.795   0.402
 4973HO4     MW19892   2.236   3.816   0.340
 4974HO4     OW19893   0.649   6.163   9.186
 4974HO4    HW119894   0.741   6.127   9.200
 4974HO4    HW219895   0.584   6.113   9.244
 4974HO4     MW19896   0.649   6.163   9.186
 4975HO4     OW19897   2.227   5.184   6.986
 4975HO4    HW119898   2.251   5.207   7.080
 4975HO4    HW219899   2.297   5.123   6.947
 4975HO4     MW19900   2.227   5.184   6.986
 4976HO4     OW19901  10.008   0.996   9.741
 4976HO4    HW119902   9.997   1.086   9.698
 4976HO4    HW219903   9.960   0.996   9.830
 4976HO4     MW19904  10.008   0.996   9.741
 4977HO4     OW19905   7.052   8.741   6.889
 4977HO4    HW119906   6.954   8.731   6.870
 4977HO4    HW219907   7.068   8.825   6.942
 4977HO4     MW19908   7.052   8.741   6.889
 4978HO4     OW19909   4.795   7.717   1.977
 4978HO4    HW119910   4.789   7.715   2.077
 4978HO4    HW219911   4.815   7.625   1.943
 4978HO4     MW19912   4.795   7.717   1.977
 4979HO4     OW19913   3.872   2.514   6.749
 4979HO4    HW119914   3.788   2.475   6.711
 4979HO4    HW219915   3.849   2.591   6.809
 4979HO4     MW19916   3.872   2.514   6.749
 4980HO4     OW19917   2.767   8.153   3.692
 4980HO4    HW119918   2.686   8.208   3.717
 4980HO4    HW219919   2.847   8.214   3.682
 4980HO4     MW19920   2.767   8.153   3.692
 4981HO4     OW19921   1.776   2.640   1.664
 4981HO4    HW119922   1.844   2.696   1.615
 4981HO4    HW219923   1.751   2.686   1.750
 4981HO4     MW19924   1.776   2.640   1.664
 4982HO4     OW19925   1.960   6.904   1.971
 4982HO4    HW119926   2.048   6.884   2.015
 4982HO4    HW219927   1.972   6.980   1.906
 4982HO4     MW19928   1.960   6.904   1.971
 4983HO4     OW19929   3.216   2.417   8.914
 4983HO4    HW119930   3.289   2.451   8.854
 4983HO4    HW219931   3.210   2.475   8.996
 4983HO4     MW19932   3.216   2.417   8.914
 4984HO4     OW19933   7.270   7.679   0.332
 4984HO4    HW119934   7.269   7.752   0.400
 4984HO4    HW219935   7.291   7.591   0.376
 4984HO4     MW19936   7.270   7.679   0.332
 4985HO4     OW19937   9.490   1.291   3.804
 4985HO4    HW119938   9.557   1.261   3.735
 4985HO4    HW219939   9.528   1.277   3.896
 4985HO4     MW19940   9.490   1.291   3.804
 4986HO4     OW19941   3.858   8.702   0.719
 4986HO4    HW119942   3.941   8.741   0.680
 4986HO4    HW219943   3.777   8.744   0.677
 4986HO4     MW19944   3.858   8.702   0.719
 4987HO4     OW19945   2.139   6.885   0.817
 4987HO4    HW119946   2.136   6.785   0.817
 4987HO4    HW219947   2.161   6.919   0.909
 4987HO4     MW19948   2.139   6.885   0.817
 4988HO4     OW19949   1.239   8.496   3.288
 4988HO4    HW119950   1.152   8.526   3.249
 4988HO4    HW219951   1.310   8.563   3.266
 4988HO4     MW19952   1.239   8.496   3.288
 4989HO4     OW19953   7.805   5.816   4.338
 4989HO4    HW119954   7.841   5.723   4.324
 4989HO4    HW219955   7.810   5.867   4.252
 4989HO4     MW19956   7.805   5.816   4.338
 4990HO4     OW19957  10.085   5.499   8.131
 4990HO4    HW119958  10.156   5.449   8.081
 4990HO4    HW219959  10.002   5.442   8.139
 4990HO4     MW19960  10.085   5.499   8.131
 4991HO4     OW19961   3.863   7.188   7.485
 4991HO4    HW119962   3.936   7.238   7.532
 4991HO4    HW219963   3.903   7.110   7.436
 4991HO4     MW19964   3.863   7.188   7.485
 4992HO4     OW19965   8.275   4.887   9.104
 4992HO4    HW119966   8.226   4.801   9.123
 4992HO4    HW219967   8.237   4.929   9.021
 4992HO4     MW19968   8.275   4.887   9.104
 4993HO4     OW19969   2.977   5.488   7.655
 4993HO4    HW119970   3.013   5.403   7.616
 4993HO4    HW219971   2.878   5.478   7.670
 4993HO4     MW19972   2.977   5.488   7.655
 4994HO4     OW19973   7.948   6.294   5.215
 4994HO4    HW119974   8.002   6.257   5.140
 4994HO4    HW219975   7.884   6.363   5.179
 4994HO4     MW19976   7.948   6.294   5.215
 4995HO4     OW19977   2.079   9.105   8.582
 4995HO4    HW119978   2.160   9.165   8.580
 4995HO4    HW219979   2.096   9.029   8.645
 4995HO4     MW19980   2.079   9.105   8.582
 4996HO4     OW19981   7.012   7.793   4.994
 4996HO4    HW119982   7.058   7.751   5.073
 4996HO4    HW219983   7.067   7.780   4.911
 4996HO4     MW19984   7.012   7.793   4.994
 4997HO4     OW19985   0.619   0.106   9.708
 4997HO4    HW119986   0.590   0.012   9.686
 4997HO4    HW219987   0.634   0.113   9.808
 4997HO4     MW19988   0.619   0.106   9.708
 4998HO4     OW19989   0.770   7.007   8.720
 4998HO4    HW119990   0.748   6.992   8.816
 4998HO4    HW219991   0.724   7.090   8.687
 4998HO4     MW19992   0.770   7.007   8.720
 4999HO4     OW19993   7.089   7.004   2.236
 4999HO4    HW119994   7.118   7.092   2.275
 4999HO4    HW219995   7.029   7.021   2.158
 4999HO4     MW19996   7.089   7.004   2.236
 5000HO4     OW19997   3.510   6.870   0.778
 5000HO4    HW119998   3.458   6.907   0.700
 5000HO4    HW219999   3.593   6.925   0.792
 5000HO4     MW20000   3.510   6.870   0.778
 5001HO4     OW20001   6.224   0.682   3.114
 5001HO4    HW120002   6.291   0.675   3.039
 5001HO4    HW220003   6.273   0.686   3.202
 5001HO4     MW20004   6.224   0.682   3.114
 5002HO4     OW20005   2.569   6.645   7.155
 5002HO4    HW120006   2.594   6.588   7.075
 5002HO4    HW220007   2.585   6.593   7.239
 5002HO4     MW20008   2.569   6.645   7.155
 5003HO4     OW20009   2.443   1.425   2.226
 5003HO4    HW120010   2.369   1.494   2.221
 5003HO4    HW220011   2.454   1.382   2.136
 5003HO4     MW20012   2.443   1.425   2.226
 5004HO4     OW20013   9.037   0.770   8.294
 5004HO4    HW120014   8.961   0.740   8.236
 5004HO4    HW220015   9.002   0.829   8.367
 5004HO4     MW20016   9.037   0.770   8.294
 5005HO4     OW20017   8.774   5.650   9.253
 5005HO4    HW120018   8.822   5.733   9.283
 5005HO4    HW220019   8.816   5.616   9.168
 5005HO4     MW20020   8.774   5.650   9.253
 5006HO4     OW20021   9.487   9.795   6.394
 5006HO4    HW120022   9.397   9.770   6.355
 5006HO4    HW220023   9.559   9.778   6.326
 5006HO4     MW20024   9.487   9.795   6.394
 5007HO4     OW20025   2.779   4.608   0.264
 5007HO4    HW120026   2.764   4.618   0.165
 5007HO4    HW220027   2.874   4.632   0.286
 5007HO4     MW20028   2.779   4.608   0.264
 5008HO4     OW20029   3.855   1.010   5.127
 5008HO4    HW120030   3.948   1.032   5.095
 5008HO4    HW220031   3.838   0.911   5.116
 5008HO4     MW20032   3.855   1.010   5.127
 5009HO4     OW20033   1.848   7.791   6.185
 5009HO4    HW120034   1.780   7.848   6.232
 5009HO4    HW220035   1.806   7.748   6.105
 5009HO4     MW20036   1.848   7.791   6.185
 5010HO4     OW20037   5.530   7.938  10.022
 5010HO4    HW120038   5.511   7.888   9.936
 5010HO4    HW220039   5.557   7.872  10.093
 5010HO4     MW20040   5.530   7.938  10.022
 5011HO4     OW20041   4.980   5.895   8.622
 5011HO4    HW120042   4.911   5.823   8.610
 5011HO4    HW220043   5.064   5.869   8.574
 5011HO4     MW20044   4.980   5.895   8.622
 5012HO4     OW20045   2.554   2.676   6.042
 5012HO4    HW120046   2.561   2.628   6.129
 5012HO4    HW220047   2.562   2.775   6.058
 5012HO4     MW20048   2.554   2.676   6.042
 5013HO4     OW20049   4.443   8.631   6.271
 5013HO4    HW120050   4.514   8.701   6.253
 5013HO4    HW220051   4.406   8.644   6.363
 5013HO4     MW20052   4.443   8.631   6.271
 5014HO4     OW20053   9.155   5.238   7.276
 5014HO4    HW120054   9.124   5.194   7.191
 5014HO4    HW220055   9.118   5.331   7.281
 5014HO4     MW20056   9.155   5.238   7.276
 5015HO4     OW20057   2.139   9.826   6.348
 5015HO4    HW120058   2.150   9.827   6.448
 5015HO4    HW220059   2.073   9.897   6.322
 5015HO4     MW20060   2.139   9.826   6.348
 5016HO4     OW20061   3.568   9.403   1.337
 5016HO4    HW120062   3.632   9.350   1.280
 5016HO4    HW220063   3.586   9.384   1.434
 5016HO4     MW20064   3.568   9.403   1.337
 5017HO4     OW20065   2.352   3.609   8.290
 5017HO4    HW120066   2.261   3.597   8.249
 5017HO4    HW220067   2.407   3.526   8.275
 5017HO4     MW20068   2.352   3.609   8.290
 5018HO4     OW20069   9.744   5.348   5.477
 5018HO4    HW120070   9.711   5.441   5.497
 5018HO4    HW220071   9.671   5.282   5.496
 5018HO4     MW20072   9.744   5.348   5.477
 5019HO4     OW20073   5.344   8.480   3.015
 5019HO4    HW120074   5.387   8.419   2.947
 5019HO4    HW220075   5.411   8.505   3.085
 5019HO4     MW20076   5.344   8.480   3.015
 5020HO4     OW20077   4.484   6.953   7.327
 5020HO4    HW120078   4.436   6.876   7.368
 5020HO4    HW220079   4.550   6.920   7.259
 5020HO4     MW20080   4.484   6.953   7.327
 5021HO4     OW20081   1.253   1.698   0.030
 5021HO4    HW120082   1.213   1.737   0.113
 5021HO4    HW220083   1.216   1.745  -0.050
 5021HO4     MW20084   1.253   1.698   0.030
 5022HO4     OW20085   8.039   9.435   5.601
 5022HO4    HW120086   7.970   9.478   5.659
 5022HO4    HW220087   8.123   9.490   5.602
 5022HO4     MW20088   8.039   9.435   5.601
 5023HO4     OW20089   5.782   6.585   5.273
 5023HO4    HW120090   5.717   6.553   5.204
 5023HO4    HW220091   5.867   6.533   5.267
 5023HO4     MW20092   5.782   6.585   5.273
 5024HO4     OW20093  10.061   3.238   4.731
 5024HO4    HW120094  10.072   3.271   4.825
 5024HO4    HW220095  10.134   3.276   4.673
 5024HO4     MW20096  10.061   3.238   4.731
 5025HO4     OW20097   5.443   4.683   6.573
 5025HO4    HW120098   5.415   4.761   6.629
 5025HO4    HW220099   5.381   4.675   6.494
 5025HO4     MW20100   5.443   4.683   6.573
 5026HO4     OW20101   5.936   0.145   3.221
 5026HO4    HW120102   5.941   0.056   3.175
 5026HO4    HW220103   5.959   0.218   3.155
 5026HO4     MW20104   5.936   0.145   3.221
 5027HO4     OW20105   5.965   7.480   5.763
 5027HO4    HW120106   6.016   7.485   5.849
 5027HO4    HW220107   6.025   7.503   5.686
 5027HO4     MW20108   5.965   7.480   5.763
 5028HO4     OW20109   7.913   5.713   3.390
 5028HO4    HW120110   7.824   5.711   3.437
 5028HO4    HW220111   7.931   5.623   3.349
 5028HO4     MW20112   7.913   5.713   3.390
 5029HO4     OW20113   4.960   5.958   3.012
 5029HO4    HW120114   5.008   5.974   3.099
 5029HO4    HW220115   4.989   6.026   2.945
 5029HO4     MW20116   4.960   5.958   3.012
 5030HO4     OW20117   3.445   3.769   5.614
 5030HO4    HW120118   3.480   3.696   5.553
 5030HO4    HW220119   3.454   3.739   5.710
 5030HO4     MW20120   3.445   3.769   5.614
 5031HO4     OW20121   7.836   5.441   0.826
 5031HO4    HW120122   7.815   5.470   0.920
 5031HO4    HW220123   7.756   5.457   0.767
 5031HO4     MW20124   7.836   5.441   0.826
 5032HO4     OW20125   2.880   9.448   6.646
 5032HO4    HW120126   2.802   9.484   6.594
 5032HO4    HW220127   2.907   9.514   6.717
 5032HO4     MW20128   2.880   9.448   6.646
 5033HO4     OW20129   7.721   3.419   3.917
 5033HO4    HW120130   7.714   3.372   4.005
 5033HO4    HW220131   7.744   3.353   3.845
 5033HO4     MW20132   7.721   3.419   3.917
 5034HO4     OW20133   9.802   6.752   3.239
 5034HO4    HW120134   9.765   6.824   3.180
 5034HO4    HW220135   9.815   6.789   3.332
 5034HO4     MW20136   9.802   6.752   3.239
 5035HO4     OW20137   0.805   7.795   9.628
 5035HO4    HW120138   0.862   7.713   9.643
 5035HO4    HW220139   0.708   7.770   9.640
 5035HO4     MW20140   0.805   7.795   9.628
 5036HO4     OW20141   8.756   8.938   4.194
 5036HO4    HW120142   8.781   8.921   4.098
 5036HO4    HW220143   8.797   8.866   4.252
 5036HO4     MW20144   8.756   8.938   4.194
 5037HO4     OW20145   5.781   9.748   1.416
 5037HO4    HW120146   5.789   9.648   1.410
 5037HO4    HW220147   5.755   9.784   1.326
 5037HO4     MW20148   5.781   9.748   1.416
 5038HO4     OW20149   6.075   2.020   7.896
 5038HO4    HW120150   6.028   1.979   7.974
 5038HO4    HW220151   6.047   2.116   7.887
 5038HO4     MW20152   6.075   2.020   7.896
 5039HO4     OW20153   7.234   6.650   7.237
 5039HO4    HW120154   7.201   6.718   7.171
 5039HO4    HW220155   7.331   6.669   7.259
 5039HO4     MW20156   7.234   6.650   7.237
 5040HO4     OW20157   3.310   1.573   5.300
 5040HO4    HW120158   3.281   1.656   5.252
 5040HO4    HW220159   3.406   1.553   5.277
 5040HO4     MW20160   3.310   1.573   5.300
 5041HO4     OW20161   5.064   3.603   1.395
 5041HO4    HW120162   5.043   3.679   1.457
 5041HO4    HW220163   5.058   3.516   1.445
 5041HO4     MW20164   5.064   3.603   1.395
 5042HO4     OW20165   5.686   9.096   4.005
 5042HO4    HW120166   5.731   9.095   4.095
 5042HO4    HW220167   5.748   9.137   3.937
 5042HO4     MW20168   5.686   9.096   4.005
 5043HO4     OW20169   9.178   1.778   9.001
 5043HO4    HW120170   9.115   1.707   8.967
 5043HO4    HW220171   9.180   1.855   8.937
 5043HO4     MW20172   9.178   1.778   9.001
 5044HO4     OW20173   4.539   8.790   9.108
 5044HO4    HW120174   4.561   8.745   9.021
 5044HO4    HW220175   4.608   8.764   9.177
 5044HO4     MW20176   4.539   8.790   9.108
 5045HO4     OW20177   4.872   7.395   6.553
 5045HO4    HW120178   4.818   7.335   6.494
 5045HO4    HW220179   4.815   7.471   6.585
 5045HO4     MW20180   4.872   7.395   6.553
 5046HO4     OW20181   4.602   9.578   4.653
 5046HO4    HW120182   4.542   9.574   4.734
 5046HO4    HW220183   4.547   9.592   4.571
 5046HO4     MW20184   4.602   9.578   4.653
 5047HO4     OW20185   2.782   1.922   3.285
 5047HO4    HW120186   2.736   1.839   3.318
 5047HO4    HW220187   2.783   1.990   3.359
 5047HO4     MW20188   2.782   1.922   3.285
 5048HO4     OW20189   3.106   9.102   2.311
 5048HO4    HW120190   3.201   9.072   2.302
 5048HO4    HW220191   3.054   9.035   2.366
 5048HO4     MW20192   3.106   9.102   2.311
 5049HO4     OW20193   0.381   7.972   9.393
 5049HO4    HW120194   0.286   8.001   9.387
 5049HO4    HW220195   0.429   7.995   9.308
 5049HO4     MW20196   0.381   7.972   9.393
 5050HO4     OW20197   6.816  10.083   4.258
 5050HO4    HW120198   6.826   9.985   4.236
 5050HO4    HW220199   6.843  10.098   4.353
 5050HO4     MW20200   6.816  10.083   4.258
 5051HO4     OW20201   3.841   5.709   5.543
 5051HO4    HW120202   3.798   5.694   5.633
 5051HO4    HW220203   3.778   5.677   5.471
 5051HO4     MW20204   3.841   5.709   5.543
 5052HO4     OW20205   2.988   1.395   1.580
 5052HO4    HW120206   3.075   1.385   1.532
 5052HO4    HW220207   3.005   1.408   1.678
 5052HO4     MW20208   2.988   1.395   1.580
 5053HO4     OW20209   0.723   1.194   6.287
 5053HO4    HW120210   0.773   1.214   6.372
 5053HO4    HW220211   0.784   1.211   6.209
 5053HO4     MW20212   0.723   1.194   6.287
 5054HO4     OW20213   9.607   8.915   8.886
 5054HO4    HW120214   9.628   8.939   8.790
 5054HO4    HW220215   9.670   8.964   8.947
 5054HO4     MW20216   9.607   8.915   8.886
 5055HO4     OW20217   2.365   4.853   5.136
 5055HO4    HW120218   2.443   4.865   5.198
 5055HO4    HW220219   2.337   4.943   5.100
 5055HO4     MW20220   2.365   4.853   5.136
 5056HO4     OW20221   0.481   9.551   4.141
 5056HO4    HW120222   0.385   9.524   4.151
 5056HO4    HW220223   0.509   9.543   4.045
 5056HO4     MW20224   0.481   9.551   4.141
 5057HO4     OW20225   5.751   3.679   4.693
 5057HO4    HW120226   5.685   3.605   4.679
 5057HO4    HW220227   5.843   3.640   4.706
 5057HO4     MW20228   5.751   3.679   4.693
 5058HO4     OW20229   4.679   9.423   9.782
 5058HO4    HW120230   4.737   9.452   9.705
 5058HO4    HW220231   4.707   9.331   9.811
 5058HO4     MW20232   4.679   9.423   9.782
 5059HO4     OW20233   3.809   2.518   4.806
 5059HO4    HW120234   3.811   2.465   4.721
 5059HO4    HW220235   3.785   2.458   4.883
 5059HO4     MW20236   3.809   2.518   4.806
 5060HO4     OW20237   8.433   7.981   4.948
 5060HO4    HW120238   8.460   7.947   5.038
 5060HO4    HW220239   8.459   7.914   4.878
 5060HO4     MW20240   8.433   7.981   4.948
 5061HO4     OW20241   2.799   8.709   0.921
 5061HO4    HW120242   2.859   8.677   0.847
 5061HO4    HW220243   2.819   8.658   1.005
 5061HO4     MW20244   2.799   8.709   0.921
 5062HO4     OW20245   0.248   1.370   8.968
 5062HO4    HW120246   0.221   1.323   9.052
 5062HO4    HW220247   0.190   1.340   8.892
 5062HO4     MW20248   0.248   1.370   8.968
 5063HO4     OW20249   3.474   2.764   9.674
 5063HO4    HW120250   3.561   2.773   9.724
 5063HO4    HW220251   3.473   2.675   9.626
 5063HO4     MW20252   3.474   2.764   9.674
 5064HO4     OW20253   3.251   1.629   7.872
 5064HO4    HW120254   3.276   1.683   7.791
 5064HO4    HW220255   3.274   1.679   7.955
 5064HO4     MW20256   3.251   1.629   7.872
 5065HO4     OW20257   3.427   2.111  10.088
 5065HO4    HW120258   3.379   2.171  10.023
 5065HO4    HW220259   3.363   2.041  10.122
 5065HO4     MW20260   3.427   2.111  10.088
 5066HO4     OW20261   8.385   3.036   6.698
 5066HO4    HW120262   8.309   3.091   6.660
 5066HO4    HW220263   8.438   2.997   6.622
 5066HO4     MW20264   8.385   3.036   6.698
 5067HO4     OW20265   5.836  10.136   8.170
 5067HO4    HW120266   5.830  10.166   8.075
 5067HO4    HW220267   5.789  10.203   8.229
 5067HO4     MW20268   5.836  10.136   8.170
 5068HO4     OW20269   7.175   3.458   1.949
 5068HO4    HW120270   7.096   3.482   2.006
 5068HO4    HW220271   7.249   3.524   1.965
 5068HO4     MW20272   7.175   3.458   1.949
 5069HO4     OW20273   2.388   3.044   7.497
 5069HO4    HW120274   2.434   3.035   7.408
 5069HO4    HW220275   2.457   3.056   7.569
 5069HO4     MW20276   2.388   3.044   7.497
 5070HO4     OW20277   4.258   5.337   7.431
 5070HO4    HW120278   4.183   5.399   7.454
 5070HO4    HW220279   4.332   5.389   7.387
 5070HO4     MW20280   4.258   5.337   7.431
 5071HO4     OW20281   4.310   5.077   0.369
 5071HO4    HW120282   4.326   5.047   0.464
 5071HO4    HW220283   4.322   4.999   0.307
 5071HO4     MW20284   4.310   5.077   0.369
 5072HO4     OW20285   9.528   1.970   2.051
 5072HO4    HW120286   9.546   2.054   1.998
 5072HO4    HW220287   9.429   1.954   2.057
 5072HO4     MW20288   9.528   1.970   2.051
 5073HO4     OW20289   0.350   7.766   8.592
 5073HO4    HW120290   0.324   7.695   8.526
 5073HO4    HW220291   0.356   7.727   8.684
 5073HO4     MW20292   0.350   7.766   8.592
 5074HO4     OW20293   0.021   3.158   0.489
 5074HO4    HW120294   0.099   3.101   0.518
 5074HO4    HW220295  -0.064   3.108   0.506
 5074HO4     MW20296   0.021   3.158   0.489
 5075HO4     OW20297   7.879   8.962   9.222
 5075HO4    HW120298   7.787   8.972   9.262
 5075HO4    HW220299   7.873   8.971   9.122
 5075HO4     MW20300   7.879   8.962   9.222
 5076HO4     OW20301   0.168   2.346   9.627
 5076HO4    HW120302   0.230   2.361   9.549
 5076HO4    HW220303   0.174   2.423   9.690
 5076HO4     MW20304   0.168   2.346   9.627
 5077HO4     OW20305   9.444   9.527   9.105
 5077HO4    HW120306   9.398   9.603   9.057
 5077HO4    HW220307   9.475   9.559   9.195
 5077HO4     MW20308   9.444   9.527   9.105
 5078HO4     OW20309   1.650   8.124   7.976
 5078HO4    HW120310   1.625   8.083   7.888
 5078HO4    HW220311   1.583   8.096   8.046
 5078HO4     MW20312   1.650   8.124   7.976
 5079HO4     OW20313   8.123   0.465   3.943
 5079HO4    HW120314   8.165   0.544   3.899
 5079HO4    HW220315   8.068   0.414   3.876
 5079HO4     MW20316   8.123   0.465   3.943
 5080HO4     OW20317   9.773   4.702   0.122
 5080HO4    HW120318   9.791   4.655   0.209
 5080HO4    HW220319   9.676   4.724   0.114
 5080HO4     MW20320   9.773   4.702   0.122
 5081HO4     OW20321   9.559   0.892   2.971
 5081HO4    HW120322   9.604   0.900   3.061
 5081HO4    HW220323   9.470   0.938   2.974
 5081HO4     MW20324   9.559   0.892   2.971
 5082HO4     OW20325   2.242   7.999   8.302
 5082HO4    HW120326   2.158   7.945   8.303
 5082HO4    HW220327   2.228   8.083   8.249
 5082HO4     MW20328   2.242   7.999   8.302
 5083HO4     OW20329   2.455   5.492   6.208
 5083HO4    HW120330   2.519   5.418   6.186
 5083HO4    HW220331   2.367   5.453   6.236
 5083HO4     MW20332   2.455   5.492   6.208
 5084HO4     OW20333   1.477   7.025   8.447
 5084HO4    HW120334   1.547   7.043   8.517
 5084HO4    HW220335   1.497   6.937   8.402
 5084HO4     MW20336   1.477   7.025   8.447
 5085HO4     OW20337   8.724   8.608   0.135
 5085HO4    HW120338   8.700   8.548   0.058
 5085HO4    HW220339   8.701   8.563   0.222
 5085HO4     MW20340   8.724   8.608   0.135
 5086HO4     OW20341   2.897   6.433   9.138
 5086HO4    HW120342   2.936   6.380   9.214
 5086HO4    HW220343   2.970   6.479   9.087
 5086HO4     MW20344   2.897   6.433   9.138
 5087HO4     OW20345   3.770   1.218   0.449
 5087HO4    HW120346   3.761   1.222   0.349
 5087HO4    HW220347   3.766   1.122   0.478
 5087HO4     MW20348   3.770   1.218   0.449
 5088HO4     OW20349   7.495   6.759   6.048
 5088HO4    HW120350   7.488   6.789   6.144
 5088HO4    HW220351   7.488   6.839   5.988
 5088HO4     MW20352   7.495   6.759   6.048
 5089HO4     OW20353   2.029   9.574   6.564
 5089HO4    HW120354   1.997   9.590   6.658
 5089HO4    HW220355   2.126   9.549   6.565
 5089HO4     MW20356   2.029   9.574   6.564
 5090HO4     OW20357   1.555   1.703   6.331
 5090HO4    HW120358   1.508   1.656   6.257
 5090HO4    HW220359   1.574   1.638   6.405
 5090HO4     MW20360   1.555   1.703   6.331
 5091HO4     OW20361   2.529   1.074   8.171
 5091HO4    HW120362   2.627   1.088   8.151
 5091HO4    HW220363   2.520   1.042   8.266
 5091HO4     MW20364   2.529   1.074   8.171
 5092HO4     OW20365   5.821   1.790   1.095
 5092HO4    HW120366   5.872   1.803   1.181
 5092HO4    HW220367   5.766   1.872   1.076
 5092HO4     MW20368   5.821   1.790   1.095
 5093HO4     OW20369   4.111   8.243   7.365
 5093HO4    HW120370   4.113   8.276   7.460
 5093HO4    HW220371   4.183   8.289   7.313
 5093HO4     MW20372   4.111   8.243   7.365
 5094HO4     OW20373   5.935   1.630   7.544
 5094HO4    HW120374   6.005   1.560   7.555
 5094HO4    HW220375   5.976   1.712   7.502
 5094HO4     MW20376   5.935   1.630   7.544
 5095HO4     OW20377   8.765   5.859   3.475
 5095HO4    HW120378   8.845   5.879   3.419
 5095HO4    HW220379   8.794   5.834   3.568
 5095HO4     MW20380   8.765   5.859   3.475
 5096HO4     OW20381   2.589   8.182   6.685
 5096HO4    HW120382   2.626   8.166   6.777
 5096HO4    HW220383   2.658   8.232   6.631
 5096HO4     MW20384   2.589   8.182   6.685
 5097HO4     OW20385   6.507   3.841   7.043
 5097HO4    HW120386   6.516   3.912   7.114
 5097HO4    HW220387   6.527   3.881   6.953
 5097HO4     MW20388   6.507   3.841   7.043
 5098HO4     OW20389   4.411  10.188   5.318
 5098HO4    HW120390   4.379  10.103   5.362
 5098HO4    HW220391   4.493  10.168   5.262
 5098HO4     MW20392   4.411  10.188   5.318
 5099HO4     OW20393   5.806   8.527   4.267
 5099HO4    HW120394   5.838   8.604   4.323
 5099HO4    HW220395   5.755   8.561   4.188
 5099HO4     MW20396   5.806   8.527   4.267
 5100HO4     OW20397   6.914   3.542   3.114
 5100HO4    HW120398   6.871   3.454   3.137
 5100HO4    HW220399   6.842   3.610   3.096
 5100HO4     MW20400   6.914   3.542   3.114
 5101HO4     OW20401   1.523   7.404   6.656
 5101HO4    HW120402   1.460   7.440   6.587
 5101HO4    HW220403   1.502   7.308   6.675
 5101HO4     MW20404   1.523   7.404   6.656
 5102HO4     OW20405   4.408   5.254   5.087
 5102HO4    HW120406   4.315   5.292   5.093
 5102HO4    HW220407   4.406   5.157   5.114
 5102HO4     MW20408   4.408   5.254   5.087
 5103HO4     OW20409  10.106   7.201   8.690
 5103HO4    HW120410  10.146   7.210   8.598
 5103HO4    HW220411  10.008   7.183   8.682
 5103HO4     MW20412  10.106   7.201   8.690
 5104HO4     OW20413   8.952   3.963   4.404
 5104HO4    HW120414   8.884   4.008   4.462
 5104HO4    HW220415   8.964   4.014   4.319
 5104HO4     MW20416   8.952   3.963   4.404
 5105HO4     OW20417   0.691   7.740   3.322
 5105HO4    HW120418   0.643   7.690   3.249
 5105HO4    HW220419   0.643   7.725   3.409
 5105HO4     MW20420   0.691   7.740   3.322
 5106HO4     OW20421   1.118   6.811   6.332
 5106HO4    HW120422   1.023   6.843   6.319
 5106HO4    HW220423   1.174   6.886   6.368
 5106HO4     MW20424   1.118   6.811   6.332
 5107HO4     OW20425   4.793   7.961   4.391
 5107HO4    HW120426   4.728   8.018   4.338
 5107HO4    HW220427   4.865   8.020   4.429
 5107HO4     MW20428   4.793   7.961   4.391
 5108HO4     OW20429   4.531   6.698   5.768
 5108HO4    HW120430   4.587   6.663   5.694
 5108HO4    HW220431   4.578   6.685   5.856
 5108HO4     MW20432   4.531   6.698   5.768
 5109HO4     OW20433   7.994   6.013   7.371
 5109HO4    HW120434   8.031   6.050   7.457
 5109HO4    HW220435   8.011   6.077   7.296
 5109HO4     MW20436   7.994   6.013   7.371
 5110HO4     OW20437   7.826   6.407   1.509
 5110HO4    HW120438   7.856   6.502   1.525
 5110HO4    HW220439   7.760   6.381   1.580
 5110HO4     MW20440   7.826   6.407   1.509
 5111HO4     OW20441   0.366   0.279   8.099
 5111HO4    HW120442   0.361   0.378   8.110
 5111HO4    HW220443   0.384   0.236   8.188
 5111HO4     MW20444   0.366   0.279   8.099
 5112HO4     OW20445   1.916   3.476   7.684
 5112HO4    HW120446   1.982   3.447   7.615
 5112HO4    HW220447   1.927   3.422   7.767
 5112HO4     MW20448   1.916   3.476   7.684
 5113HO4     OW20449   8.647   8.770   7.853
 5113HO4    HW120450   8.658   8.768   7.953
 5113HO4    HW220451   8.587   8.695   7.825
 5113HO4     MW20452   8.647   8.770   7.853
 5114HO4     OW20453   1.363   3.029   1.475
 5114HO4    HW120454   1.278   3.082   1.465
 5114HO4    HW220455   1.375   2.970   1.394
 5114HO4     MW20456   1.363   3.029   1.475
 5115HO4     OW20457   8.750   3.521   3.233
 5115HO4    HW120458   8.833   3.579   3.230
 5115HO4    HW220459   8.776   3.427   3.256
 5115HO4     MW20460   8.750   3.521   3.233
 5116HO4     OW20461   4.028  10.084   6.243
 5116HO4    HW120462   3.937  10.051   6.218
 5116HO4    HW220463   4.025  10.127   6.334
 5116HO4     MW20464   4.028  10.084   6.243
 5117HO4     OW20465   8.447   7.172   5.956
 5117HO4    HW120466   8.458   7.242   5.884
 5117HO4    HW220467   8.477   7.211   6.044
 5117HO4     MW20468   8.447   7.172   5.956
 5118HO4     OW20469   7.507   6.413   9.781
 5118HO4    HW120470   7.570   6.407   9.859
 5118HO4    HW220471   7.558   6.398   9.696
 5118HO4     MW20472   7.507   6.413   9.781
 5119HO4     OW20473   7.926   2.576   4.104
 5119HO4    HW120474   7.901   2.672   4.085
 5119HO4    HW220475   7.842   2.521   4.110
 5119HO4     MW20476   7.926   2.576   4.104
 5120HO4     OW20477   7.766   3.397   2.003
 5120HO4    HW120478   7.839   3.390   1.935
 5120HO4    HW220479   7.741   3.305   2.035
 5120HO4     MW20480   7.766   3.397   2.003
 5121HO4     OW20481   7.233   4.282   4.901
 5121HO4    HW120482   7.176   4.334   4.837
 5121HO4    HW220483   7.193   4.286   4.993
 5121HO4     MW20484   7.233   4.282   4.901
 5122HO4     OW20485   4.950   8.469   0.019
 5122HO4    HW120486   4.922   8.522   0.100
 5122HO4    HW220487   4.869   8.445  -0.035
 5122HO4     MW20488   4.950   8.469   0.019
 5123HO4     OW20489   2.280   8.934   3.817
 5123HO4    HW120490   2.240   8.983   3.739
 5123HO4    HW220491   2.245   8.972   3.903
 5123HO4     MW20492   2.280   8.934   3.817
 5124HO4     OW20493   1.857   7.228   1.756
 5124HO4    HW120494   1.876   7.327   1.757
 5124HO4    HW220495   1.942   7.178   1.736
 5124HO4     MW20496   1.857   7.228   1.756
 5125HO4     OW20497   3.799   7.011   2.406
 5125HO4    HW120498   3.856   7.019   2.323
 5125HO4    HW220499   3.853   6.967   2.479
 5125HO4     MW20500   3.799   7.011   2.406
 5126HO4     OW20501  10.030   1.895   6.098
 5126HO4    HW120502  10.112   1.909   6.155
 5126HO4    HW220503  10.034   1.955   6.018
 5126HO4     MW20504  10.030   1.895   6.098
 5127HO4     OW20505   5.401   5.475   8.193
 5127HO4    HW120506   5.435   5.518   8.108
 5127HO4    HW220507   5.400   5.543   8.267
 5127HO4     MW20508   5.401   5.475   8.193
 5128HO4     OW20509   6.037   1.132   6.161
 5128HO4    HW120510   6.025   1.086   6.250
 5128HO4    HW220511   6.031   1.064   6.088
 5128HO4     MW20512   6.037   1.132   6.161
 5129HO4     OW20513   8.281   4.517   2.096
 5129HO4    HW120514   8.340   4.550   2.022
 5129HO4    HW220515   8.329   4.525   2.183
 5129HO4     MW20516   8.281   4.517   2.096
 5130HO4     OW20517   3.232   9.496   0.865
 5130HO4    HW120518   3.226   9.582   0.814
 5130HO4    HW220519   3.143   9.476   0.908
 5130HO4     MW20520   3.232   9.496   0.865
 5131HO4     OW20521   2.352   7.730   0.343
 5131HO4    HW120522   2.375   7.746   0.439
 5131HO4    HW220523   2.434   7.701   0.293
 5131HO4     MW20524   2.352   7.730   0.343
 5132HO4     OW20525   2.669   2.416   5.961
 5132HO4    HW120526   2.718   2.356   6.025
 5132HO4    HW220527   2.656   2.368   5.874
 5132HO4     MW20528   2.669   2.416   5.961
 5133HO4     OW20529   6.873   8.724   5.325
 5133HO4    HW120530   6.929   8.676   5.393
 5133HO4    HW220531   6.880   8.676   5.237
 5133HO4     MW20532   6.873   8.724   5.325
 5134HO4     OW20533   9.401   7.099   6.551
 5134HO4    HW120534   9.333   7.159   6.596
 5134HO4    HW220535   9.483   7.094   6.609
 5134HO4     MW20536   9.401   7.099   6.551
 5135HO4     OW20537   9.938   1.498   5.361
 5135HO4    HW120538   9.997   1.525   5.437
 5135HO4    HW220539   9.988   1.436   5.300
 5135HO4     MW20540   9.938   1.498   5.361
 5136HO4     OW20541   7.723   6.102   4.339
 5136HO4    HW120542   7.786   6.176   4.367
 5136HO4    HW220543   7.713   6.104   4.239
 5136HO4     MW20544   7.723   6.102   4.339
 5137HO4     OW20545   1.687   8.028   4.458
 5137HO4    HW120546   1.658   7.951   4.515
 5137HO4    HW220547   1.678   8.002   4.361
 5137HO4     MW20548   1.687   8.028   4.458
 5138HO4     OW20549   4.384   7.380   2.674
 5138HO4    HW120550   4.458   7.343   2.617
 5138HO4    HW220551   4.382   7.480   2.665
 5138HO4     MW20552   4.384   7.380   2.674
 5139HO4     OW20553   4.985   4.849   0.944
 5139HO4    HW120554   5.035   4.848   0.856
 5139HO4    HW220555   4.984   4.942   0.981
 5139HO4     MW20556   4.985   4.849   0.944
 5140HO4     OW20557   7.557   8.478   6.613
 5140HO4    HW120558   7.614   8.480   6.531
 5140HO4    HW220559   7.615   8.480   6.695
 5140HO4     MW20560   7.557   8.478   6.613
 5141HO4     OW20561   7.930   4.917   0.171
 5141HO4    HW120562   7.952   4.965   0.086
 5141HO4    HW220563   7.940   4.980   0.249
 5141HO4     MW20564   7.930   4.917   0.171
 5142HO4     OW20565   5.810   8.249   5.507
 5142HO4    HW120566   5.772   8.285   5.592
 5142HO4    HW220567   5.736   8.209   5.451
 5142HO4     MW20568   5.810   8.249   5.507
 5143HO4     OW20569   5.621   1.638   7.253
 5143HO4    HW120570   5.541   1.665   7.307
 5143HO4    HW220571   5.655   1.718   7.202
 5143HO4     MW20572   5.621   1.638   7.253
 5144HO4     OW20573   1.088   3.173   0.035
 5144HO4    HW120574   1.086   3.116  -0.047
 5144HO4    HW220575   1.106   3.116   0.115
 5144HO4     MW20576   1.088   3.173   0.035
 5145HO4     OW20577   3.107   5.125   3.624
 5145HO4    HW120578   3.110   5.065   3.704
 5145HO4    HW220579   3.143   5.077   3.544
 5145HO4     MW20580   3.107   5.125   3.624
 5146HO4     OW20581   3.654   7.600   8.652
 5146HO4    HW120582   3.605   7.531   8.707
 5146HO4    HW220583   3.745   7.564   8.628
 5146HO4     MW20584   3.654   7.600   8.652
 5147HO4     OW20585   2.593   9.428   9.907
 5147HO4    HW120586   2.537   9.455   9.828
 5147HO4    HW220587   2.545   9.453   9.992
 5147HO4     MW20588   2.593   9.428   9.907
 5148HO4     OW20589   9.259   3.692   5.821
 5148HO4    HW120590   9.194   3.752   5.870
 5148HO4    HW220591   9.219   3.600   5.812
 5148HO4     MW20592   9.259   3.692   5.821
 5149HO4     OW20593   4.111   3.985   1.044
 5149HO4    HW120594   4.127   4.063   0.983
 5149HO4    HW220595   4.108   4.018   1.139
 5149HO4     MW20596   4.111   3.985   1.044
 5150HO4     OW20597   4.560   3.082   6.900
 5150HO4    HW120598   4.562   2.982   6.907
 5150HO4    HW220599   4.517   3.120   6.983
 5150HO4     MW20600   4.560   3.082   6.900
 5151HO4     OW20601   3.185   1.440   4.365
 5151HO4    HW120602   3.122   1.414   4.439
 5151HO4    HW220603   3.189   1.540   4.358
 5151HO4     MW20604   3.185   1.440   4.365
 5152HO4     OW20605   5.455   7.858   0.721
 5152HO4    HW120606   5.413   7.855   0.630
 5152HO4    HW220607   5.516   7.779   0.731
 5152HO4     MW20608   5.455   7.858   0.721
 5153HO4     OW20609   5.478   9.342   9.728
 5153HO4    HW120610   5.400   9.404   9.714
 5153HO4    HW220611   5.473   9.266   9.663
 5153HO4     MW20612   5.478   9.342   9.728
 5154HO4     OW20613   6.278   0.661   8.853
 5154HO4    HW120614   6.210   0.628   8.920
 5154HO4    HW220615   6.233   0.677   8.765
 5154HO4     MW20616   6.278   0.661   8.853
 5155HO4     OW20617   9.333   9.196   0.594
 5155HO4    HW120618   9.270   9.183   0.672
 5155HO4    HW220619   9.280   9.221   0.513
 5155HO4     MW20620   9.333   9.196   0.594
 5156HO4     OW20621   8.406   6.342   0.806
 5156HO4    HW120622   8.480   6.318   0.869
 5156HO4    HW220623   8.386   6.440   0.813
 5156HO4     MW20624   8.406   6.342   0.806
 5157HO4     OW20625   5.478   9.892   2.367
 5157HO4    HW120626   5.390   9.941   2.364
 5157HO4    HW220627   5.536   9.932   2.438
 5157HO4     MW20628   5.478   9.892   2.367
 5158HO4     OW20629   4.041   4.790   0.868
 5158HO4    HW120630   4.048   4.774   0.967
 5158HO4    HW220631   4.071   4.708   0.819
 5158HO4     MW20632   4.041   4.790   0.868
 5159HO4     OW20633   2.227   7.629   6.342
 5159HO4    HW120634   2.236   7.563   6.266
 5159HO4    HW220635   2.292   7.606   6.415
 5159HO4     MW20636   2.227   7.629   6.342
 5160HO4     OW20637   3.946   4.315   0.188
 5160HO4    HW120638   3.946   4.280   0.282
 5160HO4    HW220639   3.912   4.409   0.187
 5160HO4     MW20640   3.946   4.315   0.188
 5161HO4     OW20641   8.554   2.155   1.164
 5161HO4    HW120642   8.498   2.206   1.099
 5161HO4    HW220643   8.538   2.190   1.257
 5161HO4     MW20644   8.554   2.155   1.164
 5162HO4     OW20645   7.966   6.311   7.469
 5162HO4    HW120646   7.980   6.304   7.370
 5162HO4    HW220647   8.055   6.314   7.515
 5162HO4     MW20648   7.966   6.311   7.469
 5163HO4     OW20649   9.243   8.835   6.737
 5163HO4    HW120650   9.208   8.755   6.786
 5163HO4    HW220651   9.243   8.915   6.799
 5163HO4     MW20652   9.243   8.835   6.737
 5164HO4     OW20653   3.010   2.523   1.263
 5164HO4    HW120654   2.975   2.546   1.172
 5164HO4    HW220655   2.955   2.569   1.333
 5164HO4     MW20656   3.010   2.523   1.263
 5165HO4     OW20657   7.122   9.412   3.623
 5165HO4    HW120658   7.142   9.314   3.624
 5165HO4    HW220659   7.092   9.441   3.715
 5165HO4     MW20660   7.122   9.412   3.623
 5166HO4     OW20661   8.159   8.500   4.909
 5166HO4    HW120662   8.231   8.471   4.846
 5166HO4    HW220663   8.153   8.600   4.910
 5166HO4     MW20664   8.159   8.500   4.909
 5167HO4     OW20665   3.548   7.419   1.043
 5167HO4    HW120666   3.647   7.410   1.035
 5167HO4    HW220667   3.512   7.348   1.104
 5167HO4     MW20668   3.548   7.419   1.043
 5168HO4     OW20669   7.179   3.855   2.494
 5168HO4    HW120670   7.144   3.796   2.421
 5168HO4    HW220671   7.105   3.912   2.530
 5168HO4     MW20672   7.179   3.855   2.494
 5169HO4     OW20673   6.842   9.680   9.830
 5169HO4    HW120674   6.846   9.739   9.911
 5169HO4    HW220675   6.833   9.737   9.747
 5169HO4     MW20676   6.842   9.680   9.830
 5170HO4     OW20677   4.611   7.045   6.794
 5170HO4    HW120678   4.587   7.098   6.713
 5170HO4    HW220679   4.573   7.090   6.876
 5170HO4     MW20680   4.611   7.045   6.794
 5171HO4     OW20681   3.688   1.436   3.509
 5171HO4    HW120682   3.720   1.417   3.602
 5171HO4    HW220683   3.747   1.391   3.442
 5171HO4     MW20684   3.688   1.436   3.509
 5172HO4     OW20685   6.007   1.673   4.261
 5172HO4    HW120686   5.972   1.665   4.354
 5172HO4    HW220687   5.932   1.693   4.198
 5172HO4     MW20688   6.007   1.673   4.261
 5173HO4     OW20689   9.453   9.089   1.912
 5173HO4    HW120690   9.503   9.170   1.942
 5173HO4    HW220691   9.502   9.006   1.942
 5173HO4     MW20692   9.453   9.089   1.912
 5174HO4     OW20693   0.009   4.674   4.143
 5174HO4    HW120694   0.001   4.658   4.242
 5174HO4    HW220695   0.097   4.718   4.124
 5174HO4     MW20696   0.009   4.674   4.143
 5175HO4     OW20697   6.786   7.140   7.861
 5175HO4    HW120698   6.693   7.109   7.839
 5175HO4    HW220699   6.782   7.210   7.933
 5175HO4     MW20700   6.786   7.140   7.861
 5176HO4     OW20701   6.998   7.445   9.796
 5176HO4    HW120702   6.997   7.487   9.887
 5176HO4    HW220703   6.904   7.433   9.764
 5176HO4     MW20704   6.998   7.445   9.796
 5177HO4     OW20705   8.565   1.767   0.047
 5177HO4    HW120706   8.606   1.843   0.100
 5177HO4    HW220707   8.636   1.722  -0.007
 5177HO4     MW20708   8.565   1.767   0.047
 5178HO4     OW20709   8.134   7.560   3.405
 5178HO4    HW120710   8.113   7.657   3.395
 5178HO4    HW220711   8.203   7.534   3.336
 5178HO4     MW20712   8.134   7.560   3.405
 5179HO4     OW20713   6.517   4.136   8.857
 5179HO4    HW120714   6.536   4.039   8.841
 5179HO4    HW220715   6.576   4.170   8.931
 5179HO4     MW20716   6.517   4.136   8.857
 5180HO4     OW20717   1.359   6.698   0.661
 5180HO4    HW120718   1.297   6.763   0.616
 5180HO4    HW220719   1.379   6.729   0.754
 5180HO4     MW20720   1.359   6.698   0.661
 5181HO4     OW20721   6.313   2.992   5.788
 5181HO4    HW120722   6.327   2.992   5.689
 5181HO4    HW220723   6.241   2.927   5.812
 5181HO4     MW20724   6.313   2.992   5.788
 5182HO4     OW20725   6.505   0.196   0.786
 5182HO4    HW120726   6.477   0.137   0.862
 5182HO4    HW220727   6.496   0.146   0.699
 5182HO4     MW20728   6.505   0.196   0.786
 5183HO4     OW20729   6.926   4.627   2.471
 5183HO4    HW120730   6.949   4.617   2.568
 5183HO4    HW220731   7.007   4.608   2.415
 5183HO4     MW20732   6.926   4.627   2.471
 5184HO4     OW20733   5.023   0.927   6.721
 5184HO4    HW120734   5.075   0.951   6.804
 5184HO4    HW220735   5.004   1.010   6.668
 5184HO4     MW20736   5.023   0.927   6.721
 5185HO4     OW20737   4.807   7.839   7.211
 5185HO4    HW120738   4.863   7.902   7.157
 5185HO4    HW220739   4.727   7.811   7.157
 5185HO4     MW20740   4.807   7.839   7.211
 5186HO4     OW20741   9.298   4.252   0.362
 5186HO4    HW120742   9.346   4.269   0.448
 5186HO4    HW220743   9.357   4.277   0.284
 5186HO4     MW20744   9.298   4.252   0.362
 5187HO4     OW20745   2.630   8.643   2.453
 5187HO4    HW120746   2.669   8.573   2.514
 5187HO4    HW220747   2.697   8.666   2.382
 5187HO4     MW20748   2.630   8.643   2.453
 5188HO4     OW20749   7.900   5.471   5.610
 5188HO4    HW120750   7.878   5.388   5.662
 5188HO4    HW220751   7.869   5.552   5.660
 5188HO4     MW20752   7.900   5.471   5.610
 5189HO4     OW20753   0.328   1.987   4.468
 5189HO4    HW120754   0.417   2.008   4.427
 5189HO4    HW220755   0.285   1.911   4.417
 5189HO4     MW20756   0.328   1.987   4.468
 5190HO4     OW20757   9.911   9.003   2.006
 5190HO4    HW120758   9.873   8.978   1.917
 5190HO4    HW220759   9.845   9.060   2.056
 5190HO4     MW20760   9.911   9.003   2.006
 5191HO4     OW20761   4.289   4.890   3.685
 5191HO4    HW120762   4.190   4.883   3.668
 5191HO4    HW220763   4.333   4.939   3.610
 5191HO4     MW20764   4.289   4.890   3.685
 5192HO4     OW20765  10.077   6.351   6.169
 5192HO4    HW120766  10.148   6.400   6.220
 5192HO4    HW220767  10.118   6.277   6.115
 5192HO4     MW20768  10.077   6.351   6.169
 5193HO4     OW20769   8.437   8.286   2.516
 5193HO4    HW120770   8.495   8.312   2.439
 5193HO4    HW220771   8.439   8.186   2.528
 5193HO4     MW20772   8.437   8.286   2.516
 5194HO4     OW20773   8.351   6.866   2.998
 5194HO4    HW120774   8.323   6.809   3.076
 5194HO4    HW220775   8.393   6.808   2.927
 5194HO4     MW20776   8.351   6.866   2.998
 5195HO4     OW20777   8.211   3.157   6.834
 5195HO4    HW120778   8.260   3.240   6.804
 5195HO4    HW220779   8.128   3.182   6.885
 5195HO4     MW20780   8.211   3.157   6.834
 5196HO4     OW20781   8.502   7.475   5.051
 5196HO4    HW120782   8.470   7.518   5.136
 5196HO4    HW220783   8.438   7.495   4.977
 5196HO4     MW20784   8.502   7.475   5.051
 5197HO4     OW20785   7.146   1.135   5.385
 5197HO4    HW120786   7.226   1.185   5.418
 5197HO4    HW220787   7.173   1.043   5.354
 5197HO4     MW20788   7.146   1.135   5.385
 5198HO4     OW20789   7.656   9.214   2.661
 5198HO4    HW120790   7.670   9.136   2.723
 5198HO4    HW220791   7.618   9.292   2.713
 5198HO4     MW20792   7.656   9.214   2.661
 5199HO4     OW20793   9.283   8.968   8.599
 5199HO4    HW120794   9.210   9.030   8.630
 5199HO4    HW220795   9.291   8.972   8.499
 5199HO4     MW20796   9.283   8.968   8.599
 5200HO4     OW20797   4.345   2.338   3.357
 5200HO4    HW120798   4.415   2.331   3.286
 5200HO4    HW220799   4.386   2.315   3.446
 5200HO4     MW20800   4.345   2.338   3.357
 5201HO4     OW20801  10.102   3.626   3.934
 5201HO4    HW120802  10.093   3.634   3.835
 5201HO4    HW220803  10.021   3.579   3.971
 5201HO4     MW20804  10.102   3.626   3.934
 5202HO4     OW20805   2.215   9.335   1.416
 5202HO4    HW120806   2.160   9.305   1.494
 5202HO4    HW220807   2.177   9.295   1.332
 5202HO4     MW20808   2.215   9.335   1.416
 5203HO4     OW20809   0.400   0.941   5.339
 5203HO4    HW120810   0.424   0.959   5.434
 5203HO4    HW220811   0.442   0.854   5.309
 5203HO4     MW20812   0.400   0.941   5.339
 5204HO4     OW20813   2.293   7.927   4.633
 5204HO4    HW120814   2.339   8.012   4.607
 5204HO4    HW220815   2.313   7.907   4.729
 5204HO4     MW20816   2.293   7.927   4.633
 5205HO4     OW20817   4.014   8.946   5.968
 5205HO4    HW120818   3.980   8.944   5.873
 5205HO4    HW220819   3.965   8.878   6.023
 5205HO4     MW20820   4.014   8.946   5.968
 5206HO4     OW20821   6.263   0.884   0.283
 5206HO4    HW120822   6.205   0.881   0.365
 5206HO4    HW220823   6.206   0.881   0.201
 5206HO4     MW20824   6.263   0.884   0.283
 5207HO4     OW20825   8.788   4.977   2.000
 5207HO4    HW120826   8.843   4.957   2.081
 5207HO4    HW220827   8.738   5.063   2.014
 5207HO4     MW20828   8.788   4.977   2.000
 5208HO4     OW20829   4.338   6.272   8.454
 5208HO4    HW120830   4.332   6.343   8.525
 5208HO4    HW220831   4.283   6.192   8.482
 5208HO4     MW20832   4.338   6.272   8.454
 5209HO4     OW20833   2.237   4.614   8.506
 5209HO4    HW120834   2.292   4.618   8.590
 5209HO4    HW220835   2.297   4.619   8.426
 5209HO4     MW20836   2.237   4.614   8.506
 5210HO4     OW20837   8.826   8.969   7.661
 5210HO4    HW120838   8.880   8.892   7.625
 5210HO4    HW220839   8.757   8.933   7.726
 5210HO4     MW20840   8.826   8.969   7.661
 5211HO4     OW20841   8.874   7.800   4.120
 5211HO4    HW120842   8.836   7.713   4.153
 5211HO4    HW220843   8.893   7.793   4.022
 5211HO4     MW20844   8.874   7.800   4.120
 5212HO4     OW20845   7.979   2.746   3.617
 5212HO4    HW120846   7.998   2.817   3.686
 5212HO4    HW220847   7.908   2.685   3.652
 5212HO4     MW20848   7.979   2.746   3.617
 5213HO4     OW20849   8.389   4.444   5.507
 5213HO4    HW120850   8.424   4.451   5.413
 5213HO4    HW220851   8.292   4.419   5.505
 5213HO4     MW20852   8.389   4.444   5.507
 5214HO4     OW20853   1.880   0.206   4.904
 5214HO4    HW120854   1.973   0.242   4.889
 5214HO4    HW220855   1.871   0.175   4.999
 5214HO4     MW20856   1.880   0.206   4.904
 5215HO4     OW20857   8.107   9.898   1.996
 5215HO4    HW120858   8.062   9.859   2.077
 5215HO4    HW220859   8.091   9.838   1.916
 5215HO4     MW20860   8.107   9.898   1.996
 5216HO4     OW20861   4.845   8.630   4.281
 5216HO4    HW120862   4.816   8.670   4.194
 5216HO4    HW220863   4.788   8.666   4.355
 5216HO4     MW20864   4.845   8.630   4.281
 5217HO4     OW20865   4.464   2.602   3.672
 5217HO4    HW120866   4.370   2.571   3.691
 5217HO4    HW220867   4.506   2.635   3.757
 5217HO4     MW20868   4.464   2.602   3.672
 5218HO4     OW20869   3.626   9.331   5.154
 5218HO4    HW120870   3.557   9.329   5.081
 5218HO4    HW220871   3.585   9.366   5.238
 5218HO4     MW20872   3.626   9.331   5.154
 5219HO4     OW20873   3.223   5.493   9.831
 5219HO4    HW120874   3.261   5.451   9.747
 5219HO4    HW220875   3.271   5.456   9.911
 5219HO4     MW20876   3.223   5.493   9.831
 5220HO4     OW20877   3.682   6.450   9.686
 5220HO4    HW120878   3.651   6.485   9.597
 5220HO4    HW220879   3.682   6.526   9.753
 5220HO4     MW20880   3.682   6.450   9.686
 5221HO4     OW20881   9.175   3.397   3.691
 5221HO4    HW120882   9.247   3.453   3.733
 5221HO4    HW220883   9.199   3.379   3.595
 5221HO4     MW20884   9.175   3.397   3.691
 5222HO4     OW20885   2.409   5.209   5.945
 5222HO4    HW120886   2.426   5.263   6.028
 5222HO4    HW220887   2.311   5.199   5.931
 5222HO4     MW20888   2.409   5.209   5.945
 5223HO4     OW20889   6.883   2.110   0.586
 5223HO4    HW120890   6.916   2.166   0.663
 5223HO4    HW220891   6.836   2.169   0.519
 5223HO4     MW20892   6.883   2.110   0.586
 5224HO4     OW20893   9.370   9.358   8.552
 5224HO4    HW120894   9.379   9.428   8.481
 5224HO4    HW220895   9.274   9.333   8.563
 5224HO4     MW20896   9.370   9.358   8.552
 5225HO4     OW20897   5.410   0.510   8.539
 5225HO4    HW120898   5.470   0.457   8.599
 5225HO4    HW220899   5.439   0.499   8.444
 5225HO4     MW20900   5.410   0.510   8.539
 5226HO4     OW20901   8.648   0.557   0.132
 5226HO4    HW120902   8.647   0.648   0.175
 5226HO4    HW220903   8.554   0.530   0.109
 5226HO4     MW20904   8.648   0.557   0.132
 5227HO4     OW20905   5.135   1.229   9.864
 5227HO4    HW120906   5.038   1.208   9.853
 5227HO4    HW220907   5.181   1.153   9.911
 5227HO4     MW20908   5.135   1.229   9.864
 5228HO4     OW20909   5.781   1.388   0.482
 5228HO4    HW120910   5.736   1.399   0.571
 5228HO4    HW220911   5.713   1.366   0.412
 5228HO4     MW20912   5.781   1.388   0.482
 5229HO4     OW20913   5.455   0.731   0.585
 5229HO4    HW120914   5.459   0.632   0.569
 5229HO4    HW220915   5.481   0.780   0.501
 5229HO4     MW20916   5.455   0.731   0.585
 5230HO4     OW20917   9.103   3.601   2.438
 5230HO4    HW120918   9.094   3.524   2.374
 5230HO4    HW220919   9.201   3.623   2.450
 5230HO4     MW20920   9.103   3.601   2.438
 5231HO4     OW20921   6.803   8.422   1.519
 5231HO4    HW120922   6.840   8.394   1.608
 5231HO4    HW220923   6.870   8.399   1.447
 5231HO4     MW20924   6.803   8.422   1.519
 5232HO4     OW20925   4.713   3.777   7.914
 5232HO4    HW120926   4.803   3.809   7.946
 5232HO4    HW220927   4.664   3.732   7.989
 5232HO4     MW20928   4.713   3.777   7.914
 5233HO4     OW20929   4.212   1.111   9.586
 5233HO4    HW120930   4.188   1.040   9.519
 5233HO4    HW220931   4.129   1.146   9.629
 5233HO4     MW20932   4.212   1.111   9.586
 5234HO4     OW20933   7.314   0.203   2.660
 5234HO4    HW120934   7.293   0.123   2.602
 5234HO4    HW220935   7.259   0.198   2.744
 5234HO4     MW20936   7.314   0.203   2.660
 5235HO4     OW20937   9.850   2.616   2.603
 5235HO4    HW120938   9.941   2.599   2.642
 5235HO4    HW220939   9.832   2.546   2.532
 5235HO4     MW20940   9.850   2.616   2.603
 5236HO4     OW20941   2.691   4.323   1.104
 5236HO4    HW120942   2.729   4.337   1.012
 5236HO4    HW220943   2.709   4.229   1.134
 5236HO4     MW20944   2.691   4.323   1.104
 5237HO4     OW20945   4.954   1.121   1.390
 5237HO4    HW120946   4.903   1.166   1.464
 5237HO4    HW220947   4.922   1.155   1.301
 5237HO4     MW20948   4.954   1.121   1.390
 5238HO4     OW20949   3.909   2.104   9.112
 5238HO4    HW120950   3.971   2.033   9.079
 5238HO4    HW220951   3.821   2.063   9.138
 5238HO4     MW20952   3.909   2.104   9.112
 5239HO4     OW20953   0.867   4.368   8.600
 5239HO4    HW120954   0.939   4.314   8.643
 5239HO4    HW220955   0.842   4.327   8.512
 5239HO4     MW20956   0.867   4.368   8.600
 5240HO4     OW20957   1.165   8.448   9.737
 5240HO4    HW120958   1.107   8.434   9.656
 5240HO4    HW220959   1.113   8.425   9.819
 5240HO4     MW20960   1.165   8.448   9.737
 5241HO4     OW20961   5.338   8.415  10.008
 5241HO4    HW120962   5.420   8.461  10.044
 5241HO4    HW220963   5.360   8.319   9.988
 5241HO4     MW20964   5.338   8.415  10.008
 5242HO4     OW20965   2.540   0.619   9.470
 5242HO4    HW120966   2.565   0.702   9.420
 5242HO4    HW220967   2.452   0.632   9.516
 5242HO4     MW20968   2.540   0.619   9.470
 5243HO4     OW20969   1.732   1.876   1.785
 5243HO4    HW120970   1.684   1.863   1.873
 5243HO4    HW220971   1.781   1.963   1.787
 5243HO4     MW20972   1.732   1.876   1.785
 5244HO4     OW20973   8.606   9.855   2.341
 5244HO4    HW120974   8.534   9.843   2.273
 5244HO4    HW220975   8.630   9.766   2.380
 5244HO4     MW20976   8.606   9.855   2.341
 5245HO4     OW20977   5.723   9.428   4.270
 5245HO4    HW120978   5.746   9.376   4.353
 5245HO4    HW220979   5.752   9.376   4.189
 5245HO4     MW20980   5.723   9.428   4.270
 5246HO4     OW20981   0.910   8.560   2.530
 5246HO4    HW120982   0.980   8.497   2.496
 5246HO4    HW220983   0.948   8.653   2.535
 5246HO4     MW20984   0.910   8.560   2.530
 5247HO4     OW20985   5.965   2.444   9.671
 5247HO4    HW120986   6.064   2.464   9.675
 5247HO4    HW220987   5.914   2.514   9.721
 5247HO4     MW20988   5.965   2.444   9.671
 5248HO4     OW20989   9.109   6.707   1.573
 5248HO4    HW120990   9.044   6.770   1.529
 5248HO4    HW220991   9.090   6.613   1.543
 5248HO4     MW20992   9.109   6.707   1.573
 5249HO4     OW20993   7.410   6.113   7.113
 5249HO4    HW120994   7.336   6.052   7.143
 5249HO4    HW220995   7.458   6.150   7.193
 5249HO4     MW20996   7.410   6.113   7.113
 5250HO4     OW20997   4.755   7.938   3.341
 5250HO4    HW120998   4.830   7.996   3.308
 5250HO4    HW220999   4.786   7.843   3.345
 5250HO4     MW21000   4.755   7.938   3.341
 5251HO4     OW21001   7.292   6.887   9.706
 5251HO4    HW121002   7.247   6.876   9.616
 5251HO4    HW221003   7.336   6.801   9.732
 5251HO4     MW21004   7.292   6.887   9.706
 5252HO4     OW21005   4.297   9.485   9.505
 5252HO4    HW121006   4.350   9.511   9.586
 5252HO4    HW221007   4.346   9.514   9.422
 5252HO4     MW21008   4.297   9.485   9.505
 5253HO4     OW21009   0.984   7.551   9.972
 5253HO4    HW121010   0.933   7.625   9.926
 5253HO4    HW221011   0.929   7.467   9.972
 5253HO4     MW21012   0.984   7.551   9.972
 5254HO4     OW21013   7.915  10.014   2.728
 5254HO4    HW121014   7.852   9.968   2.791
 5254HO4    HW221015   8.010   9.991   2.753
 5254HO4     MW21016   7.915  10.014   2.728
 5255HO4     OW21017   8.403   0.139   1.397
 5255HO4    HW121018   8.306   0.118   1.413
 5255HO4    HW221019   8.412   0.190   1.311
 5255HO4     MW21020   8.403   0.139   1.397
 5256HO4     OW21021   4.326   3.488   9.351
 5256HO4    HW121022   4.388   3.504   9.274
 5256HO4    HW221023   4.378   3.489   9.437
 5256HO4     MW21024   4.326   3.488   9.351
 5257HO4     OW21025   6.980   0.135   4.177
 5257HO4    HW121026   6.943   0.110   4.267
 5257HO4    HW221027   6.924   0.093   4.105
 5257HO4     MW21028   6.980   0.135   4.177
 5258HO4     OW21029   8.672   7.910   0.444
 5258HO4    HW121030   8.755   7.878   0.398
 5258HO4    HW221031   8.666   7.868   0.535
 5258HO4     MW21032   8.672   7.910   0.444
 5259HO4     OW21033   6.844   2.778   6.838
 5259HO4    HW121034   6.853   2.872   6.804
 5259HO4    HW221035   6.922   2.756   6.897
 5259HO4     MW21036   6.844   2.778   6.838
 5260HO4     OW21037   5.506   0.909   3.640
 5260HO4    HW121038   5.417   0.901   3.687
 5260HO4    HW221039   5.555   0.990   3.675
 5260HO4     MW21040   5.506   0.909   3.640
 5261HO4     OW21041   1.365   3.045   6.056
 5261HO4    HW121042   1.375   3.009   6.149
 5261HO4    HW221043   1.379   2.971   5.989
 5261HO4     MW21044   1.365   3.045   6.056
 5262HO4     OW21045   5.869   4.119   4.646
 5262HO4    HW121046   5.868   4.143   4.549
 5262HO4    HW221047   5.860   4.203   4.702
 5262HO4     MW21048   5.869   4.119   4.646
 5263HO4     OW21049   4.823   3.817   1.525
 5263HO4    HW121050   4.743   3.783   1.473
 5263HO4    HW221051   4.798   3.827   1.622
 5263HO4     MW21052   4.823   3.817   1.525
 5264HO4     OW21053   7.893   3.278   6.703
 5264HO4    HW121054   7.839   3.315   6.780
 5264HO4    HW221055   7.876   3.333   6.621
 5264HO4     MW21056   7.893   3.278   6.703
 5265HO4     OW21057   1.118   2.170   2.300
 5265HO4    HW121058   1.193   2.170   2.367
 5265HO4    HW221059   1.074   2.080   2.300
 5265HO4     MW21060   1.118   2.170   2.300
 5266HO4     OW21061   7.777   4.828   3.198
 5266HO4    HW121062   7.754   4.826   3.296
 5266HO4    HW221063   7.839   4.752   3.177
 5266HO4     MW21064   7.777   4.828   3.198
 5267HO4     OW21065  10.071   6.236   9.630
 5267HO4    HW121066  10.115   6.185   9.705
 5267HO4    HW221067  10.005   6.176   9.583
 5267HO4     MW21068  10.071   6.236   9.630
 5268HO4     OW21069   6.112   6.001   2.021
 5268HO4    HW121070   6.091   6.037   2.112
 5268HO4    HW221071   6.207   6.023   1.997
 5268HO4     MW21072   6.112   6.001   2.021
 5269HO4     OW21073   4.543   7.274   3.052
 5269HO4    HW121074   4.556   7.318   3.142
 5269HO4    HW221075   4.488   7.334   2.993
 5269HO4     MW21076   4.543   7.274   3.052
 5270HO4     OW21077   7.491   2.646   4.163
 5270HO4    HW121078   7.471   2.732   4.116
 5270HO4    HW221079   7.533   2.665   4.253
 5270HO4     MW21080   7.491   2.646   4.163
 5271HO4     OW21081   5.472   4.813   8.191
 5271HO4    HW121082   5.415   4.831   8.271
 5271HO4    HW221083   5.428   4.852   8.109
 5271HO4     MW21084   5.472   4.813   8.191
 5272HO4     OW21085   2.862  -0.009   2.399
 5272HO4    HW121086   2.769  -0.017   2.438
 5272HO4    HW221087   2.858   0.038   2.311
 5272HO4     MW21088   2.862  -0.009   2.399
 5273HO4     OW21089   5.476   4.617   4.329
 5273HO4    HW121090   5.500   4.712   4.353
 5273HO4    HW221091   5.440   4.615   4.235
 5273HO4     MW21092   5.476   4.617   4.329
 5274HO4     OW21093   0.165   3.020   1.630
 5274HO4    HW121094   0.202   3.017   1.723
 5274HO4    HW221095   0.115   3.106   1.617
 5274HO4     MW21096   0.165   3.020   1.630
 5275HO4     OW21097   0.925   1.175   0.509
 5275HO4    HW121098   0.933   1.223   0.422
 5275HO4    HW221099   0.941   1.240   0.585
 5275HO4     MW21100   0.925   1.175   0.509
 5276HO4     OW21101   3.294   5.974   1.362
 5276HO4    HW121102   3.235   5.945   1.286
 5276HO4    HW221103   3.271   5.919   1.444
 5276HO4     MW21104   3.294   5.974   1.362
 5277HO4     OW21105   9.750   1.950   3.274
 5277HO4    HW121106   9.790   1.979   3.362
 5277HO4    HW221107   9.707   1.860   3.285
 5277HO4     MW21108   9.750   1.950   3.274
 5278HO4     OW21109   3.701   2.408   3.013
 5278HO4    HW121110   3.664   2.444   3.099
 5278HO4    HW221111   3.797   2.436   3.003
 5278HO4     MW21112   3.701   2.408   3.013
 5279HO4     OW21113   0.003   0.211   8.369
 5279HO4    HW121114   0.052   0.148   8.309
 5279HO4    HW221115  -0.045   0.280   8.314
 5279HO4     MW21116   0.003   0.211   8.369
 5280HO4     OW21117   2.378   7.571   2.100
 5280HO4    HW121118   2.439   7.620   2.038
 5280HO4    HW221119   2.433   7.522   2.169
 5280HO4     MW21120   2.378   7.571   2.100
 5281HO4     OW21121   9.695   4.384   2.040
 5281HO4    HW121122   9.752   4.466   2.031
 5281HO4    HW221123   9.752   4.302   2.024
 5281HO4     MW21124   9.695   4.384   2.040
 5282HO4     OW21125   0.032   9.680   8.295
 5282HO4    HW121126  -0.038   9.611   8.277
 5282HO4    HW221127  -0.010   9.771   8.298
 5282HO4     MW21128   0.032   9.680   8.295
 5283HO4     OW21129   6.644   8.129   1.123
 5283HO4    HW121130   6.623   8.215   1.077
 5283HO4    HW221131   6.568   8.064   1.109
 5283HO4     MW21132   6.644   8.129   1.123
 5284HO4     OW21133   4.396   1.907   4.079
 5284HO4    HW121134   4.375   1.875   3.986
 5284HO4    HW221135   4.391   1.830   4.143
 5284HO4     MW21136   4.396   1.907   4.079
 5285HO4     OW21137   3.516   1.682   3.988
 5285HO4    HW121138   3.420   1.655   4.000
 5285HO4    HW221139   3.572   1.600   3.973
 5285HO4     MW21140   3.516   1.682   3.988
 5286HO4     OW21141   6.546   2.830   6.620
 5286HO4    HW121142   6.545   2.766   6.698
 5286HO4    HW221143   6.556   2.779   6.535
 5286HO4     MW21144   6.546   2.830   6.620
 5287HO4     OW21145   8.613   7.425   8.338
 5287HO4    HW121146   8.625   7.385   8.429
 5287HO4    HW221147   8.582   7.354   8.274
 5287HO4     MW21148   8.613   7.425   8.338
 5288HO4     OW21149   4.814   3.155   6.810
 5288HO4    HW121150   4.758   3.087   6.762
 5288HO4    HW221151   4.802   3.245   6.767
 5288HO4     MW21152   4.814   3.155   6.810
 5289HO4     OW21153   3.009   8.953   1.664
 5289HO4    HW121154   3.066   8.928   1.743
 5289HO4    HW221155   3.065   8.954   1.581
 5289HO4     MW21156   3.009   8.953   1.664
 5290HO4     OW21157   8.210   1.007   1.381
 5290HO4    HW121158   8.152   0.944   1.433
 5290HO4    HW221159   8.298   1.018   1.428
 5290HO4     MW21160   8.210   1.007   1.381
 5291HO4     OW21161   8.195   4.296   3.859
 5291HO4    HW121162   8.106   4.293   3.812
 5291HO4    HW221163   8.240   4.207   3.850
 5291HO4     MW21164   8.195   4.296   3.859
 5292HO4     OW21165   8.592   6.005   6.814
 5292HO4    HW121166   8.607   6.095   6.773
 5292HO4    HW221167   8.552   6.016   6.905
 5292HO4     MW21168   8.592   6.005   6.814
 5293HO4     OW21169   0.728   9.470   6.198
 5293HO4    HW121170   0.754   9.433   6.108
 5293HO4    HW221171   0.643   9.523   6.188
 5293HO4     MW21172   0.728   9.470   6.198
 5294HO4     OW21173  10.103   8.614   6.350
 5294HO4    HW121174  10.024   8.638   6.292
 5294HO4    HW221175  10.154   8.697   6.374
 5294HO4     MW21176  10.103   8.614   6.350
 5295HO4     OW21177   7.181   8.034   3.413
 5295HO4    HW121178   7.280   8.053   3.417
 5295HO4    HW221179   7.132   8.119   3.390
 5295HO4     MW21180   7.181   8.034   3.413
 5296HO4     OW21181   3.534   7.292   5.180
 5296HO4    HW121182   3.619   7.321   5.226
 5296HO4    HW221183   3.462   7.359   5.198
 5296HO4     MW21184   3.534   7.292   5.180
 5297HO4     OW21185   6.906   9.975   4.019
 5297HO4    HW121186   6.834  10.042   4.038
 5297HO4    HW221187   6.928   9.974   3.921
 5297HO4     MW21188   6.906   9.975   4.019
 5298HO4     OW21189   2.321   7.205   2.444
 5298HO4    HW121190   2.392   7.187   2.375
 5298HO4    HW221191   2.273   7.289   2.420
 5298HO4     MW21192   2.321   7.205   2.444
 5299HO4     OW21193   3.476   7.514   5.065
 5299HO4    HW121194   3.503   7.558   5.151
 5299HO4    HW221195   3.376   7.507   5.060
 5299HO4     MW21196   3.476   7.514   5.065
 5300HO4     OW21197   1.713  10.075   5.491
 5300HO4    HW121198   1.777  10.056   5.566
 5300HO4    HW221199   1.724  10.007   5.418
 5300HO4     MW21200   1.713  10.075   5.491
 5301HO4     OW21201   0.122   2.105   5.427
 5301HO4    HW121202   0.099   2.198   5.460
 5301HO4    HW221203   0.217   2.105   5.394
 5301HO4     MW21204   0.122   2.105   5.427
 5302HO4     OW21205   7.103   5.091   8.631
 5302HO4    HW121206   7.166   5.105   8.707
 5302HO4    HW221207   7.102   4.993   8.607
 5302HO4     MW21208   7.103   5.091   8.631
 5303HO4     OW21209   9.844   1.734   6.533
 5303HO4    HW121210   9.756   1.764   6.569
 5303HO4    HW221211   9.902   1.702   6.608
 5303HO4     MW21212   9.844   1.734   6.533
 5304HO4     OW21213   7.047   5.266   6.860
 5304HO4    HW121214   7.099   5.235   6.780
 5304HO4    HW221215   7.101   5.248   6.944
 5304HO4     MW21216   7.047   5.266   6.860
 5305HO4     OW21217   5.979   8.234   1.349
 5305HO4    HW121218   6.020   8.201   1.435
 5305HO4    HW221219   5.914   8.165   1.315
 5305HO4     MW21220   5.979   8.234   1.349
 5306HO4     OW21221   6.858   9.799   4.642
 5306HO4    HW121222   6.898   9.881   4.599
 5306HO4    HW221223   6.865   9.808   4.742
 5306HO4     MW21224   6.858   9.799   4.642
 5307HO4     OW21225   7.402   5.992   9.415
 5307HO4    HW121226   7.345   5.931   9.358
 5307HO4    HW221227   7.365   5.994   9.508
 5307HO4     MW21228   7.402   5.992   9.415
 5308HO4     OW21229   0.900   2.794   6.641
 5308HO4    HW121230   0.854   2.749   6.564
 5308HO4    HW221231   0.844   2.784   6.724
 5308HO4     MW21232   0.900   2.794   6.641
 5309HO4     OW21233   0.426   8.961   4.718
 5309HO4    HW121234   0.510   8.954   4.772
 5309HO4    HW221235   0.449   8.986   4.623
 5309HO4     MW21236   0.426   8.961   4.718
 5310HO4     OW21237   4.196   6.322   7.423
 5310HO4    HW121238   4.204   6.336   7.324
 5310HO4    HW221239   4.222   6.407   7.471
 5310HO4     MW21240   4.196   6.322   7.423
 5311HO4     OW21241   6.346   0.261   0.464
 5311HO4    HW121242   6.394   0.340   0.503
 5311HO4    HW221243   6.248   0.281   0.457
 5311HO4     MW21244   6.346   0.261   0.464
 5312HO4     OW21245   4.028   2.760   4.174
 5312HO4    HW121246   4.016   2.666   4.208
 5312HO4    HW221247   3.958   2.819   4.214
 5312HO4     MW21248   4.028   2.760   4.174
 5313HO4     OW21249   6.369   6.985   3.565
 5313HO4    HW121250   6.288   6.974   3.507
 5313HO4    HW221251   6.363   6.921   3.642
 5313HO4     MW21252   6.369   6.985   3.565
 5314HO4     OW21253   7.030   2.772   9.804
 5314HO4    HW121254   7.077   2.697   9.758
 5314HO4    HW221255   6.938   2.742   9.832
 5314HO4     MW21256   7.030   2.772   9.804
 5315HO4     OW21257   2.424   5.278   5.384
 5315HO4    HW121258   2.458   5.372   5.398
 5315HO4    HW221259   2.500   5.213   5.390
 5315HO4     MW21260   2.424   5.278   5.384
 5316HO4     OW21261   6.171   1.883   5.441
 5316HO4    HW121262   6.199   1.976   5.467
 5316HO4    HW221263   6.216   1.816   5.501
 5316HO4     MW21264   6.171   1.883   5.441
 5317HO4     OW21265   2.068   3.973   9.132
 5317HO4    HW121266   2.050   3.896   9.194
 5317HO4    HW221267   2.021   3.957   9.045
 5317HO4     MW21268   2.068   3.973   9.132
 5318HO4     OW21269   8.915   4.763   7.743
 5318HO4    HW121270   8.859   4.735   7.822
 5318HO4    HW221271   8.869   4.735   7.658
 5318HO4     MW21272   8.915   4.763   7.743
 5319HO4     OW21273   1.929   8.426   3.331
 5319HO4    HW121274   1.984   8.376   3.399
 5319HO4    HW221275   1.916   8.368   3.250
 5319HO4     MW21276   1.929   8.426   3.331
 5320HO4     OW21277   9.032   7.635   1.873
 5320HO4    HW121278   8.982   7.636   1.787
 5320HO4    HW221279   8.986   7.575   1.939
 5320HO4     MW21280   9.032   7.635   1.873
 5321HO4     OW21281   4.175   8.805  10.087
 5321HO4    HW121282   4.101   8.786  10.023
 5321HO4    HW221283   4.158   8.756  10.174
 5321HO4     MW21284   4.175   8.805  10.087
 5322HO4     OW21285   1.363   5.071   3.411
 5322HO4    HW121286   1.372   5.160   3.364
 5322HO4    HW221287   1.270   5.062   3.447
 5322HO4     MW21288   1.363   5.071   3.411
 5323HO4     OW21289   1.809   8.077   9.091
 5323HO4    HW121290   1.710   8.063   9.103
 5323HO4    HW221291   1.857   7.990   9.107
 5323HO4     MW21292   1.809   8.077   9.091
 5324HO4     OW21293   5.722   5.684   7.296
 5324HO4    HW121294   5.681   5.775   7.306
 5324HO4    HW221295   5.756   5.672   7.202
 5324HO4     MW21296   5.722   5.684   7.296
 5325HO4     OW21297   6.804   5.618   2.277
 5325HO4    HW121298   6.882   5.555   2.280
 5325HO4    HW221299   6.754   5.613   2.365
 5325HO4     MW21300   6.804   5.618   2.277
 5326HO4     OW21301   9.399   2.224   1.152
 5326HO4    HW121302   9.339   2.301   1.130
 5326HO4    HW221303   9.475   2.221   1.087
 5326HO4     MW21304   9.399   2.224   1.152
 5327HO4     OW21305   6.229   9.888   9.335
 5327HO4    HW121306   6.284   9.906   9.253
 5327HO4    HW221307   6.284   9.906   9.417
 5327HO4     MW21308   6.229   9.888   9.335
 5328HO4     OW21309   3.586   2.884   7.999
 5328HO4    HW121310   3.586   2.851   8.094
 5328HO4    HW221311   3.525   2.827   7.943
 5328HO4     MW21312   3.586   2.884   7.999
 5329HO4     OW21313   9.300   4.076   8.065
 5329HO4    HW121314   9.356   4.028   8.133
 5329HO4    HW221315   9.224   4.017   8.036
 5329HO4     MW21316   9.300   4.076   8.065
 5330HO4     OW21317   9.199   2.322   4.702
 5330HO4    HW121318   9.172   2.241   4.755
 5330HO4    HW221319   9.235   2.392   4.765
 5330HO4     MW21320   9.199   2.322   4.702
 5331HO4     OW21321   9.588   8.219   9.029
 5331HO4    HW121322   9.532   8.208   8.946
 5331HO4    HW221323   9.532   8.203   9.110
 5331HO4     MW21324   9.588   8.219   9.029
 5332HO4     OW21325   3.245   9.771   5.554
 5332HO4    HW121326   3.225   9.716   5.473
 5332HO4    HW221327   3.171   9.762   5.621
 5332HO4     MW21328   3.245   9.771   5.554
 5333HO4     OW21329   5.186   3.011   5.612
 5333HO4    HW121330   5.177   3.048   5.519
 5333HO4    HW221331   5.216   3.084   5.674
 5333HO4     MW21332   5.186   3.011   5.612
 5334HO4     OW21333   2.502   8.720   7.413
 5334HO4    HW121334   2.542   8.777   7.342
 5334HO4    HW221335   2.572   8.697   7.482
 5334HO4     MW21336   2.502   8.720   7.413
 5335HO4     OW21337   3.922   8.993   0.442
 5335HO4    HW121338   3.864   8.969   0.363
 5335HO4    HW221339   3.948   8.909   0.491
 5335HO4     MW21340   3.922   8.993   0.442
 5336HO4     OW21341   3.198   7.514   7.488
 5336HO4    HW121342   3.132   7.509   7.412
 5336HO4    HW221343   3.281   7.562   7.457
 5336HO4     MW21344   3.198   7.514   7.488
 5337HO4     OW21345   8.774   7.141   8.007
 5337HO4    HW121346   8.796   7.066   7.945
 5337HO4    HW221347   8.845   7.150   8.077
 5337HO4     MW21348   8.774   7.141   8.007
 5338HO4     OW21349   0.173   5.636   5.748
 5338HO4    HW121350   0.265   5.619   5.712
 5338HO4    HW221351   0.178   5.707   5.819
 5338HO4     MW21352   0.173   5.636   5.748
 5339HO4     OW21353   1.246   3.833   0.075
 5339HO4    HW121354   1.320   3.789   0.128
 5339HO4    HW221355   1.239   3.789  -0.015
 5339HO4     MW21356   1.246   3.833   0.075
 5340HO4     OW21357   0.534   4.084   2.337
 5340HO4    HW121358   0.569   4.040   2.254
 5340HO4    HW221359   0.571   4.038   2.418
 5340HO4     MW21360   0.534   4.084   2.337
 5341HO4     OW21361   7.435   3.004   8.155
 5341HO4    HW121362   7.338   3.006   8.180
 5341HO4    HW221363   7.462   2.909   8.135
 5341HO4     MW21364   7.435   3.004   8.155
 5342HO4     OW21365   2.656   0.861   3.644
 5342HO4    HW121366   2.608   0.945   3.672
 5342HO4    HW221367   2.595   0.806   3.585
 5342HO4     MW21368   2.656   0.861   3.644
 5343HO4     OW21369   3.600   8.130   4.537
 5343HO4    HW121370   3.595   8.057   4.468
 5343HO4    HW221371   3.543   8.106   4.616
 5343HO4     MW21372   3.600   8.130   4.537
 5344HO4     OW21373   7.965   4.205   0.828
 5344HO4    HW121374   7.973   4.208   0.728
 5344HO4    HW221375   7.885   4.258   0.856
 5344HO4     MW21376   7.965   4.205   0.828
 5345HO4     OW21377   2.981   9.435   5.510
 5345HO4    HW121378   3.028   9.438   5.421
 5345HO4    HW221379   3.049   9.425   5.584
 5345HO4     MW21380   2.981   9.435   5.510
 5346HO4     OW21381   7.195   6.235   2.353
 5346HO4    HW121382   7.171   6.308   2.417
 5346HO4    HW221383   7.116   6.214   2.295
 5346HO4     MW21384   7.195   6.235   2.353
 5347HO4     OW21385   2.981   2.752   8.265
 5347HO4    HW121386   2.951   2.846   8.284
 5347HO4    HW221387   2.912   2.706   8.208
 5347HO4     MW21388   2.981   2.752   8.265
 5348HO4     OW21389   8.862   5.938   8.640
 5348HO4    HW121390   8.793   5.924   8.568
 5348HO4    HW221391   8.821   5.916   8.730
 5348HO4     MW21392   8.862   5.938   8.640
 5349HO4     OW21393   2.846   9.475   8.435
 5349HO4    HW121394   2.860   9.508   8.341
 5349HO4    HW221395   2.863   9.550   8.499
 5349HO4     MW21396   2.846   9.475   8.435
 5350HO4     OW21397   6.882  10.011   2.147
 5350HO4    HW121398   6.908  10.082   2.214
 5350HO4    HW221399   6.964   9.959   2.120
 5350HO4     MW21400   6.882  10.011   2.147
 5351HO4     OW21401   7.007   0.277   0.939
 5351HO4    HW121402   7.033   0.374   0.941
 5351HO4    HW221403   6.915   0.266   0.978
 5351HO4     MW21404   7.007   0.277   0.939
 5352HO4     OW21405   1.863   9.528   6.845
 5352HO4    HW121406   1.952   9.496   6.879
 5352HO4    HW221407   1.876   9.582   6.761
 5352HO4     MW21408   1.863   9.528   6.845
 5353HO4     OW21409   0.232   2.293   6.606
 5353HO4    HW121410   0.188   2.283   6.516
 5353HO4    HW221411   0.288   2.376   6.607
 5353HO4     MW21412   0.232   2.293   6.606
 5354HO4     OW21413   6.297   8.972   8.392
 5354HO4    HW121414   6.347   8.888   8.369
 5354HO4    HW221415   6.362   9.046   8.410
 5354HO4     MW21416   6.297   8.972   8.392
 5355HO4     OW21417   0.710   7.357   3.649
 5355HO4    HW121418   0.680   7.416   3.725
 5355HO4    HW221419   0.664   7.385   3.565
 5355HO4     MW21420   0.710   7.357   3.649
 5356HO4     OW21421   1.606   3.092   9.437
 5356HO4    HW121422   1.655   3.179   9.424
 5356HO4    HW221423   1.516   3.111   9.478
 5356HO4     MW21424   1.606   3.092   9.437
 5357HO4     OW21425   7.451   1.959   3.722
 5357HO4    HW121426   7.534   1.952   3.666
 5357HO4    HW221427   7.477   1.961   3.819
 5357HO4     MW21428   7.451   1.959   3.722
 5358HO4     OW21429   1.017   0.930   0.667
 5358HO4    HW121430   0.997   1.026   0.687
 5358HO4    HW221431   0.933   0.876   0.678
 5358HO4     MW21432   1.017   0.930   0.667
 5359HO4     OW21433   2.542   4.058   2.242
 5359HO4    HW121434   2.630   4.092   2.206
 5359HO4    HW221435   2.524   4.102   2.331
 5359HO4     MW21436   2.542   4.058   2.242
 5360HO4     OW21437   8.648   6.047   3.520
 5360HO4    HW121438   8.566   6.060   3.462
 5360HO4    HW221439   8.696   6.135   3.529
 5360HO4     MW21440   8.648   6.047   3.520
 5361HO4     OW21441   3.865   3.832   1.192
 5361HO4    HW121442   3.863   3.766   1.116
 5361HO4    HW221443   3.937   3.900   1.176
 5361HO4     MW21444   3.865   3.832   1.192
 5362HO4     OW21445   7.421   6.696   4.968
 5362HO4    HW121446   7.403   6.662   5.061
 5362HO4    HW221447   7.389   6.791   4.961
 5362HO4     MW21448   7.421   6.696   4.968
 5363HO4     OW21449   4.390  10.133   6.635
 5363HO4    HW121450   4.373  10.059   6.569
 5363HO4    HW221451   4.416  10.093   6.723
 5363HO4     MW21452   4.390  10.133   6.635
 5364HO4     OW21453   8.251   5.377   2.090
 5364HO4    HW121454   8.195   5.355   2.010
 5364HO4    HW221455   8.262   5.477   2.097
 5364HO4     MW21456   8.251   5.377   2.090
 5365HO4     OW21457   5.935   4.014   7.208
 5365HO4    HW121458   5.970   4.075   7.279
 5365HO4    HW221459   6.009   3.989   7.145
 5365HO4     MW21460   5.935   4.014   7.208
 5366HO4     OW21461   3.394   9.470   2.920
 5366HO4    HW121462   3.424   9.490   3.014
 5366HO4    HW221463   3.295   9.458   2.918
 5366HO4     MW21464   3.394   9.470   2.920
 5367HO4     OW21465   7.899   3.678   7.436
 5367HO4    HW121466   7.954   3.594   7.433
 5367HO4    HW221467   7.916   3.726   7.523
 5367HO4     MW21468   7.899   3.678   7.436
 5368HO4     OW21469   2.999   0.474   5.187
 5368HO4    HW121470   2.905   0.461   5.219
 5368HO4    HW221471   3.000   0.478   5.087
 5368HO4     MW21472   2.999   0.474   5.187
 5369HO4     OW21473   6.469   4.987   9.604
 5369HO4    HW121474   6.424   4.902   9.636
 5369HO4    HW221475   6.441   5.006   9.510
 5369HO4     MW21476   6.469   4.987   9.604
 5370HO4     OW21477   2.244   5.886   5.854
 5370HO4    HW121478   2.291   5.911   5.769
 5370HO4    HW221479   2.259   5.958   5.922
 5370HO4     MW21480   2.244   5.886   5.854
 5371HO4     OW21481   5.788   7.006   8.400
 5371HO4    HW121482   5.856   6.950   8.448
 5371HO4    HW221483   5.797   7.102   8.429
 5371HO4     MW21484   5.788   7.006   8.400
 5372HO4     OW21485   7.377   1.931   7.655
 5372HO4    HW121486   7.408   1.883   7.737
 5372HO4    HW221487   7.431   1.901   7.576
 5372HO4     MW21488   7.377   1.931   7.655
 5373HO4     OW21489   6.488   4.373   2.177
 5373HO4    HW121490   6.410   4.373   2.241
 5373HO4    HW221491   6.469   4.437   2.102
 5373HO4     MW21492   6.488   4.373   2.177
 5374HO4     OW21493   1.554   1.151   8.497
 5374HO4    HW121494   1.483   1.083   8.480
 5374HO4    HW221495   1.553   1.178   8.594
 5374HO4     MW21496   1.554   1.151   8.497
 5375HO4     OW21497   5.820   7.818   6.891
 5375HO4    HW121498   5.891   7.767   6.841
 5375HO4    HW221499   5.862   7.899   6.934
 5375HO4     MW21500   5.820   7.818   6.891
 5376HO4     OW21501   1.512   4.628   5.956
 5376HO4    HW121502   1.543   4.683   6.034
 5376HO4    HW221503   1.555   4.662   5.872
 5376HO4     MW21504   1.512   4.628   5.956
 5377HO4     OW21505   1.253   5.129   5.098
 5377HO4    HW121506   1.259   5.191   5.019
 5377HO4    HW221507   1.286   5.177   5.180
 5377HO4     MW21508   1.253   5.129   5.098
 5378HO4     OW21509   2.787   7.975   4.086
 5378HO4    HW121510   2.849   7.957   4.010
 5378HO4    HW221511   2.812   8.061   4.131
 5378HO4     MW21512   2.787   7.975   4.086
 5379HO4     OW21513   9.493   4.007   8.692
 5379HO4    HW121514   9.562   3.944   8.654
 5379HO4    HW221515   9.426   3.955   8.746
 5379HO4     MW21516   9.493   4.007   8.692
 5380HO4     OW21517   2.425   7.955   2.488
 5380HO4    HW121518   2.473   7.935   2.402
 5380HO4    HW221519   2.482   7.926   2.565
 5380HO4     MW21520   2.425   7.955   2.488
 5381HO4     OW21521   4.921   8.260   1.003
 5381HO4    HW121522   5.005   8.204   1.008
 5381HO4    HW221523   4.895   8.271   0.907
 5381HO4     MW21524   4.921   8.260   1.003
 5382HO4     OW21525   2.801   5.753   1.392
 5382HO4    HW121526   2.759   5.665   1.417
 5382HO4    HW221527   2.786   5.819   1.466
 5382HO4     MW21528   2.801   5.753   1.392
 5383HO4     OW21529   2.652   9.407   0.565
 5383HO4    HW121530   2.628   9.384   0.470
 5383HO4    HW221531   2.720   9.481   0.564
 5383HO4     MW21532   2.652   9.407   0.565
 5384HO4     OW21533   6.612   5.579   7.400
 5384HO4    HW121534   6.693   5.519   7.393
 5384HO4    HW221535   6.575   5.596   7.308
 5384HO4     MW21536   6.612   5.579   7.400
 5385HO4     OW21537   4.542   2.888  -0.011
 5385HO4    HW121538   4.619   2.826  -0.032
 5385HO4    HW221539   4.497   2.859   0.073
 5385HO4     MW21540   4.542   2.888  -0.011
 5386HO4     OW21541   7.775   7.367   5.985
 5386HO4    HW121542   7.810   7.433   6.051
 5386HO4    HW221543   7.674   7.367   5.987
 5386HO4     MW21544   7.775   7.367   5.985
 5387HO4     OW21545   4.485   1.138   6.729
 5387HO4    HW121546   4.483   1.038   6.718
 5387HO4    HW221547   4.481   1.161   6.827
 5387HO4     MW21548   4.485   1.138   6.729
 5388HO4     OW21549   3.093   3.533   6.975
 5388HO4    HW121550   3.053   3.514   7.065
 5388HO4    HW221551   3.156   3.611   6.982
 5388HO4     MW21552   3.093   3.533   6.975
 5389HO4     OW21553   1.499   4.902   9.506
 5389HO4    HW121554   1.473   4.906   9.603
 5389HO4    HW221555   1.420   4.925   9.449
 5389HO4     MW21556   1.499   4.902   9.506
 5390HO4     OW21557   6.685   3.992   9.810
 5390HO4    HW121558   6.623   4.018   9.735
 5390HO4    HW221559   6.650   4.029   9.897
 5390HO4     MW21560   6.685   3.992   9.810
 5391HO4     OW21561   6.724   4.697   4.897
 5391HO4    HW121562   6.749   4.670   4.990
 5391HO4    HW221563   6.780   4.775   4.869
 5391HO4     MW21564   6.724   4.697   4.897
 5392HO4     OW21565   6.530   3.368   8.116
 5392HO4    HW121566   6.506   3.422   8.197
 5392HO4    HW221567   6.542   3.428   8.037
 5392HO4     MW21568   6.530   3.368   8.116
 5393HO4     OW21569   1.871   3.569   4.036
 5393HO4    HW121570   1.777   3.557   4.068
 5393HO4    HW221571   1.885   3.663   4.003
 5393HO4     MW21572   1.871   3.569   4.036
 5394HO4     OW21573   9.468   1.852   1.574
 5394HO4    HW121574   9.509   1.808   1.493
 5394HO4    HW221575   9.415   1.783   1.625
 5394HO4     MW21576   9.468   1.852   1.574
 5395HO4     OW21577   8.361   2.094   9.237
 5395HO4    HW121578   8.358   2.021   9.167
 5395HO4    HW221579   8.366   2.052   9.328
 5395HO4     MW21580   8.361   2.094   9.237
 5396HO4     OW21581   0.228   5.921   7.963
 5396HO4    HW121582   0.134   5.936   7.993
 5396HO4    HW221583   0.228   5.883   7.870
 5396HO4     MW21584   0.228   5.921   7.963
 5397HO4     OW21585   6.923   2.650   8.086
 5397HO4    HW121586   7.020   2.638   8.060
 5397HO4    HW221587   6.914   2.638   8.186
 5397HO4     MW21588   6.923   2.650   8.086
 5398HO4     OW21589   0.712   7.487   4.574
 5398HO4    HW121590   0.707   7.430   4.656
 5398HO4    HW221591   0.778   7.446   4.509
 5398HO4     MW21592   0.712   7.487   4.574
 5399HO4     OW21593   5.316   6.841   0.679
 5399HO4    HW121594   5.270   6.818   0.766
 5399HO4    HW221595   5.392   6.778   0.664
 5399HO4     MW21596   5.316   6.841   0.679
 5400HO4     OW21597   2.748   2.760   2.539
 5400HO4    HW121598   2.672   2.717   2.589
 5400HO4    HW221599   2.744   2.732   2.443
 5400HO4     MW21600   2.748   2.760   2.539
 5401HO4     OW21601   7.761   0.112   6.231
 5401HO4    HW121602   7.671   0.151   6.209
 5401HO4    HW221603   7.766   0.090   6.329
 5401HO4     MW21604   7.761   0.112   6.231
 5402HO4     OW21605   3.814   2.034   6.062
 5402HO4    HW121606   3.816   2.007   5.965
 5402HO4    HW221607   3.730   2.000   6.105
 5402HO4     MW21608   3.814   2.034   6.062
 5403HO4     OW21609   5.695   9.755   6.878
 5403HO4    HW121610   5.641   9.683   6.922
 5403HO4    HW221611   5.633   9.822   6.835
 5403HO4     MW21612   5.695   9.755   6.878
 5404HO4     OW21613   9.387  10.075   0.584
 5404HO4    HW121614   9.339  10.126   0.656
 5404HO4    HW221615   9.424  10.140   0.516
 5404HO4     MW21616   9.387  10.075   0.584
 5405HO4     OW21617   9.816   0.431   3.785
 5405HO4    HW121618   9.761   0.438   3.700
 5405HO4    HW221619   9.861   0.519   3.803
 5405HO4     MW21620   9.816   0.431   3.785
 5406HO4     OW21621   5.657   2.861  10.184
 5406HO4    HW121622   5.684   2.917  10.105
 5406HO4    HW221623   5.566   2.821  10.167
 5406HO4     MW21624   5.657   2.861  10.184
 5407HO4     OW21625   8.669   7.037   9.885
 5407HO4    HW121626   8.710   7.127   9.899
 5407HO4    HW221627   8.694   6.976   9.961
 5407HO4     MW21628   8.669   7.037   9.885
 5408HO4     OW21629   0.603   9.739   4.196
 5408HO4    HW121630   0.626   9.747   4.098
 5408HO4    HW221631   0.639   9.653   4.232
 5408HO4     MW21632   0.603   9.739   4.196
 5409HO4     OW21633   3.890   6.068   9.995
 5409HO4    HW121634   3.845   5.985   9.960
 5409HO4    HW221635   3.982   6.045  10.026
 5409HO4     MW21636   3.890   6.068   9.995
 5410HO4     OW21637   7.061   4.187   4.772
 5410HO4    HW121638   7.132   4.203   4.703
 5410HO4    HW221639   7.008   4.106   4.747
 5410HO4     MW21640   7.061   4.187   4.772
 5411HO4     OW21641   9.384   7.578   7.408
 5411HO4    HW121642   9.345   7.507   7.348
 5411HO4    HW221643   9.395   7.663   7.357
 5411HO4     MW21644   9.384   7.578   7.408
 5412HO4     OW21645   4.179   8.297   2.324
 5412HO4    HW121646   4.232   8.268   2.404
 5412HO4    HW221647   4.238   8.298   2.243
 5412HO4     MW21648   4.179   8.297   2.324
 5413HO4     OW21649   1.660   1.562   1.740
 5413HO4    HW121650   1.636   1.469   1.709
 5413HO4    HW221651   1.658   1.625   1.663
 5413HO4     MW21652   1.660   1.562   1.740
 5414HO4     OW21653   6.584   2.495   7.426
 5414HO4    HW121654   6.679   2.526   7.433
 5414HO4    HW221655   6.570   2.449   7.337
 5414HO4     MW21656   6.584   2.495   7.426
 5415HO4     OW21657   0.469   2.344   7.548
 5415HO4    HW121658   0.388   2.360   7.604
 5415HO4    HW221659   0.451   2.375   7.454
 5415HO4     MW21660   0.469   2.344   7.548
 5416HO4     OW21661   9.505   6.921   3.616
 5416HO4    HW121662   9.560   6.993   3.659
 5416HO4    HW221663   9.408   6.937   3.636
 5416HO4     MW21664   9.505   6.921   3.616
 5417HO4     OW21665   3.838   1.793   1.240
 5417HO4    HW121666   3.798   1.885   1.247
 5417HO4    HW221667   3.823   1.744   1.326
 5417HO4     MW21668   3.838   1.793   1.240
 5418HO4     OW21669   3.981   8.941   6.253
 5418HO4    HW121670   3.937   8.884   6.183
 5418HO4    HW221671   3.933   8.930   6.341
 5418HO4     MW21672   3.981   8.941   6.253
 5419HO4     OW21673   7.436   6.226   2.506
 5419HO4    HW121674   7.517   6.211   2.448
 5419HO4    HW221675   7.395   6.137   2.530
 5419HO4     MW21676   7.436   6.226   2.506
 5420HO4     OW21677   5.347   1.412   6.899
 5420HO4    HW121678   5.360   1.357   6.817
 5420HO4    HW221679   5.358   1.355   6.981
 5420HO4     MW21680   5.347   1.412   6.899
 5421HO4     OW21681   0.360   8.750   7.707
 5421HO4    HW121682   0.379   8.804   7.790
 5421HO4    HW221683   0.377   8.806   7.626
 5421HO4     MW21684   0.360   8.750   7.707
 5422HO4     OW21685   7.541   2.281   1.434
 5422HO4    HW121686   7.585   2.275   1.344
 5422HO4    HW221687   7.593   2.227   1.500
 5422HO4     MW21688   7.541   2.281   1.434
 5423HO4     OW21689   0.175   4.147   8.494
 5423HO4    HW121690   0.258   4.117   8.446
 5423HO4    HW221691   0.193   4.156   8.592
 5423HO4     MW21692   0.175   4.147   8.494
 5424HO4     OW21693   5.519   4.681   9.572
 5424HO4    HW121694   5.451   4.618   9.612
 5424HO4    HW221695   5.555   4.641   9.488
 5424HO4     MW21696   5.519   4.681   9.572
 5425HO4     OW21697   4.745   4.083   6.103
 5425HO4    HW121698   4.764   4.123   6.193
 5425HO4    HW221699   4.649   4.055   6.099
 5425HO4     MW21700   4.745   4.083   6.103
 5426HO4     OW21701   8.441   8.747   0.625
 5426HO4    HW121702   8.487   8.661   0.649
 5426HO4    HW221703   8.470   8.776   0.533
 5426HO4     MW21704   8.441   8.747   0.625
 5427HO4     OW21705   5.461   0.246   1.811
 5427HO4    HW121706   5.553   0.260   1.848
 5427HO4    HW221707   5.395   0.239   1.886
 5427HO4     MW21708   5.461   0.246   1.811
 5428HO4     OW21709  10.119   1.754   9.532
 5428HO4    HW121710  10.076   1.711   9.612
 5428HO4    HW221711  10.060   1.740   9.452
 5428HO4     MW21712  10.119   1.754   9.532
 5429HO4     OW21713   2.881   2.362   6.402
 5429HO4    HW121714   2.799   2.305   6.417
 5429HO4    HW221715   2.863   2.455   6.433
 5429HO4     MW21716   2.881   2.362   6.402
 5430HO4     OW21717   1.713   1.037   5.173
 5430HO4    HW121718   1.642   1.088   5.124
 5430HO4    HW221719   1.766   0.982   5.107
 5430HO4     MW21720   1.713   1.037   5.173
 5431HO4     OW21721   3.327   0.228   5.884
 5431HO4    HW121722   3.347   0.167   5.961
 5431HO4    HW221723   3.300   0.318   5.919
 5431HO4     MW21724   3.327   0.228   5.884
 5432HO4     OW21725   9.997   0.844   8.897
 5432HO4    HW121726   9.955   0.799   8.977
 5432HO4    HW221727   9.957   0.805   8.813
 5432HO4     MW21728   9.997   0.844   8.897
 5433HO4     OW21729   9.646   1.567   4.705
 5433HO4    HW121730   9.592   1.633   4.651
 5433HO4    HW221731   9.726   1.613   4.744
 5433HO4     MW21732   9.646   1.567   4.705
 5434HO4     OW21733   0.157   4.060   0.654
 5434HO4    HW121734   0.178   3.967   0.686
 5434HO4    HW221735   0.164   4.064   0.554
 5434HO4     MW21736   0.157   4.060   0.654
 5435HO4     OW21737   9.002   7.502   4.308
 5435HO4    HW121738   8.911   7.528   4.343
 5435HO4    HW221739   9.032   7.570   4.240
 5435HO4     MW21740   9.002   7.502   4.308
 5436HO4     OW21741   5.069   6.202   4.398
 5436HO4    HW121742   5.062   6.130   4.328
 5436HO4    HW221743   4.998   6.271   4.383
 5436HO4     MW21744   5.069   6.202   4.398
 5437HO4     OW21745   1.678   0.241   3.843
 5437HO4    HW121746   1.632   0.297   3.773
 5437HO4    HW221747   1.712   0.156   3.800
 5437HO4     MW21748   1.678   0.241   3.843
 5438HO4     OW21749   1.133   6.729   4.498
 5438HO4    HW121750   1.131   6.669   4.418
 5438HO4    HW221751   1.126   6.673   4.582
 5438HO4     MW21752   1.133   6.729   4.498
 5439HO4     OW21753   8.696   8.479   7.454
 5439HO4    HW121754   8.698   8.388   7.412
 5439HO4    HW221755   8.606   8.494   7.497
 5439HO4     MW21756   8.696   8.479   7.454
 5440HO4     OW21757   3.707   7.149   5.848
 5440HO4    HW121758   3.614   7.137   5.883
 5440HO4    HW221759   3.755   7.219   5.903
 5440HO4     MW21760   3.707   7.149   5.848
 5441HO4     OW21761   7.664   0.637   2.766
 5441HO4    HW121762   7.577   0.606   2.806
 5441HO4    HW221763   7.714   0.691   2.833
 5441HO4     MW21764   7.664   0.637   2.766
 5442HO4     OW21765   9.404   2.352   3.155
 5442HO4    HW121766   9.361   2.364   3.065
 5442HO4    HW221767   9.333   2.334   3.224
 5442HO4     MW21768   9.404   2.352   3.155
 5443HO4     OW21769   5.946   9.713   3.607
 5443HO4    HW121770   5.912   9.744   3.518
 5443HO4    HW221771   6.046   9.711   3.606
 5443HO4     MW21772   5.946   9.713   3.607
 5444HO4     OW21773   4.046   3.999   7.843
 5444HO4    HW121774   4.020   3.903   7.840
 5444HO4    HW221775   3.995   4.050   7.772
 5444HO4     MW21776   4.046   3.999   7.843
 5445HO4     OW21777   0.369   9.438   1.871
 5445HO4    HW121778   0.390   9.513   1.807
 5445HO4    HW221779   0.345   9.356   1.818
 5445HO4     MW21780   0.369   9.438   1.871
 5446HO4     OW21781   5.505   2.461   6.093
 5446HO4    HW121782   5.444   2.493   6.167
 5446HO4    HW221783   5.469   2.491   6.005
 5446HO4     MW21784   5.505   2.461   6.093
 5447HO4     OW21785   5.806   6.078   2.033
 5447HO4    HW121786   5.784   6.018   1.956
 5447HO4    HW221787   5.750   6.053   2.112
 5447HO4     MW21788   5.806   6.078   2.033
 5448HO4     OW21789   8.021   9.148   5.930
 5448HO4    HW121790   8.092   9.090   5.889
 5448HO4    HW221791   7.997   9.221   5.866
 5448HO4     MW21792   8.021   9.148   5.930
 5449HO4     OW21793   2.665   7.524   6.470
 5449HO4    HW121794   2.663   7.458   6.394
 5449HO4    HW221795   2.670   7.475   6.557
 5449HO4     MW21796   2.665   7.524   6.470
 5450HO4     OW21797   8.598   8.357   4.128
 5450HO4    HW121798   8.624   8.350   4.225
 5450HO4    HW221799   8.676   8.387   4.073
 5450HO4     MW21800   8.598   8.357   4.128
 5451HO4     OW21801   1.623   1.392   9.333
 5451HO4    HW121802   1.619   1.485   9.298
 5451HO4    HW221803   1.711   1.350   9.307
 5451HO4     MW21804   1.623   1.392   9.333
 5452HO4     OW21805   5.474   3.757   8.371
 5452HO4    HW121806   5.550   3.791   8.427
 5452HO4    HW221807   5.488   3.783   8.275
 5452HO4     MW21808   5.474   3.757   8.371
 5453HO4     OW21809   3.405   6.240   2.024
 5453HO4    HW121810   3.317   6.217   2.067
 5453HO4    HW221811   3.478   6.237   2.093
 5453HO4     MW21812   3.405   6.240   2.024
 5454HO4     OW21813   3.858   0.185   7.146
 5454HO4    HW121814   3.870   0.234   7.059
 5454HO4    HW221815   3.856   0.252   7.222
 5454HO4     MW21816   3.858   0.185   7.146
 5455HO4     OW21817   0.916   5.473   3.831
 5455HO4    HW121818   0.976   5.502   3.756
 5455HO4    HW221819   0.972   5.455   3.913
 5455HO4     MW21820   0.916   5.473   3.831
 5456HO4     OW21821   1.870   4.248   8.234
 5456HO4    HW121822   1.897   4.271   8.328
 5456HO4    HW221823   1.770   4.246   8.227
 5456HO4     MW21824   1.870   4.248   8.234
 5457HO4     OW21825   0.055   6.580   1.846
 5457HO4    HW121826   0.047   6.523   1.764
 5457HO4    HW221827   0.014   6.533   1.924
 5457HO4     MW21828   0.055   6.580   1.846
 5458HO4     OW21829   0.785   9.247   4.159
 5458HO4    HW121830   0.691   9.281   4.169
 5458HO4    HW221831   0.847   9.325   4.144
 5458HO4     MW21832   0.785   9.247   4.159
 5459HO4     OW21833   8.181   2.080   1.932
 5459HO4    HW121834   8.128   2.081   1.846
 5459HO4    HW221835   8.124   2.117   2.006
 5459HO4     MW21836   8.181   2.080   1.932
 5460HO4     OW21837  10.003   6.945   0.362
 5460HO4    HW121838   9.949   6.876   0.314
 5460HO4    HW221839   9.956   6.971   0.447
 5460HO4     MW21840  10.003   6.945   0.362
 5461HO4     OW21841   9.918   6.208   6.788
 5461HO4    HW121842  10.017   6.215   6.777
 5461HO4    HW221843   9.886   6.120   6.752
 5461HO4     MW21844   9.918   6.208   6.788
 5462HO4     OW21845   8.276   6.660   2.428
 5462HO4    HW121846   8.254   6.634   2.522
 5462HO4    HW221847   8.272   6.760   2.419
 5462HO4     MW21848   8.276   6.660   2.428
 5463HO4     OW21849   6.999   3.466   8.968
 5463HO4    HW121850   7.009   3.566   8.958
 5463HO4    HW221851   6.980   3.444   9.064
 5463HO4     MW21852   6.999   3.466   8.968
 5464HO4     OW21853   4.486   3.609   5.977
 5464HO4    HW121854   4.508   3.670   5.900
 5464HO4    HW221855   4.417   3.542   5.947
 5464HO4     MW21856   4.486   3.609   5.977
 5465HO4     OW21857   7.652   3.174   9.182
 5465HO4    HW121858   7.612   3.163   9.274
 5465HO4    HW221859   7.614   3.257   9.139
 5465HO4     MW21860   7.652   3.174   9.182
 5466HO4     OW21861   7.345   5.526   9.548
 5466HO4    HW121862   7.405   5.458   9.590
 5466HO4    HW221863   7.344   5.513   9.448
 5466HO4     MW21864   7.345   5.526   9.548
 5467HO4     OW21865   8.705   5.359   4.408
 5467HO4    HW121866   8.610   5.392   4.398
 5467HO4    HW221867   8.707   5.259   4.399
 5467HO4     MW21868   8.705   5.359   4.408
 5468HO4     OW21869   4.253   1.177   1.906
 5468HO4    HW121870   4.293   1.189   1.814
 5468HO4    HW221871   4.327   1.171   1.974
 5468HO4     MW21872   4.253   1.177   1.906
 5469HO4     OW21873   3.645   0.217   8.938
 5469HO4    HW121874   3.561   0.189   8.984
 5469HO4    HW221875   3.718   0.151   8.959
 5469HO4     MW21876   3.645   0.217   8.938
 5470HO4     OW21877   4.498   4.225   7.258
 5470HO4    HW121878   4.425   4.170   7.300
 5470HO4    HW221879   4.582   4.217   7.312
 5470HO4     MW21880   4.498   4.225   7.258
 5471HO4     OW21881   7.668   7.561   1.976
 5471HO4    HW121882   7.662   7.551   2.075
 5471HO4    HW221883   7.582   7.599   1.941
 5471HO4     MW21884   7.668   7.561   1.976
 5472HO4     OW21885   8.683   2.630   1.609
 5472HO4    HW121886   8.654   2.644   1.514
 5472HO4    HW221887   8.614   2.667   1.671
 5472HO4     MW21888   8.683   2.630   1.609
 5473HO4     OW21889   1.787   5.410   8.546
 5473HO4    HW121890   1.789   5.453   8.637
 5473HO4    HW221891   1.832   5.469   8.480
 5473HO4     MW21892   1.787   5.410   8.546
 5474HO4     OW21893   6.119   4.634   2.180
 5474HO4    HW121894   6.175   4.611   2.099
 5474HO4    HW221895   6.166   4.601   2.263
 5474HO4     MW21896   6.119   4.634   2.180
 5475HO4     OW21897   3.473   3.369   9.203
 5475HO4    HW121898   3.545   3.345   9.269
 5475HO4    HW221899   3.446   3.465   9.218
 5475HO4     MW21900   3.473   3.369   9.203
 5476HO4     OW21901   2.420   4.170   8.024
 5476HO4    HW121902   2.510   4.198   8.057
 5476HO4    HW221903   2.370   4.250   7.990
 5476HO4     MW21904   2.420   4.170   8.024
 5477HO4     OW21905   7.734   2.510   6.855
 5477HO4    HW121906   7.788   2.522   6.771
 5477HO4    HW221907   7.792   2.475   6.928
 5477HO4     MW21908   7.734   2.510   6.855
 5478HO4     OW21909   4.566   7.473   9.665
 5478HO4    HW121910   4.630   7.499   9.737
 5478HO4    HW221911   4.523   7.555   9.626
 5478HO4     MW21912   4.566   7.473   9.665
 5479HO4     OW21913   6.705   7.953   8.542
 5479HO4    HW121914   6.731   7.884   8.610
 5479HO4    HW221915   6.757   7.937   8.457
 5479HO4     MW21916   6.705   7.953   8.542
 5480HO4     OW21917   6.924   3.233   4.884
 5480HO4    HW121918   6.884   3.325   4.881
 5480HO4    HW221919   6.904   3.191   4.973
 5480HO4     MW21920   6.924   3.233   4.884
 5481HO4     OW21921   8.113   9.704   4.429
 5481HO4    HW121922   8.055   9.702   4.511
 5481HO4    HW221923   8.094   9.787   4.377
 5481HO4     MW21924   8.113   9.704   4.429
 5482HO4     OW21925   3.742   2.609   0.304
 5482HO4    HW121926   3.647   2.609   0.337
 5482HO4    HW221927   3.791   2.687   0.344
 5482HO4     MW21928   3.742   2.609   0.304
 5483HO4     OW21929   3.315   6.994   3.589
 5483HO4    HW121930   3.349   7.049   3.666
 5483HO4    HW221931   3.323   7.046   3.504
 5483HO4     MW21932   3.315   6.994   3.589
 5484HO4     OW21933   6.938   4.265   7.240
 5484HO4    HW121934   6.897   4.206   7.311
 5484HO4    HW221935   6.964   4.208   7.162
 5484HO4     MW21936   6.938   4.265   7.240
 5485HO4     OW21937   1.735   0.516   1.362
 5485HO4    HW121938   1.726   0.416   1.367
 5485HO4    HW221939   1.712   0.547   1.269
 5485HO4     MW21940   1.735   0.516   1.362
 5486HO4     OW21941   3.515   9.021   4.364
 5486HO4    HW121942   3.614   9.025   4.350
 5486HO4    HW221943   3.493   8.945   4.426
 5486HO4     MW21944   3.515   9.021   4.364
 5487HO4     OW21945   6.707   8.132   1.451
 5487HO4    HW121946   6.623   8.149   1.503
 5487HO4    HW221947   6.689   8.144   1.353
 5487HO4     MW21948   6.707   8.132   1.451
 5488HO4     OW21949   1.402   3.829   8.114
 5488HO4    HW121950   1.473   3.767   8.148
 5488HO4    HW221951   1.430   3.865   8.024
 5488HO4     MW21952   1.402   3.829   8.114
 5489HO4     OW21953   5.430   1.402   1.440
 5489HO4    HW121954   5.474   1.372   1.525
 5489HO4    HW221955   5.394   1.322   1.391
 5489HO4     MW21956   5.430   1.402   1.440
 5490HO4     OW21957   0.318   8.037   9.148
 5490HO4    HW121958   0.413   8.066   9.132
 5490HO4    HW221959   0.313   7.984   9.233
 5490HO4     MW21960   0.318   8.037   9.148
 5491HO4     OW21961   1.267   7.421   6.244
 5491HO4    HW121962   1.330   7.382   6.313
 5491HO4    HW221963   1.318   7.485   6.185
 5491HO4     MW21964   1.267   7.421   6.244
 5492HO4     OW21965   4.003   6.161   0.092
 5492HO4    HW121966   4.006   6.200  -0.000
 5492HO4    HW221967   3.909   6.131   0.112
 5492HO4     MW21968   4.003   6.161   0.092
 5493HO4     OW21969   8.154   5.996   4.191
 5493HO4    HW121970   8.092   6.075   4.186
 5493HO4    HW221971   8.149   5.955   4.283
 5493HO4     MW21972   8.154   5.996   4.191
 5494HO4     OW21973   0.481   2.743   2.640
 5494HO4    HW121974   0.441   2.830   2.609
 5494HO4    HW221975   0.543   2.709   2.569
 5494HO4     MW21976   0.481   2.743   2.640
 5495HO4     OW21977   1.635   4.661   5.185
 5495HO4    HW121978   1.645   4.720   5.265
 5495HO4    HW221979   1.677   4.705   5.105
 5495HO4     MW21980   1.635   4.661   5.185
 5496HO4     OW21981   0.514   3.453   2.492
 5496HO4    HW121982   0.469   3.403   2.418
 5496HO4    HW221983   0.485   3.416   2.581
 5496HO4     MW21984   0.514   3.453   2.492
 5497HO4     OW21985   3.883   2.366   1.781
 5497HO4    HW121986   3.839   2.299   1.841
 5497HO4    HW221987   3.953   2.320   1.725
 5497HO4     MW21988   3.883   2.366   1.781
 5498HO4     OW21989  10.054   2.559   4.419
 5498HO4    HW121990  10.035   2.526   4.512
 5498HO4    HW221991  10.043   2.483   4.353
 5498HO4     MW21992  10.054   2.559   4.419
 5499HO4     OW21993   5.505   7.112   0.054
 5499HO4    HW121994   5.494   7.083   0.149
 5499HO4    HW221995   5.491   7.033  -0.007
 5499HO4     MW21996   5.505   7.112   0.054
 5500HO4     OW21997   1.424   0.600   0.839
 5500HO4    HW121998   1.465   0.649   0.762
 5500HO4    HW221999   1.410   0.664   0.915
 5500HO4     MW22000   1.424   0.600   0.839
  10.16400  10.16400  10.16400
