Protein
22000
    1SOL     OW    1   7.280   0.894   1.803  0.0834 -0.5352  0.2362
    1SOL    HW1    2   7.200   0.939   1.775 -0.5093 -1.6188  0.1187
    1SOL    HW2    3   7.253   0.843   1.879  1.0400  0.2656  1.1314
    1SOL     MW    4   7.266   0.893   1.809  0.1300 -0.5714  0.3358
    2SOL     OW    5   7.832   9.031   2.855 -0.2497  0.1088 -0.8895
    2SOL    HW1    6   7.883   9.020   2.775  0.4114  1.3715 -0.6569
    2SOL    HW2    7   7.895   9.059   2.921 -0.5834 -1.9491  0.4031
    2SOL     MW    8   7.846   9.033   2.853 -0.2078  0.0070 -0.6943
    3SOL     OW    9   8.334   1.016   9.021  0.1454 -0.6071  0.2834
    3SOL    HW1   10   8.306   0.925   9.035  0.5823 -0.9662 -1.0187
    3SOL    HW2   11   8.315   1.033   8.929 -0.5376  0.8605  0.6666
    3SOL     MW   12   8.328   1.006   9.011  0.1139 -0.4652  0.1657
    4SOL     OW   13   6.869   4.865   1.207  0.2663 -0.2690  0.6373
    4SOL    HW1   14   6.919   4.890   1.129  0.8511 -2.1573  0.3541
    4SOL    HW2   15   6.777   4.874   1.180  0.4338 -2.0806 -0.7447
    4SOL     MW   16   6.864   4.869   1.193  0.3626 -0.7426  0.4242
    5SOL     OW   17   8.900   9.515   9.939 -0.3670  0.0997 -0.5855
    5SOL    HW1   18   8.983   9.476   9.909 -0.1705 -1.1169  1.4002
    5SOL    HW2   19   8.836   9.485   9.875 -0.0706 -2.9628  0.3814
    5SOL     MW   20   8.903   9.506   9.927 -0.3039 -0.4481 -0.2075
    6SOL     OW   21   7.120   7.049   9.887 -0.0233 -0.1200 -0.2889
    6SOL    HW1   22   7.079   7.022   9.805  0.5645 -1.2267 -0.2347
    6SOL    HW2   23   7.090   7.138   9.901 -3.2191 -1.1554  0.2372
    6SOL     MW   24   7.111   7.057   9.878 -0.3572 -0.3942 -0.2147
    7SOL     OW   25   8.556   4.809   0.518 -0.3910  0.2986 -0.4270
    7SOL    HW1   26   8.505   4.825   0.439 -2.3245 -3.0575 -0.0291
    7SOL    HW2   27   8.633   4.762   0.487 -0.3320  0.4266 -0.4747
    7SOL     MW   28   8.559   4.805   0.504 -0.6310 -0.1146 -0.3821
    8SOL     OW   29  10.064   4.240   1.973 -0.0499 -0.1385 -0.3064
    8SOL    HW1   30  10.080   4.236   1.879 -0.4703 -1.3563 -0.3468
    8SOL    HW2   31  10.130   4.183   2.011 -2.6674 -3.4788 -0.3005
    8SOL     MW   32  10.074   4.232   1.966 -0.4388 -0.7220 -0.3108
    9SOL     OW   33   8.015   6.243   1.046  0.4437 -0.4695 -0.1904
    9SOL    HW1   34   7.980   6.272   1.130  0.3423 -0.5835 -0.1925
    9SOL    HW2   35   7.988   6.152   1.038 -1.9855  0.2687 -1.5813
    9SOL     MW   36   8.007   6.235   1.055  0.1198 -0.3896 -0.3687
   10SOL     OW   37   7.744   0.009   2.754  0.3666  0.0084  0.1037
   10SOL    HW1   38   7.793  -0.061   2.711  0.5877  0.2185  0.0114
   10SOL    HW2   39   7.744   0.081   2.691  0.1764  0.1073  0.2143
   10SOL     MW   40   7.750   0.009   2.740  0.3705  0.0479  0.1061
   11SOL     OW   41   7.955   4.857   9.622 -0.0965  0.6640  0.3181
   11SOL    HW1   42   8.033   4.909   9.603  0.7495 -0.4220  0.6679
   11SOL    HW2   43   7.990   4.774   9.654 -1.4071  1.0312  2.9581
   11SOL     MW   44   7.970   4.853   9.623 -0.1560  0.5720  0.7009
   12SOL     OW   45   7.962   1.729   2.226 -0.1659  0.0553 -0.0490
   12SOL    HW1   46   7.946   1.768   2.312 -0.5069  0.4477 -0.2862
   12SOL    HW2   47   7.893   1.663   2.217  1.2499 -1.6687  0.9616
   12SOL     MW   48   7.951   1.725   2.236 -0.0283 -0.1152  0.0500
   13SOL     OW   49   9.006   6.481   2.666 -0.0672 -0.3686 -0.3997
   13SOL    HW1   50   8.969   6.534   2.737 -0.2654 -0.8062 -0.1718
   13SOL    HW2   51   8.985   6.391   2.690  0.2881 -0.5539 -0.7718
   13SOL     MW   52   8.999   6.476   2.678 -0.0471 -0.4484 -0.4182
   14SOL     OW   53   9.892   9.673   1.406  0.0505 -0.3145  0.6649
   14SOL    HW1   54   9.942   9.737   1.355 -0.3346 -0.7033 -0.2305
   14SOL    HW2   55   9.959   9.622   1.452  0.4390 -0.2952  0.1332
   14SOL     MW   56   9.907   9.675   1.405  0.0509 -0.3618  0.4822
   15SOL     OW   57   8.260   0.378   9.425 -0.3498 -0.1896  0.0268
   15SOL    HW1   58   8.353   0.398   9.425 -0.6837  1.5450  0.9528
   15SOL    HW2   59   8.218   0.457   9.459 -2.1962 -0.7808 -0.7262
   15SOL     MW   60   8.266   0.390   9.429 -0.6289 -0.0432  0.0490
   16SOL     OW   61   8.000   2.580   0.008 -0.0095 -0.2924  0.2961
   16SOL    HW1   62   8.010   2.659   0.061 -2.4773 -0.0605  0.5698
   16SOL    HW2   63   8.073   2.582  -0.053  0.1724  2.0487  0.4991
   16SOL     MW   64   8.010   2.590   0.007 -0.3021  0.0369  0.3571
   17SOL     OW   65   8.880   1.948   9.341  0.3476  0.3900 -0.4286
   17SOL    HW1   66   8.809   2.002   9.377 -1.7903 -1.6595 -1.3229
   17SOL    HW2   67   8.929   1.919   9.417 -0.1887  1.2758  0.2827
   17SOL     MW   68   8.877   1.951   9.355  0.0053  0.2410 -0.4520
   18SOL     OW   69   6.295   3.138   1.582 -0.0029 -0.8049  0.6903
   18SOL    HW1   70   6.346   3.209   1.544 -0.2397 -1.8939 -1.8686
   18SOL    HW2   71   6.226   3.181   1.632 -0.9504  0.8879 -1.8668
   18SOL     MW   72   6.292   3.152   1.583 -0.1545 -0.7276  0.0354
   19SOL     OW   73   8.042   8.122   0.459 -0.1291 -0.0044  0.1710
   19SOL    HW1   74   8.080   8.071   0.388  0.0341  0.0434  0.2240
   19SOL    HW2   75   7.948   8.119   0.443 -0.1703 -0.8170  0.5127
   19SOL     MW   76   8.035   8.115   0.448 -0.1135 -0.1023  0.2215
   20SOL     OW   77   6.433   0.180   9.329  0.0963 -0.0095  0.1897
   20SOL    HW1   78   6.490   0.245   9.289 -1.2077  0.6602 -0.6505
   20SOL    HW2   79   6.424   0.209   9.420  1.8731 -0.7002  0.6217
   20SOL     MW   80   6.439   0.192   9.336  0.1568 -0.0122  0.1375
   21SOL     OW   81   6.744   3.326   2.324  0.0195 -0.3600 -0.3293
   21SOL    HW1   82   6.735   3.412   2.284  0.7010 -0.1686 -0.0782
   21SOL    HW2   83   6.816   3.336   2.387 -0.4096 -0.9005  0.2638
   21SOL     MW   84   6.752   3.338   2.327  0.0518 -0.4047 -0.2212
   22SOL     OW   85   9.771   6.512   1.329  0.2206  0.0917  0.1056
   22SOL    HW1   86   9.834   6.567   1.376  0.2308  0.8921 -0.8293
   22SOL    HW2   87   9.708   6.574   1.292  0.0014 -0.5564 -0.6276
   22SOL     MW   88   9.771   6.527   1.330  0.1938  0.1112 -0.1080
   23SOL     OW   89   8.025   9.534   0.328 -0.1299 -0.2141 -0.2311
   23SOL    HW1   90   8.023   9.440   0.312  0.5294 -0.1197 -0.9525
   23SOL    HW2   91   7.955   9.549   0.392 -1.2409 -0.9869 -1.2080
   23SOL     MW   92   8.016   9.524   0.334 -0.1877 -0.3010 -0.4485
   24SOL     OW   93   6.641   0.907   2.058  0.2328 -0.0451  0.3893
   24SOL    HW1   94   6.685   0.863   1.985  0.6319 -0.5518  0.9155
   24SOL    HW2   95   6.673   0.997   2.055 -0.4441  0.1638 -0.5887
   24SOL     MW   96   6.651   0.913   2.049  0.1973 -0.0833  0.3315
   25SOL     OW   97   8.132   0.617   9.512  0.2906 -0.6561 -0.7486
   25SOL    HW1   98   8.194   0.682   9.545 -0.0330 -0.3823 -0.6754
   25SOL    HW2   99   8.097   0.656   9.432 -0.0374 -0.6627 -0.6091
   25SOL     MW  100   8.135   0.631   9.506  0.2072 -0.6219 -0.7214
   26SOL     OW  101   9.025   2.558   1.511  0.5333 -0.3202 -0.0561
   26SOL    HW1  102   8.972   2.636   1.528  0.1205 -0.0838 -2.1050
   26SOL    HW2  103   8.992   2.526   1.427  3.8169  0.0140 -1.6101
   26SOL     MW  104   9.014   2.564   1.502  0.9008 -0.2472 -0.5173
   27SOL     OW  105   9.301   3.978   2.278 -0.4114  0.1030 -0.0998
   27SOL    HW1  106   9.292   3.909   2.343 -0.8675 -0.0291 -0.2950
   27SOL    HW2  107   9.319   3.932   2.196  0.5976  0.2908  0.0073
   27SOL     MW  108   9.302   3.964   2.276 -0.3406  0.1101 -0.1111
   28SOL     OW  109   9.679   3.209   9.319 -0.0713  0.1620 -0.5221
   28SOL    HW1  110   9.731   3.243   9.392  0.0620  0.7735 -0.8979
   28SOL    HW2  111   9.627   3.138   9.358 -0.5363  0.9452  0.3387
   28SOL     MW  112   9.679   3.204   9.333 -0.1138  0.3405 -0.4600
   29SOL     OW  113   7.557   0.603   9.977  0.4969  0.3931 -0.3808
   29SOL    HW1  114   7.636   0.551   9.962  0.1648 -0.1926 -0.1641
   29SOL    HW2  115   7.567   0.680   9.921  1.7181  0.8744  0.4700
   29SOL     MW  116   7.568   0.606   9.967  0.6107  0.3797 -0.2441
   30SOL     OW  117   0.499   2.951   0.331  0.3452 -0.1103 -0.0601
   30SOL    HW1  118   0.578   2.929   0.283  0.2256 -0.9102  0.0857
   30SOL    HW2  119   0.431   2.957   0.264  0.5513  0.7330 -0.2032
   30SOL     MW  120   0.500   2.949   0.316  0.3562 -0.1048 -0.0598
   31SOL     OW  121   9.004   9.639   8.825  0.6536  0.0652 -0.1851
   31SOL    HW1  122   9.004   9.574   8.755  0.5951 -1.4481  1.1599
   31SOL    HW2  123   9.087   9.625   8.871  0.3069  0.4334  0.5813
   31SOL     MW  124   9.015   9.629   8.822  0.6017 -0.0814  0.0852
   32SOL     OW  125   8.268   9.179   0.246  0.3339  0.5128  0.3578
   32SOL    HW1  126   8.182   9.221   0.252  0.2452  0.4038 -0.1062
   32SOL    HW2  127   8.278   9.131   0.328 -0.5869 -0.5046 -0.1138
   32SOL     MW  128   8.259   9.179   0.257  0.2047  0.3686  0.2380
   33SOL     OW  129   8.273   4.827   0.995 -0.3820  0.2286  0.0720
   33SOL    HW1  130   8.194   4.877   1.015 -1.0167 -0.8087  0.2743
   33SOL    HW2  131   8.277   4.827   0.899 -1.1172 -0.4152  0.0284
   33SOL     MW  132   8.264   4.833   0.985 -0.5574  0.0134  0.0923
   34SOL     OW  133   7.512   6.434   0.453 -0.1195  0.4902 -0.0941
   34SOL    HW1  134   7.601   6.426   0.420  0.4325 -0.7395  1.5744
   34SOL    HW2  135   7.508   6.374   0.527 -2.5252  0.0533 -0.4859
   34SOL     MW  136   7.523   6.426   0.458 -0.3568  0.2769  0.0693
   35SOL     OW  137   8.295   2.034   9.989  0.4088 -0.1550  0.2192
   35SOL    HW1  138   8.251   1.957   9.954 -1.5795  0.3896  1.3900
   35SOL    HW2  139   8.363   2.054   9.924 -1.2696 -0.8558 -1.8518
   35SOL     MW  140   8.298   2.027   9.976 -0.0605 -0.1750  0.1039
   36SOL     OW  141   9.134   7.386   9.991  0.1886  0.1809 -0.7677
   36SOL    HW1  142   9.192   7.340   9.931 -0.0246 -0.3666 -0.5585
   36SOL    HW2  143   9.189   7.405  10.067  0.4456  0.8312 -1.1027
   36SOL     MW  144   9.149   7.382   9.993  0.1942  0.1941 -0.7838
   37SOL     OW  145   9.328   7.306   1.544 -0.1958 -0.4498 -0.0254
   37SOL    HW1  146   9.407   7.254   1.526  0.4357  0.2668  0.6282
   37SOL    HW2  147   9.324   7.369   1.472  0.7690  0.5918  0.8022
   37SOL     MW  148   9.337   7.307   1.532  0.0086 -0.2247  0.1642
   38SOL     OW  149   9.337   9.867   2.492  0.4207 -0.1377 -0.5566
   38SOL    HW1  150   9.336   9.779   2.530 -1.0290  0.1080  0.0563
   38SOL    HW2  151   9.307   9.854   2.402 -0.3248 -0.2273 -0.3052
   38SOL     MW  152   9.333   9.854   2.485  0.1397 -0.1177 -0.4459
   39SOL     OW  153   7.458   8.461   9.356  0.2629 -0.5153  0.3653
   39SOL    HW1  154   7.435   8.410   9.278  1.0852  0.2958 -0.4491
   39SOL    HW2  155   7.454   8.552   9.326 -1.2013 -0.0616  1.7824
   39SOL     MW  156   7.455   8.466   9.342  0.1808 -0.3534  0.4424
   40SOL     OW  157   8.705   0.528   9.992  0.0920 -0.2725 -0.0689
   40SOL    HW1  158   8.720   0.541   9.899  1.0444  0.4400  0.1738
   40SOL    HW2  159   8.722   0.613  10.032 -0.4243 -0.5350  0.7469
   40SOL     MW  160   8.709   0.540   9.985  0.1478 -0.2149  0.0666
   41SOL     OW  161   8.988   6.200   2.699  0.0330 -0.0377 -0.2097
   41SOL    HW1  162   8.995   6.136   2.769 -1.9164 -0.4663 -0.3642
   41SOL    HW2  163   9.013   6.152   2.620  1.3377  0.1963  0.0448
   41SOL     MW  164   8.992   6.186   2.698 -0.0496 -0.0626 -0.1969
   42SOL     OW  165   8.404   6.509   9.138  0.2598 -0.5209 -0.0290
   42SOL    HW1  166   8.394   6.492   9.232  1.2995  0.1595  0.2210
   42SOL    HW2  167   8.478   6.455   9.111  0.7465  0.2095 -0.1821
   42SOL     MW  168   8.412   6.500   9.147  0.4552 -0.3403 -0.0166
   43SOL     OW  169   7.515   4.888   1.584 -0.2617  0.3123  1.1966
   43SOL    HW1  170   7.448   4.857   1.645  0.1218 -0.8415  1.0525
   43SOL    HW2  171   7.582   4.820   1.584 -0.2198  0.3016 -0.4646
   43SOL     MW  172   7.515   4.875   1.592 -0.2072  0.1632  0.9655
   44SOL     OW  173  10.028   9.584   9.734  0.1872 -0.0592 -0.3882
   44SOL    HW1  174   9.953   9.565   9.790  1.2834  0.2266  1.2295
   44SOL    HW2  175  10.037   9.506   9.679 -1.4663  0.0367 -0.8731
   44SOL     MW  176  10.019   9.572   9.734  0.1159 -0.0103 -0.2432
   45SOL     OW  177   7.446   7.454   0.921 -0.1149 -0.1570 -0.2130
   45SOL    HW1  178   7.350   7.456   0.924 -0.1352 -1.1794  0.8445
   45SOL    HW2  179   7.470   7.381   0.979  1.2893 -0.2271 -0.8336
   45SOL     MW  180   7.437   7.445   0.929  0.0623 -0.2969 -0.1571
   46SOL     OW  181   7.580   9.784   2.689 -0.5827  0.2393 -0.2018
   46SOL    HW1  182   7.659   9.738   2.662 -1.2660 -1.3964  0.4810
   46SOL    HW2  183   7.546   9.822   2.608 -0.4229 -1.1634 -0.9613
   46SOL     MW  184   7.585   9.783   2.675 -0.6497 -0.1496 -0.2116
   47SOL     OW  185   9.447   4.495   2.137 -0.0874  0.1211  0.2677
   47SOL    HW1  186   9.469   4.508   2.230  1.1373 -0.9782  0.1566
   47SOL    HW2  187   9.410   4.407   2.133 -0.7786  0.4245 -0.1990
   47SOL     MW  188   9.445   4.485   2.149 -0.0191  0.0192  0.1937
   48SOL     OW  189   9.393   9.166   1.461  0.7430 -0.0736 -0.7016
   48SOL    HW1  190   9.461   9.232   1.474 -0.7885  1.4252  0.2131
   48SOL    HW2  191   9.410   9.130   1.374  2.1793  0.8602 -0.8374
   48SOL     MW  192   9.404   9.170   1.452  0.7308  0.2378 -0.6019
   49SOL     OW  193   6.637   9.673   0.782 -0.1847  0.6725 -0.6098
   49SOL    HW1  194   6.624   9.677   0.687 -0.9671 -0.0001 -0.5475
   49SOL    HW2  195   6.726   9.704   0.796 -0.4534  1.8959 -1.4567
   49SOL     MW  196   6.647   9.678   0.772 -0.3193  0.7430 -0.7102
   50SOL     OW  197   8.324   5.175   2.069 -0.0791  0.1417  0.0792
   50SOL    HW1  198   8.403   5.227   2.055  0.0161  0.0378  0.2348
   50SOL    HW2  199   8.322   5.159   2.163 -0.1841 -0.0172  0.0503
   50SOL     MW  200   8.334   5.180   2.079 -0.0803  0.1081  0.0954
   51SOL     OW  201   8.730   2.616   2.021  0.0555  0.4387  0.1426
   51SOL    HW1  202   8.657   2.645   2.076 -1.2694 -0.0323 -1.3294
   51SOL    HW2  203   8.727   2.673   1.944  0.2594 -0.6111 -0.6601
   51SOL     MW  204   8.720   2.627   2.019 -0.0880  0.2440 -0.1486
   52SOL     OW  205   0.103   5.169   1.302  0.1963 -0.1906  0.0558
   52SOL    HW1  206   0.131   5.250   1.259 -0.8874  0.5120  0.6208
   52SOL    HW2  207   0.140   5.099   1.249  0.9454  0.6744 -0.5859
   52SOL     MW  208   0.111   5.170   1.290  0.1534  0.0101  0.0460
   53SOL     OW  209   6.651   1.788   9.828  0.8617  0.1941  0.0432
   53SOL    HW1  210   6.596   1.712   9.812  0.7250 -0.0700  1.6442
   53SOL    HW2  211   6.703   1.797   9.748  1.1570 -1.8084 -0.0449
   53SOL     MW  212   6.651   1.780   9.816  0.8820 -0.0961  0.2369
   54SOL     OW  213   6.717   5.590   1.601 -0.3945  0.7878  0.2701
   54SOL    HW1  214   6.766   5.665   1.570 -0.5721  1.3987  1.4214
   54SOL    HW2  215   6.765   5.559   1.678 -0.6294  0.0797  0.1393
   54SOL     MW  216   6.729   5.595   1.607 -0.4473  0.7754  0.4007
   55SOL     OW  217   8.641   3.283   9.762 -0.0398 -0.0387 -0.3137
   55SOL    HW1  218   8.606   3.227   9.830 -0.6545  0.0412 -0.5592
   55SOL    HW2  219   8.565   3.328   9.725  0.3870  0.6241 -0.4227
   55SOL     MW  220   8.627   3.282   9.766 -0.0639  0.0564 -0.3591
   56SOL     OW  221   5.894   0.962   0.719  0.3687  0.2913 -0.1367
   56SOL    HW1  222   5.840   1.041   0.719 -1.1444 -0.6557 -2.1105
   56SOL    HW2  223   5.915   0.948   0.627  0.1463 -1.8846  0.0947
   56SOL     MW  224   5.890   0.970   0.707  0.1465 -0.1084 -0.3598
   57SOL     OW  225   9.981   7.948   1.508  0.3779  0.0031  0.0857
   57SOL    HW1  226  10.047   7.923   1.443  0.1123 -0.1461 -0.1308
   57SOL    HW2  227   9.979   7.875   1.570  1.5408  0.7057  0.9910
   57SOL     MW  228   9.989   7.935   1.508  0.4928  0.0740  0.1739
   58SOL     OW  229   6.576   7.342   9.605 -0.0166 -0.0698  0.3835
   58SOL    HW1  230   6.646   7.383   9.554 -0.7292  1.1340  0.3389
   58SOL    HW2  231   6.607   7.253   9.620  1.4313  0.3661  0.1830
   58SOL     MW  232   6.589   7.336   9.600  0.0775  0.1401  0.3521
   59SOL     OW  233   9.671   3.854   2.863  0.2560  0.1444  0.3617
   59SOL    HW1  234   9.609   3.821   2.798 -0.4774  1.0677  0.5634
   59SOL    HW2  235   9.663   3.949   2.856  1.5919  0.2789  0.4628
   59SOL     MW  236   9.662   3.862   2.854  0.3332  0.2798  0.4005
   60SOL     OW  237   8.197  10.084   0.451 -0.2359  0.2852 -0.2200
   60SOL    HW1  238   8.186  10.070   0.357 -1.6931  1.4019 -0.2675
   60SOL    HW2  239   8.288  10.112   0.461 -0.1514  0.4539 -1.3534
   60SOL     MW  240   8.207  10.086   0.440 -0.4116  0.4497 -0.3712
   61SOL     OW  241   9.373   1.577   0.993  0.1370 -0.0409  0.8052
   61SOL    HW1  242   9.372   1.488   1.027  1.8422 -0.0886  0.8008
   61SOL    HW2  243   9.358   1.633   1.069 -0.1391 -0.2956  0.9380
   61SOL     MW  244   9.371   1.573   1.007  0.3199 -0.0796  0.8217
   62SOL     OW  245   8.775   3.759   0.807  0.7597  0.1688  0.2375
   62SOL    HW1  246   8.792   3.672   0.843  0.1339 -0.1225 -0.1486
   62SOL    HW2  247   8.680   3.769   0.812  0.5976 -0.0352 -1.6120
   62SOL     MW  248   8.765   3.749   0.812  0.6588  0.1054 -0.0487
   63SOL     OW  249   9.026   3.097   9.232  0.4808 -0.2890  0.1252
   63SOL    HW1  250   9.087   3.024   9.224  0.1877 -0.7569  1.7562
   63SOL    HW2  251   9.064   3.152   9.301  0.5753  0.9912 -0.9233
   63SOL     MW  252   9.039   3.095   9.240  0.4554 -0.1850  0.1998
   64SOL     OW  253   7.010   5.377   9.348 -0.1491  0.2347  0.1006
   64SOL    HW1  254   7.022   5.339   9.261 -0.7001  0.8390 -0.2569
   64SOL    HW2  255   6.980   5.304   9.403  0.9558 -0.3228 -0.0171
   64SOL     MW  256   7.008   5.363   9.344 -0.0782  0.2407  0.0397
   65SOL     OW  257  10.091   9.727   1.930  0.2835 -0.6145  0.1813
   65SOL    HW1  258  10.182   9.754   1.946  0.8315 -1.3087 -1.4689
   65SOL    HW2  259  10.100   9.641   1.888 -1.1784 -0.9976  0.6235
   65SOL     MW  260  10.104   9.719   1.926  0.1665 -0.7524  0.0267
   66SOL     OW  261   6.501   5.178   0.905  0.0640  0.1061  0.8453
   66SOL    HW1  262   6.485   5.112   0.837  0.6599  1.5693 -0.7897
   66SOL    HW2  263   6.451   5.147   0.981  0.6784 -2.4302  0.2973
   66SOL     MW  264   6.492   5.166   0.906  0.2189 -0.0313  0.5658
   67SOL     OW  265   8.723   6.286   2.332 -0.7968  0.1246  0.2612
   67SOL    HW1  266   8.810   6.254   2.310 -0.3501  1.5675 -0.1854
   67SOL    HW2  267   8.663   6.228   2.285  0.0047  0.5275 -1.3295
   67SOL     MW  268   8.726   6.275   2.323 -0.6370  0.3609  0.0004
   68SOL     OW  269   7.599   9.076   0.762 -0.3466  0.1357 -0.2994
   68SOL    HW1  270   7.627   8.985   0.771 -1.3634  0.0155  2.8277
   68SOL    HW2  271   7.503   9.071   0.760 -0.3971  1.0767 -1.8374
   68SOL     MW  272   7.590   9.064   0.763 -0.4832  0.2408 -0.0960
   69SOL     OW  273   7.006   1.615   9.355  0.3360  0.2998 -0.4454
   69SOL    HW1  274   6.925   1.658   9.382 -0.2486 -0.5270 -0.8327
   69SOL    HW2  275   6.991   1.522   9.373  1.1678  0.1355 -0.5862
   69SOL     MW  276   6.993   1.608   9.361  0.3677  0.1729 -0.5130
   70SOL     OW  277   7.434   7.366   0.497 -0.4641  0.1005  0.3058
   70SOL    HW1  278   7.359   7.388   0.552 -1.2370  0.1952 -0.7705
   70SOL    HW2  279   7.442   7.439   0.436  0.7539  0.2789  0.6359
   70SOL     MW  280   7.426   7.378   0.496 -0.4071  0.1354  0.2103
   71SOL     OW  281   7.979   0.055   9.105  0.1591  0.6489 -0.2356
   71SOL    HW1  282   8.058   0.052   9.049 -0.3996  0.0579 -1.0202
   71SOL    HW2  283   7.993   0.132   9.161  1.5964  0.1797  0.1069
   71SOL     MW  284   7.991   0.065   9.105  0.2715  0.5132 -0.2922
   72SOL     OW  285   6.714   5.375   2.245 -0.2054  0.1757 -0.1095
   72SOL    HW1  286   6.754   5.320   2.177  0.5342 -0.3369  0.7133
   72SOL    HW2  287   6.627   5.394   2.212 -0.4564 -1.4371 -0.4807
   72SOL     MW  288   6.708   5.370   2.232 -0.1429 -0.0964 -0.0517
   73SOL     OW  289   7.852   6.124   9.357  0.3442  0.7092 -0.0312
   73SOL    HW1  290   7.761   6.149   9.376  0.5213  0.5914  1.0326
   73SOL    HW2  291   7.902   6.204   9.373  0.5772  0.4305  0.6816
   73SOL     MW  292   7.847   6.138   9.362  0.3967  0.6584  0.1962
   74SOL     OW  293   7.780   3.261  10.036  0.3781 -0.0495 -0.2235
   74SOL    HW1  294   7.722   3.309   9.977 -0.3139  0.0348  0.5097
   74SOL    HW2  295   7.867   3.296  10.017 -0.0492  1.1848 -0.0300
   74SOL     MW  296   7.784   3.272  10.026  0.2348  0.1193 -0.1049
   75SOL     OW  297   8.820   1.732   2.550 -0.0813 -0.7021 -0.2001
   75SOL    HW1  298   8.868   1.672   2.493  1.7248  0.2462  0.2562
   75SOL    HW2  299   8.887   1.791   2.584 -1.2920 -0.4911  1.9810
   75SOL     MW  300   8.835   1.732   2.547 -0.0051 -0.5537  0.1375
   76SOL     OW  301   6.959   2.480   1.282 -0.1469  0.0326  0.4229
   76SOL    HW1  302   6.980   2.534   1.207 -0.8789  2.0904  1.6086
   76SOL    HW2  303   6.898   2.414   1.248  0.1244  0.4480 -0.9179
   76SOL     MW  304   6.954   2.479   1.268 -0.2059  0.3492  0.4030
   77SOL     OW  305   0.254   1.846   0.131 -0.5117  0.8862 -0.2557
   77SOL    HW1  306   0.232   1.781   0.198 -2.4173  0.1674 -1.4631
   77SOL    HW2  307   0.273   1.794   0.053  3.0415  1.6315 -0.0597
   77SOL     MW  308   0.254   1.831   0.130 -0.3008  0.8896 -0.3852
   78SOL     OW  309   7.610   3.054   1.579 -0.2893 -0.4659 -0.2242
   78SOL    HW1  310   7.557   2.985   1.540 -1.5804 -0.1074  0.8176
   78SOL    HW2  311   7.697   3.015   1.591 -0.3147 -1.0984 -1.8666
   78SOL     MW  312   7.615   3.040   1.576 -0.4578 -0.5010 -0.3011
   79SOL     OW  313   9.501   4.219   1.613  0.3702 -0.6047 -0.3893
   79SOL    HW1  314   9.582   4.169   1.602  1.1410  0.6983 -0.7726
   79SOL    HW2  315   9.456   4.211   1.529  1.3008  0.6953 -1.0538
   79SOL     MW  316   9.506   4.212   1.601  0.5880 -0.2715 -0.5234
   80SOL     OW  317   7.506   8.855   2.499 -0.1136  0.3891  0.5011
   80SOL    HW1  318   7.475   8.845   2.589  0.0947  1.4728  0.6986
   80SOL    HW2  319   7.497   8.767   2.462 -0.1211 -0.0992  1.5993
   80SOL     MW  320   7.501   8.842   2.506 -0.0879  0.4653  0.6670
   81SOL     OW  321   8.488   8.291   2.875  0.2705  0.4157  0.4227
   81SOL    HW1  322   8.400   8.271   2.844  0.3360  0.7398  0.0187
   81SOL    HW2  323   8.475   8.332   2.960  0.0698 -0.1850  0.6879
   81SOL     MW  324   8.475   8.293   2.882  0.2532  0.3803  0.4049
   82SOL     OW  325   7.746   2.947   1.829 -0.0642  0.0539 -0.6106
   82SOL    HW1  326   7.811   2.899   1.880 -0.2588 -0.2424 -0.6337
   82SOL    HW2  327   7.695   2.995   1.894 -0.9565 -1.1033 -0.3999
   82SOL     MW  328   7.748   2.947   1.844 -0.2034 -0.1321 -0.5866
   83SOL     OW  329   0.270   8.322   0.095 -0.0909  0.0313 -0.3134
   83SOL    HW1  330   0.214   8.399   0.101 -1.2242 -0.6756 -1.3717
   83SOL    HW2  331   0.349   8.346   0.144 -1.5776  0.7903  1.8414
   83SOL     MW  332   0.273   8.335   0.102 -0.4263  0.0380 -0.1730
   84SOL     OW  333   8.301   7.191   9.525  0.4760  0.2006 -0.0105
   84SOL    HW1  334   8.380   7.176   9.578  0.0076 -0.2249  0.5884
   84SOL    HW2  335   8.263   7.104   9.515 -1.0477  0.6325  1.5348
   84SOL     MW  336   8.307   7.178   9.531  0.2210  0.2014  0.2640
   85SOL     OW  337   7.379   9.569   2.774  0.4578 -0.1007 -0.4196
   85SOL    HW1  338   7.427   9.648   2.750 -0.0975  0.8096  1.3258
   85SOL    HW2  339   7.336   9.541   2.693 -0.1667  1.9647 -0.8480
   85SOL     MW  340   7.380   9.575   2.760  0.3068  0.2802 -0.2510
   86SOL     OW  341   6.628   8.377   9.721 -0.4379  0.1680  0.2740
   86SOL    HW1  342   6.706   8.321   9.729  0.2789  0.3050 -3.4732
   86SOL    HW2  343   6.661   8.466   9.729 -0.3936  0.1924 -0.1453
   86SOL     MW  344   6.642   8.381   9.723 -0.3405  0.1887 -0.2594
   87SOL     OW  345   7.451   3.665   9.098 -0.0445  0.6100 -0.3689
   87SOL    HW1  346   7.517   3.693   9.161  0.4282 -1.8584  0.3066
   87SOL    HW2  347   7.501   3.633   9.023 -0.5165  0.1465 -0.4882
   87SOL     MW  348   7.466   3.665   9.096 -0.0444  0.2347 -0.2977
   88SOL     OW  349   9.403   8.017   9.573  0.4899 -0.1861  0.0801
   88SOL    HW1  350   9.350   8.031   9.652 -0.3520 -0.9468 -0.3466
   88SOL    HW2  351   9.490   8.051   9.597  0.1591 -0.1060  1.2184
   88SOL     MW  352   9.407   8.023   9.587  0.3398 -0.2732  0.1712
   89SOL     OW  353   6.506   0.026   0.184 -0.0213  0.3395 -0.1122
   89SOL    HW1  354   6.427  -0.008   0.143  0.1006  0.7487 -0.6901
   89SOL    HW2  355   6.474   0.093   0.245 -0.0930  0.8084 -0.6590
   89SOL     MW  356   6.492   0.030   0.187 -0.0149  0.4519 -0.2561
   90SOL     OW  357   8.956   3.559   1.340  0.5072 -0.0627 -0.2817
   90SOL    HW1  358   8.929   3.561   1.432 -0.6327  0.3539 -0.6019
   90SOL    HW2  359   8.913   3.481   1.304  0.0600  0.3667 -0.7003
   90SOL     MW  360   8.947   3.549   1.347  0.3041  0.0456 -0.3763
   91SOL     OW  361   9.849   1.020   2.061  0.2575  0.1722  0.0871
   91SOL    HW1  362   9.776   0.999   2.004 -0.0606 -0.5237  0.7313
   91SOL    HW2  363   9.811   1.025   2.149  0.3269  3.3503  0.0511
   91SOL     MW  364   9.835   1.018   2.065  0.2257  0.4899  0.1650
   92SOL     OW  365   9.882   2.900   9.891  0.3182 -0.0712 -0.2898
   92SOL    HW1  366   9.861   2.945   9.973 -3.0813 -0.0677 -1.0128
   92SOL    HW2  367   9.798   2.866   9.860  1.6464 -1.0066 -3.2697
   92SOL     MW  368   9.869   2.901   9.898  0.0530 -0.1905 -0.7638
   93SOL     OW  369   7.903   4.655   1.945  0.1119  0.2991  0.4294
   93SOL    HW1  370   7.981   4.666   1.890  0.6911  1.6912  1.4645
   93SOL    HW2  371   7.832   4.638   1.883  0.7999  1.4748 -0.7364
   93SOL     MW  372   7.904   4.654   1.930  0.2741  0.6278  0.4127
   94SOL     OW  373   9.787   1.526   0.555 -0.1151  0.1063  0.5131
   94SOL    HW1  374   9.775   1.618   0.578 -1.2796 -0.3160  1.7140
   94SOL    HW2  375   9.880   1.510   0.570  0.2790  1.2871 -0.5297
   94SOL     MW  376   9.797   1.535   0.560 -0.2137  0.2034  0.5334
   95SOL     OW  377   9.711   1.933   2.312  0.4821  0.1823 -0.2764
   95SOL    HW1  378   9.667   2.018   2.303 -0.0334 -0.1002 -0.4646
   95SOL    HW2  379   9.640   1.871   2.331  0.5982 -0.5253 -1.9645
   95SOL     MW  380   9.696   1.936   2.313  0.4310  0.0555 -0.5166
   96SOL     OW  381   8.166   8.743   9.256 -0.0263 -0.6763  0.2753
   96SOL    HW1  382   8.109   8.763   9.331  0.5695  1.9490  0.1316
   96SOL    HW2  383   8.134   8.659   9.223 -2.1773 -0.5023  1.7228
   96SOL     MW  384   8.154   8.735   9.261 -0.2254 -0.3179  0.4422
   97SOL     OW  385   6.492   9.678   1.014 -0.2233 -0.1118 -0.5059
   97SOL    HW1  386   6.403   9.704   0.988  0.3628  0.1464 -2.3897
   97SOL    HW2  387   6.540   9.670   0.931  1.8352  0.8937  0.5090
   97SOL     MW  388   6.487   9.681   1.000  0.1153  0.0500 -0.6171
   98SOL     OW  389   7.577   8.084   0.245 -0.1023 -0.8329 -0.0954
   98SOL    HW1  390   7.628   8.117   0.318  0.6885 -0.6816 -0.6974
   98SOL    HW2  391   7.634   8.096   0.169 -0.9265 -0.9303 -0.7436
   98SOL     MW  392   7.591   8.090   0.244 -0.1066 -0.8260 -0.2554
   99SOL     OW  393  10.041   9.068   1.501 -0.0790  0.4620 -0.1222
   99SOL    HW1  394   9.959   9.063   1.549 -0.4146 -1.1500 -0.7915
   99SOL    HW2  395  10.096   9.001   1.543  0.8623  1.4374  0.2381
   99SOL     MW  396  10.038   9.059   1.513 -0.0014  0.3805 -0.1618
  100SOL     OW  397   8.894   5.839   2.282  0.1428  0.0545 -0.5189
  100SOL    HW1  398   8.807   5.817   2.315 -0.4737 -0.2711 -2.2755
  100SOL    HW2  399   8.940   5.755   2.278  0.6162  0.2409  0.5212
  100SOL     MW  400   8.889   5.826   2.286  0.1245  0.0367 -0.6106
  101SOL     OW  401   9.863   4.922   0.555  0.0396 -0.1027 -0.1270
  101SOL    HW1  402   9.958   4.916   0.543 -0.1478 -0.6251 -1.5112
  101SOL    HW2  403   9.851   5.000   0.608  1.2803 -0.3596  0.5804
  101SOL     MW  404   9.874   4.931   0.560  0.1745 -0.2024 -0.2136
  102SOL     OW  405   8.172   0.718   0.453  0.5145 -0.5780 -0.3942
  102SOL    HW1  406   8.117   0.726   0.375 -1.5580 -0.6426  0.9761
  102SOL    HW2  407   8.166   0.625   0.476  2.3938 -0.8894 -0.9858
  102SOL     MW  408   8.164   0.707   0.446  0.4898 -0.6262 -0.2945
  103SOL     OW  409   7.453   1.894   2.211  0.2170 -0.0503 -0.4665
  103SOL    HW1  410   7.383   1.875   2.274  0.3154  0.0956 -0.3099
  103SOL    HW2  411   7.525   1.928   2.265 -0.3362  1.8152 -0.8251
  103SOL     MW  412   7.453   1.896   2.226  0.1588  0.2072 -0.4923
  104SOL     OW  413   8.507   0.031   2.036  0.0731  0.2104  0.2306
  104SOL    HW1  414   8.429   0.083   2.054  0.0058  1.4477 -2.9194
  104SOL    HW2  415   8.571   0.094   2.004  1.4706 -1.1289  0.2758
  104SOL     MW  416   8.505   0.045   2.034  0.2434  0.1973 -0.1669
  105SOL     OW  417   8.366   8.252   8.897  0.5241  0.1250 -0.1499
  105SOL    HW1  418   8.322   8.169   8.881 -0.7516  0.7580 -0.0307
  105SOL    HW2  419   8.358   8.266   8.992  0.9784  0.2499 -0.1264
  105SOL     MW  420   8.360   8.244   8.907  0.4189  0.2221 -0.1316
  106SOL     OW  421   8.277   7.249   1.786 -0.0264 -0.1482  0.5475
  106SOL    HW1  422   8.265   7.275   1.877  1.6263 -1.4331  1.1926
  106SOL    HW2  423   8.372   7.251   1.773 -0.2483  0.9298 -1.4645
  106SOL     MW  424   8.288   7.253   1.796  0.1568 -0.1747  0.3725
  107SOL     OW  425   8.673  10.113   0.875  0.7272 -0.7351  0.3037
  107SOL    HW1  426   8.699  10.025   0.845 -1.1200 -0.7761 -1.3271
  107SOL    HW2  427   8.584  10.124   0.842  1.0368  1.9027  0.2058
  107SOL     MW  428   8.665  10.103   0.867  0.5304 -0.4027  0.0824
  108SOL     OW  429   8.023   6.856   1.672 -0.0115 -0.2512  0.1920
  108SOL    HW1  430   8.073   6.803   1.611 -0.6383 -0.4370 -0.1705
  108SOL    HW2  431   7.954   6.798   1.704 -0.6408  0.2935 -0.1285
  108SOL     MW  432   8.020   6.842   1.668 -0.1723 -0.2053  0.1046
  109SOL     OW  433   9.061   0.760   2.833  0.2218 -0.1275 -0.6180
  109SOL    HW1  434   8.967   0.750   2.821  0.4167  0.1542 -2.6793
  109SOL    HW2  435   9.093   0.672   2.854 -0.4548 -0.2451 -0.0366
  109SOL     MW  436   9.053   0.748   2.834  0.1601 -0.1065 -0.8074
  110SOL     OW  437   7.030   0.171   9.504  0.4718 -0.6024  0.2479
  110SOL    HW1  438   6.978   0.104   9.458  2.4394 -0.9402 -1.6572
  110SOL    HW2  439   7.118   0.134   9.508  1.2774  1.2415  0.5525
  110SOL     MW  440   7.035   0.158   9.499  0.8268 -0.4096  0.0430
  111SOL     OW  441   8.980   6.924   0.673  0.2749 -0.5071 -0.0490
  111SOL    HW1  442   8.938   6.984   0.611 -1.2824 -2.0166 -0.5434
  111SOL    HW2  443   8.950   6.953   0.759 -1.1572 -1.0261 -0.3412
  111SOL     MW  444   8.971   6.935   0.676 -0.1078 -0.7668 -0.1497
  112SOL     OW  445   6.288  10.061   0.057  0.4339  0.0190  0.1938
  112SOL    HW1  446   6.228  10.092  -0.010 -0.2369 -1.3196  0.1504
  112SOL    HW2  447   6.297   9.967   0.041 -0.6061 -0.5714  2.6154
  112SOL     MW  448   6.282  10.053   0.046  0.2149 -0.2279  0.4982
  113SOL     OW  449   8.644   4.754   1.026 -0.4799 -0.0404 -0.3630
  113SOL    HW1  450   8.574   4.790   1.081  0.9856  0.2279  1.4444
  113SOL    HW2  451   8.618   4.774   0.936 -2.0118  1.3258  0.3410
  113SOL     MW  452   8.632   4.761   1.022 -0.4884  0.1688 -0.0415
  114SOL     OW  453   7.146   3.220   9.237 -0.4261 -0.4265 -0.5130
  114SOL    HW1  454   7.099   3.216   9.153  0.4038 -0.8790 -0.9657
  114SOL    HW2  455   7.083   3.259   9.298 -1.6961 -1.8131 -0.8942
  114SOL     MW  456   7.132   3.225   9.234 -0.4824 -0.6619 -0.6197
  115SOL     OW  457   7.874   0.863   0.595  0.2100 -0.4181 -0.3634
  115SOL    HW1  458   7.945   0.925   0.577 -1.0053  1.4728  0.9165
  115SOL    HW2  459   7.914   0.796   0.651  1.1051  0.4010  0.0131
  115SOL     MW  460   7.888   0.862   0.600  0.1690 -0.0712 -0.1514
  116SOL     OW  461   8.645   7.342   1.477 -0.4564  0.1459 -0.1836
  116SOL    HW1  462   8.638   7.304   1.389  1.1819  1.5293 -0.9501
  116SOL    HW2  463   8.735   7.327   1.503 -0.7881  0.2163  1.0776
  116SOL     MW  464   8.655   7.335   1.469 -0.2891  0.3320 -0.1203
  117SOL     OW  465   7.683   0.747   3.041  0.3573 -0.0139 -0.0395
  117SOL    HW1  466   7.710   0.685   2.973  0.2087  0.6477 -0.7155
  117SOL    HW2  467   7.735   0.825   3.023  1.5355 -0.3605  1.6205
  117SOL     MW  468   7.693   0.749   3.030  0.4891  0.0265  0.0865
  118SOL     OW  469   8.285   9.055   0.478 -0.8789 -0.0503 -0.0930
  118SOL    HW1  470   8.256   9.100   0.557  0.1586 -1.5703  1.2485
  118SOL    HW2  471   8.324   8.973   0.511  0.3285 -0.3594 -2.1180
  118SOL     MW  472   8.286   9.050   0.492 -0.5915 -0.2844 -0.1805
  119SOL     OW  473   7.781   8.602   8.833  0.4367  0.0488 -0.7407
  119SOL    HW1  474   7.793   8.609   8.928  1.1314 -0.7278 -0.7635
  119SOL    HW2  475   7.693   8.566   8.822  0.2085  0.4939 -0.4068
  119SOL     MW  476   7.771   8.599   8.844  0.4964  0.0064 -0.7009
  120SOL     OW  477   9.621   9.661   9.660  0.1298  0.0375  0.2977
  120SOL    HW1  478   9.615   9.624   9.748  0.3468 -0.0696  0.2671
  120SOL    HW2  479   9.642   9.586   9.604  1.9722  0.4219  0.4118
  120SOL     MW  480   9.623   9.646   9.664  0.3935  0.0730  0.3084
  121SOL     OW  481   7.838   1.920   0.617 -0.2347 -0.1890 -0.2168
  121SOL    HW1  482   7.829   1.930   0.712 -0.5584 -0.1441 -0.2491
  121SOL    HW2  483   7.752   1.944   0.583 -0.1582 -0.3373 -0.5126
  121SOL     MW  484   7.826   1.925   0.625 -0.2664 -0.2022 -0.2588
  122SOL     OW  485   7.960   8.818   9.440 -0.2679  0.0328 -0.0548
  122SOL    HW1  486   8.018   8.839   9.513 -0.3716 -0.2113  0.1021
  122SOL    HW2  487   7.908   8.743   9.471 -0.5671  0.1584 -0.2442
  122SOL     MW  488   7.961   8.811   9.453 -0.3195  0.0177 -0.0589
  123SOL     OW  489   6.712   2.479   0.747  0.0517 -0.1345 -1.0737
  123SOL    HW1  490   6.626   2.438   0.756  0.6581 -1.9773 -2.9261
  123SOL    HW2  491   6.695   2.562   0.703 -0.7883 -0.4175 -1.2901
  123SOL     MW  492   6.699   2.484   0.743  0.0218 -0.4066 -1.3385
  124SOL     OW  493   9.427   3.145   2.251  0.1481  0.0344 -0.0488
  124SOL    HW1  494   9.410   3.235   2.280 -1.4788 -0.0803 -0.5707
  124SOL    HW2  495   9.411   3.092   2.329 -0.1617  0.0850 -0.0780
  124SOL     MW  496   9.423   3.150   2.265 -0.0998  0.0262 -0.1193
  125SOL     OW  497   8.429   1.482   1.191 -0.1670 -0.3448 -0.1974
  125SOL    HW1  498   8.336   1.503   1.182 -0.6599 -2.1432  0.1580
  125SOL    HW2  499   8.430   1.387   1.203  1.6342 -0.2024  1.1505
  125SOL     MW  500   8.417   1.472   1.191  0.0005 -0.5568  0.0206
  126SOL     OW  501   7.671   5.858   0.876 -0.6562 -0.1885  0.4850
  126SOL    HW1  502   7.675   5.790   0.943 -0.0034 -0.6348  0.0012
  126SOL    HW2  503   7.725   5.929   0.911  0.9673 -1.0223 -0.2176
  126SOL     MW  504   7.678   5.858   0.889 -0.3648 -0.3524  0.3331
  127SOL     OW  505   7.021   2.744   2.090  0.2109  0.2259 -0.1664
  127SOL    HW1  506   6.977   2.705   2.015  0.5514 -0.3389 -0.0784
  127SOL    HW2  507   7.113   2.721   2.079  0.3540  0.6482  0.1121
  127SOL     MW  508   7.027   2.736   2.079  0.2728  0.2077 -0.1195
  128SOL     OW  509   6.579   3.142   2.090 -0.3229 -0.0769  0.2564
  128SOL    HW1  510   6.617   3.211   2.144  0.4563 -0.8103  0.6712
  128SOL    HW2  511   6.577   3.065   2.148  0.5809 -0.8920 -0.7574
  128SOL     MW  512   6.584   3.141   2.105 -0.1074 -0.2751  0.1797
  129SOL     OW  513   9.498   4.762   8.945  0.3857  0.0060 -0.0134
  129SOL    HW1  514   9.519   4.716   8.864 -0.1289  0.2339 -0.2867
  129SOL    HW2  515   9.536   4.708   9.014  0.8794 -0.1605 -0.4105
  129SOL     MW  516   9.505   4.749   8.943  0.3831  0.0139 -0.0992
  130SOL     OW  517   6.289   0.959  10.121 -0.2126  0.2960 -0.0213
  130SOL    HW1  518   6.233   0.991  10.051 -3.6508 -2.6558  1.0332
  130SOL    HW2  519   6.305   1.035  10.177  0.2593  2.0913 -2.4824
  130SOL     MW  520   6.283   0.973  10.120 -0.5924  0.1479 -0.2014
  131SOL     OW  521   0.348   8.967   0.464  0.5062  0.3001 -0.6352
  131SOL    HW1  522   0.299   8.961   0.547  0.0738  0.0315 -0.9046
  131SOL    HW2  523   0.367   8.877   0.441 -0.7696  0.2595 -1.6362
  131SOL     MW  524   0.344   8.955   0.472  0.2876  0.2605 -0.7978
  132SOL     OW  525   8.508   3.880   2.232 -0.8692 -0.3596  0.0877
  132SOL    HW1  526   8.595   3.857   2.264 -0.8253  0.5029  0.6238
  132SOL    HW2  527   8.499   3.973   2.252 -1.4449 -0.1503 -1.0600
  132SOL     MW  528   8.518   3.889   2.239 -0.9373 -0.2224  0.0094
  133SOL     OW  529   6.281   4.778   1.128  0.5209  0.4221 -0.0524
  133SOL    HW1  530   6.323   4.787   1.213 -0.4294 -0.2953  0.5244
  133SOL    HW2  531   6.191   4.808   1.143  0.0375 -0.7441 -0.5066
  133SOL     MW  532   6.275   4.783   1.141  0.3374  0.1810 -0.0367
  134SOL     OW  533   0.414   1.860   0.782 -0.6026  0.4233 -0.1528
  134SOL    HW1  534   0.334   1.808   0.770 -0.6273  0.5125 -0.3735
  134SOL    HW2  535   0.464   1.812   0.847 -0.2480 -0.3140 -0.9520
  134SOL     MW  536   0.410   1.847   0.789 -0.5604  0.3403 -0.2834
  135SOL     OW  537   9.356   5.302   1.100 -0.2329  0.6103  0.5836
  135SOL    HW1  538   9.296   5.351   1.044 -1.1182 -0.1162  0.8672
  135SOL    HW2  539   9.339   5.335   1.188 -1.6591 -0.9184  0.9500
  135SOL     MW  540   9.346   5.312   1.104 -0.5288  0.3216  0.6668
  136SOL     OW  541   8.902   5.934   0.802  0.1583 -0.1542  0.3100
  136SOL    HW1  542   8.972   5.968   0.746 -0.7270  2.9583  0.9137
  136SOL    HW2  543   8.831   5.913   0.742  0.1804  0.5637  0.0255
  136SOL     MW  544   8.902   5.936   0.787  0.0478  0.3362  0.3509
  137SOL     OW  545   8.456   3.589   1.168 -0.3763 -0.0145  0.0748
  137SOL    HW1  546   8.516   3.529   1.123 -1.6784 -0.5982 -0.9484
  137SOL    HW2  547   8.512   3.662   1.195  0.8048 -0.5551 -0.8012
  137SOL     MW  548   8.471   3.591   1.166 -0.3918 -0.1585 -0.1683
  138SOL     OW  549   8.448   1.212   0.341 -0.6915 -0.4425 -0.1740
  138SOL    HW1  550   8.439   1.152   0.415  1.0832 -0.2126  0.2711
  138SOL    HW2  551   8.496   1.287   0.376  0.3521 -0.4126 -1.5712
  138SOL     MW  552   8.453   1.214   0.355 -0.3307 -0.4092 -0.2959
  139SOL     OW  553   0.425   3.128   0.556 -0.7692  0.3923  0.5557
  139SOL    HW1  554   0.462   3.076   0.485 -0.1854  1.3778  0.1331
  139SOL    HW2  555   0.350   3.076   0.586  0.3269 -1.1527  0.7775
  139SOL     MW  556   0.420   3.115   0.551 -0.5541  0.3207  0.5300
  140SOL     OW  557   8.450   3.720   2.912 -0.0380 -0.1416 -0.1583
  140SOL    HW1  558   8.460   3.664   2.989  0.9888  0.4430  0.1601
  140SOL    HW2  559   8.449   3.660   2.838 -3.5213 -0.9423  0.3797
  140SOL     MW  560   8.451   3.705   2.913 -0.3524 -0.1692 -0.0486
  141SOL     OW  561   9.405   6.091   0.388  0.1959  0.6514  0.2380
  141SOL    HW1  562   9.473   6.059   0.447  1.8556  0.5167 -1.6763
  141SOL    HW2  563   9.444   6.168   0.346 -1.2681  1.2382 -0.1077
  141SOL     MW  564   9.418   6.097   0.390  0.2209  0.7093 -0.0513
  142SOL     OW  565   7.650   5.486   0.702 -0.2030  0.3780  0.3721
  142SOL    HW1  566   7.564   5.444   0.695  0.8331 -1.7180 -0.9375
  142SOL    HW2  567   7.671   5.512   0.612 -0.3425  2.8899  0.9891
  142SOL     MW  568   7.642   5.484   0.689 -0.0883  0.4313  0.2835
  143SOL     OW  569   6.384   3.799   0.842 -0.4982  0.1968  0.0825
  143SOL    HW1  570   6.355   3.871   0.898 -0.4397  1.1411 -1.0509
  143SOL    HW2  571   6.383   3.836   0.754  0.3542 -0.9484 -0.4294
  143SOL     MW  572   6.380   3.813   0.838 -0.3816  0.1711 -0.1281
  144SOL     OW  573   7.301   6.600   9.903 -0.9448  0.3417  0.1754
  144SOL    HW1  574   7.298   6.696   9.902  0.3504  0.3935 -0.3540
  144SOL    HW2  575   7.281   6.577   9.994  1.0653  1.2531  0.9184
  144SOL     MW  576   7.298   6.609   9.915 -0.5217  0.4650  0.2028
  145SOL     OW  577   6.695   8.214   0.716  0.3955  0.2675 -0.1773
  145SOL    HW1  578   6.745   8.291   0.743  2.7161 -1.2224  0.0487
  145SOL    HW2  579   6.744   8.179   0.641 -0.1057 -1.4466  0.2523
  145SOL     MW  580   6.708   8.219   0.710  0.6284 -0.1426 -0.0934
  146SOL     OW  581   8.624   1.810   2.737  0.2346 -0.1758  0.7055
  146SOL    HW1  582   8.668   1.820   2.822  1.6965  0.8667 -0.1158
  146SOL    HW2  583   8.695   1.802   2.674 -0.6502  2.1944 -0.7698
  146SOL     MW  584   8.639   1.811   2.740  0.3084  0.2611  0.4115
  147SOL     OW  585   7.599   7.468   9.148 -0.5366  0.3599 -0.7415
  147SOL    HW1  586   7.529   7.528   9.120 -0.5330  1.3323  1.1526
  147SOL    HW2  587   7.567   7.433   9.232  0.6449 -0.2564 -0.5372
  147SOL     MW  588   7.586   7.471   9.155 -0.3849  0.4055 -0.4729
  148SOL     OW  589   8.392   0.178   2.889  0.1824  0.0118 -0.2499
  148SOL    HW1  590   8.423   0.127   2.964 -0.4623 -1.0344 -0.6732
  148SOL    HW2  591   8.305   0.143   2.871 -0.3971  1.4521 -0.4070
  148SOL     MW  592   8.385   0.167   2.897  0.0257  0.0622 -0.3242
  149SOL     OW  593   7.672   0.463   9.022 -0.0417  0.5310  0.0831
  149SOL    HW1  594   7.586   0.428   9.044  1.0715 -2.0284  0.8006
  149SOL    HW2  595   7.727   0.441   9.098  1.5682  0.8313 -0.9338
  149SOL     MW  596   7.668   0.456   9.035  0.3069  0.2418  0.0447
  150SOL     OW  597   9.089   7.610   9.856  0.0538  0.2374  0.2649
  150SOL    HW1  598   9.040   7.659   9.922  0.1169  0.5334  0.0954
  150SOL    HW2  599   9.078   7.518   9.881 -1.0403  0.2567 -0.0597
  150SOL     MW  600   9.081   7.604   9.868 -0.0782  0.2777  0.2017
  151SOL     OW  601   9.451   2.885   0.892 -0.0258  0.3313  0.1219
  151SOL    HW1  602   9.457   2.859   0.984  0.2167  2.6311  0.8286
  151SOL    HW2  603   9.367   2.849   0.862 -0.0866 -0.4826  1.2147
  151SOL     MW  604   9.441   2.877   0.900 -0.0026  0.5215  0.3522
  152SOL     OW  605   8.121   6.838   0.902 -0.3696 -0.0232 -0.3572
  152SOL    HW1  606   8.143   6.775   0.832 -1.0949 -0.1930 -0.4377
  152SOL    HW2  607   8.055   6.895   0.863  0.2623  0.7830 -0.2724
  152SOL     MW  608   8.115   6.837   0.888 -0.3815  0.0583 -0.3567
  153SOL     OW  609   6.414   5.159   1.774  0.1312 -0.2960 -0.4788
  153SOL    HW1  610   6.473   5.121   1.709 -1.7199 -2.0483 -1.2375
  153SOL    HW2  611   6.423   5.253   1.762  0.3361 -0.5583 -2.8608
  153SOL     MW  612   6.423   5.166   1.764 -0.0795 -0.5539 -0.8808
  154SOL     OW  613   9.637   1.785   2.919  0.1767 -0.2363 -0.0532
  154SOL    HW1  614   9.545   1.788   2.892  0.7816 -0.5897 -2.3024
  154SOL    HW2  615   9.643   1.709   2.977 -1.2179  0.7034  1.4243
  154SOL     MW  616   9.626   1.776   2.923  0.0756 -0.1612 -0.1520
  155SOL     OW  617   8.366   9.648   3.040 -0.0189 -0.2192 -0.2189
  155SOL    HW1  618   8.291   9.589   3.041  1.1666 -1.8344  1.8928
  155SOL    HW2  619   8.353   9.706   3.115 -0.1328  0.8629 -1.0486
  155SOL     MW  620   8.355   9.648   3.049  0.1183 -0.2875 -0.0548
  156SOL     OW  621   7.413   2.468  10.149 -0.1871 -0.1484  0.1982
  156SOL    HW1  622   7.407   2.545  10.093 -2.5131  0.4655  1.1445
  156SOL    HW2  623   7.365   2.400  10.101 -1.7518  0.2384  1.1434
  156SOL     MW  624   7.406   2.469  10.136 -0.6851 -0.0203  0.4403
  157SOL     OW  625   0.233   7.402   1.384 -0.0532  0.1637  0.1001
  157SOL    HW1  626   0.229   7.306   1.390 -1.3270  0.2578  1.6322
  157SOL    HW2  627   0.158   7.425   1.329 -0.2218  0.2940  0.3788
  157SOL     MW  628   0.223   7.392   1.378 -0.2378  0.1924  0.3319
  158SOL     OW  629   8.247   6.173   2.739 -0.6864  0.1542  0.3739
  158SOL    HW1  630   8.220   6.082   2.747  2.7257 -0.8851  2.1106
  158SOL    HW2  631   8.293   6.192   2.821 -0.6333  3.2282 -0.2389
  158SOL     MW  632   8.249   6.164   2.750 -0.2428  0.4147  0.5177
  159SOL     OW  633   7.723   3.134   0.733  0.1128 -0.1935 -0.3219
  159SOL    HW1  634   7.634   3.142   0.767  0.4704  0.0542  0.5777
  159SOL    HW2  635   7.711   3.105   0.643 -0.8676 -0.6974 -0.0475
  159SOL     MW  636   7.710   3.131   0.726  0.0331 -0.2263 -0.1716
  160SOL     OW  637   6.634   6.794   0.937  0.6195 -0.4717 -0.3630
  160SOL    HW1  638   6.577   6.720   0.958  0.2606 -0.1014 -0.0343
  160SOL    HW2  639   6.664   6.826   1.022 -0.2929  0.6046 -0.4250
  160SOL     MW  640   6.631   6.788   0.951  0.4567 -0.2865 -0.3289
  161SOL     OW  641   7.729   9.819   9.881 -0.3719  0.2435 -0.6277
  161SOL    HW1  642   7.640   9.786   9.872 -0.8813  1.6340 -0.9888
  161SOL    HW2  643   7.758   9.836   9.791  0.5357 -0.8678 -0.5600
  161SOL     MW  644   7.722   9.817   9.868 -0.3209  0.2793 -0.6653
  162SOL     OW  645   6.723   3.503   1.899 -0.0624 -0.6951 -0.5294
  162SOL    HW1  646   6.802   3.535   1.855  0.6948  0.6212  1.6460
  162SOL    HW2  647   6.732   3.408   1.898  0.4983 -0.6623 -2.0995
  162SOL     MW  648   6.735   3.495   1.893  0.1063 -0.5224 -0.4519
  163SOL     OW  649   8.477   2.766   9.818 -0.6201 -0.3065  0.1836
  163SOL    HW1  650   8.525   2.791   9.739 -0.5620 -0.6511  0.1082
  163SOL    HW2  651   8.448   2.849   9.855  0.3943 -0.0624  0.4575
  163SOL     MW  652   8.479   2.780   9.812 -0.4828 -0.3193  0.2090
  164SOL     OW  653   8.578   8.044   2.931 -0.5131  0.5438 -0.2123
  164SOL    HW1  654   8.499   7.991   2.935 -0.6246  0.7190 -0.0868
  164SOL    HW2  655   8.547   8.133   2.916 -0.3252  0.5678 -0.4829
  164SOL     MW  656   8.564   8.049   2.930 -0.5034  0.5693 -0.2309
  165SOL     OW  657  10.122   1.232   2.588 -0.0095 -0.2161  0.1550
  165SOL    HW1  658  10.115   1.148   2.632  1.2789 -0.1015  0.6152
  165SOL    HW2  659  10.039   1.277   2.608 -1.3757 -1.9263 -1.3589
  165SOL     MW  660  10.110   1.227   2.596 -0.0195 -0.4204  0.0201
  166SOL     OW  661   7.345   4.905   0.520 -0.0030 -0.1887  0.1544
  166SOL    HW1  662   7.364   4.827   0.574  2.0563 -0.3256 -0.6769
  166SOL    HW2  663   7.402   4.895   0.444 -0.7901  1.4313 -0.6745
  166SOL     MW  664   7.355   4.893   0.517  0.1598  0.0012 -0.0581
  167SOL     OW  665   6.790   9.260   1.472 -0.2206 -0.3073 -0.0100
  167SOL    HW1  666   6.776   9.302   1.388  0.4651  1.2646  0.6110
  167SOL    HW2  667   6.714   9.285   1.525 -1.5824 -2.7696 -0.6360
  167SOL     MW  668   6.779   9.269   1.468 -0.3072 -0.4213 -0.0106
  168SOL     OW  669   0.175   4.808  -0.005  0.5787 -0.5059 -0.0175
  168SOL    HW1  670   0.207   4.749   0.063  0.4992  0.3829  0.8078
  168SOL    HW2  671   0.233   4.885   0.001  0.6377 -0.4561 -1.0247
  168SOL     MW  672   0.187   4.810   0.004  0.5761 -0.3858 -0.0408
  169SOL     OW  673   6.580  10.128   2.437 -0.3354  0.0062  0.1151
  169SOL    HW1  674   6.639  10.192   2.478  0.6777 -0.0991 -1.1257
  169SOL    HW2  675   6.637  10.078   2.378 -1.2538 -1.5685  0.5272
  169SOL     MW  676   6.595  10.130   2.435 -0.3233 -0.2088  0.0090
  170SOL     OW  677   8.278   8.158   0.816  0.3910  0.0759 -0.0195
  170SOL    HW1  678   8.215   8.202   0.760  1.0814  0.9103 -0.1666
  170SOL    HW2  679   8.227   8.126   0.891 -0.1427  1.0862  0.0563
  170SOL     MW  680   8.264   8.159   0.819  0.4111  0.3120 -0.0286
  171SOL     OW  681   8.432   3.007   0.718  0.1485 -0.3187  0.4859
  171SOL    HW1  682   8.405   2.916   0.734  0.8142 -0.7234 -0.5371
  171SOL    HW2  683   8.511   2.999   0.664 -2.1752  0.8322 -3.4784
  171SOL     MW  684   8.439   2.994   0.713 -0.0638 -0.2232 -0.1526
  172SOL     OW  685  10.137   3.154   0.405  0.6486 -0.1689  0.2757
  172SOL    HW1  686  10.229   3.180   0.409  0.1932  1.9206 -1.1678
  172SOL    HW2  687  10.090   3.237   0.395 -1.4346 -1.1687  1.2969
  172SOL     MW  688  10.143   3.168   0.404  0.3237 -0.0294  0.2217
  173SOL     OW  689   7.843   8.568   2.814  0.7588  0.3122  0.7202
  173SOL    HW1  690   7.817   8.632   2.880  2.7783  1.7085  0.2666
  173SOL    HW2  691   7.918   8.522   2.853  0.0442 -1.0056  0.5852
  173SOL     MW  692   7.850   8.570   2.828  0.9259  0.3222  0.6448
  174SOL     OW  693   8.179   7.597   1.937 -0.0785 -0.2449  0.1807
  174SOL    HW1  694   8.175   7.581   1.842 -1.0225 -0.6074  0.2743
  174SOL    HW2  695   8.145   7.686   1.947  1.8903  0.5836  0.0066
  174SOL     MW  696   8.174   7.606   1.926  0.0527 -0.1852  0.1704
  175SOL     OW  697   7.574   3.126   1.207  0.3711 -0.4045 -0.0611
  175SOL    HW1  698   7.607   3.037   1.222 -2.0650 -1.2966  0.5730
  175SOL    HW2  699   7.591   3.172   1.289 -2.3152 -1.7095  1.3485
  175SOL     MW  700   7.580   3.120   1.219 -0.2846 -0.6857  0.2005
  176SOL     OW  701   8.302   9.751   9.344  0.2766 -0.6967  0.2610
  176SOL    HW1  702   8.365   9.811   9.385  1.2934 -0.9195 -0.8991
  176SOL    HW2  703   8.288   9.787   9.257 -0.4114 -1.2293  0.1485
  176SOL     MW  704   8.309   9.763   9.338  0.3187 -0.7934  0.0981
  177SOL     OW  705   6.946   9.289   2.057 -0.1095 -0.4682  0.7241
  177SOL    HW1  706   7.024   9.233   2.049 -0.1372 -0.4933  0.6228
  177SOL    HW2  707   6.873   9.227   2.058 -0.0986 -0.4802  1.3823
  177SOL     MW  708   6.947   9.274   2.056 -0.1117 -0.4730  0.7954
  178SOL     OW  709   9.662   0.355   0.337  0.3822 -0.1146  0.1396
  178SOL    HW1  710   9.615   0.284   0.381 -0.1215 -0.1436 -0.4343
  178SOL    HW2  711   9.643   0.342   0.244  0.9895  0.2695 -0.0409
  178SOL     MW  712   9.654   0.344   0.331  0.3954 -0.0691  0.0430
  179SOL     OW  713   7.610   9.134   3.026 -0.0062  0.5222 -0.4765
  179SOL    HW1  714   7.571   9.216   2.995 -0.3535  0.2961 -0.6324
  179SOL    HW2  715   7.666   9.104   2.954 -0.0105  0.5317 -0.4835
  179SOL     MW  716   7.613   9.141   3.013 -0.0512  0.4945 -0.4974
  180SOL     OW  717   9.462   7.114   9.427  0.0822 -0.2088 -0.3814
  180SOL    HW1  718   9.375   7.078   9.413  0.3350 -0.5824 -1.0495
  180SOL    HW2  719   9.505   7.050   9.485 -0.6054  0.7936  1.3095
  180SOL     MW  720   9.457   7.101   9.433  0.0265 -0.1283 -0.2505
  181SOL     OW  721   0.332   1.839   1.166 -0.8748 -0.3658 -0.0826
  181SOL    HW1  722   0.352   1.929   1.142 -0.6196 -0.8359 -1.8417
  181SOL    HW2  723   0.243   1.824   1.134 -1.2111 -0.5084  0.9037
  181SOL     MW  724   0.323   1.848   1.159 -0.8852 -0.4443 -0.1815
  182SOL     OW  725   0.219   3.800   0.231  0.3912  0.4748  0.0779
  182SOL    HW1  726   0.139   3.832   0.189  0.9876 -0.7148 -2.0897
  182SOL    HW2  727   0.288   3.812   0.166  1.3851 -1.3698  0.7157
  182SOL     MW  728   0.217   3.806   0.218  0.5948  0.0864 -0.1179
  183SOL     OW  729   0.366   8.467   0.736 -0.0951  0.2836  0.2289
  183SOL    HW1  730   0.283   8.507   0.709  0.7133  1.0501 -1.2658
  183SOL    HW2  731   0.398   8.424   0.656  1.6296  1.2327  0.3633
  183SOL     MW  732   0.359   8.466   0.722  0.2292  0.5032  0.0548
  184SOL     OW  733   6.777   6.720   0.214  0.0506 -0.2084 -0.2351
  184SOL    HW1  734   6.708   6.784   0.197  0.3148  0.2970  0.5608
  184SOL    HW2  735   6.847   6.770   0.255  1.5259 -0.4164 -2.3218
  184SOL     MW  736   6.777   6.735   0.217  0.2733 -0.1704 -0.4003
  185SOL     OW  737   7.144   2.186   2.434 -0.1422  0.3699  0.5165
  185SOL    HW1  738   7.159   2.209   2.525 -0.0638  2.4612  0.0259
  185SOL    HW2  739   7.209   2.237   2.385 -1.0473  0.3258 -0.7913
  185SOL     MW  740   7.154   2.196   2.439 -0.2480  0.6320  0.2863
  186SOL     OW  741   9.408   0.617   2.407  0.0792 -0.3834  0.0593
  186SOL    HW1  742   9.445   0.563   2.336  1.7726 -1.8508  1.9307
  186SOL    HW2  743   9.322   0.643   2.375  0.9863 -0.4705 -2.7657
  186SOL     MW  744   9.402   0.613   2.394  0.4121 -0.5824 -0.0628
  187SOL     OW  745   6.863   3.635   0.700 -0.4450 -0.1498 -0.3630
  187SOL    HW1  746   6.847   3.544   0.675  0.1062 -0.1745 -0.6554
  187SOL    HW2  747   6.793   3.656   0.762 -0.8224 -0.6383 -0.6147
  187SOL     MW  748   6.852   3.626   0.705 -0.4228 -0.2155 -0.4327
  188SOL     OW  749   7.572   0.951   0.811 -0.0115 -0.1306 -0.3721
  188SOL    HW1  750   7.603   0.862   0.793 -0.8685 -0.4352 -0.4042
  188SOL    HW2  751   7.604   0.969   0.900  2.4503  0.5875 -1.3386
  188SOL     MW  752   7.580   0.942   0.820  0.1939 -0.0776 -0.4999
  189SOL     OW  753   7.904   8.151   9.059 -0.4404  0.5401  0.2028
  189SOL    HW1  754   7.951   8.218   9.010  1.7138 -0.2848  1.0070
  189SOL    HW2  755   7.924   8.170   9.151  0.7852 -1.5197  0.4209
  189SOL     MW  756   7.912   8.162   9.064 -0.0078  0.1708  0.3336
  190SOL     OW  757   6.715   0.384   2.471 -0.4398  0.1908 -0.3100
  190SOL    HW1  758   6.704   0.368   2.377 -1.1327 -0.0442 -0.1926
  190SOL    HW2  759   6.727   0.478   2.478 -1.3908  0.3416 -0.5506
  190SOL     MW  760   6.715   0.394   2.460 -0.6502  0.1800 -0.3258
  191SOL     OW  761   8.087   5.035   0.952  0.4401  0.0099  0.2221
  191SOL    HW1  762   8.016   5.073   1.003  0.2788 -0.1760  0.1375
  191SOL    HW2  763   8.043   4.981   0.886  0.6559 -0.0157  0.0978
  191SOL     MW  764   8.072   5.033   0.950  0.4471 -0.0172  0.1954
  192SOL     OW  765   8.462   1.337   2.314 -0.1767 -0.0882  0.0321
  192SOL    HW1  766   8.375   1.317   2.349 -0.4103  2.2923  0.9970
  192SOL    HW2  767   8.445   1.400   2.243  0.7477  0.4362  0.2637
  192SOL     MW  768   8.448   1.342   2.309 -0.0883  0.2837  0.1853
  193SOL     OW  769   9.274   0.300   0.127 -0.2632 -0.0760 -0.2639
  193SOL    HW1  770   9.271   0.216   0.081 -0.0266 -0.5898  0.6415
  193SOL    HW2  771   9.216   0.288   0.202 -1.5710  1.1478 -1.0325
  193SOL     MW  772   9.267   0.288   0.130 -0.4003  0.0149 -0.2464
  194SOL     OW  773   0.058   3.699   1.823 -0.2979 -0.1447 -0.0373
  194SOL    HW1  774   0.028   3.614   1.853 -0.3788 -0.6432 -1.4450
  194SOL    HW2  775   0.030   3.703   1.731  1.6449  0.4439 -0.6591
  194SOL     MW  776   0.050   3.689   1.815 -0.0596 -0.1332 -0.2971
  195SOL     OW  777   8.326   7.441   0.363  0.3077 -0.2066 -0.5943
  195SOL    HW1  778   8.232   7.444   0.377  0.1923 -1.7129 -0.8918
  195SOL    HW2  779   8.364   7.477   0.443 -0.4968 -1.5877  0.4525
  195SOL     MW  780   8.319   7.446   0.375  0.1900 -0.5762 -0.4984
  196SOL     OW  781   8.761   8.527   1.816 -0.3626  0.5027  0.4840
  196SOL    HW1  782   8.744   8.526   1.910 -1.0517  2.6642  0.4509
  196SOL    HW2  783   8.694   8.469   1.779 -0.0632 -0.3912  1.3121
  196SOL     MW  784   8.750   8.519   1.823 -0.4125  0.6649  0.5858
  197SOL     OW  785   9.961   2.949   0.987  0.2281 -0.5395  0.2326
  197SOL    HW1  786   9.876   2.932   0.946  0.2512  0.8523 -0.4767
  197SOL    HW2  787   9.939   2.994   1.069  0.2547 -1.1235  0.5626
  197SOL     MW  788   9.947   2.953   0.992  0.2344 -0.4361  0.1841
  198SOL     OW  789   8.504   4.602   0.226  0.3726  0.3432  0.0761
  198SOL    HW1  790   8.472   4.610   0.136 -0.1972  0.1177  0.2568
  198SOL    HW2  791   8.493   4.690   0.263  0.3459  0.3658  0.0157
  198SOL     MW  792   8.499   4.615   0.219  0.2962  0.3172  0.0915
  199SOL     OW  793   8.027   4.506   1.713 -0.2652  0.2221 -0.4212
  199SOL    HW1  794   8.097   4.457   1.671 -1.6790  0.0976 -2.8200
  199SOL    HW2  795   7.985   4.554   1.641 -1.7080  1.4606  1.1616
  199SOL     MW  796   8.030   4.506   1.698 -0.6309  0.3647 -0.5257
  200SOL     OW  797   9.817   1.974   9.908  0.3415 -0.5798 -0.4728
  200SOL    HW1  798   9.763   1.938   9.978  1.9495 -1.2073  0.4951
  200SOL    HW2  799   9.903   1.989   9.948  1.0990 -0.2490 -2.1100
  200SOL     MW  800   9.821   1.971   9.922  0.6443 -0.6178 -0.5585
  201SOL     OW  801   8.080   7.518   1.658 -0.0498 -0.1259 -0.1292
  201SOL    HW1  802   7.992   7.511   1.619 -0.6202 -0.5337  1.1930
  201SOL    HW2  803   8.132   7.453   1.611 -0.2021  0.7381 -1.5477
  201SOL     MW  804   8.075   7.509   1.647 -0.1423 -0.0675 -0.1415
  202SOL     OW  805   7.368   2.978   2.547 -0.4813  0.1494  0.2329
  202SOL    HW1  806   7.285   2.944   2.580 -0.5466  0.2550  0.1760
  202SOL    HW2  807   7.419   2.899   2.525 -1.1277  0.0770 -1.1409
  202SOL     MW  808   7.364   2.963   2.548 -0.5724  0.1536  0.0498
  203SOL     OW  809   6.654   4.992   0.666  0.3730  0.3011  0.0569
  203SOL    HW1  810   6.641   4.929   0.737 -0.6258 -0.1673 -0.5182
  203SOL    HW2  811   6.566   5.023   0.646  0.7765  1.3404 -0.1727
  203SOL     MW  812   6.641   4.988   0.673  0.2968  0.3742 -0.0461
  204SOL     OW  813   9.008   9.975   1.545 -0.4941 -0.3744 -0.2031
  204SOL    HW1  814   8.985  10.066   1.526 -0.1201 -0.0948  0.6145
  204SOL    HW2  815   9.104   9.976   1.551 -0.3905 -1.0949 -1.4892
  204SOL     MW  816   9.017   9.987   1.543 -0.4330 -0.4308 -0.2631
  205SOL     OW  817   7.615   0.635   1.858 -0.7224 -0.8976  0.2788
  205SOL    HW1  818   7.585   0.607   1.944  1.7591  0.8794  1.8835
  205SOL    HW2  819   7.613   0.556   1.804 -0.4715 -2.5308  2.5462
  205SOL     MW  820   7.611   0.622   1.862 -0.3726 -0.8792  0.7745
  206SOL     OW  821   8.493   7.697   1.697 -0.1829  0.1200 -0.4228
  206SOL    HW1  822   8.535   7.632   1.753 -1.5893 -0.7139 -0.2963
  206SOL    HW2  823   8.470   7.648   1.618 -1.3688  0.4213 -0.2796
  206SOL     MW  824   8.496   7.682   1.694 -0.5147  0.0519 -0.3883
  207SOL     OW  825   7.071   1.698   9.895 -0.2137  0.4697  0.0329
  207SOL    HW1  826   7.002   1.682   9.830  0.1507  1.6966 -0.6847
  207SOL    HW2  827   7.024   1.701   9.978 -0.7962 -0.3207 -0.2448
  207SOL     MW  828   7.056   1.696   9.897 -0.2416  0.5256 -0.0945
  208SOL     OW  829  10.120   7.836   9.903 -0.4837  0.4802  0.1450
  208SOL    HW1  830  10.026   7.853   9.911 -0.6553  0.0872 -0.8302
  208SOL    HW2  831  10.162   7.916   9.933 -1.1651  1.0963 -0.5085
  208SOL     MW  832  10.113   7.848   9.908 -0.5929  0.5088 -0.0635
  209SOL     OW  833   9.730   8.929   9.861  0.6303  0.1925 -0.0208
  209SOL    HW1  834   9.663   8.997   9.853 -0.1548 -0.3218  1.6802
  209SOL    HW2  835   9.682   8.850   9.886  1.7406 -0.5024 -0.0035
  209SOL     MW  836   9.715   8.927   9.864  0.6719  0.0377  0.1991
  210SOL     OW  837   9.301   7.407   2.696 -0.0352 -0.0884  0.2341
  210SOL    HW1  838   9.364   7.415   2.624 -1.0059  0.2183 -0.6078
  210SOL    HW2  839   9.216   7.401   2.652 -0.5859 -0.6173  1.3420
  210SOL     MW  840   9.298   7.407   2.681 -0.2299 -0.1168  0.2682
  211SOL     OW  841   9.039   3.478   9.463  0.1185 -0.0315 -0.5149
  211SOL    HW1  842   8.960   3.452   9.416  0.5037 -0.5129 -0.8994
  211SOL    HW2  843   9.099   3.404   9.454  0.1502 -0.2056  0.8666
  211SOL     MW  844   9.037   3.465   9.456  0.1718 -0.1154 -0.3872
  212SOL     OW  845   9.972   2.364   0.803  0.5618  0.4149 -0.1363
  212SOL    HW1  846   9.905   2.332   0.863  0.1028 -0.2144 -0.9578
  212SOL    HW2  847  10.034   2.411   0.858  1.3907 -2.0451  1.2182
  212SOL     MW  848   9.971   2.366   0.818  0.6091  0.0195 -0.0681
  213SOL     OW  849   7.876   1.046   9.494  0.0941  0.0629  0.0481
  213SOL    HW1  850   7.948   1.049   9.431  0.1335  0.0359  0.0917
  213SOL    HW2  851   7.815   0.981   9.459  0.6410 -0.7720  0.6004
  213SOL     MW  852   7.877   1.038   9.482  0.1692 -0.0474  0.1244
  214SOL     OW  853   8.378   1.479   0.031 -0.7033 -0.1860  0.2293
  214SOL    HW1  854   8.441   1.518  -0.030 -0.9917 -0.5956 -0.3371
  214SOL    HW2  855   8.363   1.547   0.096 -0.4644  0.2952 -0.2104
  214SOL     MW  856   8.384   1.493   0.031 -0.7097 -0.1768  0.1005
  215SOL     OW  857   7.418   8.189   1.456  0.1678  0.6643 -0.2049
  215SOL    HW1  858   7.456   8.276   1.453  0.3292  0.6742  1.3870
  215SOL    HW2  859   7.390   8.172   1.366 -0.4747  2.6051 -0.4164
  215SOL     MW  860   7.419   8.198   1.444  0.1063  0.9140 -0.0282
  216SOL     OW  861   8.107   6.279   0.454 -0.3006  0.0335 -0.1699
  216SOL    HW1  862   8.098   6.359   0.507  0.4096 -0.1416  0.2424
  216SOL    HW2  863   8.124   6.210   0.519 -2.2182 -0.7212 -0.3935
  216SOL     MW  864   8.108   6.281   0.469 -0.4552 -0.0855 -0.1457
  217SOL     OW  865   8.654   7.990   2.250 -0.4097 -0.4712 -0.5698
  217SOL    HW1  866   8.625   8.028   2.167 -0.1801 -2.2965 -1.5304
  217SOL    HW2  867   8.747   8.014   2.255 -0.7899  1.0227  0.0030
  217SOL     MW  868   8.662   7.998   2.240 -0.4290 -0.5136 -0.6195
  218SOL     OW  869   8.137   2.913   1.901  0.3073 -0.1062  0.0174
  218SOL    HW1  870   8.225   2.896   1.934  0.0848  0.0680  0.7211
  218SOL    HW2  871   8.084   2.844   1.941 -0.0686  0.4447  0.4699
  218SOL     MW  872   8.141   2.902   1.910  0.2307 -0.0134  0.1654
  219SOL     OW  873   9.329   1.722   1.853 -0.0402 -0.4843  0.5402
  219SOL    HW1  874   9.240   1.755   1.862  0.6548  1.2617  1.4918
  219SOL    HW2  875   9.341   1.663   1.928 -0.3070 -0.5452  0.5360
  219SOL     MW  876   9.320   1.719   1.864  0.0146 -0.2686  0.6615
  220SOL     OW  877   6.992   0.236   9.762 -0.0731 -0.0581  0.0983
  220SOL    HW1  878   6.982   0.158   9.816  0.1158 -0.1788 -0.0422
  220SOL    HW2  879   7.005   0.203   9.674 -2.8493  0.1392 -0.4808
  220SOL     MW  880   6.992   0.222   9.758 -0.4043 -0.0483  0.0061
  221SOL     OW  881   9.345   1.987   2.118  0.0140  0.0991 -0.4363
  221SOL    HW1  882   9.269   1.993   2.061 -0.1776 -1.1398 -0.3298
  221SOL    HW2  883   9.419   1.968   2.060  0.5972  2.8848 -0.7551
  221SOL     MW  884   9.345   1.985   2.104  0.0641  0.2971 -0.4634
  222SOL     OW  885   7.155   2.344   9.255  0.2950 -0.6168 -0.5156
  222SOL    HW1  886   7.080   2.329   9.196  0.0404  0.6623 -0.5355
  222SOL    HW2  887   7.219   2.278   9.228  0.4944  0.4052 -2.7889
  222SOL     MW  888   7.154   2.334   9.244  0.2880 -0.3222 -0.8092
  223SOL     OW  889   9.018   3.729   9.980  0.5986 -0.3386 -0.1334
  223SOL    HW1  890   8.927   3.712  10.005  1.2414 -1.6540  1.4183
  223SOL    HW2  891   9.012   3.805   9.921 -1.6593 -1.4138 -1.4471
  223SOL     MW  892   9.005   3.737   9.975  0.3919 -0.6446 -0.1030
  224SOL     OW  893   9.356   5.100   1.793 -0.2354  0.0165  0.4361
  224SOL    HW1  894   9.379   5.079   1.702 -0.3129  0.7954  0.2327
  224SOL    HW2  895   9.404   5.035   1.845 -3.3363 -3.1426 -0.2856
  224SOL     MW  896   9.365   5.089   1.788 -0.6423 -0.2882  0.3177
  225SOL     OW  897   8.959   8.468   0.401  0.5816 -0.6616  0.4499
  225SOL    HW1  898   8.959   8.458   0.306 -0.3057  2.5630 -0.0163
  225SOL    HW2  899   8.869   8.450   0.427  0.6766 -0.9300  0.5895
  225SOL     MW  900   8.948   8.465   0.392  0.4802 -0.2832  0.4081
  226SOL     OW  901   8.400   8.949   9.290 -0.0771 -0.0514  0.8357
  226SOL    HW1  902   8.433   8.993   9.211  0.9237 -0.1718  1.1680
  226SOL    HW2  903   8.332   8.890   9.258 -0.1371  0.3804  0.1469
  226SOL     MW  904   8.396   8.947   9.276  0.0434 -0.0116  0.7901
  227SOL     OW  905   8.637   8.268   2.077  0.0681 -0.0925 -0.2941
  227SOL    HW1  906   8.705   8.237   2.017  0.9364  0.2152  0.4965
  227SOL    HW2  907   8.654   8.362   2.086  0.4535 -0.2659  1.0164
  227SOL     MW  908   8.648   8.276   2.070  0.2286 -0.0753 -0.0251
  228SOL     OW  909   9.261   4.998   0.034  0.1877  0.7217  0.3138
  228SOL    HW1  910   9.243   5.045   0.116  0.0985  2.2740 -0.5552
  228SOL    HW2  911   9.176   4.994  -0.010  0.3107  0.2360  0.1175
  228SOL     MW  912   9.247   5.003   0.039  0.1920  0.8582  0.1774
  229SOL     OW  913   9.773   8.593   9.435  0.3231  0.0742  0.2997
  229SOL    HW1  914   9.846   8.593   9.373 -0.2657 -0.3393 -0.3898
  229SOL    HW2  915   9.757   8.686   9.452  1.9136  0.1710  1.5413
  229SOL     MW  916   9.780   8.605   9.429  0.4513  0.0337  0.3704
  230SOL     OW  917   0.107   4.642   1.781  0.6496 -0.0199 -0.4089
  230SOL    HW1  918   0.160   4.590   1.720  0.1822  0.3247 -1.1225
  230SOL    HW2  919   0.017   4.629   1.751  0.4823  0.7652 -0.2530
  230SOL     MW  920   0.102   4.633   1.769  0.5683  0.1247 -0.4803
  231SOL     OW  921   6.702   9.373   0.967  0.1187 -0.0692  0.0373
  231SOL    HW1  922   6.779   9.359   0.911  0.1572 -2.0937  0.4971
  231SOL    HW2  923   6.709   9.464   0.995  2.5335 -0.2714  0.3129
  231SOL     MW  924   6.713   9.383   0.963  0.4328 -0.3542  0.1314
  232SOL     OW  925   7.814   4.296   1.433 -0.3805  0.3142  0.3563
  232SOL    HW1  926   7.738   4.287   1.491 -0.6719  3.5200  0.6447
  232SOL    HW2  927   7.782   4.265   1.348 -2.6029  2.7472  0.1367
  232SOL     MW  928   7.800   4.291   1.429 -0.7023  1.0360  0.3651
  233SOL     OW  929   8.230   2.378   0.586  0.5522  0.3674  0.1110
  233SOL    HW1  930   8.170   2.332   0.526 -0.6384  2.1934 -0.1798
  233SOL    HW2  931   8.249   2.461   0.542 -0.5824  1.8923  2.3298
  233SOL     MW  932   8.225   2.382   0.573  0.2546  0.7964  0.3578
  234SOL     OW  933   9.933   4.680   1.980 -0.1374  0.1957  0.0642
  234SOL    HW1  934   9.844   4.646   1.992 -0.1018 -0.5997 -1.5678
  234SOL    HW2  935   9.982   4.644   2.053 -0.5898 -1.6028 -0.4628
  234SOL     MW  936   9.928   4.671   1.991 -0.1907 -0.1363 -0.2121
  235SOL     OW  937   0.119   9.402   1.239 -0.2664  0.0664  0.2128
  235SOL    HW1  938   0.126   9.378   1.331  2.5186 -0.7383 -0.1406
  235SOL    HW2  939   0.075   9.328   1.198 -1.0531  0.2055  0.7787
  235SOL     MW  940   0.114   9.389   1.245 -0.0106 -0.0188  0.2400
  236SOL     OW  941   0.267   9.533   0.031  0.0628  0.0064 -0.2094
  236SOL    HW1  942   0.324   9.557  -0.042 -0.6410 -0.9906 -1.1257
  236SOL    HW2  943   0.224   9.453   0.002  0.5292 -1.0087  1.7282
  236SOL     MW  944   0.269   9.526   0.018  0.0324 -0.2512 -0.0787
  237SOL     OW  945   9.836   8.922   1.933 -0.3189  0.1802  0.0350
  237SOL    HW1  946   9.916   8.940   1.884  0.3753 -2.2201  0.1427
  237SOL    HW2  947   9.803   9.008   1.956  0.7383  1.3438 -2.3516
  237SOL     MW  948   9.842   8.935   1.930 -0.0947  0.0219 -0.2568
  238SOL     OW  949   6.702  10.108   9.653 -0.7493 -0.6214 -0.1090
  238SOL    HW1  950   6.699  10.204   9.658 -1.4759 -0.5624 -1.2627
  238SOL    HW2  951   6.654  10.087   9.573  0.7315 -1.8840 -0.6995
  238SOL     MW  952   6.695  10.118   9.644 -0.6527 -0.7755 -0.3323
  239SOL     OW  953   7.309   2.474   1.491  0.4490 -0.3254 -0.6575
  239SOL    HW1  954   7.300   2.381   1.507  0.2583 -0.1051  0.6434
  239SOL    HW2  955   7.376   2.481   1.423  0.3759 -1.4006 -0.8542
  239SOL     MW  956   7.316   2.463   1.484  0.4152 -0.4348 -0.5162
  240SOL     OW  957   9.485   1.177   2.628 -0.0368  0.6647 -0.3144
  240SOL    HW1  958   9.581   1.175   2.626  0.0342  1.5801  0.8477
  240SOL    HW2  959   9.463   1.152   2.718 -0.9384 -0.4776 -0.8394
  240SOL     MW  960   9.495   1.173   2.640 -0.1432  0.6356 -0.2329
  241SOL     OW  961   8.882   5.136   9.772  0.2655 -0.0120 -0.0543
  241SOL    HW1  962   8.946   5.104   9.709 -0.1448 -0.9077 -0.0366
  241SOL    HW2  963   8.933   5.166   9.847  0.6298 -2.0587  0.5696
  241SOL     MW  964   8.896   5.136   9.773  0.2596 -0.3887  0.0278
  242SOL     OW  965   7.786   6.442   2.036  0.0502 -0.2532 -0.3074
  242SOL    HW1  966   7.702   6.482   2.014 -0.1795  0.6188  1.9092
  242SOL    HW2  967   7.841   6.459   1.960 -0.9657  1.6461 -0.6878
  242SOL     MW  968   7.782   6.450   2.024 -0.1092  0.1016 -0.0723
  243SOL     OW  969   9.794   7.665   2.163 -0.1883 -0.6903  0.1730
  243SOL    HW1  970   9.755   7.730   2.105  1.0959  0.7415  0.8514
  243SOL    HW2  971   9.875   7.638   2.119  1.0796  0.8067  1.4541
  243SOL     MW  972   9.800   7.670   2.150  0.1384 -0.3153  0.4238
  244SOL     OW  973   8.302   2.246   3.166 -0.0435 -0.1750  0.3639
  244SOL    HW1  974   8.210   2.219   3.169 -0.1458  0.0690 -0.3395
  244SOL    HW2  975   8.310   2.292   3.083  1.2835 -2.2358 -0.7314
  244SOL     MW  976   8.291   2.248   3.156  0.1133 -0.4076  0.1337
  245SOL     OW  977   6.786   9.434   0.547  0.1893  0.2192 -0.3320
  245SOL    HW1  978   6.758   9.366   0.486  0.9400 -0.0512 -0.3872
  245SOL    HW2  979   6.724   9.506   0.532 -0.2165 -0.2027 -0.7301
  245SOL     MW  980   6.774   9.435   0.537  0.2334  0.1306 -0.3901
  246SOL     OW  981  10.097   8.042   0.858 -0.4863  0.1528 -0.1041
  246SOL    HW1  982  10.088   7.982   0.784  1.1058 -0.1575 -0.0862
  246SOL    HW2  983  10.032   8.012   0.922 -0.5873 -0.7454 -0.6145
  246SOL     MW  984  10.088   8.031   0.857 -0.2954 -0.0019 -0.1671
  247SOL     OW  985   9.137   2.528   0.106 -0.2910  0.8771 -0.9316
  247SOL    HW1  986   9.093   2.610   0.128 -0.0148  0.8007 -0.0966
  247SOL    HW2  987   9.211   2.554   0.051  0.1679  1.2534 -0.1479
  247SOL     MW  988   9.141   2.542   0.101 -0.1969  0.9155 -0.7244
  248SOL     OW  989   8.835   2.211   0.851 -0.4443 -0.1711 -0.0502
  248SOL    HW1  990   8.755   2.160   0.844 -1.0434  0.1405  3.1089
  248SOL    HW2  991   8.805   2.302   0.857 -0.0825 -0.1546  2.7502
  248SOL     MW  992   8.821   2.216   0.851 -0.4747 -0.1291  0.7127
  249SOL     OW  993   9.669   7.610   9.641  0.5972 -0.1171 -0.2170
  249SOL    HW1  994   9.614   7.653   9.706  3.1804 -0.3861  2.3118
  249SOL    HW2  995   9.613   7.541   9.604 -1.0177  0.1483  1.5851
  249SOL     MW  996   9.654   7.607   9.644  0.7212 -0.1176  0.3374
  250SOL     OW  997   7.047   3.779   2.579 -0.2940  0.3946 -0.0611
  250SOL    HW1  998   7.049   3.684   2.567  1.5239  0.2950  0.7021
  250SOL    HW2  999   7.071   3.815   2.494  2.3755  0.0240  0.4679
  250SOL     MW 1000   7.050   3.772   2.567  0.2804  0.3344  0.1043
  251SOL     OW 1001   7.344   3.047   0.460  0.9433 -0.1391  0.2398
  251SOL    HW1 1002   7.370   2.973   0.515  0.7963  0.0319  0.5441
  251SOL    HW2 1003   7.362   3.124   0.513  1.0552  0.0425 -0.0599
  251SOL     MW 1004   7.350   3.048   0.474  0.9388 -0.0940  0.2404
  252SOL     OW 1005   9.702   6.497   2.093 -0.2116 -0.1932  0.3209
  252SOL    HW1 1006   9.779   6.540   2.131  0.2562 -0.4095 -0.3660
  252SOL    HW2 1007   9.633   6.512   2.157  0.2824  0.4139  0.7316
  252SOL     MW 1008   9.703   6.505   2.106 -0.0885 -0.1432  0.2855
  253SOL     OW 1009   8.128   0.457   0.534  0.0518  0.2239 -0.3669
  253SOL    HW1 1010   8.088   0.447   0.448 -1.0533 -0.7561  0.2238
  253SOL    HW2 1011   8.200   0.393   0.534 -0.4768 -0.3880 -0.2850
  253SOL     MW 1012   8.132   0.447   0.523 -0.1574  0.0201 -0.2808
  254SOL     OW 1013   6.755   9.476   9.746  0.3600 -0.0263 -0.4831
  254SOL    HW1 1014   6.780   9.461   9.655  0.3399  0.7420 -0.6219
  254SOL    HW2 1015   6.811   9.417   9.797 -0.0064 -0.8664 -1.0175
  254SOL     MW 1016   6.765   9.466   9.741  0.3105 -0.0355 -0.5692
  255SOL     OW 1017   7.446   8.092   9.736  0.8668 -0.3075  0.0010
  255SOL    HW1 1018   7.386   8.025   9.770  1.4102 -1.2581 -0.8715
  255SOL    HW2 1019   7.479   8.136   9.814 -0.6866  0.0153  0.5291
  255SOL     MW 1020   7.442   8.089   9.750  0.7375 -0.3879 -0.0431
  256SOL     OW 1021   9.821   3.320   9.539  0.6532 -0.5824  0.3056
  256SOL    HW1 1022   9.869   3.240   9.561 -0.5564 -1.0940  1.1494
  256SOL    HW2 1023   9.890   3.386   9.530  1.4860 -0.9961  2.7552
  256SOL     MW 1024   9.836   3.318   9.541  0.6050 -0.7008  0.7272
  257SOL     OW 1025   9.345   9.665   9.793  0.1069  0.3057  0.2312
  257SOL    HW1 1026   9.424   9.640   9.841  0.5027  1.4771  0.2266
  257SOL    HW2 1027   9.288   9.703   9.861 -0.1895  0.0608  0.1214
  257SOL     MW 1028   9.348   9.667   9.808  0.1196  0.4243  0.2166
  258SOL     OW 1029   7.097   2.973   2.606  0.3488  0.1378  0.2750
  258SOL    HW1 1030   7.116   3.056   2.649  0.4814  0.2313  0.0380
  258SOL    HW2 1031   7.047   2.998   2.528  0.2482 -0.0172  0.2903
  258SOL     MW 1032   7.093   2.987   2.601  0.3529  0.1299  0.2466
  259SOL     OW 1033   9.354   1.745   2.883 -0.7782 -0.1997 -0.1057
  259SOL    HW1 1034   9.289   1.681   2.912 -0.4370  0.3384  1.9824
  259SOL    HW2 1035   9.308   1.829   2.886 -0.3009  0.0513  0.3534
  259SOL     MW 1036   9.340   1.748   2.887 -0.6734 -0.0987  0.2203
  260SOL     OW 1037   8.756   6.593   2.302  0.0790 -0.0090 -0.3341
  260SOL    HW1 1038   8.830   6.626   2.352  0.6549  1.2411 -1.9420
  260SOL    HW2 1039   8.770   6.498   2.298  0.4355 -0.0448  1.1542
  260SOL     MW 1040   8.767   6.585   2.308  0.1984  0.1465 -0.3494
  261SOL     OW 1041   6.277   9.494   0.386  0.1713 -0.4524  0.5564
  261SOL    HW1 1042   6.361   9.534   0.406 -0.2320  0.1352  1.1077
  261SOL    HW2 1043   6.256   9.443   0.464  0.8023 -1.9917 -0.2319
  261SOL     MW 1044   6.285   9.492   0.399  0.2004 -0.5742  0.5261
  262SOL     OW 1045   0.244   7.181   1.116  0.7988 -0.0635  0.6051
  262SOL    HW1 1046   0.301   7.118   1.071  0.9771 -0.7432  1.7411
  262SOL    HW2 1047   0.241   7.150   1.206 -0.9546  0.2616  0.6933
  262SOL     MW 1048   0.251   7.169   1.121  0.5972 -0.1089  0.7618
  263SOL     OW 1049   9.877   0.891  10.130 -0.0250  0.1322  0.6944
  263SOL    HW1 1050   9.882   0.935  10.214  0.2194  0.3168  0.5856
  263SOL    HW2 1051   9.879   0.798  10.151 -0.2649  0.1736  0.9081
  263SOL     MW 1052   9.878   0.885  10.143 -0.0244  0.1611  0.7078
  264SOL     OW 1053  10.145   2.174   1.020  0.2016 -0.1752  0.2424
  264SOL    HW1 1054  10.054   2.146   1.021  0.1655 -0.0602  0.1385
  264SOL    HW2 1055  10.166   2.189   1.113  0.1841 -0.4217  0.2869
  264SOL     MW 1056  10.136   2.172   1.032  0.1947 -0.1920  0.2348
  265SOL     OW 1057   8.490   7.113   9.717  0.0147  0.3132 -0.0213
  265SOL    HW1 1058   8.577   7.140   9.690 -0.6938  1.1297 -1.5711
  265SOL    HW2 1059   8.481   7.148   9.806  1.4115 -0.1864  0.3447
  265SOL     MW 1060   8.500   7.121   9.725  0.1028  0.3538 -0.1728
  266SOL     OW 1061   8.548  10.089   1.779 -0.0402 -0.3674 -0.6635
  266SOL    HW1 1062   8.513  10.150   1.714 -1.1228 -0.2705 -0.0031
  266SOL    HW2 1063   8.522  10.125   1.863  1.7067 -0.2835 -0.1391
  266SOL     MW 1064   8.540  10.101   1.781  0.0449 -0.3443 -0.5118
  267SOL     OW 1065   9.193   6.938   9.786  0.7019  0.4473  0.6004
  267SOL    HW1 1066   9.125   6.942   9.853  0.7353  1.7883  0.5854
  267SOL    HW2 1067   9.275   6.954   9.832  1.2578 -2.5514  0.8539
  267SOL     MW 1068   9.195   6.941   9.800  0.7774  0.2351  0.6309
  268SOL     OW 1069   8.239   2.619   2.230 -0.8682  0.1671 -0.2094
  268SOL    HW1 1070   8.184   2.541   2.231 -1.5416  0.6307  0.4822
  268SOL    HW2 1071   8.246   2.644   2.322 -0.2691  0.6559 -0.3814
  268SOL     MW 1072   8.233   2.612   2.242 -0.8777  0.2891 -0.1429
  269SOL     OW 1073  10.140   2.471   2.592 -0.2149  0.4855 -0.5464
  269SOL    HW1 1074  10.085   2.413   2.538 -0.9343  1.3587 -0.7849
  269SOL    HW2 1075  10.225   2.428   2.595 -0.7421 -0.6007 -0.6858
  269SOL     MW 1076  10.144   2.458   2.585 -0.3745  0.4582 -0.5947
  270SOL     OW 1077   9.952   4.678  10.078  0.4365  0.5610  0.4131
  270SOL    HW1 1078   9.978   4.697   9.988 -2.0556  1.1194 -0.2599
  270SOL    HW2 1079   9.961   4.762  10.124 -0.6645  0.9147  0.0215
  270SOL     MW 1080   9.956   4.691  10.073 -0.0234  0.6777  0.2768
  271SOL     OW 1081   8.953   4.824   2.325  0.2584 -0.3192 -0.8397
  271SOL    HW1 1082   8.989   4.912   2.333  0.2718 -0.3227 -0.8599
  271SOL    HW2 1083   9.026   4.766   2.350  0.2216 -0.3213 -0.7356
  271SOL     MW 1084   8.967   4.828   2.330  0.2554 -0.3199 -0.8289
  272SOL     OW 1085   8.963   0.980   2.125 -0.3701 -0.3425  0.8251
  272SOL    HW1 1086   9.038   0.991   2.184  0.1149  0.2152  0.1112
  272SOL    HW2 1087   8.901   0.928   2.176  0.6087 -1.0546  1.3231
  272SOL     MW 1088   8.965   0.975   2.139 -0.1827 -0.3622  0.7975
  273SOL     OW 1089   8.267   6.742   2.291  0.6629  0.5356 -0.3051
  273SOL    HW1 1090   8.347   6.759   2.341  1.1917 -1.8735 -0.1976
  273SOL    HW2 1091   8.216   6.683   2.347 -0.2890  0.4819 -1.2067
  273SOL     MW 1092   8.270   6.737   2.305  0.6087  0.2203 -0.4068
  274SOL     OW 1093   7.317   5.550   0.361 -0.5084 -0.2898 -0.3962
  274SOL    HW1 1094   7.339   5.632   0.404 -0.6931  0.0909 -1.0121
  274SOL    HW2 1095   7.364   5.553   0.278 -1.5238 -0.2247 -0.9833
  274SOL     MW 1096   7.325   5.561   0.356 -0.6620 -0.2327 -0.5502
  275SOL     OW 1097   6.446   8.127   0.645 -0.6960 -0.2337 -0.2562
  275SOL    HW1 1098   6.534   8.146   0.676 -0.5211  0.6357 -1.2076
  275SOL    HW2 1099   6.401   8.212   0.648 -1.5273 -0.6750  0.2639
  275SOL     MW 1100   6.452   8.140   0.649 -0.7800 -0.1789 -0.3114
  276SOL     OW 1101   7.614   5.345   0.225 -0.2032 -0.4005 -0.7614
  276SOL    HW1 1102   7.690   5.370   0.173  0.9470  1.0233  1.4671
  276SOL    HW2 1103   7.615   5.249   0.222  0.0087 -0.3844 -2.9988
  276SOL     MW 1104   7.624   5.336   0.218 -0.0288 -0.2161 -0.7626
  277SOL     OW 1105   6.753   3.331   0.617  0.0536  0.6238 -0.1683
  277SOL    HW1 1106   6.688   3.316   0.549 -0.9049  1.3580  0.5516
  277SOL    HW2 1107   6.774   3.244   0.651 -0.9753  0.4231 -0.0364
  277SOL     MW 1108   6.748   3.318   0.613 -0.2008  0.6921 -0.0592
  278SOL     OW 1109   8.089   5.225   0.015 -0.3342 -0.0053 -0.3359
  278SOL    HW1 1110   8.003   5.250   0.050 -1.1722 -1.0500 -1.5421
  278SOL    HW2 1111   8.144   5.301   0.030 -0.5513 -0.3526  3.3157
  278SOL     MW 1112   8.085   5.238   0.022 -0.4692 -0.1835 -0.0228
  279SOL     OW 1113   6.464   4.937   0.323 -0.0692 -0.4174  0.1419
  279SOL    HW1 1114   6.545   4.886   0.325 -0.3291 -0.9088 -0.8797
  279SOL    HW2 1115   6.480   5.010   0.382  2.3425  1.2976 -2.3935
  279SOL     MW 1116   6.477   4.939   0.331  0.2063 -0.2608 -0.3134
  280SOL     OW 1117   9.137   8.083   8.926 -0.1084 -0.2134 -0.3649
  280SOL    HW1 1118   9.107   8.161   8.881  0.3520 -0.5442 -1.2798
  280SOL    HW2 1119   9.212   8.112   8.977 -0.5179  0.1277  0.0504
  280SOL     MW 1120   9.143   8.096   8.927 -0.1019 -0.2120 -0.4289
  281SOL     OW 1121   9.495   6.277   1.476 -0.0942 -0.2743  0.1628
  281SOL    HW1 1122   9.425   6.213   1.490  0.6789 -1.2934 -0.5001
  281SOL    HW2 1123   9.576   6.227   1.488  0.5295  0.6836  0.0473
  281SOL     MW 1124   9.496   6.262   1.480  0.0846 -0.2821  0.0631
  282SOL     OW 1125   6.722   7.833   9.944  0.0260  0.3462  0.2023
  282SOL    HW1 1126   6.777   7.910   9.928 -1.2751  1.2637 -0.0737
  282SOL    HW2 1127   6.777   7.773   9.993  0.7557  1.9076  1.3485
  282SOL     MW 1128   6.736   7.835   9.948 -0.0471  0.6635  0.3137
  283SOL     OW 1129   7.348   1.967   0.910  0.3702 -0.1317  0.2291
  283SOL    HW1 1130   7.322   1.976   1.002 -0.9477 -1.9333  0.0739
  283SOL    HW2 1131   7.419   2.031   0.899 -1.7338  2.6484  1.5697
  283SOL     MW 1132   7.354   1.977   0.921 -0.0679 -0.0065  0.3809
  284SOL     OW 1133  10.020   9.850   1.247 -0.0765  0.8411 -0.1047
  284SOL    HW1 1134  10.059   9.922   1.296  0.5666 -0.5327  1.4701
  284SOL    HW2 1135  10.091   9.818   1.191  0.0712  0.4575  0.3069
  284SOL     MW 1136  10.034   9.855   1.246  0.0247  0.6161  0.1496
  285SOL     OW 1137   8.906   1.616   9.659  0.0721 -0.5355 -0.3003
  285SOL    HW1 1138   8.822   1.573   9.642 -0.7244 -0.0565  2.0183
  285SOL    HW2 1139   8.971   1.559   9.618 -1.3853 -0.4783 -2.9088
  285SOL     MW 1140   8.904   1.603   9.652 -0.2165 -0.4669 -0.3374
  286SOL     OW 1141   7.098   3.906   0.374  0.1205 -0.0784  0.2972
  286SOL    HW1 1142   7.117   3.997   0.352  0.9415 -0.1560  0.6327
  286SOL    HW2 1143   7.062   3.909   0.462  2.5110 -0.2429  1.3804
  286SOL     MW 1144   7.096   3.918   0.382  0.5316 -0.1094  0.4788
  287SOL     OW 1145   6.020   9.869   1.290  0.1581  0.5206 -0.0369
  287SOL    HW1 1146   5.990   9.787   1.329 -0.5946  1.2248  0.8995
  287SOL    HW2 1147   6.015   9.853   1.195 -0.9044 -0.2003  0.1191
  287SOL     MW 1148   6.015   9.856   1.283 -0.0742  0.5184  0.1029
  288SOL     OW 1149   7.437   3.054   9.705  0.0682  0.0139  0.5343
  288SOL    HW1 1150   7.442   3.013   9.791 -0.2461  2.5958  1.8787
  288SOL    HW2 1151   7.404   3.142   9.722 -0.8262  0.3476 -2.3418
  288SOL     MW 1152   7.433   3.060   9.718 -0.0865  0.3871  0.3382
  289SOL     OW 1153   0.257   0.541   1.930 -0.1861 -0.1356  0.6761
  289SOL    HW1 1154   0.171   0.581   1.925  0.1899  0.6900  0.7492
  289SOL    HW2 1155   0.240   0.447   1.923 -0.9399  0.0985 -1.0260
  289SOL     MW 1156   0.244   0.534   1.929 -0.2345  0.0000  0.4676
  290SOL     OW 1157   0.265   5.129   1.522 -0.5208  0.7849  0.0406
  290SOL    HW1 1158   0.214   5.122   1.442  1.0212  0.1362 -0.9326
  290SOL    HW2 1159   0.211   5.087   1.589 -0.8413 -0.8258 -1.1656
  290SOL     MW 1160   0.251   5.123   1.521 -0.3644  0.4957 -0.2384
  291SOL     OW 1161   9.493   2.714   1.932  0.2453 -0.0210 -0.7847
  291SOL    HW1 1162   9.406   2.732   1.898  0.5971  0.0173 -1.7000
  291SOL    HW2 1163   9.537   2.800   1.931 -0.1159  0.2182  0.9337
  291SOL     MW 1164   9.488   2.728   1.927  0.2441  0.0145 -0.6819
  292SOL     OW 1165   9.716   1.685   9.532  0.0957 -0.6013  0.3595
  292SOL    HW1 1166   9.736   1.666   9.441  0.5778  2.1495 -0.1896
  292SOL    HW2 1167   9.772   1.626   9.582 -0.8086 -2.7683 -1.0513
  292SOL     MW 1168   9.726   1.675   9.527  0.0416 -0.5265  0.1086
  293SOL     OW 1169   8.620   6.448   0.716  0.5037  0.1049  0.1216
  293SOL    HW1 1170   8.585   6.452   0.627  0.4003 -1.2249  0.0766
  293SOL    HW2 1171   8.551   6.485   0.771  0.0342 -0.2468 -0.2216
  293SOL     MW 1172   8.607   6.453   0.711  0.4304 -0.1104  0.0719
  294SOL     OW 1173   7.822   3.719   0.672  0.3846 -0.0686  0.3459
  294SOL    HW1 1174   7.875   3.799   0.678 -3.0070  2.4722 -0.1241
  294SOL    HW2 1175   7.786   3.707   0.760  0.7119 -1.0020  0.3630
  294SOL     MW 1176   7.824   3.728   0.684 -0.0076  0.1371  0.2879
  295SOL     OW 1177   7.007   5.386   0.589 -0.0762  0.0808  0.8035
  295SOL    HW1 1178   7.020   5.478   0.611 -2.3819  1.1625 -1.7836
  295SOL    HW2 1179   6.968   5.348   0.667  0.7307  1.3173  1.8477
  295SOL     MW 1180   7.004   5.393   0.602 -0.2681  0.3775  0.6060
  296SOL     OW 1181   7.350   7.586   9.057  0.1533  0.0994  0.1270
  296SOL    HW1 1182   7.309   7.612   8.974 -0.9364  0.8156  0.8626
  296SOL    HW2 1183   7.363   7.669   9.104  1.8400 -0.1760  0.2165
  296SOL     MW 1184   7.346   7.600   9.052  0.2297  0.1558  0.2326
  297SOL     OW 1185   9.037   3.299   9.749 -0.2028 -0.4870  0.2705
  297SOL    HW1 1186   9.090   3.379   9.757 -1.0972  0.0672  0.7291
  297SOL    HW2 1187   8.986   3.312   9.669 -0.2719 -0.6471  0.2881
  297SOL     MW 1188   9.038   3.311   9.740 -0.3261 -0.4366  0.3315
  298SOL     OW 1189   8.210   8.203   2.903  0.2787  0.9237  0.3569
  298SOL    HW1 1190   8.237   8.118   2.936 -1.7709  0.4132  0.8888
  298SOL    HW2 1191   8.172   8.186   2.817  1.2598  1.5497 -0.2185
  298SOL     MW 1192   8.209   8.190   2.896  0.1419  0.9385  0.3513
  299SOL     OW 1193   7.616   1.632   2.856  0.2502 -0.0880 -0.0234
  299SOL    HW1 1194   7.536   1.657   2.904  0.4723 -0.6489  0.6591
  299SOL    HW2 1195   7.645   1.713   2.814  1.0812  0.9229  2.3109
  299SOL     MW 1196   7.609   1.646   2.857  0.3850 -0.0304  0.3628
  300SOL     OW 1197   9.850   5.174   0.103  0.0286 -0.2449  0.1015
  300SOL    HW1 1198   9.933   5.158   0.148 -0.2051 -1.0822  0.2612
  300SOL    HW2 1199   9.871   5.161   0.010  0.5625  1.7101 -0.1011
  300SOL     MW 1200   9.864   5.170   0.097  0.0670 -0.1018  0.0960
  301SOL     OW 1201   0.369   1.115   2.127 -0.9293 -0.1524  0.1103
  301SOL    HW1 1202   0.375   1.051   2.056  0.6863 -0.2693  0.3312
  301SOL    HW2 1203   0.417   1.192   2.094 -1.1055  0.1957  0.6494
  301SOL     MW 1204   0.376   1.117   2.114 -0.7451 -0.1228  0.2076
  302SOL     OW 1205   8.491   6.108   9.192 -0.1750  0.2175 -0.0593
  302SOL    HW1 1206   8.405   6.130   9.227  0.0153  0.7575  0.0836
  302SOL    HW2 1207   8.544   6.089   9.270 -0.1143  0.0638 -0.1371
  302SOL     MW 1208   8.487   6.108   9.207 -0.1429  0.2670 -0.0510
  303SOL     OW 1209   6.922   0.880   0.697 -0.2462 -0.1125 -0.2739
  303SOL    HW1 1210   7.002   0.892   0.645 -0.9304 -0.6501 -1.4864
  303SOL    HW2 1211   6.870   0.958   0.679 -0.5134 -0.3296 -0.4408
  303SOL     MW 1212   6.926   0.891   0.688 -0.3680 -0.2091 -0.4505
  304SOL     OW 1213   7.117   4.521   0.680 -0.2491 -0.3353 -0.1650
  304SOL    HW1 1214   7.078   4.468   0.749 -0.2180  0.3383  0.3838
  304SOL    HW2 1215   7.044   4.541   0.622 -0.4276 -0.2917  0.0726
  304SOL     MW 1216   7.103   4.517   0.682 -0.2680 -0.2435 -0.0643
  305SOL     OW 1217   8.382   2.633   2.874  0.4236 -0.4787  0.0266
  305SOL    HW1 1218   8.451   2.644   2.809 -0.4792  1.1214 -0.7151
  305SOL    HW2 1219   8.429   2.623   2.957  1.5870 -2.3953 -0.8127
  305SOL     MW 1220   8.397   2.633   2.877  0.4570 -0.5192 -0.1758
  306SOL     OW 1221   7.191   1.227   2.408  0.2467  0.6590  0.2283
  306SOL    HW1 1222   7.193   1.187   2.322 -1.1214  1.3074 -0.1316
  306SOL    HW2 1223   7.283   1.240   2.431  0.6343  1.5563 -1.6650
  306SOL     MW 1224   7.203   1.224   2.400  0.1211  0.8569 -0.0601
  307SOL     OW 1225   9.646   1.709   0.909  0.2045  0.2989  0.0307
  307SOL    HW1 1226   9.652   1.734   0.817  1.4148 -1.5671 -0.4681
  307SOL    HW2 1227   9.558   1.673   0.918 -0.1378  1.0596 -0.2375
  307SOL     MW 1228   9.636   1.708   0.898  0.3156  0.1574 -0.0675
  308SOL     OW 1229   8.875   0.116   2.201 -0.0089 -0.3987  0.1207
  308SOL    HW1 1230   8.967   0.141   2.189  0.1601 -0.6478  0.8385
  308SOL    HW2 1231   8.878   0.025   2.230 -0.3182  0.2935  2.5133
  308SOL     MW 1232   8.888   0.108   2.203 -0.0269 -0.3419  0.5189
  309SOL     OW 1233   7.358   9.983   0.323 -0.5703  0.6077  0.7392
  309SOL    HW1 1234   7.447   9.963   0.351 -0.2642 -0.9778 -1.1767
  309SOL    HW2 1235   7.303   9.954   0.396  0.4368  1.4068  1.8481
  309SOL     MW 1236   7.362   9.977   0.336 -0.4022  0.5071  0.6359
  310SOL     OW 1237   6.856   5.711  10.025 -0.7241 -0.4714  0.2481
  310SOL    HW1 1238   6.937   5.704   9.974 -0.9763  2.0542 -0.6845
  310SOL    HW2 1239   6.825   5.621  10.034 -0.0493 -1.1728 -3.1101
  310SOL     MW 1240   6.863   5.699  10.020 -0.6700 -0.2379 -0.3011
  311SOL     OW 1241   6.785   8.680   0.305 -0.4819 -0.3203  0.2395
  311SOL    HW1 1242   6.702   8.653   0.344 -0.5744 -0.2585  0.0857
  311SOL    HW2 1243   6.816   8.751   0.361 -0.1207 -0.8992  0.7838
  311SOL     MW 1244   6.778   8.686   0.317 -0.4475 -0.3865  0.2895
  312SOL     OW 1245   9.474   6.659   0.227 -0.3899 -0.1280  0.2944
  312SOL    HW1 1246   9.443   6.659   0.136  0.6998 -1.6466 -0.1223
  312SOL    HW2 1247   9.483   6.566   0.249  0.4995  0.2357  1.5553
  312SOL     MW 1248   9.471   6.647   0.218 -0.1366 -0.2758  0.4025
  313SOL     OW 1249   8.535   8.032   0.481 -0.2460 -0.0329  0.1231
  313SOL    HW1 1250   8.563   8.077   0.560 -0.7761 -1.5281  1.2093
  313SOL    HW2 1251   8.609   7.974   0.459 -0.5857 -0.5167  0.2450
  313SOL     MW 1252   8.548   8.030   0.488 -0.3573 -0.2863  0.2777
  314SOL     OW 1253   0.368   1.282   0.827 -0.2766  0.1209  0.2046
  314SOL    HW1 1254   0.423   1.240   0.893 -0.0982  1.0465  0.6538
  314SOL    HW2 1255   0.308   1.213   0.799 -0.3608 -0.2789  1.3346
  314SOL     MW 1256   0.368   1.267   0.832 -0.2645  0.1882  0.4067
  315SOL     OW 1257   7.065   5.292   9.629 -0.2235 -0.3230  0.2554
  315SOL    HW1 1258   7.074   5.387   9.618 -0.7646 -0.3033 -0.0871
  315SOL    HW2 1259   7.056   5.280   9.723  2.1832 -0.2669  0.5606
  315SOL     MW 1260   7.065   5.303   9.639  0.0154 -0.3133  0.2506
  316SOL     OW 1261   9.011   7.293   0.417 -0.6130  0.2589  0.0852
  316SOL    HW1 1262   9.017   7.226   0.349 -2.4576 -1.0509  1.1240
  316SOL    HW2 1263   8.945   7.354   0.386  1.4910  2.0915 -1.1483
  316SOL     MW 1264   9.004   7.292   0.404 -0.5798  0.3258  0.0603
  317SOL     OW 1265   7.552   2.120   2.603  0.1179 -0.1065  0.6453
  317SOL    HW1 1266   7.579   2.182   2.535  0.9899 -0.6949  0.4309
  317SOL    HW2 1267   7.614   2.135   2.674 -0.0289 -0.3272  0.8198
  317SOL     MW 1268   7.564   2.130   2.603  0.2107 -0.2100  0.6402
  318SOL     OW 1269   8.057  10.125   2.349 -0.2229 -0.7651  0.1801
  318SOL    HW1 1270   8.093  10.040   2.374  0.1676 -0.5631  0.3090
  318SOL    HW2 1271   8.098  10.187   2.409  0.9016 -0.2420 -1.0733
  318SOL     MW 1272   8.067  10.122   2.360 -0.0290 -0.6723  0.0362
  319SOL     OW 1273   8.486   2.821   1.091 -0.3102  0.3292  0.1784
  319SOL    HW1 1274   8.460   2.748   1.146  0.0195  1.1857  1.5055
  319SOL    HW2 1275   8.405   2.867   1.071 -0.3436  0.4148  0.5185
  319SOL     MW 1276   8.473   2.817   1.095 -0.2722  0.4498  0.3918
  320SOL     OW 1277   9.338   9.481   2.406  0.8430 -0.1245  0.2959
  320SOL    HW1 1278   9.382   9.402   2.437  0.6738  0.1112  1.1600
  320SOL    HW2 1279   9.332   9.537   2.484 -2.0507 -0.6060  0.5340
  320SOL     MW 1280   9.343   9.478   2.420  0.4509 -0.1560  0.4370
  321SOL     OW 1281   8.355   5.308   9.469 -0.8949  0.6801 -0.3334
  321SOL    HW1 1282   8.299   5.328   9.393 -1.9784 -0.7138  0.0629
  321SOL    HW2 1283   8.296   5.269   9.533  0.6214 -1.4369 -0.1288
  321SOL     MW 1284   8.341   5.306   9.467 -0.8395  0.2307 -0.2565
  322SOL     OW 1285   7.987   0.403   0.786 -0.1718  0.5738 -0.0838
  322SOL    HW1 1286   8.030   0.388   0.702 -0.5215  1.8333 -0.5082
  322SOL    HW2 1287   8.054   0.448   0.839 -0.3418  0.8674 -0.1137
  322SOL     MW 1288   8.001   0.407   0.782 -0.2383  0.7726 -0.1420
  323SOL     OW 1289   0.018   4.986   1.967 -0.1715  0.2714 -0.3597
  323SOL    HW1 1290   0.062   4.932   2.033 -2.7345  0.3552  1.5789
  323SOL    HW2 1291   0.048   4.951   1.883 -0.2123 -2.8772  0.8278
  323SOL     MW 1292   0.027   4.975   1.965 -0.5048 -0.1209  0.0405
  324SOL     OW 1293   7.090   5.890   1.673  0.5247  0.0800 -0.0651
  324SOL    HW1 1294   7.053   5.914   1.758  0.1717 -0.5272 -0.0395
  324SOL    HW2 1295   7.153   5.959   1.654  0.8511  0.0477  0.8429
  324SOL     MW 1296   7.093   5.902   1.681  0.5213 -0.0019  0.0544
  325SOL     OW 1297   6.963  10.021   9.634  0.1660 -0.6896  0.4720
  325SOL    HW1 1298   6.997  10.039   9.722 -2.1570  1.5669  1.0195
  325SOL    HW2 1299   6.870  10.044   9.639  0.5139  2.5200 -3.3209
  325SOL     MW 1300   6.956  10.026   9.646 -0.0868  0.0101  0.0565
  326SOL     OW 1301   0.086   7.137   2.003 -0.0241  0.4250  0.0996
  326SOL    HW1 1302   0.079   7.204   1.936 -0.5381  1.1883  0.8937
  326SOL    HW2 1303   0.176   7.106   1.998  0.7691  2.4438  0.9015
  326SOL     MW 1304   0.096   7.141   1.994  0.0116  0.7811  0.3039
  327SOL     OW 1305   7.789   7.779   9.299  0.0358  0.1997 -0.0267
  327SOL    HW1 1306   7.870   7.792   9.250 -0.7029  0.3242 -1.2824
  327SOL    HW2 1307   7.758   7.692   9.271  0.6264 -0.6469  1.8148
  327SOL     MW 1308   7.795   7.769   9.289  0.0168  0.1072  0.0483
  328SOL     OW 1309   6.707   9.804  10.042 -0.1095  0.6369 -0.0564
  328SOL    HW1 1310   6.647   9.876  10.020 -2.8195 -1.9236 -1.6812
  328SOL    HW2 1311   6.745   9.777   9.959  0.8817  0.1324  0.5313
  328SOL     MW 1312   6.705   9.810  10.029 -0.3296  0.2446 -0.1892
  329SOL     OW 1313   7.143   0.375   9.940  0.5390  0.5249  0.0542
  329SOL    HW1 1314   7.091   0.330   9.873 -1.8673  0.3056  1.9288
  329SOL    HW2 1315   7.215   0.415   9.891 -0.4667 -0.5245 -2.4841
  329SOL     MW 1316   7.145   0.374   9.925  0.1022  0.3625 -0.0308
  330SOL     OW 1317   9.923   4.380   9.915  0.5184 -1.0666  0.3079
  330SOL    HW1 1318   9.982   4.388   9.840  0.6651 -2.9088  0.1714
  330SOL    HW2 1319   9.971   4.419   9.988  1.0579 -0.7223 -0.2261
  330SOL     MW 1320   9.937   4.386   9.915  0.6062 -1.2583  0.2221
  331SOL     OW 1321   7.217   0.792   9.968  0.0734  0.0141 -0.1737
  331SOL    HW1 1322   7.246   0.715   9.919 -0.7900  0.1724 -0.9617
  331SOL    HW2 1323   7.295   0.848   9.973  1.0369 -1.3935  1.4328
  331SOL     MW 1324   7.231   0.789   9.963  0.0862 -0.1459 -0.0689
  332SOL     OW 1325   9.162   4.322   0.999  0.2367 -0.6929 -0.2710
  332SOL    HW1 1326   9.229   4.284   0.942  0.3366 -1.3177  0.2552
  332SOL    HW2 1327   9.184   4.290   1.087  0.6097  0.9494  0.2878
  332SOL     MW 1328   9.174   4.313   1.003  0.2972 -0.5626 -0.1321
  333SOL     OW 1329   8.635   6.047   9.410 -0.0701  0.1011 -0.1633
  333SOL    HW1 1330   8.608   5.959   9.436  1.9298 -0.3546  0.5153
  333SOL    HW2 1331   8.656   6.091   9.492 -0.0673  0.8602 -0.5700
  333SOL     MW 1332   8.634   6.041   9.424  0.1863  0.1400 -0.1285
  334SOL     OW 1333   9.440   7.687   8.960 -0.0094 -0.1704  0.4916
  334SOL    HW1 1334   9.410   7.752   8.896  1.9997  1.3880  1.0359
  334SOL    HW2 1335   9.364   7.670   9.015 -1.3400 -0.3693 -1.3366
  334SOL     MW 1336   9.426   7.693   8.959  0.0775  0.0036  0.3272
  335SOL     OW 1337   8.598   1.546   1.871  0.0452 -0.2490  0.2331
  335SOL    HW1 1338   8.667   1.609   1.889 -0.1541  0.0612 -0.0907
  335SOL    HW2 1339   8.643   1.474   1.826  0.3019 -0.4191  0.7621
  335SOL     MW 1340   8.612   1.545   1.867  0.0525 -0.2311  0.2594
  336SOL     OW 1341   6.789   5.605   1.204  0.1224  0.6589  0.1137
  336SOL    HW1 1342   6.801   5.538   1.271 -0.9041  0.7347  0.3939
  336SOL    HW2 1343   6.785   5.687   1.253 -2.5113  0.5562  0.2130
  336SOL     MW 1344   6.790   5.607   1.219 -0.3461  0.6555  0.1623
  337SOL     OW 1345   7.150   8.703   0.779 -0.1171 -0.0455  0.0926
  337SOL    HW1 1346   7.114   8.781   0.821 -0.0941 -0.8675  1.7266
  337SOL    HW2 1347   7.150   8.637   0.848  2.4308 -0.7402 -0.4698
  337SOL     MW 1348   7.145   8.704   0.793  0.2120 -0.2397  0.2298
  338SOL     OW 1349   8.827   8.619   8.587  0.5142  0.6644 -0.6220
  338SOL    HW1 1350   8.895   8.556   8.610  0.8474  1.3783  0.3885
  338SOL    HW2 1351   8.745   8.572   8.602  0.7602  0.3678 -0.1711
  338SOL     MW 1352   8.825   8.605   8.591  0.5884  0.7178 -0.4349
  339SOL     OW 1353   7.151   0.926   9.728  0.0236  0.3137 -0.6079
  339SOL    HW1 1354   7.147   0.844   9.679 -2.5092 -0.2457  0.4231
  339SOL    HW2 1355   7.174   0.900   9.817  1.2103  0.9832 -0.6891
  339SOL     MW 1356   7.154   0.912   9.733 -0.1487  0.3278 -0.4863
  340SOL     OW 1357   8.733   7.850   0.415 -0.7122 -0.4411 -0.5693
  340SOL    HW1 1358   8.751   7.892   0.330  1.0470  0.3123  0.1451
  340SOL    HW2 1359   8.757   7.758   0.402  0.4322 -0.1474 -0.6544
  340SOL     MW 1360   8.738   7.844   0.402 -0.3405 -0.3071 -0.4887
  341SOL     OW 1361   9.624   0.121   2.427 -0.1050 -0.1704 -0.0478
  341SOL    HW1 1362   9.635   0.173   2.507  0.6941  1.1865 -0.9939
  341SOL    HW2 1363   9.653   0.179   2.357 -1.6168 -1.0185 -1.4382
  341SOL     MW 1364   9.629   0.135   2.428 -0.1962 -0.1053 -0.3469
  342SOL     OW 1365   9.461   8.715   9.648  0.9502  0.9835  0.3109
  342SOL    HW1 1366   9.427   8.712   9.737  1.4752 -0.3670  0.4948
  342SOL    HW2 1367   9.456   8.624   9.618  0.2004  1.5097 -1.2710
  342SOL     MW 1368   9.456   8.703   9.655  0.9214  0.8779  0.1319
  343SOL     OW 1369   9.094   9.380   1.068  0.6682 -0.0601 -1.2601
  343SOL    HW1 1370   9.048   9.408   1.147  0.1163 -0.0937 -1.5699
  343SOL    HW2 1371   9.079   9.450   1.005  0.3100 -0.4716 -1.6394
  343SOL     MW 1372   9.086   9.393   1.070  0.5517 -0.1171 -1.3483
  344SOL     OW 1373   8.268   0.421   3.152  0.0836  0.0949  0.2598
  344SOL    HW1 1374   8.186   0.391   3.194  0.1392  1.1927  1.2001
  344SOL    HW2 1375   8.249   0.511   3.125  1.4361  0.9010  1.8502
  344SOL     MW 1376   8.255   0.428   3.154  0.2639  0.3387  0.5838
  345SOL     OW 1377   6.463   1.128   0.375  0.0480  0.1985  0.2211
  345SOL    HW1 1378   6.465   1.036   0.350  0.0544 -0.2639  1.8454
  345SOL    HW2 1379   6.550   1.161   0.354  0.4400 -0.4809  0.7554
  345SOL     MW 1380   6.474   1.120   0.369  0.0990  0.0523  0.4974
  346SOL     OW 1381   7.579   9.836   0.474  0.0382 -0.0971  0.0972
  346SOL    HW1 1382   7.665   9.871   0.450 -0.4218  1.2291  0.3271
  346SOL    HW2 1383   7.556   9.881   0.555 -0.4753 -1.1308  0.5469
  346SOL     MW 1384   7.587   9.846   0.481 -0.0864 -0.0597  0.1842
  347SOL     OW 1385   7.326   1.356   1.892 -0.0478 -0.1882  0.2471
  347SOL    HW1 1386   7.339   1.421   1.961 -0.1156  0.1948 -0.0991
  347SOL    HW2 1387   7.375   1.390   1.817 -2.2658  0.8851 -0.8236
  347SOL     MW 1388   7.334   1.369   1.891 -0.3404 -0.0018  0.0657
  348SOL     OW 1389   8.482   1.792   9.212 -0.1198  0.1273  0.1381
  348SOL    HW1 1390   8.499   1.868   9.156 -1.0104  0.2844  0.0664
  348SOL    HW2 1391   8.564   1.744   9.213  0.5194  1.1898  0.3353
  348SOL     MW 1392   8.494   1.795   9.205 -0.1520  0.2834  0.1542
  349SOL     OW 1393   7.715   5.846   0.429 -0.6496  0.1685 -0.5172
  349SOL    HW1 1394   7.789   5.842   0.490 -1.3223  0.8603  0.3782
  349SOL    HW2 1395   7.694   5.754   0.410 -1.2117 -0.1292  1.3097
  349SOL     MW 1396   7.722   5.834   0.434 -0.8077  0.2189 -0.1687
  350SOL     OW 1397   9.290   8.713   1.107 -0.0200 -0.0636  0.0820
  350SOL    HW1 1398   9.218   8.772   1.086  0.7140 -0.3514 -3.9476
  350SOL    HW2 1399   9.251   8.626   1.103  0.3336 -0.1803 -1.4369
  350SOL     MW 1400   9.276   8.709   1.104  0.1193 -0.1154 -0.6283
  351SOL     OW 1401   6.850   1.208   1.104  0.1575  1.0493  0.0357
  351SOL    HW1 1402   6.828   1.298   1.127 -0.2407  1.3359 -1.3709
  351SOL    HW2 1403   6.778   1.179   1.048 -0.2141 -0.4974  1.2162
  351SOL     MW 1404   6.838   1.216   1.100  0.0590  0.8880  0.0068
  352SOL     OW 1405   6.160   8.176   0.355  0.2792 -0.1314 -0.4447
  352SOL    HW1 1406   6.195   8.119   0.287  0.0787 -1.1927  0.3289
  352SOL    HW2 1407   6.136   8.117   0.426 -0.9580  0.8065 -0.0551
  352SOL     MW 1408   6.162   8.161   0.355  0.0952 -0.1472 -0.2958
  353SOL     OW 1409   7.503   1.256   2.200 -0.4809 -0.2719 -0.3835
  353SOL    HW1 1410   7.501   1.168   2.162  1.7325 -1.0536  1.1042
  353SOL    HW2 1411   7.479   1.243   2.292 -0.1596  0.6747 -0.1548
  353SOL     MW 1412   7.500   1.243   2.207 -0.1564 -0.2508 -0.1638
  354SOL     OW 1413   8.831   9.958   0.091  0.2139  0.4137  0.2809
  354SOL    HW1 1414   8.841   9.884   0.032  0.6545  0.5517  0.1720
  354SOL    HW2 1415   8.875  10.031   0.045 -0.5754  0.8469  0.1931
  354SOL     MW 1416   8.838   9.958   0.077  0.1693  0.4868  0.2557
  355SOL     OW 1417   7.830   1.339   0.095 -0.4922  0.9241  0.8738
  355SOL    HW1 1418   7.857   1.328   0.187  0.3186  1.4925  0.7183
  355SOL    HW2 1419   7.829   1.251   0.060 -0.5022  0.7275  1.3566
  355SOL     MW 1420   7.834   1.327   0.102 -0.3897  0.9717  0.9157
  356SOL     OW 1421   8.056   1.569   1.905  0.2562 -0.4231  0.0366
  356SOL    HW1 1422   8.059   1.483   1.862 -0.1754 -0.9073  0.9297
  356SOL    HW2 1423   7.966   1.575   1.938  0.6450 -0.2001  1.1024
  356SOL     MW 1424   8.045   1.559   1.904  0.2507 -0.4565  0.2874
  357SOL     OW 1425   6.829   4.396   0.421 -0.0641  0.4597  0.3184
  357SOL    HW1 1426   6.884   4.327   0.458 -0.4765 -0.2198 -0.2850
  357SOL    HW2 1427   6.871   4.478   0.447  0.9338 -0.0351  0.3095
  357SOL     MW 1428   6.841   4.398   0.429  0.0109  0.3094  0.2400
  358SOL     OW 1429   7.333   4.124   0.525 -0.3039  0.0634  0.1316
  358SOL    HW1 1430   7.390   4.201   0.523 -0.0586 -0.1275 -0.3509
  358SOL    HW2 1431   7.282   4.134   0.605  0.6844  0.0518  0.7931
  358SOL     MW 1432   7.334   4.135   0.535 -0.1460  0.0374  0.1545
  359SOL     OW 1433   8.306  10.000   9.931 -0.2928 -0.4427  0.4908
  359SOL    HW1 1434   8.313  10.082   9.882 -1.3946  0.6564  2.0702
  359SOL    HW2 1435   8.309   9.932   9.864  0.3928  0.8832 -0.8934
  359SOL     MW 1436   8.308  10.002   9.916 -0.3460 -0.1323  0.5158
  360SOL     OW 1437   8.756   1.147   0.607  0.3845  0.1917  0.0934
  360SOL    HW1 1438   8.818   1.154   0.534 -0.3855  0.0799 -0.5910
  360SOL    HW2 1439   8.727   1.056   0.606  2.3740 -0.5656  2.2662
  360SOL     MW 1440   8.760   1.137   0.598  0.5406  0.0805  0.2839
  361SOL     OW 1441   7.033   4.263   1.248 -0.5888 -0.3384  0.6001
  361SOL    HW1 1442   7.056   4.354   1.265 -1.1710 -0.0488 -0.1153
  361SOL    HW2 1443   7.091   4.212   1.305  1.4169  0.3964 -0.6603
  361SOL     MW 1444   7.044   4.268   1.257 -0.4066 -0.2072  0.3472
  362SOL     OW 1445   7.787   5.324   2.635 -0.2005  0.1465 -0.5035
  362SOL    HW1 1446   7.725   5.252   2.637  0.2156 -0.2023  0.7166
  362SOL    HW2 1447   7.869   5.284   2.607 -0.1150  0.2547 -0.4092
  362SOL     MW 1448   7.790   5.310   2.632 -0.1363  0.1157 -0.3352
  363SOL     OW 1449   9.171   2.909   9.645 -0.2179 -0.2103 -0.1416
  363SOL    HW1 1450   9.128   2.907   9.730 -1.4489  0.5765 -0.7152
  363SOL    HW2 1451   9.217   2.993   9.644 -1.0969  0.2852 -0.6418
  363SOL     MW 1452   9.171   2.920   9.656 -0.4880 -0.0461 -0.2790
  364SOL     OW 1453   9.578   4.626   0.418  0.5143  0.1630  0.6559
  364SOL    HW1 1454   9.617   4.561   0.476  0.0584 -0.5283  0.2022
  364SOL    HW2 1455   9.647   4.691   0.405  1.4113 -0.8525  0.1529
  364SOL     MW 1456   9.592   4.626   0.423  0.5708 -0.0555  0.5334
  365SOL     OW 1457   6.584   2.162   1.041  0.1262 -0.1161  0.5802
  365SOL    HW1 1458   6.543   2.105   1.106 -1.6303 -0.3119 -0.6309
  365SOL    HW2 1459   6.601   2.104   0.966  0.6548  0.4319  0.2724
  365SOL     MW 1460   6.581   2.147   1.040 -0.0309 -0.0710  0.3858
  366SOL     OW 1461   8.122   8.766  10.088  0.0618  0.3980  0.4294
  366SOL    HW1 1462   8.088   8.745  10.174 -1.2365  0.9682  0.0822
  366SOL    HW2 1463   8.097   8.858  10.074 -1.3756 -0.1922 -1.2754
  366SOL     MW 1464   8.114   8.775  10.097 -0.2884  0.3955  0.1667
  367SOL     OW 1465   9.217   8.350   0.509  0.4475 -0.1717 -0.1603
  367SOL    HW1 1466   9.154   8.332   0.578  0.8753 -1.0349  0.0176
  367SOL    HW2 1467   9.164   8.379   0.435  0.0283  1.4941  0.7205
  367SOL     MW 1468   9.202   8.352   0.508  0.4486 -0.0690 -0.0248
  368SOL     OW 1469   7.572   6.243   9.883  0.0760 -0.2003  0.2222
  368SOL    HW1 1470   7.581   6.336   9.863  0.5229 -0.0611  1.0341
  368SOL    HW2 1471   7.616   6.232   9.967 -0.2735 -1.0851  0.3004
  368SOL     MW 1472   7.579   6.253   9.891  0.0885 -0.2958  0.3361
  369SOL     OW 1473   8.177   9.726   2.379 -0.3089  0.0937  0.4643
  369SOL    HW1 1474   8.221   9.796   2.426 -0.2881 -0.5109  1.3770
  369SOL    HW2 1475   8.142   9.767   2.300 -0.0597  1.0558  0.8493
  369SOL     MW 1476   8.178   9.740   2.375 -0.2743  0.1394  0.6305
  370SOL     OW 1477   9.513   0.338   2.577  0.0753 -0.1571 -0.2854
  370SOL    HW1 1478   9.486   0.425   2.605  1.8955  0.5432 -0.5994
  370SOL    HW2 1479   9.432   0.297   2.545 -0.8719  1.2653  0.1987
  370SOL     MW 1480   9.499   0.344   2.576  0.1871  0.1146 -0.2636
  371SOL     OW 1481   7.001   2.672   9.943 -0.0908 -0.0858  0.3846
  371SOL    HW1 1482   6.972   2.732  10.012 -0.2875 -0.9198  1.0381
  371SOL    HW2 1483   7.003   2.586   9.985  0.9250 -0.4313 -0.3312
  371SOL     MW 1484   6.998   2.669   9.957  0.0141 -0.2368  0.3766
  372SOL     OW 1485   8.713  10.001   1.174 -0.5306  0.0015 -0.4542
  372SOL    HW1 1486   8.708   9.914   1.214 -1.3928 -1.0261 -2.6642
  372SOL    HW2 1487   8.627  10.014   1.134  0.0111  1.3333 -1.2435
  372SOL     MW 1488   8.701   9.992   1.174 -0.5716  0.0404 -0.8381
  373SOL     OW 1489   6.870   8.623   1.010 -0.0181 -0.0802  0.2228
  373SOL    HW1 1490   6.933   8.556   0.982  1.2688  1.5312 -0.9621
  373SOL    HW2 1491   6.888   8.635   1.103 -0.2509 -1.3206  0.4495
  373SOL     MW 1492   6.881   8.616   1.019  0.1168 -0.0327  0.1001
  374SOL     OW 1493   8.016   8.997   1.020 -0.9443 -0.7619 -0.3212
  374SOL    HW1 1494   7.998   8.946   0.941  0.3111 -1.3821 -0.2389
  374SOL    HW2 1495   7.984   9.084   1.001  0.9096 -0.4109 -2.2472
  374SOL     MW 1496   8.010   9.001   1.007 -0.5463 -0.7964 -0.5572
  375SOL     OW 1497   0.016   1.487   9.999 -0.5789 -0.3452  0.1747
  375SOL    HW1 1498   0.003   1.441  10.081 -0.9150 -3.8008 -1.6281
  375SOL    HW2 1499   0.089   1.547  10.017 -2.4699  1.1785  3.6542
  375SOL     MW 1500   0.024   1.489  10.012 -0.8640 -0.5925  0.3894
  376SOL     OW 1501   9.374   7.213   0.176 -0.0903 -0.0149  0.1610
  376SOL    HW1 1502   9.349   7.210   0.083 -0.3909 -1.7233  0.2724
  376SOL    HW2 1503   9.382   7.307   0.195 -1.5115  0.4347 -1.1940
  376SOL     MW 1504   9.372   7.225   0.166 -0.3107 -0.1760  0.0018
  377SOL     OW 1505   6.816   8.376   1.684 -0.8796 -0.4795  0.3490
  377SOL    HW1 1506   6.881   8.328   1.735 -1.3238 -1.2318  0.2304
  377SOL    HW2 1507   6.818   8.334   1.597 -0.9754  0.0021  0.1105
  377SOL     MW 1508   6.824   8.364   1.679 -0.9487 -0.5142  0.3033
  378SOL     OW 1509   7.869   0.474   2.353  0.0542 -0.2681 -0.2779
  378SOL    HW1 1510   7.902   0.563   2.343 -1.3794  0.2865 -0.2425
  378SOL    HW2 1511   7.816   0.477   2.433 -0.9403 -0.8571 -0.9043
  378SOL     MW 1512   7.867   0.486   2.362 -0.2566 -0.2725 -0.3535
  379SOL     OW 1513   7.236   2.874   0.760 -0.1606 -0.6740 -0.1402
  379SOL    HW1 1514   7.270   2.786   0.776  2.1181  0.3757  1.1506
  379SOL    HW2 1515   7.310   2.923   0.727 -0.8053  1.3141  1.2015
  379SOL     MW 1516   7.250   2.869   0.758  0.0486 -0.2851  0.1968
  380SOL     OW 1517   6.964   6.237   0.380  0.0882  0.2274 -0.5559
  380SOL    HW1 1518   6.938   6.327   0.361 -0.6600 -0.0385 -0.8491
  380SOL    HW2 1519   6.928   6.186   0.307 -1.3371 -0.5934  0.6628
  380SOL     MW 1520   6.956   6.242   0.368 -0.1901  0.0883 -0.4375
  381SOL     OW 1521   6.445   0.131   2.188 -0.1189  0.4064 -0.5542
  381SOL    HW1 1522   6.455   0.071   2.262 -2.7802 -0.4650 -0.7804
  381SOL    HW2 1523   6.519   0.191   2.195  0.1701 -0.1506  2.3414
  381SOL     MW 1524   6.456   0.131   2.198 -0.4226  0.2236 -0.2125
  382SOL     OW 1525   6.599   0.699   2.677  0.1159  0.0178  0.4310
  382SOL    HW1 1526   6.521   0.741   2.713  0.6983  0.7548  0.8774
  382SOL    HW2 1527   6.598   0.611   2.714 -1.1063 -0.3783 -0.4857
  382SOL     MW 1528   6.589   0.693   2.686  0.0340  0.0615  0.3708
  383SOL     OW 1529   7.780   7.641   0.990 -1.0214  0.1608  0.2581
  383SOL    HW1 1530   7.807   7.570   0.932  0.2501 -0.1838  1.2309
  383SOL    HW2 1531   7.815   7.720   0.949  2.4060 -0.3424  1.8866
  383SOL     MW 1532   7.788   7.642   0.977 -0.4199  0.0523  0.5911
  384SOL     OW 1533  10.140   4.493   0.822 -0.0610  0.1196  0.2989
  384SOL    HW1 1534  10.232   4.500   0.797  0.0638 -1.1548  0.3662
  384SOL    HW2 1535  10.126   4.566   0.884  1.1058 -0.1471  0.8947
  384SOL     MW 1536  10.150   4.503   0.827  0.1043 -0.0777  0.3838
  385SOL     OW 1537   9.242   7.864   2.904  0.3019  0.2247  0.5027
  385SOL    HW1 1538   9.282   7.789   2.860 -1.3459  0.3530 -1.3663
  385SOL    HW2 1539   9.316   7.923   2.922  1.4967 -1.4028  1.2026
  385SOL     MW 1540   9.257   7.862   2.901  0.2439  0.0328  0.3531
  386SOL     OW 1541   8.514  10.152   9.335  0.2317  0.5107 -0.1603
  386SOL    HW1 1542   8.586  10.184   9.389  0.6920 -1.2917  0.3597
  386SOL    HW2 1543   8.551  10.076   9.289 -1.0525  0.1566 -0.6443
  386SOL     MW 1544   8.528  10.147   9.336  0.1262  0.2346 -0.1557
  387SOL     OW 1545   7.575   6.266   2.260  1.1863 -0.0090  0.4200
  387SOL    HW1 1546   7.669   6.260   2.278  1.0859  0.0578  0.9756
  387SOL    HW2 1547   7.535   6.205   2.321  0.9930 -1.3090 -0.9683
  387SOL     MW 1548   7.582   6.258   2.270  1.1487 -0.1669  0.3134
  388SOL     OW 1549   9.300   7.444   0.989 -0.6770  0.3173  0.2372
  388SOL    HW1 1550   9.373   7.421   1.046  0.3570  0.4526 -0.9901
  388SOL    HW2 1551   9.275   7.362   0.946 -2.0944  0.0140  1.5410
  388SOL     MW 1552   9.306   7.431   0.991 -0.7261  0.2958  0.2470
  389SOL     OW 1553   0.136   6.587   2.115  0.0986  0.1121 -0.2660
  389SOL    HW1 1554   0.135   6.580   2.019  0.9998  1.1837 -0.3740
  389SOL    HW2 1555   0.229   6.582   2.138 -0.1684 -0.9420  0.6344
  389SOL     MW 1556   0.148   6.586   2.105  0.1798  0.1144 -0.1645
  390SOL     OW 1557   9.158   8.097   1.342 -0.1905  0.1305 -0.5601
  390SOL    HW1 1558   9.172   8.183   1.380 -0.9349  0.7031 -1.5268
  390SOL    HW2 1559   9.200   8.101   1.256  1.1192 -1.0035 -0.0113
  390SOL     MW 1560   9.165   8.108   1.336 -0.1181  0.0587 -0.6136
  391SOL     OW 1561   7.567   2.198   9.751  0.1697 -0.1360  0.4447
  391SOL    HW1 1562   7.504   2.266   9.774 -1.1996 -1.1095 -0.2760
  391SOL    HW2 1563   7.603   2.169   9.835 -0.1152  0.6411  0.8439
  391SOL     MW 1564   7.564   2.203   9.764 -0.0420 -0.1611  0.4036
  392SOL     OW 1565   7.715   6.560  10.158  0.0396  0.0744  0.6842
  392SOL    HW1 1566   7.636   6.513  10.185 -0.6958  0.9382  0.0730
  392SOL    HW2 1567   7.781   6.491  10.147 -0.4337 -0.5861  1.8487
  392SOL     MW 1568   7.713   6.545  10.160 -0.1151  0.1005  0.7551
  393SOL     OW 1569   9.749   8.738   0.426  0.5388  0.3725  0.1311
  393SOL    HW1 1570   9.729   8.815   0.480 -0.1380  0.3883 -0.1312
  393SOL    HW2 1571   9.670   8.685   0.430  0.2354  0.6630 -1.3337
  393SOL     MW 1572   9.737   8.741   0.433  0.4133  0.4117 -0.0900
  394SOL     OW 1573   7.851   6.015   2.707  0.5060 -0.2892  0.2748
  394SOL    HW1 1574   7.936   5.971   2.711  1.1095  0.8743  0.8600
  394SOL    HW2 1575   7.827   6.028   2.799  0.1992  0.3133  0.1103
  394SOL     MW 1576   7.859   6.011   2.720  0.5440 -0.0631  0.3286
  395SOL     OW 1577   6.195   9.451   0.654  0.1817  0.0291  0.1144
  395SOL    HW1 1578   6.286   9.451   0.685 -0.1923 -0.5146  1.2224
  395SOL    HW2 1579   6.167   9.542   0.660  0.0432 -0.1008  1.6046
  395SOL     MW 1580   6.203   9.462   0.658  0.1161 -0.0571  0.4470
  396SOL     OW 1581  10.062   7.563   9.827  0.1993  0.1114  0.1513
  396SOL    HW1 1582  10.015   7.527   9.902  1.2452 -0.7359  0.4248
  396SOL    HW2 1583  10.089   7.650   9.856 -2.0616  1.0648 -0.3944
  396SOL     MW 1584  10.060   7.569   9.840  0.0438  0.1250  0.1164
  397SOL     OW 1585   8.855   0.823   9.821  0.5962  0.6716  0.2654
  397SOL    HW1 1586   8.939   0.777   9.812 -0.4032 -1.0485 -0.9949
  397SOL    HW2 1587   8.879   0.915   9.827  2.6084  0.1736  0.7841
  397SOL     MW 1588   8.869   0.829   9.821  0.7258  0.3876  0.1705
  398SOL     OW 1589   6.375   9.737   0.484 -0.1139  0.2095 -0.3067
  398SOL    HW1 1590   6.400   9.824   0.515 -0.7535 -0.0100  0.8878
  398SOL    HW2 1591   6.320   9.753   0.408 -1.7370  0.9683  0.9584
  398SOL     MW 1592   6.371   9.750   0.479 -0.4036  0.2785  0.0081
  399SOL     OW 1593   9.621   2.477   2.321 -0.1220 -0.3113  0.4999
  399SOL    HW1 1594   9.652   2.418   2.390  0.9935 -0.8081 -0.3976
  399SOL    HW2 1595   9.526   2.461   2.318 -0.2112 -0.2349  1.9347
  399SOL     MW 1596   9.613   2.467   2.330  0.0094 -0.3651  0.5687
  400SOL     OW 1597   9.410   7.657   0.806  0.4952 -0.6556 -0.0191
  400SOL    HW1 1598   9.350   7.624   0.873  0.8941  0.3532  0.8590
  400SOL    HW2 1599   9.451   7.578   0.769 -2.1331 -1.4651 -1.4519
  400SOL     MW 1600   9.408   7.642   0.810  0.2098 -0.6301 -0.0901
  401SOL     OW 1601   7.099   9.283   9.113 -0.0628  0.2870  0.2482
  401SOL    HW1 1602   7.126   9.219   9.047  0.6022  1.3763 -0.5750
  401SOL    HW2 1603   7.141   9.364   9.086 -1.4755  1.2543  0.8400
  401SOL     MW 1604   7.108   9.285   9.101 -0.1585  0.5503  0.2186
  402SOL     OW 1605   9.622   9.446   0.083  0.5229  0.1170  0.2477
  402SOL    HW1 1606   9.575   9.519   0.122 -1.0503  0.3016 -1.8300
  402SOL    HW2 1607   9.666   9.403   0.157 -1.6859  0.8530  2.0945
  402SOL     MW 1608   9.621   9.450   0.097  0.0388  0.2349  0.2181
  403SOL     OW 1609   6.570   7.530   1.113  0.1300  0.1598 -0.2329
  403SOL    HW1 1610   6.497   7.585   1.084 -0.5369  0.1906  1.4049
  403SOL    HW2 1611   6.547   7.442   1.084 -0.1117  0.3162 -0.5214
  403SOL     MW 1612   6.558   7.526   1.106  0.0136  0.1837 -0.0601
  404SOL     OW 1613   8.830   2.826   1.075 -0.2619  0.0456  0.5039
  404SOL    HW1 1614   8.795   2.859   0.992  2.6610  1.0427 -0.4694
  404SOL    HW2 1615   8.819   2.899   1.136 -0.8770 -0.0740  0.5455
  404SOL     MW 1616   8.824   2.840   1.072  0.0335  0.1580  0.3847
  405SOL     OW 1617   9.819   1.119   1.130 -0.4193 -0.5538 -0.2086
  405SOL    HW1 1618   9.897   1.174   1.120  0.2596 -1.4302  0.0846
  405SOL    HW2 1619   9.821   1.061   1.053  0.8428 -2.4931  1.1880
  405SOL     MW 1620   9.830   1.119   1.119 -0.1708 -0.9142  0.0077
  406SOL     OW 1621   9.477   5.834   9.856 -0.2951  0.0740 -0.0039
  406SOL    HW1 1622   9.467   5.790   9.771  0.0809 -0.6790  0.3277
  406SOL    HW2 1623   9.398   5.886   9.866 -0.8922 -0.7616 -0.2878
  406SOL     MW 1624   9.466   5.835   9.846 -0.3234 -0.1294  0.0022
  407SOL     OW 1625   9.897   1.018   2.446 -0.0853 -0.1710 -0.1967
  407SOL    HW1 1626   9.966   1.028   2.379 -0.8019  0.0466 -0.9191
  407SOL    HW2 1627   9.816   1.029   2.397 -0.6582 -1.0967  0.5359
  407SOL     MW 1628   9.896   1.021   2.431 -0.2504 -0.2617 -0.1954
  408SOL     OW 1629   8.470   4.443   2.058  0.1984  0.2777 -0.1351
  408SOL    HW1 1630   8.420   4.498   2.119  0.9289  0.7947  0.0173
  408SOL    HW2 1631   8.553   4.428   2.102 -0.0221 -1.0576 -0.1361
  408SOL     MW 1632   8.474   4.448   2.071  0.2637  0.1730 -0.1157
  409SOL     OW 1633   8.768   6.337   1.530  0.1663 -0.2812 -0.2820
  409SOL    HW1 1634   8.754   6.339   1.624 -0.0758  0.1746 -0.3305
  409SOL    HW2 1635   8.863   6.328   1.520  0.2933  0.6516 -0.0022
  409SOL     MW 1636   8.778   6.336   1.540  0.1516 -0.1034 -0.2524
  410SOL     OW 1637   9.673   2.569   9.988 -0.1427 -0.2469  0.2235
  410SOL    HW1 1638   9.644   2.489  10.032  2.3638 -1.7214 -0.5893
  410SOL    HW2 1639   9.684   2.633  10.059 -0.5109 -1.1646  1.1251
  410SOL     MW 1640   9.670   2.567  10.003  0.1310 -0.5531  0.2348
  411SOL     OW 1641   9.898   3.622   1.579 -0.4765 -0.1011 -0.4929
  411SOL    HW1 1642   9.849   3.678   1.518  0.0097  2.2807  1.1291
  411SOL    HW2 1643   9.990   3.646   1.565 -0.2844 -0.1828  0.5112
  411SOL     MW 1644   9.904   3.633   1.570 -0.3897  0.1933 -0.1567
  412SOL     OW 1645   7.382   5.098   9.737 -0.1558 -0.4289 -0.5083
  412SOL    HW1 1646   7.348   5.093   9.648  1.6874 -1.0891 -1.2232
  412SOL    HW2 1647   7.307   5.073   9.793 -1.7407  1.3630 -1.7128
  412SOL     MW 1648   7.368   5.094   9.733 -0.1227 -0.2840 -0.7540
  413SOL     OW 1649   7.896   8.163   2.154  0.4145  0.0218  0.6294
  413SOL    HW1 1650   7.829   8.214   2.109  0.8998  1.2162  1.2238
  413SOL    HW2 1651   7.947   8.124   2.084 -0.2470 -0.0206  0.1651
  413SOL     MW 1652   7.894   8.165   2.139  0.3919  0.1693  0.6460
  414SOL     OW 1653   9.270   8.825   2.132 -0.2853 -0.5987  0.1145
  414SOL    HW1 1654   9.345   8.880   2.156  0.9650 -2.7539  1.5362
  414SOL    HW2 1655   9.193   8.878   2.155  0.8479  0.3409  2.0161
  414SOL     MW 1656   9.270   8.839   2.138  0.0198 -0.7543  0.5399
  415SOL     OW 1657   6.829   2.018   1.512  0.0355  0.1895  0.1410
  415SOL    HW1 1658   6.775   1.940   1.506  1.0462 -0.5988  0.9922
  415SOL    HW2 1659   6.804   2.058   1.595  0.7380 -0.1742  0.5339
  415SOL     MW 1660   6.819   2.014   1.522  0.2548  0.0420  0.3002
  416SOL     OW 1661   9.947   6.173   0.821 -0.4579 -0.5855 -0.4249
  416SOL    HW1 1662   9.970   6.129   0.740  1.0839 -1.1893  0.3097
  416SOL    HW2 1663  10.030   6.186   0.866 -0.6999  3.4158 -0.7342
  416SOL     MW 1664   9.961   6.169   0.816 -0.2915 -0.1505 -0.3705
  417SOL     OW 1665   6.978   5.124   2.133 -0.0757  0.0132  0.4056
  417SOL    HW1 1666   7.058   5.166   2.102  0.0305 -1.3458 -1.3364
  417SOL    HW2 1667   6.967   5.156   2.222  3.4758 -1.1679  1.4584
  417SOL     MW 1668   6.987   5.133   2.140  0.3925 -0.3120  0.3173
  418SOL     OW 1669   9.051   7.123   9.624  0.2932  0.4386  0.1560
  418SOL    HW1 1670   9.115   7.086   9.684  0.9770  0.4247 -0.5727
  418SOL    HW2 1671   9.035   7.054   9.560 -0.0189  0.6530 -0.0020
  418SOL     MW 1672   9.057   7.110   9.623  0.3408  0.4643  0.0425
  419SOL     OW 1673   7.088   9.946   1.084  0.2899  0.5422 -0.0912
  419SOL    HW1 1674   7.148   9.964   1.157  0.1400  0.9483 -0.0645
  419SOL    HW2 1675   7.047   9.863   1.106 -0.1643  0.9277  0.5613
  419SOL     MW 1676   7.091   9.938   1.096  0.2125  0.6435 -0.0042
  420SOL     OW 1677   7.326   2.730   9.364 -0.2493  0.9226  0.3198
  420SOL    HW1 1678   7.383   2.758   9.436 -0.2325 -0.8198  1.0169
  420SOL    HW2 1679   7.260   2.800   9.357 -0.2818  1.1049  2.0667
  420SOL     MW 1680   7.325   2.743   9.373 -0.2513  0.7229  0.6327
  421SOL     OW 1681   6.327   7.436   0.969  0.3052  0.2620 -0.5344
  421SOL    HW1 1682   6.288   7.388   0.896  0.2395 -1.3256  0.5163
  421SOL    HW2 1683   6.261   7.435   1.038  0.8236  0.7048 -0.0167
  421SOL     MW 1684   6.314   7.430   0.968  0.3632  0.1154 -0.3336
  422SOL     OW 1685   7.496   9.308   9.324  0.6373 -0.2517 -0.1644
  422SOL    HW1 1686   7.424   9.248   9.302  0.2907  0.8509 -2.2919
  422SOL    HW2 1687   7.461   9.395   9.304  2.3543  0.3519 -0.6613
  422SOL     MW 1688   7.482   9.311   9.319  0.8127 -0.0333 -0.5004
  423SOL     OW 1689   8.581   7.758   0.755 -0.0030 -0.4788 -0.2560
  423SOL    HW1 1690   8.520   7.821   0.795 -0.4102 -0.4635 -0.8845
  423SOL    HW2 1691   8.527   7.710   0.692  0.8128  0.1326 -1.4643
  423SOL     MW 1692   8.566   7.760   0.752  0.0493 -0.3986 -0.4912
  424SOL     OW 1693   8.683   4.511   2.306  0.0412 -0.4093 -0.3465
  424SOL    HW1 1694   8.635   4.475   2.381 -0.0723 -1.0723 -0.7319
  424SOL    HW2 1695   8.730   4.436   2.270  0.6712  0.0525 -0.5113
  424SOL     MW 1696   8.683   4.497   2.311  0.1073 -0.4351 -0.4169
  425SOL     OW 1697   9.549   5.431   2.560  0.0362  0.4942  0.1065
  425SOL    HW1 1698   9.503   5.365   2.506 -0.1891 -1.1108  2.1277
  425SOL    HW2 1699   9.479   5.488   2.592 -0.0401  0.4620 -0.0012
  425SOL     MW 1700   9.534   5.430   2.557 -0.0024  0.2846  0.3515
  426SOL     OW 1701   8.722   5.138   1.244 -0.3032  0.6932 -0.3633
  426SOL    HW1 1702   8.701   5.081   1.318  2.1652 -0.9177 -0.7907
  426SOL    HW2 1703   8.813   5.117   1.223 -0.6318  1.7893 -3.2643
  426SOL     MW 1704   8.731   5.128   1.251 -0.0293  0.6273 -0.7894
  427SOL     OW 1705   6.566   0.132   1.327 -0.1551  0.3869 -0.2100
  427SOL    HW1 1706   6.562   0.037   1.337  0.3145  0.2959 -0.8426
  427SOL    HW2 1707   6.549   0.166   1.415 -0.9354 -0.2612 -0.0941
  427SOL     MW 1708   6.563   0.124   1.339 -0.1949  0.2923 -0.2761
  428SOL     OW 1709   6.573   4.400   0.463 -0.3283 -0.2798 -0.1174
  428SOL    HW1 1710   6.545   4.315   0.497  0.7966 -0.1197  1.2937
  428SOL    HW2 1711   6.667   4.390   0.448 -0.2859  0.5494 -0.4438
  428SOL     MW 1712   6.582   4.388   0.466 -0.1789 -0.1532  0.0214
  429SOL     OW 1713   7.021  10.140   9.857 -0.1460  0.0720 -0.4457
  429SOL    HW1 1714   6.996  10.083   9.929  1.0161 -0.5453 -0.4979
  429SOL    HW2 1715   7.114  10.157   9.872 -0.2317  1.1166 -1.0088
  429SOL     MW 1716   7.030  10.135   9.868 -0.0082  0.1267 -0.5245
  430SOL     OW 1717   7.975   4.063   2.633  0.1283 -0.5625  0.3194
  430SOL    HW1 1718   8.000   3.972   2.645  0.0663 -0.5467  0.5811
  430SOL    HW2 1719   7.930   4.087   2.714 -1.3538 -0.7865 -0.4149
  430SOL     MW 1720   7.973   4.055   2.645 -0.0694 -0.5892  0.2589
  431SOL     OW 1721   8.295   9.782   0.573  0.1986  0.4204  0.2355
  431SOL    HW1 1722   8.363   9.773   0.506 -0.1988 -1.2067  0.0108
  431SOL    HW2 1723   8.253   9.865   0.553  0.4815  0.2535 -1.1775
  431SOL     MW 1724   8.298   9.792   0.562  0.1839  0.1907  0.0258
  432SOL     OW 1725   0.145   4.411  10.143  0.0970 -0.3965 -1.0537
  432SOL    HW1 1726   0.052   4.422  10.163  0.2494 -0.1367 -0.4791
  432SOL    HW2 1727   0.157   4.459  10.061  0.0682  1.0075 -0.2663
  432SOL     MW 1728   0.135   4.419  10.135  0.1129 -0.1835 -0.8793
  433SOL     OW 1729   8.937   6.419   0.712  0.2540 -0.0873 -0.1800
  433SOL    HW1 1730   8.844   6.435   0.729  0.1987 -1.0988  0.6075
  433SOL    HW2 1731   8.966   6.366   0.786  1.4875  0.2728 -0.3802
  433SOL     MW 1732   8.929   6.414   0.724  0.4048 -0.1707 -0.1049
  434SOL     OW 1733   8.389   6.346   0.287  0.4949 -0.3210 -0.2650
  434SOL    HW1 1734   8.440   6.342   0.206  0.5625 -1.8149 -0.1849
  434SOL    HW2 1735   8.313   6.399   0.265  0.4618 -0.7950 -1.3522
  434SOL     MW 1736   8.386   6.352   0.274  0.4993 -0.5729 -0.3939
  435SOL     OW 1737   8.161   4.392   0.877  0.1189  0.2937 -0.3782
  435SOL    HW1 1738   8.124   4.336   0.946 -0.5656  0.7498 -0.3659
  435SOL    HW2 1739   8.135   4.481   0.901  0.2015  0.5002 -1.0264
  435SOL     MW 1740   8.153   4.396   0.889  0.0419  0.3785 -0.4596
  436SOL     OW 1741   8.507   2.614  10.039 -0.2474 -0.4932  0.3817
  436SOL    HW1 1742   8.523   2.658   9.955 -0.6214 -0.1502  0.4852
  436SOL    HW2 1743   8.550   2.529  10.030  1.6890  0.4058  0.6648
  436SOL     MW 1744   8.515   2.609  10.027 -0.0474 -0.3342  0.4312
  437SOL     OW 1745   8.448   0.206   1.040 -0.1077  0.5297 -0.6415
  437SOL    HW1 1746   8.475   0.245   1.123 -1.2173  1.2769 -0.6134
  437SOL    HW2 1747   8.356   0.230   1.031 -0.5454 -1.2228 -1.1458
  437SOL     MW 1748   8.440   0.214   1.049 -0.3057  0.4010 -0.7025
  438SOL     OW 1749  10.045   8.471   1.508  0.0930 -0.6887 -0.5007
  438SOL    HW1 1750  10.077   8.403   1.567 -2.5854  0.6438  2.8127
  438SOL    HW2 1751   9.998   8.423   1.439  1.7393 -2.2436 -0.6013
  438SOL     MW 1752  10.043   8.456   1.507 -0.0392 -0.7172 -0.0894
  439SOL     OW 1753   8.627   0.834   0.298  0.6592 -0.1171 -0.1792
  439SOL    HW1 1754   8.535   0.808   0.308  1.1478 -1.3573  1.6955
  439SOL    HW2 1755   8.625   0.909   0.238 -1.4670 -0.6881 -0.9079
  439SOL     MW 1756   8.615   0.840   0.292  0.4496 -0.3490 -0.0325
  440SOL     OW 1757   8.874   2.450   9.441 -0.0387 -0.1112  1.2535
  440SOL    HW1 1758   8.955   2.500   9.428 -0.4214  0.1828 -0.1653
  440SOL    HW2 1759   8.838   2.484   9.523 -0.3603  2.1205  0.2822
  440SOL     MW 1760   8.880   2.461   9.450 -0.1288  0.2121  0.9476
  441SOL     OW 1761   9.891   5.494   9.677  0.8482  0.2087 -0.4098
  441SOL    HW1 1762   9.809   5.492   9.727 -1.2820  0.2517 -3.5440
  441SOL    HW2 1763   9.942   5.421   9.711 -0.2403  0.5003  2.0304
  441SOL     MW 1764   9.887   5.485   9.688  0.4361  0.2515 -0.4986
  442SOL     OW 1765   8.266   6.397   1.061 -0.1978 -0.5348 -0.1188
  442SOL    HW1 1766   8.177   6.367   1.044 -0.2081 -0.5178 -0.0978
  442SOL    HW2 1767   8.255   6.486   1.096 -0.1253 -0.1082 -1.1224
  442SOL     MW 1768   8.253   6.405   1.063 -0.1899 -0.4780 -0.2446
  443SOL     OW 1769   8.334   7.154  10.158 -0.1510 -0.3212  0.1627
  443SOL    HW1 1770   8.274   7.145  10.084 -0.4376  1.2629  0.1832
  443SOL    HW2 1771   8.398   7.084  10.145  1.0779  1.2094 -2.7747
  443SOL     MW 1772   8.334   7.144  10.147 -0.0304  0.0775 -0.2107
  444SOL     OW 1773   8.876   9.629   2.337  0.8899  0.0998 -0.3413
  444SOL    HW1 1774   8.891   9.724   2.339  0.1301  0.2234  0.3436
  444SOL    HW2 1775   8.869   9.604   2.430  0.0187 -0.4289 -0.5356
  444SOL     MW 1776   8.877   9.638   2.349  0.6811  0.0479 -0.2785
  445SOL     OW 1777   8.391   4.684   2.884 -0.3742 -0.0045  0.5678
  445SOL    HW1 1778   8.380   4.755   2.821  0.4626 -0.7352 -0.4406
  445SOL    HW2 1779   8.303   4.668   2.918 -0.6770  1.0608  0.3275
  445SOL     MW 1780   8.378   4.691   2.880 -0.3059  0.0383  0.4080
  446SOL     OW 1781   8.534   5.338   2.061 -0.0030  0.1074 -0.3788
  446SOL    HW1 1782   8.522   5.355   1.967  1.1830  1.6631 -0.2904
  446SOL    HW2 1783   8.511   5.421   2.103 -0.4167 -0.5443  0.7129
  446SOL     MW 1784   8.530   5.351   2.054  0.0959  0.2231 -0.2277
  447SOL     OW 1785   8.345   3.495   9.204 -0.5731 -0.0713  0.1747
  447SOL    HW1 1786   8.365   3.451   9.122  3.0988  0.0924  0.8404
  447SOL    HW2 1787   8.351   3.588   9.183 -0.5087 -0.0157  0.4365
  447SOL     MW 1788   8.348   3.501   9.191 -0.0948 -0.0432  0.2935
  448SOL     OW 1789   6.973   7.548   9.273  0.3170  0.0565 -0.0783
  448SOL    HW1 1790   6.912   7.494   9.324  0.6480 -2.5786 -2.2752
  448SOL    HW2 1791   6.946   7.638   9.293 -3.3979 -0.9174  0.1694
  448SOL     MW 1792   6.962   7.553   9.282 -0.1162 -0.4055 -0.3278
  449SOL     OW 1793   7.831   1.613  10.165  0.4408 -0.0098  0.1587
  449SOL    HW1 1794   7.850   1.520  10.168 -1.8186 -0.6130 -1.6592
  449SOL    HW2 1795   7.825   1.633  10.071  0.1237  1.7911  0.5279
  449SOL     MW 1796   7.833   1.604  10.153  0.1110  0.1435 -0.0268
  450SOL     OW 1797   6.956   2.131   9.766  0.2070  0.6471 -0.2483
  450SOL    HW1 1798   7.004   2.191   9.710 -0.2622  0.8098 -0.4859
  450SOL    HW2 1799   6.903   2.189   9.822  0.9723  0.5051  0.6478
  450SOL     MW 1800   6.955   2.146   9.766  0.2449  0.6498 -0.1640
  451SOL     OW 1801   9.925   4.950   2.043  0.4533  0.1313 -0.5294
  451SOL    HW1 1802   9.902   4.866   2.004 -1.7318  0.3245  0.2300
  451SOL    HW2 1803  10.020   4.956   2.034  0.4690 -1.7170 -1.9628
  451SOL     MW 1804   9.934   4.940   2.037  0.1756 -0.0806 -0.6157
  452SOL     OW 1805   8.245   9.274   0.656  0.1117  0.6357  0.0663
  452SOL    HW1 1806   8.337   9.278   0.631 -0.1058 -0.1876 -0.9584
  452SOL    HW2 1807   8.246   9.239   0.745  0.8086  1.3278  0.3479
  452SOL     MW 1808   8.257   9.270   0.664  0.1730  0.6189 -0.0288
  453SOL     OW 1809   6.537  10.025   1.371  0.1005  0.2912 -0.4490
  453SOL    HW1 1810   6.539   9.961   1.442 -0.9841  0.2401 -0.4431
  453SOL    HW2 1811   6.560   9.975   1.292 -1.6556 -0.3424 -0.5971
  453SOL     MW 1812   6.540  10.010   1.370 -0.2631  0.2036 -0.4672
  454SOL     OW 1813   8.527   8.131  10.035  0.0096 -0.0669  0.5218
  454SOL    HW1 1814   8.482   8.212  10.059  0.6414  0.3499  0.3237
  454SOL    HW2 1815   8.528   8.131   9.939  0.1391 -0.2438  0.5220
  454SOL     MW 1816   8.521   8.141  10.026  0.1070 -0.0362  0.4965
  455SOL     OW 1817   8.089   9.356   2.564  0.2940  0.1252 -0.2995
  455SOL    HW1 1818   8.117   9.349   2.655 -1.1394 -0.6907  0.0986
  455SOL    HW2 1819   8.019   9.292   2.555  0.1113  0.5059 -1.8644
  455SOL     MW 1820   8.084   9.347   2.575  0.0871  0.0695 -0.4489
  456SOL     OW 1821   7.748   9.354  10.032 -0.2099  0.3158 -0.3675
  456SOL    HW1 1822   7.684   9.383  10.097  0.5956  2.0066 -0.2929
  456SOL    HW2 1823   7.799   9.287  10.077 -1.2275 -0.3094 -0.0923
  456SOL     MW 1824   7.746   9.349  10.046 -0.2370  0.4522 -0.3227
  457SOL     OW 1825   9.779   2.888   1.494  0.0914 -0.1119 -0.0851
  457SOL    HW1 1826   9.847   2.833   1.456 -0.1777 -0.2056 -0.4352
  457SOL    HW2 1827   9.793   2.974   1.453 -0.7892 -0.4465 -1.1432
  457SOL     MW 1828   9.790   2.892   1.484 -0.0558 -0.1667 -0.2654
  458SOL     OW 1829   9.777   0.320   0.779  0.1041 -0.2109 -0.2874
  458SOL    HW1 1830   9.787   0.335   0.873 -1.3836 -0.6303 -0.0350
  458SOL    HW2 1831   9.794   0.405   0.739 -2.5881  0.8930  0.6699
  458SOL     MW 1832   9.780   0.333   0.786 -0.4310 -0.1233 -0.1325
  459SOL     OW 1833   6.709   1.084  10.067 -0.1668  0.0517  0.4801
  459SOL    HW1 1834   6.794   1.088  10.110  0.5136 -2.2680 -0.4722
  459SOL    HW2 1835   6.658   1.023  10.120 -0.0750 -1.1103 -0.7196
  459SOL     MW 1836   6.713   1.077  10.079 -0.0680 -0.3940  0.2046
  460SOL     OW 1837   6.750   2.971   1.098 -0.0376 -0.1938 -0.2144
  460SOL    HW1 1838   6.743   2.956   1.193 -1.1501 -0.2396 -0.2908
  460SOL    HW2 1839   6.796   3.054   1.091 -0.0286 -0.1399  0.3763
  460SOL     MW 1840   6.755   2.979   1.109 -0.1788 -0.1928 -0.1486
  461SOL     OW 1841   6.780   0.632   2.471  0.0494  0.3110  0.4059
  461SOL    HW1 1842   6.799   0.707   2.415 -2.5443 -0.0142 -1.0410
  461SOL    HW2 1843   6.726   0.667   2.542  0.2820  0.0882  0.6991
  461SOL     MW 1844   6.775   0.646   2.473 -0.2529  0.2409  0.2582
  462SOL     OW 1845   9.300   7.806  10.179 -0.5441  0.4734  0.0204
  462SOL    HW1 1846   9.287   7.797  10.084  1.5145 -0.9700 -0.1925
  462SOL    HW2 1847   9.275   7.721  10.214 -0.1147  0.5831  0.6059
  462SOL     MW 1848   9.295   7.794  10.171 -0.2256  0.3027  0.0681
  463SOL     OW 1849   7.906   6.031  10.108 -0.0112 -0.3485  0.1996
  463SOL    HW1 1850   7.922   5.940  10.081 -0.7630 -0.3633 -0.2128
  463SOL    HW2 1851   7.865   6.023  10.194  0.7216 -0.3630  0.5554
  463SOL     MW 1852   7.903   6.018  10.116 -0.0136 -0.3523  0.1924
  464SOL     OW 1853   8.654   8.215   1.049 -0.3716  0.2471  0.2670
  464SOL    HW1 1854   8.678   8.245   1.137 -3.1186  1.8379  0.5969
  464SOL    HW2 1855   8.733   8.174   1.015  1.5209  1.7277  2.5638
  464SOL     MW 1856   8.667   8.214   1.056 -0.4810  0.6403  0.6032
  465SOL     OW 1857   7.799   2.012   9.453  0.1258  0.0530  0.4130
  465SOL    HW1 1858   7.831   1.934   9.499 -0.4282 -1.3864 -1.5150
  465SOL    HW2 1859   7.710   2.023   9.486 -0.1591 -0.7737 -0.0458
  465SOL     MW 1860   7.792   2.003   9.463  0.0184 -0.2371  0.1075
  466SOL     OW 1861   7.744   8.772   9.929 -0.0474 -0.5821  0.3553
  466SOL    HW1 1862   7.663   8.823   9.930  0.6870  0.6257 -0.0397
  466SOL    HW2 1863   7.767   8.764  10.021  0.2820  0.5680  0.3887
  466SOL     MW 1864   7.736   8.778   9.941  0.0888 -0.2803  0.3090
  467SOL     OW 1865   9.068   1.705   2.009  0.2431  0.0542  0.1341
  467SOL    HW1 1866   9.039   1.640   1.944 -0.2556  0.2370  0.1685
  467SOL    HW2 1867   8.989   1.728   2.057  0.8550 -1.1576  1.8131
  467SOL     MW 1868   9.054   1.699   2.007  0.2576 -0.0775  0.3535
  468SOL     OW 1869   5.821   0.369   1.238  0.8165  0.1968  0.4353
  468SOL    HW1 1870   5.864   0.443   1.194 -0.0105  0.8537  0.7135
  468SOL    HW2 1871   5.803   0.401   1.326  0.4479 -0.3423  0.5588
  468SOL     MW 1872   5.824   0.382   1.243  0.6635  0.2119  0.4867
  469SOL     OW 1873   7.362   6.828   2.271  0.1171 -0.2266 -0.7403
  469SOL    HW1 1874   7.402   6.891   2.212  0.0939 -1.1167 -1.7439
  469SOL    HW2 1875   7.435   6.776   2.305  0.1110  0.1624 -0.1057
  469SOL     MW 1876   7.376   6.829   2.268  0.1134 -0.2908 -0.7875
  470SOL     OW 1877   9.027   2.673   9.181  0.1009 -0.3246 -0.6634
  470SOL    HW1 1878   9.001   2.741   9.242  2.5010  0.2945 -0.2382
  470SOL    HW2 1879   9.084   2.615   9.232  0.5421 -0.9176 -1.7930
  470SOL     MW 1880   9.031   2.674   9.195  0.4646 -0.3212 -0.7536
  471SOL     OW 1881   9.064   7.789   9.418  0.3807 -0.3914 -0.2585
  471SOL    HW1 1882   9.147   7.800   9.465 -0.0460  3.0581 -0.0751
  471SOL    HW2 1883   9.001   7.770   9.486  0.5311  0.0411  0.0080
  471SOL     MW 1884   9.067   7.788   9.432  0.3453  0.1056 -0.2009
  472SOL     OW 1885   9.594   2.204   2.960  0.1252  0.0627 -0.2316
  472SOL    HW1 1886   9.660   2.163   3.016 -0.5886 -1.4002 -0.4010
  472SOL    HW2 1887   9.639   2.278   2.920  1.3993 -0.3831  0.3197
  472SOL     MW 1888   9.608   2.208   2.962  0.1969 -0.1816 -0.1827
  473SOL     OW 1889   9.832   8.662   1.894  0.3589  0.5776  0.3901
  473SOL    HW1 1890   9.833   8.756   1.912 -0.2697  0.5769  0.4547
  473SOL    HW2 1891   9.740   8.642   1.875  0.6504  0.1921 -0.7367
  473SOL     MW 1892   9.820   8.671   1.894  0.3157  0.5282  0.2541
  474SOL     OW 1893  10.091   4.766   9.847 -0.1393 -0.3606  0.1470
  474SOL    HW1 1894  10.054   4.757   9.759 -2.3276  0.9232  0.8552
  474SOL    HW2 1895  10.143   4.846   9.843  0.7510 -0.9293 -0.2323
  474SOL     MW 1896  10.093   4.775   9.835 -0.3054 -0.2691  0.1891
  475SOL     OW 1897   8.330   2.327   2.897  0.4655 -0.7889 -0.4199
  475SOL    HW1 1898   8.313   2.421   2.889  0.4647 -0.8296 -0.9822
  475SOL    HW2 1899   8.425   2.319   2.887  0.3890 -0.9098 -1.1219
  475SOL     MW 1900   8.340   2.338   2.895  0.4556 -0.8096 -0.5817
  476SOL     OW 1901   7.415   8.312   9.138 -0.0598  0.0781 -0.1918
  476SOL    HW1 1902   7.353   8.243   9.160 -1.6025  0.0798 -3.8714
  476SOL    HW2 1903   7.494   8.265   9.111  0.2498 -0.0588  0.9083
  476SOL     MW 1904   7.417   8.297   9.137 -0.2176  0.0608 -0.5221
  477SOL     OW 1905   8.024   9.435   1.883 -0.1205 -0.2708 -0.0102
  477SOL    HW1 1906   7.955   9.437   1.816 -1.2040 -0.5098  1.0586
  477SOL    HW2 1907   7.996   9.501   1.947 -0.0070 -1.2266  1.0483
  477SOL     MW 1908   8.012   9.444   1.882 -0.2447 -0.4238  0.2621
  478SOL     OW 1909   9.540   2.654   0.179 -0.3316 -0.1247 -0.2025
  478SOL    HW1 1910   9.597   2.700   0.118 -0.6622  0.7128  0.1041
  478SOL    HW2 1911   9.563   2.690   0.265 -0.7558 -0.3655  0.0128
  478SOL     MW 1912   9.550   2.665   0.182 -0.4282 -0.0483 -0.1357
  479SOL     OW 1913   8.663   8.838   9.366 -0.0877 -0.0374  0.1612
  479SOL    HW1 1914   8.583   8.887   9.346 -0.9974 -1.9418 -1.2329
  479SOL    HW2 1915   8.708   8.829   9.283  1.4039  0.6612  0.8652
  479SOL     MW 1916   8.658   8.843   9.353 -0.0132 -0.1918  0.0729
  480SOL     OW 1917   7.105   3.251   1.054  0.0835 -0.7010 -0.3891
  480SOL    HW1 1918   7.192   3.224   1.085  0.3362 -3.0288 -2.7657
  480SOL    HW2 1919   7.120   3.281   0.965 -1.3461  0.5171 -0.2459
  480SOL     MW 1920   7.118   3.251   1.047 -0.0671 -0.8431 -0.6750
  481SOL     OW 1921   8.262   9.029   8.676  0.5267  0.3329  0.4365
  481SOL    HW1 1922   8.245   9.047   8.768  1.8273  0.7576  0.6166
  481SOL    HW2 1923   8.195   8.965   8.651 -1.5593  2.2158  0.9193
  481SOL     MW 1924   8.251   9.023   8.684  0.4261  0.6283  0.5214
  482SOL     OW 1925   9.998   9.138   2.225 -0.1172 -0.1309 -0.3606
  482SOL    HW1 1926   9.968   9.129   2.315 -2.7092  0.4162 -1.0878
  482SOL    HW2 1927   9.987   9.051   2.187 -0.8475  0.0620 -0.6170
  482SOL     MW 1928   9.993   9.126   2.232 -0.5425 -0.0361 -0.4865
  483SOL     OW 1929   8.233   9.039   8.943  0.4431 -0.4609  0.0171
  483SOL    HW1 1930   8.307   9.020   9.000  0.5303 -1.6056 -0.4545
  483SOL    HW2 1931   8.194   9.118   8.980  0.8637 -0.8290  1.2907
  483SOL     MW 1932   8.237   9.047   8.955  0.5081 -0.6546  0.1198
  484SOL     OW 1933   7.871   5.364   0.126 -0.1241 -0.5250  0.2992
  484SOL    HW1 1934   7.913   5.448   0.106 -1.8146  0.2313 -0.1966
  484SOL    HW2 1935   7.912   5.337   0.209  2.1184 -0.4025 -0.6995
  484SOL     MW 1936   7.882   5.371   0.134 -0.0534 -0.4125  0.1079
  485SOL     OW 1937   8.512   0.487   1.829  0.0649  0.5620 -0.1026
  485SOL    HW1 1938   8.535   0.401   1.795 -0.1328 -0.4784  2.2330
  485SOL    HW2 1939   8.453   0.469   1.902 -1.5056  2.7883 -0.7017
  485SOL     MW 1940   8.507   0.474   1.834 -0.1615  0.7138  0.1197
  486SOL     OW 1941   6.443   0.628   1.898  0.3783  0.5878 -0.5282
  486SOL    HW1 1942   6.471   0.627   1.989 -0.0303 -0.1140 -0.4045
  486SOL    HW2 1943   6.401   0.713   1.887 -0.3665  0.3262  0.1881
  486SOL     MW 1944   6.441   0.639   1.908  0.2306  0.4645 -0.4207
  487SOL     OW 1945   8.095   6.556   2.411 -0.0431  0.0772  0.1233
  487SOL    HW1 1946   8.011   6.592   2.382  0.9840  2.4658 -0.0870
  487SOL    HW2 1947   8.085   6.547   2.506 -0.6996 -0.1628  0.0362
  487SOL     MW 1948   8.083   6.560   2.420  0.0043  0.3522  0.0852
  488SOL     OW 1949   8.499   2.104   0.010 -0.0363 -0.2800  0.1652
  488SOL    HW1 1950   8.540   2.027   0.048 -0.6055 -0.9940 -0.6432
  488SOL    HW2 1951   8.416   2.073  -0.024  0.2608  0.4154 -1.2705
  488SOL     MW 1952   8.494   2.090   0.011 -0.0712 -0.2824 -0.1221
  489SOL     OW 1953   7.527   7.484   1.337  0.0752  0.1667 -0.3025
  489SOL    HW1 1954   7.599   7.533   1.298  0.6692 -1.2062 -1.0378
  489SOL    HW2 1955   7.450   7.509   1.286  0.0789  1.3975  0.2783
  489SOL     MW 1956   7.526   7.493   1.325  0.1517  0.1485 -0.3223
  490SOL     OW 1957   6.594   0.253   0.887  0.1585 -0.0987 -0.1370
  490SOL    HW1 1958   6.552   0.184   0.940 -1.4255  0.4558 -0.6214
  490SOL    HW2 1959   6.622   0.318   0.951 -0.2381 -0.2171  0.1624
  490SOL     MW 1960   6.592   0.252   0.902 -0.0950 -0.0429 -0.1607
  491SOL     OW 1961   9.618   3.377   2.682 -0.5308 -0.5354 -0.4683
  491SOL    HW1 1962   9.669   3.349   2.758 -0.9512  0.1786  0.1025
  491SOL    HW2 1963   9.665   3.343   2.607  1.7154  1.4163 -0.0725
  491SOL     MW 1964   9.630   3.369   2.682 -0.2971 -0.1942 -0.3446
  492SOL     OW 1965   8.040   3.235   1.539 -0.3377  0.4498 -0.2374
  492SOL    HW1 1966   8.012   3.318   1.579 -0.7670  0.0162  0.3767
  492SOL    HW2 1967   8.132   3.226   1.565 -0.3073  0.7015 -0.2531
  492SOL     MW 1968   8.048   3.245   1.548 -0.3888  0.4265 -0.1608
  493SOL     OW 1969   8.384   2.741   0.257  0.3506  0.8529  0.3321
  493SOL    HW1 1970   8.335   2.786   0.188  1.1349  1.3100  0.0567
  493SOL    HW2 1971   8.416   2.661   0.215  0.8019  1.1160  0.1631
  493SOL     MW 1972   8.382   2.736   0.243  0.5088  0.9451  0.2752
  494SOL     OW 1973   8.110   3.622   9.714 -0.3807  1.0202 -0.1800
  494SOL    HW1 1974   8.062   3.564   9.655  0.8843  0.6052 -0.8463
  494SOL    HW2 1975   8.061   3.620   9.796 -0.5088 -0.7975 -0.2729
  494SOL     MW 1976   8.098   3.615   9.717 -0.2352  0.7344 -0.2772
  495SOL     OW 1977   6.861   5.812   1.536 -0.3066  0.3560  0.4243
  495SOL    HW1 1978   6.828   5.899   1.512 -0.9259  0.4886  1.6587
  495SOL    HW2 1979   6.939   5.830   1.589  1.0892  0.0680 -1.4200
  495SOL     MW 1980   6.867   5.825   1.540 -0.2072  0.3361  0.3462
  496SOL     OW 1981   7.227   4.240   9.850  0.2682 -0.0291  0.1468
  496SOL    HW1 1982   7.208   4.197   9.766 -1.7163 -0.3070  0.6815
  496SOL    HW2 1983   7.198   4.177   9.916 -1.2508  1.4419  0.9674
  496SOL     MW 1984   7.221   4.226   9.848 -0.1803  0.1236  0.3203
  497SOL     OW 1985   7.922   9.645   1.374  0.1996  0.1783 -0.2977
  497SOL    HW1 1986   7.878   9.699   1.440  1.0700 -0.1058  0.5458
  497SOL    HW2 1987   7.920   9.698   1.295 -0.7049  0.6106 -0.0070
  497SOL     MW 1988   7.916   9.658   1.373  0.1953  0.1973 -0.1525
  498SOL     OW 1989   0.392   2.783   0.521 -0.1744 -0.2220 -0.0609
  498SOL    HW1 1990   0.439   2.835   0.455  0.9506 -0.6550  0.3707
  498SOL    HW2 1991   0.355   2.710   0.471  0.1498 -0.2187 -0.3090
  498SOL     MW 1992   0.393   2.780   0.506  0.0111 -0.2770 -0.0374
  499SOL     OW 1993   8.184   2.468   1.535 -0.0485 -0.3027 -0.1252
  499SOL    HW1 1994   8.273   2.464   1.572 -0.1332  0.0401  0.1245
  499SOL    HW2 1995   8.185   2.547   1.480  0.1201 -0.8937 -0.9841
  499SOL     MW 1996   8.196   2.478   1.533 -0.0377 -0.3345 -0.2032
  500SOL     OW 1997   8.315   6.082   9.928 -0.1095  0.2780 -0.1654
  500SOL    HW1 1998   8.264   6.163   9.920  1.4100  1.3219  0.2738
  500SOL    HW2 1999   8.322   6.049   9.838 -0.7046  0.6666 -0.3588
  500SOL     MW 2000   8.310   6.088   9.915  0.0088  0.4614 -0.1340
  501SOL     OW 2001   9.643   1.805   0.653  0.4251  0.4556 -0.2729
  501SOL    HW1 2002   9.549   1.811   0.668  0.2950 -0.5853 -0.6128
  501SOL    HW2 2003   9.673   1.896   0.651 -0.7090  0.8294 -1.0334
  501SOL     MW 2004   9.635   1.817   0.655  0.2633  0.3702 -0.4137
  502SOL     OW 2005   8.765   9.372   1.550  0.1677  0.2908 -0.9491
  502SOL    HW1 2006   8.742   9.349   1.639  3.7130 -0.2038  0.0082
  502SOL    HW2 2007   8.709   9.318   1.495  0.3902 -2.1250  1.0510
  502SOL     MW 2008   8.755   9.362   1.554  0.6500 -0.0817 -0.5706
  503SOL     OW 2009   7.433   2.685   1.187  0.1073  0.1670  0.4248
  503SOL    HW1 2010   7.431   2.664   1.093  0.4717 -0.2499  0.5099
  503SOL    HW2 2011   7.460   2.604   1.229 -0.3952  0.2552  0.9246
  503SOL     MW 2012   7.436   2.672   1.180  0.0896  0.1249  0.4997
  504SOL     OW 2013   8.695   9.520   0.622 -0.2373  0.1246 -0.1974
  504SOL    HW1 2014   8.779   9.559   0.598  0.0485 -0.5193 -0.2553
  504SOL    HW2 2015   8.636   9.544   0.551 -0.0014  0.2498 -0.3490
  504SOL     MW 2016   8.698   9.528   0.610 -0.1705  0.0582 -0.2242
  505SOL     OW 2017   7.037   7.546   1.941 -0.4187  0.1402  0.2004
  505SOL    HW1 2018   7.118   7.507   1.972 -0.8636 -0.7463  0.2634
  505SOL    HW2 2019   6.971   7.519   2.006 -0.5300  2.0010  0.9344
  505SOL     MW 2020   7.039   7.538   1.954 -0.4899  0.2649  0.3024
  506SOL     OW 2021   7.577   8.351   1.244 -0.5709 -0.0108 -0.5115
  506SOL    HW1 2022   7.558   8.445   1.246 -0.4254  0.0021  1.0954
  506SOL    HW2 2023   7.665   8.343   1.281 -0.6392 -0.7986 -0.4986
  506SOL     MW 2024   7.586   8.362   1.249 -0.5610 -0.1100 -0.3042
  507SOL     OW 2025   0.103   0.358   1.496 -0.0893 -0.1555  0.0797
  507SOL    HW1 2026   0.192   0.368   1.529 -0.1338 -0.7814  0.3980
  507SOL    HW2 2027   0.113   0.321   1.409 -0.0824 -1.7824  0.7487
  507SOL     MW 2028   0.116   0.355   1.489 -0.0941 -0.4439  0.2061
  508SOL     OW 2029   8.588  10.053   0.200  0.2486 -0.1131 -0.3954
  508SOL    HW1 2030   8.649  10.004   0.146  0.4719 -0.1388 -0.1214
  508SOL    HW2 2031   8.536  10.104   0.138 -0.9120 -1.7140 -0.7978
  508SOL     MW 2032   8.589  10.054   0.185  0.1286 -0.3214 -0.4118
  509SOL     OW 2033   7.946   0.374   9.147 -0.3243 -0.3894 -0.0947
  509SOL    HW1 2034   7.971   0.466   9.152  1.3118 -0.6975 -1.4989
  509SOL    HW2 2035   7.906   0.354   9.231 -0.8575  1.6402  0.1649
  509SOL     MW 2036   7.944   0.383   9.158 -0.1831 -0.1690 -0.2413
  510SOL     OW 2037   6.877   0.515   9.911  0.1117 -0.5815  0.0817
  510SOL    HW1 2038   6.822   0.452   9.958 -0.5981  0.5163  0.7800
  510SOL    HW2 2039   6.965   0.479   9.917 -0.1960 -1.2228  0.9746
  510SOL     MW 2040   6.881   0.503   9.918 -0.0186 -0.5231  0.2854
  511SOL     OW 2041   8.361   7.573  10.123 -0.2734 -0.1038 -0.2687
  511SOL    HW1 2042   8.423   7.506  10.151 -0.7885  0.3743  2.2369
  511SOL    HW2 2043   8.342   7.623  10.202 -1.2082  1.9504 -1.7137
  511SOL     MW 2044   8.366   7.571  10.137 -0.4590  0.2204 -0.1329
  512SOL     OW 2045   0.130   0.518   2.182  0.1416 -0.5335  0.7197
  512SOL    HW1 2046   0.197   0.538   2.118 -0.0436  0.7890  0.9118
  512SOL    HW2 2047   0.178   0.490   2.260  0.3917 -1.3233  0.2937
  512SOL     MW 2048   0.144   0.517   2.184  0.1499 -0.4653  0.6898
  513SOL     OW 2049   6.896   2.656   2.386 -0.0126  0.0684 -0.2344
  513SOL    HW1 2050   6.902   2.561   2.377 -0.4124 -0.0660  0.8078
  513SOL    HW2 2051   6.908   2.689   2.297  0.0770 -0.9572 -0.6182
  513SOL     MW 2052   6.898   2.648   2.374 -0.0524 -0.0801 -0.1501
  514SOL     OW 2053   8.610   6.423   9.545 -0.0233 -0.2565 -0.1021
  514SOL    HW1 2054   8.696   6.391   9.571  0.0717 -0.5383 -0.7508
  514SOL    HW2 2055   8.594   6.498   9.603  0.1059 -0.9625  0.8723
  514SOL     MW 2056   8.619   6.428   9.556  0.0054 -0.3829 -0.0604
  515SOL     OW 2057   7.049   3.386   1.444  0.2705  0.2187  0.3229
  515SOL    HW1 2058   6.970   3.332   1.446  0.0721  0.5174  0.8877
  515SOL    HW2 2059   7.120   3.325   1.423 -0.0989 -0.0609 -0.1264
  515SOL     MW 2060   7.048   3.371   1.442  0.1978  0.2211  0.3377
  516SOL     OW 2061   0.063   1.920   9.865  0.0055  0.8411 -0.1313
  516SOL    HW1 2062  -0.006   1.879   9.812  0.8617  1.5820 -1.9065
  516SOL    HW2 2063   0.017   1.983   9.920 -1.0145 -0.5815  0.7063
  516SOL     MW 2064   0.048   1.923   9.865 -0.0155  0.7538 -0.2513
  517SOL     OW 2065   8.876   7.264   1.097  0.1426  0.1049 -0.7214
  517SOL    HW1 2066   8.795   7.226   1.133  0.5528 -1.0146 -0.9363
  517SOL    HW2 2067   8.849   7.350   1.065 -0.5893  0.4708  0.7661
  517SOL     MW 2068   8.862   7.270   1.097  0.1014  0.0084 -0.5585
  518SOL     OW 2069   7.721   1.590   2.286 -0.0497 -0.3814 -0.0227
  518SOL    HW1 2070   7.677   1.607   2.370  1.3758  1.3993  0.4452
  518SOL    HW2 2071   7.756   1.501   2.294  0.5861 -0.0309  1.5701
  518SOL     MW 2072   7.720   1.581   2.298  0.2142 -0.1086  0.2411
  519SOL     OW 2073   9.582   0.686   0.654  0.1769  0.5336  0.8909
  519SOL    HW1 2074   9.660   0.648   0.692 -0.2110  0.4338  1.6018
  519SOL    HW2 2075   9.594   0.781   0.662 -0.4289  0.5182  2.4092
  519SOL     MW 2076   9.593   0.693   0.660  0.0497  0.5188  1.1763
  520SOL     OW 2077   9.272   0.811   0.296  0.4357 -0.7063  0.0241
  520SOL    HW1 2078   9.295   0.881   0.358 -2.8747  0.1085  0.5268
  520SOL    HW2 2079   9.265   0.733   0.351  0.9484 -0.7586  0.0245
  520SOL     MW 2080   9.274   0.810   0.311  0.0776 -0.6087  0.0885
  521SOL     OW 2081   8.454   8.459  10.006 -0.3893 -0.1701  0.2963
  521SOL    HW1 2082   8.500   8.505  10.076 -0.9313 -0.7651  1.0608
  521SOL    HW2 2083   8.386   8.409  10.050 -0.2398 -1.1956 -0.5758
  521SOL     MW 2084   8.451   8.459  10.020 -0.4396 -0.3776  0.2825
  522SOL     OW 2085   7.500   6.442   1.231 -0.3925  0.1417 -0.5469
  522SOL    HW1 2086   7.471   6.381   1.299 -0.4580 -0.2995 -0.9690
  522SOL    HW2 2087   7.480   6.398   1.148 -0.9290  0.9699 -0.8634
  522SOL     MW 2088   7.494   6.428   1.229 -0.4696  0.1912 -0.6414
  523SOL     OW 2089   6.465   8.156   2.206  0.0341 -0.0507  0.4139
  523SOL    HW1 2090   6.371   8.167   2.194 -0.0098 -1.6415 -1.0495
  523SOL    HW2 2091   6.505   8.206   2.134  0.2586 -0.2748  0.3805
  523SOL     MW 2092   6.458   8.164   2.195  0.0573 -0.2830  0.2223
  524SOL     OW 2093   9.061   2.960   0.887  0.3368  0.0368 -0.2435
  524SOL    HW1 2094   8.979   3.001   0.856  0.1684 -1.9925 -2.8088
  524SOL    HW2 2095   9.129   3.020   0.858 -0.1174  0.6910  0.0113
  524SOL     MW 2096   9.059   2.973   0.879  0.2571 -0.1392 -0.5392
  525SOL     OW 2097   8.523   8.503   1.240  0.1555 -0.4299 -0.4720
  525SOL    HW1 2098   8.444   8.499   1.294  0.2250  0.3449 -0.2916
  525SOL    HW2 2099   8.495   8.546   1.159  0.4302  0.0664 -0.3115
  525SOL     MW 2100   8.509   8.508   1.237  0.1996 -0.2672 -0.4284
  526SOL     OW 2101   6.958   4.836   2.050  0.3386 -0.0600  0.1799
  526SOL    HW1 2102   6.945   4.926   2.081 -1.3213  0.2582 -1.2664
  526SOL    HW2 2103   6.871   4.797   2.053  0.8420 -1.2553 -0.2942
  526SOL     MW 2104   6.945   4.843   2.054  0.1906 -0.1723 -0.0659
  527SOL     OW 2105   8.573   2.327   1.971  0.6375  0.0366 -0.3130
  527SOL    HW1 2106   8.614   2.401   2.015  0.2885  1.0707 -1.6682
  527SOL    HW2 2107   8.644   2.286   1.921  0.7585 -0.3552  0.1719
  527SOL     MW 2108   8.587   2.331   1.970  0.6083  0.1188 -0.4244
  528SOL     OW 2109   7.946   1.840   2.470 -0.0386 -1.0170 -0.4734
  528SOL    HW1 2110   7.948   1.769   2.534  0.0724 -0.1476  0.5107
  528SOL    HW2 2111   7.945   1.920   2.523 -1.6700 -0.2880 -1.5198
  528SOL     MW 2112   7.946   1.841   2.485 -0.2332 -0.8124 -0.4814
  529SOL     OW 2113   9.660   8.108   1.515  0.1818  0.2986  0.6687
  529SOL    HW1 2114   9.676   8.023   1.472 -0.0829  1.1995 -1.3115
  529SOL    HW2 2115   9.595   8.089   1.582  1.2741 -1.3463  1.3208
  529SOL     MW 2116   9.654   8.094   1.518  0.2877  0.2034  0.4987
  530SOL     OW 2117  -0.000   3.471   1.411  0.1541  0.5942 -0.4202
  530SOL    HW1 2118   0.025   3.396   1.465  1.2438  1.8966  0.9667
  530SOL    HW2 2119   0.081   3.500   1.370 -0.0965  1.5389 -0.2685
  530SOL     MW 2120   0.013   3.465   1.412  0.2615  0.8819 -0.2233
  531SOL     OW 2121   9.202   3.614   1.237 -0.8362 -0.1249 -0.2446
  531SOL    HW1 2122   9.122   3.596   1.286 -1.6832 -1.1539 -1.9282
  531SOL    HW2 2123   9.257   3.537   1.250 -0.9141 -0.2421 -0.5806
  531SOL     MW 2124   9.199   3.602   1.245 -0.9546 -0.2716 -0.5031
  532SOL     OW 2125  10.110   5.533   0.787  0.0129  0.2320 -0.4281
  532SOL    HW1 2126  10.014   5.529   0.796  0.1683 -0.2482  1.6345
  532SOL    HW2 2127  10.128   5.623   0.761 -0.9376  0.7858  0.7377
  532SOL     MW 2128  10.100   5.544   0.785 -0.0888  0.2414 -0.0149
  533SOL     OW 2129   9.009   0.216   0.780 -0.4623 -0.0535  0.1359
  533SOL    HW1 2130   9.083   0.198   0.838  0.3213 -0.3006 -0.8970
  533SOL    HW2 2131   9.018   0.152   0.709 -1.3599  0.2618 -0.2799
  533SOL     MW 2132   9.020   0.206   0.778 -0.4769 -0.0447 -0.0495
  534SOL     OW 2133   9.725   9.474   1.294  0.0777 -0.1389 -0.5485
  534SOL    HW1 2134   9.637   9.508   1.277 -0.6386 -0.6303  1.8244
  534SOL    HW2 2135   9.778   9.553   1.308 -0.3205  0.1225 -0.4889
  534SOL     MW 2136   9.721   9.489   1.294 -0.0650 -0.1683 -0.2371
  535SOL     OW 2137   8.775   3.124   1.506 -0.0044 -0.1932 -0.0048
  535SOL    HW1 2138   8.744   3.214   1.510  1.2246  0.3082 -1.0418
  535SOL    HW2 2139   8.821   3.110   1.589 -0.9603 -0.1789  0.5375
  535SOL     MW 2140   8.777   3.133   1.517  0.0306 -0.1272 -0.0681
  536SOL     OW 2141   8.752   5.548   0.735 -0.4289 -0.3663 -0.2489
  536SOL    HW1 2142   8.774   5.495   0.811 -0.3787  0.2573  0.1796
  536SOL    HW2 2143   8.825   5.535   0.675 -0.9799 -1.7132 -0.6625
  536SOL     MW 2144   8.764   5.540   0.737 -0.4930 -0.4589 -0.2470
  537SOL     OW 2145   7.994   4.429   0.179 -0.7221 -0.0529 -0.2612
  537SOL    HW1 2146   8.065   4.453   0.239 -0.0669 -1.4422 -0.4477
  537SOL    HW2 2147   7.999   4.334   0.173 -1.1811  0.0125 -2.0314
  537SOL     MW 2148   8.004   4.420   0.186 -0.6970 -0.2224 -0.5117
  538SOL     OW 2149   6.273   4.296   1.115  0.1835  0.0431 -0.2566
  538SOL    HW1 2150   6.295   4.363   1.050 -1.2324  0.2237 -0.5840
  538SOL    HW2 2151   6.222   4.344   1.182 -0.8045 -0.6713 -0.4702
  538SOL     MW 2152   6.269   4.311   1.115 -0.1242 -0.0252 -0.3258
  539SOL     OW 2153   8.124   4.428   9.884 -0.1661  0.8332 -0.4266
  539SOL    HW1 2154   8.157   4.359   9.941  0.5831  1.9290  0.5254
  539SOL    HW2 2155   8.045   4.392   9.845 -0.9775  0.2034  1.6932
  539SOL     MW 2156   8.118   4.415   9.886 -0.1740  0.8929 -0.0334
  540SOL     OW 2157   7.261   3.253   9.628 -0.3215 -0.4503  0.5123
  540SOL    HW1 2158   7.197   3.183   9.641 -0.4959 -0.3502  0.2010
  540SOL    HW2 2159   7.227   3.325   9.681 -1.0112 -0.0563 -0.4298
  540SOL     MW 2160   7.248   3.253   9.636 -0.4321 -0.3870  0.3519
  541SOL     OW 2161   7.042   5.755   0.182  0.1367 -0.3219  0.0705
  541SOL    HW1 2162   7.073   5.802   0.259  0.2497 -1.2176  0.5736
  541SOL    HW2 2163   6.968   5.808   0.150  1.3424  1.1404 -0.4120
  541SOL     MW 2164   7.036   5.768   0.188  0.3055 -0.2494  0.0731
  542SOL     OW 2165   9.364   1.071   1.832 -0.3336 -0.0441 -0.5150
  542SOL    HW1 2166   9.431   1.126   1.792 -0.2527 -0.5467 -1.0870
  542SOL    HW2 2167   9.282   1.098   1.791 -0.5105  0.6555  0.2738
  542SOL     MW 2168   9.362   1.081   1.821 -0.3459 -0.0189 -0.4873
  543SOL     OW 2169   9.227   1.377   9.768 -0.0307  0.1918  0.2883
  543SOL    HW1 2170   9.214   1.407   9.858  0.5688  0.1762  0.3836
  543SOL    HW2 2171   9.317   1.344   9.766 -0.2653 -0.4460 -0.1423
  543SOL     MW 2172   9.237   1.377   9.779  0.0160  0.1082  0.2454
  544SOL     OW 2173   7.015   1.901   9.636 -0.6321 -0.2851  0.7116
  544SOL    HW1 2174   7.042   1.943   9.555  1.0797 -0.4603  1.1434
  544SOL    HW2 2175   7.001   1.974   9.697  0.6908 -0.2468  0.9894
  544SOL     MW 2176   7.016   1.916   9.634 -0.2436 -0.3026  0.8024
  545SOL     OW 2177   8.647   8.979   0.204  0.7553  0.2130 -0.7102
  545SOL    HW1 2178   8.616   8.888   0.202 -1.3804  0.9084 -0.9079
  545SOL    HW2 2179   8.656   9.002   0.111 -1.5123  1.0781 -0.7536
  545SOL     MW 2180   8.644   8.970   0.192  0.1916  0.4128 -0.7410
  546SOL     OW 2181   7.059   7.479   1.149 -0.2449  0.3754 -0.3676
  546SOL    HW1 2182   6.970   7.514   1.152 -0.9705 -1.1767 -2.3252
  546SOL    HW2 2183   7.065   7.422   1.226 -1.4776 -0.7138 -1.0611
  546SOL     MW 2184   7.048   7.476   1.160 -0.4956  0.0373 -0.7070
  547SOL     OW 2185   7.297   1.845   0.254  0.3047 -0.0937 -0.0616
  547SOL    HW1 2186   7.358   1.796   0.199 -0.1123  0.0818 -0.6914
  547SOL    HW2 2187   7.323   1.825   0.344  1.3806  0.1032 -0.3247
  547SOL     MW 2188   7.308   1.836   0.258  0.3890 -0.0461 -0.1759
  548SOL     OW 2189   8.143   9.570   1.614  0.1965  0.0243  0.3736
  548SOL    HW1 2190   8.199   9.624   1.670  0.2212 -0.1132  0.4818
  548SOL    HW2 2191   8.184   9.573   1.528 -0.8717  1.8245 -0.1355
  548SOL     MW 2192   8.155   9.578   1.610  0.0629  0.2371  0.3222
  549SOL     OW 2193   8.981   0.245   2.957  0.2060  0.2337  0.3140
  549SOL    HW1 2194   9.071   0.255   2.987 -0.1243  1.9486  0.8779
  549SOL    HW2 2195   8.928   0.253   3.036 -0.4816  0.2180 -0.1332
  549SOL     MW 2196   8.986   0.247   2.971  0.0757  0.4512  0.3289
  550SOL     OW 2197   9.118   0.864   1.701 -0.0654  0.0154 -0.4448
  550SOL    HW1 2198   9.046   0.849   1.640 -1.2004 -0.7537  1.0082
  550SOL    HW2 2199   9.174   0.787   1.692  0.0856  0.1754 -0.9065
  550SOL     MW 2200   9.116   0.852   1.692 -0.1913 -0.0626 -0.3179
  551SOL     OW 2201   7.051   9.833   0.322  0.5453  0.0476 -0.0145
  551SOL    HW1 2202   7.055   9.904   0.258 -2.4036 -0.8690 -1.3912
  551SOL    HW2 2203   6.965   9.844   0.364  0.8370 -1.5913  1.1165
  551SOL     MW 2204   7.040   9.844   0.319  0.2052 -0.2795 -0.0460
  552SOL     OW 2205   8.254   8.890   1.683  0.0125 -0.2791 -0.1281
  552SOL    HW1 2206   8.240   8.901   1.777 -0.6227  1.5045 -0.3783
  552SOL    HW2 2207   8.308   8.812   1.675 -1.6252 -1.6561  1.5637
  552SOL     MW 2208   8.259   8.882   1.694 -0.2784 -0.2270  0.0565
  553SOL     OW 2209   8.063   3.782   0.249 -0.2418  0.2045 -0.0764
  553SOL    HW1 2210   8.056   3.720   0.322 -0.2050 -0.1582 -0.3761
  553SOL    HW2 2211   8.055   3.868   0.289 -0.7081 -0.0089  0.2977
  553SOL     MW 2212   8.061   3.785   0.263 -0.2968  0.1308 -0.0669
  554SOL     OW 2213   6.882   6.375   9.812  0.3108  0.2630 -0.1893
  554SOL    HW1 2214   6.889   6.284   9.842  1.1839 -0.2149 -1.7735
  554SOL    HW2 2215   6.799   6.405   9.848 -0.2126 -1.3021 -0.0140
  554SOL     MW 2216   6.872   6.367   9.821  0.3556  0.0015 -0.3697
  555SOL     OW 2217   7.962   2.461   9.690 -0.6086  0.1366 -0.0788
  555SOL    HW1 2218   7.873   2.432   9.671 -0.4794 -0.9603  0.8843
  555SOL    HW2 2219   7.999   2.483   9.605 -1.5036 -0.2704 -0.5818
  555SOL     MW 2220   7.955   2.461   9.677 -0.7066 -0.0559 -0.0199
  556SOL     OW 2221   6.370   7.616   1.624 -0.1245 -0.0220  0.4320
  556SOL    HW1 2222   6.397   7.610   1.532 -1.0753  0.2097  0.1273
  556SOL    HW2 2223   6.387   7.529   1.660  2.3690  0.5004  0.6545
  556SOL     MW 2224   6.376   7.604   1.617  0.0730  0.0745  0.4215
  557SOL     OW 2225   6.987   5.190   1.723  0.0753 -0.7158  0.1326
  557SOL    HW1 2226   7.064   5.218   1.773  0.5150 -1.9709  0.1911
  557SOL    HW2 2227   7.005   5.217   1.633  0.7380 -1.2853  0.0898
  557SOL     MW 2228   6.999   5.197   1.718  0.2164 -0.9494  0.1346
  558SOL     OW 2229   7.080   5.715   1.361  0.2263  0.4151  0.0567
  558SOL    HW1 2230   7.172   5.734   1.382  0.2762 -0.3728  0.5702
  558SOL    HW2 2231   7.042   5.686   1.444 -0.4974  0.7558 -0.1507
  558SOL     MW 2232   7.087   5.714   1.374  0.1401  0.3578  0.0959
  559SOL     OW 2233   9.158   3.253   0.117 -0.4211  0.1006  0.2440
  559SOL    HW1 2234   9.102   3.330   0.127  0.2517  0.6649 -0.2426
  559SOL    HW2 2235   9.124   3.208   0.040 -1.1071 -0.3593  0.7972
  559SOL     MW 2236   9.147   3.257   0.108 -0.4228  0.1139  0.2526
  560SOL     OW 2237   7.593   6.992   0.194 -0.0097  0.5159  0.0294
  560SOL    HW1 2238   7.533   7.011   0.266 -1.2715 -0.0940 -0.8433
  560SOL    HW2 2239   7.648   6.921   0.227 -0.1468  0.6681  0.6049
  560SOL     MW 2240   7.593   6.986   0.208 -0.1888  0.4573 -0.0087
  561SOL     OW 2241   8.448   5.995   1.563 -0.0101 -0.2256 -0.0199
  561SOL    HW1 2242   8.402   5.918   1.528 -0.7089 -0.8307  2.0510
  561SOL    HW2 2243   8.428   6.065   1.501 -0.1435 -1.4924 -1.4599
  561SOL     MW 2244   8.439   5.994   1.551 -0.1167 -0.4652  0.0609
  562SOL     OW 2245   8.632   5.187   0.037 -0.2225  0.1101 -0.3535
  562SOL    HW1 2246   8.588   5.194   0.122 -0.4053  0.7159 -0.4949
  562SOL    HW2 2247   8.615   5.098   0.008  0.8876 -0.5204  0.8236
  562SOL     MW 2248   8.625   5.177   0.044 -0.1038  0.1069 -0.2209
  563SOL     OW 2249   9.640   2.936   1.915  0.5082 -0.1155 -0.6627
  563SOL    HW1 2250   9.630   3.031   1.921  0.3432 -0.0684 -1.5261
  563SOL    HW2 2251   9.731   2.923   1.886  0.2164 -0.1685 -1.5833
  563SOL     MW 2252   9.651   2.947   1.912  0.4498 -0.1163 -0.8910
  564SOL     OW 2253   6.872   0.812  10.035 -0.4229  0.3984  0.1335
  564SOL    HW1 2254   6.823   0.843   9.960 -0.2111 -1.8284 -1.0243
  564SOL    HW2 2255   6.960   0.794  10.001  0.1761  0.9083  1.3220
  564SOL     MW 2256   6.877   0.813  10.021 -0.3191  0.1786  0.1374
  565SOL     OW 2257   9.856   5.355   1.720  0.1211  0.3717 -0.0270
  565SOL    HW1 2258   9.945   5.331   1.747  0.5112 -0.1073 -1.6701
  565SOL    HW2 2259   9.836   5.433   1.772  0.8814 -0.3994  1.5090
  565SOL     MW 2260   9.865   5.362   1.730  0.2683  0.2117 -0.0407
  566SOL     OW 2261   7.708   4.297   2.154  0.0235 -0.2945 -0.0400
  566SOL    HW1 2262   7.790   4.328   2.117  0.2339 -0.4972  0.2516
  566SOL    HW2 2263   7.657   4.377   2.171  0.1979 -0.1642 -0.1347
  566SOL     MW 2264   7.712   4.311   2.151  0.0728 -0.3038 -0.0148
  567SOL     OW 2265   6.280   8.376  10.076 -0.2334 -0.0644 -0.3074
  567SOL    HW1 2266   6.287   8.433  10.153 -0.2810  0.1672 -0.4751
  567SOL    HW2 2267   6.364   8.384  10.032 -0.6932  0.8931 -1.0414
  567SOL     MW 2268   6.291   8.384  10.081 -0.2984  0.0878 -0.4228
  568SOL     OW 2269   6.455   9.556  10.122 -1.0439 -0.4458 -0.8841
  568SOL    HW1 2270   6.442   9.505  10.042  1.1128 -1.7088 -0.5218
  568SOL    HW2 2271   6.431   9.497  10.193  0.5531 -0.6827 -0.4989
  568SOL     MW 2272   6.451   9.542  10.121 -0.5634 -0.6378 -0.7884
  569SOL     OW 2273   9.520   3.217   0.004  0.1033  0.0036 -0.2754
  569SOL    HW1 2274   9.471   3.299   0.013 -0.7136 -0.3050 -1.6751
  569SOL    HW2 2275   9.603   3.234   0.048  0.0929  1.7081 -0.8468
  569SOL     MW 2276   9.524   3.230   0.011 -0.0026  0.1823 -0.5277
  570SOL     OW 2277   6.899   1.461   0.472 -0.8040  0.1150  0.0843
  570SOL    HW1 2278   6.873   1.553   0.469  1.4432  0.7806 -1.4185
  570SOL    HW2 2279   6.886   1.430   0.382  1.0035 -0.2198 -0.0871
  570SOL     MW 2280   6.894   1.469   0.460 -0.2850  0.1574 -0.1300
  571SOL     OW 2281   8.279   7.457   9.386 -0.3253  0.3358 -0.5962
  571SOL    HW1 2282   8.287   7.375   9.433  0.4555  1.4817  1.3679
  571SOL    HW2 2283   8.296   7.434   9.294  1.2788 -1.4585  0.0924
  571SOL     MW 2284   8.282   7.444   9.380 -0.0200  0.2528 -0.2566
  572SOL     OW 2285   7.569   5.861   2.196  0.3246 -0.5707 -0.3425
  572SOL    HW1 2286   7.539   5.934   2.250 -1.9811 -1.3253 -0.4637
  572SOL    HW2 2287   7.561   5.893   2.106  1.9770 -0.0792 -0.3378
  572SOL     MW 2288   7.564   5.874   2.191  0.2409 -0.6044 -0.3574
  573SOL     OW 2289   8.873   6.364   0.220  0.4643 -0.3204  0.2646
  573SOL    HW1 2290   8.857   6.274   0.191  0.9996 -1.0547  2.0862
  573SOL    HW2 2291   8.855   6.418   0.143 -1.2175 -1.8546 -0.4923
  573SOL     MW 2292   8.869   6.359   0.207  0.3175 -0.6108  0.4009
  574SOL     OW 2293   9.183   7.228   0.819 -0.3818  0.3209  0.2491
  574SOL    HW1 2294   9.106   7.171   0.821 -0.0914 -0.0607  1.5806
  574SOL    HW2 2295   9.254   7.171   0.790 -0.5961  0.6950 -1.0660
  574SOL     MW 2296   9.182   7.213   0.816 -0.3721  0.3199  0.2512
  575SOL     OW 2297   9.060   4.097   0.820 -0.1369  0.3852 -0.2863
  575SOL    HW1 2298   9.012   4.176   0.845  0.8344  0.4070  1.7181
  575SOL    HW2 2299   9.068   4.047   0.901  2.3737 -0.0715 -0.7351
  575SOL     MW 2300   9.055   4.100   0.833  0.3088  0.3295 -0.0872
  576SOL     OW 2301   9.910   8.228   1.630  0.2573 -0.7860 -0.0184
  576SOL    HW1 2302   9.845   8.180   1.579  1.9145 -1.4496 -1.5965
  576SOL    HW2 2303   9.862   8.304   1.663 -1.4526 -1.5350 -0.6298
  576SOL     MW 2304   9.895   8.231   1.628  0.2506 -0.9668 -0.2987
  577SOL     OW 2305   9.367   0.131   9.778  0.0011 -0.3191 -0.2141
  577SOL    HW1 2306   9.292   0.080   9.746  0.1390 -0.4011 -0.4068
  577SOL    HW2 2307   9.443   0.087   9.742  0.2884 -1.4978  1.6798
  577SOL     MW 2308   9.367   0.119   9.770  0.0556 -0.4805  0.0037
  578SOL     OW 2309   7.210   5.090  -0.016  0.1382 -0.1411 -0.3447
  578SOL    HW1 2310   7.177   5.055   0.067 -0.9364 -2.2891 -1.6114
  578SOL    HW2 2311   7.205   5.185  -0.004 -0.3213 -0.3762  1.9142
  578SOL     MW 2312   7.205   5.098  -0.004 -0.0582 -0.4462 -0.2177
  579SOL     OW 2313   8.961   9.031  10.121  0.8156  0.1968  0.2190
  579SOL    HW1 2314   9.013   9.049  10.199 -0.8122 -0.6085  1.5397
  579SOL    HW2 2315   8.988   8.944  10.093  0.2275 -0.2130  0.8940
  579SOL     MW 2316   8.971   9.022  10.127  0.5319  0.0413  0.4745
  580SOL     OW 2317   7.831   3.883   9.045 -0.2089 -0.2930  0.1711
  580SOL    HW1 2318   7.780   3.958   9.075 -0.0152  0.1836 -0.6343
  580SOL    HW2 2319   7.889   3.863   9.118 -1.5401 -0.8655  1.1092
  580SOL     MW 2320   7.832   3.890   9.058 -0.3545 -0.3053  0.1881
  581SOL     OW 2321   8.044   7.940   8.994 -0.1738 -0.6675  0.5481
  581SOL    HW1 2322   7.995   8.013   9.032  0.8973 -0.4582  1.6002
  581SOL    HW2 2323   7.986   7.904   8.928 -0.9335  0.8259  0.3595
  581SOL     MW 2324   8.031   7.945   8.991 -0.1339 -0.4495  0.6586
  582SOL     OW 2325   6.970  10.174   1.315 -0.0571 -0.0528 -0.0640
  582SOL    HW1 2326   6.912  10.122   1.260 -0.4874 -0.5576  0.8455
  582SOL    HW2 2327   6.973  10.126   1.398  1.3153  0.1897  0.0534
  582SOL     MW 2328   6.963  10.161   1.319  0.0635 -0.0863  0.0674
  583SOL     OW 2329   8.350   9.503   9.222  0.4336 -0.3728  0.7048
  583SOL    HW1 2330   8.351   9.586   9.270 -1.7422  0.3451 -0.3729
  583SOL    HW2 2331   8.282   9.451   9.264 -0.2294 -0.4401 -0.4186
  583SOL     MW 2332   8.342   9.507   9.233  0.0702 -0.2895  0.4231
  584SOL     OW 2333   6.509   5.144   0.480  0.4692 -0.1483 -0.4481
  584SOL    HW1 2334   6.428   5.190   0.457 -0.8824 -1.0994  1.9470
  584SOL    HW2 2335   6.572   5.214   0.497 -0.6563  0.7426  0.2297
  584SOL     MW 2336   6.507   5.159   0.479  0.1521 -0.1560 -0.0548
  585SOL     OW 2337   8.692   8.713   2.748  0.2053 -0.2993  0.4337
  585SOL    HW1 2338   8.777   8.751   2.726  0.0153  0.7953  1.4900
  585SOL    HW2 2339   8.685   8.722   2.843 -1.3311  0.1606  0.3062
  585SOL     MW 2340   8.702   8.719   2.757 -0.0157 -0.1003  0.5526
  586SOL     OW 2341  10.132   7.518   1.209 -0.0149  0.0637 -0.0190
  586SOL    HW1 2342  10.148   7.604   1.246  2.5064 -0.6591  0.7528
  586SOL    HW2 2343  10.208   7.501   1.154 -0.4221 -1.7057 -0.0959
  586SOL     MW 2344  10.144   7.527   1.206  0.2557 -0.2553  0.0700
  587SOL     OW 2345   7.599   8.019   9.285 -0.2036 -0.0855  0.3596
  587SOL    HW1 2346   7.584   8.048   9.375  0.7751  1.0972  0.1741
  587SOL    HW2 2347   7.680   7.969   9.289  0.3570  0.7609  0.0092
  587SOL     MW 2348   7.607   8.017   9.297 -0.0065  0.1743  0.2910
  588SOL     OW 2349   9.259   3.174   0.958  0.2784  0.5125  0.2926
  588SOL    HW1 2350   9.175   3.220   0.960  0.2752  0.5157  0.0632
  588SOL    HW2 2351   9.278   3.157   1.050 -0.6188 -0.6656  0.2814
  588SOL     MW 2352   9.250   3.178   0.970  0.1631  0.3621  0.2618
  589SOL     OW 2353   9.162   8.805   1.341  0.1340 -0.0220  0.0453
  589SOL    HW1 2354   9.205   8.750   1.275 -1.0581  0.6206 -1.3289
  589SOL    HW2 2355   9.175   8.894   1.310 -0.6596  0.2772  0.5441
  589SOL     MW 2356   9.169   8.809   1.328 -0.1202  0.0985 -0.0668
  590SOL     OW 2357   6.832   4.652   1.742 -0.4072 -0.0682 -0.4134
  590SOL    HW1 2358   6.910   4.705   1.759  0.0664 -0.3404 -1.6136
  590SOL    HW2 2359   6.837   4.633   1.649 -1.7253 -0.4105 -0.4236
  590SOL     MW 2360   6.843   4.656   1.732 -0.5153 -0.1469 -0.5683
  591SOL     OW 2361   8.395  10.026   0.869 -0.0005  0.4169 -0.6936
  591SOL    HW1 2362   8.422  10.058   0.955 -2.2369 -1.6603  0.9624
  591SOL    HW2 2363   8.391   9.930   0.880 -2.9299  0.2520 -2.1904
  591SOL     MW 2364   8.398  10.018   0.882 -0.6618  0.1299 -0.6733
  592SOL     OW 2365   7.457   7.559   0.276 -0.8422 -0.5081 -0.9848
  592SOL    HW1 2366   7.545   7.523   0.264 -1.0484 -1.6866  0.6131
  592SOL    HW2 2367   7.472   7.649   0.303 -0.1721 -0.3830 -1.7359
  592SOL     MW 2368   7.470   7.566   0.278 -0.7828 -0.6430 -0.8764
  593SOL     OW 2369   6.293   5.301   0.426 -0.4654  0.1427  0.2133
  593SOL    HW1 2370   6.324   5.314   0.337 -0.3511 -1.6697 -0.0570
  593SOL    HW2 2371   6.321   5.379   0.474  1.5218  0.0923 -0.7990
  593SOL     MW 2372   6.300   5.312   0.421 -0.1963 -0.0958  0.0491
  594SOL     OW 2373   8.970   8.343  10.043 -0.4226 -0.1830 -0.2731
  594SOL    HW1 2374   8.926   8.421  10.009 -1.1453 -0.6674 -0.4631
  594SOL    HW2 2375   8.901   8.289  10.080  0.0744 -0.7139 -0.0902
  594SOL     MW 2376   8.956   8.346  10.043 -0.4515 -0.3130 -0.2740
  595SOL     OW 2377   8.327   9.749   0.849  0.1688 -0.0744  0.7135
  595SOL    HW1 2378   8.314   9.763   0.755  0.0443 -0.5635  0.6575
  595SOL    HW2 2379   8.239   9.739   0.884  0.1828  0.6635  0.9747
  595SOL     MW 2380   8.314   9.750   0.841  0.1546 -0.0426  0.7398
  596SOL     OW 2381   8.413   5.007   2.493 -0.6632  0.5550  0.4489
  596SOL    HW1 2382   8.386   5.009   2.585 -3.7644 -2.6657 -0.2019
  596SOL    HW2 2383   8.453   4.920   2.482  0.8705  1.3861 -1.0369
  596SOL     MW 2384   8.415   4.996   2.504 -0.8638  0.2491  0.1754
  597SOL     OW 2385   7.020   6.974   1.005  0.7378  0.3897 -0.0752
  597SOL    HW1 2386   6.964   7.015   0.939  0.6822  0.1603 -0.1689
  597SOL    HW2 2387   7.026   6.882   0.979  2.5036  0.7196 -1.0145
  597SOL     MW 2388   7.014   6.968   0.994  0.9568  0.4026 -0.2075
  598SOL     OW 2389   6.591   6.388   2.176 -0.1629  0.6351 -0.0070
  598SOL    HW1 2390   6.635   6.403   2.091  0.0457  0.6207  0.0972
  598SOL    HW2 2391   6.533   6.314   2.160 -2.3277  2.4331 -0.9460
  598SOL     MW 2392   6.589   6.381   2.163 -0.4133  0.8634 -0.1139
  599SOL     OW 2393   7.002   0.401   0.802  0.2060  0.5729  0.7039
  599SOL    HW1 2394   6.927   0.355   0.764  0.1755  1.6108 -0.5679
  599SOL    HW2 2395   6.969   0.490   0.819  1.3959  1.4014 -0.9585
  599SOL     MW 2396   6.988   0.407   0.799  0.3544  0.8118  0.3283
  600SOL     OW 2397   0.029   5.727   0.443 -0.5083 -0.5312 -0.4672
  600SOL    HW1 2398   0.050   5.798   0.503 -0.4250 -1.2908  0.4213
  600SOL    HW2 2399  -0.032   5.765   0.380  0.1796  0.5418 -0.5064
  600SOL     MW 2400   0.024   5.741   0.443 -0.4096 -0.4911 -0.3585
  601SOL     OW 2401   9.502   4.079   0.030 -0.4162 -0.0602  0.3576
  601SOL    HW1 2402   9.530   4.003   0.081 -0.0177  0.5578  1.0632
  601SOL    HW2 2403   9.432   4.119   0.081 -1.9926 -1.0296 -0.9291
  601SOL     MW 2404   9.496   4.074   0.043 -0.5670 -0.1052  0.2832
  602SOL     OW 2405   6.503   4.562   1.443 -0.2556  0.2835 -0.0147
  602SOL    HW1 2406   6.478   4.478   1.482  2.0558  0.2541  1.5770
  602SOL    HW2 2407   6.597   4.570   1.460  0.0857  2.1406 -2.2002
  602SOL     MW 2408   6.512   4.552   1.450  0.0840  0.5175 -0.0907
  603SOL     OW 2409   8.383   3.336   8.972  0.1903 -0.1534 -0.1252
  603SOL    HW1 2410   8.375   3.413   8.916  1.5364 -0.4607 -0.7873
  603SOL    HW2 2411   8.312   3.278   8.944 -0.7550  0.7733  0.2933
  603SOL     MW 2412   8.373   3.339   8.962  0.2416 -0.0741 -0.1563
  604SOL     OW 2413  10.033   1.634   0.201  0.2813  0.0207  0.0096
  604SOL    HW1 2414  10.027   1.681   0.117  0.4926  0.7018  0.3669
  604SOL    HW2 2415   9.943   1.611   0.221  0.2236 -0.1195 -0.3921
  604SOL     MW 2416  10.021   1.637   0.193  0.3010  0.0900  0.0039
  605SOL     OW 2417   8.968   2.762   0.637  0.6950  0.5661 -0.8138
  605SOL    HW1 2418   8.948   2.699   0.568 -1.5082 -0.1596  0.3721
  605SOL    HW2 2419   9.043   2.724   0.684 -1.1779 -1.8251  0.4858
  605SOL     MW 2420   8.975   2.749   0.634  0.1732  0.1671 -0.4956
  606SOL     OW 2421   7.295   7.181   2.554  0.1104  0.1797  0.4666
  606SOL    HW1 2422   7.331   7.227   2.630 -1.3860  1.4949  0.4368
  606SOL    HW2 2423   7.336   7.224   2.479  2.8350 -2.1759  0.4441
  606SOL     MW 2424   7.304   7.193   2.555  0.2677  0.0465  0.4599
  607SOL     OW 2425   6.927   8.179  -0.006  0.5797 -0.1356  0.3322
  607SOL    HW1 2426   7.008   8.229  -0.014  0.5146  0.0092  0.5551
  607SOL    HW2 2427   6.952   8.101   0.044  0.3934  0.3608  1.2150
  607SOL     MW 2428   6.940   8.175  -0.000  0.5475 -0.0535  0.4737
  608SOL     OW 2429   7.563   9.904   9.099 -0.3173 -0.0030 -0.8330
  608SOL    HW1 2430   7.586   9.997   9.101  0.2028 -0.0656 -2.7946
  608SOL    HW2 2431   7.546   9.885   9.007  2.8196 -2.6278 -1.0225
  608SOL     MW 2432   7.564   9.914   9.088  0.1508 -0.3470 -1.1083
  609SOL     OW 2433   8.898   9.845   2.715  0.1105 -0.1503  0.1178
  609SOL    HW1 2434   8.909   9.870   2.807  1.4335 -0.9406  0.2021
  609SOL    HW2 2435   8.970   9.888   2.670 -1.3543  1.4159 -0.8304
  609SOL     MW 2436   8.909   9.854   2.721  0.0923 -0.0510  0.0072
  610SOL     OW 2437   8.520   0.292   1.291  0.1822  0.4282  0.1122
  610SOL    HW1 2438   8.456   0.235   1.334  0.3573  1.2907  1.5973
  610SOL    HW2 2439   8.603   0.245   1.298  0.2892  0.7465  1.1473
  610SOL     MW 2440   8.522   0.279   1.297  0.2183  0.5793  0.4348
  611SOL     OW 2441   9.411   3.181   2.688  0.5441  0.4439  0.0962
  611SOL    HW1 2442   9.465   3.260   2.683  0.6445  0.5444  2.0447
  611SOL    HW2 2443   9.321   3.213   2.689  0.4770  0.3715 -1.4258
  611SOL     MW 2444   9.407   3.195   2.688  0.5484  0.4475  0.1508
  612SOL     OW 2445   6.294   4.558   0.968  0.1185  0.0385  0.0573
  612SOL    HW1 2446   6.290   4.642   1.014 -0.6327  0.0648 -0.0401
  612SOL    HW2 2447   6.311   4.582   0.876  2.1099 -0.0360  0.3532
  612SOL     MW 2448   6.296   4.572   0.962  0.2772  0.0324  0.0827
  613SOL     OW 2449   6.718   9.488   0.242 -0.1720  0.9998  0.0968
  613SOL    HW1 2450   6.809   9.519   0.244 -0.2059  1.1269  2.1350
  613SOL    HW2 2451   6.666   9.568   0.230 -0.0454  1.0809  0.0815
  613SOL     MW 2452   6.723   9.502   0.241 -0.1601  1.0265  0.3557
  614SOL     OW 2453   8.348   7.375   2.771  0.0856  0.1106 -0.6339
  614SOL    HW1 2454   8.259   7.387   2.804  0.3472 -1.4781  0.7869
  614SOL    HW2 2455   8.366   7.282   2.786  1.3101 -0.0285 -2.6602
  614SOL     MW 2456   8.339   7.364   2.777  0.2758 -0.1106 -0.7114
  615SOL     OW 2457   7.424   6.282   1.444  1.0134 -0.7678 -0.2083
  615SOL    HW1 2458   7.416   6.215   1.376  1.1096 -0.8134 -0.1746
  615SOL    HW2 2459   7.489   6.247   1.504  1.7138 -0.2563 -0.6502
  615SOL     MW 2460   7.431   6.269   1.443  1.1154 -0.7082 -0.2605
  616SOL     OW 2461   0.247   4.521   0.739  0.4270  0.2406  0.2865
  616SOL    HW1 2462   0.264   4.544   0.830  0.4139  0.5694  0.2076
  616SOL    HW2 2463   0.310   4.452   0.720  0.3970  0.1360  0.5588
  616SOL     MW 2464   0.258   4.515   0.748  0.4214  0.2693  0.3113
  617SOL     OW 2465   6.511   0.042   2.835 -0.5460  0.0403 -0.3821
  617SOL    HW1 2466   6.518   0.123   2.885  0.1492 -0.1964 -0.0750
  617SOL    HW2 2467   6.536   0.067   2.746  0.0965  0.0860 -0.1976
  617SOL     MW 2468   6.515   0.056   2.830 -0.3747  0.0158 -0.3191
  618SOL     OW 2469   8.832   5.300   9.091  0.0652 -0.4004 -0.2713
  618SOL    HW1 2470   8.917   5.329   9.123 -0.2249 -0.4942  0.6329
  618SOL    HW2 2471   8.801   5.371   9.034  0.1880  0.2148  0.4160
  618SOL     MW 2472   8.839   5.313   9.088  0.0438 -0.3337 -0.0676
  619SOL     OW 2473   8.042   0.548   1.214 -0.8941 -0.5336  0.1550
  619SOL    HW1 2474   8.058   0.474   1.273 -0.2125 -0.8728 -0.4406
  619SOL    HW2 2475   7.984   0.513   1.147 -1.5511 -0.1862  0.5280
  619SOL     MW 2476   8.037   0.534   1.213 -0.8910 -0.5326  0.1265
  620SOL     OW 2477   7.011   1.386   2.554 -0.1529 -0.3964 -0.3835
  620SOL    HW1 2478   6.955   1.429   2.489  1.1079  1.1888 -0.4627
  620SOL    HW2 2479   7.066   1.327   2.503 -1.2502 -1.4612 -0.3775
  620SOL     MW 2480   7.011   1.384   2.539 -0.1319 -0.3298 -0.3928
  621SOL     OW 2481   8.448   3.965   0.428  0.5474  0.2673  0.1959
  621SOL    HW1 2482   8.426   3.897   0.492 -4.3096  1.9106  0.7231
  621SOL    HW2 2483   8.411   3.934   0.346  2.1431  0.4558 -0.6233
  621SOL     MW 2484   8.441   3.952   0.426  0.1299  0.5018  0.1585
  622SOL     OW 2485  10.091   2.706   1.778 -0.1117 -0.6823 -0.5001
  622SOL    HW1 2486  10.010   2.758   1.788 -0.2281 -0.9480 -0.0528
  622SOL    HW2 2487  10.082   2.636   1.842  0.3525 -0.8738 -0.6461
  622SOL     MW 2488  10.079   2.704   1.788 -0.0672 -0.7408 -0.4615
  623SOL     OW 2489   8.223   3.155   0.264  0.1523  0.0915 -0.3980
  623SOL    HW1 2490   8.289   3.103   0.310  0.2204 -0.4800 -1.1279
  623SOL    HW2 2491   8.172   3.196   0.334  0.4189 -0.5476  0.1836
  623SOL     MW 2492   8.225   3.154   0.279  0.1951 -0.0635 -0.4170
  624SOL     OW 2493   9.006   2.453   1.238 -0.0577  0.0473 -0.2205
  624SOL    HW1 2494   9.017   2.500   1.156 -0.2574  0.8798  0.2178
  624SOL    HW2 2495   8.918   2.417   1.234  0.1300 -0.3830 -0.5965
  624SOL     MW 2496   8.996   2.454   1.227 -0.0592  0.0988 -0.2125
  625SOL     OW 2497   0.384   2.685  10.151  0.1696 -0.3756 -0.0427
  625SOL    HW1 2498   0.382   2.775  10.183  0.6957 -0.1798 -0.5340
  625SOL    HW2 2499   0.324   2.684  10.077 -0.0451 -0.4994  0.1326
  625SOL     MW 2500   0.376   2.696  10.145  0.2095 -0.3664 -0.0832
  626SOL     OW 2501   8.213   5.767   9.499  0.2173  0.2371 -0.0026
  626SOL    HW1 2502   8.149   5.748   9.430  0.7020 -1.2829 -0.0506
  626SOL    HW2 2503   8.220   5.686   9.548  1.3482  0.7108  0.6401
  626SOL     MW 2504   8.205   5.754   9.496  0.4241  0.1032  0.0735
  627SOL     OW 2505   9.308   7.781   9.897 -0.0980  0.5132  0.5597
  627SOL    HW1 2506   9.242   7.715   9.873 -0.2254  0.3942  1.2313
  627SOL    HW2 2507   9.280   7.860   9.851 -0.3511  0.2920  0.3312
  627SOL     MW 2508   9.296   7.783   9.888 -0.1467  0.4696  0.6164
  628SOL     OW 2509   9.045   3.926   0.599 -0.5518  0.6058  0.2270
  628SOL    HW1 2510   9.037   3.966   0.686  0.5674 -0.4943  0.8691
  628SOL    HW2 2511   9.113   3.977   0.555  0.1664  0.0791  0.6857
  628SOL     MW 2512   9.053   3.938   0.604 -0.3166  0.3975  0.3679
  629SOL     OW 2513   7.968   9.612   2.532 -0.1361 -0.2109  0.7175
  629SOL    HW1 2514   8.025   9.537   2.549  0.7120  0.6260  1.6859
  629SOL    HW2 2515   8.024   9.676   2.490 -0.6725  0.1594  0.5542
  629SOL     MW 2516   7.982   9.610   2.529 -0.0962 -0.0563  0.8206
  630SOL     OW 2517   7.786   8.621   2.354 -0.0472 -0.6065  0.3150
  630SOL    HW1 2518   7.813   8.708   2.326 -0.3132 -0.8193 -0.6050
  630SOL    HW2 2519   7.850   8.598   2.422  0.5453 -0.0526 -0.0394
  630SOL     MW 2520   7.798   8.629   2.359 -0.0054 -0.5629  0.1519
  631SOL     OW 2521   8.969   1.774   3.183  0.3166 -0.1427  0.4593
  631SOL    HW1 2522   9.016   1.694   3.160  0.2362 -0.1436  0.2999
  631SOL    HW2 2523   8.909   1.789   3.110 -0.0798 -0.2565  0.7527
  631SOL     MW 2524   8.967   1.765   3.171  0.2555 -0.1574  0.4765
  632SOL     OW 2525   7.933   0.737   2.357  0.2183 -0.8330  0.1669
  632SOL    HW1 2526   8.027   0.746   2.371  0.2698 -0.3396 -0.4091
  632SOL    HW2 2527   7.920   0.767   2.267 -0.4231 -1.3742  0.0775
  632SOL     MW 2528   7.943   0.742   2.347  0.1428 -0.8391  0.0817
  633SOL     OW 2529   8.023   8.921   2.622 -0.0361 -0.3751  0.1967
  633SOL    HW1 2530   8.111   8.955   2.605 -0.2860 -0.1283 -0.6404
  633SOL    HW2 2531   8.030   8.827   2.603  0.0272 -0.3387  0.0385
  633SOL     MW 2532   8.035   8.913   2.617 -0.0600 -0.3389  0.0693
  634SOL     OW 2533   7.350   7.839   0.709 -0.2948  0.5556 -0.6298
  634SOL    HW1 2534   7.390   7.922   0.680  1.3279 -0.3560 -1.1214
  634SOL    HW2 2535   7.395   7.819   0.791 -1.8257  0.9287  0.3508
  634SOL     MW 2536   7.361   7.847   0.716 -0.2831  0.4867 -0.5672
  635SOL     OW 2537   9.877   5.580   1.895  0.6041 -0.1858 -0.4964
  635SOL    HW1 2538   9.846   5.670   1.884  1.1514  0.7290  3.7224
  635SOL    HW2 2539   9.963   5.578   1.852  1.5625  2.0364  1.1711
  635SOL     MW 2540   9.884   5.591   1.888  0.7968  0.2158  0.2571
  636SOL     OW 2541   7.365   8.638   1.050  0.2380 -0.7460  0.2461
  636SOL    HW1 2542   7.389   8.729   1.034  0.5411 -0.5692  1.6203
  636SOL    HW2 2543   7.408   8.589   0.979 -0.9468  0.2677 -1.2461
  636SOL     MW 2544   7.374   8.643   1.039  0.1252 -0.5936  0.2310
  637SOL     OW 2545   7.476   7.304   2.732  0.1570 -0.1192  0.2140
  637SOL    HW1 2546   7.440   7.374   2.787 -0.4945 -0.4647  0.2373
  637SOL    HW2 2547   7.532   7.349   2.669 -0.7041  0.4982 -0.1410
  637SOL     MW 2548   7.478   7.319   2.731 -0.0367 -0.0844  0.1715
  638SOL     OW 2549   6.808   2.536   0.980  0.0477  0.4684  0.1861
  638SOL    HW1 2550   6.825   2.630   0.971  0.9415  0.2599 -0.4741
  638SOL    HW2 2551   6.776   2.509   0.894  1.4236 -0.1373 -0.1624
  638SOL     MW 2552   6.806   2.545   0.968  0.3382  0.3642  0.0570
  639SOL     OW 2553   0.112   3.580   0.402 -0.5710  0.5324  0.0983
  639SOL    HW1 2554   0.140   3.649   0.342  0.8144  0.3710  0.5190
  639SOL    HW2 2555   0.155   3.601   0.485  1.1475 -1.5849 -0.1389
  639SOL     MW 2556   0.121   3.592   0.405 -0.1736  0.2407  0.1218
  640SOL     OW 2557   8.516   5.569   2.231 -0.0192 -0.7416 -0.0265
  640SOL    HW1 2558   8.464   5.531   2.302  0.2136  1.5046  1.4330
  640SOL    HW2 2559   8.469   5.649   2.207  1.3292 -0.0707 -0.5402
  640SOL     MW 2560   8.503   5.575   2.237  0.1832 -0.3682  0.0946
  641SOL     OW 2561   9.239   3.846   9.597  0.0250  0.0440 -0.5471
  641SOL    HW1 2562   9.202   3.800   9.522  0.8080  0.3831 -1.1449
  641SOL    HW2 2563   9.227   3.939   9.577  1.7100  0.1848 -1.0347
  641SOL     MW 2564   9.233   3.852   9.585  0.3410  0.1054 -0.6860
  642SOL     OW 2565   8.977   8.925   9.717 -0.3408  0.2753 -0.6225
  642SOL    HW1 2566   9.069   8.931   9.743  0.0667 -1.5383 -1.4705
  642SOL    HW2 2567   8.979   8.881   9.633 -2.0551 -0.8343 -0.1288
  642SOL     MW 2568   8.989   8.920   9.710 -0.5081 -0.0989 -0.6679
  643SOL     OW 2569   6.933   2.833   1.533  0.0199  0.3488 -0.0146
  643SOL    HW1 2570   7.023   2.851   1.561 -0.3563  0.7109  0.9924
  643SOL    HW2 2571   6.915   2.745   1.566 -0.0277  0.3100 -0.1429
  643SOL     MW 2572   6.943   2.824   1.541 -0.0344  0.3902  0.0979
  644SOL     OW 2573   8.112   8.506   3.192 -0.0425  0.0884 -0.6556
  644SOL    HW1 2574   8.203   8.491   3.166 -0.4603 -1.6374 -1.2599
  644SOL    HW2 2575   8.092   8.593   3.157  1.0174  0.0016 -1.5630
  644SOL     MW 2576   8.121   8.515   3.184  0.0397 -0.1436 -0.8491
  645SOL     OW 2577   7.811   0.436   9.843 -0.3258 -0.0399  0.6535
  645SOL    HW1 2578   7.818   0.402   9.754 -1.3690  0.9688  0.1635
  645SOL    HW2 2579   7.827   0.360   9.899  0.7390 -0.5998 -0.3832
  645SOL     MW 2580   7.814   0.422   9.839 -0.3231  0.0176  0.4580
  646SOL     OW 2581   9.968   7.339   1.094  0.2300 -0.1471  0.0601
  646SOL    HW1 2582  10.014   7.405   1.145 -0.3412  0.6762 -0.4724
  646SOL    HW2 2583   9.875   7.351   1.115 -0.1009  0.6679 -1.6373
  646SOL     MW 2584   9.962   7.349   1.103  0.1145  0.0626 -0.2253
  647SOL     OW 2585   9.451   6.924   9.895 -0.3023 -0.3017  0.0875
  647SOL    HW1 2586   9.499   6.984   9.953  0.0816  0.3145 -0.8427
  647SOL    HW2 2587   9.441   6.844   9.947 -0.1688  0.3013  1.0849
  647SOL     MW 2588   9.456   6.921   9.909 -0.2361 -0.1456  0.0961
  648SOL     OW 2589   0.506   8.456   1.276 -0.6161  0.3847  0.3063
  648SOL    HW1 2590   0.592   8.493   1.296 -0.2484  0.6716 -1.5489
  648SOL    HW2 2591   0.515   8.362   1.293 -0.8896  0.7778  2.9628
  648SOL     MW 2592   0.518   8.449   1.280 -0.6041  0.4717  0.4088
  649SOL     OW 2593   7.656   5.561   0.415  0.2241  0.6818  0.4599
  649SOL    HW1 2594   7.564   5.581   0.433  0.2486  1.7190 -0.4779
  649SOL    HW2 2595   7.653   5.490   0.352  0.0724  0.6222  0.5337
  649SOL     MW 2596   7.644   5.554   0.410  0.2078  0.8070  0.3493
  650SOL     OW 2597   9.035   8.368   2.276 -0.3741 -0.0414 -0.0896
  650SOL    HW1 2598   8.997   8.283   2.299 -1.6422  0.0183 -1.8026
  650SOL    HW2 2599   9.059   8.360   2.184  2.2839  0.5170  0.4608
  650SOL     MW 2600   9.033   8.356   2.267 -0.1962  0.0377 -0.2384
  651SOL     OW 2601   6.738   5.151  10.080  0.0816  0.0939  0.7963
  651SOL    HW1 2602   6.697   5.077  10.035 -0.0564  0.2148  0.7202
  651SOL    HW2 2603   6.694   5.155  10.165  0.0280  0.1416  0.7667
  651SOL     MW 2604   6.727   5.142  10.085  0.0571  0.1155  0.7828
  652SOL     OW 2605   8.131   0.091   2.844 -0.8064  0.6173 -0.8483
  652SOL    HW1 2606   8.060   0.154   2.830  0.5950  2.3997 -0.3706
  652SOL    HW2 2607   8.092   0.024   2.900 -1.6187  2.6407  1.1896
  652SOL     MW 2608   8.117   0.090   2.849 -0.7310  1.1045 -0.5263
  653SOL     OW 2609   7.260   1.227   1.623  0.0512 -0.3336  0.0740
  653SOL    HW1 2610   7.188   1.252   1.680  1.5539  0.3329  1.7640
  653SOL    HW2 2611   7.219   1.172   1.556 -2.1257  0.6545  0.5105
  653SOL     MW 2612   7.246   1.223   1.622 -0.0351 -0.1218  0.3462
  654SOL     OW 2613   8.541   9.080   8.819 -0.0250 -0.6870 -0.5967
  654SOL    HW1 2614   8.620   9.131   8.802 -1.0261  0.9005 -0.6503
  654SOL    HW2 2615   8.484   9.099   8.745 -1.5626  0.4771  0.8259
  654SOL     MW 2616   8.544   9.089   8.807 -0.3500 -0.3348 -0.4215
  655SOL     OW 2617   8.725   9.176   0.383 -0.3849  0.4307  0.0816
  655SOL    HW1 2618   8.681   9.103   0.340 -0.0334  0.3011 -0.0600
  655SOL    HW2 2619   8.741   9.240   0.313  0.5852  0.0287 -0.0742
  655SOL     MW 2620   8.721   9.175   0.369 -0.2157  0.3626  0.0436
  656SOL     OW 2621   0.113   2.102   1.396 -0.1519 -0.2133  0.0057
  656SOL    HW1 2622   0.091   2.022   1.443  0.8652 -1.1969 -1.1354
  656SOL    HW2 2623   0.044   2.164   1.421 -1.2791 -1.6015  0.4579
  656SOL     MW 2624   0.101   2.100   1.406 -0.1660 -0.5169 -0.0825
  657SOL     OW 2625   8.915   0.865   1.506 -0.3219  0.8742 -0.5361
  657SOL    HW1 2626   8.840   0.856   1.447  1.2351 -1.0866 -2.3697
  657SOL    HW2 2627   8.981   0.910   1.455  0.6022  0.3909  0.1985
  657SOL     MW 2628   8.914   0.869   1.492 -0.0043  0.5613 -0.6768
  658SOL     OW 2629   7.254   4.601   0.359 -0.2358  0.2423  0.7027
  658SOL    HW1 2630   7.214   4.672   0.409 -1.2469 -0.3508  0.7659
  658SOL    HW2 2631   7.201   4.594   0.280  0.8494  0.6230 -0.0878
  658SOL     MW 2632   7.242   4.609   0.355 -0.2263  0.2151  0.6096
  659SOL     OW 2633   6.980   6.316   1.173  0.0127  0.4082 -0.0677
  659SOL    HW1 2634   6.913   6.359   1.227  0.0197 -0.1050  0.3529
  659SOL    HW2 2635   6.931   6.281   1.098 -0.0708  0.6947 -0.1497
  659SOL     MW 2636   6.965   6.317   1.170  0.0029  0.3792 -0.0244
  660SOL     OW 2637   7.989   9.102   3.089  0.0274 -0.5863  0.2259
  660SOL    HW1 2638   7.917   9.125   3.148  0.3844  1.7368 -0.1279
  660SOL    HW2 2639   8.067   9.138   3.131  0.8685 -2.2046  0.1247
  660SOL     MW 2640   7.990   9.110   3.102  0.1808 -0.4961  0.1677
  661SOL     OW 2641   7.799   7.892   1.251  0.0588  0.5855 -0.2098
  661SOL    HW1 2642   7.771   7.806   1.281 -0.0029  0.1501 -1.4735
  661SOL    HW2 2643   7.773   7.952   1.321 -1.3936 -0.1889 -0.0668
  661SOL     MW 2644   7.792   7.888   1.264 -0.1350  0.4307 -0.3532
  662SOL     OW 2645   7.247  10.113   9.230 -0.2982  0.5701 -0.2142
  662SOL    HW1 2646   7.266  10.136   9.139 -0.4803  1.0308 -0.1367
  662SOL    HW2 2647   7.153  10.127   9.240 -0.6269 -1.2128 -0.4469
  662SOL     MW 2648   7.238  10.118   9.220 -0.3636  0.4008 -0.2341
  663SOL     OW 2649   8.698   7.771   9.914  0.1475  0.2764  0.4804
  663SOL    HW1 2650   8.725   7.832   9.846 -0.1800 -0.1244 -0.0209
  663SOL    HW2 2651   8.603   7.763   9.903  0.4347 -2.1843 -1.1021
  663SOL     MW 2652   8.689   7.778   9.904  0.1423 -0.0899  0.2137
  664SOL     OW 2653   7.920   8.930   0.740  0.2908 -0.4848 -0.1502
  664SOL    HW1 2654   7.909   9.009   0.687  0.4130  0.1230  0.7146
  664SOL    HW2 2655   7.978   8.874   0.688 -2.0857 -1.2830 -2.1423
  664SOL     MW 2656   7.926   8.933   0.727  0.0022 -0.5092 -0.2945
  665SOL     OW 2657   9.578   5.163   2.239  0.2897  0.8941 -0.2504
  665SOL    HW1 2658   9.642   5.215   2.288 -0.7009  0.4960  1.5345
  665SOL    HW2 2659   9.544   5.099   2.302  0.4811 -1.0710 -2.0178
  665SOL     MW 2660   9.582   5.162   2.253  0.1874  0.5915 -0.2482
  666SOL     OW 2661   6.632   2.504   2.027 -0.3770 -0.2518 -0.1489
  666SOL    HW1 2662   6.644   2.415   1.994  3.0262  0.2048 -0.4937
  666SOL    HW2 2663   6.622   2.494   2.121  1.1608 -0.9809 -0.0373
  666SOL     MW 2664   6.632   2.492   2.035  0.2555 -0.2867 -0.1788
  667SOL     OW 2665   7.994   6.375   1.842 -0.0219  0.4158  0.0703
  667SOL    HW1 2666   8.027   6.337   1.924  0.2768  1.3226  0.3798
  667SOL    HW2 2667   8.054   6.447   1.823  0.3988 -0.2804 -1.3917
  667SOL     MW 2668   8.006   6.380   1.850  0.0702  0.4427 -0.0773
  668SOL     OW 2669   8.531   9.907   9.752 -0.0790  0.2993 -0.0575
  668SOL    HW1 2670   8.545   9.937   9.842 -0.2526  0.6112 -0.1316
  668SOL    HW2 2671   8.599   9.842   9.738 -0.7161 -0.5518  0.6661
  668SOL     MW 2672   8.542   9.903   9.762 -0.1827  0.2303  0.0256
  669SOL     OW 2673   8.682   1.504   8.868 -0.2110  0.1775  0.2805
  669SOL    HW1 2674   8.629   1.565   8.919  0.0155  1.9400 -1.4821
  669SOL    HW2 2675   8.768   1.544   8.864 -0.5807  0.9364 -2.6679
  669SOL     MW 2676   8.686   1.517   8.874 -0.2293  0.5003 -0.3225
  670SOL     OW 2677   8.026   1.583   1.421 -0.3362  0.1048 -0.2963
  670SOL    HW1 2678   8.056   1.610   1.508  0.6001  1.0902 -0.9010
  670SOL    HW2 2679   8.010   1.489   1.429  2.9754 -0.5556  0.0908
  670SOL     MW 2680   8.028   1.575   1.434  0.2076  0.1464 -0.3242
  671SOL     OW 2681   9.011   5.010   1.964 -0.0022  0.0842 -0.1515
  671SOL    HW1 2682   9.058   5.054   1.893  0.4623 -0.4444 -0.1761
  671SOL    HW2 2683   9.017   4.917   1.944  0.2997 -0.0877  0.6686
  671SOL     MW 2684   9.018   5.004   1.953  0.0959 -0.0055 -0.0497
  672SOL     OW 2685   8.250   2.373   9.604 -0.3170  0.2053  0.8902
  672SOL    HW1 2686   8.172   2.350   9.654 -0.9582  0.1919 -0.1082
  672SOL    HW2 2687   8.219   2.429   9.534  0.5136 -0.1176  0.2474
  672SOL     MW 2688   8.236   2.377   9.602 -0.2928  0.1623  0.6801
  673SOL     OW 2689   8.787   4.889   9.910 -0.6390 -0.0850 -0.2977
  673SOL    HW1 2690   8.801   4.973   9.868 -2.5844  0.6544  0.3978
  673SOL    HW2 2691   8.697   4.894   9.944 -0.2511 -1.8323  1.1439
  673SOL     MW 2692   8.777   4.900   9.909 -0.8384 -0.2140 -0.0241
  674SOL     OW 2693   7.590   0.879   9.063 -0.0673 -0.0821  0.3762
  674SOL    HW1 2694   7.509   0.829   9.062  0.3186 -0.9052 -2.8113
  674SOL    HW2 2695   7.567   0.963   9.024  0.2474  0.4347  1.2787
  674SOL     MW 2696   7.577   0.883   9.057  0.0224 -0.1213  0.0837
  675SOL     OW 2697   6.929   4.591   1.276  0.6612  0.4606  0.1276
  675SOL    HW1 2698   6.913   4.681   1.248 -0.1739  0.2101 -0.2194
  675SOL    HW2 2699   6.914   4.538   1.198 -0.4028 -0.1207  0.7042
  675SOL     MW 2700   6.925   4.596   1.263  0.4181  0.3541  0.1570
  676SOL     OW 2701   9.966   3.432   0.681  0.2728 -0.5970 -0.1306
  676SOL    HW1 2702   9.974   3.448   0.587 -1.4827  0.6154 -0.1206
  676SOL    HW2 2703  10.027   3.494   0.721  0.8128 -0.9113 -0.4643
  676SOL     MW 2704   9.975   3.442   0.674  0.1172 -0.4820 -0.1720
  677SOL     OW 2705   9.090   0.316   0.342 -0.1977  0.2513 -0.4819
  677SOL    HW1 2706   9.054   0.397   0.379 -0.5905  0.2044 -0.7518
  677SOL    HW2 2707   9.094   0.255   0.415 -1.9095 -0.1647 -0.7026
  677SOL     MW 2708   9.086   0.319   0.356 -0.4671  0.1921 -0.5447
  678SOL     OW 2709   8.045   7.781   1.683  0.4031 -0.1365  0.2741
  678SOL    HW1 2710   8.134   7.814   1.693  0.7880 -0.7739 -0.8464
  678SOL    HW2 2711   8.056   7.689   1.661 -0.5655 -0.3732  0.7089
  678SOL     MW 2712   8.058   7.774   1.682  0.3284 -0.2484  0.1864
  679SOL     OW 2713   8.579   0.522   2.946 -0.4628 -0.1241 -0.0053
  679SOL    HW1 2714   8.497   0.473   2.954 -1.0158  0.6024 -1.0540
  679SOL    HW2 2715   8.595   0.554   3.035 -0.3987 -1.6703  0.5808
  679SOL     MW 2716   8.570   0.520   2.959 -0.5254 -0.2290 -0.0645
  680SOL     OW 2717   0.344   2.904   0.116 -0.2696 -0.3883 -0.1385
  680SOL    HW1 2718   0.310   2.960   0.046  0.2583  1.1206  0.7722
  680SOL    HW2 2719   0.265   2.873   0.161 -0.5748  1.9505  1.0859
  680SOL     MW 2720   0.329   2.907   0.113 -0.2411  0.1043  0.1348
  681SOL     OW 2721   6.976   2.848  10.152 -0.6069 -0.1222  0.8255
  681SOL    HW1 2722   7.068   2.871  10.134 -0.2235 -1.7587  0.5020
  681SOL    HW2 2723   6.931   2.932  10.160  0.9928  0.7199  1.3705
  681SOL     MW 2724   6.982   2.862  10.150 -0.3530 -0.2239  0.8539
  682SOL     OW 2725   6.299   8.361   0.620 -0.3933  0.0527  0.6696
  682SOL    HW1 2726   6.318   8.379   0.528 -1.1517  1.0005  0.6862
  682SOL    HW2 2727   6.361   8.416   0.668 -0.1308 -0.2912  0.7236
  682SOL     MW 2728   6.309   8.371   0.615 -0.4568  0.1300  0.6787
  683SOL     OW 2729   8.715   1.413   2.919 -0.1257 -0.0935 -0.0272
  683SOL    HW1 2730   8.759   1.365   2.990 -1.5576  1.0306  1.7321
  683SOL    HW2 2731   8.627   1.374   2.916  0.1133 -0.5532 -1.6622
  683SOL     MW 2732   8.709   1.402   2.928 -0.2784 -0.0085 -0.0113
  684SOL     OW 2733   7.220   3.998  10.069 -0.2871  0.0830  0.1376
  684SOL    HW1 2734   7.175   3.925  10.026 -0.3119  0.3054 -0.2164
  684SOL    HW2 2735   7.310   3.994  10.036 -0.4555  0.6156 -0.4001
  684SOL     MW 2736   7.226   3.988  10.060 -0.3118  0.1796  0.0234
  685SOL     OW 2737   7.405   0.627   0.882 -0.4161  0.2005 -0.8666
  685SOL    HW1 2738   7.484   0.668   0.847  0.3069 -1.9677 -1.9766
  685SOL    HW2 2739   7.339   0.643   0.814 -0.0969 -0.5263 -1.3672
  685SOL     MW 2740   7.406   0.634   0.869 -0.2827 -0.1701 -1.0728
  686SOL     OW 2741   8.219   5.454   0.391 -0.0759  0.2711 -0.5479
  686SOL    HW1 2742   8.129   5.457   0.425 -0.0460 -0.6413 -0.3642
  686SOL    HW2 2743   8.268   5.512   0.450 -0.4010  0.1997 -0.1982
  686SOL     MW 2744   8.214   5.462   0.403 -0.1137  0.1452 -0.4796
  687SOL     OW 2745   8.123   3.021   1.285  0.0532  0.1713  0.0786
  687SOL    HW1 2746   8.044   3.075   1.285 -0.6929 -0.8972  0.8287
  687SOL    HW2 2747   8.194   3.083   1.300 -0.6605  1.1084 -0.2973
  687SOL     MW 2748   8.122   3.036   1.287 -0.1337  0.1545  0.1265
  688SOL     OW 2749   7.967   2.981   0.500 -0.2019  0.5022  0.2034
  688SOL    HW1 2750   7.926   2.972   0.586  1.5977 -0.0550  1.0485
  688SOL    HW2 2751   8.030   3.053   0.510  0.4570  0.0339 -0.4618
  688SOL     MW 2752   7.970   2.989   0.512  0.1128  0.3710  0.2265
  689SOL     OW 2753   8.256   1.417   0.498  0.1193 -0.6519  0.2941
  689SOL    HW1 2754   8.206   1.371   0.565 -1.2450  0.3436 -0.0119
  689SOL    HW2 2755   8.304   1.347   0.452 -1.0838 -1.6490  0.5017
  689SOL     MW 2756   8.256   1.402   0.501 -0.2094 -0.6521  0.2815
  690SOL     OW 2757   7.156   5.062   9.879 -0.0916 -0.0581 -0.3005
  690SOL    HW1 2758   7.177   5.072   9.972  0.8834  0.7439 -0.5819
  690SOL    HW2 2759   7.144   4.968   9.867 -1.9112 -0.0309  0.9529
  690SOL     MW 2760   7.157   5.051   9.889 -0.1998  0.0481 -0.1761
  691SOL     OW 2761   8.564   2.672   0.875 -0.4878 -0.2028  0.4815
  691SOL    HW1 2762   8.494   2.684   0.810 -1.5334  1.1671  1.7957
  691SOL    HW2 2763   8.527   2.704   0.957  1.0914 -1.1131  1.6088
  691SOL     MW 2764   8.551   2.678   0.877 -0.4195 -0.1439  0.7941
  692SOL     OW 2765   6.721   9.225   0.319 -0.0300  0.0261  0.1671
  692SOL    HW1 2766   6.711   9.318   0.298 -0.3261  0.7376  3.0578
  692SOL    HW2 2767   6.639   9.186   0.289 -0.8535  1.1324  0.8934
  692SOL     MW 2768   6.709   9.232   0.312 -0.1733  0.2588  0.6301
  693SOL     OW 2769   9.047   2.651   2.481  0.1199  0.6009 -0.2627
  693SOL    HW1 2770   9.112   2.666   2.549 -1.0245 -1.2418  1.3243
  693SOL    HW2 2771   9.001   2.735   2.473  0.7196  1.0411  0.7467
  693SOL     MW 2772   9.049   2.664   2.488  0.0502  0.4213  0.0696
  694SOL     OW 2773   7.874   5.833   1.831 -0.3143  0.4338  0.5591
  694SOL    HW1 2774   7.790   5.846   1.786 -0.1650  0.2238  0.2151
  694SOL    HW2 2775   7.914   5.919   1.833  0.0504  0.3025 -0.4685
  694SOL     MW 2776   7.868   5.845   1.826 -0.2485  0.3901  0.3835
  695SOL     OW 2777   9.713   2.281   2.512 -0.7440  0.0728 -0.3343
  695SOL    HW1 2778   9.711   2.312   2.602 -0.6707 -3.7492  1.1637
  695SOL    HW2 2779   9.803   2.298   2.483 -1.7292  5.1631 -1.4730
  695SOL     MW 2780   9.724   2.287   2.520 -0.8607  0.2352 -0.2883
  696SOL     OW 2781  10.032   8.601   2.276  0.6842 -0.4414 -0.1370
  696SOL    HW1 2782  10.019   8.609   2.370 -0.4283 -0.5531 -0.2605
  696SOL    HW2 2783  10.003   8.685   2.240 -0.2375 -0.8942 -0.4846
  696SOL     MW 2784  10.027   8.613   2.283  0.4238 -0.5137 -0.1973
  697SOL     OW 2785   8.200   4.214   2.137 -0.1753  0.1376 -0.4944
  697SOL    HW1 2786   8.186   4.308   2.142 -0.8480  0.2164 -2.8048
  697SOL    HW2 2787   8.295   4.203   2.127 -0.0361  0.5145  0.3629
  697SOL     MW 2788   8.210   4.225   2.137 -0.2436  0.1960 -0.6804
  698SOL     OW 2789   7.826  10.058   1.199  0.2416  0.1988  0.1486
  698SOL    HW1 2790   7.892   9.989   1.204  0.3465  0.3728  2.8749
  698SOL    HW2 2791   7.753  10.018   1.151  0.7249 -1.4390  0.7036
  698SOL     MW 2792   7.825  10.044   1.194  0.3169  0.0114  0.5687
  699SOL     OW 2793   7.304   6.494   9.615 -0.7783 -0.2051  0.2812
  699SOL    HW1 2794   7.370   6.425   9.602  0.7751  1.4175 -0.8697
  699SOL    HW2 2795   7.327   6.533   9.699  0.0966  0.6854 -0.3474
  699SOL     MW 2796   7.315   6.490   9.624 -0.4674  0.1166  0.0534
  700SOL     OW 2797   9.198   4.510  -0.001 -0.0387  0.2032  0.2102
  700SOL    HW1 2798   9.169   4.529   0.089 -1.0262  0.3740 -0.1305
  700SOL    HW2 2799   9.152   4.574  -0.055  1.5443  0.9652 -0.3091
  700SOL     MW 2800   9.189   4.520   0.004  0.0375  0.3226  0.1001
  701SOL     OW 2801   9.318   9.896   9.006  0.1078 -0.2810  0.0805
  701SOL    HW1 2802   9.246   9.951   8.978  1.1755  1.5147  0.6878
  701SOL    HW2 2803   9.284   9.807   9.002 -2.5105  0.5633  1.3891
  701SOL     MW 2804   9.305   9.891   9.002 -0.0907  0.0569  0.3257
  702SOL     OW 2805   9.893   2.828   1.955 -0.3418 -0.0124  0.1342
  702SOL    HW1 2806   9.857   2.755   2.005  0.0723 -0.4619 -0.2060
  702SOL    HW2 2807   9.967   2.859   2.007 -0.2478 -0.1259  0.0701
  702SOL     MW 2808   9.898   2.823   1.968 -0.2767 -0.0845  0.0824
  703SOL     OW 2809   0.169   1.330   0.254 -0.4551 -0.0721  0.2582
  703SOL    HW1 2810   0.116   1.366   0.184 -0.4613  0.4030  0.5079
  703SOL    HW2 2811   0.255   1.371   0.243 -1.0643  1.8142  1.9092
  703SOL     MW 2812   0.173   1.340   0.244 -0.5338  0.2302  0.5015
  704SOL     OW 2813  10.128   4.314   1.076  0.3248  0.0644 -0.0316
  704SOL    HW1 2814  10.139   4.371   1.152 -1.8911  0.0151  0.3902
  704SOL    HW2 2815  10.103   4.373   1.005 -1.0355 -0.2497  0.1705
  704SOL     MW 2816  10.127   4.329   1.077 -0.1330  0.0179  0.0483
  705SOL     OW 2817   8.368   0.472   9.803  0.0938  0.0874 -0.1690
  705SOL    HW1 2818   8.355   0.554   9.755  0.0196 -0.5540 -1.2538
  705SOL    HW2 2819   8.338   0.493   9.892  0.3875  1.3315 -0.3359
  705SOL     MW 2820   8.362   0.485   9.808  0.1219  0.1646 -0.3292
  706SOL     OW 2821   8.288   5.011   8.850 -0.7915  0.3550 -0.5023
  706SOL    HW1 2822   8.319   4.925   8.877 -0.0914  1.1600  1.5184
  706SOL    HW2 2823   8.197   5.014   8.879  0.0597  1.3559  2.5051
  706SOL     MW 2824   8.281   5.001   8.857 -0.5929  0.5862  0.1413
  707SOL     OW 2825   8.712   1.462   0.117 -0.2993 -0.6524 -0.6149
  707SOL    HW1 2826   8.691   1.548   0.079 -0.3125  0.1277  1.0703
  707SOL    HW2 2827   8.805   1.466   0.136 -0.7161 -0.0622  1.6220
  707SOL     MW 2828   8.721   1.474   0.114 -0.3544 -0.4770 -0.1128
  708SOL     OW 2829   9.488   8.998   9.283  0.1232  0.1028 -0.0400
  708SOL    HW1 2830   9.432   8.922   9.271 -1.2023  0.7954  1.3482
  708SOL    HW2 2831   9.452   9.064   9.224 -0.6688  0.5895  0.9442
  708SOL     MW 2832   9.476   8.997   9.274 -0.1478  0.2537  0.2637
  709SOL     OW 2833   8.320   2.612   1.201 -0.0717  0.1732 -0.5264
  709SOL    HW1 2834   8.232   2.647   1.190  0.7559  2.1854 -1.3426
  709SOL    HW2 2835   8.347   2.643   1.288 -0.9918 -2.5434  0.8356
  709SOL     MW 2836   8.312   2.620   1.211 -0.0835  0.0830 -0.4566
  710SOL     OW 2837   8.081   9.049   1.291 -0.1445  0.9801  0.1202
  710SOL    HW1 2838   8.168   9.089   1.300  0.6417 -0.5390 -0.4059
  710SOL    HW2 2839   8.064   9.050   1.197 -0.2382  0.3558  0.1262
  710SOL     MW 2840   8.090   9.054   1.280 -0.0559  0.7057  0.0536
  711SOL     OW 2841   6.556   1.477   9.579 -0.6398 -0.1902 -0.1270
  711SOL    HW1 2842   6.600   1.523   9.507 -0.5672 -1.2918 -0.8170
  711SOL    HW2 2843   6.607   1.396   9.590 -1.1576 -0.4228  0.5891
  711SOL     MW 2844   6.568   1.472   9.571 -0.6967 -0.3610 -0.1237
  712SOL     OW 2845   7.009   4.201   1.597  0.1232  0.1380 -0.2411
  712SOL    HW1 2846   6.989   4.113   1.629 -0.5167  0.3234 -0.1027
  712SOL    HW2 2847   7.082   4.189   1.536 -0.3873 -0.5829 -0.7263
  712SOL     MW 2848   7.016   4.189   1.594 -0.0240  0.0694 -0.2855
  713SOL     OW 2849   8.872   9.583   2.616  0.5692 -0.1464  0.2017
  713SOL    HW1 2850   8.816   9.542   2.682  0.1523  0.7804  0.4325
  713SOL    HW2 2851   8.882   9.673   2.646  0.3126  0.3109 -1.0460
  713SOL     MW 2852   8.866   9.589   2.628  0.4830  0.0308  0.0715
  714SOL     OW 2853   6.964   9.170   1.069 -0.1667  0.1389  0.2939
  714SOL    HW1 2854   6.973   9.261   1.098  0.3228  0.2939 -0.3196
  714SOL    HW2 2855   7.024   9.121   1.124  1.0696  0.4922 -0.6924
  714SOL     MW 2856   6.973   9.175   1.079  0.0542  0.2040  0.0891
  715SOL     OW 2857   8.235   3.543   1.014  0.1077 -0.3102 -0.2833
  715SOL    HW1 2858   8.269   3.467   0.967 -1.5540 -1.1017 -0.2418
  715SOL    HW2 2859   8.292   3.551   1.091  2.6262  0.7639 -2.0992
  715SOL     MW 2860   8.247   3.535   1.018  0.2174 -0.2740 -0.5105
  716SOL     OW 2861   0.280  10.126   0.951  0.3111 -0.6291  0.4675
  716SOL    HW1 2862   0.334  10.130   0.872 -0.1277 -2.0208  0.0642
  716SOL    HW2 2863   0.219  10.200   0.942  0.4156 -0.6307 -0.3915
  716SOL     MW 2864   0.279  10.136   0.939  0.2683 -0.8075  0.3059
  717SOL     OW 2865   9.516   4.412   0.227 -0.1180  0.3229  0.0450
  717SOL    HW1 2866   9.511   4.498   0.269  1.2967  0.3658  0.1553
  717SOL    HW2 2867   9.550   4.430   0.140 -1.0219 -0.0019 -0.3856
  717SOL     MW 2868   9.519   4.425   0.222 -0.0526  0.2868  0.0040
  718SOL     OW 2869   9.382   9.289   1.045 -0.5103  0.3997  0.0267
  718SOL    HW1 2870   9.296   9.262   1.012 -0.0035 -0.4575 -0.6540
  718SOL    HW2 2871   9.367   9.375   1.084 -1.7749  0.0558  0.3656
  718SOL     MW 2872   9.369   9.296   1.046 -0.6073  0.2459 -0.0171
  719SOL     OW 2873   7.477   6.259   0.699 -0.1338 -0.7050  0.3542
  719SOL    HW1 2874   7.562   6.237   0.737 -0.1397 -0.0668  0.7485
  719SOL    HW2 2875   7.425   6.291   0.773 -0.1649  0.4879 -0.1682
  719SOL     MW 2876   7.481   6.260   0.713 -0.1386 -0.4706  0.3378
  720SOL     OW 2877   8.786   9.119   9.683 -0.0076 -0.0476 -0.0953
  720SOL    HW1 2878   8.839   9.042   9.698 -1.6151 -1.4910 -1.3656
  720SOL    HW2 2879   8.732   9.127   9.761 -1.5787 -1.7716 -0.9228
  720SOL     MW 2880   8.786   9.111   9.695 -0.4145 -0.4530 -0.3638
  721SOL     OW 2881   9.329   0.359   1.396 -0.2895  0.0982 -0.1607
  721SOL    HW1 2882   9.313   0.273   1.358 -2.3527  0.3419  0.0440
  721SOL    HW2 2883   9.344   0.416   1.320  0.0773 -0.2491 -0.3524
  721SOL     MW 2884   9.329   0.355   1.381 -0.5066  0.0849 -0.1590
  722SOL     OW 2885   7.162   5.552   1.161 -0.3219 -0.0760 -0.7806
  722SOL    HW1 2886   7.095   5.487   1.139  0.8044 -2.1637  1.4009
  722SOL    HW2 2887   7.121   5.606   1.228  0.6218 -2.6308  2.0828
  722SOL     MW 2888   7.148   5.550   1.167 -0.0569 -0.6703 -0.1348
  723SOL     OW 2889   9.334   8.940   0.664  0.7720 -0.0921 -0.1206
  723SOL    HW1 2890   9.307   8.849   0.649 -1.4348  0.3476  0.7972
  723SOL    HW2 2891   9.266   8.976   0.720  2.6366  1.5865  1.2242
  723SOL     MW 2892   9.322   8.933   0.670  0.7282  0.1791  0.1690
  724SOL     OW 2893   9.742   1.315   0.789 -0.0371 -0.0848  0.1494
  724SOL    HW1 2894   9.649   1.313   0.812 -0.4484 -0.3173 -1.4096
  724SOL    HW2 2895   9.764   1.224   0.769  0.0878  0.1849 -1.0341
  724SOL     MW 2896   9.733   1.303   0.789 -0.0738 -0.0800 -0.2017
  725SOL     OW 2897   7.111   8.451   9.798 -0.5886  0.1569 -0.4632
  725SOL    HW1 2898   7.147   8.416   9.717 -1.5532 -0.1503 -0.7779
  725SOL    HW2 2899   7.023   8.414   9.803 -0.9603  1.0704  0.1438
  725SOL     MW 2900   7.104   8.442   9.789 -0.7596  0.2345 -0.4258
  726SOL     OW 2901   9.758   8.880   0.197 -0.3137 -0.0856 -0.0709
  726SOL    HW1 2902   9.744   8.811   0.131  2.6538 -0.0053 -0.9441
  726SOL    HW2 2903   9.789   8.833   0.274  0.5298  0.1465 -0.2581
  726SOL     MW 2904   9.760   8.865   0.198  0.1742 -0.0456 -0.2066
  727SOL     OW 2905   7.728   7.186   1.763 -0.0688 -0.5585  0.1321
  727SOL    HW1 2906   7.756   7.223   1.847 -1.8492 -1.5460  1.2368
  727SOL    HW2 2907   7.635   7.211   1.757  0.0268 -0.5248 -1.5567
  727SOL     MW 2908   7.719   7.194   1.773 -0.2845 -0.6806  0.0573
  728SOL     OW 2909   8.492   2.055   2.795  0.9334 -0.1016  0.5201
  728SOL    HW1 2910   8.542   1.972   2.798  1.7252  0.3816  1.0024
  728SOL    HW2 2911   8.486   2.083   2.886  1.0531  0.5921  0.3194
  728SOL     MW 2912   8.498   2.048   2.807  1.0501  0.0490  0.5561
  729SOL     OW 2913   0.455   2.259   0.673 -0.2623 -0.2340 -0.8608
  729SOL    HW1 2914   0.538   2.282   0.632  0.1149 -0.7044 -0.3649
  729SOL    HW2 2915   0.477   2.194   0.739 -0.9093  0.2500 -0.1454
  729SOL     MW 2916   0.468   2.254   0.676 -0.2968 -0.2323 -0.7057
  730SOL     OW 2917   8.244   9.870   2.888  0.4639 -0.5633 -0.4374
  730SOL    HW1 2918   8.266   9.790   2.936  0.8360 -0.0429  0.2875
  730SOL    HW2 2919   8.322   9.925   2.896 -0.6187  0.8519  1.1746
  730SOL     MW 2920   8.256   9.867   2.895  0.3729 -0.3155 -0.1382
  731SOL     OW 2921   6.934   2.384   2.361  0.5445  0.0205 -0.0034
  731SOL    HW1 2922   7.008   2.339   2.402  0.9858 -0.6345 -1.4644
  731SOL    HW2 2923   6.958   2.391   2.269 -2.3747 -2.8438 -1.1633
  731SOL     MW 2924   6.947   2.379   2.355  0.2273 -0.4300 -0.3389
  732SOL     OW 2925   6.872   0.918   1.270  0.2971 -0.4186 -0.2349
  732SOL    HW1 2926   6.864   0.922   1.175  0.1096  0.1594 -0.1983
  732SOL    HW2 2927   6.869   1.009   1.298 -0.2761 -0.6175  0.3812
  732SOL     MW 2928   6.871   0.930   1.262  0.1997 -0.3700 -0.1513
  733SOL     OW 2929   7.632   7.630   1.625 -0.1944 -0.6308  0.2765
  733SOL    HW1 2930   7.704   7.684   1.658  0.1823 -0.9413 -0.0215
  733SOL    HW2 2931   7.675   7.558   1.580 -0.6902 -0.4270 -0.5545
  733SOL     MW 2932   7.647   7.628   1.624 -0.2096 -0.6445  0.1320
  734SOL     OW 2933   6.552   0.208   9.894  0.7755  0.2784 -0.9548
  734SOL    HW1 2934   6.622   0.226   9.832  0.1209 -2.3364 -2.6060
  734SOL    HW2 2935   6.593   0.153   9.961  0.3381 -1.3353 -1.9745
  734SOL     MW 2936   6.566   0.204   9.895  0.6357 -0.2629 -1.2967
  735SOL     OW 2937   7.420  10.147   2.453  0.2672  0.1277  0.3958
  735SOL    HW1 2938   7.486  10.095   2.405  0.6026  0.7579  0.1702
  735SOL    HW2 2939   7.411  10.227   2.403 -1.9088 -0.6125 -0.4971
  735SOL     MW 2940   7.427  10.150   2.441  0.0316  0.1136  0.2527
  736SOL     OW 2941   9.532   6.465   2.417  0.4208  0.2123 -0.2852
  736SOL    HW1 2942   9.482   6.410   2.477  0.1456 -0.5347 -1.1598
  736SOL    HW2 2943   9.623   6.452   2.443  0.4141 -1.1371 -0.8074
  736SOL     MW 2944   9.537   6.456   2.428  0.3847 -0.0560 -0.4640
  737SOL     OW 2945   7.230   1.395   9.679 -0.3372 -0.0486 -0.0472
  737SOL    HW1 2946   7.251   1.414   9.770  2.1504 -0.3402 -0.5126
  737SOL    HW2 2947   7.226   1.481   9.636  0.4995 -0.0085 -0.0538
  737SOL     MW 2948   7.232   1.408   9.685  0.0883 -0.0808 -0.1076
  738SOL     OW 2949   7.152   6.871   9.621 -0.1412 -0.1146  0.0741
  738SOL    HW1 2950   7.107   6.890   9.539 -0.1283  0.8058  0.2670
  738SOL    HW2 2951   7.111   6.790   9.653  1.8999 -2.2730 -2.2882
  738SOL     MW 2952   7.141   6.863   9.615  0.1218 -0.2731 -0.2036
  739SOL     OW 2953   7.747   9.755   1.571 -0.1645  0.6768  0.6583
  739SOL    HW1 2954   7.751   9.830   1.631  0.3960  1.3973 -0.2422
  739SOL    HW2 2955   7.759   9.678   1.627  1.3464  1.3817  1.3717
  739SOL     MW 2956   7.749   9.755   1.586  0.1006  0.8593  0.6344
  740SOL     OW 2957   7.459   9.500   9.642 -0.2118 -0.1873 -0.0130
  740SOL    HW1 2958   7.418   9.540   9.566  0.6513 -0.0957 -0.4382
  740SOL    HW2 2959   7.553   9.509   9.627  0.1510  3.3763  2.8214
  740SOL     MW 2960   7.465   9.506   9.630 -0.0549  0.2806  0.2954
  741SOL     OW 2961   6.854   5.184   9.506  0.1979 -0.1145 -0.0342
  741SOL    HW1 2962   6.923   5.225   9.558 -0.5030  0.4137  0.4904
  741SOL    HW2 2963   6.791   5.152   9.571 -0.3017 -0.1442 -0.5298
  741SOL     MW 2964   6.855   5.185   9.521  0.0442 -0.0507 -0.0305
  742SOL     OW 2965   7.355   7.774   2.571 -0.1118 -0.4112  0.9444
  742SOL    HW1 2966   7.340   7.680   2.575  1.3884 -0.6886  0.5198
  742SOL    HW2 2967   7.336   7.798   2.481  2.6373 -0.9253  0.1551
  742SOL     MW 2968   7.350   7.765   2.560  0.4321 -0.5125  0.7890
  743SOL     OW 2969   8.628   8.891   1.494  0.0435 -0.2326 -0.0254
  743SOL    HW1 2970   8.702   8.840   1.462  2.2217  0.2532  3.6700
  743SOL    HW2 2971   8.597   8.843   1.571 -2.3928  0.5002 -0.4673
  743SOL     MW 2972   8.634   8.879   1.500  0.0105 -0.0766  0.3911
  744SOL     OW 2973   8.395   8.967   2.843  0.2087 -0.0746 -0.0779
  744SOL    HW1 2974   8.448   8.915   2.783 -0.2385 -1.5949  0.7960
  744SOL    HW2 2975   8.351   8.903   2.898 -1.2147  1.1999  0.3446
  744SOL     MW 2976   8.396   8.953   2.842 -0.0308 -0.1061  0.0881
  745SOL     OW 2977   6.875   3.352   9.702  0.0280 -0.0912 -0.1220
  745SOL    HW1 2978   6.962   3.377   9.735  0.9276 -0.2333 -2.2673
  745SOL    HW2 2979   6.854   3.419   9.637 -2.1696  0.7697  1.3481
  745SOL     MW 2980   6.884   3.364   9.698 -0.1381  0.0008 -0.2084
  746SOL     OW 2981   6.633   7.385   2.313 -0.2738  0.3590  0.0935
  746SOL    HW1 2982   6.578   7.448   2.359 -1.2442 -0.2302 -0.2327
  746SOL    HW2 2983   6.584   7.303   2.316  0.7084 -0.2481  0.0090
  746SOL     MW 2984   6.620   7.383   2.319 -0.2723  0.2058  0.0409
  747SOL     OW 2985   6.855   6.141   0.152 -0.0302  0.4242  0.0851
  747SOL    HW1 2986   6.906   6.185   0.084  1.3992  0.2965  1.0167
  747SOL    HW2 2987   6.853   6.049   0.124 -2.2623  0.8665 -1.4093
  747SOL     MW 2988   6.861   6.135   0.140 -0.1330  0.4645  0.0131
  748SOL     OW 2989   8.215   6.654   0.740 -0.3230 -0.3369 -0.4691
  748SOL    HW1 2990   8.152   6.585   0.719 -0.6395 -0.4188  0.6476
  748SOL    HW2 2991   8.280   6.611   0.796 -0.3467  0.1853 -0.0261
  748SOL     MW 2992   8.215   6.640   0.745 -0.3666 -0.2806 -0.2695
  749SOL     OW 2993   9.856   1.069   0.636 -0.1036  0.7021 -0.3898
  749SOL    HW1 2994   9.783   1.093   0.579  0.2263  0.3509 -0.9628
  749SOL    HW2 2995   9.921   1.137   0.620 -0.6855  1.6018  0.8812
  749SOL     MW 2996   9.855   1.081   0.627 -0.1358  0.7724 -0.3004
  750SOL     OW 2997   8.962   3.507   0.593 -0.0759  0.0086  0.1381
  750SOL    HW1 2998   9.019   3.571   0.636 -0.0636  0.1885 -0.1464
  750SOL    HW2 2999   8.901   3.560   0.541 -0.7381 -0.1665  0.7229
  750SOL     MW 3000   8.961   3.522   0.592 -0.1591  0.0092  0.1765
  751SOL     OW 3001   7.730   3.331   9.009 -0.0295 -0.0864 -0.6990
  751SOL    HW1 3002   7.691   3.342   9.096 -0.9109 -0.9750 -0.9756
  751SOL    HW2 3003   7.669   3.276   8.961  0.2350  0.7395 -2.0430
  751SOL     MW 3004   7.717   3.326   9.014 -0.1085 -0.0944 -0.9065
  752SOL     OW 3005   8.740   0.454   0.436  0.2345 -0.4835 -0.4900
  752SOL    HW1 3006   8.836   0.457   0.435  0.2273 -0.2286 -0.4271
  752SOL    HW2 3007   8.714   0.532   0.484 -0.0804  0.7835 -2.6311
  752SOL     MW 3008   8.749   0.464   0.442  0.1932 -0.2887 -0.7560
  753SOL     OW 3009   8.645   4.135   0.440  0.3491  0.2488 -0.4158
  753SOL    HW1 3010   8.574   4.071   0.429  0.8469 -0.3805 -0.0530
  753SOL    HW2 3011   8.723   4.089   0.408  0.8446  0.3947  0.5375
  753SOL     MW 3012   8.646   4.121   0.435  0.4763  0.1869 -0.2473
  754SOL     OW 3013   7.829   6.220   2.413 -0.3573  0.0533 -0.3534
  754SOL    HW1 3014   7.914   6.264   2.425  0.5596 -1.6908 -0.0425
  754SOL    HW2 3015   7.787   6.228   2.498  1.6107 -3.1346  1.1244
  754SOL     MW 3016   7.835   6.227   2.426  0.0120 -0.5781 -0.1244
  755SOL     OW 3017   8.003   8.159  10.119 -0.1528 -0.1641 -0.2276
  755SOL    HW1 3018   8.055   8.091  10.077  0.3134  0.4759 -0.6993
  755SOL    HW2 3019   8.023   8.239  10.070  1.6341  0.9565  2.1542
  755SOL     MW 3020   8.012   8.161  10.108  0.1357  0.0613  0.0169
  756SOL     OW 3021   9.062   3.309   1.681  0.4582 -0.8988 -0.1055
  756SOL    HW1 3022   8.999   3.381   1.677  1.9830  0.6297  1.7437
  756SOL    HW2 3023   9.013   3.236   1.716 -1.1662 -0.8874 -2.1469
  756SOL     MW 3024   9.048   3.309   1.685  0.4455 -0.7017 -0.1301
  757SOL     OW 3025   7.459   7.229   1.766 -0.2440  0.4768  0.1140
  757SOL    HW1 3026   7.371   7.250   1.733  0.3192  1.3139 -0.9557
  757SOL    HW2 3027   7.481   7.302   1.824 -0.3971  0.0847  0.6661
  757SOL     MW 3028   7.451   7.241   1.769 -0.1915  0.5338  0.0478
  758SOL     OW 3029   7.470   4.155   1.025 -0.0710  0.5179 -0.0935
  758SOL    HW1 3030   7.509   4.087   0.971  0.7279 -0.0979  1.2095
  758SOL    HW2 3031   7.467   4.232   0.968  1.0351 -0.0211 -0.9169
  758SOL     MW 3032   7.475   4.156   1.011  0.1729  0.3701 -0.0321
  759SOL     OW 3033   8.412   2.217   1.780 -0.3417  0.3084  0.0849
  759SOL    HW1 3034   8.456   2.248   1.859 -0.7022 -0.1225  0.4612
  759SOL    HW2 3035   8.432   2.123   1.778 -1.9698 -0.0859  0.7539
  759SOL     MW 3036   8.420   2.209   1.790 -0.5962  0.2028  0.2187
  760SOL     OW 3037   7.615   4.031   0.192  0.2051  0.1858 -0.1935
  760SOL    HW1 3038   7.593   3.961   0.131 -0.6395 -1.4990  1.9040
  760SOL    HW2 3039   7.532   4.074   0.211  0.4578  0.6961 -0.2336
  760SOL     MW 3040   7.602   4.028   0.187  0.1294  0.0354  0.0699
  761SOL     OW 3041   6.913   5.191   9.872 -0.0958  0.6692 -0.2525
  761SOL    HW1 3042   6.848   5.174   9.940 -0.4613 -0.4574 -0.8636
  761SOL    HW2 3043   6.981   5.125   9.887 -0.4999 -0.0305 -1.3601
  761SOL     MW 3044   6.913   5.180   9.883 -0.1943  0.4355 -0.4725
  762SOL     OW 3045   9.490   3.691   1.699  0.3193 -0.7718  0.4136
  762SOL    HW1 3046   9.538   3.671   1.779 -1.4515 -0.3253  1.6429
  762SOL    HW2 3047   9.489   3.609   1.650  0.8879 -1.2241  1.1540
  762SOL     MW 3048   9.496   3.678   1.703  0.1654 -0.7725  0.6658
  763SOL     OW 3049   8.177   5.786   9.046 -0.0094  0.3274 -0.2153
  763SOL    HW1 3050   8.110   5.841   9.085 -0.5679 -0.5779  0.1328
  763SOL    HW2 3051   8.253   5.843   9.037 -0.2508  0.8733  1.0723
  763SOL     MW 3052   8.178   5.800   9.050 -0.1118  0.2814 -0.0059
  764SOL     OW 3053   9.343   4.752   9.217  0.5159  0.5217  0.4304
  764SOL    HW1 3054   9.376   4.788   9.134  1.2018  1.0738  0.9288
  764SOL    HW2 3055   9.362   4.820   9.282  0.2549 -0.0270  1.0955
  764SOL     MW 3056   9.350   4.766   9.215  0.5703  0.5221  0.5793
  765SOL     OW 3057   8.094  10.039   3.029 -0.2053  0.5076 -0.1990
  765SOL    HW1 3058   8.145   9.972   2.983 -2.9763 -0.1347 -2.5949
  765SOL    HW2 3059   8.023   9.990   3.072  1.0342  1.3569  3.1534
  765SOL     MW 3060   8.092  10.024   3.029 -0.4013  0.5341 -0.0766
  766SOL     OW 3061   6.774   2.600   1.691 -0.0208  0.1574  0.1917
  766SOL    HW1 3062   6.759   2.612   1.597  0.8089  1.8515  0.2448
  766SOL    HW2 3063   6.708   2.535   1.717 -1.9466  1.4868 -1.0852
  766SOL     MW 3064   6.763   2.593   1.682 -0.1611  0.5444  0.0351
  767SOL     OW 3065   7.507   4.659   0.887  0.3439  0.0238 -0.0671
  767SOL    HW1 3066   7.568   4.710   0.833 -0.3401  0.9032 -0.0365
  767SOL    HW2 3067   7.477   4.721   0.954 -0.5411 -0.4035 -0.0501
  767SOL     MW 3068   7.511   4.674   0.889  0.1430  0.0817 -0.0610
  768SOL     OW 3069   8.493   5.564   1.077 -0.3135  0.0175  0.8416
  768SOL    HW1 3070   8.551   5.500   1.119  0.0396  0.6412  1.3312
  768SOL    HW2 3071   8.405   5.536   1.102 -0.2848 -1.2173 -0.3045
  768SOL     MW 3072   8.489   5.552   1.086 -0.2646 -0.0607  0.7576
  769SOL     OW 3073   9.575   4.702   1.670 -0.7562  0.0565 -0.3248
  769SOL    HW1 3074   9.494   4.700   1.620 -0.1422 -0.9749 -1.3335
  769SOL    HW2 3075   9.644   4.686   1.605  0.2106  0.3714  0.5858
  769SOL     MW 3076   9.574   4.700   1.655 -0.5538 -0.0352 -0.3373
  770SOL     OW 3077   8.913   0.300   2.429 -0.3932  0.4160  0.0809
  770SOL    HW1 3078   8.881   0.233   2.369  0.2030  0.6249 -0.4737
  770SOL    HW2 3079   8.882   0.272   2.515  0.1040 -0.7261 -0.1035
  770SOL     MW 3080   8.905   0.288   2.432 -0.2532  0.2966 -0.0137
  771SOL     OW 3081   8.730   6.602   1.508  0.2768  0.1211 -0.5530
  771SOL    HW1 3082   8.761   6.513   1.527 -0.3246  0.0047 -0.1010
  771SOL    HW2 3083   8.707   6.599   1.415  0.1923 -0.2127 -0.5238
  771SOL     MW 3084   8.731   6.590   1.498  0.1890  0.0635 -0.4914
  772SOL     OW 3085   7.758   7.256   9.504 -0.0077 -0.1495  0.3390
  772SOL    HW1 3086   7.760   7.179   9.562 -0.6643  0.7432  1.5793
  772SOL    HW2 3087   7.838   7.248   9.452 -0.8631 -2.5445 -0.7612
  772SOL     MW 3088   7.769   7.245   9.505 -0.2013 -0.3418  0.3569
  773SOL     OW 3089   8.781   9.466   9.464  0.1737  0.0038 -0.2891
  773SOL    HW1 3090   8.707   9.414   9.432  0.2199  0.3220 -0.9175
  773SOL    HW2 3091   8.742   9.551   9.485  0.4777  0.4038 -1.2926
  773SOL     MW 3092   8.766   9.470   9.463  0.2185  0.0958 -0.4980
  774SOL     OW 3093   7.054   1.771   0.207 -0.0699  0.5089 -0.3777
  774SOL    HW1 3094   7.127   1.819   0.246  0.4966 -0.9810  0.4419
  774SOL    HW2 3095   6.976   1.819   0.238  0.4974  2.7675 -2.1436
  774SOL     MW 3096   7.053   1.783   0.216  0.0752  0.6073 -0.4989
  775SOL     OW 3097   7.126   0.681   9.573  0.1545 -0.0863  0.0495
  775SOL    HW1 3098   7.215   0.646   9.579 -0.1220 -0.9673 -0.7846
  775SOL    HW2 3099   7.098   0.659   9.484 -1.2303 -0.6064  0.6011
  775SOL     MW 3100   7.134   0.674   9.562 -0.0582 -0.2656  0.0134
  776SOL     OW 3101   9.455   3.376   9.369  0.1269  0.2930 -0.0845
  776SOL    HW1 3102   9.539   3.334   9.352 -0.2271 -0.5684  0.2510
  776SOL    HW2 3103   9.476   3.470   9.373  1.3191  0.0046  1.4554
  776SOL     MW 3104   9.469   3.383   9.367  0.2342  0.1458  0.1555
  777SOL     OW 3105   9.086   1.431   0.483 -0.3820  0.2678  0.5607
  777SOL    HW1 3106   9.035   1.404   0.559 -2.6186 -1.0076 -1.2795
  777SOL    HW2 3107   9.177   1.418   0.509 -1.1372 -2.6013  2.1683
  777SOL     MW 3108   9.091   1.426   0.496 -0.7650 -0.2628  0.5309
  778SOL     OW 3109   7.434   3.620   0.081 -0.6318  0.4531 -0.0956
  778SOL    HW1 3110   7.427   3.532   0.116  0.2255  0.3661 -0.1038
  778SOL    HW2 3111   7.372   3.672   0.132 -0.7206 -0.0402  0.3052
  778SOL     MW 3112   7.425   3.616   0.092 -0.5334  0.3788 -0.0453
  779SOL     OW 3113   8.741   9.510   8.776  0.6846  0.1739 -0.3633
  779SOL    HW1 3114   8.687   9.582   8.744  3.2998  2.7548  0.6841
  779SOL    HW2 3115   8.706   9.491   8.863  0.5857  0.8668 -0.2470
  779SOL     MW 3116   8.730   9.516   8.783  1.0067  0.5930 -0.2143
  780SOL     OW 3117   7.061   8.962   0.855  0.0966  0.1698  0.5133
  780SOL    HW1 3118   7.026   9.032   0.800 -1.9974 -0.0658  1.4355
  780SOL    HW2 3119   7.049   8.994   0.944  0.5937 -0.7266  0.9127
  780SOL     MW 3120   7.055   8.975   0.859 -0.1078  0.0249  0.6825
  781SOL     OW 3121   7.943   3.464   8.967 -0.0472 -0.5474  0.1628
  781SOL    HW1 3122   7.860   3.420   8.986  0.1827 -1.0018  0.1331
  781SOL    HW2 3123   7.920   3.531   8.902 -0.3619 -0.7892  0.0192
  781SOL     MW 3124   7.930   3.467   8.961 -0.0581 -0.6365  0.1406
  782SOL     OW 3125   6.187   0.700  10.164  0.1615  0.6223 -0.8552
  782SOL    HW1 3126   6.229   0.783  10.143  1.4037  0.4589  0.8515
  782SOL    HW2 3127   6.211   0.642  10.091  2.2027  0.7964 -0.3852
  782SOL     MW 3128   6.195   0.703  10.152  0.5818  0.6237 -0.5765
  783SOL     OW 3129   8.117   1.122  10.121 -0.0383  0.2705  0.0697
  783SOL    HW1 3130   8.203   1.118  10.079  0.3215 -1.0345  0.8632
  783SOL    HW2 3131   8.130   1.180  10.196 -0.6243  2.4164 -1.4060
  783SOL     MW 3132   8.130   1.128  10.125 -0.0673  0.3782 -0.0177
  784SOL     OW 3133   8.960   3.964   2.620  0.2032 -0.3196 -0.0390
  784SOL    HW1 3134   9.044   3.959   2.664  0.4815  1.6185 -0.2688
  784SOL    HW2 3135   8.976   3.928   2.532  0.8797  0.2958 -0.1751
  784SOL     MW 3136   8.973   3.958   2.614  0.3254  0.0073 -0.0859
  785SOL     OW 3137   7.603   3.474   9.492  0.1954 -0.1299  0.9124
  785SOL    HW1 3138   7.639   3.431   9.569 -1.3007 -0.8136  1.2663
  785SOL    HW2 3139   7.518   3.431   9.478 -0.9805  2.0966  0.7618
  785SOL     MW 3140   7.596   3.463   9.500 -0.1467  0.0676  0.9384
  786SOL     OW 3141   8.377   3.468   9.750  0.3494 -0.5692 -0.2555
  786SOL    HW1 3142   8.313   3.538   9.746 -0.8611 -1.6107  0.1944
  786SOL    HW2 3143   8.383   3.435   9.661  1.0164  0.1534 -0.4943
  786SOL     MW 3144   8.370   3.473   9.738  0.2799 -0.6100 -0.2285
  787SOL     OW 3145   8.330   9.151   1.601  0.2440  0.0468  0.2784
  787SOL    HW1 3146   8.317   9.060   1.626  0.4533  0.3959  1.7613
  787SOL    HW2 3147   8.241   9.187   1.594  0.1409 -0.3849 -0.8563
  787SOL     MW 3148   8.317   9.144   1.603  0.2576  0.0362  0.3230
  788SOL     OW 3149   6.926   8.041   9.925  0.0828 -0.0589  0.0635
  788SOL    HW1 3150   6.976   7.967   9.958  0.7534  0.6665  0.7188
  788SOL    HW2 3151   6.919   8.100   9.999 -1.9122 -0.2065  0.0407
  788SOL     MW 3152   6.931   8.039   9.938 -0.0868  0.0151  0.1445
  789SOL     OW 3153   9.735   2.326   0.924  0.2834 -0.6709  0.7786
  789SOL    HW1 3154   9.715   2.294   1.012 -0.0026  1.3555  1.5186
  789SOL    HW2 3155   9.676   2.400   0.911  1.4184  0.0754 -0.4600
  789SOL     MW 3156   9.725   2.332   0.934  0.3921 -0.3160  0.7147
  790SOL     OW 3157   9.004   0.529   0.466  0.0398  0.2826  0.0811
  790SOL    HW1 3158   8.972   0.618   0.460  1.5428  0.8188 -0.5322
  790SOL    HW2 3159   9.024   0.516   0.559  0.5677  0.8851  0.0602
  790SOL     MW 3160   9.003   0.538   0.477  0.2998  0.4283 -0.0001
  791SOL     OW 3161   8.072   9.517   0.610 -0.4077 -0.0233 -0.1336
  791SOL    HW1 3162   8.118   9.581   0.555 -0.5359  0.0846 -0.1164
  791SOL    HW2 3163   8.139   9.452   0.633 -0.4716 -0.3460 -0.8405
  791SOL     MW 3164   8.087   9.517   0.606 -0.4322 -0.0508 -0.2219
  792SOL     OW 3165   9.045   9.612   3.011  0.1588 -0.0860  0.0665
  792SOL    HW1 3166   9.115   9.667   3.048 -1.3924  2.7541 -0.9263
  792SOL    HW2 3167   9.081   9.579   2.929  1.6037 -1.8450  1.3083
  792SOL     MW 3168   9.059   9.615   3.005  0.1452  0.0524  0.0983
  793SOL     OW 3169   9.611   3.810   2.302 -0.0806 -0.1655 -0.1637
  793SOL    HW1 3170   9.631   3.829   2.211  0.2162 -1.5012 -0.3903
  793SOL    HW2 3171   9.611   3.896   2.345 -1.3381  0.5905 -1.6112
  793SOL     MW 3172   9.614   3.823   2.296 -0.2036 -0.2397 -0.3780
  794SOL     OW 3173   9.081   2.225   0.696 -0.3030 -0.0289  0.2095
  794SOL    HW1 3174   8.993   2.238   0.730  0.1585 -0.8825  1.8181
  794SOL    HW2 3175   9.138   2.271   0.758  0.5381 -1.3373  0.4339
  794SOL     MW 3176   9.077   2.233   0.708 -0.1363 -0.3056  0.4441
  795SOL     OW 3177   9.577   6.931   1.750  0.3363 -0.0162  0.5555
  795SOL    HW1 3178   9.531   6.997   1.802  0.6878  0.6831 -0.0146
  795SOL    HW2 3179   9.642   6.895   1.810 -0.0282 -0.0401  0.9471
  795SOL     MW 3180   9.579   6.935   1.765  0.3346  0.0703  0.5327
  796SOL     OW 3181   6.333   0.998   0.774 -0.2413 -0.2564  0.0061
  796SOL    HW1 3182   6.414   1.007   0.724 -0.6661 -1.1449 -0.8747
  796SOL    HW2 3183   6.354   0.935   0.843  0.4400  1.2192  1.1977
  796SOL     MW 3184   6.346   0.991   0.777 -0.2084 -0.1813  0.0459
  797SOL     OW 3185   7.229   2.379   1.097 -0.1839 -0.2998  0.0759
  797SOL    HW1 3186   7.186   2.356   1.179  0.8635 -0.5412  0.5806
  797SOL    HW2 3187   7.159   2.377   1.032 -1.5724  2.2629  1.3160
  797SOL     MW 3188   7.215   2.376   1.100 -0.2275 -0.0026  0.2993
  798SOL     OW 3189   9.023   4.266   9.080 -0.0961  0.2499 -0.3457
  798SOL    HW1 3190   9.082   4.219   9.139 -1.2603 -0.6229  0.1551
  798SOL    HW2 3191   9.047   4.235   8.992 -0.0710 -0.4020 -0.1131
  798SOL     MW 3192   9.033   4.256   9.076 -0.2419  0.0547 -0.2518
  799SOL     OW 3193  10.123   2.373   0.377  0.2572  0.1014  0.1548
  799SOL    HW1 3194  10.041   2.421   0.393 -0.0804 -0.5360  0.3497
  799SOL    HW2 3195  10.103   2.315   0.304  0.8808  0.7682 -0.5621
  799SOL     MW 3196  10.110   2.372   0.370  0.2938  0.1052  0.0879
  800SOL     OW 3197  10.191   3.056   0.838 -0.0066  0.2594 -0.4627
  800SOL    HW1 3198  10.132   3.027   0.908 -0.1558  0.4190 -0.5220
  800SOL    HW2 3199  10.133   3.091   0.771  0.1367  0.0763 -0.6823
  800SOL     MW 3200  10.176   3.056   0.838 -0.0073  0.2564 -0.4984
  801SOL     OW 3201   0.177   6.800   0.495 -0.2306 -0.7024 -0.0615
  801SOL    HW1 3202   0.195   6.713   0.530  0.0657 -1.5274 -2.0711
  801SOL    HW2 3203   0.083   6.812   0.504  0.1065  0.2273  3.2334
  801SOL     MW 3204   0.167   6.790   0.500 -0.1495 -0.6890  0.1030
  802SOL     OW 3205   0.207  10.156   0.648  0.0069 -0.4368  0.3407
  802SOL    HW1 3206   0.196  10.198   0.563  2.3627  0.0666  0.2165
  802SOL    HW2 3207   0.260  10.078   0.629 -0.1532 -0.7693  1.2336
  802SOL     MW 3208   0.212  10.151   0.635  0.2880 -0.4149  0.4391
  803SOL     OW 3209   9.463   9.285   2.512 -0.1328 -0.0331 -0.3306
  803SOL    HW1 3210   9.443   9.191   2.516  0.9950 -0.3480 -1.4813
  803SOL    HW2 3211   9.557   9.289   2.497  0.6242  1.3838  3.6248
  803SOL     MW 3212   9.472   9.274   2.511  0.1085  0.1080  0.0285
  804SOL     OW 3213   7.002   6.350  10.144  0.9757 -0.1432  0.4305
  804SOL    HW1 3214   6.921   6.398  10.126  0.5532  0.0062  2.4679
  804SOL    HW2 3215   7.028   6.314  10.059 -0.3012  1.2120 -0.5861
  804SOL     MW 3216   6.995   6.352  10.131  0.7582  0.0494  0.5612
  805SOL     OW 3217   6.560   9.932   1.657  0.5180  0.2591  0.2930
  805SOL    HW1 3218   6.505   9.881   1.716 -0.0809  0.2472 -0.2529
  805SOL    HW2 3219   6.542  10.023   1.679 -0.5976  0.2879 -0.6173
  805SOL     MW 3220   6.551   9.937   1.667  0.2985  0.2613  0.1066
  806SOL     OW 3221   9.551   9.150   0.630 -0.2194 -0.0130  0.1915
  806SOL    HW1 3222   9.474   9.094   0.640 -1.0555  0.6576 -1.8902
  806SOL    HW2 3223   9.536   9.197   0.548  2.7927 -0.4585 -0.7502
  806SOL     MW 3224   9.539   9.148   0.621  0.0591  0.0158 -0.1956
  807SOL     OW 3225   8.319   9.148   1.330  0.4065 -0.1763  0.1606
  807SOL    HW1 3226   8.341   9.166   1.421  2.5895 -2.0535  0.1068
  807SOL    HW2 3227   8.341   9.055   1.318 -2.8747 -0.9162 -1.4569
  807SOL     MW 3228   8.325   9.138   1.340  0.2659 -0.5113 -0.0534
  808SOL     OW 3229   7.752   1.145   0.713  0.3597 -0.3075 -0.5768
  808SOL    HW1 3230   7.738   1.223   0.767  0.0882 -0.9026  0.2307
  808SOL    HW2 3231   7.696   1.078   0.752 -3.1862  0.2757 -4.0642
  808SOL     MW 3232   7.743   1.146   0.725 -0.1290 -0.3090 -0.9199
  809SOL     OW 3233   9.923   9.842  10.043 -0.2892  0.3801  0.5038
  809SOL    HW1 3234  10.009   9.808  10.019 -1.0489 -1.1060 -0.2709
  809SOL    HW2 3235   9.893   9.890   9.966 -1.5918 -2.1127 -0.6607
  809SOL     MW 3236   9.930   9.844  10.030 -0.5532 -0.1292  0.2555
  810SOL     OW 3237   9.292   8.179   2.962 -0.0656 -0.3521  0.2029
  810SOL    HW1 3238   9.288   8.146   2.872  0.7513 -0.5627  0.2367
  810SOL    HW2 3239   9.210   8.149   3.002 -1.1495  1.0255 -0.8844
  810SOL     MW 3240   9.281   8.171   2.956 -0.0998 -0.2027  0.0680
  811SOL     OW 3241   6.464   2.609   1.288 -0.5943 -0.0865  0.6850
  811SOL    HW1 3242   6.483   2.695   1.252  2.4624 -1.4134 -1.3197
  811SOL    HW2 3243   6.407   2.568   1.223 -0.2633 -0.3069  0.5302
  811SOL     MW 3244   6.459   2.614   1.275 -0.1607 -0.2846  0.4086
  812SOL     OW 3245   9.150   2.578   2.229 -0.0875 -0.0995 -0.2331
  812SOL    HW1 3246   9.122   2.602   2.317  0.7771 -1.5158  0.4659
  812SOL    HW2 3247   9.076   2.601   2.173 -0.4108  1.3920  0.7544
  812SOL     MW 3248   9.137   2.584   2.233 -0.0182 -0.0899 -0.0172
  813SOL     OW 3249   8.124   4.662   0.570  0.0221 -0.0723  0.4057
  813SOL    HW1 3250   8.193   4.711   0.615  0.3984  0.2395 -0.4883
  813SOL    HW2 3251   8.166   4.631   0.489 -0.7878 -0.1856  0.0221
  813SOL     MW 3252   8.138   4.664   0.566 -0.0334 -0.0469  0.2421
  814SOL     OW 3253   6.348   8.333   1.326  0.1457 -0.0767 -0.0139
  814SOL    HW1 3254   6.336   8.372   1.239 -1.0762  0.5503  0.4192
  814SOL    HW2 3255   6.284   8.262   1.330  0.7431 -0.6266  0.0989
  814SOL     MW 3256   6.338   8.329   1.315  0.0657 -0.0668  0.0560
  815SOL     OW 3257   6.950   8.659   0.612  0.7198  0.5708  0.0984
  815SOL    HW1 3258   7.004   8.666   0.691 -0.4752 -1.0314  1.1221
  815SOL    HW2 3259   7.010   8.625   0.546  1.4691  0.8574  0.6070
  815SOL     MW 3260   6.965   8.656   0.614  0.6628  0.4024  0.2946
  816SOL     OW 3261   0.291   4.715   0.529  0.4275 -0.2167  0.3470
  816SOL    HW1 3262   0.276   4.649   0.598 -0.6584  0.2913  0.6033
  816SOL    HW2 3263   0.228   4.784   0.548  0.1969 -0.0115 -1.0980
  816SOL     MW 3264   0.281   4.715   0.541  0.2590 -0.1254  0.1948
  817SOL     OW 3265   8.848   5.239   1.926  0.0087  0.2453 -0.0257
  817SOL    HW1 3266   8.937   5.211   1.947  0.2841  0.3870 -0.9587
  817SOL    HW2 3267   8.858   5.331   1.900 -0.6313  0.7167  1.3104
  817SOL     MW 3268   8.861   5.247   1.925 -0.0379  0.3238  0.0259
  818SOL     OW 3269   5.964   9.559   1.335 -0.1937 -0.2385 -0.3205
  818SOL    HW1 3270   5.987   9.515   1.417  1.3856 -0.7669 -1.0053
  818SOL    HW2 3271   5.975   9.491   1.268 -2.7659 -0.1985 -0.8641
  818SOL     MW 3272   5.969   9.545   1.337 -0.3208 -0.3010 -0.4777
  819SOL     OW 3273   8.447   8.609   9.359  0.1206 -0.0346 -0.4852
  819SOL    HW1 3274   8.508   8.679   9.382  0.6336 -0.4438 -0.5917
  819SOL    HW2 3275   8.361   8.646   9.379  0.4017  0.5199 -0.2582
  819SOL     MW 3276   8.444   8.623   9.365  0.2222 -0.0160 -0.4698
  820SOL     OW 3277  10.082   1.349   9.775  0.0527  0.0755 -0.3176
  820SOL    HW1 3278  10.138   1.401   9.833 -0.2116 -0.9623  0.9210
  820SOL    HW2 3279  10.139   1.325   9.702  0.8024  0.2651  0.1961
  820SOL     MW 3280  10.097   1.352   9.773  0.1148 -0.0331 -0.0933
  821SOL     OW 3281   6.879  10.065   2.422 -0.3649  0.0617  0.2273
  821SOL    HW1 3282   6.856   9.972   2.424  0.6813 -0.2722 -1.2421
  821SOL    HW2 3283   6.939  10.077   2.495 -2.2520  0.1373  1.8394
  821SOL     MW 3284   6.884  10.055   2.431 -0.4725  0.0286  0.2455
  822SOL     OW 3285   0.210   2.623   0.906  0.0937 -0.5357  0.4949
  822SOL    HW1 3286   0.143   2.677   0.865  1.3452  0.5867 -0.1292
  822SOL    HW2 3287   0.235   2.559   0.839 -1.1746 -1.7513  1.1335
  822SOL     MW 3288   0.205   2.622   0.893  0.0915 -0.5476  0.4968
  823SOL     OW 3289   8.743   9.065   1.186 -0.1265 -0.3453 -0.2101
  823SOL    HW1 3290   8.752   8.978   1.146 -1.7523 -1.9552  2.6416
  823SOL    HW2 3291   8.833   9.088   1.212  0.1150 -2.0222  0.5767
  823SOL     MW 3292   8.756   9.057   1.184 -0.3037 -0.7661  0.2557
  824SOL     OW 3293   7.654   3.762   9.558 -0.4046  0.1621 -0.1863
  824SOL    HW1 3294   7.643   3.670   9.533  0.1765 -0.0147  0.1712
  824SOL    HW2 3295   7.747   3.779   9.544 -0.5472  0.7627 -0.4450
  824SOL     MW 3296   7.665   3.752   9.553 -0.3485  0.2164 -0.1737
  825SOL     OW 3297   9.650   9.870   1.937  0.1990  0.3786  0.1610
  825SOL    HW1 3298   9.670   9.777   1.927  1.4275  0.5983  0.4250
  825SOL    HW2 3299   9.654   9.885   2.032 -1.2136  0.4510  0.2224
  825SOL     MW 3300   9.653   9.860   1.948  0.1754  0.4160  0.2026
  826SOL     OW 3301   9.009   9.642   0.187 -0.1302 -0.4315  0.2514
  826SOL    HW1 3302   9.030   9.557   0.147  1.3465 -0.2625  0.5915
  826SOL    HW2 3303   8.928   9.669   0.146 -0.3075 -1.7395 -0.3039
  826SOL     MW 3304   9.002   9.634   0.177  0.0361 -0.5773  0.2239
  827SOL     OW 3305   7.608   8.931   2.088 -0.7021  0.7371 -1.0202
  827SOL    HW1 3306   7.632   8.918   2.179 -2.4628  4.4774  0.1578
  827SOL    HW2 3307   7.664   9.003   2.058 -0.2300 -0.3393 -2.9510
  827SOL     MW 3308   7.619   8.939   2.096 -0.8671  1.0781 -1.1165
  828SOL     OW 3309   8.604   7.713   0.146  0.0685  0.3321  0.3545
  828SOL    HW1 3310   8.617   7.627   0.108  0.2776  0.6645 -0.3319
  828SOL    HW2 3311   8.518   7.709   0.187 -0.9514  0.5113 -1.6695
  828SOL     MW 3312   8.595   7.702   0.147 -0.0353  0.3976  0.0075
  829SOL     OW 3313   7.885   3.657   1.713  0.0625  0.1643 -0.1525
  829SOL    HW1 3314   7.828   3.674   1.788 -0.4530  1.8899 -0.8900
  829SOL    HW2 3315   7.964   3.706   1.732 -0.2326  0.9518 -0.9118
  829SOL     MW 3316   7.888   3.665   1.725 -0.0413  0.4860 -0.3441
  830SOL     OW 3317   7.096   5.105   0.251 -0.2203 -0.2043  0.1329
  830SOL    HW1 3318   7.011   5.149   0.247 -0.5123 -0.7653  0.0279
  830SOL    HW2 3319   7.151   5.164   0.302 -0.1650  0.9794 -1.2562
  830SOL     MW 3320   7.092   5.118   0.257 -0.2506 -0.1246 -0.0584
  831SOL     OW 3321   9.209   4.268   2.616 -0.3943 -0.1570  0.3183
  831SOL    HW1 3322   9.200   4.319   2.696  1.3742  2.7613 -1.1967
  831SOL    HW2 3323   9.121   4.269   2.578 -0.2439  2.9908 -0.2391
  831SOL     MW 3324   9.196   4.275   2.622 -0.1487  0.6195  0.0530
  832SOL     OW 3325   7.333   9.562   1.857  0.1839 -0.0931 -0.1170
  832SOL    HW1 3326   7.302   9.641   1.812 -1.4474 -0.3029  0.5803
  832SOL    HW2 3327   7.336   9.587   1.949 -0.9057 -0.9946  0.1840
  832SOL     MW 3328   7.329   9.576   1.863 -0.1644 -0.2353  0.0108
  833SOL     OW 3329   7.441   9.950   1.620  0.1381 -0.0876  0.1149
  833SOL    HW1 3330   7.453   9.871   1.568  0.7441 -0.3557  0.6523
  833SOL    HW2 3331   7.440  10.022   1.556  1.3271 -0.3641 -0.2337
  833SOL     MW 3332   7.442   9.949   1.605  0.3679 -0.1573  0.1391
  834SOL     OW 3333   8.964   2.626   0.385 -0.0847 -0.0086 -0.1443
  834SOL    HW1 3334   8.927   2.567   0.319 -0.5961  1.4290 -1.2021
  834SOL    HW2 3335   9.037   2.669   0.339  0.1467  0.3302  0.5319
  834SOL     MW 3336   8.969   2.624   0.371 -0.1206  0.2188 -0.1932
  835SOL     OW 3337   9.192   6.547   1.496 -0.3912 -0.7735 -0.1060
  835SOL    HW1 3338   9.205   6.642   1.492 -0.7394 -0.7388 -0.4838
  835SOL    HW2 3339   9.189   6.527   1.590 -1.8901 -0.1873  0.0030
  835SOL     MW 3340   9.193   6.557   1.508 -0.6277 -0.6940 -0.1404
  836SOL     OW 3341   9.627   2.990  10.013  0.3521 -0.4095 -0.0211
  836SOL    HW1 3342   9.568   3.057  10.050  0.1631 -1.3194  1.4153
  836SOL    HW2 3343   9.580   2.957   9.936  0.0782  0.5311 -0.2776
  836SOL     MW 3344   9.613   2.994  10.008  0.2928 -0.4056  0.1300
  837SOL     OW 3345   7.170   4.176   1.822  0.4216 -0.0258  0.2899
  837SOL    HW1 3346   7.231   4.249   1.808 -0.1616  0.5522  0.7119
  837SOL    HW2 3347   7.096   4.195   1.766 -0.5880  0.7364  1.7968
  837SOL     MW 3348   7.168   4.188   1.813  0.2177  0.1458  0.5368
  838SOL     OW 3349   8.201   7.181   9.225 -0.2489  0.2370  0.1816
  838SOL    HW1 3350   8.128   7.228   9.265 -0.9958 -0.3377 -0.4563
  838SOL    HW2 3351   8.273   7.244   9.223 -0.6647  0.7556  0.9981
  838SOL     MW 3352   8.201   7.195   9.230 -0.3977  0.2298  0.2045
  839SOL     OW 3353   8.529   6.049  10.131 -0.7966 -0.0919  0.0744
  839SOL    HW1 3354   8.490   6.038  10.045 -0.4033  0.5522 -0.2003
  839SOL    HW2 3355   8.543   6.144  10.139 -0.0277 -0.2259  0.4750
  839SOL     MW 3356   8.526   6.060  10.121 -0.6478 -0.0266  0.0905
  840SOL     OW 3357   9.746   8.965   0.583 -0.4885 -0.1080 -0.0819
  840SOL    HW1 3358   9.784   8.941   0.667  0.3067 -1.1013 -0.6993
  840SOL    HW2 3359   9.690   9.041   0.602  0.6779  0.4858  1.1007
  840SOL     MW 3360   9.743   8.972   0.596 -0.2374 -0.1591 -0.0095
  841SOL     OW 3361   8.585   2.009   9.090  0.0712 -0.4686  0.1903
  841SOL    HW1 3362   8.640   1.969   9.022 -0.7843 -1.5044  0.0770
  841SOL    HW2 3363   8.597   2.103   9.078  1.6839 -0.6517  0.0695
  841SOL     MW 3364   8.594   2.016   9.080  0.1681 -0.6246  0.1603
  842SOL     OW 3365   8.363   2.946   9.551 -0.1688 -0.2975  0.4425
  842SOL    HW1 3366   8.444   2.964   9.598 -0.1456  1.1191 -0.0838
  842SOL    HW2 3367   8.390   2.936   9.459 -0.6424  1.0976  0.1154
  842SOL     MW 3368   8.377   2.947   9.545 -0.2265  0.0625  0.3332
  843SOL     OW 3369   9.875   7.921   0.294  0.1293 -0.0433 -0.1526
  843SOL    HW1 3370   9.962   7.908   0.332 -0.1508 -0.1177  0.4844
  843SOL    HW2 3371   9.824   7.847   0.326 -0.0040 -0.3313 -1.0273
  843SOL     MW 3372   9.880   7.910   0.303  0.0764 -0.0897 -0.1830
  844SOL     OW 3373   8.384   1.229   0.795 -0.2255  0.0039 -0.5611
  844SOL    HW1 3374   8.456   1.281   0.760  0.6867  1.3401  2.9101
  844SOL    HW2 3375   8.309   1.289   0.797 -0.3867 -0.1932 -0.6244
  844SOL     MW 3376   8.384   1.243   0.791 -0.1293  0.1497 -0.1248
  845SOL     OW 3377   7.249   7.853   0.122 -0.1505 -0.0807 -0.1380
  845SOL    HW1 3378   7.315   7.830   0.188 -0.8063  0.4798  0.7497
  845SOL    HW2 3379   7.292   7.919   0.068  0.5115 -0.7827 -0.4838
  845SOL     MW 3380   7.263   7.858   0.124 -0.1497 -0.0988 -0.0686
  846SOL     OW 3381   8.119   4.631   1.262 -0.6610  0.4147  0.2683
  846SOL    HW1 3382   8.032   4.594   1.280  0.2865 -2.0753  0.0254
  846SOL    HW2 3383   8.164   4.629   1.347 -0.0888 -0.5186 -0.0380
  846SOL     MW 3384   8.113   4.626   1.275 -0.4664 -0.0235  0.1980
  847SOL     OW 3385   8.749   1.815   0.760 -0.1084  0.2172  0.5684
  847SOL    HW1 3386   8.722   1.906   0.747  0.9680  0.4799  0.1012
  847SOL    HW2 3387   8.844   1.815   0.748 -0.1033 -0.9958  0.4206
  847SOL     MW 3388   8.757   1.826   0.757  0.0300  0.0955  0.4896
  848SOL     OW 3389   7.642   2.314   1.537  0.1171  0.1184 -0.0381
  848SOL    HW1 3390   7.697   2.249   1.581 -0.1620  0.2005  0.4283
  848SOL    HW2 3391   7.639   2.389   1.597 -0.9095 -0.0739  0.1683
  848SOL     MW 3392   7.649   2.316   1.550 -0.0500  0.1043  0.0480
  849SOL     OW 3393   9.292   4.252   0.142 -0.0252 -0.1532  0.0107
  849SOL    HW1 3394   9.355   4.296   0.198  0.9052  0.5077 -1.4862
  849SOL    HW2 3395   9.273   4.316   0.073 -0.9104 -1.0273 -0.5830
  849SOL     MW 3396   9.298   4.266   0.140 -0.0194 -0.1805 -0.2569
  850SOL     OW 3397   9.835   1.439   1.741 -0.2013  0.4154 -0.1558
  850SOL    HW1 3398   9.835   1.388   1.660 -2.6243  0.6728 -0.3994
  850SOL    HW2 3399   9.917   1.416   1.784  0.5674 -0.6864 -2.0849
  850SOL     MW 3400   9.846   1.430   1.736 -0.4131  0.3073 -0.4339
  851SOL     OW 3401   6.915   1.052   2.327 -0.0069 -0.2413 -0.2643
  851SOL    HW1 3402   6.821   1.068   2.338  0.4770  3.1897 -0.0088
  851SOL    HW2 3403   6.940   1.002   2.404 -1.5388 -0.9629 -0.1844
  851SOL     MW 3404   6.906   1.048   2.338 -0.1411  0.1055 -0.2214
  852SOL     OW 3405  10.069   6.868   0.501 -0.1690  0.2725  0.2365
  852SOL    HW1 3406  10.074   6.939   0.565 -1.9164  0.3633  0.3383
  852SOL    HW2 3407  10.044   6.911   0.419 -0.7320 -0.1533  0.1778
  852SOL     MW 3408  10.066   6.883   0.499 -0.4648  0.2296  0.2421
  853SOL     OW 3409   9.220   7.832   1.000 -0.3473  0.1180 -0.0921
  853SOL    HW1 3410   9.271   7.773   1.056  0.5565  1.5628  0.6664
  853SOL    HW2 3411   9.133   7.834   1.041 -0.3001 -0.4304  0.0492
  853SOL     MW 3412   9.215   7.825   1.013 -0.2256  0.2328  0.0231
  854SOL     OW 3413  10.045   8.691   9.834 -0.4582 -0.4656  0.3974
  854SOL    HW1 3414  10.011   8.750   9.901 -1.4115 -1.8407  1.1698
  854SOL    HW2 3415  10.078   8.616   9.883  0.8012 -0.5665 -0.5612
  854SOL     MW 3416  10.045   8.689   9.849 -0.4190 -0.6545  0.3735
  855SOL     OW 3417   6.688   4.751   2.086  0.0856  0.0162  0.7992
  855SOL    HW1 3418   6.662   4.683   2.024 -1.0673  0.9401  0.2388
  855SOL    HW2 3419   6.723   4.703   2.161  0.6274 -1.1500 -0.1600
  855SOL     MW 3420   6.689   4.736   2.088  0.0074 -0.0148  0.6047
  856SOL     OW 3421   9.588   4.491   1.843  0.4093  0.1604  0.0116
  856SOL    HW1 3422   9.573   4.537   1.760  0.3148 -0.0791 -0.1024
  856SOL    HW2 3423   9.621   4.560   1.901  0.1816  0.3949 -0.1323
  856SOL     MW 3424   9.590   4.506   1.840  0.3681  0.1597 -0.0214
  857SOL     OW 3425   8.988   1.866   0.452  0.1745  0.4920 -0.1439
  857SOL    HW1 3426   8.954   1.956   0.457  0.9526  0.8269 -0.6870
  857SOL    HW2 3427   9.063   1.872   0.394  0.5153 -0.4355  0.1839
  857SOL     MW 3428   8.993   1.878   0.445  0.3177  0.4162 -0.1714
  858SOL     OW 3429   9.515   8.679   0.739 -0.5531 -0.9754  0.3676
  858SOL    HW1 3430   9.449   8.712   0.677 -0.4071  0.7323  1.0599
  858SOL    HW2 3431   9.543   8.596   0.702 -2.0706 -1.0606 -0.6897
  858SOL     MW 3432   9.510   8.673   0.726 -0.7286 -0.7677  0.3209
  859SOL     OW 3433   8.786   1.775   2.951 -0.2431  0.0027  0.4025
  859SOL    HW1 3434   8.727   1.738   3.016  0.8357 -0.7669  0.9794
  859SOL    HW2 3435   8.812   1.700   2.896  1.0784  0.0840  0.8737
  859SOL     MW 3436   8.782   1.761   2.952  0.0641 -0.0854  0.5367
  860SOL     OW 3437   9.735   9.604   0.909  0.0362  0.0310  0.2102
  860SOL    HW1 3438   9.753   9.647   0.826  3.2757 -1.3836  0.0311
  860SOL    HW2 3439   9.664   9.543   0.890  0.9182 -0.4904 -1.6523
  860SOL     MW 3440   9.728   9.601   0.896  0.5638 -0.2169 -0.0512
  861SOL     OW 3441   9.127   2.939   1.500  0.3691 -0.3222 -0.3321
  861SOL    HW1 3442   9.185   2.904   1.432  1.0330 -0.5188  0.3241
  861SOL    HW2 3443   9.184   2.950   1.576 -0.6041 -1.1713  0.5308
  861SOL     MW 3444   9.142   2.936   1.501  0.3295 -0.4561 -0.1376
  862SOL     OW 3445   9.343   2.788   9.439 -0.3079  0.4408  0.1369
  862SOL    HW1 3446   9.297   2.823   9.516  0.1629  1.0556  0.1483
  862SOL    HW2 3447   9.418   2.741   9.475  1.2796  2.7099  0.0304
  862SOL     MW 3448   9.346   2.787   9.454 -0.0444  0.8100  0.1247
  863SOL     OW 3449   7.230   5.354   0.034  0.1399  0.1190  0.1577
  863SOL    HW1 3450   7.237   5.401  -0.049 -0.0681  1.3251  0.7952
  863SOL    HW2 3451   7.162   5.402   0.082 -0.2620 -1.0080  0.7353
  863SOL     MW 3452   7.222   5.366   0.030  0.0618  0.1291  0.3132
  864SOL     OW 3453   7.207   5.405   2.410 -0.0119 -0.1381  0.0349
  864SOL    HW1 3454   7.213   5.481   2.467 -3.3116 -0.4269  0.9777
  864SOL    HW2 3455   7.174   5.440   2.327 -0.4815 -0.3559  0.1213
  864SOL     MW 3456   7.203   5.419   2.406 -0.4944 -0.2030  0.1666
  865SOL     OW 3457   7.508   5.064   0.910  0.3488 -0.1625 -0.3082
  865SOL    HW1 3458   7.529   5.010   0.833 -0.9478 -1.8911  0.4781
  865SOL    HW2 3459   7.421   5.099   0.891  1.0345  1.4279 -0.6520
  865SOL     MW 3460   7.499   5.061   0.897  0.2706 -0.1802 -0.2515
  866SOL     OW 3461   9.694   5.085   2.011 -0.4591 -0.6586  0.1168
  866SOL    HW1 3462   9.782   5.047   2.021 -0.4567 -0.4983  0.6887
  866SOL    HW2 3463   9.674   5.123   2.096 -0.2343  1.1393 -0.6022
  866SOL     MW 3464   9.703   5.085   2.023 -0.4300 -0.4079  0.0980
  867SOL     OW 3465   8.007   3.150   1.952  0.1137  0.1198  0.2434
  867SOL    HW1 3466   8.051   3.066   1.939  0.2511  0.0967  0.8392
  867SOL    HW2 3467   7.950   3.136   2.027  1.1393  0.9337  1.2181
  867SOL     MW 3468   8.005   3.137   1.960  0.2626  0.2210  0.4445
  868SOL     OW 3469   7.707   6.864   9.261 -0.1032 -0.0367  0.1542
  868SOL    HW1 3470   7.738   6.815   9.337  1.2436  0.7069  0.1029
  868SOL    HW2 3471   7.755   6.826   9.187 -1.0490 -0.4318 -0.2737
  868SOL     MW 3472   7.717   6.853   9.261 -0.0518  0.0079  0.0929
  869SOL     OW 3473   7.005   7.391   9.605 -0.0942 -0.2462  0.1685
  869SOL    HW1 3474   7.100   7.389   9.599  0.1865 -1.3160  3.3802
  869SOL    HW2 3475   6.985   7.471   9.654 -0.8862 -0.0494 -0.4400
  869SOL     MW 3476   7.014   7.401   9.610 -0.1597 -0.3579  0.5017
  870SOL     OW 3477   8.371   6.543   2.580  0.3054 -0.0696 -0.3417
  870SOL    HW1 3478   8.412   6.602   2.517 -0.6534 -0.1653 -1.0875
  870SOL    HW2 3479   8.397   6.455   2.552  1.1594 -0.0470  0.3487
  870SOL     MW 3480   8.379   6.539   2.568  0.2920 -0.0790 -0.3488
  871SOL     OW 3481   9.364   2.312   9.934 -0.0034 -0.0875 -0.4786
  871SOL    HW1 3482   9.269   2.314   9.923  0.0799  0.3859 -1.1566
  871SOL    HW2 3483   9.389   2.223   9.907 -0.0290  0.4344 -2.3744
  871SOL     MW 3484   9.355   2.301   9.929  0.0040  0.0399 -0.8081
  872SOL     OW 3485   6.213   0.427   0.452 -0.0267 -0.4554 -0.0264
  872SOL    HW1 3486   6.224   0.479   0.372 -1.3475  0.6315  0.4543
  872SOL    HW2 3487   6.298   0.432   0.495  0.1772  0.4608 -0.4968
  872SOL     MW 3488   6.225   0.434   0.447 -0.1697 -0.1990 -0.0251
  873SOL     OW 3489   8.193   3.464   2.215 -0.0026 -0.3004  0.4807
  873SOL    HW1 3490   8.202   3.392   2.152  2.0840  1.0927 -0.9364
  873SOL    HW2 3491   8.120   3.515   2.181  0.4837 -0.0946 -0.3006
  873SOL     MW 3492   8.185   3.461   2.202  0.3268 -0.0957  0.1993
  874SOL     OW 3493   7.536   9.358   2.101 -0.1954  0.1480 -0.5517
  874SOL    HW1 3494   7.529   9.270   2.063 -0.8929  0.5034 -1.2613
  874SOL    HW2 3495   7.559   9.415   2.028  0.5761  0.5216 -0.0351
  874SOL     MW 3496   7.538   9.354   2.087 -0.1859  0.2414 -0.5764
  875SOL     OW 3497   5.967   0.809   0.950 -0.0316 -0.1891  0.4000
  875SOL    HW1 3498   5.939   0.720   0.932  0.0601 -0.2795  0.6971
  875SOL    HW2 3499   5.933   0.861   0.877  0.4327 -0.5660 -0.0852
  875SOL     MW 3500   5.959   0.804   0.938  0.0396 -0.2489  0.3759
  876SOL     OW 3501   7.142   0.685   1.030 -0.1602 -0.2202 -0.3388
  876SOL    HW1 3502   7.230   0.652   1.046  0.6336  1.6973 -0.4451
  876SOL    HW2 3503   7.152   0.744   0.955 -1.2198  1.1063  0.5061
  876SOL     MW 3504   7.155   0.689   1.023 -0.1942  0.1950 -0.2442
  877SOL     OW 3505   8.632   9.484   2.321  0.2084 -0.5152  0.2511
  877SOL    HW1 3506   8.716   9.529   2.320 -0.6053  1.0480 -0.0709
  877SOL    HW2 3507   8.586   9.516   2.243 -1.4343  0.1762  1.4504
  877SOL     MW 3508   8.637   9.494   2.311 -0.1061 -0.2266  0.3634
  878SOL     OW 3509   9.180   5.702   9.964 -0.0637  0.2288  0.5054
  878SOL    HW1 3510   9.269   5.673   9.984 -0.2834 -0.0128  1.1578
  878SOL    HW2 3511   9.166   5.778  10.020 -0.2087  0.3752  0.2737
  878SOL     MW 3512   9.189   5.708   9.974 -0.1104  0.2166  0.5593
  879SOL     OW 3513   7.806   7.433   1.574  0.1394  0.0550  0.2207
  879SOL    HW1 3514   7.780   7.364   1.635  1.0575  0.2975  0.8963
  879SOL    HW2 3515   7.823   7.387   1.492 -0.3915 -0.3644  0.3354
  879SOL     MW 3516   7.805   7.418   1.571  0.1890  0.0323  0.3219
  880SOL     OW 3517   8.722   1.227   9.583 -0.2407  0.3600 -0.2570
  880SOL    HW1 3518   8.757   1.285   9.651 -0.0905 -2.0121  1.8146
  880SOL    HW2 3519   8.628   1.224   9.601 -0.4049  0.6946 -0.9995
  880SOL     MW 3520   8.715   1.234   9.594 -0.2425  0.0992 -0.0868
  881SOL     OW 3521   6.565   9.628   1.936  0.5054  0.3772  0.0451
  881SOL    HW1 3522   6.504   9.555   1.947 -1.0078  1.5397 -0.2667
  881SOL    HW2 3523   6.618   9.604   1.860 -0.4577 -0.0929 -0.5014
  881SOL     MW 3524   6.564   9.616   1.928  0.1884  0.4658 -0.0648
  882SOL     OW 3525   8.728   0.460   2.706 -0.0485  0.3376  0.1947
  882SOL    HW1 3526   8.814   0.443   2.743  0.3089 -0.5936 -0.9877
  882SOL    HW2 3527   8.675   0.489   2.780  0.8807 -0.5225  1.2310
  882SOL     MW 3528   8.732   0.461   2.720  0.1162  0.1083  0.1760
  883SOL     OW 3529   8.188   1.886   0.736 -0.1194  0.5351  0.1113
  883SOL    HW1 3530   8.138   1.965   0.756  0.9266  1.1865  0.2315
  883SOL    HW2 3531   8.234   1.865   0.817  2.0077  1.6147 -0.7380
  883SOL     MW 3532   8.187   1.894   0.749  0.2868  0.7567  0.0180
  884SOL     OW 3533   8.363   7.957   2.560 -0.4050 -0.4242  0.1156
  884SOL    HW1 3534   8.432   8.017   2.534  0.5967 -1.4476  0.3430
  884SOL    HW2 3535   8.314   7.940   2.479 -0.1229 -0.0293 -0.1358
  884SOL     MW 3536   8.365   7.962   2.546 -0.2407 -0.5047  0.1125
  885SOL     OW 3537   8.650   2.161   9.961  0.0571  0.1215 -0.0289
  885SOL    HW1 3538   8.602   2.155   9.878 -0.2232 -1.1928  0.2074
  885SOL    HW2 3539   8.588   2.131  10.027  1.1605 -1.6945  0.2761
  885SOL     MW 3540   8.636   2.156   9.959  0.1624 -0.2792  0.0404
  886SOL     OW 3541   6.983   0.642   2.674 -0.1941  0.5018  0.5142
  886SOL    HW1 3542   7.026   0.724   2.652 -1.1761  0.9041 -0.0097
  886SOL    HW2 3543   6.907   0.639   2.615 -1.2491  0.1570  1.8423
  886SOL     MW 3544   6.979   0.652   2.664 -0.4549  0.5092  0.6172
  887SOL     OW 3545   8.490   6.660   1.095  0.2652  0.4414  0.3300
  887SOL    HW1 3546   8.472   6.754   1.083  1.0304  0.6476  0.7337
  887SOL    HW2 3547   8.459   6.641   1.184  1.0097  0.5375  0.6091
  887SOL     MW 3548   8.483   6.670   1.105  0.4584  0.4801  0.4174
  888SOL     OW 3549   8.466   3.800   0.882  0.6185  0.0899 -0.3612
  888SOL    HW1 3550   8.463   3.886   0.926  2.7723 -0.2343  0.5380
  888SOL    HW2 3551   8.416   3.742   0.940 -1.7247  0.8505 -1.4723
  888SOL     MW 3552   8.459   3.804   0.895  0.5943  0.1458 -0.3883
  889SOL     OW 3553   9.183   1.578   2.233 -0.1810  0.2405  0.0602
  889SOL    HW1 3554   9.106   1.555   2.284 -0.2797 -0.3042 -0.3301
  889SOL    HW2 3555   9.149   1.598   2.146  0.0246  0.8327  0.1109
  889SOL     MW 3556   9.169   1.578   2.228 -0.1673  0.2466  0.0167
  890SOL     OW 3557   8.063   8.926   0.225 -0.8172  0.6762  0.2879
  890SOL    HW1 3558   8.044   8.835   0.202 -3.3495  1.3845 -0.8072
  890SOL    HW2 3559   8.123   8.956   0.157 -1.0757  0.2195 -0.1455
  890SOL     MW 3560   8.068   8.918   0.213 -1.1745  0.7084  0.0922
  891SOL     OW 3561  10.061   0.504   0.888 -0.1557  0.8423  0.4652
  891SOL    HW1 3562  10.087   0.587   0.928  0.1315 -0.1491  2.4889
  891SOL    HW2 3563  10.094   0.437   0.948 -0.2224 -0.7638 -1.1925
  891SOL     MW 3564  10.068   0.506   0.901 -0.1275  0.5098  0.5121
  892SOL     OW 3565   6.956   4.141   2.274  0.3607 -0.5918 -0.4857
  892SOL    HW1 3566   7.005   4.059   2.267  0.3057 -0.5400 -1.7292
  892SOL    HW2 3567   6.883   4.130   2.213  1.8770  1.4085 -2.8754
  892SOL     MW 3568   6.953   4.129   2.265  0.5478 -0.3291 -0.9508
  893SOL     OW 3569   8.906   5.522   1.851 -0.0546  0.3708 -0.0191
  893SOL    HW1 3570   8.998   5.525   1.825 -0.3252  1.0083 -0.9446
  893SOL    HW2 3571   8.909   5.503   1.945  0.9893 -0.4231 -0.1849
  893SOL     MW 3572   8.918   5.520   1.860  0.0444  0.3507 -0.1588
  894SOL     OW 3573   8.298   7.179   2.472  0.0086 -0.2020  0.0326
  894SOL    HW1 3574   8.235   7.233   2.520 -0.0268  0.4094 -0.6897
  894SOL    HW2 3575   8.243   7.113   2.428 -0.0824  0.0220 -0.1927
  894SOL     MW 3576   8.283   7.177   2.472 -0.0076 -0.0951 -0.0887
  895SOL     OW 3577   9.967   2.910   2.540  0.2735 -0.1389  0.3037
  895SOL    HW1 3578   9.898   2.911   2.473  0.1171 -0.1968  0.4631
  895SOL    HW2 3579  10.034   2.851   2.505  0.5320  0.4098 -0.1393
  895SOL     MW 3580   9.967   2.902   2.527  0.2866 -0.0761  0.2674
  896SOL     OW 3581   6.920   3.742   1.284 -0.2562  0.2854  0.4156
  896SOL    HW1 3582   6.917   3.777   1.195 -0.7324 -0.5422  0.0914
  896SOL    HW2 3583   7.012   3.720   1.298 -0.0613  1.0594  0.3934
  896SOL     MW 3584   6.931   3.744   1.274 -0.2922  0.2785  0.3713
  897SOL     OW 3585   6.829   0.125   0.381  0.0520  0.9511  0.7359
  897SOL    HW1 3586   6.846   0.072   0.304 -1.5302  2.5771 -0.8163
  897SOL    HW2 3587   6.754   0.084   0.424 -1.5567  2.1431 -0.7916
  897SOL     MW 3588   6.822   0.113   0.377 -0.3564  1.3118  0.3417
  898SOL     OW 3589   7.892   2.787   1.998  0.4326  0.8144  0.2449
  898SOL    HW1 3590   7.842   2.707   2.013  1.1324  0.2812 -0.1680
  898SOL    HW2 3591   7.944   2.799   2.077  1.6690 -0.1596 -0.3904
  898SOL     MW 3592   7.893   2.778   2.010  0.6805  0.6214  0.1107
  899SOL     OW 3593   8.474   8.865   3.161  0.1793 -0.5063  0.5038
  899SOL    HW1 3594   8.550   8.919   3.138 -0.4686  0.8275  1.3401
  899SOL    HW2 3595   8.442   8.832   3.077  0.6135  0.3952 -0.0333
  899SOL     MW 3596   8.480   8.868   3.147  0.1520 -0.2201  0.5421
  900SOL     OW 3597   9.086   0.241   2.121  0.2004 -0.4308 -0.2046
  900SOL    HW1 3598   9.078   0.337   2.117 -1.6652 -0.5308  0.5775
  900SOL    HW2 3599   9.181   0.226   2.116  0.6334  1.5203  0.9815
  900SOL     MW 3600   9.097   0.252   2.120  0.0170 -0.1938  0.0474
  901SOL     OW 3601   7.356   9.814   2.504 -0.4962  0.1002 -0.1736
  901SOL    HW1 3602   7.293   9.876   2.541  0.4483  0.8989  0.1546
  901SOL    HW2 3603   7.358   9.835   2.411 -1.1869 -0.3708 -0.3019
  901SOL     MW 3604   7.348   9.824   2.497 -0.4637  0.1421 -0.1480
  902SOL     OW 3605   8.202   2.018   1.374 -0.6811  0.1803  0.2674
  902SOL    HW1 3606   8.256   1.980   1.443  1.7965  0.4549 -1.4159
  902SOL    HW2 3607   8.153   2.088   1.417 -0.5168 -0.7504  2.0521
  902SOL     MW 3608   8.202   2.022   1.388 -0.3429  0.0963  0.2804
  903SOL     OW 3609   9.266   6.373   2.501 -0.6496  0.6270  0.5103
  903SOL    HW1 3610   9.225   6.442   2.449 -3.1210 -0.7425  0.4758
  903SOL    HW2 3611   9.235   6.389   2.591  1.0589  1.1651  1.0377
  903SOL     MW 3612   9.257   6.384   2.506 -0.7473  0.5206  0.5734
  904SOL     OW 3613   0.547   0.215   1.578  0.3009  0.0952  0.4139
  904SOL    HW1 3614   0.640   0.200   1.590  0.0298 -0.6823  1.7558
  904SOL    HW2 3615   0.520   0.146   1.517  0.3908 -0.4615  0.9912
  904SOL     MW 3616   0.555   0.204   1.572  0.2777 -0.0756  0.6596
  905SOL     OW 3617   0.068   4.906   0.562 -0.5977  0.2910 -0.7034
  905SOL    HW1 3618   0.041   4.912   0.654  0.6118  0.9478 -0.3697
  905SOL    HW2 3619   0.108   4.990   0.543 -1.9416  0.6439 -2.2362
  905SOL     MW 3620   0.069   4.917   0.571 -0.6149  0.4202 -0.8569
  906SOL     OW 3621   8.075   7.825   2.056 -0.1403 -0.1429  0.2257
  906SOL    HW1 3622   8.070   7.892   1.988 -1.0922 -1.2030 -0.7978
  906SOL    HW2 3623   8.158   7.841   2.099 -0.3239  1.6601 -0.0175
  906SOL     MW 3624   8.085   7.836   2.053 -0.2857 -0.0478  0.0635
  907SOL     OW 3625   7.423   5.518   0.129  0.0930 -0.0116 -0.0765
  907SOL    HW1 3626   7.369   5.465   0.070  0.3401 -1.4885  0.9688
  907SOL    HW2 3627   7.487   5.456   0.165  0.2197  0.9400  1.4049
  907SOL     MW 3628   7.424   5.503   0.126  0.1408 -0.0789  0.2469
  908SOL     OW 3629   7.728   2.522   0.918  0.0553  0.1048 -0.3181
  908SOL    HW1 3630   7.782   2.601   0.908 -1.8851  1.8530  1.6618
  908SOL    HW2 3631   7.755   2.486   1.003 -0.0430 -0.5624 -0.5668
  908SOL     MW 3632   7.739   2.528   0.928 -0.2057  0.2432 -0.0965
  909SOL     OW 3633   7.395   9.892   0.037  0.0748  0.0250  0.2454
  909SOL    HW1 3634   7.381   9.914   0.130  1.2949 -0.5098  0.5725
  909SOL    HW2 3635   7.307   9.881   0.002 -0.4081  0.2148  1.3485
  909SOL     MW 3636   7.382   9.893   0.045  0.1692 -0.0192  0.4285
  910SOL     OW 3637  10.078   4.213   0.397 -0.2295 -0.1563  0.6188
  910SOL    HW1 3638  10.157   4.197   0.449  0.4424  1.6973  0.2297
  910SOL    HW2 3639  10.094   4.167   0.315  0.2858 -0.1072  0.6871
  910SOL     MW 3640  10.090   4.205   0.393 -0.0775  0.0872  0.5777
  911SOL     OW 3641  10.048   0.362   0.654  0.5207 -0.4386  0.3235
  911SOL    HW1 3642  10.019   0.289   0.708  0.2463  0.0080  0.7854
  911SOL    HW2 3643  10.051   0.437   0.713  0.6950 -0.0471 -0.1674
  911SOL     MW 3644  10.045   0.362   0.668  0.5079 -0.3313  0.3198
  912SOL     OW 3645   9.643   7.169   0.746 -0.5872  0.8552 -0.0513
  912SOL    HW1 3646   9.656   7.222   0.825 -1.5993  1.8332 -0.5260
  912SOL    HW2 3647   9.661   7.079   0.775  1.2174  1.4244  0.7564
  912SOL     MW 3648   9.647   7.164   0.760 -0.4858  1.0532 -0.0087
  913SOL     OW 3649   9.208   8.423   1.129 -0.0408  0.3163  0.1403
  913SOL    HW1 3650   9.260   8.401   1.207 -1.3847 -1.9479  0.4943
  913SOL    HW2 3651   9.269   8.410   1.056  0.2085 -1.4045  0.5990
  913SOL     MW 3652   9.223   8.418   1.129 -0.1809 -0.1938  0.2443
  914SOL     OW 3653   7.007   7.959   0.126  0.4096 -0.0798  0.1224
  914SOL    HW1 3654   6.935   7.930   0.182  1.2723  0.7746  1.7433
  914SOL    HW2 3655   7.071   7.888   0.130  0.5169  0.0275  0.3007
  914SOL     MW 3656   7.006   7.947   0.134  0.5338  0.0433  0.3527
  915SOL     OW 3657   7.266   2.873   1.250  0.4601 -0.2845 -0.0492
  915SOL    HW1 3658   7.313   2.953   1.227  3.2311 -1.8503 -0.2371
  915SOL    HW2 3659   7.323   2.802   1.221 -2.3145 -2.3898 -0.7381
  915SOL     MW 3660   7.280   2.874   1.243  0.4596 -0.7544 -0.1614
  916SOL     OW 3661   8.560   5.961   1.028 -0.1318 -0.1327  0.0192
  916SOL    HW1 3662   8.534   6.051   1.008 -1.4178 -0.4379  0.2221
  916SOL    HW2 3663   8.553   5.914   0.945 -3.6341 -0.9708  0.6423
  916SOL     MW 3664   8.556   5.966   1.015 -0.7447 -0.2791  0.1249
  917SOL     OW 3665   9.046   8.221   9.813 -0.3833 -0.4158  0.4709
  917SOL    HW1 3666   8.996   8.250   9.890  0.6329  1.5475  0.4739
  917SOL    HW2 3667   8.979   8.196   9.749 -1.2533 -2.1974  1.9854
  917SOL     MW 3668   9.031   8.222   9.815 -0.3646 -0.3925  0.6651
  918SOL     OW 3669   0.150   6.332   0.307 -0.6481  0.4358  0.2262
  918SOL    HW1 3670   0.102   6.412   0.285 -0.0755  1.3185  2.0397
  918SOL    HW2 3671   0.160   6.334   0.402  3.5549  0.6709 -0.0444
  918SOL     MW 3672   0.145   6.342   0.316 -0.0368  0.5789  0.4237
  919SOL     OW 3673   0.154   0.533   0.355  0.4288  0.6592 -0.7595
  919SOL    HW1 3674   0.082   0.512   0.296  1.2342 -0.0069 -1.5532
  919SOL    HW2 3675   0.165   0.455   0.409 -0.0995  1.1485  0.0728
  919SOL     MW 3676   0.147   0.521   0.354  0.4643  0.6365 -0.7545
  920SOL     OW 3677   7.856   9.915   3.099  0.4293  0.1398  0.1002
  920SOL    HW1 3678   7.807   9.909   3.017  2.4866 -1.0406 -1.1254
  920SOL    HW2 3679   7.834  10.002   3.133 -1.6242  0.0798 -0.8965
  920SOL     MW 3680   7.847   9.925   3.093  0.4297 -0.0190 -0.1843
  921SOL     OW 3681   9.236   0.947   2.743 -0.1528 -0.6061  0.3505
  921SOL    HW1 3682   9.267   0.917   2.658 -1.0994  1.0996 -0.6713
  921SOL    HW2 3683   9.181   0.876   2.776  0.1125 -1.2326 -0.5339
  921SOL     MW 3684   9.233   0.934   2.736 -0.2400 -0.4680  0.1065
  922SOL     OW 3685   8.327   7.469   3.125 -0.1807  0.1121 -0.1618
  922SOL    HW1 3686   8.410   7.428   3.148  0.0082  0.4620 -0.2208
  922SOL    HW2 3687   8.293   7.502   3.208 -0.4563 -0.3781 -0.0716
  922SOL     MW 3688   8.333   7.468   3.138 -0.1918  0.0941 -0.1578
  923SOL     OW 3689   8.537   1.817   2.429  0.5074 -0.8932 -0.6845
  923SOL    HW1 3690   8.546   1.805   2.523 -0.7168 -0.3188 -0.4805
  923SOL    HW2 3691   8.444   1.798   2.411  0.1978  1.1447 -1.4233
  923SOL     MW 3692   8.526   1.813   2.439  0.3110 -0.5588 -0.7530
  924SOL     OW 3693   9.952   6.909   9.824  0.3956  0.0497  0.3868
  924SOL    HW1 3694  10.043   6.881   9.831  0.7169  0.6226 -1.1081
  924SOL    HW2 3695   9.910   6.842   9.770  0.4869  0.9181 -0.7993
  924SOL     MW 3696   9.958   6.897   9.818  0.4484  0.2342  0.0436
  925SOL     OW 3697   8.804   5.776   1.420 -0.5702 -0.2749  0.1749
  925SOL    HW1 3698   8.766   5.853   1.463 -2.7057 -0.5804 -1.0282
  925SOL    HW2 3699   8.753   5.766   1.339 -0.2533 -2.8333  0.1959
  925SOL     MW 3700   8.792   5.785   1.415 -0.8030 -0.6415  0.0235
  926SOL     OW 3701   7.221   9.510  10.031 -0.1410 -0.3218 -0.1140
  926SOL    HW1 3702   7.170   9.570  10.086 -2.7618 -1.3916 -1.1677
  926SOL    HW2 3703   7.309   9.547  10.029 -0.9417  1.8798  1.5729
  926SOL     MW 3704   7.225   9.522  10.038 -0.5790 -0.1769 -0.0329
  927SOL     OW 3705   8.633   2.312   2.967  0.2629  0.1074 -0.0529
  927SOL    HW1 3706   8.675   2.366   2.900 -0.0178  1.7453  1.0266
  927SOL    HW2 3707   8.703   2.256   3.000  1.0369  1.0893  0.0283
  927SOL     MW 3708   8.648   2.312   2.962  0.3261  0.4428  0.0957
  928SOL     OW 3709   5.906   0.121   1.129  0.3571  0.4922 -0.0941
  928SOL    HW1 3710   5.926   0.074   1.210 -3.0821 -0.2105  0.4789
  928SOL    HW2 3711   5.883   0.210   1.158  1.4815  0.9733 -0.6089
  928SOL     MW 3712   5.906   0.127   1.143  0.0608  0.4638 -0.0867
  929SOL     OW 3713   7.658   6.220   0.170  0.0222  0.7508 -0.3177
  929SOL    HW1 3714   7.720   6.282   0.210  1.3192 -1.3183  1.0510
  929SOL    HW2 3715   7.617   6.176   0.244 -2.4824  1.4027 -1.2208
  929SOL     MW 3716   7.661   6.223   0.185 -0.1324  0.5694 -0.2581
  930SOL     OW 3717  -0.014   4.480   1.275  0.5494  0.0053  0.0545
  930SOL    HW1 3718  -0.028   4.422   1.350  1.1831 -0.0072  0.1649
  930SOL    HW2 3719   0.070   4.522   1.292 -0.0279  1.1759  0.1151
  930SOL     MW 3720  -0.005   4.478   1.287  0.5567  0.1536  0.0764
  931SOL     OW 3721   7.423   6.838   1.013  0.2074 -0.6094 -0.1181
  931SOL    HW1 3722   7.359   6.876   1.073 -0.9568  1.1800 -2.3261
  931SOL    HW2 3723   7.507   6.874   1.042 -0.3682  0.5026  0.2136
  931SOL     MW 3724   7.425   6.848   1.025 -0.0153 -0.2380 -0.3583
  932SOL     OW 3725   6.256   6.413   0.707 -0.1837 -0.1451 -0.1427
  932SOL    HW1 3726   6.305   6.340   0.669 -0.2401 -0.7345  0.8761
  932SOL    HW2 3727   6.229   6.465   0.632  2.6850  0.6819 -0.7380
  932SOL     MW 3728   6.259   6.411   0.693  0.1763 -0.1147 -0.0885
  933SOL     OW 3729   7.242   8.146   2.315  0.0819 -0.1433  0.1358
  933SOL    HW1 3730   7.171   8.084   2.336 -0.5577  0.1865 -0.9689
  933SOL    HW2 3731   7.219   8.225   2.365 -0.4566  0.0274 -0.3600
  933SOL     MW 3732   7.230   8.148   2.324 -0.0689 -0.0792 -0.0691
  934SOL     OW 3733   8.013   6.660   9.864 -0.0529 -0.6060 -0.2156
  934SOL    HW1 3734   7.995   6.566   9.876  0.0195 -0.5754  0.1395
  934SOL    HW2 3735   7.926   6.701   9.870 -0.2122 -0.7538 -1.4096
  934SOL     MW 3736   7.999   6.653   9.867 -0.0641 -0.6210 -0.3230
  935SOL     OW 3737  10.081   7.118   0.967 -0.3820  0.0923  0.1927
  935SOL    HW1 3738  10.146   7.099   1.035  0.0427 -2.3634 -0.7811
  935SOL    HW2 3739  10.039   7.199   0.996  0.7087 -0.1160  2.6463
  935SOL     MW 3740  10.084   7.126   0.980 -0.1880 -0.2487  0.3821
  936SOL     OW 3741   0.088   1.138   0.425 -0.3018 -0.0627  0.1794
  936SOL    HW1 3742   0.130   1.186   0.355 -0.0343 -0.5768 -0.0225
  936SOL    HW2 3743   0.050   1.061   0.382  0.6748 -0.8773  0.7116
  936SOL     MW 3744   0.089   1.134   0.411 -0.1425 -0.2328  0.2217
  937SOL     OW 3745   7.287   6.049   1.593 -0.4063  0.2465  0.0006
  937SOL    HW1 3746   7.353   6.076   1.657 -1.1629  0.0207  0.8986
  937SOL    HW2 3747   7.319   6.085   1.510  0.6951  0.3857  0.4546
  937SOL     MW 3748   7.300   6.057   1.591 -0.3621  0.2354  0.1737
  938SOL     OW 3749   6.924   5.908   2.382  0.6723 -0.2060  0.1714
  938SOL    HW1 3750   7.014   5.923   2.352  0.3400 -1.7568 -1.7743
  938SOL    HW2 3751   6.902   5.821   2.350 -1.3881 -0.0523  1.0278
  938SOL     MW 3752   6.933   5.899   2.374  0.3660 -0.3848  0.0320
  939SOL     OW 3753   9.542   9.120   1.202  0.3126 -0.0931  0.7960
  939SOL    HW1 3754   9.616   9.134   1.144  0.1274 -1.5490  0.1576
  939SOL    HW2 3755   9.469   9.164   1.159  0.7062  1.0768  1.2732
  939SOL     MW 3756   9.542   9.127   1.189  0.3393 -0.1297  0.7754
  940SOL     OW 3757   8.803  10.064   9.064  0.4007  0.3288  0.0717
  940SOL    HW1 3758   8.826   9.981   9.024 -1.6934 -1.1164  1.6603
  940SOL    HW2 3759   8.858  10.070   9.142  1.0758  0.8202 -0.4315
  940SOL     MW 3760   8.813  10.054   9.069  0.2190  0.2067  0.2107
  941SOL     OW 3761   8.958   4.538   2.579  0.3538 -0.4516 -0.6394
  941SOL    HW1 3762   8.886   4.595   2.605  1.5920  0.9674 -0.1790
  941SOL    HW2 3763   8.928   4.450   2.600 -1.0736  0.1389 -0.0798
  941SOL     MW 3764   8.945   4.534   2.585  0.3296 -0.1943 -0.5088
  942SOL     OW 3765   8.465   2.060   3.062 -0.7363  0.1473 -0.5316
  942SOL    HW1 3766   8.544   2.064   3.116 -0.5661 -2.9372 -0.3687
  942SOL    HW2 3767   8.399   2.108   3.113 -0.0566 -0.9449  1.5097
  942SOL     MW 3768   8.466   2.066   3.076 -0.6275 -0.3874 -0.2494
  943SOL     OW 3769   8.342   0.632   8.930  0.1252 -0.7657 -0.0576
  943SOL    HW1 3770   8.256   0.675   8.923  0.2088 -0.7200 -1.0287
  943SOL    HW2 3771   8.324   0.550   8.975 -0.1061  0.0761  1.4376
  943SOL     MW 3772   8.328   0.627   8.935  0.1063 -0.6521  0.0095
  944SOL     OW 3773   8.861   8.722   9.556  0.3180 -0.6355  0.1399
  944SOL    HW1 3774   8.911   8.663   9.500  1.4832  0.5327 -0.0913
  944SOL    HW2 3775   8.795   8.760   9.497  1.3944  0.4158 -0.4382
  944SOL     MW 3776   8.859   8.720   9.541  0.6049 -0.3514  0.0363
  945SOL     OW 3777   8.147   5.494   1.629 -0.1769 -0.3274 -0.1693
  945SOL    HW1 3778   8.135   5.578   1.673 -0.3525 -0.4699  0.0576
  945SOL    HW2 3779   8.141   5.429   1.699 -0.6012 -0.5665 -0.4252
  945SOL     MW 3780   8.145   5.497   1.643 -0.2537 -0.3763 -0.1730
  946SOL     OW 3781   7.779   1.662   1.250  0.0712 -0.4649  0.0787
  946SOL    HW1 3782   7.793   1.689   1.159 -0.1722  0.7842  0.3987
  946SOL    HW2 3783   7.866   1.656   1.287  0.1021  0.7425  0.2325
  946SOL     MW 3784   7.792   1.665   1.243  0.0440 -0.1505  0.1393
  947SOL     OW 3785  10.119   2.833   9.765 -0.4399 -0.0678  0.7453
  947SOL    HW1 3786  10.040   2.866   9.806 -0.8590  1.0349 -0.8646
  947SOL    HW2 3787  10.088   2.772   9.699  0.1280 -0.5098  0.8770
  947SOL     MW 3788  10.105   2.829   9.762 -0.4208  0.0168  0.5561
  948SOL     OW 3789   7.669   4.558   9.601  0.0647  0.1635 -0.0324
  948SOL    HW1 3790   7.613   4.555   9.679 -1.8516 -2.6493 -1.3680
  948SOL    HW2 3791   7.643   4.638   9.556 -0.6729  0.4577  0.8921
  948SOL     MW 3792   7.659   4.568   9.605 -0.2750 -0.1589 -0.0850
  949SOL     OW 3793   8.275   7.659   1.276  0.7345  0.0719  0.2341
  949SOL    HW1 3794   8.350   7.690   1.224  0.7069  1.1044  0.7681
  949SOL    HW2 3795   8.206   7.722   1.256  0.2453 -0.4370  0.3258
  949SOL     MW 3796   8.276   7.671   1.267  0.6683  0.1389  0.3142
  950SOL     OW 3797   8.964   4.005   9.487 -0.7018 -0.0222  0.3596
  950SOL    HW1 3798   8.938   4.094   9.462 -1.3378  0.0433  1.2390
  950SOL    HW2 3799   8.993   3.965   9.405 -0.8653  0.8403 -0.1299
  950SOL     MW 3800   8.965   4.011   9.473 -0.8041  0.0966  0.4095
  951SOL     OW 3801   7.943   1.868   1.980  0.6652  0.0174  0.0015
  951SOL    HW1 3802   8.014   1.928   1.956  0.6383  0.8327  1.7996
  951SOL    HW2 3803   7.980   1.813   2.049  0.0679 -0.7349 -0.2611
  951SOL     MW 3804   7.957   1.869   1.985  0.5853  0.0254  0.1981
  952SOL     OW 3805  10.086   2.280   1.458  0.5121  0.1376  0.3612
  952SOL    HW1 3806  10.113   2.315   1.372 -1.3465  1.2773  0.1795
  952SOL    HW2 3807  10.056   2.357   1.506 -0.1623 -0.7377  1.3831
  952SOL     MW 3808  10.086   2.295   1.453  0.1878  0.1715  0.4688
  953SOL     OW 3809   9.289   1.880   9.333 -0.1217 -0.5553 -0.0037
  953SOL    HW1 3810   9.382   1.857   9.330 -0.2529 -1.1072  0.1004
  953SOL    HW2 3811   9.244   1.802   9.300 -0.5339 -0.2002 -0.2906
  953SOL     MW 3812   9.295   1.867   9.328 -0.1912 -0.5805 -0.0271
  954SOL     OW 3813   6.863   7.796   2.103  0.5399 -0.1191 -0.0624
  954SOL    HW1 3814   6.837   7.870   2.049  0.6726  0.1292  0.2138
  954SOL    HW2 3815   6.825   7.814   2.189  0.8321 -0.2189  0.0886
  954SOL     MW 3816   6.855   7.808   2.107  0.5943 -0.1001 -0.0077
  955SOL     OW 3817   7.906   0.100   9.646 -0.4159 -0.1653  0.4863
  955SOL    HW1 3818   7.932   0.147   9.725  0.4057  1.1287 -0.5329
  955SOL    HW2 3819   7.925   0.008   9.666  0.8058  0.2572  1.3996
  955SOL     MW 3820   7.911   0.094   9.659 -0.1543  0.0544  0.4727
  956SOL     OW 3821   7.119   1.959   1.710 -0.3315 -0.5077 -0.1031
  956SOL    HW1 3822   7.193   1.970   1.650 -0.3517 -0.3491 -0.0986
  956SOL    HW2 3823   7.096   2.048   1.737 -0.8976 -0.5019 -0.5658
  956SOL     MW 3824   7.126   1.972   1.705 -0.4065 -0.4867 -0.1617
  957SOL     OW 3825   7.444   5.665   1.887  0.5865 -0.2459 -0.2115
  957SOL    HW1 3826   7.376   5.668   1.820  0.4410 -1.5187 -0.1590
  957SOL    HW2 3827   7.511   5.726   1.856  0.3754 -0.5642 -1.3612
  957SOL     MW 3828   7.444   5.673   1.874  0.5408 -0.4496 -0.3520
  958SOL     OW 3829   7.265   9.734   0.895 -0.2900 -0.3372 -0.2223
  958SOL    HW1 3830   7.354   9.738   0.863 -0.9031 -0.1277 -1.9972
  958SOL    HW2 3831   7.231   9.823   0.883 -0.8707 -0.5220  0.0224
  958SOL     MW 3832   7.272   9.746   0.889 -0.4428 -0.3341 -0.4182
  959SOL     OW 3833   7.196   9.446   0.921  0.5586 -0.1464 -0.1955
  959SOL    HW1 3834   7.157   9.450   1.008  1.3197  1.5869  0.0957
  959SOL    HW2 3835   7.216   9.537   0.899  0.4384 -0.5508 -2.1661
  959SOL     MW 3836   7.193   9.458   0.929  0.6406  0.0237 -0.4105
  960SOL     OW 3837   8.004   7.143   9.721  0.2558  0.3059  0.2358
  960SOL    HW1 3838   7.908   7.137   9.719  0.1849  1.2897  0.4666
  960SOL    HW2 3839   8.033   7.074   9.661 -0.6146  0.4684 -0.3942
  960SOL     MW 3840   7.995   7.133   9.713  0.1353  0.4526  0.1847
  961SOL     OW 3841   7.421   0.400   2.479  0.8207  0.1435  0.7862
  961SOL    HW1 3842   7.366   0.472   2.448  0.9347  0.1148  0.5177
  961SOL    HW2 3843   7.371   0.361   2.551 -0.4180 -1.1187 -0.6912
  961SOL     MW 3844   7.407   0.404   2.484  0.6767 -0.0217  0.5627
  962SOL     OW 3845   8.361   1.023   0.966  1.2196  0.2125  0.4292
  962SOL    HW1 3846   8.359   1.091   0.898 -0.9930 -1.0386 -0.8663
  962SOL    HW2 3847   8.431   0.964   0.939  0.5226 -0.1364 -0.6705
  962SOL     MW 3848   8.370   1.024   0.954  0.8471  0.0077  0.1226
  963SOL     OW 3849   7.689   5.275   1.225 -0.0807  0.0444 -0.2165
  963SOL    HW1 3850   7.599   5.294   1.198 -0.8828 -0.2312  2.0220
  963SOL    HW2 3851   7.729   5.234   1.148 -1.9644 -0.1368 -1.1608
  963SOL     MW 3852   7.682   5.272   1.212 -0.4245 -0.0140 -0.0508
  964SOL     OW 3853  10.009   3.278   9.974 -0.0992 -0.3298  0.2116
  964SOL    HW1 3854  10.089   3.242   9.935  0.1899 -1.2057  1.5536
  964SOL    HW2 3855   9.939   3.251   9.915  0.4441 -0.7279 -0.2651
  964SOL     MW 3856  10.011   3.270   9.962  0.0074 -0.4929  0.3224
  965SOL     OW 3857   8.351   5.772   1.385  0.1092  0.3094 -0.4954
  965SOL    HW1 3858   8.390   5.698   1.432 -2.2043 -1.5900 -1.3504
  965SOL    HW2 3859   8.422   5.807   1.332  1.4113 -0.9705  0.3296
  965SOL     MW 3860   8.365   5.767   1.384 -0.0202 -0.0976 -0.4993
  966SOL     OW 3861   9.738   0.563   1.415 -0.3347 -0.0789  0.1041
  966SOL    HW1 3862   9.809   0.529   1.360  0.3240  2.3173 -0.6291
  966SOL    HW2 3863   9.687   0.485   1.439  1.4051 -1.6215 -0.9599
  966SOL     MW 3864   9.740   0.548   1.411 -0.0277  0.0304 -0.1260
  967SOL     OW 3865   6.967   7.049   1.505  0.0625  0.1021 -0.0659
  967SOL    HW1 3866   6.980   7.018   1.415 -0.7499 -0.2386 -0.0767
  967SOL    HW2 3867   7.049   7.026   1.550 -0.7420 -2.8229  0.1199
  967SOL     MW 3868   6.979   7.042   1.499 -0.1445 -0.3160 -0.0435
  968SOL     OW 3869   6.307   2.817   0.940  0.0170 -0.1470 -0.1273
  968SOL    HW1 3870   6.214   2.794   0.947  0.1098 -0.1266  1.5184
  968SOL    HW2 3871   6.346   2.783   1.020  0.8879  2.3816  0.5861
  968SOL     MW 3872   6.300   2.809   0.951  0.1403  0.1793  0.1747
  969SOL     OW 3873   9.449   1.891  10.002 -0.2697  0.0062 -0.4308
  969SOL    HW1 3874   9.461   1.943   9.923  0.5827  0.0934 -0.2518
  969SOL    HW2 3875   9.387   1.822   9.976 -2.3918  1.7771 -0.3440
  969SOL     MW 3876   9.443   1.889   9.989 -0.4322  0.2440 -0.3968
  970SOL     OW 3877   9.665   6.821   2.435  0.5582 -0.6310 -0.2245
  970SOL    HW1 3878   9.584   6.848   2.392  0.7339  0.5080  0.1421
  970SOL    HW2 3879   9.730   6.884   2.405  1.1096 -0.9933  0.1975
  970SOL     MW 3880   9.663   6.832   2.425  0.6513 -0.5316 -0.1236
  971SOL     OW 3881   9.088   1.452   9.550 -0.4342  0.3551 -0.0062
  971SOL    HW1 3882   9.148   1.452   9.625 -0.8677 -0.7184  0.3691
  971SOL    HW2 3883   9.085   1.360   9.522 -1.1040  0.5668 -0.6749
  971SOL     MW 3884   9.095   1.440   9.556 -0.5754  0.2448 -0.0438
  972SOL     OW 3885   9.917   7.504   9.601  0.0577  0.0173  0.3380
  972SOL    HW1 3886   9.836   7.554   9.612  0.2445  0.0832  1.5023
  972SOL    HW2 3887   9.974   7.535   9.671  1.0325 -0.1543 -0.3710
  972SOL     MW 3888   9.914   7.514   9.611  0.2064  0.0038  0.3963
  973SOL     OW 3889   8.532   0.440   9.376 -0.1136 -0.3655  0.0012
  973SOL    HW1 3890   8.591   0.400   9.440 -0.2098 -0.7496 -0.1488
  973SOL    HW2 3891   8.535   0.382   9.300  1.2590  0.9327 -0.9987
  973SOL     MW 3892   8.540   0.427   9.375  0.0498 -0.2485 -0.1460
  974SOL     OW 3893   9.191   9.664   9.022  0.1430  0.0414  0.0025
  974SOL    HW1 3894   9.123   9.722   9.057 -0.2960 -0.4742  0.0196
  974SOL    HW2 3895   9.229   9.623   9.099 -1.4289 -1.7727 -0.1016
  974SOL     MW 3896   9.187   9.666   9.036 -0.1144 -0.2569 -0.0086
  975SOL     OW 3897   7.694   7.717   2.399  0.0073 -0.0759  0.9014
  975SOL    HW1 3898   7.722   7.782   2.463 -0.1165 -1.4494  2.4033
  975SOL    HW2 3899   7.626   7.761   2.348  0.3343  1.1531  1.4966
  975SOL     MW 3900   7.689   7.731   2.400  0.0333 -0.0944  1.1698
  976SOL     OW 3901   8.244   4.644   1.491  0.0570 -0.3956  0.3564
  976SOL    HW1 3902   8.329   4.660   1.449  0.1418 -0.3602  0.5375
  976SOL    HW2 3903   8.243   4.704   1.566 -0.5809  0.3725 -0.2499
  976SOL     MW 3904   8.255   4.653   1.495 -0.0138 -0.2927  0.3020
  977SOL     OW 3905   6.659   7.157   0.074 -0.5368 -0.4944 -0.0607
  977SOL    HW1 3906   6.749   7.136   0.052  0.1704  1.6737  0.5295
  977SOL    HW2 3907   6.613   7.161  -0.010  0.5483  0.9258 -0.6320
  977SOL     MW 3908   6.664   7.155   0.061 -0.3074 -0.0351 -0.0583
  978SOL     OW 3909   7.269   7.616   1.293  0.5320  0.1036 -0.2907
  978SOL    HW1 3910   7.223   7.583   1.216 -0.1805  0.6928 -0.1267
  978SOL    HW2 3911   7.214   7.688   1.325  1.2263  0.3792  0.3043
  978SOL     MW 3912   7.256   7.621   1.288  0.5297  0.2143 -0.1935
  979SOL     OW 3913   9.454   3.421   0.688 -0.2438  0.0888 -0.0534
  979SOL    HW1 3914   9.535   3.435   0.737 -0.9279  0.0784  1.1100
  979SOL    HW2 3915   9.416   3.508   0.680 -0.9289 -0.1151  0.8603
  979SOL     MW 3916   9.460   3.434   0.693 -0.4191  0.0614  0.2125
  980SOL     OW 3917   9.511   7.400   9.486  0.6510  0.5345  0.0268
  980SOL    HW1 3918   9.486   7.324   9.434  1.3323  1.8557 -2.4086
  980SOL    HW2 3919   9.429   7.437   9.518  0.2723 -0.7294  0.5815
  980SOL     MW 3920   9.498   7.395   9.484  0.6897  0.5418 -0.2139
  981SOL     OW 3921   9.050   5.953   2.470  0.0117 -0.6196  0.0708
  981SOL    HW1 3922   8.977   5.930   2.413 -1.2166  1.4777  0.6800
  981SOL    HW2 3923   9.113   5.997   2.413 -0.1025 -0.6934 -0.1126
  981SOL     MW 3924   9.049   5.956   2.456 -0.1601 -0.3605  0.1253
  982SOL     OW 3925   8.114  10.035   1.542  0.2439 -0.0002 -0.1599
  982SOL    HW1 3926   8.075   9.959   1.585 -0.1482  0.5101  0.4209
  982SOL    HW2 3927   8.203  10.040   1.578 -0.1947  0.6212  0.8766
  982SOL     MW 3928   8.120  10.026   1.552  0.1375  0.1447  0.0471
  983SOL     OW 3929   7.195   1.416   1.425  0.8247 -0.2099  0.2393
  983SOL    HW1 3930   7.233   1.351   1.484  2.9560  1.3982  0.7484
  983SOL    HW2 3931   7.233   1.499   1.452 -2.0883  1.3817 -0.1488
  983SOL     MW 3932   7.205   1.418   1.436  0.7246  0.1997  0.2548
  984SOL     OW 3933   9.098   5.247   2.901  0.5310  0.4071 -0.0241
  984SOL    HW1 3934   9.072   5.174   2.844 -0.6253  2.4947 -2.3459
  984SOL    HW2 3935   9.023   5.258   2.960  0.5621 -0.0156  0.1045
  984SOL     MW 3936   9.085   5.239   2.901  0.3869  0.6202 -0.3049
  985SOL     OW 3937   8.163   5.216   9.653 -0.1264 -0.0589 -0.2519
  985SOL    HW1 3938   8.187   5.141   9.599  1.6183 -0.3902  0.9328
  985SOL    HW2 3939   8.172   5.186   9.743 -2.0123  0.7882  0.2750
  985SOL     MW 3940   8.167   5.203   9.657 -0.1445  0.0072 -0.0328
  986SOL     OW 3941   9.088   9.096   0.771 -0.1807  0.4445  0.3651
  986SOL    HW1 3942   9.027   9.091   0.697 -0.0185 -1.7493  0.3002
  986SOL    HW2 3943   9.141   9.174   0.753 -0.8914  0.6049 -1.2423
  986SOL     MW 3944   9.087   9.105   0.759 -0.2509  0.1842  0.1510
  987SOL     OW 3945   8.595   9.213   2.451  0.1095  0.1090 -0.2061
  987SOL    HW1 3946   8.630   9.290   2.406  1.6690  0.1979  1.0328
  987SOL    HW2 3947   8.598   9.236   2.544  0.8103 -1.4744  0.2183
  987SOL     MW 3948   8.600   9.225   2.457  0.3988 -0.0824  0.0068
  988SOL     OW 3949   6.407   9.392   1.923  0.0493  0.2130 -0.0992
  988SOL    HW1 3950   6.402   9.390   2.019  0.1141 -2.8383 -0.0740
  988SOL    HW2 3951   6.324   9.353   1.894  0.8749 -0.7972 -1.1917
  988SOL     MW 3952   6.395   9.387   1.932  0.1633 -0.3069 -0.2358
  989SOL     OW 3953   6.205   9.732   0.259  0.2216 -0.3276 -0.4773
  989SOL    HW1 3954   6.134   9.763   0.315  1.1526 -0.2669  0.7041
  989SOL    HW2 3955   6.214   9.640   0.281 -1.7446 -1.3085 -3.1257
  989SOL     MW 3956   6.197   9.724   0.269  0.0891 -0.4454 -0.6651
  990SOL     OW 3957   8.624   6.331   2.588 -0.1297  0.1829  0.1381
  990SOL    HW1 3958   8.671   6.326   2.505  0.1369  1.9195  0.1575
  990SOL    HW2 3959   8.642   6.419   2.621 -3.7037  1.1303 -0.0500
  990SOL     MW 3960   8.632   6.341   2.582 -0.5531  0.5265  0.1165
  991SOL     OW 3961   9.528   5.751   1.371 -0.3693 -0.3448  0.3198
  991SOL    HW1 3962   9.590   5.734   1.442 -0.0497  0.6367  0.2979
  991SOL    HW2 3963   9.461   5.806   1.412 -1.2856 -1.4613  0.3662
  991SOL     MW 3964   9.527   5.756   1.386 -0.4457 -0.3621  0.3230
  992SOL     OW 3965   8.680   4.996   2.818  0.4178  0.0849  0.0127
  992SOL    HW1 3966   8.585   4.979   2.819  0.2821  0.7683  0.6453
  992SOL    HW2 3967   8.706   4.986   2.910  0.9296  0.0359 -0.1388
  992SOL     MW 3968   8.671   4.993   2.830  0.4660  0.1661  0.0743
  993SOL     OW 3969   8.082   1.618   0.739 -0.4193 -0.0334 -0.4616
  993SOL    HW1 3970   8.012   1.641   0.678 -1.6170 -0.6769  0.6105
  993SOL    HW2 3971   8.146   1.688   0.729 -1.1610  0.5289 -1.5534
  993SOL     MW 3972   8.081   1.630   0.730 -0.6676 -0.0438 -0.4641
  994SOL     OW 3973   9.809   6.707   9.704 -0.4680  1.0436 -0.2074
  994SOL    HW1 3974   9.729   6.691   9.654 -1.2350  0.3556  1.1867
  994SOL    HW2 3975   9.852   6.622   9.710  1.0646  1.6265 -2.0190
  994SOL     MW 3976   9.804   6.694   9.699 -0.3700  1.0302 -0.2608
  995SOL     OW 3977   9.327   9.638   2.623 -0.2308  0.1490 -0.4470
  995SOL    HW1 3978   9.257   9.600   2.676  1.1863 -0.2546  1.2131
  995SOL    HW2 3979   9.402   9.643   2.682  2.1776 -2.4340 -2.9857
  995SOL     MW 3980   9.328   9.634   2.637  0.2589 -0.2333 -0.5595
  996SOL     OW 3981   8.602   4.247   9.219 -0.2593 -0.2334 -0.3525
  996SOL    HW1 3982   8.533   4.290   9.169  0.1367  0.0307 -0.6818
  996SOL    HW2 3983   8.670   4.313   9.228 -0.8520  0.1706  1.6884
  996SOL     MW 3984   8.602   4.261   9.214 -0.2845 -0.1479 -0.1334
  997SOL     OW 3985   9.537   4.246   0.695 -0.4495 -0.2096  0.1902
  997SOL    HW1 3986   9.498   4.276   0.613 -0.9911 -0.6621  0.2723
  997SOL    HW2 3987   9.603   4.312   0.716  0.1536 -0.4339 -0.9454
  997SOL     MW 3988   9.540   4.258   0.688 -0.4417 -0.2963  0.0553
  998SOL     OW 3989   0.305   0.031   1.705 -0.1850 -0.0314 -0.7386
  998SOL    HW1 3990   0.348   0.027   1.620  1.1230  1.3385 -0.1773
  998SOL    HW2 3991   0.316   0.121   1.734  1.6144 -0.9756  1.9690
  998SOL     MW 3992   0.312   0.042   1.698  0.2128  0.0231 -0.3202
  999SOL     OW 3993   9.680   6.779   1.962  0.4974 -0.1361  0.5007
  999SOL    HW1 3994   9.584   6.776   1.965  0.4815  0.2044  0.4171
  999SOL    HW2 3995   9.707   6.687   1.971  0.1236 -0.3748 -0.6086
  999SOL     MW 3996   9.671   6.767   1.963  0.4475 -0.1230  0.3480
 1000SOL     OW 3997   7.734   2.725   9.561 -0.0760  0.4080  0.1986
 1000SOL    HW1 3998   7.718   2.635   9.535  0.2631  0.2234  0.6099
 1000SOL    HW2 3999   7.778   2.718   9.646  0.3986  0.9384  0.0067
 1000SOL     MW 4000   7.738   2.713   9.569  0.0282  0.4523  0.2267
 1001SOL     OW 4001   9.046   7.372   1.301 -0.2668 -0.1875 -0.1747
 1001SOL    HW1 4002   9.020   7.315   1.228  0.6041 -1.4590  0.4546
 1001SOL    HW2 4003   8.982   7.354   1.369 -0.2023 -0.1350 -0.1002
 1001SOL     MW 4004   9.035   7.362   1.300 -0.1471 -0.3435 -0.0846
 1002SOL     OW 4005   6.796   8.857   0.865 -0.1138  0.2277  0.3039
 1002SOL    HW1 4006   6.865   8.919   0.888 -0.2535 -0.0685  1.6192
 1002SOL    HW2 4007   6.819   8.778   0.914 -1.1664  0.0035  0.4484
 1002SOL     MW 4008   6.808   8.855   0.874 -0.2664  0.1611  0.4908
 1003SOL     OW 4009   6.740   6.720   1.213  0.2187  0.1076 -0.5675
 1003SOL    HW1 4010   6.823   6.767   1.218 -0.0293  0.6347 -1.1661
 1003SOL    HW2 4011   6.681   6.769   1.270 -0.1365  0.7621 -1.4623
 1003SOL     MW 4012   6.743   6.733   1.221  0.1415  0.2589 -0.7587
 1004SOL     OW 4013   0.078   6.156   1.440  0.3633 -0.3891 -0.3773
 1004SOL    HW1 4014   0.063   6.079   1.386  0.9409 -0.0441 -1.0620
 1004SOL    HW2 4015   0.081   6.123   1.530 -0.0593 -1.0571 -0.6023
 1004SOL     MW 4016   0.077   6.142   1.445  0.3831 -0.4304 -0.4938
 1005SOL     OW 4017   7.973   1.328   1.473 -0.1640 -0.0424 -0.0148
 1005SOL    HW1 4018   7.917   1.303   1.547 -0.0153 -0.8178 -0.1624
 1005SOL    HW2 4019   7.988   1.247   1.425 -1.6757  0.7096 -1.8902
 1005SOL     MW 4020   7.968   1.314   1.476 -0.3385 -0.0454 -0.2737
 1006SOL     OW 4021   7.882   1.102   9.778 -0.7852 -0.3614  0.1836
 1006SOL    HW1 4022   7.903   1.099   9.684  1.1553 -0.9095  0.5838
 1006SOL    HW2 4023   7.865   1.010   9.801 -1.5761 -0.1872  0.3224
 1006SOL     MW 4024   7.883   1.090   9.769 -0.6380 -0.4093  0.2526
 1007SOL     OW 4025   7.294   6.033   0.468  0.3834  0.1330 -0.5833
 1007SOL    HW1 4026   7.261   6.078   0.546 -0.3506 -2.0270  0.4623
 1007SOL    HW2 4027   7.284   6.096   0.397 -1.3168  1.3148  0.6173
 1007SOL     MW 4028   7.288   6.047   0.469  0.0718  0.0078 -0.2957
 1008SOL     OW 4029   8.344   1.430   9.071 -0.5686 -0.0649  0.0714
 1008SOL    HW1 4030   8.297   1.349   9.089 -0.6159  0.1375  0.8997
 1008SOL    HW2 4031   8.416   1.431   9.134  0.1153 -0.0133 -0.6966
 1008SOL     MW 4032   8.347   1.420   9.081 -0.4871 -0.0324  0.0791
 1009SOL     OW 4033   8.542   3.502   2.067  0.0916  0.4212 -0.3364
 1009SOL    HW1 4034   8.474   3.568   2.084 -0.2019  0.2889 -0.9463
 1009SOL    HW2 4035   8.592   3.539   1.993  0.6123  0.4638  0.0367
 1009SOL     MW 4036   8.540   3.515   2.059  0.1207  0.4097 -0.3667
 1010SOL     OW 4037   7.896   0.708   1.838  0.3545 -0.0361  0.3460
 1010SOL    HW1 4038   7.925   0.674   1.753 -0.3135  1.6515 -0.6006
 1010SOL    HW2 4039   7.840   0.638   1.873  1.1370 -1.0170 -0.2982
 1010SOL     MW 4040   7.893   0.695   1.831  0.3692  0.0544  0.1424
 1011SOL     OW 4041   8.658   8.457   2.693 -0.5571 -0.1877 -0.1379
 1011SOL    HW1 4042   8.667   8.542   2.738  0.4404 -1.0458  1.3618
 1011SOL    HW2 4043   8.620   8.399   2.760 -1.6780 -0.8377 -1.2945
 1011SOL     MW 4044   8.654   8.461   2.708 -0.5729 -0.3807 -0.0940
 1012SOL     OW 4045   9.820   0.014  10.037 -0.3822 -0.5588 -0.2157
 1012SOL    HW1 4046   9.831  -0.052   9.968 -0.5703 -0.1948 -0.5939
 1012SOL    HW2 4047   9.781   0.089   9.993  2.5808  0.9799 -0.4744
 1012SOL     MW 4048   9.817   0.015  10.023 -0.0270 -0.3152 -0.2973
 1013SOL     OW 4049   7.063   3.883   2.289 -0.5923  0.3420 -0.2520
 1013SOL    HW1 4050   7.013   3.830   2.227 -0.5592 -0.6879  0.5717
 1013SOL    HW2 4051   7.145   3.902   2.244 -0.0622 -1.4262 -0.1092
 1013SOL     MW 4052   7.067   3.878   2.275 -0.5202 -0.0162 -0.1283
 1014SOL     OW 4053   7.420   9.880   2.122  0.1311  0.9673  0.9534
 1014SOL    HW1 4054   7.342   9.831   2.097  0.4208  0.7532  0.4581
 1014SOL    HW2 4055   7.426   9.951   2.057  0.6791  0.6300  0.6301
 1014SOL     MW 4056   7.411   9.883   2.111  0.2384  0.8967  0.8486
 1015SOL     OW 4057   7.448   1.222   2.450 -0.4767 -0.5528 -0.1167
 1015SOL    HW1 4058   7.514   1.265   2.505 -1.5339  1.6627 -0.4932
 1015SOL    HW2 4059   7.418   1.147   2.502 -0.4088  0.6354  1.7022
 1015SOL     MW 4060   7.453   1.218   2.464 -0.6033 -0.1171  0.0679
 1016SOL     OW 4061   7.001   6.653   9.763 -0.1365 -0.2151  0.3327
 1016SOL    HW1 4062   7.047   6.640   9.846  0.1325  0.5619  0.3150
 1016SOL    HW2 4063   6.966   6.567   9.741 -0.7096 -0.3115  1.5431
 1016SOL     MW 4064   7.002   6.641   9.771 -0.1754 -0.1279  0.4854
 1017SOL     OW 4065   6.540  10.147   0.785 -0.6514  0.4721  0.0671
 1017SOL    HW1 4066   6.535  10.207   0.859  0.7478  0.2265  0.3921
 1017SOL    HW2 4067   6.456  10.101   0.786 -1.1748  1.4002  0.6808
 1017SOL     MW 4068   6.529  10.149   0.795 -0.5393  0.5595  0.1873
 1018SOL     OW 4069   6.301   0.604   0.252  0.0283  0.1817  0.5980
 1018SOL    HW1 4070   6.248   0.618   0.174 -1.6680  0.6138  1.7496
 1018SOL    HW2 4071   6.381   0.564   0.221 -0.8808 -0.2718 -1.2808
 1018SOL     MW 4072   6.304   0.601   0.238 -0.3052  0.1790  0.5049
 1019SOL     OW 4073   8.881   6.638   2.859  0.5058 -0.0740  0.0739
 1019SOL    HW1 4074   8.863   6.730   2.841  0.4218 -0.2760 -0.9212
 1019SOL    HW2 4075   8.844   6.623   2.946  0.1931  0.7320  0.0894
 1019SOL     MW 4076   8.874   6.648   2.868  0.4550  0.0033 -0.0515
 1020SOL     OW 4077   0.074   5.252   2.001  0.4047 -0.3329  0.1042
 1020SOL    HW1 4078   0.168   5.255   2.017  0.2202  1.2067  1.1248
 1020SOL    HW2 4079   0.049   5.162   2.021  1.5776 -0.6244  0.3311
 1020SOL     MW 4080   0.083   5.241   2.006  0.5312 -0.1732  0.2639
 1021SOL     OW 4081   8.963   9.441   8.985 -0.4784 -0.2328 -0.5083
 1021SOL    HW1 4082   8.988   9.477   9.070 -0.6496 -0.1355 -0.4987
 1021SOL    HW2 4083   8.957   9.517   8.927 -1.7347 -0.1330 -0.2674
 1021SOL     MW 4084   8.965   9.455   8.988 -0.6611 -0.2076 -0.4763
 1022SOL     OW 4085   7.512   4.333   9.857  0.1242  0.1391 -0.0612
 1022SOL    HW1 4086   7.430   4.313   9.902  1.1434 -1.7377  1.1022
 1022SOL    HW2 4087   7.577   4.277   9.899  1.4455 -0.7456 -2.9565
 1022SOL     MW 4088   7.510   4.323   9.868  0.4238 -0.2144 -0.2829
 1023SOL     OW 4089   8.901   8.145   9.585  0.4520 -0.5227 -0.4961
 1023SOL    HW1 4090   8.954   8.121   9.509  0.1621  0.5359 -1.0554
 1023SOL    HW2 4091   8.848   8.218   9.554 -1.8695 -1.9701 -0.1649
 1023SOL     MW 4092   8.901   8.151   9.571  0.1177 -0.5724 -0.5253
 1024SOL     OW 4093   8.682   7.579   1.343 -0.4677  0.1494  0.2519
 1024SOL    HW1 4094   8.677   7.511   1.410  1.5418 -0.2353  0.0706
 1024SOL    HW2 4095   8.630   7.651   1.378 -1.9765 -1.1645  0.8127
 1024SOL     MW 4096   8.675   7.579   1.356 -0.4036 -0.0680  0.3005
 1025SOL     OW 4097   7.772   8.119   0.445 -0.5480  0.2724  0.4304
 1025SOL    HW1 4098   7.772   8.208   0.479 -1.6079 -0.2929  2.0561
 1025SOL    HW2 4099   7.750   8.065   0.521  0.4432 -1.4206 -0.4190
 1025SOL     MW 4100   7.769   8.123   0.459 -0.5568 -0.0167  0.5298
 1026SOL     OW 4101   7.985   8.838   1.626  0.1874  0.5558  0.2826
 1026SOL    HW1 4102   8.014   8.771   1.563 -0.4872  0.2708  0.2698
 1026SOL    HW2 4103   8.067   8.875   1.660  0.6432 -1.7381  1.8738
 1026SOL     MW 4104   8.000   8.834   1.622  0.1594  0.2257  0.4847
 1027SOL     OW 4105   8.025   6.600   3.009  0.5734  0.6465 -0.2015
 1027SOL    HW1 4106   8.050   6.615   3.100  0.4156 -0.2599  0.0028
 1027SOL    HW2 4107   8.107   6.602   2.960  0.7403  0.4124  0.0673
 1027SOL     MW 4108   8.038   6.602   3.015  0.5746  0.5005 -0.1409
 1028SOL     OW 4109   6.872   3.136   2.182 -0.4097 -0.2994  0.1620
 1028SOL    HW1 4110   6.941   3.187   2.140  0.5303 -2.3077 -0.8808
 1028SOL    HW2 4111   6.825   3.199   2.236  1.5950  1.3568  0.0986
 1028SOL     MW 4112   6.875   3.150   2.184 -0.0327 -0.3445  0.0204
 1029SOL     OW 4113   9.561   8.588   1.784 -0.1166  0.1592 -0.2638
 1029SOL    HW1 4114   9.554   8.600   1.689  0.3997  0.4220 -0.2739
 1029SOL    HW2 4115   9.487   8.637   1.820  0.1260  0.7134 -0.4963
 1029SOL     MW 4116   9.551   8.596   1.777 -0.0194  0.2638 -0.2948
 1030SOL     OW 4117   7.277   7.964   9.415 -0.3578  0.0455 -0.0925
 1030SOL    HW1 4118   7.223   7.941   9.491 -0.1997  0.4148  0.1362
 1030SOL    HW2 4119   7.324   8.043   9.442 -1.2689  0.9340 -1.0387
 1030SOL     MW 4120   7.276   7.971   9.428 -0.4542  0.2066 -0.1844
 1031SOL     OW 4121   8.500   4.414   3.091  0.2183 -0.4681  0.4932
 1031SOL    HW1 4122   8.550   4.437   3.170  1.7200 -0.1945 -0.5106
 1031SOL    HW2 4123   8.543   4.462   3.020 -0.0534 -2.0209 -0.7728
 1031SOL     MW 4124   8.512   4.423   3.092  0.3758 -0.6319  0.2026
 1032SOL     OW 4125   0.343   0.772   1.169  0.1846  0.2055 -0.1219
 1032SOL    HW1 4126   0.349   0.679   1.191 -2.2993 -0.0291 -0.1442
 1032SOL    HW2 4127   0.311   0.813   1.249  0.2604  0.8745 -0.4353
 1032SOL     MW 4128   0.340   0.765   1.182 -0.1237  0.2611 -0.1649
 1033SOL     OW 4129   7.741   4.681   1.568  0.2465  0.7929  0.5375
 1033SOL    HW1 4130   7.735   4.628   1.648  0.8630  0.8253  0.6077
 1033SOL    HW2 4131   7.800   4.753   1.590 -1.6583  2.3375  0.8747
 1033SOL     MW 4132   7.748   4.683   1.581  0.0816  0.9947  0.5896
 1034SOL     OW 4133   9.911   8.591   0.577  0.3237 -0.3633 -0.4429
 1034SOL    HW1 4134   9.856   8.536   0.633 -1.0132 -0.3857 -1.7340
 1034SOL    HW2 4135   9.850   8.646   0.530  1.5813  1.6226  0.1209
 1034SOL     MW 4136   9.896   8.591   0.578  0.3136 -0.1120 -0.5360
 1035SOL     OW 4137   6.958   8.506   2.435 -0.2100  0.3747  0.0422
 1035SOL    HW1 4138   7.012   8.534   2.361  0.4720  1.8542  1.0599
 1035SOL    HW2 4139   6.917   8.425   2.405  2.7957 -1.0094 -0.6874
 1035SOL     MW 4140   6.960   8.499   2.422  0.2620  0.3869  0.0790
 1036SOL     OW 4141   7.148   7.394   0.898  0.3818  0.4306 -0.3809
 1036SOL    HW1 4142   7.146   7.309   0.941 -0.4903  0.9241  0.6335
 1036SOL    HW2 4143   7.114   7.455   0.965  0.4316  1.4710 -1.2731
 1036SOL     MW 4144   7.143   7.391   0.912  0.2766  0.6270 -0.3652
 1037SOL     OW 4145   8.207   0.481   0.933 -0.2161 -0.7361  0.1769
 1037SOL    HW1 4146   8.218   0.386   0.940  1.8237 -0.7072 -1.6420
 1037SOL    HW2 4147   8.241   0.515   1.017  0.9256 -1.5334  0.0588
 1037SOL     MW 4148   8.213   0.473   0.945  0.1912 -0.8345 -0.0711
 1038SOL     OW 4149   7.201   8.994   1.159  0.5791  0.4424 -0.0907
 1038SOL    HW1 4150   7.257   9.036   1.224 -0.3717  1.2792  0.2299
 1038SOL    HW2 4151   7.140   8.941   1.210 -0.0826  0.9901 -0.2904
 1038SOL     MW 4152   7.200   8.993   1.174  0.3727  0.6196 -0.0752
 1039SOL     OW 4153   9.153   8.721   1.607  0.0507  0.3960 -0.3432
 1039SOL    HW1 4154   9.181   8.737   1.516 -1.7499  1.9375 -0.6985
 1039SOL    HW2 4155   9.221   8.762   1.660  0.8441 -0.0246 -1.0049
 1039SOL     MW 4156   9.165   8.729   1.602 -0.0783  0.5395 -0.4734
 1040SOL     OW 4157  10.120   6.536   0.352  0.7290 -0.6538  0.0555
 1040SOL    HW1 4158  10.093   6.624   0.329  1.3883 -0.6277 -0.6628
 1040SOL    HW2 4159  10.041   6.494   0.386  0.0743 -0.2282 -0.9218
 1040SOL     MW 4160  10.107   6.542   0.353  0.7296 -0.5960 -0.1616
 1041SOL     OW 4161   8.796   3.679   0.462 -0.1227 -0.3235 -0.0075
 1041SOL    HW1 4162   8.817   3.772   0.461 -0.8729 -0.1372  0.3357
 1041SOL    HW2 4163   8.795   3.654   0.370 -1.1902  0.3250 -0.1964
 1041SOL     MW 4164   8.798   3.688   0.450 -0.3554 -0.2166  0.0122
 1042SOL     OW 4165   6.568   0.828   0.925 -0.1491 -0.0047 -0.9823
 1042SOL    HW1 4166   6.566   0.734   0.906 -0.4934 -0.3501  0.6586
 1042SOL    HW2 4167   6.543   0.835   1.017  1.3533  1.5808 -0.6373
 1042SOL     MW 4168   6.565   0.817   0.934 -0.0009  0.1540 -0.7281
 1043SOL     OW 4169   9.006   5.623   1.503 -0.0954  0.4198 -0.3086
 1043SOL    HW1 4170   8.928   5.655   1.458  0.4910  1.6632 -0.4754
 1043SOL    HW2 4171   9.041   5.699   1.549  0.6876 -0.2633  0.2648
 1043SOL     MW 4172   9.001   5.637   1.503  0.0799  0.4915 -0.2566
 1044SOL     OW 4173   8.373   1.651   0.256 -0.2890 -0.2045 -0.2218
 1044SOL    HW1 4174   8.433   1.603   0.313  1.0215 -1.8663 -2.7757
 1044SOL    HW2 4175   8.311   1.692   0.315  0.8933 -1.8690  2.3524
 1044SOL     MW 4176   8.373   1.650   0.271  0.0301 -0.6303 -0.2192
 1045SOL     OW 4177   9.600   2.634   3.063  0.5269  0.2183  0.0600
 1045SOL    HW1 4178   9.524   2.575   3.068  0.6250  0.1015  0.1954
 1045SOL    HW2 4179   9.599   2.680   3.147  0.4287  0.4397 -0.0609
 1045SOL     MW 4180   9.590   2.632   3.074  0.5269  0.2317  0.0618
 1046SOL     OW 4181   6.970   6.889   1.260  0.2085  0.2481 -0.0274
 1046SOL    HW1 4182   7.020   6.807   1.253  0.8258  0.7509 -2.3581
 1046SOL    HW2 4183   6.982   6.931   1.176 -2.0419  1.6562  0.2768
 1046SOL     MW 4184   6.978   6.884   1.249 -0.0005  0.4927 -0.2868
 1047SOL     OW 4185   7.503   8.393   2.653 -0.6624  0.7284  0.7729
 1047SOL    HW1 4186   7.494   8.461   2.586 -0.4618 -0.2056 -0.2292
 1047SOL    HW2 4187   7.417   8.351   2.657 -0.4397  0.2257  0.4689
 1047SOL     MW 4188   7.491   8.396   2.645 -0.6082  0.5445  0.6057
 1048SOL     OW 4189   7.701  10.103   9.900 -0.2009  0.4879 -0.3374
 1048SOL    HW1 4190   7.704  10.007   9.895  1.8582  0.5342 -0.5490
 1048SOL    HW2 4191   7.690  10.131   9.810  1.7790  0.4775 -0.6185
 1048SOL     MW 4192   7.700  10.094   9.888  0.3161  0.4925 -0.4005
 1049SOL     OW 4193   9.331   0.289   2.063 -0.2340 -0.3123 -0.3941
 1049SOL    HW1 4194   9.377   0.368   2.093 -0.3333 -0.2323 -0.4491
 1049SOL    HW2 4195   9.369   0.271   1.977 -0.8780  0.2392 -0.8124
 1049SOL     MW 4196   9.342   0.297   2.056 -0.3291 -0.2315 -0.4547
 1050SOL     OW 4197   6.321  10.008   1.155  0.2288 -0.5405  0.3785
 1050SOL    HW1 4198   6.312   9.949   1.229 -1.0356 -0.7099  0.1060
 1050SOL    HW2 4199   6.255  10.075   1.169  1.2542  0.5003  0.3800
 1050SOL     MW 4200   6.311  10.009   1.166  0.1982 -0.4290  0.3438
 1051SOL     OW 4201   6.706   3.733   0.491  0.2198 -0.0110 -0.0838
 1051SOL    HW1 4202   6.762   3.699   0.561 -1.2101 -0.6020  0.8092
 1051SOL    HW2 4203   6.762   3.730   0.413  1.7470  0.3758  0.9550
 1051SOL     MW 4204   6.720   3.728   0.490  0.2322 -0.0371  0.1635
 1052SOL     OW 4205   7.366   9.388   2.303 -0.0824  0.0521 -0.8929
 1052SOL    HW1 4206   7.426   9.379   2.230  0.0708 -0.2205 -0.7337
 1052SOL    HW2 4207   7.305   9.315   2.295  0.6554 -0.6730 -0.0787
 1052SOL     MW 4208   7.366   9.378   2.293  0.0317 -0.0756 -0.7683
 1053SOL     OW 4209   7.362   3.127   1.684  0.6610 -0.5996  0.1271
 1053SOL    HW1 4210   7.452   3.113   1.655  0.6753  0.5322 -0.4357
 1053SOL    HW2 4211   7.317   3.046   1.662  1.2169 -0.6459 -0.9483
 1053SOL     MW 4212   7.368   3.115   1.677  0.7340 -0.4607 -0.0826
 1054SOL     OW 4213   8.662   9.209   9.389 -0.2929  0.7019  0.0472
 1054SOL    HW1 4214   8.712   9.181   9.465  0.1338  1.6662  0.1423
 1054SOL    HW2 4215   8.576   9.233   9.424 -0.2951  0.5684  0.1319
 1054SOL     MW 4216   8.658   9.209   9.403 -0.2386  0.8083  0.0702
 1055SOL     OW 4217   7.699   9.066   2.363 -0.1453  0.2104 -0.4882
 1055SOL    HW1 4218   7.645   9.133   2.405 -0.7312 -1.1345  1.0165
 1055SOL    HW2 4219   7.650   8.984   2.376  1.5839 -0.8411 -0.3181
 1055SOL     MW 4220   7.686   9.064   2.370  0.0011 -0.0963 -0.2738
 1056SOL     OW 4221   7.606   3.082   2.026  0.3073  0.1213 -0.1495
 1056SOL    HW1 4222   7.559   3.000   2.046  3.0125 -1.0502  1.9814
 1056SOL    HW2 4223   7.537   3.145   2.008 -1.9656 -2.1793 -0.1160
 1056SOL     MW 4224   7.591   3.079   2.026  0.3627 -0.3231  0.1276
 1057SOL     OW 4225   7.644   6.529   9.633 -0.5424 -0.3818  0.5930
 1057SOL    HW1 4226   7.608   6.541   9.721 -1.2579 -1.6180  0.4887
 1057SOL    HW2 4227   7.688   6.444   9.637  0.5148  0.1242  0.0933
 1057SOL     MW 4228   7.645   6.520   9.645 -0.4986 -0.4752  0.5157
 1058SOL     OW 4229   8.806   0.172   9.937 -0.4326  0.0732 -0.2508
 1058SOL    HW1 4230   8.827   0.115   9.864 -3.2962 -1.4378 -0.0268
 1058SOL    HW2 4231   8.735   0.228   9.905 -0.8759  0.2514  0.9897
 1058SOL     MW 4232   8.800   0.172   9.924 -0.8559 -0.0974 -0.0633
 1059SOL     OW 4233   7.827   0.686   0.362 -0.2847  0.2867 -0.5790
 1059SOL    HW1 4234   7.750   0.711   0.310  0.4002  2.4913 -0.6397
 1059SOL    HW2 4235   7.812   0.726   0.447  0.6044  0.3863 -0.4586
 1059SOL     MW 4236   7.815   0.694   0.366 -0.0832  0.5817 -0.5713
 1060SOL     OW 4237   0.058   2.530   0.146 -0.2868  0.1433 -0.3223
 1060SOL    HW1 4238   0.034   2.486   0.227 -1.4862  1.9406  0.3572
 1060SOL    HW2 4239   0.147   2.499   0.127 -0.8505 -2.1107  0.3583
 1060SOL     MW 4240   0.066   2.520   0.154 -0.5125  0.0848 -0.1482
 1061SOL     OW 4241   7.363   3.394   8.954 -0.2981 -0.0718 -0.0310
 1061SOL    HW1 4242   7.405   3.471   8.917  1.4603 -0.9971 -0.0693
 1061SOL    HW2 4243   7.335   3.421   9.042  1.0943  0.3781  0.2933
 1061SOL     MW 4244   7.364   3.407   8.961  0.1053 -0.1327  0.0056
 1062SOL     OW 4245   9.966  10.017   0.206 -0.7334  0.3841 -0.1646
 1062SOL    HW1 4246   9.891  10.041   0.259  0.1464  1.1015  0.7939
 1062SOL    HW2 4247   9.938   9.939   0.158 -1.3116 -0.7286  1.8839
 1062SOL     MW 4248   9.953  10.010   0.206 -0.6948  0.3335  0.2203
 1063SOL     OW 4249   6.772   1.763   0.785  0.2247 -0.1444  0.2951
 1063SOL    HW1 4250   6.864   1.739   0.792  0.0916 -0.4284  1.2426
 1063SOL    HW2 4251   6.724   1.687   0.817 -0.3800 -0.3111 -0.9562
 1063SOL     MW 4252   6.777   1.750   0.790  0.1302 -0.2021  0.2562
 1064SOL     OW 4253   6.770   8.626   9.643  0.0227  0.2528  0.3208
 1064SOL    HW1 4254   6.709   8.682   9.595 -0.0377 -0.2945 -0.2451
 1064SOL    HW2 4255   6.816   8.576   9.575  0.7092  0.2574  0.7722
 1064SOL     MW 4256   6.768   8.627   9.628  0.1028  0.1833  0.3061
 1065SOL     OW 4257   8.013   9.500   0.041  0.2688 -0.2894  0.1120
 1065SOL    HW1 4258   8.042   9.531   0.127 -1.8022 -0.7555  1.0617
 1065SOL    HW2 4259   7.987   9.580  -0.005  0.4635 -0.1182  0.2957
 1065SOL     MW 4260   8.013   9.514   0.046  0.0286 -0.3272  0.2571
 1066SOL     OW 4261   6.159   9.691   1.788 -0.1270  0.4740  0.1948
 1066SOL    HW1 4262   6.161   9.627   1.717  0.2589  1.7947 -1.0294
 1066SOL    HW2 4263   6.079   9.671   1.836  0.2522 -1.2424  0.1737
 1066SOL     MW 4264   6.149   9.680   1.785 -0.0290  0.4233  0.0354
 1067SOL     OW 4265   7.048   6.418   2.502 -0.3678  0.0394 -0.1250
 1067SOL    HW1 4266   6.956   6.406   2.475 -1.4546  2.5264  2.0416
 1067SOL    HW2 4267   7.088   6.465   2.429 -0.9200 -0.5843 -0.8569
 1067SOL     MW 4268   7.041   6.422   2.489 -0.5776  0.2780  0.0587
 1068SOL     OW 4269   7.249   4.504   0.945 -0.3243 -0.2118  0.1036
 1068SOL    HW1 4270   7.328   4.505   0.891  1.9087 -0.5082  3.1178
 1068SOL    HW2 4271   7.233   4.411   0.961  0.0704 -0.0872  1.2800
 1068SOL     MW 4272   7.257   4.492   0.940  0.0121 -0.2338  0.6400
 1069SOL     OW 4273   8.138   7.703   9.334 -0.0539  0.2207 -0.2552
 1069SOL    HW1 4274   8.161   7.719   9.243  0.4214  0.7075 -0.0485
 1069SOL    HW2 4275   8.193   7.629   9.360  0.6941  0.8573 -0.0056
 1069SOL     MW 4276   8.148   7.695   9.325  0.1027  0.3645 -0.1968
 1070SOL     OW 4277   7.544   0.023   0.903 -0.0944  0.5995  0.3226
 1070SOL    HW1 4278   7.624   0.064   0.869  0.5155  0.3902  1.4655
 1070SOL    HW2 4279   7.506   0.090   0.959 -0.4267  0.4956  0.2201
 1070SOL     MW 4280   7.550   0.037   0.906 -0.0589  0.5594  0.4558
 1071SOL     OW 4281   0.227   2.319   2.521 -0.0453  0.2407  0.1638
 1071SOL    HW1 4282   0.303   2.273   2.557  0.2982  0.2161 -0.5780
 1071SOL    HW2 4283   0.238   2.312   2.426 -0.3242  1.3017  0.0410
 1071SOL     MW 4284   0.238   2.312   2.514 -0.0371  0.3734  0.0531
 1072SOL     OW 4285   7.338   3.847   0.878 -0.4158 -0.7950 -0.2789
 1072SOL    HW1 4286   7.268   3.798   0.922  0.2004 -1.6914 -0.2671
 1072SOL    HW2 4287   7.334   3.818   0.787 -0.0771 -0.8305 -0.2829
 1072SOL     MW 4288   7.328   3.837   0.872 -0.2935 -0.9143 -0.2779
 1073SOL     OW 4289   8.976   8.666   9.813 -0.6007  0.3067  0.0434
 1073SOL    HW1 4290   9.019   8.588   9.779 -0.3764  1.1786 -1.7617
 1073SOL    HW2 4291   8.979   8.729   9.741 -0.4792  2.1146  1.5432
 1073SOL     MW 4292   8.982   8.664   9.800 -0.5564  0.6498  0.0043
 1074SOL     OW 4293   8.981   4.192   9.956  0.1747 -0.1520  0.0503
 1074SOL    HW1 4294   8.990   4.109   9.910 -1.0129 -0.4507  0.3101
 1074SOL    HW2 4295   8.993   4.170  10.048 -1.8694 -0.4061  0.3140
 1074SOL     MW 4296   8.983   4.179   9.962 -0.2390 -0.2228  0.1173
 1075SOL     OW 4297   8.722   2.223   9.398  0.0504  0.0429 -0.1172
 1075SOL    HW1 4298   8.663   2.229   9.473 -0.8687  0.9798 -0.8727
 1075SOL    HW2 4299   8.784   2.295   9.410  0.9998 -0.8636  0.6106
 1075SOL     MW 4300   8.722   2.233   9.409  0.0542  0.0468 -0.1208
 1076SOL     OW 4301   9.493   5.014  10.066  0.3629 -0.1124  0.6637
 1076SOL    HW1 4302   9.412   4.990  10.110  0.9188  0.4921  2.0728
 1076SOL    HW2 4303   9.559   4.953  10.101  0.4853 -0.7642 -0.6534
 1076SOL     MW 4304   9.491   5.003  10.076  0.4497 -0.1185  0.6754
 1077SOL     OW 4305   9.357   6.062   1.757  0.0113  0.0492  0.3600
 1077SOL    HW1 4306   9.432   6.104   1.800 -0.2368  2.0921 -1.0179
 1077SOL    HW2 4307   9.281   6.095   1.806 -0.0588 -2.2808  1.9668
 1077SOL     MW 4308   9.357   6.072   1.769 -0.0295  0.0125  0.3893
 1078SOL     OW 4309   8.206   8.567   1.077  0.3907  0.3289  0.8136
 1078SOL    HW1 4310   8.192   8.637   1.141 -0.5904  2.1586 -1.2716
 1078SOL    HW2 4311   8.282   8.596   1.027  0.7297 -0.7330  0.6949
 1078SOL     MW 4312   8.214   8.579   1.079  0.3085  0.4272  0.5314
 1079SOL     OW 4313   6.733   1.381   2.196 -0.0326  0.3559  0.2092
 1079SOL    HW1 4314   6.798   1.435   2.241  0.0941  0.4295 -0.0599
 1079SOL    HW2 4315   6.660   1.440   2.178  0.2077  0.5010 -0.3032
 1079SOL     MW 4316   6.732   1.395   2.199  0.0144  0.3839  0.1091
 1080SOL     OW 4317   8.487   1.712   1.683 -0.2852 -0.4162 -0.8450
 1080SOL    HW1 4318   8.520   1.648   1.747 -2.5061 -0.0152  0.8061
 1080SOL    HW2 4319   8.442   1.659   1.617  0.2685 -0.7034 -0.9999
 1080SOL     MW 4320   8.486   1.697   1.683 -0.4987 -0.4016 -0.6535
 1081SOL     OW 4321   7.033   1.672   0.806  0.2151  0.7280  0.8067
 1081SOL    HW1 4322   7.004   1.581   0.804  0.4038  0.6599  1.0748
 1081SOL    HW2 4323   7.078   1.681   0.890 -1.3714  1.5556  1.6040
 1081SOL     MW 4324   7.035   1.662   0.816  0.0362  0.8252  0.9431
 1082SOL     OW 4325   0.118   6.449   1.829 -0.1111 -0.2809 -0.1696
 1082SOL    HW1 4326   0.180   6.396   1.778 -1.5474 -0.4783 -1.7796
 1082SOL    HW2 4327   0.044   6.391   1.843 -0.5328  0.4147  0.5000
 1082SOL     MW 4328   0.117   6.435   1.824 -0.3490 -0.2171 -0.2899
 1083SOL     OW 4329   8.292   4.569   9.141 -0.3686  0.1653 -0.0827
 1083SOL    HW1 4330   8.323   4.488   9.099 -0.2207  0.3152 -0.2615
 1083SOL    HW2 4331   8.204   4.548   9.172 -0.4329  0.0179 -0.3618
 1083SOL     MW 4332   8.285   4.556   9.140 -0.3579  0.1656 -0.1413
 1084SOL     OW 4333   7.158   3.487   1.665 -0.3483  0.4374  0.1723
 1084SOL    HW1 4334   7.164   3.424   1.737 -0.0380  0.0898 -0.1579
 1084SOL    HW2 4335   7.115   3.438   1.595 -2.4888  1.3492  0.7682
 1084SOL     MW 4336   7.153   3.473   1.666 -0.5826  0.5096  0.2063
 1085SOL     OW 4337   8.079   9.302   1.594 -0.2314 -0.0302 -0.3169
 1085SOL    HW1 4338   8.015   9.308   1.524  0.4832 -0.7542 -1.0471
 1085SOL    HW2 4339   8.108   9.393   1.607  0.2749  0.0103 -1.5833
 1085SOL     MW 4340   8.075   9.315   1.587 -0.0751 -0.1177 -0.5725
 1086SOL     OW 4341   6.282   8.777   0.423  0.3450 -0.1864  0.1039
 1086SOL    HW1 4342   6.367   8.748   0.390  0.1489 -0.7137  0.0471
 1086SOL    HW2 4343   6.234   8.695   0.441 -0.2854  0.0996 -0.2283
 1086SOL     MW 4344   6.286   8.763   0.421  0.2392 -0.2173  0.0541
 1087SOL     OW 4345   6.538   0.537   0.159  0.1070  0.2877  0.2343
 1087SOL    HW1 4346   6.573   0.448   0.159  1.4154  0.7510  1.8072
 1087SOL    HW2 4347   6.614   0.593   0.145 -0.1376  1.2793  2.4828
 1087SOL     MW 4348   6.552   0.533   0.157  0.2432  0.4740  0.7235
 1088SOL     OW 4349   7.810   8.129   3.037  0.3320  0.7485 -0.4299
 1088SOL    HW1 4350   7.786   8.121   3.129 -1.5318  1.5581 -0.8027
 1088SOL    HW2 4351   7.874   8.201   3.035  0.9080  0.2737  0.2915
 1088SOL     MW 4352   7.815   8.137   3.049  0.1671  0.7913 -0.3853
 1089SOL     OW 4353   0.099   9.204   1.761  0.0015 -0.0180 -0.0154
 1089SOL    HW1 4354   0.042   9.127   1.751 -0.5846  0.3450  0.4846
 1089SOL    HW2 4355   0.175   9.171   1.810 -0.7891 -0.0299  1.2288
 1089SOL     MW 4356   0.102   9.190   1.766 -0.1748  0.0269  0.2079
 1090SOL     OW 4357   9.056   0.070   1.502  0.2957 -0.2856 -0.4776
 1090SOL    HW1 4358   9.106   0.086   1.582 -1.2204 -0.3497  0.5280
 1090SOL    HW2 4359   8.965   0.080   1.529 -0.3055 -1.5751 -1.9160
 1090SOL     MW 4360   9.051   0.074   1.516  0.0247 -0.4589 -0.5330
 1091SOL     OW 4361   7.151   1.639   2.208 -0.5983 -0.5626 -0.5614
 1091SOL    HW1 4362   7.196   1.700   2.266 -2.5502  2.0315 -1.5926
 1091SOL    HW2 4363   7.221   1.582   2.174  1.3707  1.2349  0.2607
 1091SOL     MW 4364   7.166   1.639   2.211 -0.5961 -0.0004 -0.5882
 1092SOL     OW 4365   9.128   5.224   1.828  0.5907  0.0363  0.1003
 1092SOL    HW1 4366   9.212   5.180   1.818  0.5455  0.2419 -1.3028
 1092SOL    HW2 4367   9.121   5.281   1.752 -0.9075 -0.1306  0.0807
 1092SOL     MW 4368   9.138   5.226   1.817  0.3931  0.0413 -0.0819
 1093SOL     OW 4369   9.479   0.559   9.242  0.2920 -0.1198 -0.2460
 1093SOL    HW1 4370   9.459   0.468   9.220  0.1786 -0.1485 -0.0316
 1093SOL    HW2 4371   9.411   0.583   9.306  0.7450 -0.1114  0.2427
 1093SOL     MW 4372   9.468   0.550   9.248  0.3355 -0.1224 -0.1560
 1094SOL     OW 4373   7.855   1.895   1.633  0.0245  0.0986 -0.3066
 1094SOL    HW1 4374   7.820   1.835   1.700  1.8040  0.1504  0.7246
 1094SOL    HW2 4375   7.794   1.887   1.560 -1.6561 -0.4300  1.0766
 1094SOL     MW 4376   7.843   1.886   1.632  0.0371  0.0375  0.0025
 1095SOL     OW 4377   7.896   9.443   9.797  0.5062 -0.0053 -0.3884
 1095SOL    HW1 4378   7.920   9.529   9.833  0.9533  0.1099 -0.9369
 1095SOL    HW2 4379   7.850   9.399   9.868 -0.3490  0.9534 -0.3333
 1095SOL     MW 4380   7.893   9.449   9.811  0.4540  0.1322 -0.4516
 1096SOL     OW 4381   6.739   2.282   0.174  0.3683 -0.0963  0.1110
 1096SOL    HW1 4382   6.724   2.355   0.235  1.5173 -0.6706  1.1404
 1096SOL    HW2 4383   6.830   2.256   0.191  0.6352 -0.4314 -1.7086
 1096SOL     MW 4384   6.749   2.288   0.184  0.5496 -0.2128  0.0098
 1097SOL     OW 4385   7.326   6.152   9.981  0.1369  0.0648  0.1531
 1097SOL    HW1 4386   7.330   6.069   9.933  1.1846 -0.1016  0.4998
 1097SOL    HW2 4387   7.412   6.192   9.967  0.5936 -0.1084  2.0531
 1097SOL     MW 4388   7.338   6.146   9.973  0.3295  0.0213  0.4407
 1098SOL     OW 4389   7.903   4.911   0.485  0.4719  0.1027  0.1109
 1098SOL    HW1 4390   7.845   4.985   0.506 -0.5332 -0.5799 -0.1498
 1098SOL    HW2 4391   7.871   4.880   0.400  1.7519  0.1981 -0.4173
 1098SOL     MW 4392   7.891   4.916   0.477  0.5071  0.0275  0.0099
 1099SOL     OW 4393   9.165   3.300   2.739 -0.4736  0.1143 -0.0550
 1099SOL    HW1 4394   9.100   3.367   2.759  0.0972  0.9498 -0.8961
 1099SOL    HW2 4395   9.114   3.219   2.729 -1.0606  0.1703  2.0000
 1099SOL     MW 4396   9.150   3.298   2.740 -0.4757  0.2284  0.1004
 1100SOL     OW 4397   7.198   9.364   1.712 -0.2342  0.0020 -0.1641
 1100SOL    HW1 4398   7.114   9.382   1.755 -0.6013 -0.7926 -0.5248
 1100SOL    HW2 4399   7.258   9.429   1.748 -1.1105  0.8742 -0.2308
 1100SOL     MW 4400   7.195   9.375   1.722 -0.3934  0.0119 -0.2189
 1101SOL     OW 4401   9.962   0.834   0.694  0.5861  0.2265 -0.6060
 1101SOL    HW1 4402   9.947   0.928   0.684  1.9553  0.5404  0.0373
 1101SOL    HW2 4403  10.058   0.825   0.697  0.4612 -0.9646  1.3036
 1101SOL     MW 4404   9.973   0.845   0.693  0.7454  0.1142 -0.2792
 1102SOL     OW 4405   6.508   6.801   2.026 -0.4248  0.0425  0.1510
 1102SOL    HW1 4406   6.560   6.785   2.105  1.3867  0.0564 -1.0030
 1102SOL    HW2 4407   6.532   6.890   1.999 -0.9725  0.0076 -0.4848
 1102SOL     MW 4408   6.517   6.811   2.033 -0.2630  0.0398 -0.0781
 1103SOL     OW 4409   6.749   8.785   1.868 -0.7750 -0.0249  0.1766
 1103SOL    HW1 4410   6.664   8.748   1.845 -0.1799 -2.4502  1.4836
 1103SOL    HW2 4411   6.730   8.877   1.889 -2.9222 -0.2916 -0.3184
 1103SOL     MW 4412   6.736   8.792   1.868 -0.9737 -0.3695  0.2806
 1104SOL     OW 4413   9.205   2.562   9.694 -0.2947  0.5725 -0.1259
 1104SOL    HW1 4414   9.175   2.471   9.688 -0.1988  0.3956  1.6099
 1104SOL    HW2 4415   9.128   2.612   9.719 -0.1199  0.8121 -0.0585
 1104SOL     MW 4416   9.191   2.556   9.696 -0.2600  0.5805  0.1050
 1105SOL     OW 4417   8.143   4.863  10.017  0.9683 -0.5353  0.1004
 1105SOL    HW1 4418   8.075   4.795  10.014  0.0579  0.3369  0.5460
 1105SOL    HW2 4419   8.114   4.929   9.954  0.6160  0.5618  1.3924
 1105SOL     MW 4420   8.131   4.862  10.008  0.8067 -0.2832  0.3229
 1106SOL     OW 4421   8.982  10.078   1.032  0.1357  0.3623 -0.0467
 1106SOL    HW1 4422   8.905  10.071   1.089  0.7599  0.9584  0.8947
 1106SOL    HW2 4423   9.051  10.031   1.079  0.3597 -0.1689 -0.8807
 1106SOL     MW 4424   8.981  10.071   1.045  0.2443  0.3706 -0.0329
 1107SOL     OW 4425   8.756   4.124   2.416 -0.1849  0.3014  0.9741
 1107SOL    HW1 4426   8.800   4.050   2.373  1.4585  2.3044 -1.0128
 1107SOL    HW2 4427   8.815   4.150   2.486 -0.0000  0.6511  0.6948
 1107SOL     MW 4428   8.769   4.118   2.419  0.0492  0.6026  0.6840
 1108SOL     OW 4429   7.576   6.987  10.070 -0.2706  0.0677  0.6519
 1108SOL    HW1 4430   7.650   6.948  10.117  0.1837  0.4394  0.2522
 1108SOL    HW2 4431   7.611   7.067  10.032 -0.3617 -0.6790 -1.1064
 1108SOL     MW 4432   7.590   6.992  10.071 -0.2241  0.0197  0.3756
 1109SOL     OW 4433   8.668   8.526   2.095  0.2554 -0.4095  0.2453
 1109SOL    HW1 4434   8.720   8.512   2.174  1.3958  1.2435 -0.1562
 1109SOL    HW2 4435   8.606   8.594   2.119  0.5062 -0.0093 -0.2182
 1109SOL     MW 4436   8.667   8.533   2.108  0.4335 -0.1467  0.1346
 1110SOL     OW 4437   0.141   5.988   1.692  0.2205 -0.3986 -0.8128
 1110SOL    HW1 4438   0.203   5.923   1.657 -0.3454 -2.0929  1.1355
 1110SOL    HW2 4439   0.076   5.936   1.739 -0.4597  1.5864  0.5665
 1110SOL     MW 4440   0.141   5.973   1.694  0.0610 -0.3614 -0.3869
 1111SOL     OW 4441   6.267   8.994   1.076 -0.0450  0.1327 -0.1304
 1111SOL    HW1 4442   6.227   9.033   1.153 -0.8188 -1.2864  0.2194
 1111SOL    HW2 4443   6.262   9.063   1.009  0.8660  1.4716  1.1027
 1111SOL     MW 4444   6.261   9.008   1.077 -0.0275  0.1224  0.0722
 1112SOL     OW 4445   9.004   4.373   2.088 -0.1989 -0.0850  0.5572
 1112SOL    HW1 4446   9.007   4.297   2.030 -3.0380 -0.6133  0.9432
 1112SOL    HW2 4447   9.073   4.431   2.055 -1.1755 -0.6436 -2.9335
 1112SOL     MW 4448   9.013   4.371   2.076 -0.6874 -0.2242  0.1598
 1113SOL     OW 4449   6.696   9.780   9.116  0.4138  0.0807 -0.3586
 1113SOL    HW1 4450   6.618   9.805   9.166  0.4845  0.2620 -0.3381
 1113SOL    HW2 4451   6.718   9.693   9.148  0.5146  0.2362 -0.0043
 1113SOL     MW 4452   6.689   9.772   9.126  0.4357  0.1238 -0.3106
 1114SOL     OW 4453   9.858   9.803   9.604 -0.1302 -0.0333 -0.4403
 1114SOL    HW1 4454   9.770   9.768   9.610  0.0577 -0.3815  0.4106
 1114SOL    HW2 4455   9.914   9.735   9.641  0.4544  0.3338 -0.6309
 1114SOL     MW 4456   9.854   9.790   9.609 -0.0313 -0.0309 -0.3558
 1115SOL     OW 4457   6.295   2.322   1.704 -0.3343  0.5184  0.4638
 1115SOL    HW1 4458   6.273   2.283   1.789 -0.7741  1.7493  0.9302
 1115SOL    HW2 4459   6.253   2.408   1.706 -0.6833  0.4039 -1.1716
 1115SOL     MW 4460   6.287   2.328   1.715 -0.4353  0.6613  0.3141
 1116SOL     OW 4461   8.316   9.226   2.428 -0.2789  0.0927  0.1720
 1116SOL    HW1 4462   8.244   9.289   2.432 -0.0592  0.2965  2.4196
 1116SOL    HW2 4463   8.395   9.279   2.425 -0.1564 -0.1337 -1.4544
 1116SOL     MW 4464   8.317   9.241   2.428 -0.2351  0.0898  0.2516
 1117SOL     OW 4465   0.260   4.606   0.143  0.8141  0.0853 -0.5147
 1117SOL    HW1 4466   0.232   4.541   0.078 -0.7050 -1.4424  1.5319
 1117SOL    HW2 4467   0.320   4.558   0.200 -0.1832  0.4902  0.9216
 1117SOL     MW 4468   0.264   4.591   0.142  0.4920 -0.0585 -0.0688
 1118SOL     OW 4469   7.945   0.065   1.560 -0.0615  0.1289  0.2982
 1118SOL    HW1 4470   7.877   0.007   1.525  1.7644 -1.5421 -0.7236
 1118SOL    HW2 4471   8.026   0.015   1.549  1.2489  1.7039  2.2163
 1118SOL     MW 4472   7.946   0.051   1.554  0.3400  0.1166  0.4129
 1119SOL     OW 4473   7.613   8.219   9.922  0.4648  0.0217  0.2593
 1119SOL    HW1 4474   7.678   8.258   9.864 -0.9440  0.5790 -1.0098
 1119SOL    HW2 4475   7.582   8.292   9.975 -0.3298  0.1377 -0.3396
 1119SOL     MW 4476   7.617   8.233   9.921  0.1827  0.1078  0.0202
 1120SOL     OW 4477  10.081   6.850   1.750  0.1496 -0.7543  0.2580
 1120SOL    HW1 4478  10.047   6.883   1.833  1.9110 -1.0524  1.1345
 1120SOL    HW2 4479  10.102   6.929   1.700 -1.6767 -0.5617 -0.2875
 1120SOL     MW 4480  10.079   6.864   1.754  0.1413 -0.7678  0.3004
 1121SOL     OW 4481   8.431   6.906   0.963  0.8572 -0.5667 -0.3384
 1121SOL    HW1 4482   8.491   6.915   0.888 -0.6728  0.8057 -1.4565
 1121SOL    HW2 4483   8.351   6.871   0.924  0.3936 -0.8626  0.8669
 1121SOL     MW 4484   8.429   6.902   0.948  0.6020 -0.4289 -0.3273
 1122SOL     OW 4485  10.110   0.734   0.991 -0.2618  0.1357 -0.2672
 1122SOL    HW1 4486  10.205   0.729   1.003 -0.4152 -0.5211  0.7790
 1122SOL    HW2 4487  10.080   0.791   1.061 -0.7458 -0.4815  0.0362
 1122SOL     MW 4488  10.119   0.741   1.002 -0.3434 -0.0274 -0.0944
 1123SOL     OW 4489   7.236   9.142   9.532 -0.0894  0.6305  0.2895
 1123SOL    HW1 4490   7.213   9.050   9.542  1.0696  0.4483  1.5522
 1123SOL    HW2 4491   7.305   9.157   9.596  0.0500  2.2801 -0.1899
 1123SOL     MW 4492   7.242   9.132   9.541  0.0768  0.8183  0.3898
 1124SOL     OW 4493   9.731   5.107   1.744 -0.6981 -0.1730  0.0433
 1124SOL    HW1 4494   9.733   5.093   1.838 -1.3687  0.4217  0.1525
 1124SOL    HW2 4495   9.758   5.198   1.732  0.7247 -0.6402 -0.4459
 1124SOL     MW 4496   9.734   5.117   1.754 -0.6018 -0.1567 -0.0054
 1125SOL     OW 4497   7.807   3.354   0.906  0.1747 -0.8760  0.5648
 1125SOL    HW1 4498   7.886   3.360   0.960 -1.5541 -2.0279  3.3887
 1125SOL    HW2 4499   7.818   3.273   0.857  0.6043 -1.2069  1.1947
 1125SOL     MW 4500   7.819   3.344   0.906  0.0084 -1.0658  1.0069
 1126SOL     OW 4501   7.663  10.153   8.832 -0.1858 -0.1039 -0.1362
 1126SOL    HW1 4502   7.734  10.089   8.840  0.0720  0.1437 -0.4532
 1126SOL    HW2 4503   7.696  10.231   8.877 -0.8329 -0.4565  1.0131
 1126SOL     MW 4504   7.676  10.155   8.839 -0.2356 -0.1173 -0.0296
 1127SOL     OW 4505   9.210   1.598   0.762 -0.7985 -0.4384  0.5082
 1127SOL    HW1 4506   9.219   1.502   0.762  1.6472 -0.2686 -0.2424
 1127SOL    HW2 4507   9.245   1.624   0.847  0.7922 -0.1023 -0.2127
 1127SOL     MW 4508   9.216   1.589   0.773 -0.2818 -0.3737  0.3198
 1128SOL     OW 4509   8.166   0.340   2.326 -0.2237  0.4380 -0.6251
 1128SOL    HW1 4510   8.076   0.373   2.317 -0.2682  0.2541 -0.8406
 1128SOL    HW2 4511   8.215   0.416   2.358 -0.7286  0.1762  0.8526
 1128SOL     MW 4512   8.161   0.354   2.329 -0.2940  0.3809 -0.4635
 1129SOL     OW 4513   9.654   3.555   1.048  0.1612 -0.2361 -0.1288
 1129SOL    HW1 4514   9.709   3.611   1.102 -1.0648  1.4534 -0.5670
 1129SOL    HW2 4515   9.714   3.515   0.986  1.1324  0.2261  0.4874
 1129SOL     MW 4516   9.669   3.557   1.047  0.1286  0.0394 -0.1060
 1130SOL     OW 4517   9.119   1.443   9.112  0.1569  0.2664 -0.1196
 1130SOL    HW1 4518   9.191   1.412   9.058 -0.6873  1.7319 -2.1891
 1130SOL    HW2 4519   9.162   1.497   9.179  1.0678  0.2015 -0.6286
 1130SOL     MW 4520   9.134   1.446   9.114  0.1654  0.4457 -0.4497
 1131SOL     OW 4521   7.298   5.975   1.127  0.5284  0.2852 -0.4002
 1131SOL    HW1 4522   7.322   5.896   1.080 -0.2505 -1.5123  1.9922
 1131SOL    HW2 4523   7.369   5.987   1.191 -0.1771  0.4929  0.3716
 1131SOL     MW 4524   7.310   5.966   1.129  0.3383  0.0817  0.0048
 1132SOL     OW 4525   8.093   9.780   3.476  0.5289 -0.2945 -0.1819
 1132SOL    HW1 4526   8.058   9.756   3.562  0.8953  2.1425  0.7347
 1132SOL    HW2 4527   8.024   9.758   3.414 -1.3647  1.3438  1.2113
 1132SOL     MW 4528   8.080   9.774   3.479  0.3334  0.2272  0.1138
 1133SOL     OW 4529   8.214   0.813  10.128 -0.1083  0.6120 -0.0469
 1133SOL    HW1 4530   8.140   0.874  10.120 -0.5193  0.1279  0.0269
 1133SOL    HW2 4531   8.209   0.782  10.219 -0.4601 -0.2350 -0.3488
 1133SOL     MW 4532   8.204   0.817  10.139 -0.2060  0.4416 -0.0761
 1134SOL     OW 4533   7.548   7.079   0.888 -0.8333 -0.2166 -0.5761
 1134SOL    HW1 4534   7.578   7.110   0.803 -0.2208  2.2142  0.4237
 1134SOL    HW2 4535   7.457   7.107   0.893 -1.8111 -2.9089 -1.4905
 1134SOL     MW 4536   7.540   7.086   0.878 -0.8801 -0.2501 -0.5652
 1135SOL     OW 4537   8.218   7.783   9.090  0.7217 -0.2280 -0.1546
 1135SOL    HW1 4538   8.151   7.829   9.040  0.4754  0.6642  0.9497
 1135SOL    HW2 4539   8.299   7.830   9.072  1.0500 -1.1989 -1.3489
 1135SOL     MW 4540   8.220   7.795   9.081  0.7322 -0.2380 -0.1661
 1136SOL     OW 4541   7.660   8.135   9.580 -0.6535 -0.6847  0.2303
 1136SOL    HW1 4542   7.601   8.098   9.645 -0.0792 -0.7615  0.7225
 1136SOL    HW2 4543   7.718   8.062   9.557 -0.4862 -0.5008  0.0703
 1136SOL     MW 4544   7.660   8.121   9.585 -0.5586 -0.6710  0.2728
 1137SOL     OW 4545   8.290   4.819   0.688  0.1773 -0.2472  1.0437
 1137SOL    HW1 4546   8.278   4.912   0.669 -0.7404 -0.5798 -0.1788
 1137SOL    HW2 4547   8.377   4.799   0.654  0.7608  0.3319  2.1232
 1137SOL     MW 4548   8.299   4.829   0.681  0.1345 -0.2157  1.0254
 1138SOL     OW 4549   6.993   0.725   9.083  0.7902  0.5144 -1.0143
 1138SOL    HW1 4550   7.074   0.775   9.069  0.8619  0.6762 -0.0918
 1138SOL    HW2 4551   7.003   0.687   9.170 -0.0418  0.3668 -0.9728
 1138SOL     MW 4552   7.005   0.726   9.093  0.6929  0.5162 -0.8909
 1139SOL     OW 4553   6.424   3.057   0.996  0.0095 -0.1407 -0.2680
 1139SOL    HW1 4554   6.385   2.976   0.963 -0.1026  0.8384 -2.8102
 1139SOL    HW2 4555   6.351   3.106   1.034 -0.1096 -0.7952  0.3527
 1139SOL     MW 4556   6.410   3.053   0.996 -0.0201 -0.0991 -0.5139
 1140SOL     OW 4557   6.994   3.310   9.443 -0.5098  0.1607 -0.1055
 1140SOL    HW1 4558   6.970   3.252   9.515  0.4217 -0.4342 -0.2577
 1140SOL    HW2 4559   6.972   3.398   9.475 -0.0517 -0.0877  0.9381
 1140SOL     MW 4560   6.988   3.314   9.456 -0.3319  0.0527  0.0086
 1141SOL     OW 4561   6.872   7.012   2.413 -0.1822 -0.3281 -0.5251
 1141SOL    HW1 4562   6.874   7.103   2.441  0.1376  0.0052 -1.6040
 1141SOL    HW2 4563   6.874   6.962   2.495  0.6099  0.6121  0.0514
 1141SOL     MW 4564   6.873   7.017   2.427 -0.0399 -0.1651 -0.5894
 1142SOL     OW 4565   9.941   1.897   1.323 -0.0569  0.2021 -0.1047
 1142SOL    HW1 4566   9.914   1.976   1.369  0.1357 -0.5266  1.3265
 1142SOL    HW2 4567   9.866   1.872   1.270 -0.1165  1.3308 -0.5729
 1142SOL     MW 4568   9.928   1.904   1.322 -0.0399  0.2533  0.0186
 1143SOL     OW 4569   7.919   9.252   2.212  0.3637 -0.6424 -0.5930
 1143SOL    HW1 4570   7.936   9.201   2.291  0.5922  0.1377 -0.1227
 1143SOL    HW2 4571   8.006   9.270   2.176  0.3121 -0.1959 -0.4976
 1143SOL     MW 4572   7.932   9.248   2.218  0.3864 -0.4854 -0.5206
 1144SOL     OW 4573   6.557   8.364   1.740  0.3636  0.7154 -0.0018
 1144SOL    HW1 4574   6.649   8.369   1.715 -0.0103 -0.2326 -1.6743
 1144SOL    HW2 4575   6.509   8.356   1.658 -1.1104 -0.2684  0.8997
 1144SOL     MW 4576   6.563   8.364   1.727  0.1270  0.4681 -0.1005
 1145SOL     OW 4577   6.839   5.035   0.473  0.1216 -0.1797  0.0911
 1145SOL    HW1 4578   6.779   5.034   0.548  1.1132  0.0294  0.9112
 1145SOL    HW2 4579   6.923   5.007   0.509  0.4126 -0.9829 -1.1477
 1145SOL     MW 4580   6.842   5.031   0.487  0.2858 -0.2557  0.0375
 1146SOL     OW 4581   7.277   3.249   1.428 -0.4017  0.1134  0.3447
 1146SOL    HW1 4582   7.262   3.176   1.488  0.1431 -0.4926 -0.2331
 1146SOL    HW2 4583   7.337   3.307   1.474  1.3044 -1.1384 -0.1825
 1146SOL     MW 4584   7.283   3.247   1.441 -0.1135 -0.1244  0.2032
 1147SOL     OW 4585   6.755   2.576   1.421 -0.3758  0.0538 -0.3437
 1147SOL    HW1 4586   6.683   2.586   1.359  0.3702  0.4917 -1.1523
 1147SOL    HW2 4587   6.831   2.554   1.368  0.0289 -0.7880  0.5362
 1147SOL     MW 4588   6.755   2.574   1.406 -0.2285  0.0021 -0.3345
 1148SOL     OW 4589   8.002   4.149   0.141 -0.0332  0.0545  0.2935
 1148SOL    HW1 4590   7.998   4.109   0.228 -0.2709 -0.1482  0.1914
 1148SOL    HW2 4591   7.911   4.150   0.111  0.0131  0.3793  0.1611
 1148SOL     MW 4592   7.990   4.144   0.148 -0.0577  0.0701  0.2635
 1149SOL     OW 4593   6.964   1.741   1.720 -0.0250 -0.0221 -0.1740
 1149SOL    HW1 4594   6.993   1.693   1.798  1.2702 -0.2536 -0.7717
 1149SOL    HW2 4595   7.023   1.816   1.716 -1.4235  1.1211  0.2099
 1149SOL     MW 4596   6.975   1.744   1.730 -0.0382  0.0946 -0.2014
 1150SOL     OW 4597   9.516   1.540   9.388 -0.4834 -0.0003 -0.6362
 1150SOL    HW1 4598   9.510   1.445   9.399 -3.8956  0.0381 -1.3100
 1150SOL    HW2 4599   9.545   1.572   9.474 -0.4187 -1.5539 -0.0405
 1150SOL     MW 4600   9.519   1.532   9.401 -0.9120 -0.1942 -0.6462
 1151SOL     OW 4601   6.173   9.357   1.151  0.4034  0.5165 -0.0034
 1151SOL    HW1 4602   6.183   9.305   1.072  0.9211 -0.8172  0.9149
 1151SOL    HW2 4603   6.261   9.392   1.167  0.3932  0.4378  0.2194
 1151SOL     MW 4604   6.186   9.355   1.143  0.4684  0.3357  0.1427
 1152SOL     OW 4605   7.056   0.612   9.317  0.5310 -0.0385 -0.4885
 1152SOL    HW1 4606   7.144   0.578   9.299  1.2111 -0.0028  2.4119
 1152SOL    HW2 4607   7.004   0.536   9.339 -0.3085 -0.0815 -2.3684
 1152SOL     MW 4608   7.061   0.598   9.317  0.5106 -0.0394 -0.3579
 1153SOL     OW 4609   9.569   2.362   1.602 -0.4947 -0.0318  0.5254
 1153SOL    HW1 4610   9.618   2.280   1.599 -0.0901  0.2242 -0.3038
 1153SOL    HW2 4611   9.577   2.392   1.692 -0.9337 -1.0693  0.9267
 1153SOL     MW 4612   9.576   2.355   1.613 -0.4991 -0.1319  0.4707
 1154SOL     OW 4613   6.050   4.946   1.090 -0.4570  0.1374  0.1363
 1154SOL    HW1 4614   6.051   5.015   1.156  0.2601 -0.8749  1.2291
 1154SOL    HW2 4615   6.006   4.985   1.015  0.1206  1.8379  0.6400
 1154SOL     MW 4616   6.044   4.960   1.089 -0.2912  0.2255  0.3407
 1155SOL     OW 4617   6.900   3.606   0.299  0.5648 -0.0351  0.0692
 1155SOL    HW1 4618   6.903   3.540   0.368  0.7440 -0.6578 -0.5239
 1155SOL    HW2 4619   6.949   3.680   0.334 -0.1462  0.0225  0.9770
 1155SOL     MW 4620   6.906   3.607   0.312  0.4968 -0.1074  0.1095
 1156SOL     OW 4621   9.446   1.231   9.492 -0.1317  0.3115 -0.8749
 1156SOL    HW1 4622   9.352   1.245   9.477 -0.6011 -0.5488  0.9874
 1156SOL    HW2 4623   9.457   1.136   9.493  0.4273  0.3586  0.5209
 1156SOL     MW 4624   9.435   1.221   9.491 -0.1203  0.2074 -0.4578
 1157SOL     OW 4625   9.569   0.127   1.706  1.1141 -0.0104  0.0209
 1157SOL    HW1 4626   9.539   0.079   1.629  0.8162  1.7321 -1.0059
 1157SOL    HW2 4627   9.500   0.114   1.771  0.4946 -0.0519 -0.6303
 1157SOL     MW 4628   9.556   0.119   1.704  0.9967  0.2073 -0.1939
 1158SOL     OW 4629   7.944   4.223   9.751 -0.2514  0.4334 -0.0102
 1158SOL    HW1 4630   7.899   4.238   9.668 -1.2368  2.3434  0.8058
 1158SOL    HW2 4631   7.874   4.223   9.816  0.6111 -0.0269  0.9542
 1158SOL     MW 4632   7.929   4.225   9.749 -0.2671  0.6190  0.2177
 1159SOL     OW 4633   6.826   0.860   9.259  0.1236 -0.4517 -0.2905
 1159SOL    HW1 4634   6.785   0.803   9.324  0.6768 -0.3041  0.2030
 1159SOL    HW2 4635   6.861   0.801   9.193  1.2941 -0.7565  0.5638
 1159SOL     MW 4636   6.826   0.845   9.259  0.3443 -0.4718 -0.1180
 1160SOL     OW 4637   8.863   3.777   2.793  0.7225  0.0522 -0.3807
 1160SOL    HW1 4638   8.806   3.828   2.851 -0.0183 -0.9095 -0.2298
 1160SOL    HW2 4639   8.906   3.843   2.737  0.4633  0.8897  0.3858
 1160SOL     MW 4640   8.861   3.792   2.793  0.5945  0.0363 -0.2633
 1161SOL     OW 4641   7.199   9.645   2.163 -0.3949 -0.0496  0.0329
 1161SOL    HW1 4642   7.128   9.662   2.225  1.0074  2.5736  1.0798
 1161SOL    HW2 4643   7.227   9.556   2.183 -1.3236 -0.0024  1.7647
 1161SOL     MW 4644   7.193   9.636   2.174 -0.3343  0.2922  0.3886
 1162SOL     OW 4645   7.941   6.734   2.057  0.2107 -0.3314 -0.1632
 1162SOL    HW1 4646   8.036   6.744   2.047  0.0751 -0.3671 -1.6541
 1162SOL    HW2 4647   7.931   6.668   2.126  1.2494 -0.0520  0.2768
 1162SOL     MW 4648   7.952   6.727   2.065  0.3263 -0.3002 -0.2977
 1163SOL     OW 4649   8.409   3.906   1.767  0.1110 -0.5227 -0.9784
 1163SOL    HW1 4650   8.402   3.884   1.674 -1.1393 -2.1135 -0.5432
 1163SOL    HW2 4651   8.366   3.991   1.775 -2.4253 -1.6852 -1.4273
 1163SOL     MW 4652   8.403   3.914   1.756 -0.3737 -0.8751 -0.9802
 1164SOL     OW 4653   7.935   9.660   3.234  0.7082  0.2281  1.0490
 1164SOL    HW1 4654   7.871   9.589   3.233  0.5553  0.3666  1.1240
 1164SOL    HW2 4655   7.906   9.720   3.166  0.3464  0.6612  1.5844
 1164SOL     MW 4656   7.923   9.659   3.225  0.6423  0.3013  1.1272
 1165SOL     OW 4657   0.165   9.927   0.288  0.2343 -0.5009 -0.5832
 1165SOL    HW1 4658   0.089   9.935   0.345  0.2876 -0.3688 -0.5326
 1165SOL    HW2 4659   0.180  10.015   0.253 -0.7018 -0.8510 -1.9537
 1165SOL     MW 4660   0.157   9.939   0.291  0.1213 -0.5288 -0.7522
 1166SOL     OW 4661   8.008   0.646   9.226 -0.0606  0.8629 -0.3291
 1166SOL    HW1 4662   8.088   0.698   9.236 -0.2204  1.9144 -3.5711
 1166SOL    HW2 4663   7.949   0.702   9.177 -1.3430 -1.3330 -1.4393
 1166SOL     MW 4664   8.011   0.660   9.221 -0.2452  0.7164 -0.8863
 1167SOL     OW 4665   7.738   2.613   1.432  0.0960 -0.1509  0.2874
 1167SOL    HW1 4666   7.779   2.538   1.389  0.3393 -0.2655  0.7138
 1167SOL    HW2 4667   7.782   2.690   1.394  0.0382 -0.2335  0.0513
 1167SOL     MW 4668   7.749   2.613   1.422  0.1197 -0.1761  0.3117
 1168SOL     OW 4669   8.606   2.252   0.511 -0.3441 -0.2004  0.0979
 1168SOL    HW1 4670   8.608   2.344   0.538  0.5250 -0.0656 -0.4085
 1168SOL    HW2 4671   8.552   2.252   0.432 -0.9787 -0.2504  0.5214
 1168SOL     MW 4672   8.599   2.264   0.504 -0.3141 -0.1895  0.0873
 1169SOL     OW 4673   9.542   6.706   1.554 -0.8256 -0.3054  0.2376
 1169SOL    HW1 4674   9.531   6.767   1.627 -2.6079 -0.0833 -0.1751
 1169SOL    HW2 4675   9.586   6.758   1.486 -1.9167  0.4128  0.0591
 1169SOL     MW 4676   9.546   6.721   1.555 -1.1934 -0.1850  0.1619
 1170SOL     OW 4677   7.289   8.143   1.692 -0.0287 -0.4092 -0.2750
 1170SOL    HW1 4678   7.317   8.051   1.687  1.7169  0.0698  0.3816
 1170SOL    HW2 4679   7.312   8.179   1.606 -0.3994 -0.4792 -0.4081
 1170SOL     MW 4680   7.295   8.136   1.680  0.1473 -0.3568 -0.2080
 1171SOL     OW 4681   8.717   4.889   2.512 -0.3053 -0.0143 -0.1359
 1171SOL    HW1 4682   8.718   4.978   2.548 -1.9610  0.0701 -0.2202
 1171SOL    HW2 4683   8.771   4.894   2.434  0.8734  0.5323  0.6995
 1171SOL     MW 4684   8.724   4.901   2.507 -0.3664  0.0665 -0.0397
 1172SOL     OW 4685   9.341   9.089   9.516 -0.5667  0.3035  0.2531
 1172SOL    HW1 4686   9.250   9.073   9.492 -0.2679  0.9815 -1.5098
 1172SOL    HW2 4687   9.392   9.036   9.455  0.2340  0.6460  0.6014
 1172SOL     MW 4688   9.336   9.080   9.505 -0.4260  0.4341  0.0720
 1173SOL     OW 4689   8.046   3.371  10.047 -0.1883  0.2832  0.2522
 1173SOL    HW1 4690   8.015   3.443   9.992  2.5173  1.9160  0.6741
 1173SOL    HW2 4691   8.045   3.408  10.136  1.5542 -0.0176  0.4335
 1173SOL     MW 4692   8.042   3.385  10.051  0.3811  0.4537  0.3294
 1174SOL     OW 4693  10.060   1.470   1.899 -0.0522 -0.4340 -0.0547
 1174SOL    HW1 4694  10.103   1.512   1.825 -1.0211  0.0130 -0.3849
 1174SOL    HW2 4695  10.124   1.406   1.932  0.9642  0.4268 -0.3161
 1174SOL     MW 4696  10.074   1.467   1.894 -0.0461 -0.2665 -0.1304
 1175SOL     OW 4697   7.337   4.854   1.395  0.0488  0.0966  0.4087
 1175SOL    HW1 4698   7.256   4.840   1.443  0.6727 -1.5117  1.0631
 1175SOL    HW2 4699   7.399   4.885   1.461  0.4423 -0.4203  0.2883
 1175SOL     MW 4700   7.335   4.857   1.409  0.1790 -0.1754  0.4771
 1176SOL     OW 4701   6.291   9.000   0.771 -0.3521 -0.2165  0.4052
 1176SOL    HW1 4702   6.328   8.915   0.795  1.9491  0.1023 -1.6142
 1176SOL    HW2 4703   6.230   8.980   0.700  0.8658 -0.1437 -0.6913
 1176SOL     MW 4704   6.288   8.987   0.765  0.0984 -0.1664  0.0063
 1177SOL     OW 4705   7.930   1.691   2.710  0.3416  0.8331  0.7848
 1177SOL    HW1 4706   8.005   1.745   2.736  0.9852 -0.6660  2.2524
 1177SOL    HW2 4707   7.907   1.643   2.790 -1.0369 -0.0700 -0.1243
 1177SOL     MW 4708   7.937   1.692   2.724  0.2475  0.5256  0.8563
 1178SOL     OW 4709   6.785   1.602   1.573 -0.5919  0.1238  0.7080
 1178SOL    HW1 4710   6.831   1.521   1.552 -2.2898 -0.6100 -0.3860
 1178SOL    HW2 4711   6.850   1.656   1.618  1.1782 -1.0354 -0.3628
 1178SOL     MW 4712   6.799   1.599   1.576 -0.5827 -0.1185  0.4309
 1179SOL     OW 4713   9.561   8.197  10.137  0.1888  0.5297 -0.0011
 1179SOL    HW1 4714   9.534   8.201  10.045 -0.8610  1.7976  0.3304
 1179SOL    HW2 4715   9.541   8.107  10.163 -0.1083  0.3399 -0.8341
 1179SOL     MW 4716   9.555   8.186  10.128  0.0164  0.6677 -0.0653
 1180SOL     OW 4717   7.268   6.713   1.553  0.0743  0.1276 -1.0046
 1180SOL    HW1 4718   7.361   6.706   1.574 -0.1366  1.7406  0.7599
 1180SOL    HW2 4719   7.229   6.635   1.594 -0.0583  2.2788  3.6869
 1180SOL     MW 4720   7.275   6.702   1.561  0.0303  0.6094 -0.1782
 1181SOL     OW 4721   8.809   1.518   1.056 -0.0886 -0.2840 -0.0621
 1181SOL    HW1 4722   8.808   1.509   1.151 -0.6416  0.7829  0.0414
 1181SOL    HW2 4723   8.726   1.481   1.027 -0.3460  0.2704 -0.0401
 1181SOL     MW 4724   8.798   1.512   1.064 -0.1923 -0.0765 -0.0460
 1182SOL     OW 4725   9.416   6.516   1.916  0.0505 -0.3852 -0.3793
 1182SOL    HW1 4726   9.499   6.513   1.965 -0.5254  1.6682  0.8486
 1182SOL    HW2 4727   9.384   6.605   1.928 -3.5179 -1.6823  1.2114
 1182SOL     MW 4728   9.422   6.527   1.924 -0.4800 -0.2884 -0.0185
 1183SOL     OW 4729   6.201  10.091   0.345  0.1226  0.0735  1.0053
 1183SOL    HW1 4730   6.207  10.091   0.249  0.4224 -0.4334  1.0225
 1183SOL    HW2 4731   6.167  10.177   0.367  0.3087  0.2896  0.4534
 1183SOL     MW 4732   6.198  10.102   0.336  0.1848  0.0363  0.9369
 1184SOL     OW 4733   8.887   8.098   2.312  0.0577  0.5105  0.5611
 1184SOL    HW1 4734   8.950   8.034   2.280 -0.9545 -0.5169  0.5445
 1184SOL    HW2 4735   8.900   8.099   2.407 -0.3595 -0.2381  0.6384
 1184SOL     MW 4736   8.896   8.090   2.320 -0.1253  0.2832  0.5689
 1185SOL     OW 4737   9.288   8.676   0.544 -0.0270 -0.2503  0.0871
 1185SOL    HW1 4738   9.225   8.692   0.473 -0.1877 -1.6298 -0.1047
 1185SOL    HW2 4739   9.237   8.632   0.612 -0.1098  1.9015  1.5230
 1185SOL     MW 4740   9.273   8.672   0.544 -0.0582 -0.1514  0.2464
 1186SOL     OW 4741   9.325   6.710   9.728  0.1423 -0.2837  0.1332
 1186SOL    HW1 4742   9.295   6.798   9.750  2.6482  0.5825  0.4036
 1186SOL    HW2 4743   9.301   6.658   9.805 -1.6792  0.0169 -0.1727
 1186SOL     MW 4744   9.318   6.715   9.741  0.2299 -0.1343  0.1287
 1187SOL     OW 4745   8.057   0.028   3.382 -0.7523  0.9745  0.4045
 1187SOL    HW1 4746   8.047   0.123   3.373  0.2344  1.0534  0.0060
 1187SOL    HW2 4747   8.078   0.015   3.474  1.8209  1.4466 -0.0346
 1187SOL     MW 4748   8.058   0.038   3.392 -0.2966  1.0450  0.2973
 1188SOL     OW 4749   9.463   8.866   0.204  0.0915 -0.2851  0.0669
 1188SOL    HW1 4750   9.407   8.919   0.262  0.5861 -0.9685  1.2179
 1188SOL    HW2 4751   9.552   8.888   0.233  0.3086 -1.4847  0.3426
 1188SOL     MW 4752   9.468   8.876   0.215  0.1826 -0.5262  0.2495
 1189SOL     OW 4753   8.745   7.395   0.337  0.0385  0.0656  0.4302
 1189SOL    HW1 4754   8.765   7.486   0.315  0.0988 -0.0158  0.1304
 1189SOL    HW2 4755   8.703   7.399   0.422 -1.5290  0.5421 -0.3184
 1189SOL     MW 4756   8.742   7.407   0.345 -0.1545  0.1161  0.2960
 1190SOL     OW 4757   9.807   2.420   1.966  0.4907  0.3543  0.4713
 1190SOL    HW1 4758   9.885   2.432   1.912  1.1844  0.7771  1.5089
 1190SOL    HW2 4759   9.787   2.327   1.960  0.2863  0.4681 -0.8327
 1190SOL     MW 4760   9.815   2.410   1.959  0.5533  0.4230  0.4372
 1191SOL     OW 4761   7.603   7.480   0.679  0.0968  0.3827  0.0644
 1191SOL    HW1 4762   7.583   7.397   0.636  0.4537  1.0732 -1.5068
 1191SOL    HW2 4763   7.541   7.486   0.752  0.1749 -1.3118  0.2981
 1191SOL     MW 4764   7.593   7.470   0.683  0.1525  0.2542 -0.1068
 1192SOL     OW 4765   9.037   3.079   2.693 -0.3925 -0.2577  0.1212
 1192SOL    HW1 4766   9.103   3.024   2.651 -0.0233 -0.0930  0.4694
 1192SOL    HW2 4767   9.029   3.043   2.782 -0.8722 -0.3606  0.0376
 1192SOL     MW 4768   9.045   3.067   2.699 -0.4066 -0.2498  0.1551
 1193SOL     OW 4769   7.909   2.903   9.125 -0.2589 -0.1652  0.0022
 1193SOL    HW1 4770   7.824   2.947   9.131  0.2587  0.7503  0.8011
 1193SOL    HW2 4771   7.970   2.961   9.170  0.5883 -1.3524  0.4497
 1193SOL     MW 4772   7.906   2.916   9.132 -0.0842 -0.2000  0.1618
 1194SOL     OW 4773   8.301   7.957   9.826  0.3684  0.6538 -0.4398
 1194SOL    HW1 4774   8.332   7.908   9.902 -0.1272  0.5824 -0.2755
 1194SOL    HW2 4775   8.248   8.028   9.863  0.1815  0.6590 -0.7135
 1194SOL     MW 4776   8.298   7.960   9.841  0.2810  0.6453 -0.4538
 1195SOL     OW 4777   9.094   9.706   1.300 -0.6952 -0.0783  0.6186
 1195SOL    HW1 4778   9.055   9.623   1.327 -0.8019  0.5473  2.5447
 1195SOL    HW2 4779   9.083   9.708   1.205 -1.2978 -1.9441  0.6104
 1195SOL     MW 4780   9.087   9.696   1.291 -0.7860 -0.2370  0.8641
 1196SOL     OW 4781   9.385   7.682   2.763 -0.1916 -0.2847  0.3138
 1196SOL    HW1 4782   9.470   7.693   2.720 -0.6938 -1.1731 -0.9727
 1196SOL    HW2 4783   9.361   7.591   2.746 -1.8607  0.2167 -0.1992
 1196SOL     MW 4784   9.393   7.672   2.756 -0.4695 -0.3342  0.0835
 1197SOL     OW 4785   6.689   5.818   1.789 -0.0758  0.0013  0.4998
 1197SOL    HW1 4786   6.648   5.903   1.804 -1.2637 -0.9878  3.5722
 1197SOL    HW2 4787   6.740   5.830   1.709 -0.5915  3.4252  0.5392
 1197SOL     MW 4788   6.690   5.831   1.781 -0.2939  0.3130  0.8981
 1198SOL     OW 4789   9.265   1.821   2.328 -0.1396 -0.0079 -0.3413
 1198SOL    HW1 4790   9.300   1.865   2.251 -1.6752  0.2122 -0.9487
 1198SOL    HW2 4791   9.231   1.738   2.296  1.2765 -0.9620  0.5261
 1198SOL     MW 4792   9.265   1.816   2.314 -0.1549 -0.1018 -0.3080
 1199SOL     OW 4793   7.311   2.610   9.676  0.1303 -0.1088  0.1469
 1199SOL    HW1 4794   7.262   2.588   9.597  0.8461  0.0766 -0.3556
 1199SOL    HW2 4795   7.372   2.678   9.648  1.2681 -0.9346  0.5586
 1199SOL     MW 4796   7.312   2.616   9.662  0.3676 -0.1908  0.1353
 1200SOL     OW 4797   8.764   5.204   9.344  0.0122  0.3988  0.0410
 1200SOL    HW1 4798   8.823   5.128   9.345 -0.9260 -0.3709 -1.0901
 1200SOL    HW2 4799   8.786   5.250   9.263  1.1705  1.8633  1.1273
 1200SOL     MW 4800   8.775   5.200   9.334  0.0404  0.4877  0.0353
 1201SOL     OW 4801   8.371   0.754   2.870 -0.6811  0.3024  0.5229
 1201SOL    HW1 4802   8.422   0.798   2.938 -0.6628 -0.5735  1.0869
 1201SOL    HW2 4803   8.436   0.719   2.810 -0.7136  2.5704 -0.9612
 1201SOL     MW 4804   8.386   0.755   2.871 -0.6829  0.4806  0.4051
 1202SOL     OW 4805   6.469   9.390   0.696  0.0300 -0.4019 -0.1862
 1202SOL    HW1 4806   6.497   9.310   0.741 -0.0608  1.1139  2.8492
 1202SOL    HW2 4807   6.540   9.453   0.712 -1.2428  0.9975  0.2139
 1202SOL     MW 4808   6.482   9.388   0.704 -0.1446 -0.0288  0.2536
 1203SOL     OW 4809   8.107   3.233   0.536 -0.1556  0.3788  0.2565
 1203SOL    HW1 4810   8.109   3.185   0.619  2.0107  0.0896  0.0988
 1203SOL    HW2 4811   8.022   3.275   0.535 -0.3163  0.2576  2.5586
 1203SOL     MW 4812   8.097   3.232   0.547  0.1012  0.3263  0.5310
 1204SOL     OW 4813   8.472   6.050   0.643  0.0808 -0.4076 -0.7916
 1204SOL    HW1 4814   8.515   6.004   0.571  0.5240 -0.5183 -0.4602
 1204SOL    HW2 4815   8.543   6.094   0.690  0.1285 -2.1725  0.9307
 1204SOL     MW 4816   8.486   6.050   0.640  0.1436 -0.6477 -0.5287
 1205SOL     OW 4817   6.189   9.244   0.866 -0.2929  0.7077 -0.4416
 1205SOL    HW1 4818   6.207   9.161   0.822 -1.6048 -0.4044  1.0430
 1205SOL    HW2 4819   6.195   9.309   0.796 -0.6982 -0.7957 -1.9409
 1205SOL     MW 4820   6.192   9.242   0.851 -0.5127  0.3729 -0.4435
 1206SOL     OW 4821   8.950   8.763   2.698 -0.7774  0.1446  0.2369
 1206SOL    HW1 4822   8.991   8.685   2.737 -0.4809  0.1120 -0.1354
 1206SOL    HW2 4823   8.968   8.756   2.604  1.2627  1.8091  0.4316
 1206SOL     MW 4824   8.958   8.752   2.691 -0.4783  0.3535  0.2142
 1207SOL     OW 4825   8.100   1.060   9.354 -0.3025  0.0282 -0.0275
 1207SOL    HW1 4826   8.128   1.130   9.413 -0.5638 -0.8308  1.1423
 1207SOL    HW2 4827   8.090   1.103   9.269  1.6006  0.9785  0.1809
 1207SOL     MW 4828   8.102   1.075   9.351 -0.0923  0.0399  0.1489
 1208SOL     OW 4829   9.571   6.667   1.191  0.1239  0.5359  0.4632
 1208SOL    HW1 4830   9.519   6.608   1.246 -1.2655  1.6478  0.3957
 1208SOL    HW2 4831   9.600   6.611   1.118 -1.9956  0.1081 -0.1244
 1208SOL     MW 4832   9.568   6.652   1.188 -0.3253  0.6235  0.3794
 1209SOL     OW 4833   7.175   1.665   9.572  0.0567  0.1013 -0.2522
 1209SOL    HW1 4834   7.139   1.746   9.609 -0.5628  0.1430 -0.9342
 1209SOL    HW2 4835   7.122   1.648   9.494  0.5818 -0.6293 -0.4618
 1209SOL     MW 4836   7.164   1.674   9.567  0.0446  0.0131 -0.3663
 1210SOL     OW 4837   8.002   0.819   0.196 -0.1650 -0.2721 -0.3991
 1210SOL    HW1 4838   8.004   0.903   0.242  2.3392 -0.6922  0.4051
 1210SOL    HW2 4839   7.941   0.766   0.248 -1.0876  0.7504 -0.3989
 1210SOL     MW 4840   7.994   0.823   0.209  0.0375 -0.1950 -0.2962
 1211SOL     OW 4841   7.471   4.787   0.257  0.0988  0.1938  0.6420
 1211SOL    HW1 4842   7.420   4.706   0.269  0.9352 -0.4252  0.1063
 1211SOL    HW2 4843   7.508   4.778   0.170  1.5952  0.3724  1.2429
 1211SOL     MW 4844   7.469   4.775   0.247  0.3974  0.1375  0.6503
 1212SOL     OW 4845   8.983   6.014   9.653 -0.6986 -0.2872 -0.3276
 1212SOL    HW1 4846   8.994   6.022   9.558  0.4744 -0.4783 -0.2191
 1212SOL    HW2 4847   8.970   5.920   9.668 -1.5051 -0.1865 -0.3481
 1212SOL     MW 4848   8.983   6.003   9.643 -0.6517 -0.2988 -0.3163
 1213SOL     OW 4849   7.819   3.373   2.423 -0.2867  0.2817  0.4916
 1213SOL    HW1 4850   7.745   3.363   2.483 -0.7975  1.3924  0.0812
 1213SOL    HW2 4851   7.783   3.419   2.348  0.5182 -0.4217 -0.3517
 1213SOL     MW 4852   7.805   3.378   2.421 -0.2491  0.3338  0.3311
 1214SOL     OW 4853   9.660   4.968   0.127 -0.4818 -0.7799 -0.6459
 1214SOL    HW1 4854   9.685   4.919   0.205 -0.4500 -1.3166 -0.9904
 1214SOL    HW2 4855   9.731   5.031   0.114 -1.0621  0.1467  0.4505
 1214SOL     MW 4856   9.672   4.970   0.135 -0.5520 -0.7300 -0.5497
 1215SOL     OW 4857   8.792   0.786   2.249 -0.1093 -0.4350 -0.0901
 1215SOL    HW1 4858   8.712   0.781   2.197 -1.5170  1.7528  1.6685
 1215SOL    HW2 4859   8.806   0.697   2.281 -1.6681 -0.9163 -0.6826
 1215SOL     MW 4860   8.784   0.774   2.246 -0.4890 -0.2165  0.0592
 1216SOL     OW 4861   7.461   1.809   0.461  0.0797 -0.4900 -0.2754
 1216SOL    HW1 4862   7.431   1.808   0.552  0.1603 -1.3211 -0.2476
 1216SOL    HW2 4863   7.522   1.735   0.456 -1.0446 -1.3666 -1.3808
 1216SOL     MW 4864   7.465   1.799   0.472 -0.0539 -0.7086 -0.4134
 1217SOL     OW 4865   9.084   6.482   9.382  0.3087  0.4556 -0.0240
 1217SOL    HW1 4866   9.069   6.488   9.477 -0.3547 -0.5760 -0.0356
 1217SOL    HW2 4867   8.996   6.469   9.346  0.4347  1.9316 -0.8989
 1217SOL     MW 4868   9.071   6.481   9.390  0.2399  0.5125 -0.1375
 1218SOL     OW 4869   9.139   3.098   0.534  0.7191  0.1271  0.3288
 1218SOL    HW1 4870   9.184   3.158   0.593 -0.3560  1.1585  0.1182
 1218SOL    HW2 4871   9.052   3.136   0.521 -0.5963 -2.2472  1.4348
 1218SOL     MW 4872   9.133   3.110   0.540  0.4131 -0.0448  0.4434
 1219SOL     OW 4873   9.588   0.783   2.546  0.1244  0.0005  0.3588
 1219SOL    HW1 4874   9.515   0.725   2.524  0.1668  0.7709 -2.1569
 1219SOL    HW2 4875   9.666   0.733   2.523  0.1809  0.7638 -1.2508
 1219SOL     MW 4876   9.589   0.769   2.540  0.1370  0.1969 -0.1693
 1220SOL     OW 4877  10.039   7.899   1.827  0.0161  0.1792 -0.4522
 1220SOL    HW1 4878  10.121   7.935   1.793  0.0610  0.3674 -0.1526
 1220SOL    HW2 4879  10.066   7.830   1.887 -0.0476  0.1557 -0.4505
 1220SOL     MW 4880  10.053   7.895   1.831  0.0137  0.2002 -0.4136
 1221SOL     OW 4881   7.804   8.535   1.516  0.1453 -0.3225 -0.3735
 1221SOL    HW1 4882   7.812   8.489   1.433 -1.0626 -0.2975 -0.5236
 1221SOL    HW2 4883   7.881   8.592   1.520 -1.6078  2.6297 -3.3599
 1221SOL     MW 4884   7.815   8.536   1.506 -0.2337  0.0586 -0.7750
 1222SOL     OW 4885   0.233   6.196  10.044  0.0025  0.0891  0.2478
 1222SOL    HW1 4886   0.158   6.236   9.999 -1.3652 -0.5855  1.8049
 1222SOL    HW2 4887   0.270   6.267  10.095 -0.9650 -0.0416  1.1720
 1222SOL     MW 4888   0.228   6.210  10.045 -0.2965 -0.0140  0.5654
 1223SOL     OW 4889   8.938   9.898   2.023 -0.5649  0.1608  0.1684
 1223SOL    HW1 4890   8.893   9.920   1.942 -0.1456  0.8823  0.1186
 1223SOL    HW2 4891   8.886   9.939   2.092 -0.5023  0.1947  0.1953
 1223SOL     MW 4892   8.926   9.906   2.021 -0.5032  0.2575  0.1655
 1224SOL     OW 4893   8.315   9.207   2.947  0.4984  0.1491  0.0958
 1224SOL    HW1 4894   8.229   9.216   2.905 -0.9678  0.5646  2.9713
 1224SOL    HW2 4895   8.343   9.118   2.926 -1.0626 -0.3181 -0.1475
 1224SOL     MW 4896   8.307   9.197   2.939  0.1109  0.1425  0.4328
 1225SOL     OW 4897   9.199   1.542   2.625 -0.1690  0.4824  0.4664
 1225SOL    HW1 4898   9.154   1.469   2.668  0.6453 -0.8392 -0.8340
 1225SOL    HW2 4899   9.283   1.506   2.598  1.1291  2.5077  1.5826
 1225SOL     MW 4900   9.204   1.528   2.627  0.1014  0.5725  0.4428
 1226SOL     OW 4901   7.324   3.154   1.172  0.0601 -0.0265  0.4217
 1226SOL    HW1 4902   7.316   3.190   1.261 -0.4923  0.8596  0.0273
 1226SOL    HW2 4903   7.412   3.118   1.169 -0.4627 -1.5924  1.8761
 1226SOL     MW 4904   7.334   3.154   1.183 -0.0775 -0.1135  0.5574
 1227SOL     OW 4905   9.603   0.942   0.770 -0.3956 -0.5778  0.5335
 1227SOL    HW1 4906   9.628   1.010   0.707  0.1876 -1.6552 -0.4331
 1227SOL    HW2 4907   9.680   0.931   0.826 -1.4403  1.4978  2.5482
 1227SOL     MW 4908   9.616   0.949   0.769 -0.4547 -0.4500  0.6677
 1228SOL     OW 4909   6.811   0.147   0.686  0.8400  0.5325  0.2012
 1228SOL    HW1 4910   6.860   0.134   0.767 -0.7500  1.7591  1.4300
 1228SOL    HW2 4911   6.724   0.176   0.715 -1.7645 -4.1954 -1.6425
 1228SOL     MW 4912   6.806   0.149   0.700  0.3030  0.0843  0.1225
 1229SOL     OW 4913   7.638   2.025   0.476 -0.1589  0.0249 -0.4716
 1229SOL    HW1 4914   7.563   1.965   0.478 -0.0754 -0.0769  1.6346
 1229SOL    HW2 4915   7.619   2.090   0.544  1.3977  0.3240 -0.2826
 1229SOL     MW 4916   7.626   2.026   0.485  0.0510  0.0501 -0.1778
 1230SOL     OW 4917   9.398   3.874   1.504  0.2231  0.1488 -0.0178
 1230SOL    HW1 4918   9.439   3.818   1.569 -0.1857 -0.3691 -0.2023
 1230SOL    HW2 4919   9.324   3.915   1.549 -0.0781 -0.2328 -0.1594
 1230SOL     MW 4920   9.394   3.872   1.518  0.1322  0.0337 -0.0596
 1231SOL     OW 4921   9.208   2.937   2.560  0.3239  0.4610  0.1877
 1231SOL    HW1 4922   9.219   2.846   2.587 -0.2796  0.1375 -0.6147
 1231SOL    HW2 4923   9.297   2.967   2.542  0.6252  0.3328  1.3675
 1231SOL     MW 4924   9.221   2.929   2.561  0.2852  0.4032  0.2360
 1232SOL     OW 4925   8.529   2.684   2.211  0.9671  0.2579  0.8043
 1232SOL    HW1 4926   8.485   2.602   2.232  1.4999 -0.3038 -0.1855
 1232SOL    HW2 4927   8.473   2.725   2.146  0.5250  0.8576  1.5494
 1232SOL     MW 4928   8.516   2.679   2.205  0.9787  0.2628  0.7730
 1233SOL     OW 4929   8.662   4.209   1.314 -0.2579 -0.5369 -0.1510
 1233SOL    HW1 4930   8.688   4.188   1.225 -0.1414  0.1494 -0.2818
 1233SOL    HW2 4931   8.709   4.290   1.335 -0.0347 -0.8673  0.6481
 1233SOL     MW 4932   8.671   4.217   1.305 -0.2144 -0.4913 -0.0654
 1234SOL     OW 4933   8.841   9.094   9.209  0.1131 -0.3562  0.2916
 1234SOL    HW1 4934   8.765   9.114   9.263 -2.2710 -1.5909 -2.3171
 1234SOL    HW2 4935   8.822   9.135   9.125  1.1874 -2.6001 -1.1518
 1234SOL     MW 4936   8.829   9.102   9.205 -0.0545 -0.8015 -0.2271
 1235SOL     OW 4937   7.946   2.905   9.454  0.2408 -0.0910 -0.2228
 1235SOL    HW1 4938   7.880   2.839   9.474 -1.4508  0.9107 -2.1280
 1235SOL    HW2 4939   8.019   2.855   9.417 -0.8516 -0.9657 -1.2808
 1235SOL     MW 4940   7.947   2.890   9.452 -0.1156 -0.0747 -0.6021
 1236SOL     OW 4941   9.917   6.546   2.263  0.0167  0.5485  0.4157
 1236SOL    HW1 4942   9.969   6.622   2.238  0.7551 -0.2909 -0.7690
 1236SOL    HW2 4943   9.892   6.561   2.354 -0.5431  2.5585 -0.0358
 1236SOL     MW 4944   9.920   6.557   2.271  0.0396  0.6983  0.2062
 1237SOL     OW 4945   0.234   8.902   0.976 -0.2542  0.3438  0.0376
 1237SOL    HW1 4946   0.278   8.986   0.989 -0.3554  0.4726 -0.4386
 1237SOL    HW2 4947   0.306   8.838   0.972 -0.2194  0.2905  1.2227
 1237SOL     MW 4948   0.249   8.904   0.977 -0.2627  0.3535  0.1284
 1238SOL     OW 4949   7.064   8.007   1.169  0.0119  0.4237  0.1522
 1238SOL    HW1 4950   7.140   7.992   1.225 -0.1300 -0.6003  0.0954
 1238SOL    HW2 4951   6.997   7.947   1.203 -0.4049  0.5185 -0.4806
 1238SOL     MW 4952   7.065   7.997   1.181 -0.0596  0.3047  0.0639
 1239SOL     OW 4953   6.868   8.750   2.339 -0.3124 -0.2415  0.3573
 1239SOL    HW1 4954   6.890   8.674   2.393 -1.1986  1.3394  3.1361
 1239SOL    HW2 4955   6.944   8.808   2.346  0.0724 -0.5188 -1.1702
 1239SOL     MW 4956   6.880   8.748   2.347 -0.3766 -0.0746  0.5175
 1240SOL     OW 4957   9.321   3.133   9.678  0.4574  0.0745 -0.6471
 1240SOL    HW1 4958   9.254   3.161   9.741 -0.0157 -0.4101 -0.9196
 1240SOL    HW2 4959   9.393   3.194   9.690  1.0647 -0.9824  1.5202
 1240SOL     MW 4960   9.321   3.144   9.687  0.4746 -0.1228 -0.4045
 1241SOL     OW 4961   8.200   0.640   3.034  0.5747 -0.2097  0.0681
 1241SOL    HW1 4962   8.115   0.630   2.992  0.7104 -1.2528  0.0028
 1241SOL    HW2 4963   8.249   0.699   2.976 -0.1600  0.5631  0.2209
 1241SOL     MW 4964   8.195   0.646   3.021  0.4980 -0.2443  0.0793
 1242SOL     OW 4965   6.554   2.414   1.633 -0.0548  0.2283 -0.6319
 1242SOL    HW1 4966   6.534   2.494   1.584 -0.6106  0.1350 -0.5708
 1242SOL    HW2 4967   6.471   2.391   1.675  0.3436  0.1636  0.1459
 1242SOL     MW 4968   6.541   2.421   1.632 -0.0750  0.2081 -0.5246
 1243SOL     OW 4969   8.494   2.380   2.232  0.2086  0.3654 -0.0321
 1243SOL    HW1 4970   8.432   2.308   2.223  0.5091  0.2828 -1.9748
 1243SOL    HW2 4971   8.574   2.338   2.265 -0.4019  0.2829  1.3884
 1243SOL     MW 4972   8.497   2.365   2.235  0.1689  0.3443 -0.0990
 1244SOL     OW 4973   8.668   4.307   2.772  0.4748 -0.1251  0.0252
 1244SOL    HW1 4974   8.622   4.317   2.689  2.0995  1.2299 -0.7839
 1244SOL    HW2 4975   8.662   4.393   2.813  0.4364 -0.5420  0.9066
 1244SOL     MW 4976   8.662   4.319   2.766  0.6779 -0.0050  0.0344
 1245SOL     OW 4977   8.659   6.377   2.907 -0.3300  0.1373  0.2482
 1245SOL    HW1 4978   8.681   6.442   2.841 -1.4074 -0.7423 -1.0371
 1245SOL    HW2 4979   8.684   6.293   2.867  0.3211 -0.3177  1.5565
 1245SOL     MW 4980   8.665   6.375   2.893 -0.3846 -0.0335  0.2511
 1246SOL     OW 4981   9.616   2.398   9.493  0.2450 -0.2386 -0.1409
 1246SOL    HW1 4982   9.578   2.344   9.424  0.5079  0.9393 -1.2360
 1246SOL    HW2 4983   9.550   2.399   9.562  0.6487 -2.7861  0.3935
 1246SOL     MW 4984   9.603   2.391   9.493  0.3303 -0.4139 -0.2126
 1247SOL     OW 4985   8.821   6.506   9.286 -0.3511  0.3507 -0.5333
 1247SOL    HW1 4986   8.774   6.493   9.368 -0.9062 -0.2949 -0.9414
 1247SOL    HW2 4987   8.757   6.483   9.218  0.6426 -0.8759 -1.1003
 1247SOL     MW 4988   8.806   6.502   9.287 -0.2949  0.1110 -0.6582
 1248SOL     OW 4989   8.110   7.542   2.786 -0.1023  0.4041 -0.1476
 1248SOL    HW1 4990   8.149   7.614   2.835  0.7512  0.6497 -1.1640
 1248SOL    HW2 4991   8.043   7.507   2.845 -1.7978  3.1168 -0.2630
 1248SOL     MW 4992   8.106   7.547   2.800 -0.2101  0.7828 -0.2925
 1249SOL     OW 4993   7.551   1.504   1.278 -0.0235  0.1818  0.1474
 1249SOL    HW1 4994   7.631   1.550   1.253 -0.1205  0.9472  1.1892
 1249SOL    HW2 4995   7.572   1.412   1.266  1.4896  0.2741  1.6167
 1249SOL     MW 4996   7.564   1.498   1.273  0.1578  0.2916  0.4688
 1250SOL     OW 4997   7.925   3.042   8.861 -0.0175 -0.2360 -0.3995
 1250SOL    HW1 4998   7.840   3.036   8.818 -0.5512 -1.0798  0.7312
 1250SOL    HW2 4999   7.917   2.987   8.939  1.2446  0.4604  0.2551
 1250SOL     MW 5000   7.913   3.034   8.865  0.0757 -0.2549 -0.1710
 1251SOL     OW 5001   8.838   1.208   3.052 -0.2171  0.3716 -0.2993
 1251SOL    HW1 5002   8.924   1.223   3.013  0.2321 -0.4951  0.3185
 1251SOL    HW2 5003   8.799   1.139   2.998 -1.0161  1.5336 -1.2690
 1251SOL     MW 5004   8.844   1.201   3.040 -0.2618  0.4094 -0.3443
 1252SOL     OW 5005   8.812   4.812   0.035  0.0037  0.1170 -0.4082
 1252SOL    HW1 5006   8.813   4.725  -0.006 -0.9486 -0.1541  0.1207
 1252SOL    HW2 5007   8.876   4.806   0.106  0.7069  0.1883 -1.0160
 1252SOL     MW 5008   8.821   4.800   0.039 -0.0282  0.0914 -0.4183
 1253SOL     OW 5009   8.218   4.549   2.197 -0.5778 -0.0369  0.2205
 1253SOL    HW1 5010   8.274   4.626   2.197 -0.0534 -0.4202 -0.2035
 1253SOL    HW2 5011   8.193   4.539   2.289  0.6436 -0.2964  0.5392
 1253SOL     MW 5012   8.222   4.558   2.209 -0.3543 -0.1192  0.2070
 1254SOL     OW 5013   0.027   4.076   1.613 -0.4920 -0.3550  0.4549
 1254SOL    HW1 5014   0.055   4.006   1.554 -2.7374 -0.5531 -0.4739
 1254SOL    HW2 5015  -0.017   4.031   1.685 -1.1951  0.0469  0.2841
 1254SOL     MW 5016   0.025   4.061   1.615 -0.8694 -0.3289  0.3142
 1255SOL     OW 5017   8.689   9.711   1.141  0.3935  0.2796  0.5691
 1255SOL    HW1 5018   8.685   9.628   1.189 -2.5161  0.5284  0.8918
 1255SOL    HW2 5019   8.661   9.689   1.052  0.7077  0.7516  0.3477
 1255SOL     MW 5020   8.685   9.698   1.135  0.0613  0.3718  0.5821
 1256SOL     OW 5021   8.094   1.544   3.060  0.1143  0.3685  0.6112
 1256SOL    HW1 5022   8.098   1.469   3.119 -2.6408  1.9700  3.0761
 1256SOL    HW2 5023   8.015   1.529   3.008  0.3512  0.8824  0.1022
 1256SOL     MW 5024   8.085   1.532   3.061 -0.2080  0.6393  0.8616
 1257SOL     OW 5025   7.984   5.586   0.513  0.4517 -0.3016  0.1200
 1257SOL    HW1 5026   8.007   5.536   0.592 -2.3145 -1.4076  0.3629
 1257SOL    HW2 5027   7.938   5.663   0.546  1.9394  0.8518 -0.3814
 1257SOL     MW 5028   7.981   5.589   0.527  0.2881 -0.2955  0.0869
 1258SOL     OW 5029  10.125   6.350   2.154 -0.5157  1.2665 -0.2461
 1258SOL    HW1 5030  10.059   6.398   2.203  0.4194  1.3737  0.9504
 1258SOL    HW2 5031  10.203   6.405   2.157  0.4125 -0.0484  0.6835
 1258SOL     MW 5032  10.127   6.363   2.160 -0.2772  1.1119  0.0261
 1259SOL     OW 5033   8.352   1.221   1.171 -0.2841  0.0614 -0.0297
 1259SOL    HW1 5034   8.333   1.186   1.258 -1.2733  0.0211 -0.2541
 1259SOL    HW2 5035   8.360   1.143   1.116  1.8237  0.0009  0.2789
 1259SOL     MW 5036   8.351   1.206   1.175 -0.1409  0.0485 -0.0189
 1260SOL     OW 5037   8.904   6.928   0.264  0.3297 -0.6630  0.6417
 1260SOL    HW1 5038   8.834   6.986   0.294 -0.0781 -1.6169  1.6314
 1260SOL    HW2 5039   8.983   6.983   0.264 -0.2448  0.1774  0.4338
 1260SOL     MW 5040   8.905   6.943   0.268  0.2040 -0.6775  0.7418
 1261SOL     OW 5041   9.964   4.892   2.631  0.0708  0.6684 -0.1779
 1261SOL    HW1 5042  10.051   4.932   2.630  0.2975  0.2200  0.7923
 1261SOL    HW2 5043   9.903   4.966   2.630  0.4788  1.0136  0.2219
 1261SOL     MW 5044   9.967   4.907   2.631  0.1521  0.6552 -0.0025
 1262SOL     OW 5045   7.590   8.185   8.771 -0.2043 -0.3675 -0.1732
 1262SOL    HW1 5046   7.669   8.240   8.767  0.0455 -0.6434  0.7732
 1262SOL    HW2 5047   7.589   8.151   8.860 -0.0501 -2.3656 -0.8934
 1262SOL     MW 5048   7.600   8.188   8.782 -0.1526 -0.6586 -0.1442
 1263SOL     OW 5049   7.528   8.592   0.654  0.2898  0.0786 -0.3305
 1263SOL    HW1 5050   7.499   8.543   0.731 -0.3321 -0.6408 -0.9993
 1263SOL    HW2 5051   7.583   8.662   0.689  2.2130 -1.7856  0.6093
 1263SOL     MW 5052   7.532   8.594   0.668  0.4563 -0.2522 -0.2958
 1264SOL     OW 5053   6.839   7.857   1.279 -0.8370 -0.0718  0.6101
 1264SOL    HW1 5054   6.844   7.770   1.241  1.0213  0.2566  0.0261
 1264SOL    HW2 5055   6.745   7.873   1.290 -1.2149 -2.0367  0.5296
 1264SOL     MW 5056   6.827   7.848   1.276 -0.6475 -0.2813  0.5251
 1265SOL     OW 5057   7.405   0.210   2.269  0.2485 -0.4475 -0.0771
 1265SOL    HW1 5058   7.318   0.203   2.230  0.1123  0.5168  0.0462
 1265SOL    HW2 5059   7.402   0.290   2.321  1.7586  0.5698 -1.4884
 1265SOL     MW 5060   7.394   0.219   2.271  0.4244 -0.1938 -0.2420
 1266SOL     OW 5061   9.690   8.597   0.971 -0.1728 -0.8251 -0.1444
 1266SOL    HW1 5062   9.654   8.653   0.902 -0.5753 -1.1805 -0.2261
 1266SOL    HW2 5063   9.626   8.526   0.980 -0.8851 -0.0171  1.6112
 1266SOL     MW 5064   9.677   8.595   0.963 -0.3155 -0.7672  0.0699
 1267SOL     OW 5065   9.201   9.127   2.914 -0.0934  0.6690 -0.0120
 1267SOL    HW1 5066   9.146   9.049   2.915  1.0854 -0.1989  0.6264
 1267SOL    HW2 5067   9.155   9.190   2.970 -0.2570 -0.1848  0.8360
 1267SOL     MW 5068   9.188   9.125   2.922  0.0366  0.4486  0.1783
 1268SOL     OW 5069   8.207   5.893   0.356 -0.0924 -0.3650  0.4852
 1268SOL    HW1 5070   8.183   5.828   0.289  1.1807  0.7760 -1.1576
 1268SOL    HW2 5071   8.301   5.883   0.367  0.3701  1.9510 -0.7299
 1268SOL     MW 5072   8.216   5.883   0.349  0.1298  0.0775  0.1194
 1269SOL     OW 5073   6.963   7.117   1.957  0.3482 -0.2110  0.0560
 1269SOL    HW1 5074   6.948   7.162   1.874  2.4154 -0.6504 -0.6372
 1269SOL    HW2 5075   7.042   7.158   1.992 -0.3029 -0.2710  1.6671
 1269SOL     MW 5076   6.971   7.128   1.951  0.5295 -0.2749  0.1735
 1270SOL     OW 5077   7.980   4.405   2.030 -0.6329 -0.1305 -0.0038
 1270SOL    HW1 5078   7.935   4.479   1.989  0.5121  0.5235 -0.1504
 1270SOL    HW2 5079   7.966   4.332   1.971 -0.2052  0.4543 -0.8487
 1270SOL     MW 5080   7.973   4.405   2.017 -0.4316  0.0281 -0.1307
 1271SOL     OW 5081   6.073   0.779   1.500 -0.4785  0.2787  0.1734
 1271SOL    HW1 5082   6.110   0.701   1.539  0.8855  0.0626 -1.4218
 1271SOL    HW2 5083   6.085   0.848   1.566 -1.0906 -0.6731  1.3170
 1271SOL     MW 5084   6.079   0.778   1.513 -0.3822  0.1292  0.1156
 1272SOL     OW 5085   8.617   1.086   0.171  0.5179 -0.8900 -0.3030
 1272SOL    HW1 5086   8.575   1.143   0.235  0.7425  0.0594 -0.9651
 1272SOL    HW2 5087   8.595   1.126   0.086  2.3016 -0.6538 -0.6954
 1272SOL     MW 5088   8.609   1.099   0.168  0.7750 -0.7382 -0.4380
 1273SOL     OW 5089   8.951   7.907   1.354 -0.0008  0.3323  0.5204
 1273SOL    HW1 5090   9.005   7.985   1.337 -1.8156  1.4515 -0.4153
 1273SOL    HW2 5091   8.994   7.837   1.305  0.1691  1.3921 -0.9147
 1273SOL     MW 5092   8.964   7.908   1.345 -0.2113  0.6112  0.2169
 1274SOL     OW 5093   9.991   5.200   9.413  0.3008 -0.0081 -0.0904
 1274SOL    HW1 5094  10.083   5.174   9.411  0.1655 -0.5486  0.5885
 1274SOL    HW2 5095   9.951   5.144   9.479 -0.1294  1.5256  0.9876
 1274SOL     MW 5096   9.998   5.189   9.421  0.2284  0.1190  0.1345
 1275SOL     OW 5097   9.558   2.486   0.771 -0.6489  0.6955  0.2879
 1275SOL    HW1 5098   9.525   2.462   0.685  0.4549 -1.5358  0.4105
 1275SOL    HW2 5099   9.481   2.513   0.821 -1.7774 -1.0109 -0.4695
 1275SOL     MW 5100   9.544   2.486   0.767 -0.6521  0.1915  0.2066
 1276SOL     OW 5101   9.433   0.048  10.039 -0.0200  0.6834 -0.4063
 1276SOL    HW1 5102   9.363   0.058  10.103 -0.6034  1.1836 -1.1158
 1276SOL    HW2 5103   9.391   0.064   9.954 -0.0521 -3.0811 -1.3035
 1276SOL     MW 5104   9.419   0.051  10.036 -0.0988  0.2655 -0.6120
 1277SOL     OW 5105   8.568   7.352   3.200  0.1607  0.0750 -0.0621
 1277SOL    HW1 5106   8.641   7.399   3.159 -0.0311 -0.3343 -0.8872
 1277SOL    HW2 5107   8.573   7.263   3.164  1.3986 -1.0195  2.5420
 1277SOL     MW 5108   8.578   7.346   3.190  0.2946 -0.1175  0.1657
 1278SOL     OW 5109   6.974   5.918   1.910 -0.3610 -0.3072  0.0502
 1278SOL    HW1 5110   6.910   5.985   1.933 -0.2768 -0.4371  0.6854
 1278SOL    HW2 5111   6.934   5.836   1.940 -1.3520 -0.8250 -2.4592
 1278SOL     MW 5112   6.960   5.916   1.917 -0.4771 -0.3901 -0.1897
 1279SOL     OW 5113   8.116   1.372   1.123 -0.0960 -0.0957  0.3316
 1279SOL    HW1 5114   8.142   1.462   1.143  0.8410 -0.5996  1.5092
 1279SOL    HW2 5115   8.195   1.331   1.088  0.5883 -1.3875  3.0903
 1279SOL     MW 5116   8.129   1.379   1.121  0.1116 -0.3256  0.8355
 1280SOL     OW 5117   8.344   4.772   9.736  0.1877 -0.3266  0.1489
 1280SOL    HW1 5118   8.271   4.719   9.704  0.8968 -0.3443 -1.6105
 1280SOL    HW2 5119   8.422   4.722   9.711  0.8241  0.3187  0.7990
 1280SOL     MW 5120   8.345   4.759   9.728  0.3600 -0.2463  0.0069
 1281SOL     OW 5121   6.347   9.426   1.489  0.4500 -0.0321  0.2677
 1281SOL    HW1 5122   6.371   9.517   1.474 -1.5245  0.2412 -1.5513
 1281SOL    HW2 5123   6.424   9.388   1.532  1.6016  2.2742  0.3798
 1281SOL     MW 5124   6.360   9.433   1.493  0.3447  0.2981  0.0492
 1282SOL     OW 5125   8.719   0.899   0.529 -0.2612  0.5144  0.0280
 1282SOL    HW1 5126   8.797   0.844   0.536 -1.1759 -0.9352 -0.5819
 1282SOL    HW2 5127   8.685   0.881   0.442  0.0815  3.0638 -0.7102
 1282SOL     MW 5128   8.725   0.889   0.519 -0.3344  0.6552 -0.1446
 1283SOL     OW 5129   7.935   3.931   2.971  0.1591 -0.4141  0.2178
 1283SOL    HW1 5130   7.944   3.901   2.880 -0.7791 -2.8367  0.8512
 1283SOL    HW2 5131   8.025   3.939   3.002  0.4734 -2.2893 -0.1327
 1283SOL     MW 5132   7.948   3.928   2.963  0.0793 -0.9643  0.2540
 1284SOL     OW 5133   9.102   4.728   1.653  0.1260  0.2790  0.4841
 1284SOL    HW1 5134   9.090   4.811   1.608 -3.1564  0.7574  1.9573
 1284SOL    HW2 5135   9.152   4.750   1.732 -1.7606  1.1480  1.4801
 1284SOL     MW 5136   9.107   4.741   1.658 -0.5357  0.4515  0.8002
 1285SOL     OW 5137  10.175   3.837  10.033  0.2695 -0.3473 -0.2783
 1285SOL    HW1 5138  10.175   3.744  10.008 -1.2541 -0.4363 -0.0585
 1285SOL    HW2 5139  10.114   3.878   9.971  0.3235  0.3551  0.1271
 1285SOL     MW 5140  10.167   3.830  10.022  0.0814 -0.2688 -0.1982
 1286SOL     OW 5141   7.742   7.500   0.263  0.8283  0.3545  0.1375
 1286SOL    HW1 5142   7.736   7.410   0.231  1.7191  0.5130 -0.5021
 1286SOL    HW2 5143   7.769   7.551   0.187  0.4949  1.1428  0.5351
 1286SOL     MW 5144   7.745   7.495   0.249  0.8996  0.4757  0.1065
 1287SOL     OW 5145   8.257   3.741   1.567 -0.1992  0.1499 -0.3234
 1287SOL    HW1 5146   8.251   3.648   1.585 -0.7773  0.2369 -0.0504
 1287SOL    HW2 5147   8.192   3.781   1.624  0.7470  0.8283  0.3188
 1287SOL     MW 5148   8.248   3.735   1.576 -0.1521  0.2479 -0.2063
 1288SOL     OW 5149   7.732   4.730   2.172 -0.6071 -0.0371 -0.1810
 1288SOL    HW1 5150   7.671   4.657   2.160 -0.6766 -0.1512  0.7953
 1288SOL    HW2 5151   7.799   4.717   2.104 -0.3095 -1.3326  0.3306
 1288SOL     MW 5152   7.733   4.719   2.162 -0.5779 -0.2175  0.0095
 1289SOL     OW 5153   0.394   1.894   1.628  0.3858  0.2082 -0.1785
 1289SOL    HW1 5154   0.395   1.987   1.648  1.2045 -0.0356  1.0147
 1289SOL    HW2 5155   0.301   1.869   1.630  0.1215  1.0838 -1.0203
 1289SOL     MW 5156   0.382   1.903   1.631  0.4568  0.2891 -0.1335
 1290SOL     OW 5157   7.078   4.712   1.469 -0.2195 -0.5693 -0.4610
 1290SOL    HW1 5158   7.090   4.657   1.546 -0.8204 -0.0195  0.0315
 1290SOL    HW2 5159   7.015   4.665   1.415 -1.5440  0.1183  0.4501
 1290SOL     MW 5160   7.072   4.699   1.472 -0.4660 -0.4109 -0.2814
 1291SOL     OW 5161   6.158   5.521   1.020 -0.1987  0.3808  0.3695
 1291SOL    HW1 5162   6.222   5.577   0.976 -1.4565  1.3267 -0.3196
 1291SOL    HW2 5163   6.139   5.566   1.103 -1.7976  1.4698 -0.5278
 1291SOL     MW 5164   6.164   5.534   1.025 -0.5644  0.6413  0.1664
 1292SOL     OW 5165   7.114   2.684   1.123  0.1442  0.3895 -0.7292
 1292SOL    HW1 5166   7.140   2.744   1.192 -0.9531  0.2669 -0.2043
 1292SOL    HW2 5167   7.185   2.620   1.119  0.4522  0.6870 -0.0674
 1292SOL     MW 5168   7.127   2.683   1.131  0.0432  0.4119 -0.5773
 1293SOL     OW 5169   7.611   3.397   0.552  0.2918  0.5697 -0.4504
 1293SOL    HW1 5170   7.706   3.397   0.558  0.2358  0.7938  1.0937
 1293SOL    HW2 5171   7.586   3.489   0.564 -0.1607  0.2797  1.1075
 1293SOL     MW 5172   7.620   3.409   0.555  0.2267  0.5613 -0.0533
 1294SOL     OW 5173  -0.005  10.050   0.781 -0.2989 -0.2094  0.2693
 1294SOL    HW1 5174   0.043   9.980   0.826 -0.2412 -0.3909 -0.0696
 1294SOL    HW2 5175   0.052  10.076   0.710  0.2023  1.0216  1.0954
 1294SOL     MW 5176   0.008  10.044   0.778 -0.2274 -0.0750  0.3316
 1295SOL     OW 5177   7.766   3.025   2.889 -0.2695 -0.2786 -0.2301
 1295SOL    HW1 5178   7.841   2.966   2.885  0.2293  0.2021  1.4365
 1295SOL    HW2 5179   7.694   2.974   2.851  0.8082 -0.8309 -1.6450
 1295SOL     MW 5180   7.766   3.011   2.883 -0.0677 -0.2878 -0.1979
 1296SOL     OW 5181   8.694   5.181   2.212 -0.2023  0.0656  0.3738
 1296SOL    HW1 5182   8.765   5.221   2.161 -0.5462 -0.6762 -0.7390
 1296SOL    HW2 5183   8.614   5.220   2.177 -0.3418  1.7980  2.4389
 1296SOL     MW 5184   8.693   5.191   2.201 -0.2642  0.1924  0.4957
 1297SOL     OW 5185   7.045   0.423   2.873  0.0618  0.1835 -0.3786
 1297SOL    HW1 5186   7.023   0.491   2.810  0.1026  0.6096  0.0653
 1297SOL    HW2 5187   7.054   0.343   2.820 -1.1124  0.2815 -0.7627
 1297SOL     MW 5188   7.043   0.421   2.858 -0.0833  0.2506 -0.3709
 1298SOL     OW 5189   0.285   7.209   1.749 -0.2451  0.3686 -0.1002
 1298SOL    HW1 5190   0.315   7.299   1.731 -0.1049  0.0739 -1.4797
 1298SOL    HW2 5191   0.191   7.212   1.732 -0.5712  0.6589  1.6127
 1298SOL     MW 5192   0.277   7.221   1.744 -0.2689  0.3680 -0.0575
 1299SOL     OW 5193   7.305   0.519   1.538  0.0330 -0.2890  0.2980
 1299SOL    HW1 5194   7.346   0.590   1.489 -0.0415  0.5459  1.4195
 1299SOL    HW2 5195   7.310   0.444   1.479 -1.3721  1.0187 -1.5768
 1299SOL     MW 5196   7.311   0.518   1.524 -0.1564 -0.0147  0.2016
 1300SOL     OW 5197  10.038   7.417   0.493  0.3878 -0.3368  0.2098
 1300SOL    HW1 5198   9.990   7.334   0.500 -0.8138 -0.1266 -3.2407
 1300SOL    HW2 5199  10.130   7.391   0.486  0.2437 -1.2063  1.2755
 1300SOL     MW 5200  10.043   7.403   0.493  0.2156 -0.4212 -0.0955
 1301SOL     OW 5201   8.336   4.903   2.725 -0.1610 -0.1529 -0.9116
 1301SOL    HW1 5202   8.329   4.960   2.801 -2.0092  1.5143 -2.2356
 1301SOL    HW2 5203   8.251   4.910   2.681  0.3400 -2.1718 -2.3740
 1301SOL     MW 5204   8.324   4.911   2.729 -0.3335 -0.1979 -1.2683
 1302SOL     OW 5205   8.108   6.143   9.668  0.5663 -0.0039 -0.0146
 1302SOL    HW1 5206   8.103   6.193   9.586  0.9842  0.0076 -0.0328
 1302SOL    HW2 5207   8.056   6.064   9.650 -0.2795  0.5156  0.0874
 1302SOL     MW 5208   8.101   6.139   9.655  0.5115  0.0640 -0.0038
 1303SOL     OW 5209   0.480   1.363   2.015  0.0423  0.1608  0.1485
 1303SOL    HW1 5210   0.409   1.419   2.048  0.4939  1.0097 -0.2654
 1303SOL    HW2 5211   0.489   1.388   1.923  1.4658  0.7439  0.4102
 1303SOL     MW 5212   0.472   1.374   2.008  0.2824  0.3441  0.1290
 1304SOL     OW 5213  10.045   7.506   2.078  0.3738 -0.3424  0.0560
 1304SOL    HW1 5214  10.117   7.561   2.045  1.1360 -0.1605  1.9133
 1304SOL    HW2 5215  10.067   7.490   2.169 -1.6746 -0.7771  0.5247
 1304SOL     MW 5216  10.057   7.511   2.085  0.2091 -0.3747  0.3538
 1305SOL     OW 5217  10.067   0.039   0.026 -0.0045 -0.4606 -0.3111
 1305SOL    HW1 5218  10.030  -0.014   0.096 -0.5111  1.0216  0.5996
 1305SOL    HW2 5219   9.996   0.048  -0.038 -0.6340  0.7787  0.5180
 1305SOL     MW 5220  10.053   0.033   0.027 -0.1499 -0.1122 -0.0884
 1306SOL     OW 5221   9.734   8.125   2.356  0.6292 -0.4388  0.5058
 1306SOL    HW1 5222   9.745   8.218   2.375 -0.0140  0.1099 -1.5068
 1306SOL    HW2 5223   9.801   8.107   2.289 -1.2156 -0.5935 -1.3931
 1306SOL     MW 5224   9.744   8.135   2.350  0.3107 -0.3883  0.0051
 1307SOL     OW 5225   8.520   8.882   2.608 -0.2820 -0.3503 -0.4291
 1307SOL    HW1 5226   8.591   8.933   2.569  0.2973  0.4931  1.6106
 1307SOL    HW2 5227   8.563   8.807   2.649 -0.6224 -0.1364  0.3379
 1307SOL     MW 5228   8.534   8.879   2.608 -0.2514 -0.2150 -0.0698
 1308SOL     OW 5229   9.166   3.718   9.380 -0.4630  0.5846  0.5276
 1308SOL    HW1 5230   9.106   3.772   9.328 -0.6295  1.9559  2.0772
 1308SOL    HW2 5231   9.118   3.637   9.396 -1.4087  1.1658  0.6805
 1308SOL     MW 5232   9.152   3.714   9.375 -0.6054  0.8346  0.7455
 1309SOL     OW 5233   6.864   3.176   9.911  0.4084  0.2151  0.1332
 1309SOL    HW1 5234   6.786   3.122   9.895  1.8994 -1.5265 -1.9146
 1309SOL    HW2 5235   6.868   3.236   9.837  0.5146  0.9146  0.7030
 1309SOL     MW 5236   6.855   3.177   9.900  0.6129  0.0817 -0.0560
 1310SOL     OW 5237   8.301   9.339   9.706  0.5738 -0.4536 -0.0405
 1310SOL    HW1 5238   8.282   9.406   9.772 -0.0821 -0.0119 -0.6670
 1310SOL    HW2 5239   8.217   9.321   9.665  0.6882 -1.8846  0.3103
 1310SOL     MW 5240   8.288   9.346   9.709  0.5045 -0.5802 -0.0758
 1311SOL     OW 5241   7.962   0.297   2.694  0.6703 -0.6282 -0.0162
 1311SOL    HW1 5242   7.950   0.363   2.762  1.1735  0.4403 -0.9162
 1311SOL    HW2 5243   7.874   0.281   2.660  0.6799  0.7184 -0.7747
 1311SOL     MW 5244   7.949   0.304   2.698  0.7360 -0.3191 -0.2285
 1312SOL     OW 5245   9.843   4.261   0.550  0.2093  0.3056  0.1516
 1312SOL    HW1 5246   9.768   4.208   0.522 -0.1543 -0.0443  1.6523
 1312SOL    HW2 5247   9.910   4.245   0.484 -0.3458 -0.9953 -0.1359
 1312SOL     MW 5248   9.842   4.252   0.538  0.0917  0.0943  0.3069
 1313SOL     OW 5249   6.728   4.261   1.211  0.0135  0.1065  0.7257
 1313SOL    HW1 5250   6.656   4.323   1.198 -0.0337 -0.4733 -2.3797
 1313SOL    HW2 5251   6.807   4.313   1.197 -0.0324 -0.4567 -2.3589
 1313SOL     MW 5252   6.729   4.276   1.208  0.0016 -0.0398 -0.0667
 1314SOL     OW 5253   6.441   9.130   1.381  0.0464 -0.4836  0.2561
 1314SOL    HW1 5254   6.411   9.141   1.472  0.0486  0.3075  0.1676
 1314SOL    HW2 5255   6.469   9.039   1.376 -1.3685 -0.9710  0.6353
 1314SOL     MW 5256   6.440   9.120   1.392 -0.1345 -0.4447  0.2933
 1315SOL     OW 5257   7.427  10.042   1.164  0.0100 -0.4787 -0.6938
 1315SOL    HW1 5258   7.521  10.028   1.151  0.1328  0.4229 -0.8336
 1315SOL    HW2 5259   7.399  10.089   1.085 -0.4224 -0.1403 -0.3431
 1315SOL     MW 5260   7.436  10.046   1.152 -0.0297 -0.3200 -0.6668
 1316SOL     OW 5261   0.129   5.426   0.223 -0.2542  0.3801  0.0033
 1316SOL    HW1 5262   0.062   5.473   0.172  1.6800 -0.2464 -3.4086
 1316SOL    HW2 5263   0.188   5.495   0.253  0.7078  0.5314 -2.0643
 1316SOL     MW 5264   0.128   5.441   0.220  0.1166  0.3193 -0.6981
 1317SOL     OW 5265   7.900   0.364   1.807 -0.1536  0.2431 -0.1884
 1317SOL    HW1 5266   7.901   0.268   1.803  0.9463  0.2455 -0.4701
 1317SOL    HW2 5267   7.872   0.391   1.720 -2.0419  0.1922  0.3629
 1317SOL     MW 5268   7.897   0.355   1.795 -0.2545  0.2369 -0.1539
 1318SOL     OW 5269   8.925   4.361   1.145 -0.3570 -0.0141 -0.1595
 1318SOL    HW1 5270   8.983   4.347   1.071  0.1914 -1.8351  0.5530
 1318SOL    HW2 5271   8.841   4.325   1.117 -0.3775  0.0747 -0.2108
 1318SOL     MW 5272   8.922   4.354   1.132 -0.2894 -0.2358 -0.0748
 1319SOL     OW 5273   6.477   0.647   9.950 -0.0093 -0.1753  0.2253
 1319SOL    HW1 5274   6.462   0.564   9.995 -0.7511 -0.0940  0.1435
 1319SOL    HW2 5275   6.517   0.623   9.866  1.8277 -0.3045  1.0837
 1319SOL     MW 5276   6.480   0.633   9.945  0.1309 -0.1814  0.3247
 1320SOL     OW 5277   9.273   9.923   1.568 -0.0556  0.1166 -0.3655
 1320SOL    HW1 5278   9.320   9.849   1.528  1.4425  1.4715 -1.2064
 1320SOL    HW2 5279   9.311   9.932   1.655 -1.4732 -1.1558  0.4427
 1320SOL     MW 5280   9.284   9.915   1.574 -0.0453  0.1272 -0.3697
 1321SOL     OW 5281   9.364   6.381   0.990 -0.3085 -0.2312  0.1184
 1321SOL    HW1 5282   9.402   6.318   1.052  0.3557  1.2059  1.2354
 1321SOL    HW2 5283   9.434   6.444   0.974 -0.7309 -0.1448 -1.5385
 1321SOL     MW 5284   9.378   6.381   0.996 -0.2776 -0.0362  0.0493
 1322SOL     OW 5285   7.444   5.922   0.748 -0.2167  0.3112  0.0796
 1322SOL    HW1 5286   7.429   6.016   0.761 -0.1762  0.1354  1.6153
 1322SOL    HW2 5287   7.531   5.906   0.783 -0.1834 -0.2942 -0.2559
 1322SOL     MW 5288   7.453   5.932   0.754 -0.2073  0.2112  0.2332
 1323SOL     OW 5289   8.167   0.670   1.950 -0.2808 -0.8095  0.9037
 1323SOL    HW1 5290   8.217   0.741   1.912 -1.5251 -0.6147 -0.4490
 1323SOL    HW2 5291   8.081   0.708   1.969 -0.9936 -1.9444  0.0967
 1323SOL     MW 5292   8.162   0.684   1.948 -0.5314 -0.9298  0.6273
 1324SOL     OW 5293   8.191  10.121   9.532 -0.4010  0.4861  0.2457
 1324SOL    HW1 5294   8.209  10.156   9.619  0.5105 -0.8272  0.6269
 1324SOL    HW2 5295   8.259  10.055   9.519 -1.0792  0.0206 -1.0860
 1324SOL     MW 5296   8.202  10.117   9.542 -0.3711  0.2584  0.1240
 1325SOL     OW 5297   0.251   4.138   1.342 -0.4932 -0.5610 -0.5509
 1325SOL    HW1 5298   0.268   4.195   1.267 -1.0604  1.1475  0.5559
 1325SOL    HW2 5299   0.287   4.186   1.417 -1.7871 -1.2148  0.5419
 1325SOL     MW 5300   0.258   4.152   1.342 -0.7314 -0.4260 -0.2693
 1326SOL     OW 5301   6.922   8.825   9.769 -0.0396  0.1595  0.5778
 1326SOL    HW1 5302   6.881   8.826   9.856 -2.1086 -0.2735 -0.3349
 1326SOL    HW2 5303   6.874   8.758   9.721  1.3388  0.1172 -0.7959
 1326SOL     MW 5304   6.911   8.817   9.774 -0.1280  0.0987  0.2851
 1327SOL     OW 5305   8.223   1.664   9.165  0.5127 -0.1606 -0.5156
 1327SOL    HW1 5306   8.246   1.584   9.118  0.6903  0.5884 -1.7478
 1327SOL    HW2 5307   8.306   1.712   9.173  0.4845 -0.2770  0.5727
 1327SOL     MW 5308   8.237   1.660   9.160  0.5318 -0.0796 -0.5340
 1328SOL     OW 5309   7.878   7.435   2.920 -0.2588  0.2872  0.5212
 1328SOL    HW1 5310   7.837   7.510   2.878  0.5303  1.7349  2.2146
 1328SOL    HW2 5311   7.862   7.362   2.860 -1.7220  1.6272 -0.7973
 1328SOL     MW 5312   7.871   7.435   2.907 -0.3451  0.6441  0.5692
 1329SOL     OW 5313   9.066   3.786   2.421  0.2704  1.2154 -0.5121
 1329SOL    HW1 5314   9.134   3.720   2.435  1.0858  2.2810  0.7595
 1329SOL    HW2 5315   9.003   3.743   2.362  1.4566 -0.1901 -0.8183
 1329SOL     MW 5316   9.067   3.772   2.415  0.5266  1.1719 -0.3885
 1330SOL     OW 5317   9.335   7.761   9.501 -0.2592 -0.0679  0.4100
 1330SOL    HW1 5318   9.372   7.849   9.505 -2.3074  0.9189 -0.6638
 1330SOL    HW2 5319   9.375   7.721   9.424 -0.9581  0.7648 -0.4022
 1330SOL     MW 5320   9.345   7.767   9.492 -0.6109  0.1650  0.1685
 1331SOL     OW 5321   9.542   5.620   2.319 -0.0621 -0.3115  0.3496
 1331SOL    HW1 5322   9.596   5.595   2.244 -1.2334 -2.0565  0.0308
 1331SOL    HW2 5323   9.571   5.562   2.390  0.0179  0.3099  0.8383
 1331SOL     MW 5324   9.552   5.609   2.319 -0.2018 -0.4553  0.3714
 1332SOL     OW 5325   5.982   0.223   0.830  0.3950 -0.2867 -0.4244
 1332SOL    HW1 5326   6.070   0.215   0.868  1.0753  0.0855 -1.8672
 1332SOL    HW2 5327   5.923   0.209   0.904  1.6668 -0.2786  0.6270
 1332SOL     MW 5328   5.986   0.220   0.845  0.6449 -0.2380 -0.4745
 1333SOL     OW 5329   8.456   4.866   1.189  0.0956 -0.2957 -0.5001
 1333SOL    HW1 5330   8.446   4.937   1.252 -1.0313 -0.9667  0.1089
 1333SOL    HW2 5331   8.378   4.873   1.133 -0.1671 -1.2138 -0.2642
 1333SOL     MW 5332   8.444   4.876   1.190 -0.0823 -0.4991 -0.3920
 1334SOL     OW 5333   9.588   7.767   2.595  0.4536 -0.3499  0.1927
 1334SOL    HW1 5334   9.555   7.795   2.510  1.8278 -2.2170 -1.0385
 1334SOL    HW2 5335   9.649   7.835   2.622 -0.8243  0.8101  0.2812
 1334SOL     MW 5336   9.591   7.779   2.588  0.4660 -0.4404  0.0464
 1335SOL     OW 5337   9.516   1.803   2.437 -0.4735 -0.2640 -0.0358
 1335SOL    HW1 5338   9.528   1.708   2.438 -1.7946 -0.6633  4.9429
 1335SOL    HW2 5339   9.427   1.815   2.404 -1.5949 -1.2455  2.3400
 1335SOL     MW 5340   9.506   1.792   2.433 -0.7862 -0.4408  0.9057
 1336SOL     OW 5341   9.543   8.352   0.748 -0.1131  0.0174  0.2558
 1336SOL    HW1 5342   9.636   8.330   0.756 -0.4902 -1.4288  1.0678
 1336SOL    HW2 5343   9.523   8.339   0.655  0.5136  0.5085  0.0392
 1336SOL     MW 5344   9.552   8.348   0.737 -0.0811 -0.1049  0.3320
 1337SOL     OW 5345   8.779   6.195   9.949  0.0172 -0.4153  0.6439
 1337SOL    HW1 5346   8.750   6.206   9.858 -0.6575 -0.8162  0.8037
 1337SOL    HW2 5347   8.873   6.213   9.946  0.5011 -2.7832 -0.5940
 1337SOL     MW 5348   8.787   6.199   9.937 -0.0072 -0.7698  0.5059
 1338SOL     OW 5349   8.651   9.269   1.012 -0.3330 -0.3399 -0.4689
 1338SOL    HW1 5350   8.722   9.291   0.951  1.1684 -1.2301  0.8807
 1338SOL    HW2 5351   8.683   9.193   1.060 -1.8315 -0.2015  0.8356
 1338SOL     MW 5352   8.664   9.262   1.010 -0.3326 -0.4361 -0.1291
 1339SOL     OW 5353   8.117   6.983   9.507  0.1156  0.1745 -0.2727
 1339SOL    HW1 5354   8.095   6.893   9.531  2.1427 -0.7443 -1.5825
 1339SOL    HW2 5355   8.074   6.997   9.423  2.1487 -0.6981 -1.5389
 1339SOL     MW 5356   8.108   6.973   9.500  0.6354 -0.0548 -0.6025
 1340SOL     OW 5357   7.395   4.148   0.259 -0.6105 -0.0236  0.0427
 1340SOL    HW1 5358   7.371   4.090   0.331 -0.3160  0.7103  0.7578
 1340SOL    HW2 5359   7.430   4.226   0.303  0.7870 -0.0746 -0.9052
 1340SOL     MW 5360   7.397   4.151   0.274 -0.3939  0.0638  0.0129
 1341SOL     OW 5361   8.668   7.862   9.437 -0.1833 -0.3131 -0.4957
 1341SOL    HW1 5362   8.729   7.868   9.511  0.0031 -1.2193 -0.5641
 1341SOL    HW2 5363   8.589   7.824   9.474  0.4025 -2.1460 -1.0079
 1341SOL     MW 5364   8.666   7.858   9.451 -0.0845 -0.6637 -0.5700
 1342SOL     OW 5365   9.129   5.644   9.517 -0.2162  0.1839  0.3652
 1342SOL    HW1 5366   9.204   5.689   9.556  0.4566  0.4294 -1.1260
 1342SOL    HW2 5367   9.159   5.554   9.505  0.1809  0.4742 -1.0062
 1342SOL     MW 5368   9.142   5.638   9.521 -0.0793  0.2525 -0.0013
 1343SOL     OW 5369   7.071   9.320   9.647  0.0868 -0.2029 -0.3653
 1343SOL    HW1 5370   7.042   9.250   9.706  2.5135 -0.7229  0.2971
 1343SOL    HW2 5371   7.133   9.278   9.588  0.8212  1.1592 -0.6035
 1343SOL     MW 5372   7.075   9.306   9.647  0.4915 -0.0951 -0.3110
 1344SOL     OW 5373   7.412   0.952   1.321  0.1203  0.6980 -0.2205
 1344SOL    HW1 5374   7.332   0.901   1.331  0.5719 -0.0015 -0.1341
 1344SOL    HW2 5375   7.481   0.898   1.361  0.7722  0.9348 -0.9976
 1344SOL     MW 5376   7.411   0.939   1.328  0.2615  0.6387 -0.3089
 1345SOL     OW 5377   7.443   0.223   9.699 -0.6404  0.1950  0.3187
 1345SOL    HW1 5378   7.485   0.139   9.680  1.5415  1.5102 -1.0724
 1345SOL    HW2 5379   7.504   0.268   9.756 -0.1175  2.1159 -1.6404
 1345SOL     MW 5380   7.456   0.218   9.704 -0.2941  0.6092 -0.1101
 1346SOL     OW 5381   6.531   0.299   1.550  0.1014  0.5812  0.6112
 1346SOL    HW1 5382   6.478   0.351   1.611  0.3402  1.1129  0.3688
 1346SOL    HW2 5383   6.613   0.348   1.541  0.5166 -0.0732  0.7369
 1346SOL     MW 5384   6.535   0.312   1.557  0.1851  0.5655  0.5963
 1347SOL     OW 5385   0.334   9.645   9.947 -0.0154 -0.4297 -0.2054
 1347SOL    HW1 5386   0.245   9.610   9.945 -0.3243  0.2509  0.8420
 1347SOL    HW2 5387   0.359   9.653   9.855 -1.4968  0.5009 -0.5674
 1347SOL     MW 5388   0.326   9.642   9.935 -0.2445 -0.2234 -0.1177
 1348SOL     OW 5389   7.802   8.599   9.110  0.1810 -0.1887 -0.1969
 1348SOL    HW1 5390   7.775   8.557   9.192  0.9455  0.6342  0.5012
 1348SOL    HW2 5391   7.777   8.691   9.121  1.0269  0.0907 -0.5294
 1348SOL     MW 5392   7.796   8.605   9.122  0.3872 -0.0476 -0.1501
 1349SOL     OW 5393   9.907   6.348   0.510  0.2820  0.3746 -0.3307
 1349SOL    HW1 5394   9.936   6.398   0.587 -0.3069  0.2091  0.0028
 1349SOL    HW2 5395   9.812   6.347   0.517  0.2203  0.4044 -1.0989
 1349SOL     MW 5396   9.899   6.354   0.521  0.1987  0.3572 -0.3863
 1350SOL     OW 5397   9.781   3.825   0.683  0.0836 -0.1254 -0.3307
 1350SOL    HW1 5398   9.744   3.908   0.654  1.2815  0.6161  0.1896
 1350SOL    HW2 5399   9.829   3.846   0.763  0.7149 -1.2522 -0.3885
 1350SOL     MW 5400   9.782   3.838   0.690  0.3178 -0.1747 -0.2715
 1351SOL     OW 5401   6.494   3.928   1.168 -0.2882  0.2400 -0.1209
 1351SOL    HW1 5402   6.454   3.975   1.095  0.0706  1.4959  0.4787
 1351SOL    HW2 5403   6.443   3.847   1.175  0.3509 -0.4718 -2.4737
 1351SOL     MW 5404   6.483   3.923   1.160 -0.1605  0.3096 -0.3453
 1352SOL     OW 5405  10.081   5.236   0.515 -0.0476 -0.3379 -0.3290
 1352SOL    HW1 5406  10.079   5.189   0.432 -0.9900  0.0638 -0.5401
 1352SOL    HW2 5407  10.082   5.328   0.490  2.1731 -0.1862  0.0681
 1352SOL     MW 5408  10.081   5.242   0.501  0.1160 -0.2671 -0.3052
 1353SOL     OW 5409   7.514   4.080   1.444  0.2681  0.0249  0.3895
 1353SOL    HW1 5410   7.587   4.099   1.385 -0.5138  0.6923 -0.4089
 1353SOL    HW2 5411   7.465   4.010   1.400 -0.9120  1.2492 -0.3405
 1353SOL     MW 5412   7.517   4.074   1.431  0.0169  0.2671  0.1939
 1354SOL     OW 5413  10.086   5.120   0.254  0.0327  0.0011  0.5044
 1354SOL    HW1 5414  10.172   5.154   0.231 -0.1784  0.3363  0.1943
 1354SOL    HW2 5415  10.084   5.031   0.218  1.6995 -1.5456  3.8430
 1354SOL     MW 5416  10.097   5.113   0.246  0.2191 -0.1540  0.8921
 1355SOL     OW 5417   6.642   6.687   2.237  0.3903 -0.4189 -0.0102
 1355SOL    HW1 5418   6.645   6.594   2.214  1.6169 -0.3034 -0.3603
 1355SOL    HW2 5419   6.721   6.702   2.288  0.3957  0.5210 -0.2784
 1355SOL     MW 5420   6.652   6.677   2.240  0.5480 -0.2838 -0.0893
 1356SOL     OW 5421   9.204   5.361   9.457  0.4087  0.4990 -0.2641
 1356SOL    HW1 5422   9.269   5.372   9.526  1.6501  1.3641 -1.5193
 1356SOL    HW2 5423   9.143   5.296   9.492 -0.3382  2.5506  2.5812
 1356SOL     MW 5424   9.205   5.354   9.471  0.4720  0.8724 -0.0606
 1357SOL     OW 5425   7.272   7.483   2.090 -0.2025  0.0780  0.1896
 1357SOL    HW1 5426   7.363   7.474   2.063 -0.0969  0.9934  0.1963
 1357SOL    HW2 5427   7.258   7.578   2.095 -0.7125 -0.0416  1.6520
 1357SOL     MW 5428   7.282   7.494   2.088 -0.2542  0.1798  0.3777
 1358SOL     OW 5429   6.340   6.956   0.357 -0.3901  0.0814 -0.4978
 1358SOL    HW1 5430   6.339   7.043   0.398  0.7745 -0.5181  0.8836
 1358SOL    HW2 5431   6.297   6.899   0.421 -0.4374 -0.5145 -1.0501
 1358SOL     MW 5432   6.334   6.960   0.371 -0.2470 -0.0716 -0.3917
 1359SOL     OW 5433   6.623   8.292   1.992 -0.1161  0.4948  0.0077
 1359SOL    HW1 5434   6.595   8.378   2.024  1.8916  1.4742 -0.6815
 1359SOL    HW2 5435   6.606   8.294   1.898 -1.7730 -0.6157  0.2517
 1359SOL     MW 5436   6.618   8.303   1.984 -0.0712  0.4780 -0.0493
 1360SOL     OW 5437   8.618   1.118   2.878  0.1905  0.7784  0.0680
 1360SOL    HW1 5438   8.566   1.198   2.868  0.3105  0.7965 -0.4757
 1360SOL    HW2 5439   8.624   1.083   2.789 -0.7167 -0.3795  0.4338
 1360SOL     MW 5440   8.612   1.123   2.865  0.0898  0.6325  0.0452
 1361SOL     OW 5441   8.972   1.194   0.417  0.4728 -0.6555 -0.1221
 1361SOL    HW1 5442   8.951   1.180   0.324 -1.6014 -0.6694  0.2899
 1361SOL    HW2 5443   9.017   1.278   0.419 -0.6847  0.0215 -1.0362
 1361SOL     MW 5444   8.975   1.203   0.405  0.0591 -0.5706 -0.1864
 1362SOL     OW 5445   8.883   1.182   0.165  0.0128 -0.2544  0.8532
 1362SOL    HW1 5446   8.942   1.112   0.140  0.6544  0.7479 -0.6234
 1362SOL    HW2 5447   8.796   1.142   0.167  0.3593 -1.0797 -0.0479
 1362SOL     MW 5448   8.879   1.168   0.162  0.1393 -0.2317  0.5488
 1363SOL     OW 5449   9.544   1.907   1.923  0.1353  0.7178 -0.8013
 1363SOL    HW1 5450   9.575   1.849   1.993 -0.4758  0.7243 -0.5214
 1363SOL    HW2 5451   9.465   1.864   1.889 -0.2688  1.3324 -0.6577
 1363SOL     MW 5452   9.538   1.894   1.928  0.0054  0.7973 -0.7471
 1364SOL     OW 5453   9.659   5.660   1.608 -0.0615  0.4968  0.1508
 1364SOL    HW1 5454   9.696   5.733   1.658 -0.6225  2.0968 -1.6403
 1364SOL    HW2 5455   9.734   5.620   1.564 -0.0793  2.4555 -1.8551
 1364SOL     MW 5456   9.673   5.664   1.609 -0.1356  0.9524 -0.3352
 1365SOL     OW 5457   8.003   5.559   0.940  0.0987 -0.6633  0.2337
 1365SOL    HW1 5458   7.968   5.542   1.028 -0.2755  0.0060  0.2180
 1365SOL    HW2 5459   8.027   5.651   0.941  1.5456 -1.0131  0.1187
 1365SOL     MW 5460   8.002   5.568   0.952  0.2360 -0.6224  0.2170
 1366SOL     OW 5461   9.937   7.943   2.241 -0.1471  0.2716 -0.1080
 1366SOL    HW1 5462   9.894   7.866   2.202 -1.2655 -0.0076  1.5587
 1366SOL    HW2 5463   9.967   7.994   2.166 -0.2893 -1.2808 -1.2786
 1366SOL     MW 5464   9.935   7.940   2.226 -0.3085  0.0372 -0.0445
 1367SOL     OW 5465   6.125   5.146   0.557  0.4599 -0.6037 -0.1107
 1367SOL    HW1 5466   6.122   5.071   0.498 -0.0882  0.7635 -1.8953
 1367SOL    HW2 5467   6.185   5.207   0.516 -0.3228  0.6087  0.4735
 1367SOL     MW 5468   6.132   5.145   0.544  0.2896 -0.2734 -0.2644
 1368SOL     OW 5469   9.738   9.167   1.904 -0.1197  0.0511  0.2841
 1368SOL    HW1 5470   9.781   9.252   1.915 -0.4234  0.1568  0.6886
 1368SOL    HW2 5471   9.744   9.149   1.810 -2.5291  1.8294 -0.3030
 1368SOL     MW 5472   9.745   9.176   1.894 -0.4670  0.2923  0.2607
 1369SOL     OW 5473   9.035   8.506   2.856  0.2528 -0.4475 -0.4097
 1369SOL    HW1 5474   9.129   8.493   2.868  0.3457  0.5049 -0.0919
 1369SOL    HW2 5475   8.994   8.443   2.916  0.7095  1.4154  2.0205
 1369SOL     MW 5476   9.041   8.496   2.865  0.3232 -0.0871 -0.0579
 1370SOL     OW 5477   7.940   9.830   1.168  0.0009  0.6706 -0.1730
 1370SOL    HW1 5478   7.881   9.791   1.104 -0.7001  2.7409 -0.8618
 1370SOL    HW2 5479   8.027   9.821   1.129 -0.0200 -0.8935  0.0817
 1370SOL     MW 5480   7.944   9.824   1.155 -0.0915  0.7354 -0.2286
 1371SOL     OW 5481   9.562   9.846   0.546  0.4193  0.7657  0.3983
 1371SOL    HW1 5482   9.615   9.891   0.480  1.8406 -0.6024  0.5427
 1371SOL    HW2 5483   9.526   9.917   0.600  0.7823  1.8172 -0.6870
 1371SOL     MW 5484   9.564   9.861   0.544  0.6477  0.7252  0.2779
 1372SOL     OW 5485   8.124   1.351   1.786 -0.0099  0.0453  0.3575
 1372SOL    HW1 5486   8.191   1.337   1.719 -0.1882  1.7839 -0.2146
 1372SOL    HW2 5487   8.047   1.304   1.753  0.1639  0.1593 -0.2140
 1372SOL     MW 5488   8.123   1.343   1.773 -0.0105  0.2825  0.2111
 1373SOL     OW 5489   8.260   4.813   1.705 -0.0362  0.1466  0.5985
 1373SOL    HW1 5490   8.243   4.741   1.766 -1.1137  0.5368  0.7963
 1373SOL    HW2 5491   8.189   4.876   1.722 -0.8886 -0.0980 -1.6040
 1373SOL     MW 5492   8.248   4.812   1.715 -0.2833  0.1652  0.3419
 1374SOL     OW 5493   0.355   1.681   1.808 -0.1773 -0.3734  0.3317
 1374SOL    HW1 5494   0.309   1.730   1.876  3.2599  0.0636  2.6200
 1374SOL    HW2 5495   0.430   1.736   1.785  0.4885 -1.9306 -1.5068
 1374SOL     MW 5496   0.359   1.694   1.814  0.3479 -0.5168  0.3893
 1375SOL     OW 5497   6.502   8.516   2.136 -0.4764 -0.2809 -0.0342
 1375SOL    HW1 5498   6.520   8.466   2.216 -1.6854  0.4349  0.7122
 1375SOL    HW2 5499   6.572   8.581   2.132 -1.0217  0.3937  1.0550
 1375SOL     MW 5500   6.513   8.518   2.145 -0.7010 -0.1029  0.2008
 1376SOL     OW 5501   9.350   2.434   0.554 -0.1860 -0.0510 -0.1999
 1376SOL    HW1 5502   9.376   2.525   0.544  3.3961 -0.9468 -0.4254
 1376SOL    HW2 5503   9.318   2.408   0.468  0.4524  0.5705 -0.6364
 1376SOL     MW 5504   9.349   2.442   0.542  0.3543 -0.0862 -0.2846
 1377SOL     OW 5505   9.032   6.782   1.767  0.4974  0.5628 -0.3837
 1377SOL    HW1 5506   9.083   6.704   1.744  1.9585  1.6374 -0.9366
 1377SOL    HW2 5507   9.067   6.810   1.851  0.7475  1.2376 -0.7073
 1377SOL     MW 5508   9.043   6.775   1.775  0.7165  0.7868 -0.4959
 1378SOL     OW 5509   7.264   0.819   2.298 -0.1467 -0.9263  0.1308
 1378SOL    HW1 5510   7.237   0.744   2.350 -0.3295 -0.8065  0.2087
 1378SOL    HW2 5511   7.253   0.791   2.207  0.8431 -1.3863  0.1427
 1378SOL     MW 5512   7.259   0.806   2.293 -0.0434 -0.9698  0.1423
 1379SOL     OW 5513   9.495   9.544   1.177  0.4039 -0.3205 -0.3691
 1379SOL    HW1 5514   9.518   9.635   1.161 -2.6151  0.4218 -1.1106
 1379SOL    HW2 5515   9.426   9.548   1.244 -0.7244 -1.9280 -1.3634
 1379SOL     MW 5516   9.489   9.556   1.184 -0.1270 -0.4313 -0.5913
 1380SOL     OW 5517   7.769   4.600   1.126  0.4773 -0.3693 -0.1981
 1380SOL    HW1 5518   7.709   4.672   1.146  3.0691  1.3401  2.0435
 1380SOL    HW2 5519   7.804   4.574   1.211  2.2720 -1.9212 -1.3383
 1380SOL     MW 5520   7.766   4.606   1.140  1.0388 -0.3491 -0.0571
 1381SOL     OW 5521   8.021   7.460   1.215 -0.2304 -0.3215 -0.3217
 1381SOL    HW1 5522   7.974   7.386   1.254 -2.6177  1.4613  0.4714
 1381SOL    HW2 5523   8.104   7.464   1.263  0.1559 -2.6608 -0.6741
 1381SOL     MW 5524   8.025   7.451   1.226 -0.4865 -0.3927 -0.2653
 1382SOL     OW 5525   6.387   7.883   1.689 -0.2996 -0.6712 -0.0335
 1382SOL    HW1 5526   6.370   7.793   1.663 -0.0645 -1.7560  3.1258
 1382SOL    HW2 5527   6.482   7.889   1.696 -0.2216  0.2544 -1.3508
 1382SOL     MW 5528   6.397   7.872   1.687 -0.2595 -0.6916  0.2023
 1383SOL     OW 5529   8.541   8.048   9.776  0.0310  0.3944  0.2222
 1383SOL    HW1 5530   8.531   8.108   9.702 -0.9302  0.0593  0.0705
 1383SOL    HW2 5531   8.456   8.005   9.784  0.1034  0.4685  1.5692
 1383SOL     MW 5532   8.529   8.050   9.767 -0.0828  0.3610  0.3752
 1384SOL     OW 5533   9.475   4.108   9.909  0.0974 -0.6342 -0.2418
 1384SOL    HW1 5534   9.485   4.101  10.004 -1.3559  0.9667  0.0896
 1384SOL    HW2 5535   9.522   4.032   9.874  1.5762 -0.6803  1.6794
 1384SOL     MW 5536   9.482   4.097   9.917  0.1007 -0.4352  0.0466
 1385SOL     OW 5537   8.718   4.503   1.325  0.4321  0.3345  0.5763
 1385SOL    HW1 5538   8.792   4.545   1.370 -0.0711  2.9923 -0.8737
 1385SOL    HW2 5539   8.644   4.561   1.342 -1.2100 -1.8483  1.3208
 1385SOL     MW 5540   8.718   4.516   1.333  0.1575  0.3953  0.4860
 1386SOL     OW 5541   7.081   2.642   0.593  0.2681  0.6159 -0.0385
 1386SOL    HW1 5542   7.144   2.657   0.664 -1.6258 -0.6926  2.0189
 1386SOL    HW2 5543   7.132   2.656   0.513  2.3582  2.6935  1.5261
 1386SOL     MW 5544   7.096   2.646   0.592  0.2932  0.7144  0.4252
 1387SOL     OW 5545   8.968   4.444   9.840 -0.1183 -0.0933 -0.1730
 1387SOL    HW1 5546   8.873   4.442   9.850 -0.1297 -0.8279 -0.3613
 1387SOL    HW2 5547   8.997   4.355   9.863  0.4084 -0.1832 -1.1234
 1387SOL     MW 5548   8.960   4.432   9.844 -0.0524 -0.1989 -0.3188
 1388SOL     OW 5549   7.876   7.608   0.030  0.1094  0.0960 -0.0130
 1388SOL    HW1 5550   7.854   7.693   0.068 -0.4277  0.2452 -0.6296
 1388SOL    HW2 5551   7.965   7.618  -0.004 -0.4788  0.9001 -1.4012
 1388SOL     MW 5552   7.884   7.620   0.030 -0.0346  0.2180 -0.2697
 1389SOL     OW 5553   9.081   9.186   8.907 -0.3174 -0.0630 -0.3276
 1389SOL    HW1 5554   9.066   9.276   8.936 -0.4017  0.2934 -1.4176
 1389SOL    HW2 5555   9.112   9.140   8.985  0.7031  1.1577  0.0268
 1389SOL     MW 5556   9.083   9.191   8.921 -0.1975  0.1389 -0.4217
 1390SOL     OW 5557   6.992   3.932   1.631 -0.5932  0.4324 -0.2018
 1390SOL    HW1 5558   6.950   3.901   1.711 -0.6748  1.0715  0.0125
 1390SOL    HW2 5559   6.922   3.930   1.565 -0.0672 -1.9709 -0.7993
 1390SOL     MW 5560   6.977   3.928   1.633 -0.5363  0.2066 -0.2508
 1391SOL     OW 5561   6.940   8.446   1.967  0.1121 -0.3547 -0.2063
 1391SOL    HW1 5562   6.907   8.356   1.964 -2.2216  0.4549 -1.1938
 1391SOL    HW2 5563   6.866   8.498   1.996  0.3765  1.6336 -2.7346
 1391SOL     MW 5564   6.926   8.441   1.970 -0.1528  0.0035 -0.6564
 1392SOL     OW 5565  10.151   5.582   1.683  0.0620  0.4812  0.5862
 1392SOL    HW1 5566  10.220   5.588   1.618 -1.2645  0.7689 -0.8607
 1392SOL    HW2 5567  10.108   5.668   1.681 -2.1466 -0.5586 -0.7231
 1392SOL     MW 5568  10.154   5.594   1.675 -0.3905  0.3849  0.2334
 1393SOL     OW 5569   7.696   8.856   9.176  0.5477  0.2796 -0.4829
 1393SOL    HW1 5570   7.744   8.915   9.234  0.7788 -0.3888  0.0156
 1393SOL    HW2 5571   7.693   8.903   9.092  2.2820  0.2587 -0.5973
 1393SOL     MW 5572   7.702   8.869   9.173  0.7993  0.1913 -0.4337
 1394SOL     OW 5573   9.663   3.555   2.259 -0.2344  0.0792  0.2188
 1394SOL    HW1 5574   9.648   3.649   2.252 -0.4892 -0.0366 -1.2519
 1394SOL    HW2 5575   9.576   3.516   2.258 -0.1487 -0.1562  1.3257
 1394SOL     MW 5576   9.650   3.562   2.258 -0.2560  0.0343  0.1722
 1395SOL     OW 5577   6.601   4.819   0.898 -0.3337 -0.7235  0.0028
 1395SOL    HW1 5578   6.600   4.852   0.987  1.5577  0.7947 -0.4768
 1395SOL    HW2 5579   6.510   4.792   0.881 -1.6809  2.7148  1.0392
 1395SOL     MW 5580   6.589   4.820   0.907 -0.2640 -0.0890  0.0741
 1396SOL     OW 5581   7.947  10.098   0.042 -0.2174 -0.2868 -0.0084
 1396SOL    HW1 5582   7.984  10.056  -0.036  0.7716  2.1198 -0.9237
 1396SOL    HW2 5583   7.856  10.067   0.046 -0.4827  0.0232 -2.5086
 1396SOL     MW 5584   7.940  10.089   0.033 -0.1247  0.0610 -0.4456
 1397SOL     OW 5585   9.057   0.602   9.381  0.2474 -0.1341  0.2993
 1397SOL    HW1 5586   9.148   0.625   9.399  0.4013  1.5895 -2.1877
 1397SOL    HW2 5587   9.006   0.656   9.441  0.8234  1.5384 -0.6603
 1397SOL     MW 5588   9.062   0.612   9.391  0.3408  0.3007 -0.1419
 1398SOL     OW 5589  10.098   7.444   2.347 -0.2671 -0.0727 -1.0625
 1398SOL    HW1 5590  10.146   7.482   2.421 -1.6617  0.9028 -0.6245
 1398SOL    HW2 5591  10.130   7.354   2.342  0.0393 -0.0916  0.5728
 1398SOL     MW 5592  10.108   7.437   2.356 -0.4064  0.0497 -0.7971
 1399SOL     OW 5593   9.687   8.298   1.316  0.3566  0.4040 -0.3376
 1399SOL    HW1 5594   9.689   8.244   1.395 -0.4803  1.8306  0.6982
 1399SOL    HW2 5595   9.708   8.237   1.245  4.3103 -0.3710  1.2136
 1399SOL     MW 5596   9.690   8.283   1.317  0.7556  0.4874 -0.0064
 1400SOL     OW 5597   7.823   1.215   3.199  0.2338 -0.2707  0.0159
 1400SOL    HW1 5598   7.774   1.154   3.145  0.3211 -0.8931  0.6218
 1400SOL    HW2 5599   7.784   1.300   3.180 -0.0504 -0.5411 -0.6582
 1400SOL     MW 5600   7.812   1.218   3.190  0.2086 -0.3850  0.0072
 1401SOL     OW 5601   8.143   5.954   2.252 -0.3474  0.0710  0.2791
 1401SOL    HW1 5602   8.150   5.864   2.284 -0.0673  0.7516  2.2572
 1401SOL    HW2 5603   8.197   5.956   2.173 -0.0054 -1.3748  0.4573
 1401SOL     MW 5604   8.151   5.943   2.246 -0.2678 -0.0270  0.5551
 1402SOL     OW 5605   8.510   0.310   9.131  0.2715  0.3075 -0.0786
 1402SOL    HW1 5606   8.448   0.373   9.093  0.9519  1.0270 -0.0333
 1402SOL    HW2 5607   8.482   0.225   9.097  0.7340  0.9023 -2.0863
 1402SOL     MW 5608   8.499   0.307   9.121  0.4178  0.4757 -0.3298
 1403SOL     OW 5609   9.675   0.779   1.227 -0.3634 -0.4264  0.0581
 1403SOL    HW1 5610   9.700   0.855   1.280  0.3283 -0.5663 -0.0565
 1403SOL    HW2 5611   9.708   0.704   1.275 -0.0170 -0.5753 -0.4044
 1403SOL     MW 5612   9.682   0.779   1.240 -0.2305 -0.4634 -0.0158
 1404SOL     OW 5613   7.156   3.261   1.828  0.1253  0.1984 -0.1972
 1404SOL    HW1 5614   7.083   3.205   1.799  0.4119 -1.1932  1.5622
 1404SOL    HW2 5615   7.234   3.215   1.799  0.3286  0.7169 -0.4636
 1404SOL     MW 5616   7.156   3.248   1.821  0.1880  0.0867 -0.0061
 1405SOL     OW 5617   8.241   6.699  10.182 -0.5618  0.5427  0.2713
 1405SOL    HW1 5618   8.189   6.766  10.139  1.6144  2.2191  0.0753
 1405SOL    HW2 5619   8.284   6.653  10.110 -0.4262  0.3288  0.4889
 1405SOL     MW 5620   8.240   6.701  10.167 -0.2658  0.7299  0.2741
 1406SOL     OW 5621   7.631   3.854   2.716 -0.3224  0.0187 -0.2953
 1406SOL    HW1 5622   7.543   3.822   2.697 -0.1457 -1.5698  1.3443
 1406SOL    HW2 5623   7.661   3.801   2.790  1.9491  0.6436 -0.6851
 1406SOL     MW 5624   7.624   3.843   2.723 -0.0090 -0.1046 -0.1353
 1407SOL     OW 5625  10.138   1.089   2.037 -0.5137  0.9502  0.0041
 1407SOL    HW1 5626  10.047   1.102   2.012 -0.4266 -1.8732 -2.2457
 1407SOL    HW2 5627  10.137   1.084   2.132 -2.8620  0.0253 -0.0168
 1407SOL     MW 5628  10.126   1.090   2.046 -0.8032  0.4704 -0.2865
 1408SOL     OW 5629   7.530   4.519   2.145 -0.6252 -0.4064 -0.4491
 1408SOL    HW1 5630   7.498   4.512   2.235 -1.2199 -1.2255 -0.7056
 1408SOL    HW2 5631   7.473   4.585   2.105 -3.2041 -2.9560 -1.3442
 1408SOL     MW 5632   7.518   4.526   2.152 -1.0315 -0.8376 -0.5965
 1409SOL     OW 5633   9.180   2.765   1.217 -0.1177 -0.2280 -0.0248
 1409SOL    HW1 5634   9.219   2.725   1.295  0.8116  0.7132  0.0147
 1409SOL    HW2 5635   9.153   2.691   1.163  2.1374 -0.9643 -0.2458
 1409SOL     MW 5636   9.182   2.750   1.220  0.2899 -0.2017 -0.0481
 1410SOL     OW 5637   7.226   7.433   9.282  0.2966  0.5701  0.0979
 1410SOL    HW1 5638   7.276   7.464   9.207  0.1842  1.1953  0.2687
 1410SOL    HW2 5639   7.142   7.479   9.275  0.7965  1.7545  1.3783
 1410SOL     MW 5640   7.222   7.443   9.272  0.3462  0.8018  0.2837
 1411SOL     OW 5641   7.224   6.235   0.293  0.3479  0.0631  0.0521
 1411SOL    HW1 5642   7.234   6.201   0.204 -0.3169 -0.6450  0.2376
 1411SOL    HW2 5643   7.133   6.215   0.316  0.4499  0.4398  0.8043
 1411SOL     MW 5644   7.214   6.228   0.284  0.2758  0.0207  0.1722
 1412SOL     OW 5645   6.369   6.266   1.148 -0.3528 -0.1039 -0.2798
 1412SOL    HW1 5646   6.409   6.198   1.094  0.0690  0.3197 -0.5059
 1412SOL    HW2 5647   6.320   6.320   1.085 -0.0072  0.2865 -0.2120
 1412SOL     MW 5648   6.368   6.264   1.133 -0.2546  0.0003 -0.3001
 1413SOL     OW 5649   7.177   7.375   0.602  0.5427 -0.5679 -0.5360
 1413SOL    HW1 5650   7.195   7.282   0.590 -0.5050 -0.8959  0.2694
 1413SOL    HW2 5651   7.176   7.386   0.697  0.3273  0.1964 -0.6232
 1413SOL     MW 5652   7.179   7.364   0.613  0.3810 -0.5120 -0.4441
 1414SOL     OW 5653   7.012   9.561   2.796 -0.0034 -0.2384  0.4254
 1414SOL    HW1 5654   6.922   9.554   2.766  0.6024  0.9772 -1.9906
 1414SOL    HW2 5655   7.052   9.477   2.772 -0.0138  0.0013 -0.4927
 1414SOL     MW 5656   7.006   9.550   2.789  0.0728 -0.0521 -0.0014
 1415SOL     OW 5657   6.984   2.508   0.163  0.4707  0.1615  0.2159
 1415SOL    HW1 5658   6.938   2.519   0.246  0.0235 -0.5264  0.0629
 1415SOL    HW2 5659   7.074   2.534   0.182  0.3134  0.2540  0.8475
 1415SOL     MW 5660   6.990   2.513   0.176  0.3933  0.0853  0.2772
 1416SOL     OW 5661  -0.028   4.337   1.499  0.3231  0.3089 -0.0447
 1416SOL    HW1 5662   0.054   4.384   1.513  1.5079 -1.6021 -0.1423
 1416SOL    HW2 5663  -0.007   4.246   1.522 -1.8738 -0.1684  0.2301
 1416SOL     MW 5664  -0.015   4.331   1.504  0.1935  0.0031 -0.0221
 1417SOL     OW 5665   9.684   9.237   1.431  0.6336 -0.4486 -0.2520
 1417SOL    HW1 5666   9.702   9.330   1.414  1.2635 -0.6222 -0.5743
 1417SOL    HW2 5667   9.654   9.203   1.347  2.4912 -1.0134 -0.7319
 1417SOL     MW 5668   9.682   9.245   1.418  0.9520 -0.5432 -0.3547
 1418SOL     OW 5669   8.886   9.045   0.578  0.3463 -0.1249  0.1467
 1418SOL    HW1 5670   8.849   9.075   0.496  0.8426 -0.4867 -0.2193
 1418SOL    HW2 5671   8.813   9.047   0.640  0.0187  0.3432 -0.2504
 1418SOL     MW 5672   8.872   9.049   0.576  0.3679 -0.1113  0.0490
 1419SOL     OW 5673   9.486  10.150   1.499  0.4214  0.2746  0.0971
 1419SOL    HW1 5674   9.562  10.137   1.443  0.8312  0.8808  0.5055
 1419SOL    HW2 5675   9.428  10.076   1.478  1.4126 -0.5827  0.2736
 1419SOL     MW 5676   9.488  10.139   1.489  0.6008  0.2425  0.1720
 1420SOL     OW 5677   6.999   0.196   1.584  0.0604 -0.3129 -0.3158
 1420SOL    HW1 5678   6.931   0.136   1.616 -0.6117 -0.5709 -2.1201
 1420SOL    HW2 5679   6.962   0.234   1.504  0.9839  1.5791  0.1009
 1420SOL     MW 5680   6.986   0.193   1.578  0.0926 -0.1038 -0.4934
 1421SOL     OW 5681   7.857   6.972   2.133 -0.0950 -0.2548 -0.0091
 1421SOL    HW1 5682   7.894   6.894   2.092  0.7269 -0.3090  0.8026
 1421SOL    HW2 5683   7.919   7.042   2.112 -1.1462  0.3445 -1.2701
 1421SOL     MW 5684   7.870   6.971   2.125 -0.1244 -0.1850 -0.0666
 1422SOL     OW 5685   7.909   4.865   1.633  0.2343  0.4880 -0.2246
 1422SOL    HW1 5686   7.940   4.933   1.693 -0.7010  0.7733 -0.0338
 1422SOL    HW2 5687   7.960   4.878   1.553  0.6326  0.8968  0.0908
 1422SOL     MW 5688   7.919   4.875   1.630  0.1655  0.5768 -0.1598
 1423SOL     OW 5689   7.831   0.404   1.054  0.5088  0.4519  0.0237
 1423SOL    HW1 5690   7.806   0.313   1.065 -0.6183  0.7766  0.3275
 1423SOL    HW2 5691   7.846   0.414   0.959 -1.0627  0.3503 -0.2549
 1423SOL     MW 5692   7.830   0.394   1.043  0.1634  0.4804  0.0269
 1424SOL     OW 5693   6.375  10.013   0.533 -0.2474  1.0159 -0.0898
 1424SOL    HW1 5694   6.464  10.039   0.556  0.1120  1.9261 -2.3269
 1424SOL    HW2 5695   6.355  10.059   0.452 -1.8795 -1.0163 -0.9628
 1424SOL     MW 5696   6.384  10.022   0.526 -0.4103  0.8722 -0.4880
 1425SOL     OW 5697   7.404   7.798   9.254 -0.1432 -0.2480 -0.4848
 1425SOL    HW1 5698   7.466   7.864   9.222  1.2516 -1.4783 -0.4247
 1425SOL    HW2 5699   7.348   7.846   9.315  1.0266  0.8279 -0.2166
 1425SOL     MW 5700   7.405   7.813   9.258  0.1851 -0.2677 -0.4427
 1426SOL     OW 5701   7.162   6.836   0.033 -0.0453  0.7483 -0.0405
 1426SOL    HW1 5702   7.084   6.891   0.026  0.9936  2.2852 -0.0528
 1426SOL    HW2 5703   7.233   6.891  -0.002  0.7912 -1.1855 -1.5517
 1426SOL     MW 5704   7.161   6.850   0.027  0.1948  0.6975 -0.2355
 1427SOL     OW 5705   8.638   2.924   9.626 -0.4789 -0.4445  0.1584
 1427SOL    HW1 5706   8.616   2.915   9.533  0.1741 -1.1979  0.0702
 1427SOL    HW2 5707   8.733   2.936   9.627 -0.4018 -1.0443  0.7604
 1427SOL     MW 5708   8.647   2.925   9.614 -0.3854 -0.6177  0.2242
 1428SOL     OW 5709   8.340   1.557   9.547 -1.0183 -0.1120 -0.3594
 1428SOL    HW1 5710   8.254   1.594   9.565 -0.5984  0.3527  0.8150
 1428SOL    HW2 5711   8.390   1.630   9.511 -0.6625  0.0396  0.4324
 1428SOL     MW 5712   8.335   1.571   9.544 -0.9190 -0.0331 -0.1077
 1429SOL     OW 5713   9.238   8.775   9.493  0.3329  0.0572 -0.1414
 1429SOL    HW1 5714   9.314   8.750   9.546  1.5031 -1.5010 -2.4028
 1429SOL    HW2 5715   9.271   8.776   9.403 -2.3641 -0.9203 -1.2413
 1429SOL     MW 5716   9.252   8.772   9.488  0.1375 -0.2674 -0.5717
 1430SOL     OW 5717   9.051   9.417   8.670 -0.1106  0.1644 -0.2019
 1430SOL    HW1 5718   8.989   9.373   8.612 -3.2298  1.2114  2.0752
 1430SOL    HW2 5719   9.069   9.352   8.738 -0.4632  0.6014  0.3105
 1430SOL     MW 5720   9.045   9.403   8.671 -0.5550  0.3544  0.1552
 1431SOL     OW 5721   9.830   5.502   0.723 -0.0436  0.9475  0.2428
 1431SOL    HW1 5722   9.743   5.532   0.698 -0.3553 -0.4444 -0.4647
 1431SOL    HW2 5723   9.814   5.419   0.769  0.9487  0.1414 -0.8095
 1431SOL     MW 5724   9.817   5.495   0.726  0.0435  0.6661  0.0176
 1432SOL     OW 5725   9.963   2.299   2.418  0.2594  0.0690  0.0392
 1432SOL    HW1 5726   9.962   2.214   2.463 -0.6253 -0.4104 -0.8684
 1432SOL    HW2 5727   9.981   2.278   2.327 -0.0569  0.8597 -0.2116
 1432SOL     MW 5728   9.966   2.285   2.412  0.1057  0.1088 -0.1091
 1433SOL     OW 5729   8.517   3.263   9.220  0.4231 -0.0298  0.1301
 1433SOL    HW1 5730   8.612   3.266   9.216  0.4400 -0.9365 -0.3669
 1433SOL    HW2 5731   8.487   3.305   9.139  0.3774  0.7803  0.5539
 1433SOL     MW 5732   8.525   3.269   9.209  0.4194 -0.0422  0.1207
 1434SOL     OW 5733   8.753   0.036   0.547  0.1239 -0.0568  0.9090
 1434SOL    HW1 5734   8.801   0.098   0.602  1.1288 -0.7978  0.8863
 1434SOL    HW2 5735   8.739   0.082   0.464  0.4367  0.3088  1.0579
 1434SOL     MW 5736   8.757   0.050   0.544  0.2925 -0.1048  0.9252
 1435SOL     OW 5737   9.330   5.040   0.338 -0.1301  0.7489 -0.3363
 1435SOL    HW1 5738   9.420   5.074   0.339 -0.2069  1.0021  1.4953
 1435SOL    HW2 5739   9.275   5.118   0.328 -0.1995  0.8265  0.5897
 1435SOL     MW 5740   9.335   5.055   0.336 -0.1489  0.7913  0.0167
 1436SOL     OW 5741   8.008   2.362   0.175  0.1902 -0.5905  0.0223
 1436SOL    HW1 5742   7.975   2.295   0.116 -1.9105  1.0152 -0.7493
 1436SOL    HW2 5743   8.012   2.442   0.122  0.4006  0.4106  1.4851
 1436SOL     MW 5744   8.004   2.364   0.161 -0.0518 -0.2568  0.1108
 1437SOL     OW 5745   6.793   9.836   9.463 -0.2806 -0.1165 -0.0922
 1437SOL    HW1 5746   6.858   9.850   9.531 -1.0735  0.2922  0.5929
 1437SOL    HW2 5747   6.710   9.832   9.509 -1.0683  2.0819 -1.1796
 1437SOL     MW 5748   6.791   9.838   9.477 -0.4829  0.2172 -0.1437
 1438SOL     OW 5749   6.496   1.565   0.326 -0.0982 -0.1958  0.1108
 1438SOL    HW1 5750   6.548   1.560   0.245  0.7320  0.7430  0.5711
 1438SOL    HW2 5751   6.408   1.540   0.299 -0.2880  1.9984 -1.5102
 1438SOL     MW 5752   6.491   1.561   0.312 -0.0162  0.2052 -0.0378
 1439SOL     OW 5753   9.751   5.064   2.639  0.3855 -0.2315  0.2313
 1439SOL    HW1 5754   9.692   5.116   2.693 -0.7291 -2.8407  1.7087
 1439SOL    HW2 5755   9.694   5.025   2.573  0.4955 -2.2403  1.2602
 1439SOL     MW 5756   9.736   5.066   2.637  0.2569 -0.8227  0.5521
 1440SOL     OW 5757   8.635   7.444   0.597  0.8142 -0.1888 -0.5392
 1440SOL    HW1 5758   8.681   7.441   0.681 -2.6352  0.4747  1.5682
 1440SOL    HW2 5759   8.593   7.530   0.595  2.4759  0.7079 -4.0639
 1440SOL     MW 5760   8.636   7.454   0.608  0.5854  0.0109 -0.7206
 1441SOL     OW 5761   8.282   9.116   9.472 -0.3638 -0.1898 -0.8383
 1441SOL    HW1 5762   8.218   9.057   9.512  1.1928 -1.0805  0.4818
 1441SOL    HW2 5763   8.324   9.063   9.404 -0.6240  0.2037 -1.3094
 1441SOL     MW 5764   8.279   9.101   9.469 -0.1978 -0.2534 -0.7296
 1442SOL     OW 5765   9.811   9.963   1.681 -0.5520 -0.2280 -0.7242
 1442SOL    HW1 5766   9.903   9.947   1.703 -0.0182  1.0897 -1.8628
 1442SOL    HW2 5767   9.767   9.974   1.766  0.3174 -0.8800 -0.1715
 1442SOL     MW 5768   9.817   9.962   1.695 -0.3724 -0.1428 -0.7992
 1443SOL     OW 5769   7.657   1.068   1.765  0.0564  0.1125  0.5223
 1443SOL    HW1 5770   7.645   0.975   1.747  1.3546 -0.3154  1.6674
 1443SOL    HW2 5771   7.596   1.087   1.836 -0.5979  0.2886 -0.0724
 1443SOL     MW 5772   7.648   1.058   1.772  0.1388  0.0803  0.5928
 1444SOL     OW 5773   6.061   0.936   0.326 -0.0035 -0.0002 -0.0390
 1444SOL    HW1 5774   6.136   0.931   0.385 -0.2393  0.4670  0.2994
 1444SOL    HW2 5775   6.085   0.879   0.253  0.2585 -0.6433  0.5367
 1444SOL     MW 5776   6.074   0.928   0.324 -0.0001 -0.0227  0.0781
 1445SOL     OW 5777   9.549   7.558   1.814  0.5927 -0.0876  0.3599
 1445SOL    HW1 5778   9.505   7.473   1.819 -0.3909  0.4684  1.4905
 1445SOL    HW2 5779   9.522   7.604   1.894  1.6466  1.0375  0.0956
 1445SOL     MW 5780   9.540   7.553   1.825  0.6017  0.1276  0.4708
 1446SOL     OW 5781   7.040   6.674   0.966  0.2190  0.2198  0.2239
 1446SOL    HW1 5782   6.986   6.637   0.896 -0.5024  0.8421  0.4352
 1446SOL    HW2 5783   7.130   6.656   0.939 -0.0320  0.7669 -1.0514
 1446SOL     MW 5784   7.045   6.667   0.953  0.0945  0.3695  0.0877
 1447SOL     OW 5785   7.838   4.020   1.602  0.1836  0.3025 -0.3327
 1447SOL    HW1 5786   7.819   3.950   1.540  1.4442 -0.2145 -0.1833
 1447SOL    HW2 5787   7.763   4.022   1.660  0.9446 -2.3477  0.9089
 1447SOL     MW 5788   7.826   4.012   1.601  0.4424 -0.1029 -0.1546
 1448SOL     OW 5789  10.046   4.147   0.127 -0.2825  0.2984 -0.3283
 1448SOL    HW1 5790  10.006   4.218   0.076 -0.2867 -0.3192 -1.2211
 1448SOL    HW2 5791   9.973   4.089   0.147  0.2468 -1.6368 -3.2807
 1448SOL     MW 5792  10.032   4.149   0.123 -0.2152 -0.0284 -0.8206
 1449SOL     OW 5793   7.097   9.862   9.337  0.3454 -0.2794  0.1108
 1449SOL    HW1 5794   7.127   9.937   9.284  0.0660 -0.2799 -0.0489
 1449SOL    HW2 5795   7.176   9.809   9.350  0.5739  0.1036  0.3258
 1449SOL     MW 5796   7.111   9.865   9.332  0.3389 -0.2304  0.1179
 1450SOL     OW 5797   9.984   2.986   1.689  0.4493  0.4773 -0.7620
 1450SOL    HW1 5798  10.048   2.931   1.644  0.7145  0.6675 -0.6210
 1450SOL    HW2 5799   9.946   3.040   1.620  0.3220  0.2498 -0.8715
 1450SOL     MW 5800   9.987   2.986   1.675  0.4669  0.4725 -0.7580
 1451SOL     OW 5801   8.849   0.720   9.539 -0.3468  0.4848 -0.5016
 1451SOL    HW1 5802   8.870   0.787   9.604 -0.9230 -0.3596  0.5741
 1451SOL    HW2 5803   8.787   0.764   9.480  0.6426  1.4438 -0.8675
 1451SOL     MW 5804   8.844   0.734   9.540 -0.2939  0.4994 -0.4107
 1452SOL     OW 5805   8.835   3.114   0.790 -0.0395 -0.0615 -0.4890
 1452SOL    HW1 5806   8.803   3.143   0.876 -1.0955 -0.1616 -0.8361
 1452SOL    HW2 5807   8.801   3.025   0.780  0.7454 -0.3479 -0.6796
 1452SOL     MW 5808   8.826   3.106   0.800 -0.0742 -0.1109 -0.5578
 1453SOL     OW 5809   8.422   7.700   9.471 -0.0854 -0.0407  0.1294
 1453SOL    HW1 5810   8.406   7.618   9.424 -1.4628  0.3696 -0.1783
 1453SOL    HW2 5811   8.351   7.704   9.535  1.0983 -0.0259  1.4855
 1453SOL     MW 5812   8.411   7.690   9.473 -0.1102  0.0137  0.2636
 1454SOL     OW 5813   7.111   0.496   1.842 -0.1599  0.3355  0.0520
 1454SOL    HW1 5814   7.076   0.585   1.844 -0.4208  0.2535 -0.5401
 1454SOL    HW2 5815   7.047   0.446   1.791  0.2383 -0.0773 -0.0511
 1454SOL     MW 5816   7.099   0.501   1.836 -0.1423  0.2721 -0.0370
 1455SOL     OW 5817   6.224   7.845   1.307  0.7848 -0.2795  0.2222
 1455SOL    HW1 5818   6.303   7.791   1.297  0.6815 -0.0165 -2.6742
 1455SOL    HW2 5819   6.208   7.881   1.220 -0.6729  2.3436  1.4709
 1455SOL     MW 5820   6.232   7.842   1.295  0.5850  0.0899  0.0113
 1456SOL     OW 5821   9.398   1.003   0.935 -0.0409  0.2509  0.1760
 1456SOL    HW1 5822   9.464   0.971   0.874 -0.9181  1.3118 -1.4179
 1456SOL    HW2 5823   9.405   0.946   1.011  1.1289 -1.1074 -0.9037
 1456SOL     MW 5824   9.407   0.992   0.937 -0.0034  0.2128 -0.1663
 1457SOL     OW 5825   8.692   1.917   0.116 -0.1416  0.0501 -0.3500
 1457SOL    HW1 5826   8.680   1.868   0.034 -2.1916 -1.0288  0.5358
 1457SOL    HW2 5827   8.721   1.851   0.179 -1.3125  0.2850  0.4570
 1457SOL     MW 5828   8.694   1.902   0.113 -0.5539 -0.0580 -0.1333
 1458SOL     OW 5829   8.719   5.996   1.555 -0.1198 -0.2754  0.2229
 1458SOL    HW1 5830   8.729   6.044   1.473  1.0950  0.4978  0.7846
 1458SOL    HW2 5831   8.626   5.975   1.560 -0.2022 -0.4435 -1.3887
 1458SOL     MW 5832   8.709   5.999   1.545  0.0252 -0.1979  0.0885
 1459SOL     OW 5833   8.831   3.246   9.531 -0.2236 -0.0643  0.2380
 1459SOL    HW1 5834   8.767   3.264   9.601  0.1090 -1.5499  0.9531
 1459SOL    HW2 5835   8.861   3.157   9.548  2.7249  0.8815  0.4649
 1459SOL     MW 5836   8.827   3.237   9.542  0.1964 -0.1334  0.3586
 1460SOL     OW 5837   0.163   8.952   0.066  0.1435 -0.0528  0.1942
 1460SOL    HW1 5838   0.141   8.871   0.112  0.1549 -0.1549  0.0196
 1460SOL    HW2 5839   0.132   9.021   0.123 -1.6531 -0.1919 -0.5643
 1460SOL     MW 5840   0.156   8.950   0.079 -0.0850 -0.0837  0.0747
 1461SOL     OW 5841   7.352   4.115   2.115 -0.1364 -0.6133  0.4878
 1461SOL    HW1 5842   7.397   4.118   2.199  1.1128 -0.1944 -0.1768
 1461SOL    HW2 5843   7.340   4.207   2.090 -0.1206 -0.7377  0.0097
 1461SOL     MW 5844   7.356   4.127   2.123  0.0255 -0.5756  0.3415
 1462SOL     OW 5845   8.559   4.672   1.950  0.4815  0.6583  0.7356
 1462SOL    HW1 5846   8.636   4.701   1.998  1.5449 -0.8669  0.0436
 1462SOL    HW2 5847   8.537   4.587   1.990 -0.1774  0.5735  0.2056
 1462SOL     MW 5848   8.566   4.665   1.961  0.5333  0.4522  0.5791
 1463SOL     OW 5849   7.017   0.263   9.086 -0.6630 -0.1238 -0.0460
 1463SOL    HW1 5850   6.958   0.289   9.157  1.6580  0.2822  1.8595
 1463SOL    HW2 5851   6.997   0.170   9.071 -3.4090  0.5525 -1.2361
 1463SOL     MW 5852   7.007   0.254   9.093 -0.7174  0.0148  0.0456
 1464SOL     OW 5853   9.485   4.923   1.963 -0.5133  0.2793 -0.3017
 1464SOL    HW1 5854   9.438   4.916   2.046  0.5827  0.9417  0.3992
 1464SOL    HW2 5855   9.557   4.983   1.982 -0.3824  0.6172 -1.8040
 1464SOL     MW 5856   9.488   4.930   1.976 -0.3562  0.4074 -0.4043
 1465SOL     OW 5857   9.092   9.007   2.248 -0.3257  0.4755 -0.1193
 1465SOL    HW1 5858   9.068   9.078   2.188  1.3181 -0.4561 -1.9940
 1465SOL    HW2 5859   9.009   8.978   2.286 -1.2797  1.9251 -1.0140
 1465SOL     MW 5860   9.078   9.012   2.245 -0.2374  0.5418 -0.4738
 1466SOL     OW 5861   8.491   8.370   0.824  0.8019 -0.4665 -0.5153
 1466SOL    HW1 5862   8.540   8.341   0.902  1.1496 -0.2266 -0.6424
 1466SOL    HW2 5863   8.419   8.307   0.817 -0.2714  0.5129  1.0265
 1466SOL     MW 5864   8.488   8.358   0.833  0.7090 -0.3104 -0.3342
 1467SOL     OW 5865   6.418   6.799   0.680  0.5887 -0.0913 -0.0109
 1467SOL    HW1 5866   6.351   6.858   0.714 -0.4148 -1.4664  0.5123
 1467SOL    HW2 5867   6.494   6.855   0.665  0.1134  1.1087  1.7270
 1467SOL     MW 5868   6.419   6.814   0.683  0.3994 -0.1137  0.2786
 1468SOL     OW 5869   9.350   3.184   0.706 -0.3169  0.1095  0.4292
 1468SOL    HW1 5870   9.385   3.273   0.713  0.0881 -0.1526  2.1026
 1468SOL    HW2 5871   9.322   3.162   0.795 -2.1257 -0.7686 -0.2985
 1468SOL     MW 5872   9.351   3.193   0.719 -0.4966 -0.0364  0.5503
 1469SOL     OW 5873   7.540   3.299   0.998 -0.0681  0.2027  0.0819
 1469SOL    HW1 5874   7.548   3.253   1.081 -0.2630 -0.0912 -0.0615
 1469SOL    HW2 5875   7.630   3.307   0.966  0.1339  1.3562  0.8785
 1469SOL     MW 5876   7.552   3.294   1.004 -0.0672  0.3128  0.1655
 1470SOL     OW 5877   8.163   9.668   8.766 -0.2381  0.3131 -0.3226
 1470SOL    HW1 5878   8.162   9.756   8.805 -0.1699  0.6413 -1.0306
 1470SOL    HW2 5879   8.076   9.633   8.785 -1.1486  1.4619 -2.0033
 1470SOL     MW 5880   8.151   9.675   8.773 -0.3459  0.5022 -0.6284
 1471SOL     OW 5881   8.879   1.977   2.218  0.0891  0.5377  0.7012
 1471SOL    HW1 5882   8.860   2.046   2.154  0.0012 -0.2615 -0.1628
 1471SOL    HW2 5883   8.967   1.996   2.249 -0.1982  1.4263  0.9790
 1471SOL     MW 5884   8.888   1.988   2.214  0.0411  0.5491  0.6262
 1472SOL     OW 5885   8.427   3.683   9.474  0.6161  0.9678 -0.6833
 1472SOL    HW1 5886   8.485   3.698   9.400  1.5213  1.1098  0.0354
 1472SOL    HW2 5887   8.463   3.737   9.544  0.5787 -0.1929  0.2645
 1472SOL     MW 5888   8.439   3.692   9.473  0.7272  0.8374 -0.4700
 1473SOL     OW 5889   0.270   5.620   0.357  0.2255  0.0258 -0.9167
 1473SOL    HW1 5890   0.197   5.660   0.403  1.6681  1.8001 -0.0178
 1473SOL    HW2 5891   0.317   5.572   0.425 -0.5085 -1.8140 -1.6488
 1473SOL     MW 5892   0.267   5.619   0.372  0.3162  0.0174 -0.8954
 1474SOL     OW 5893   7.729   3.482   0.103  0.0953 -0.0258 -0.6301
 1474SOL    HW1 5894   7.745   3.388   0.095 -1.2187 -0.3969  0.6660
 1474SOL    HW2 5895   7.642   3.495   0.064  0.2333  0.6537 -0.7338
 1474SOL     MW 5896   7.720   3.472   0.097 -0.0552  0.0137 -0.4775
 1475SOL     OW 5897   6.448   6.954   1.604 -0.4109  0.1990  0.4367
 1475SOL    HW1 5898   6.523   6.936   1.548 -1.4425 -1.0521 -0.6108
 1475SOL    HW2 5899   6.406   6.869   1.615 -1.5316  0.8310  1.2141
 1475SOL     MW 5900   6.452   6.941   1.598 -0.6864  0.1197  0.4021
 1476SOL     OW 5901   7.827   3.153   2.190  0.1803  0.0084  0.1972
 1476SOL    HW1 5902   7.737   3.130   2.168  0.2098 -0.8722  0.9189
 1476SOL    HW2 5903   7.819   3.231   2.245 -0.2932 -1.0470  1.6896
 1476SOL     MW 5904   7.815   3.160   2.195  0.1234 -0.2394  0.4806
 1477SOL     OW 5905   9.312   4.564   0.754  0.0219 -0.1688 -0.2433
 1477SOL    HW1 5906   9.305   4.469   0.751  1.2671 -0.3030  0.4519
 1477SOL    HW2 5907   9.223   4.594   0.772  0.0257 -1.3479  2.1375
 1477SOL     MW 5908   9.300   4.556   0.755  0.1818 -0.3369  0.1505
 1478SOL     OW 5909   6.224   8.722   1.136 -0.2534 -0.8336 -0.4922
 1478SOL    HW1 5910   6.208   8.811   1.107  1.2061 -0.8924 -1.5792
 1478SOL    HW2 5911   6.319   8.717   1.149 -0.0047 -2.7363 -2.4164
 1478SOL     MW 5912   6.234   8.732   1.134 -0.0347 -1.0847 -0.8776
 1479SOL     OW 5913   7.141   7.470  10.118  0.6524  0.0752  0.2625
 1479SOL    HW1 5914   7.095   7.508  10.193  1.4840  0.4326  0.6098
 1479SOL    HW2 5915   7.204   7.537  10.092  0.5190 -0.1284 -0.6358
 1479SOL     MW 5916   7.143   7.483  10.124  0.7418  0.0949  0.1920
 1480SOL     OW 5917   6.588   0.551   1.145 -0.2414 -0.1044 -0.0281
 1480SOL    HW1 5918   6.573   0.636   1.186 -0.1005 -0.9238  1.8564
 1480SOL    HW2 5919   6.526   0.492   1.189  0.8728 -1.3126 -0.0057
 1480SOL     MW 5920   6.578   0.554   1.156 -0.0807 -0.3640  0.2160
 1481SOL     OW 5921  10.060   8.176   0.334 -0.0185 -0.0701  0.1342
 1481SOL    HW1 5922   9.992   8.153   0.272 -0.4334 -0.5637  0.7617
 1481SOL    HW2 5923  10.042   8.122   0.411  0.6287  0.3519  0.5937
 1481SOL     MW 5924  10.049   8.166   0.336  0.0113 -0.0793  0.2733
 1482SOL     OW 5925   7.497   8.601   1.263  0.4008 -0.3988 -0.0287
 1482SOL    HW1 5926   7.454   8.610   1.178  0.5201  0.5030 -0.0016
 1482SOL    HW2 5927   7.574   8.657   1.257  0.8672 -0.9804  0.3865
 1482SOL     MW 5928   7.501   8.609   1.251  0.4758 -0.3578  0.0279
 1483SOL     OW 5929   9.755   1.245  10.041 -0.5845 -0.4998  0.7154
 1483SOL    HW1 5930   9.826   1.188  10.012 -1.2329 -0.4638 -1.0515
 1483SOL    HW2 5931   9.677   1.190  10.038 -1.2954  0.5248 -1.4515
 1483SOL     MW 5932   9.754   1.231  10.037 -0.7585 -0.3640  0.2118
 1484SOL     OW 5933   7.844   0.784   9.061  0.6153  0.0374  0.2111
 1484SOL    HW1 5934   7.822   0.733   8.983 -0.2508  0.3058  0.2705
 1484SOL    HW2 5935   7.765   0.833   9.080  1.5955  1.8471 -0.1751
 1484SOL     MW 5936   7.831   0.783   9.053  0.6299  0.3034  0.1693
 1485SOL     OW 5937   7.501   9.711   1.457 -0.1215 -0.0050  0.0123
 1485SOL    HW1 5938   7.590   9.718   1.491 -0.0261  0.1417 -0.2602
 1485SOL    HW2 5939   7.468   9.628   1.492  0.2974 -0.2990 -0.2822
 1485SOL     MW 5940   7.508   9.701   1.466 -0.0557 -0.0239 -0.0603
 1486SOL     OW 5941   8.418   5.415   2.433 -0.1980 -0.2375  0.0974
 1486SOL    HW1 5942   8.483   5.345   2.427  1.3401  1.2333 -1.7974
 1486SOL    HW2 5943   8.435   5.458   2.517 -1.2403 -2.1167  1.3433
 1486SOL     MW 5944   8.428   5.411   2.443 -0.1345 -0.2898  0.0143
 1487SOL     OW 5945   8.463   8.447   9.623 -0.0381 -0.2147 -0.3836
 1487SOL    HW1 5946   8.421   8.458   9.708  0.1317 -0.2290 -0.2972
 1487SOL    HW2 5947   8.421   8.512   9.567 -0.0660 -0.1223 -0.2565
 1487SOL     MW 5948   8.453   8.457   9.626 -0.0199 -0.2047 -0.3563
 1488SOL     OW 5949   8.628   2.633   2.697  0.3864  0.4724 -0.1038
 1488SOL    HW1 5950   8.605   2.654   2.607  0.5795 -0.9456 -0.5140
 1488SOL    HW2 5951   8.698   2.694   2.719  1.9469 -0.6269 -1.7395
 1488SOL     MW 5952   8.634   2.643   2.688  0.6109  0.1502 -0.3657
 1489SOL     OW 5953   7.163   1.503   0.235 -0.0071  0.5146  0.2393
 1489SOL    HW1 5954   7.135   1.595   0.230  1.7799  1.1824  1.2330
 1489SOL    HW2 5955   7.196   1.494   0.324 -1.7186 -1.6340  0.7366
 1489SOL     MW 5956   7.164   1.514   0.246  0.0025  0.3251  0.4301
 1490SOL     OW 5957   6.290   2.204   1.960 -0.0043 -0.1148  0.7286
 1490SOL    HW1 5958   6.258   2.276   2.014 -1.9746 -0.3165 -0.0749
 1490SOL    HW2 5959   6.386   2.209   1.968 -0.1531  0.0463  3.9253
 1490SOL     MW 5960   6.298   2.214   1.968 -0.2756 -0.1200  1.0350
 1491SOL     OW 5961   7.332   3.017   2.286  0.2146 -0.0765  0.2239
 1491SOL    HW1 5962   7.330   3.011   2.382 -0.2557  2.3079  0.4452
 1491SOL    HW2 5963   7.350   3.110   2.269 -0.1913 -0.3527 -1.9963
 1491SOL     MW 5964   7.334   3.028   2.296  0.1024  0.1934 -0.0320
 1492SOL     OW 5965   8.376   4.528   2.603  0.0499 -0.0907  0.4063
 1492SOL    HW1 5966   8.299   4.577   2.576  1.6581  2.6736  0.3876
 1492SOL    HW2 5967   8.387   4.549   2.696  2.7208  2.7535 -0.3703
 1492SOL     MW 5968   8.368   4.537   2.611  0.5977  0.6273  0.3045
 1493SOL     OW 5969   9.465   6.162   1.190  0.2253  0.0895  0.2188
 1493SOL    HW1 5970   9.481   6.072   1.164  1.0133  0.7356 -1.7636
 1493SOL    HW2 5971   9.506   6.171   1.276  2.2670 -0.8224 -0.6108
 1493SOL     MW 5972   9.472   6.152   1.197  0.5876  0.0555 -0.1411
 1494SOL     OW 5973   0.263   1.512   2.076 -0.3203  0.2025 -0.1836
 1494SOL    HW1 5974   0.214   1.452   2.019 -0.2019  1.5493 -1.7599
 1494SOL    HW2 5975   0.243   1.599   2.042  2.0972  0.8770 -0.0293
 1494SOL     MW 5976   0.254   1.515   2.065  0.0044  0.4612 -0.3656
 1495SOL     OW 5977   8.409   0.679   0.346  0.1220 -0.1544 -0.7267
 1495SOL    HW1 5978   8.325   0.721   0.363  0.3512 -0.1095  0.3572
 1495SOL    HW2 5979   8.403   0.648   0.255 -0.8905  0.2338 -0.7962
 1495SOL     MW 5980   8.398   0.680   0.336  0.0217 -0.0990 -0.5968
 1496SOL     OW 5981   8.173   9.350   9.381 -0.5004  0.6929  0.7223
 1496SOL    HW1 5982   8.208   9.264   9.403  0.6920  1.1481  0.6621
 1496SOL    HW2 5983   8.083   9.333   9.353 -0.4031 -0.4795  1.0932
 1496SOL     MW 5984   8.166   9.337   9.380 -0.3353  0.6011  0.7621
 1497SOL     OW 5985   6.729   9.325   2.494  0.1164  0.0271 -0.2771
 1497SOL    HW1 5986   6.652   9.278   2.464 -0.8977  0.9815  0.7083
 1497SOL    HW2 5987   6.781   9.339   2.415 -0.8346 -0.4407 -1.0098
 1497SOL     MW 5988   6.726   9.321   2.480 -0.1351  0.0894 -0.2447
 1498SOL     OW 5989   8.722   5.728  10.133 -0.3283 -0.0288 -0.3728
 1498SOL    HW1 5990   8.761   5.654  10.180  0.5350 -0.4682 -1.7355
 1498SOL    HW2 5991   8.632   5.699  10.115 -0.3056 -0.3316 -0.0128
 1498SOL     MW 5992   8.715   5.715  10.137 -0.2149 -0.1238 -0.5012
 1499SOL     OW 5993   8.914   8.567   1.573  0.1046 -0.2403 -0.1309
 1499SOL    HW1 5994   8.865   8.567   1.655 -1.2655 -0.3371 -0.9237
 1499SOL    HW2 5995   8.997   8.609   1.595 -0.3834  0.0802  1.2055
 1499SOL     MW 5996   8.918   8.572   1.587 -0.1332 -0.2116 -0.0613
 1500SOL     OW 5997   7.621   9.212   1.004 -0.5586  0.3788 -0.5673
 1500SOL    HW1 5998   7.637   9.304   0.985  0.8401  0.5278  1.0784
 1500SOL    HW2 5999   7.608   9.172   0.918 -0.7050  2.0150 -1.3437
 1500SOL     MW 6000   7.622   9.218   0.990 -0.3983  0.6073 -0.4560
 1501SOL     OW 6001   7.285   9.254  10.103 -0.0823 -0.0225 -0.3315
 1501SOL    HW1 6002   7.250   9.335  10.067  0.3361  0.4091  0.2351
 1501SOL    HW2 6003   7.209   9.196  10.109 -0.4274  0.4048 -0.5040
 1501SOL     MW 6004   7.271   9.257  10.099 -0.0729  0.0875 -0.2811
 1502SOL     OW 6005   0.011   3.010   0.133 -0.1695  0.2722 -0.1884
 1502SOL    HW1 6006   0.018   3.066   0.210  0.8739 -1.1419  0.7976
 1502SOL    HW2 6007   0.005   2.922   0.168 -0.2443 -0.3701 -1.7260
 1502SOL     MW 6008   0.011   3.006   0.147 -0.0455  0.0090 -0.2590
 1503SOL     OW 6009   8.162   2.743   9.384  0.2998  0.0191 -0.1759
 1503SOL    HW1 6010   8.242   2.718   9.430  1.4845  0.4525 -1.8815
 1503SOL    HW2 6011   8.104   2.668   9.393  1.3333 -0.7642  0.1450
 1503SOL     MW 6012   8.165   2.730   9.391  0.5837 -0.0257 -0.3532
 1504SOL     OW 6013   9.273   8.277   9.095  0.5629  0.1003  0.2470
 1504SOL    HW1 6014   9.259   8.370   9.077 -0.0489  0.1347  0.8507
 1504SOL    HW2 6015   9.286   8.273   9.190 -0.6540 -0.5635  0.4034
 1504SOL     MW 6016   9.273   8.289   9.105  0.3288  0.0197  0.3443
 1505SOL     OW 6017   9.125   0.993   1.377  0.0192  0.3927 -0.4652
 1505SOL    HW1 6018   9.182   0.917   1.365 -0.3045  0.2315 -1.0217
 1505SOL    HW2 6019   9.106   1.023   1.288  1.3264  2.0356 -0.2319
 1505SOL     MW 6020   9.130   0.987   1.364  0.1451  0.5824 -0.5066
 1506SOL     OW 6021   9.104   5.809   1.633 -0.1300  0.4152 -0.1064
 1506SOL    HW1 6022   9.040   5.868   1.674 -0.6096 -0.2099  0.0622
 1506SOL    HW2 6023   9.169   5.867   1.594 -0.1245  1.0439  0.8104
 1506SOL     MW 6024   9.104   5.824   1.633 -0.1907  0.4157  0.0325
 1507SOL     OW 6025   7.552   7.388   9.403 -0.0775 -0.0944 -0.5988
 1507SOL    HW1 6026   7.620   7.325   9.424  0.7979  0.6491 -1.1306
 1507SOL    HW2 6027   7.477   7.362   9.457  1.3773  0.5182  1.8456
 1507SOL     MW 6028   7.551   7.376   9.412  0.2208  0.0792 -0.3540
 1508SOL     OW 6029   8.010   8.394   2.956 -0.1216  0.2331  0.0174
 1508SOL    HW1 6030   8.082   8.336   2.930 -0.7459 -1.3802  1.6542
 1508SOL    HW2 6031   8.033   8.423   3.045 -0.9593  0.5786  0.1343
 1508SOL     MW 6032   8.022   8.390   2.964 -0.3088  0.0708  0.2419
 1509SOL     OW 6033   9.392   3.755   9.855  0.0545 -0.2977 -0.2851
 1509SOL    HW1 6034   9.365   3.732   9.944 -0.0101 -0.5198 -0.3599
 1509SOL    HW2 6035   9.321   3.809   9.822  1.6808  2.9139  1.0558
 1509SOL     MW 6036   9.380   3.759   9.862  0.2545  0.0850 -0.1230
 1510SOL     OW 6037   7.258   4.100   9.620 -0.1379 -0.1738 -0.0313
 1510SOL    HW1 6038   7.349   4.131   9.619 -0.5895  1.2223 -0.5517
 1510SOL    HW2 6039   7.261   4.019   9.670  1.5051 -0.5061 -0.5901
 1510SOL     MW 6040   7.270   4.094   9.626  0.0147 -0.0376 -0.1695
 1511SOL     OW 6041   7.793   8.330   9.768  0.0164  0.4616  0.1595
 1511SOL    HW1 6042   7.757   8.285   9.692  0.3802  1.3636 -0.5705
 1511SOL    HW2 6043   7.748   8.415   9.769 -0.5021  0.1960  1.3761
 1511SOL     MW 6044   7.783   8.335   9.758 -0.0034  0.5431  0.2218
 1512SOL     OW 6045   9.081   7.690   0.531 -0.3252 -0.0727  0.3113
 1512SOL    HW1 6046   9.097   7.730   0.616  2.2697 -0.1355 -0.0532
 1512SOL    HW2 6047   9.110   7.599   0.541  0.4609  0.0405 -0.7209
 1512SOL     MW 6048   9.087   7.683   0.543  0.1076 -0.0663  0.1325
 1513SOL     OW 6049   8.988   0.492   0.736  0.5725  0.1453 -0.0046
 1513SOL    HW1 6050   8.903   0.535   0.738  0.4289 -0.0383 -1.2047
 1513SOL    HW2 6051   8.969   0.399   0.732  0.8554  0.0482  0.7498
 1513SOL     MW 6052   8.975   0.486   0.735  0.5903  0.1094 -0.0616
 1514SOL     OW 6053   7.525   1.353   9.323  0.6345 -0.2148 -0.2988
 1514SOL    HW1 6054   7.463   1.308   9.266 -1.2938  1.9319 -0.0586
 1514SOL    HW2 6055   7.515   1.311   9.408 -1.3688  0.7768  0.0061
 1514SOL     MW 6056   7.516   1.342   9.326  0.1312  0.1869 -0.2290
 1515SOL     OW 6057   6.767   9.249  10.038 -0.0928  0.0171 -0.2934
 1515SOL    HW1 6058   6.840   9.255   9.978  1.2038 -1.4269  1.0418
 1515SOL    HW2 6059   6.758   9.338  10.074  0.6168  0.3388 -0.8897
 1515SOL     MW 6060   6.775   9.261  10.035  0.1640 -0.1266 -0.1988
 1516SOL     OW 6061   7.215   9.653   1.145  0.0820 -0.6802  0.0291
 1516SOL    HW1 6062   7.234   9.702   1.066  1.0338  2.1220  1.8540
 1516SOL    HW2 6063   7.122   9.632   1.139  0.3990 -1.6965 -2.3503
 1516SOL     MW 6064   7.205   9.656   1.134  0.2444 -0.4516 -0.0419
 1517SOL     OW 6065   9.648   0.954   1.857  0.5818  0.2260  0.0247
 1517SOL    HW1 6066   9.618   1.041   1.831  0.4272 -0.0957 -0.9158
 1517SOL    HW2 6067   9.703   0.925   1.784  1.0982 -0.2360  0.5893
 1517SOL     MW 6068   9.651   0.961   1.844  0.6281  0.1257 -0.0234
 1518SOL     OW 6069   8.183   8.221   9.846  0.2513  0.6576 -0.0865
 1518SOL    HW1 6070   8.206   8.234   9.754 -1.2803  0.2775 -0.5591
 1518SOL    HW2 6071   8.123   8.293   9.866  0.5611  0.7272  0.6174
 1518SOL     MW 6072   8.178   8.232   9.837  0.0949  0.6179 -0.0569
 1519SOL     OW 6073   9.765   0.151   9.415  0.2240 -0.4784 -0.9249
 1519SOL    HW1 6074   9.811   0.067   9.419  0.7426 -0.1566  1.3235
 1519SOL    HW2 6075   9.827   0.210   9.373  0.6478 -0.7670 -0.7143
 1519SOL     MW 6076   9.779   0.148   9.410  0.3446 -0.4742 -0.6101
 1520SOL     OW 6077   7.076   3.461   0.107 -0.1682 -0.0474  0.0191
 1520SOL    HW1 6078   7.021   3.459   0.185 -0.1257  0.3288  0.0581
 1520SOL    HW2 6079   7.145   3.523   0.128  1.1857 -1.6665  0.5746
 1520SOL     MW 6080   7.078   3.469   0.120  0.0106 -0.2065  0.0952
 1521SOL     OW 6081   7.113   9.647   9.642  0.1262 -0.1343  0.6725
 1521SOL    HW1 6082   7.175   9.673   9.573  0.0393  1.9982  1.3184
 1521SOL    HW2 6083   7.123   9.552   9.648  2.3825 -0.0233 -0.1600
 1521SOL     MW 6084   7.122   9.638   9.634  0.4039  0.1529  0.6486
 1522SOL     OW 6085   9.328   9.601   1.390 -0.1622  0.0889 -0.4521
 1522SOL    HW1 6086   9.373   9.683   1.408 -2.3734  1.3026 -0.1661
 1522SOL    HW2 6087   9.235   9.620   1.404 -0.8872 -2.0865 -1.7332
 1522SOL     MW 6088   9.322   9.614   1.394 -0.5381 -0.0342 -0.5795
 1523SOL     OW 6089   7.373   3.332   9.936  0.7717 -0.2396  0.3275
 1523SOL    HW1 6090   7.351   3.423   9.914  1.8887  0.0192  0.2157
 1523SOL    HW2 6091   7.288   3.288   9.942  0.2044  0.8267  0.4645
 1523SOL     MW 6092   7.359   3.338   9.934  0.8421 -0.0700  0.3308
 1524SOL     OW 6093   9.639   7.330   2.116  0.4001 -0.1298 -0.3104
 1524SOL    HW1 6094   9.649   7.295   2.027 -0.4320  0.0044 -0.4635
 1524SOL    HW2 6095   9.719   7.304   2.161  0.3779 -1.1147 -0.8027
 1524SOL     MW 6096   9.650   7.322   2.110  0.2907 -0.2387 -0.3930
 1525SOL     OW 6097   9.574   9.171   9.722  0.0299 -0.2642  0.7935
 1525SOL    HW1 6098   9.493   9.171   9.671 -0.2140  1.3068  1.1415
 1525SOL    HW2 6099   9.641   9.203   9.661  0.1933 -0.5533  0.8160
 1525SOL     MW 6100   9.573   9.175   9.707  0.0196 -0.1001  0.8409
 1526SOL     OW 6101   8.003   8.038   1.890 -0.2858  0.0258 -0.2009
 1526SOL    HW1 6102   8.066   8.079   1.831  1.8309 -2.0803  0.4406
 1526SOL    HW2 6103   7.920   8.039   1.842  0.6386  1.2261 -1.8557
 1526SOL     MW 6104   8.000   8.043   1.876  0.1035 -0.0901 -0.3306
 1527SOL     OW 6105   9.934   4.065   9.941  0.4842  0.4996 -0.1850
 1527SOL    HW1 6106   9.925   4.148   9.987  0.3653  0.6140 -0.4106
 1527SOL    HW2 6107   9.926   4.089   9.848 -1.9557 -0.0808 -0.1895
 1527SOL     MW 6108   9.932   4.079   9.935  0.1567  0.4400 -0.2145
 1528SOL     OW 6109   7.118   5.535   2.171  0.1291 -0.4903  0.0471
 1528SOL    HW1 6110   7.181   5.607   2.160 -1.7698  1.1760 -0.6093
 1528SOL    HW2 6111   7.035   5.579   2.189 -0.7388 -2.6282  1.6644
 1528SOL     MW 6112   7.115   5.550   2.172 -0.2251 -0.5507  0.1701
 1529SOL     OW 6113   7.395   3.251   0.612  0.5146  0.0111 -0.0230
 1529SOL    HW1 6114   7.329   3.321   0.607  0.1160 -0.2416  1.3266
 1529SOL    HW2 6115   7.478   3.296   0.600  0.1836  0.5144 -0.4977
 1529SOL     MW 6116   7.397   3.266   0.610  0.4212  0.0432  0.0890
 1530SOL     OW 6117   8.255   2.717   9.149  0.0305  0.1407  0.1096
 1530SOL    HW1 6118   8.277   2.806   9.122  0.3148 -0.0453 -0.2686
 1530SOL    HW2 6119   8.219   2.728   9.237 -1.4596  0.8223 -0.5380
 1530SOL     MW 6120   8.253   2.730   9.157 -0.1239  0.2041 -0.0217
 1531SOL     OW 6121   7.667   9.339   9.136  0.2452 -0.5286  0.0750
 1531SOL    HW1 6122   7.618   9.361   9.058  0.6015  1.3525  0.3505
 1531SOL    HW2 6123   7.600   9.312   9.199 -0.2571  0.1197 -0.1694
 1531SOL     MW 6124   7.652   9.338   9.134  0.2265 -0.2048  0.0789
 1532SOL     OW 6125   7.329   1.658   2.575  0.3977  0.0196 -0.0561
 1532SOL    HW1 6126   7.408   1.604   2.577  0.5417  0.2525  1.4009
 1532SOL    HW2 6127   7.266   1.610   2.628  0.5546  1.2759  1.3359
 1532SOL     MW 6128   7.331   1.645   2.582  0.4363  0.2102  0.3086
 1533SOL     OW 6129   9.544   9.413   0.863  0.3052 -0.2567 -0.4161
 1533SOL    HW1 6130   9.502   9.366   0.792  0.2368 -0.1545 -0.4426
 1533SOL    HW2 6131   9.493   9.391   0.941 -1.6510  2.2146 -0.8856
 1533SOL     MW 6132   9.532   9.404   0.864  0.0460  0.0727 -0.4796
 1534SOL     OW 6133   7.749   3.947   1.107  0.3344  0.2244  0.1830
 1534SOL    HW1 6134   7.690   3.873   1.122 -1.3009  1.3020 -0.5908
 1534SOL    HW2 6135   7.837   3.908   1.108 -0.3474 -1.4326  1.4441
 1534SOL     MW 6136   7.753   3.932   1.109  0.0378  0.1502  0.2454
 1535SOL     OW 6137   9.193   4.542   1.989  0.0973 -0.3961  0.1430
 1535SOL    HW1 6138   9.266   4.527   2.049 -0.7987 -0.4008  1.2766
 1535SOL    HW2 6139   9.228   4.523   1.902  0.8096 -2.6400  0.8768
 1535SOL     MW 6140   9.206   4.538   1.986  0.0738 -0.6839  0.3821
 1536SOL     OW 6141   9.690   7.010   2.096  0.1046  0.0982 -0.1718
 1536SOL    HW1 6142   9.717   6.927   2.058 -1.5936 -1.2460  1.3650
 1536SOL    HW2 6143   9.696   7.073   2.024  0.7904 -1.4791 -1.5600
 1536SOL     MW 6144   9.694   7.008   2.082 -0.0250 -0.2758 -0.1528
 1537SOL     OW 6145  10.008   7.762   0.983  0.0344 -0.2969  0.2103
 1537SOL    HW1 6146   9.996   7.785   0.891 -0.0875 -0.9371  0.0565
 1537SOL    HW2 6147  10.099   7.733   0.989  0.7173  1.7895  0.7621
 1537SOL     MW 6148  10.018   7.761   0.972  0.1062 -0.1118  0.2612
 1538SOL     OW 6149   6.758   3.024   0.267 -0.5018  0.1439 -0.1891
 1538SOL    HW1 6150   6.776   2.932   0.287 -0.3293  0.1943 -0.1169
 1538SOL    HW2 6151   6.788   3.035   0.177 -0.8013  0.0525 -0.3038
 1538SOL     MW 6152   6.764   3.013   0.258 -0.5180  0.1386 -0.1945
 1539SOL     OW 6153   8.437   4.964   9.895 -0.1085  0.0044  0.1606
 1539SOL    HW1 6154   8.393   4.913   9.827 -0.2519  1.3136 -0.7712
 1539SOL    HW2 6155   8.487   5.030   9.847 -0.7554  1.4065  1.3267
 1539SOL     MW 6156   8.437   4.966   9.880 -0.2097  0.3515  0.1906
 1540SOL     OW 6157   6.624   0.553   0.860 -0.1934  0.7757  0.3856
 1540SOL    HW1 6158   6.709   0.592   0.840 -0.9603  1.8211 -0.9463
 1540SOL    HW2 6159   6.630   0.531   0.953  0.8470  2.6410  0.8235
 1540SOL     MW 6160   6.636   0.555   0.869 -0.1584  1.1483  0.2712
 1541SOL     OW 6161   7.115   4.510   0.083  0.1508  0.1644 -0.3802
 1541SOL    HW1 6162   7.040   4.452   0.095  1.8171 -2.2424 -0.8779
 1541SOL    HW2 6163   7.128   4.511  -0.012 -0.2502  1.9898 -0.4501
 1541SOL     MW 6164   7.107   4.502   0.072  0.3127  0.0900 -0.4529
 1542SOL     OW 6165   9.826   2.642   2.142 -0.0310  0.1836 -0.5630
 1542SOL    HW1 6166   9.746   2.643   2.194  0.4368 -0.2721  0.1821
 1542SOL    HW2 6167   9.824   2.557   2.097 -0.7814  0.8622 -1.8668
 1542SOL     MW 6168   9.816   2.631   2.143 -0.0672  0.2122 -0.6345
 1543SOL     OW 6169   8.690   4.907   1.451  0.2272  0.2968 -0.3702
 1543SOL    HW1 6170   8.656   4.855   1.524 -2.2227 -0.2227 -1.7912
 1543SOL    HW2 6171   8.776   4.870   1.433  0.9802  0.5100  2.2632
 1543SOL     MW 6172   8.697   4.896   1.458  0.0100  0.2576 -0.2150
 1544SOL     OW 6173   9.178   3.909   1.039  0.2682  0.1762 -0.0853
 1544SOL    HW1 6174   9.086   3.882   1.040  0.4082 -0.2890  0.3486
 1544SOL    HW2 6175   9.227   3.828   1.050  0.6956  0.6460  1.7641
 1544SOL     MW 6176   9.172   3.895   1.040  0.3408  0.1768  0.2070
 1545SOL     OW 6177   8.424   7.899  10.136 -0.0796 -0.0373 -0.5138
 1545SOL    HW1 6178   8.464   7.984  10.115 -0.0584  0.4509  1.3055
 1545SOL    HW2 6179   8.491   7.853  10.187 -0.7608 -0.3686  0.1031
 1545SOL     MW 6180   8.438   7.904  10.140 -0.1641 -0.0172 -0.2020
 1546SOL     OW 6181   9.193   3.619   0.390 -0.1746 -0.1142  0.4875
 1546SOL    HW1 6182   9.279   3.582   0.411 -0.3220 -0.3205  0.7325
 1546SOL    HW2 6183   9.144   3.615   0.473  0.0389  1.2670  0.7045
 1546SOL     MW 6184   9.198   3.614   0.404 -0.1661  0.0362  0.5466
 1547SOL     OW 6185   7.078   3.556   2.416  0.0807 -0.3010  0.5364
 1547SOL    HW1 6186   7.168   3.556   2.384  0.3934 -0.7156  1.3923
 1547SOL    HW2 6187   7.058   3.464   2.432 -0.1339 -0.1212  1.3420
 1547SOL     MW 6188   7.087   3.544   2.414  0.0932 -0.3311  0.7491
 1548SOL     OW 6189   7.074   0.296   2.631  0.2917 -0.3834  0.2995
 1548SOL    HW1 6190   7.036   0.213   2.605  0.4173 -0.3367 -0.0510
 1548SOL    HW2 6191   7.025   0.362   2.582  0.3919 -0.2753  0.3409
 1548SOL     MW 6192   7.063   0.294   2.621  0.3206 -0.3636  0.2599
 1549SOL     OW 6193   7.323   0.250   1.456 -0.3542  0.1807 -0.3084
 1549SOL    HW1 6194   7.291   0.200   1.381  0.8449  0.5429 -1.0991
 1549SOL    HW2 6195   7.298   0.199   1.532 -2.8506  0.4858 -0.8470
 1549SOL     MW 6196   7.316   0.237   1.456 -0.5202  0.2661 -0.4786
 1550SOL     OW 6197   6.695   0.084  -0.020 -0.4706  0.1115 -0.4985
 1550SOL    HW1 6198   6.711   0.164   0.029 -0.2309  0.0863 -0.5368
 1550SOL    HW2 6199   6.609   0.053   0.011 -0.2227 -0.0216  0.0621
 1550SOL     MW 6200   6.686   0.090  -0.010 -0.4082  0.0912 -0.4316
 1551SOL     OW 6201   9.269   0.643   1.728 -0.1606 -0.4405 -0.0729
 1551SOL    HW1 6202   9.245   0.632   1.820  0.9933  0.0446  0.2979
 1551SOL    HW2 6203   9.223   0.571   1.683 -2.6722  0.7003  0.4850
 1551SOL     MW 6204   9.260   0.632   1.734 -0.3344 -0.2323  0.0460
 1552SOL     OW 6205   0.058   7.486   0.249  0.3797 -0.0224 -0.0521
 1552SOL    HW1 6206  -0.001   7.416   0.221 -0.4221  0.0884  1.2716
 1552SOL    HW2 6207   0.076   7.535   0.170 -0.8611 -0.4031 -0.5918
 1552SOL     MW 6208   0.052   7.483   0.236  0.1182 -0.0570  0.0483
 1553SOL     OW 6209   6.528   7.136   2.313 -0.4411  0.0526 -0.7086
 1553SOL    HW1 6210   6.511   7.099   2.226 -3.3757 -0.0611 -0.1732
 1553SOL    HW2 6211   6.570   7.065   2.361  0.9168  0.0056 -1.8917
 1553SOL     MW 6212   6.531   7.122   2.308 -0.6429  0.0320 -0.7915
 1554SOL     OW 6213   6.259   6.161   1.586 -0.2361 -0.7657 -0.4526
 1554SOL    HW1 6214   6.207   6.150   1.507  0.0983  0.5679 -0.8959
 1554SOL    HW2 6215   6.292   6.251   1.580 -0.6681 -0.4440  1.4844
 1554SOL     MW 6216   6.257   6.171   1.575 -0.2486 -0.5538 -0.2614
 1555SOL     OW 6217  10.093   2.661   2.160  0.4694  0.3300  0.5215
 1555SOL    HW1 6218  10.000   2.675   2.177  0.7362  1.9150  0.7654
 1555SOL    HW2 6219  10.132   2.748   2.163  1.5985 -0.0014 -1.9854
 1555SOL     MW 6220  10.086   2.674   2.163  0.6481  0.4905  0.2318
 1556SOL     OW 6221   8.550   1.590  10.021  0.2616  0.3453 -0.1758
 1556SOL    HW1 6222   8.499   1.555   9.947  1.2223 -0.5434 -0.4464
 1556SOL    HW2 6223   8.573   1.678   9.993 -1.9984  1.1869  0.4108
 1556SOL     MW 6224   8.546   1.597  10.008  0.0953  0.3393 -0.1354
 1557SOL     OW 6225   9.891   1.519   9.712  0.6998  0.3600  0.7125
 1557SOL    HW1 6226   9.818   1.474   9.754 -0.4648  2.2202  0.7835
 1557SOL    HW2 6227   9.965   1.458   9.719 -0.9481 -1.7937  0.1555
 1557SOL     MW 6228   9.891   1.506   9.718  0.3398  0.3224  0.6503
 1558SOL     OW 6229   8.154   8.053   0.210 -0.2197  0.3799  0.1517
 1558SOL    HW1 6230   8.130   7.963   0.185  0.3991  0.2771 -0.0929
 1558SOL    HW2 6231   8.156   8.101   0.127 -0.2246  0.5379  0.2436
 1558SOL     MW 6232   8.151   8.047   0.196 -0.1411  0.3870  0.1322
 1559SOL     OW 6233   9.433   9.054   1.920 -0.0401  0.0379  0.2366
 1559SOL    HW1 6234   9.484   9.038   1.841 -1.1225 -1.6023 -0.1817
 1559SOL    HW2 6235   9.452   9.145   1.944  1.5310  0.0615 -0.9929
 1559SOL     MW 6236   9.442   9.064   1.913  0.0225 -0.1690  0.0257
 1560SOL     OW 6237   8.024   8.145   2.404 -0.1446 -0.0945 -0.0807
 1560SOL    HW1 6238   7.952   8.101   2.450 -1.2508  1.7120  0.0238
 1560SOL    HW2 6239   7.989   8.163   2.317  0.8689 -0.8060 -0.6586
 1560SOL     MW 6240   8.010   8.142   2.399 -0.1565  0.0457 -0.1413
 1561SOL     OW 6241   6.981   7.371   0.406 -0.2118  0.0378 -0.4449
 1561SOL    HW1 6242   6.908   7.419   0.444 -0.8132 -1.5607  0.5133
 1561SOL    HW2 6243   7.053   7.384   0.468 -1.2017 -2.5985  1.4355
 1561SOL     MW 6244   6.981   7.379   0.419 -0.4155 -0.5043 -0.0815
 1562SOL     OW 6245   8.271   8.950   2.496  0.3598 -0.3952 -0.0887
 1562SOL    HW1 6246   8.286   9.045   2.491  0.9056 -0.2949  2.1057
 1562SOL    HW2 6247   8.355   8.914   2.526  0.1478 -1.5783 -0.8544
 1562SOL     MW 6248   8.284   8.958   2.499  0.4026 -0.5338  0.0942
 1563SOL     OW 6249   7.769   0.167   2.532 -0.0596  0.0554 -0.0145
 1563SOL    HW1 6250   7.735   0.255   2.547 -0.0614 -0.2698  2.1357
 1563SOL    HW2 6251   7.753   0.151   2.438 -2.1402  1.4483  0.0294
 1563SOL     MW 6252   7.762   0.176   2.522 -0.3261  0.1921  0.2664
 1564SOL     OW 6253   9.188   0.147   1.736 -0.5180  0.2247  0.3947
 1564SOL    HW1 6254   9.258   0.122   1.797  0.3699  0.2026 -0.6162
 1564SOL    HW2 6255   9.217   0.230   1.700  0.0736 -0.7962 -1.6324
 1564SOL     MW 6256   9.201   0.154   1.740 -0.3286  0.0912  0.0058
 1565SOL     OW 6257   7.284   7.883   9.807  0.3757 -0.4178  0.0423
 1565SOL    HW1 6258   7.342   7.809   9.788  2.0577  0.5525  1.1774
 1565SOL    HW2 6259   7.237   7.858   9.886 -0.8201 -1.1960 -0.8668
 1565SOL     MW 6260   7.285   7.871   9.814  0.4379 -0.3932  0.0712
 1566SOL     OW 6261   8.079   3.846   1.740  0.1312 -0.3053  0.3603
 1566SOL    HW1 6262   8.100   3.844   1.833  0.4354 -1.1180  0.2909
 1566SOL    HW2 6263   8.021   3.921   1.729  1.4382  0.8324  0.9088
 1566SOL     MW 6264   8.074   3.855   1.750  0.3374 -0.2637  0.4216
 1567SOL     OW 6265   6.660   1.151   2.315 -0.4984  0.1801  0.6443
 1567SOL    HW1 6266   6.570   1.158   2.344  0.1707 -0.4055  3.0474
 1567SOL    HW2 6267   6.674   1.230   2.262 -1.8633  1.2669  1.8223
 1567SOL     MW 6268   6.651   1.162   2.312 -0.5875  0.2443  1.1027
 1568SOL     OW 6269   8.362   9.324   8.667  0.2733  0.2145  0.0889
 1568SOL    HW1 6270   8.431   9.327   8.601  0.4138  0.6154  0.2576
 1568SOL    HW2 6271   8.384   9.393   8.728  0.8166 -0.9215  1.2284
 1568SOL     MW 6272   8.374   9.333   8.666  0.3608  0.1204  0.2564
 1569SOL     OW 6273   8.439   2.167   9.539  0.4992  0.1914  0.4397
 1569SOL    HW1 6274   8.408   2.156   9.449  0.1477  1.2511  0.4077
 1569SOL    HW2 6275   8.388   2.242   9.572  0.1883 -0.5608  1.7233
 1569SOL     MW 6276   8.428   2.175   9.532  0.4144  0.2308  0.5999
 1570SOL     OW 6277   0.203   6.514   1.277 -0.2347 -0.4312 -0.0931
 1570SOL    HW1 6278   0.109   6.531   1.275 -0.3259 -0.6461  1.3933
 1570SOL    HW2 6279   0.242   6.589   1.232 -1.1671 -0.9847 -1.9072
 1570SOL     MW 6280   0.196   6.526   1.271 -0.3657 -0.5296 -0.1350
 1571SOL     OW 6281   9.310   6.335   2.091  0.5155  0.2280 -0.0317
 1571SOL    HW1 6282   9.392   6.288   2.106  0.1848  0.0473  1.3780
 1571SOL    HW2 6283   9.333   6.405   2.030  1.0501 -1.6391 -2.0873
 1571SOL     MW 6284   9.324   6.338   2.085  0.5416 -0.0341 -0.1144
 1572SOL     OW 6285   6.720   1.851  10.124  0.1388  0.4614  0.7692
 1572SOL    HW1 6286   6.683   1.909  10.191 -2.0136 -1.4796  1.3839
 1572SOL    HW2 6287   6.672   1.873  10.044 -1.3390 -1.0118  1.2119
 1572SOL     MW 6288   6.709   1.862  10.122 -0.3259  0.0243  0.9045
 1573SOL     OW 6289   8.625   7.848   1.413 -0.3064  0.6720 -0.8586
 1573SOL    HW1 6290   8.680   7.840   1.335 -0.0607 -0.1009 -0.6128
 1573SOL    HW2 6291   8.584   7.934   1.404  0.9838  1.2930 -1.0054
 1573SOL     MW 6292   8.627   7.858   1.402 -0.1098  0.6526 -0.8459
 1574SOL     OW 6293   8.101   7.333   2.589  0.0625  0.2060 -0.4902
 1574SOL    HW1 6294   8.030   7.311   2.649  0.8605 -0.7061  0.1622
 1574SOL    HW2 6295   8.141   7.412   2.625 -0.2113  0.3503 -0.5014
 1574SOL     MW 6296   8.097   7.340   2.601  0.1296  0.1078 -0.4081
 1575SOL     OW 6297   7.232   0.526   0.270  0.2279 -0.1392  0.2567
 1575SOL    HW1 6298   7.313   0.552   0.314  1.4994 -2.1857 -0.7079
 1575SOL    HW2 6299   7.232   0.430   0.275 -0.9823 -0.2910 -1.7121
 1575SOL     MW 6300   7.242   0.517   0.276  0.2357 -0.4206 -0.1188
 1576SOL     OW 6301   9.423   4.275   9.154 -0.4953 -0.0399 -0.0201
 1576SOL    HW1 6302   9.511   4.250   9.128 -0.6471  0.0609 -0.6666
 1576SOL    HW2 6303   9.430   4.367   9.179 -0.5430  0.1770 -0.7660
 1576SOL     MW 6304   9.435   4.284   9.154 -0.5208  0.0008 -0.1983
 1577SOL     OW 6305   6.524   8.872   1.348 -0.5329 -0.3610  0.4711
 1577SOL    HW1 6306   6.614   8.878   1.381 -0.5040 -0.8234  0.4768
 1577SOL    HW2 6307   6.534   8.863   1.253 -0.5974  0.2846  0.3962
 1577SOL     MW 6308   6.537   8.872   1.340 -0.5375 -0.3375  0.4622
 1578SOL     OW 6309   0.342   2.107   1.077  0.0502 -0.1154  0.1223
 1578SOL    HW1 6310   0.344   2.169   1.150  1.1561  0.7975 -0.6303
 1578SOL    HW2 6311   0.268   2.136   1.023  1.0030  1.0540 -0.6048
 1578SOL     MW 6312   0.333   2.119   1.079  0.3137  0.1511 -0.0671
 1579SOL     OW 6313   9.360   0.677   2.004  0.2813  0.0223  0.0473
 1579SOL    HW1 6314   9.273   0.715   2.016  0.0091  0.0584 -1.7719
 1579SOL    HW2 6315   9.420   0.745   2.034 -0.2842  0.5414  0.0134
 1579SOL     MW 6316   9.357   0.691   2.010  0.1740  0.0933 -0.1899
 1580SOL     OW 6317  10.125   3.883   0.592  0.4506 -0.7232  0.4430
 1580SOL    HW1 6318  10.050   3.863   0.537  0.7569  0.7397 -0.5551
 1580SOL    HW2 6319  10.089   3.932   0.666  0.4790  0.6831 -0.4391
 1580SOL     MW 6320  10.111   3.887   0.594  0.4934 -0.3559  0.2023
 1581SOL     OW 6321   9.912   8.129   0.591  0.0549  0.4418 -0.2860
 1581SOL    HW1 6322   9.930   8.052   0.645  0.0462  1.5028  1.2888
 1581SOL    HW2 6323   9.823   8.114   0.558 -0.0653 -0.0923  0.2610
 1581SOL     MW 6324   9.903   8.117   0.594  0.0384  0.5092 -0.0144
 1582SOL     OW 6325   7.990   6.083   1.810  0.3856 -0.2622 -0.0724
 1582SOL    HW1 6326   7.949   6.138   1.878  0.1541  1.8660 -1.8080
 1582SOL    HW2 6327   8.082   6.109   1.812  0.6003 -1.0291  0.1643
 1582SOL     MW 6328   7.997   6.093   1.819  0.3835 -0.0879 -0.2643
 1583SOL     OW 6329   0.040   9.415   0.717 -0.1025 -0.6279  0.6341
 1583SOL    HW1 6330   0.127   9.376   0.725  0.6980  0.8841 -0.2413
 1583SOL    HW2 6331   0.040   9.487   0.780 -0.3974 -0.0763  0.0158
 1583SOL     MW 6332   0.051   9.419   0.726 -0.0378 -0.3638  0.4429
 1584SOL     OW 6333   9.863   3.213   1.578  0.0767 -0.6129  0.3723
 1584SOL    HW1 6334   9.821   3.277   1.635  2.9941  2.0224 -0.2034
 1584SOL    HW2 6335   9.824   3.228   1.492 -0.5622 -0.9691  0.5862
 1584SOL     MW 6336   9.852   3.223   1.574  0.3684 -0.3211  0.3260
 1585SOL     OW 6337   8.731   4.735   2.158  0.1529 -0.4806  0.0965
 1585SOL    HW1 6338   8.814   4.774   2.186 -0.5832  0.6220  0.8547
 1585SOL    HW2 6339   8.712   4.669   2.224 -1.1071  1.4657  1.8206
 1585SOL     MW 6340   8.739   4.732   2.170 -0.1026 -0.0903  0.4143
 1586SOL     OW 6341   8.118   2.247   1.853  0.6341  0.4852 -0.0215
 1586SOL    HW1 6342   8.210   2.259   1.829  0.9254 -0.2012  0.7005
 1586SOL    HW2 6343   8.081   2.336   1.853  1.7705  1.0060  1.5158
 1586SOL     MW 6344   8.125   2.260   1.850  0.8169  0.4640  0.2677
 1587SOL     OW 6345   7.975   7.846   0.387 -0.6270  0.4751 -0.0406
 1587SOL    HW1 6346   7.907   7.828   0.322  0.1931  0.2345 -0.8565
 1587SOL    HW2 6347   7.928   7.887   0.460 -1.9469 -1.5117  0.2810
 1587SOL     MW 6348   7.960   7.849   0.388 -0.6910  0.1899 -0.1039
 1588SOL     OW 6349   8.179   3.720  10.103 -0.1893  0.5039 -0.1621
 1588SOL    HW1 6350   8.223   3.710  10.018 -0.9276 -0.3530 -0.4711
 1588SOL    HW2 6351   8.227   3.663  10.162 -0.2056  0.4221 -0.2277
 1588SOL     MW 6352   8.191   3.711  10.099 -0.2859  0.3837 -0.2100
 1589SOL     OW 6353   6.997   2.229   0.250 -0.3419 -0.5830  0.0189
 1589SOL    HW1 6354   7.070   2.197   0.196 -0.4773 -0.2245 -0.3875
 1589SOL    HW2 6355   6.992   2.323   0.229 -1.0229 -0.6396 -0.0824
 1589SOL     MW 6356   7.006   2.237   0.240 -0.4464 -0.5444 -0.0461
 1590SOL     OW 6357   9.036   8.559   9.442 -0.4363  0.0278 -0.7434
 1590SOL    HW1 6358   9.118   8.594   9.475 -0.2622 -1.2624  0.2836
 1590SOL    HW2 6359   9.035   8.582   9.349  2.1958 -1.9239 -1.3427
 1590SOL     MW 6360   9.046   8.567   9.435 -0.0771 -0.3872 -0.6887
 1591SOL     OW 6361   6.250   7.232   0.771  0.1747 -0.4009  0.4159
 1591SOL    HW1 6362   6.231   7.142   0.798 -2.1077 -0.0629  0.1477
 1591SOL    HW2 6363   6.252   7.228   0.675 -0.4667 -0.1010  0.3827
 1591SOL     MW 6364   6.247   7.220   0.762 -0.1996 -0.3192  0.3773
 1592SOL     OW 6365   9.825   4.136   1.724  0.3185 -0.2178 -0.1422
 1592SOL    HW1 6366   9.840   4.042   1.733  0.3857 -0.0546  1.7817
 1592SOL    HW2 6367   9.776   4.161   1.802  2.6264  1.8132  0.7903
 1592SOL     MW 6368   9.821   4.127   1.735  0.6226  0.0631  0.2234
 1593SOL     OW 6369   8.582   8.903   9.723  0.0661  0.7295  0.4190
 1593SOL    HW1 6370   8.622   8.990   9.714 -0.9262  1.2649  1.1126
 1593SOL    HW2 6371   8.612   8.871   9.808  1.1631 -0.0174 -0.2177
 1593SOL     MW 6372   8.591   8.910   9.732  0.0795  0.7024  0.4263
 1594SOL     OW 6373   8.439  10.045   2.704  0.1089  0.0659 -0.0569
 1594SOL    HW1 6374   8.486   9.977   2.656 -1.4953 -2.0447  1.1737
 1594SOL    HW2 6375   8.347  10.026   2.689 -0.4105  1.0324  1.5929
 1594SOL     MW 6376   8.433  10.034   2.696 -0.1630 -0.0805  0.3118
 1595SOL     OW 6377   9.233   7.016   9.332 -0.0171 -0.0006 -0.0391
 1595SOL    HW1 6378   9.216   6.922   9.338  1.6595 -0.3957 -0.9398
 1595SOL    HW2 6379   9.146   7.056   9.329 -0.7618 -1.4834  0.6882
 1595SOL     MW 6380   9.219   7.009   9.333  0.1022 -0.2410 -0.0613
 1596SOL     OW 6381   9.262   4.303   9.971  0.4004  0.1179  0.5896
 1596SOL    HW1 6382   9.251   4.382  10.022 -0.6043  0.1458  0.3549
 1596SOL    HW2 6383   9.195   4.243  10.004  1.4231 -0.8074  1.0646
 1596SOL     MW 6384   9.252   4.305   9.982  0.4027  0.0030  0.6203
 1597SOL     OW 6385   0.039   1.168   1.251  0.1406 -0.5181 -0.3686
 1597SOL    HW1 6386  -0.003   1.196   1.332 -0.0179  0.7304 -0.8565
 1597SOL    HW2 6387   0.111   1.230   1.239 -1.1948  0.7681 -2.3247
 1597SOL     MW 6388   0.043   1.180   1.260 -0.0506 -0.1936 -0.6815
 1598SOL     OW 6389   8.444   1.331   2.870 -0.2573 -0.4078 -0.5746
 1598SOL    HW1 6390   8.448   1.406   2.811  0.4829 -0.2015 -0.2741
 1598SOL    HW2 6391   8.421   1.369   2.955 -2.4235 -0.8261 -0.9284
 1598SOL     MW 6392   8.442   1.345   2.873 -0.4398 -0.4350 -0.5814
 1599SOL     OW 6393   8.195   9.924   2.617 -0.3945  0.1489  0.1264
 1599SOL    HW1 6394   8.234   9.864   2.681 -1.0540 -0.6595 -0.2145
 1599SOL    HW2 6395   8.103   9.930   2.643 -0.3756  0.8833  0.0506
 1599SOL     MW 6396   8.189   9.917   2.629 -0.4765  0.1394  0.0731
 1600SOL     OW 6397   6.352   0.356   0.818 -0.1463 -0.4070  0.0480
 1600SOL    HW1 6398   6.441   0.330   0.839 -0.0178 -1.1000 -1.2403
 1600SOL    HW2 6399   6.349   0.450   0.835  0.1615 -0.7388  2.2145
 1600SOL     MW 6400   6.363   0.365   0.823 -0.0904 -0.5381  0.1604
 1601SOL     OW 6401   8.301   0.907   2.675  0.0012 -0.0517  0.3451
 1601SOL    HW1 6402   8.389   0.933   2.648  0.7402 -2.3086  0.4079
 1601SOL    HW2 6403   8.315   0.855   2.755 -1.2774 -1.2590 -0.1778
 1601SOL     MW 6404   8.314   0.904   2.682 -0.0679 -0.4952  0.2862
 1602SOL     OW 6405   6.925   1.376   1.507 -0.3035 -0.6717  0.1372
 1602SOL    HW1 6406   6.944   1.333   1.591  0.1593 -1.5258 -0.3875
 1602SOL    HW2 6407   7.009   1.411   1.479 -0.4824 -0.2876  0.0844
 1602SOL     MW 6408   6.938   1.375   1.514 -0.2672 -0.7319  0.0633
 1603SOL     OW 6409   9.469   6.257   9.821 -0.3103  0.1769 -0.0893
 1603SOL    HW1 6410   9.440   6.178   9.775  0.6672 -0.9064  1.0524
 1603SOL    HW2 6411   9.515   6.308   9.755 -1.3030 -0.0081 -0.9420
 1603SOL     MW 6412   9.471   6.253   9.807 -0.3122  0.0145 -0.0523
 1604SOL     OW 6413   9.082   2.281   2.905 -0.1701  0.5150  0.1848
 1604SOL    HW1 6414   9.118   2.279   2.817 -0.5429  0.8982  0.0241
 1604SOL    HW2 6415   9.153   2.247   2.960 -0.3199 -0.7776 -0.3870
 1604SOL     MW 6416   9.096   2.276   2.901 -0.2370  0.3986  0.0910
 1605SOL     OW 6417   8.816   3.321   2.371  0.5665  0.2568 -0.4297
 1605SOL    HW1 6418   8.795   3.383   2.441 -1.0567 -0.4407 -0.2569
 1605SOL    HW2 6419   8.802   3.235   2.410 -0.6239 -0.1464 -1.6530
 1605SOL     MW 6420   8.812   3.318   2.385  0.2064  0.1159 -0.5642
 1606SOL     OW 6421   7.615   2.881   0.882 -0.0507 -0.8616 -0.2358
 1606SOL    HW1 6422   7.573   2.967   0.876 -1.5773 -1.4263  1.5635
 1606SOL    HW2 6423   7.542   2.819   0.887  0.9251 -2.6066 -3.9382
 1606SOL     MW 6424   7.600   2.884   0.882 -0.1212 -1.1572 -0.4794
 1607SOL     OW 6425   7.174   5.983   2.307  0.3936 -0.4190 -0.0043
 1607SOL    HW1 6426   7.176   5.994   2.212 -0.4539  0.8302  0.1084
 1607SOL    HW2 6427   7.257   6.020   2.337  0.0102  0.5574 -0.1330
 1607SOL     MW 6428   7.185   5.989   2.299  0.2360 -0.1341 -0.0063
 1608SOL     OW 6429   8.217   8.505   0.463 -0.6386 -0.2508  0.0481
 1608SOL    HW1 6430   8.197   8.439   0.530  1.5381 -0.2965  0.7099
 1608SOL    HW2 6431   8.197   8.460   0.380  2.8345 -2.6855  0.3307
 1608SOL     MW 6432   8.212   8.491   0.461  0.0846 -0.5683  0.1690
 1609SOL     OW 6433   7.496  10.123   1.406  1.0384 -0.0902 -0.2806
 1609SOL    HW1 6434   7.474  10.216   1.414  1.7921  0.1109 -0.4139
 1609SOL    HW2 6435   7.465  10.098   1.319  1.1989  0.1437 -0.4055
 1609SOL     MW 6436   7.489  10.132   1.396  1.1554 -0.0345 -0.3137
 1610SOL     OW 6437   9.457   1.402   1.863  0.0272  0.5535  0.0645
 1610SOL    HW1 6438   9.536   1.441   1.903  0.3703  0.7897 -0.8320
 1610SOL    HW2 6439   9.465   1.421   1.770 -1.6233  1.5232  0.0771
 1610SOL     MW 6440   9.468   1.410   1.856 -0.1401  0.7078 -0.0487
 1611SOL     OW 6441   8.146   6.655   1.518 -0.1366 -0.5992  1.0025
 1611SOL    HW1 6442   8.168   6.621   1.605 -1.2380 -1.6449  0.9052
 1611SOL    HW2 6443   8.056   6.624   1.503 -0.1611  0.0385 -0.2765
 1611SOL     MW 6444   8.137   6.647   1.528 -0.2808 -0.6515  0.8263
 1612SOL     OW 6445   9.674   1.393   0.104 -0.1369  0.3682  0.7275
 1612SOL    HW1 6446   9.708   1.337   0.034  0.5544  2.1747 -0.4332
 1612SOL    HW2 6447   9.672   1.481   0.066 -1.4865  1.1123  2.3967
 1612SOL     MW 6448   9.678   1.397   0.090 -0.2212  0.6947  0.7926
 1613SOL     OW 6449   9.278   8.478   9.963 -0.0891 -0.0385  0.6410
 1613SOL    HW1 6450   9.207   8.466  10.026 -0.7390 -2.0544 -0.3810
 1613SOL    HW2 6451   9.237   8.463   9.878  1.6133 -1.6566  0.0414
 1613SOL     MW 6452   9.264   8.475   9.960  0.0456 -0.5037  0.4334
 1614SOL     OW 6453   8.175   2.791   2.781 -0.3613  0.2080  0.0923
 1614SOL    HW1 6454   8.253   2.742   2.809  0.9095  1.2774 -1.3817
 1614SOL    HW2 6455   8.210   2.870   2.740 -2.1432 -0.0948 -2.2236
 1614SOL     MW 6456   8.190   2.795   2.780 -0.4267  0.3062 -0.3928
 1615SOL     OW 6457   9.220   3.906   2.717  0.1965 -0.0651 -0.1809
 1615SOL    HW1 6458   9.224   3.856   2.635 -1.7888 -0.9656  0.2051
 1615SOL    HW2 6459   9.268   3.986   2.699 -1.4618  0.4568 -2.7567
 1615SOL     MW 6460   9.227   3.910   2.705 -0.2699 -0.1136 -0.4612
 1616SOL     OW 6461   8.409   3.358   0.814 -0.2417  0.4139  0.2837
 1616SOL    HW1 6462   8.397   3.336   0.722 -2.4826 -0.3991  0.6958
 1616SOL    HW2 6463   8.428   3.274   0.857  1.2247  0.8462  0.5371
 1616SOL     MW 6464   8.410   3.344   0.808 -0.3409  0.3651  0.3689
 1617SOL     OW 6465   9.355   1.044   0.436 -0.2005  0.0686 -0.1789
 1617SOL    HW1 6466   9.441   1.076   0.464 -0.4700  0.9698 -0.3617
 1617SOL    HW2 6467   9.341   1.085   0.351 -0.3346 -0.9581 -0.6684
 1617SOL     MW 6468   9.364   1.053   0.429 -0.2522  0.0526 -0.2649
 1618SOL     OW 6469   9.017   6.257   9.822 -0.0785  0.0334  0.1260
 1618SOL    HW1 6470   9.099   6.273   9.868  1.0372 -3.5672 -0.3089
 1618SOL    HW2 6471   9.028   6.171   9.782 -3.7150 -0.1673 -0.8108
 1618SOL     MW 6472   9.029   6.248   9.823 -0.4012 -0.4532 -0.0496
 1619SOL     OW 6473   9.101   6.551   0.497 -0.6065  0.8954 -0.1117
 1619SOL    HW1 6474   9.048   6.495   0.554 -0.3636  0.8491  0.0723
 1619SOL    HW2 6475   9.049   6.632   0.488 -0.1631  1.3387  1.0765
 1619SOL     MW 6476   9.088   6.554   0.503 -0.5187  0.9463  0.0639
 1620SOL     OW 6477   9.536   7.905   0.366  0.1604  0.2857  0.2617
 1620SOL    HW1 6478   9.524   7.913   0.271 -0.8028 -1.1350  0.2132
 1620SOL    HW2 6479   9.448   7.885   0.399 -0.2526  4.0640  1.9459
 1620SOL     MW 6480   9.523   7.903   0.358 -0.0158  0.5875  0.4711
 1621SOL     OW 6481   7.991   7.716   2.361  0.2883 -0.2928 -0.4924
 1621SOL    HW1 6482   7.905   7.730   2.322  0.4795  0.6523 -0.6043
 1621SOL    HW2 6483   8.039   7.797   2.343  0.2665  0.3530  1.9838
 1621SOL     MW 6484   7.987   7.729   2.354  0.3100 -0.0891 -0.1898
 1622SOL     OW 6485   9.597  10.008   1.011  0.0389  0.2952 -0.0460
 1622SOL    HW1 6486   9.529  10.075   1.001  1.0070  1.5210  1.2838
 1622SOL    HW2 6487   9.677  10.050   0.981  0.1654 -1.3822 -2.3182
 1622SOL     MW 6488   9.598  10.022   1.006  0.1790  0.2374 -0.1667
 1623SOL     OW 6489   8.039   1.558   9.373  0.9436 -0.0891  0.1970
 1623SOL    HW1 6490   8.070   1.594   9.289  0.9523 -0.9747 -0.1864
 1623SOL    HW2 6491   8.004   1.634   9.420  0.7841  0.3893 -0.6771
 1623SOL     MW 6492   8.039   1.573   9.368  0.9243 -0.1413  0.0360
 1624SOL     OW 6493   7.773   7.822   9.769 -0.0678  0.2722  0.3313
 1624SOL    HW1 6494   7.769   7.855   9.679  0.6125  1.3034  0.6618
 1624SOL    HW2 6495   7.696   7.766   9.778 -0.3169  0.4147 -0.7883
 1624SOL     MW 6496   7.763   7.819   9.759 -0.0126  0.4225  0.2303
 1625SOL     OW 6497   6.448   9.158   0.299 -0.0885 -0.4650  0.3961
 1625SOL    HW1 6498   6.425   9.238   0.252  1.6921 -0.7719 -1.0904
 1625SOL    HW2 6499   6.381   9.150   0.367 -2.5307  0.2413 -1.7789
 1625SOL     MW 6500   6.437   9.167   0.302 -0.1732 -0.4138 -0.0726
 1626SOL     OW 6501   6.040   6.702   0.721  0.0368  0.0585  0.0244
 1626SOL    HW1 6502   6.098   6.676   0.649 -2.0373  0.5194 -1.9064
 1626SOL    HW2 6503   5.966   6.744   0.678 -0.2868  2.3797  2.5829
 1626SOL     MW 6504   6.038   6.704   0.706 -0.2701  0.4146  0.1048
 1627SOL     OW 6505   9.483   2.947   9.799  0.5536  0.5112  0.4529
 1627SOL    HW1 6506   9.432   3.006   9.745  2.0259  0.5363 -0.9805
 1627SOL    HW2 6507   9.439   2.862   9.791 -1.1592  1.1787  1.9615
 1627SOL     MW 6508   9.471   2.944   9.791  0.5228  0.5999  0.4625
 1628SOL     OW 6509   9.023   2.604   1.037  0.0822 -0.0631 -0.3905
 1628SOL    HW1 6510   8.967   2.682   1.030  0.3111  0.1343 -0.0417
 1628SOL    HW2 6511   9.032   2.573   0.947 -0.6518 -0.1386 -0.4478
 1628SOL     MW 6512   9.017   2.610   1.025  0.0175 -0.0475 -0.3532
 1629SOL     OW 6513   8.058   3.452   0.141  0.7858 -0.1516  0.4086
 1629SOL    HW1 6514   7.988   3.517   0.146  1.0644  0.1775  0.0969
 1629SOL    HW2 6515   8.014   3.368   0.155  0.1296 -0.0647 -0.9079
 1629SOL     MW 6516   8.043   3.449   0.143  0.7374 -0.0984  0.2001
 1630SOL     OW 6517   8.638   9.162   1.420  0.4073 -0.1343 -0.5585
 1630SOL    HW1 6518   8.680   9.145   1.336 -1.0524 -1.0149 -1.1375
 1630SOL    HW2 6519   8.612   9.076   1.452  0.9645  0.1822  0.8324
 1630SOL     MW 6520   8.640   9.149   1.413  0.2918 -0.2065 -0.4546
 1631SOL     OW 6521   8.687   2.410  10.052 -0.2444  0.2712  0.0223
 1631SOL    HW1 6522   8.777   2.432  10.029 -0.5884 -0.4785 -2.2347
 1631SOL    HW2 6523   8.672   2.325  10.012 -2.7102  1.4784 -1.8956
 1631SOL     MW 6524   8.697   2.402  10.044 -0.6041  0.3297 -0.5121
 1632SOL     OW 6525   6.269   1.741   0.706 -0.4121 -0.1174 -0.3496
 1632SOL    HW1 6526   6.254   1.782   0.791  1.2768  0.2102 -0.1733
 1632SOL    HW2 6527   6.242   1.807   0.642  1.5732  1.0416 -0.0623
 1632SOL     MW 6528   6.264   1.754   0.708  0.0582  0.0729 -0.2903
 1633SOL     OW 6529   8.125   6.987   2.396  0.0702 -0.5105  0.7142
 1633SOL    HW1 6530   8.030   6.980   2.401 -0.2294  1.4992 -0.9665
 1633SOL    HW2 6531   8.151   6.916   2.338 -0.4479 -0.7694  0.7922
 1633SOL     MW 6532   8.117   6.977   2.389 -0.0345 -0.2864  0.5091
 1634SOL     OW 6533   9.596   3.324   1.151  0.1059 -0.3049 -0.5256
 1634SOL    HW1 6534   9.616   3.414   1.126 -1.9232  0.4950  0.4876
 1634SOL    HW2 6535   9.577   3.280   1.068 -0.2844  0.5984 -0.9260
 1634SOL     MW 6536   9.596   3.330   1.137 -0.2038 -0.0869 -0.4472
 1635SOL     OW 6537   9.512   8.955   2.152 -0.0559 -0.3734  0.0758
 1635SOL    HW1 6538   9.533   9.040   2.192 -0.9962 -0.2069  0.2429
 1635SOL    HW2 6539   9.491   8.976   2.061  1.5215 -0.6811 -0.3863
 1635SOL     MW 6540   9.512   8.969   2.145  0.0257 -0.3915  0.0380
 1636SOL     OW 6541   8.121   7.656  10.052 -0.0621  0.5858 -0.5291
 1636SOL    HW1 6542   8.203   7.608  10.061  0.3297  1.0426 -1.4371
 1636SOL    HW2 6543   8.092   7.639   9.962 -0.2369  1.5212 -0.6693
 1636SOL     MW 6544   8.128   7.648  10.041 -0.0343  0.7640 -0.6633
 1637SOL     OW 6545   8.846   7.111   0.543  0.0674 -0.4465 -0.1127
 1637SOL    HW1 6546   8.912   7.168   0.503  0.2412 -1.0015 -0.6334
 1637SOL    HW2 6547   8.781   7.097   0.474 -0.3657 -0.2722  0.2519
 1637SOL     MW 6548   8.846   7.117   0.529  0.0342 -0.4952 -0.1327
 1638SOL     OW 6549   8.343   5.417   0.746 -0.1416 -0.6096 -0.7921
 1638SOL    HW1 6550   8.324   5.503   0.782  3.3511  0.4844 -1.1568
 1638SOL    HW2 6551   8.327   5.356   0.818 -0.4864  0.6008  0.1763
 1638SOL     MW 6552   8.339   5.420   0.760  0.2613 -0.3146 -0.7148
 1639SOL     OW 6553   7.426   3.649   1.420  0.0497 -0.3369 -0.1899
 1639SOL    HW1 6554   7.453   3.705   1.492 -0.2577  0.2145 -0.5012
 1639SOL    HW2 6555   7.439   3.560   1.453  0.1334 -0.0893  0.4581
 1639SOL     MW 6556   7.431   3.644   1.433  0.0211 -0.2346 -0.1468
 1640SOL     OW 6557   8.435   7.424   0.947 -0.0643  0.3780  0.1849
 1640SOL    HW1 6558   8.426   7.341   0.995  1.2285  0.3806  0.4822
 1640SOL    HW2 6559   8.357   7.429   0.893  0.2802 -1.5271 -0.5865
 1640SOL     MW 6560   8.424   7.414   0.947  0.1453  0.1345  0.1242
 1641SOL     OW 6561   8.326   3.050   9.233 -0.4454  0.1098 -0.4453
 1641SOL    HW1 6562   8.380   3.125   9.207  0.2647  0.1967  1.1962
 1641SOL    HW2 6563   8.237   3.084   9.236 -0.0975  0.9779  0.5440
 1641SOL     MW 6564   8.321   3.064   9.230 -0.3100  0.2321 -0.1085
 1642SOL     OW 6565   8.409   8.170   1.728  0.1347 -0.5049  0.2704
 1642SOL    HW1 6566   8.481   8.198   1.672 -0.6147  2.1478  0.4712
 1642SOL    HW2 6567   8.436   8.193   1.816 -1.1479  1.2115  0.2836
 1642SOL     MW 6568   8.421   8.176   1.732 -0.1254  0.0544  0.2978
 1643SOL     OW 6569   7.011   3.343   0.809 -0.2826 -0.1877 -0.4080
 1643SOL    HW1 6570   6.970   3.407   0.868 -0.2394  1.3485 -1.9662
 1643SOL    HW2 6571   6.946   3.272   0.802 -0.3981 -0.2934  1.2301
 1643SOL     MW 6572   6.997   3.342   0.816 -0.2919 -0.0046 -0.3978
 1644SOL     OW 6573   7.767   6.265  10.092 -0.1010  0.3575 -0.1447
 1644SOL    HW1 6574   7.833   6.196  10.081 -1.2778 -0.7590 -0.5164
 1644SOL    HW2 6575   7.723   6.241  10.174 -0.7042  0.5034 -0.4258
 1644SOL     MW 6576   7.770   6.253  10.101 -0.3289  0.2333 -0.2283
 1645SOL     OW 6577   9.745   7.905   1.350  0.3785 -0.0856 -0.3889
 1645SOL    HW1 6578   9.750   7.965   1.275 -0.3374  1.7060  0.9145
 1645SOL    HW2 6579   9.834   7.904   1.386  0.4851 -0.1319 -0.6500
 1645SOL     MW 6580   9.757   7.913   1.345  0.3005  0.1378 -0.2555
 1646SOL     OW 6581  10.057   4.861   0.140 -0.5346 -0.0026  0.0898
 1646SOL    HW1 6582  10.033   4.782   0.189  0.3470  0.0184  0.5731
 1646SOL    HW2 6583  10.133   4.834   0.088 -0.1888  0.5461  0.3086
 1646SOL     MW 6584  10.063   4.847   0.140 -0.3774  0.0703  0.1797
 1647SOL     OW 6585   6.882   8.212   1.428 -0.1544  0.5504  0.5841
 1647SOL    HW1 6586   6.946   8.280   1.407 -0.2711  1.1914  2.2333
 1647SOL    HW2 6587   6.805   8.234   1.374  1.0210 -0.3550 -1.5807
 1647SOL     MW 6588   6.880   8.224   1.418 -0.0189  0.5165  0.5181
 1648SOL     OW 6589   7.465   2.632   0.914  0.2977  0.4974 -0.1697
 1648SOL    HW1 6590   7.541   2.575   0.905 -0.3727 -0.5435  0.5411
 1648SOL    HW2 6591   7.400   2.595   0.855  0.8214  2.3183 -2.0130
 1648SOL     MW 6592   7.466   2.620   0.906  0.2789  0.5972 -0.3147
 1649SOL     OW 6593   7.230   9.844   9.841 -0.2068  0.1961 -0.3640
 1649SOL    HW1 6594   7.177   9.797   9.777 -0.4438  1.0304 -0.7958
 1649SOL    HW2 6595   7.175   9.847   9.920 -0.0111 -0.6263 -0.1985
 1649SOL     MW 6596   7.216   9.839   9.843 -0.2120  0.1976 -0.3981
 1650SOL     OW 6597   7.180   0.943   0.285 -0.2128 -0.0384 -0.3733
 1650SOL    HW1 6598   7.256   0.939   0.227 -1.1200 -0.9021 -1.5432
 1650SOL    HW2 6599   7.170   1.036   0.305  0.9642  0.1133 -0.4352
 1650SOL     MW 6600   7.188   0.955   0.280 -0.1782 -0.1295 -0.5310
 1651SOL     OW 6601   9.657   2.013   0.245  0.0903 -0.2854 -0.3614
 1651SOL    HW1 6602   9.735   2.035   0.296  0.3621 -0.5151 -0.6715
 1651SOL    HW2 6603   9.603   2.092   0.247 -0.1524 -0.4668  0.7390
 1651SOL     MW 6604   9.660   2.026   0.252  0.0941 -0.3380 -0.2603
 1652SOL     OW 6605   9.535   3.286   9.753  0.0927 -0.1791 -0.7404
 1652SOL    HW1 6606   9.625   3.255   9.764 -0.2443 -1.0750 -0.4325
 1652SOL    HW2 6607   9.544   3.368   9.704  1.1272  0.1314 -0.0842
 1652SOL     MW 6608   9.548   3.293   9.748  0.1820 -0.2541 -0.6170
 1653SOL     OW 6609   7.447   3.300   0.026  0.2132 -0.0950 -0.6163
 1653SOL    HW1 6610   7.427   3.294  -0.067 -0.6406 -0.3290 -0.4245
 1653SOL    HW2 6611   7.391   3.234   0.067  1.4648 -0.8542 -0.0624
 1653SOL     MW 6612   7.438   3.291   0.020  0.2641 -0.2221 -0.5208
 1654SOL     OW 6613   7.565   9.402   2.874 -0.4116 -0.3648  0.6418
 1654SOL    HW1 6614   7.499   9.449   2.822 -1.1854 -0.4928  1.4710
 1654SOL    HW2 6615   7.588   9.463   2.943  0.2022 -0.4030  0.4746
 1654SOL     MW 6616   7.559   9.416   2.876 -0.4321 -0.3860  0.7266
 1655SOL     OW 6617   7.914   5.443   1.250  0.0014  0.3031  1.0835
 1655SOL    HW1 6618   7.966   5.384   1.304  0.4129  0.4357  0.8390
 1655SOL    HW2 6619   7.831   5.397   1.237  0.7319 -0.7672 -0.0842
 1655SOL     MW 6620   7.910   5.430   1.255  0.1476  0.1830  0.9027
 1656SOL     OW 6621   8.791   8.560   9.973  0.3945  0.2090 -0.5353
 1656SOL    HW1 6622   8.864   8.613   9.942 -1.5320  2.5482 -1.3482
 1656SOL    HW2 6623   8.750   8.526   9.893 -0.5817  0.6033 -0.2158
 1656SOL     MW 6624   8.795   8.562   9.959  0.0229  0.5589 -0.5984
 1657SOL     OW 6625   9.798   8.328   2.006 -0.1450  0.1224 -0.6829
 1657SOL    HW1 6626   9.872   8.388   1.996 -0.5109  0.7532  0.1776
 1657SOL    HW2 6627   9.751   8.334   1.924  0.9147 -0.5115 -1.3566
 1657SOL     MW 6628   9.802   8.337   1.994 -0.0562  0.1220 -0.6590
 1658SOL     OW 6629   6.324   8.083   0.150  0.3541 -0.4644  0.4009
 1658SOL    HW1 6630   6.395   8.026   0.122  0.2401 -0.3647 -0.1190
 1658SOL    HW2 6631   6.330   8.159   0.092 -1.4990 -1.4145 -1.1674
 1658SOL     MW 6632   6.334   8.086   0.139  0.1023 -0.5733  0.1336
 1659SOL     OW 6633   9.233   2.784   0.780  0.5128 -0.1081 -0.2212
 1659SOL    HW1 6634   9.236   2.698   0.821  0.7935 -0.4394 -0.9280
 1659SOL    HW2 6635   9.167   2.832   0.831  1.8021 -0.0457  1.4711
 1659SOL     MW 6636   9.225   2.779   0.792  0.7138 -0.1425 -0.0950
 1660SOL     OW 6637   7.426   0.160   9.261 -0.0891  0.5647 -0.1733
 1660SOL    HW1 6638   7.351   0.103   9.277  0.1233  0.2628 -0.2559
 1660SOL    HW2 6639   7.414   0.233   9.323  1.1904 -1.0283  2.0856
 1660SOL     MW 6640   7.415   0.162   9.271  0.1019  0.3221  0.1053
 1661SOL     OW 6641   9.902   8.504   0.107  0.1098 -0.0566 -0.7532
 1661SOL    HW1 6642   9.814   8.466   0.109  1.3577 -3.3376 -0.9000
 1661SOL    HW2 6643   9.936   8.489   0.195  0.9127  0.1535 -1.0219
 1661SOL     MW 6644   9.895   8.497   0.119  0.3723 -0.4497 -0.8064
 1662SOL     OW 6645   8.633   2.406   0.918  0.0851  0.0200  0.3793
 1662SOL    HW1 6646   8.603   2.494   0.894 -1.4729 -1.0123 -1.8387
 1662SOL    HW2 6647   8.557   2.366   0.961  0.5436 -0.4683  0.7372
 1662SOL     MW 6648   8.619   2.412   0.920 -0.0556 -0.1747  0.1412
 1663SOL     OW 6649   8.316   0.753   1.566 -0.1324 -0.1773 -0.3053
 1663SOL    HW1 6650   8.398   0.768   1.518  0.4836 -0.2902  0.6823
 1663SOL    HW2 6651   8.327   0.800   1.648 -0.9188 -0.4873 -0.0100
 1663SOL     MW 6652   8.328   0.761   1.570 -0.1542 -0.2314 -0.1411
 1664SOL     OW 6653   9.638   5.243  10.009  0.3077  0.1642 -0.4927
 1664SOL    HW1 6654   9.676   5.282  10.088  1.1919  2.2735 -1.8744
 1664SOL    HW2 6655   9.578   5.176  10.042 -1.0626  2.4556  2.0898
 1664SOL     MW 6656   9.635   5.239  10.024  0.2455  0.7275 -0.3390
 1665SOL     OW 6657  10.150   2.098   2.645  0.2837  0.3280 -0.0007
 1665SOL    HW1 6658  10.076   2.064   2.595  0.1483 -0.6417  0.8193
 1665SOL    HW2 6659  10.205   2.142   2.580 -0.4293  0.0531 -0.8110
 1665SOL     MW 6660  10.148   2.099   2.630  0.1751  0.1686  0.0006
 1666SOL     OW 6661   9.330   2.655  10.124 -0.4176 -0.2025 -1.0768
 1666SOL    HW1 6662   9.308   2.747  10.109  0.4127  0.4453  1.1953
 1666SOL    HW2 6663   9.408   2.658  10.180 -1.1287 -2.2421  0.1410
 1666SOL     MW 6664   9.337   2.667  10.129 -0.4023 -0.3806 -0.6301
 1667SOL     OW 6665   5.992   9.186   1.472  0.2574  0.1069  0.4285
 1667SOL    HW1 6666   5.908   9.160   1.434  0.4599  0.8897 -0.6011
 1667SOL    HW2 6667   6.057   9.161   1.406  0.8093 -0.1911  1.0732
 1667SOL     MW 6668   5.990   9.179   1.459  0.3540  0.1690  0.3792
 1668SOL     OW 6669   9.684   9.587   2.021 -0.0873 -0.2358 -0.3697
 1668SOL    HW1 6670   9.617   9.580   2.089  0.2093 -2.2070 -0.2341
 1668SOL    HW2 6671   9.640   9.558   1.941  0.3353 -0.5977 -0.4713
 1668SOL     MW 6672   9.670   9.583   2.020  0.0047 -0.5345 -0.3653
 1669SOL     OW 6673   9.445   6.699  10.124  0.1797 -0.3001  0.3263
 1669SOL    HW1 6674   9.528   6.654  10.108  0.5948  0.7911 -0.7115
 1669SOL    HW2 6675   9.379   6.643  10.083  0.9388  1.0787 -3.1495
 1669SOL     MW 6676   9.447   6.686  10.117  0.3300  0.0161 -0.2515
 1670SOL     OW 6677   9.486   4.628   9.747 -0.3818  0.0820  0.1765
 1670SOL    HW1 6678   9.569   4.609   9.792 -1.1345  0.4936  1.8218
 1670SOL    HW2 6679   9.442   4.543   9.742  0.0473 -0.1072 -0.5457
 1670SOL     MW 6680   9.491   4.614   9.753 -0.4232  0.1105  0.2947
 1671SOL     OW 6681   8.459   1.512   2.104  0.0454  0.3630  0.0122
 1671SOL    HW1 6682   8.384   1.571   2.093 -1.5896 -1.6422 -0.3241
 1671SOL    HW2 6683   8.509   1.521   2.023  1.9470  3.9313  1.4177
 1671SOL     MW 6684   8.456   1.520   2.092  0.0795  0.5631  0.1491
 1672SOL     OW 6685   9.630   4.902   2.426 -0.4390 -0.3326  0.3010
 1672SOL    HW1 6686   9.570   4.861   2.364 -0.0390 -0.9019  0.2881
 1672SOL    HW2 6687   9.713   4.905   2.380 -0.3703  0.1426  0.4502
 1672SOL     MW 6688   9.633   4.898   2.412 -0.3790 -0.3446  0.3185
 1673SOL     OW 6689   9.344   7.499   0.343  0.1770 -0.7626  0.2299
 1673SOL    HW1 6690   9.433   7.509   0.375 -0.2779  0.7133  1.1556
 1673SOL    HW2 6691   9.293   7.475   0.420 -0.1629 -2.2148 -0.4085
 1673SOL     MW 6692   9.349   7.497   0.357  0.0753 -0.7596  0.2667
 1674SOL     OW 6693   7.870   3.274   0.273  0.4520  0.1636 -0.1934
 1674SOL    HW1 6694   7.775   3.272   0.268  0.4085 -1.3203  0.4316
 1674SOL    HW2 6695   7.897   3.188   0.241  1.4921  0.0880  0.8121
 1674SOL     MW 6696   7.861   3.263   0.268  0.5796 -0.0360  0.0153
 1675SOL     OW 6697   7.711   3.246   1.410  0.2055 -0.0773 -0.1446
 1675SOL    HW1 6698   7.680   3.186   1.477 -0.1789  0.8959  0.5811
 1675SOL    HW2 6699   7.754   3.316   1.459 -1.9980  1.7987 -0.7288
 1675SOL     MW 6700   7.713   3.248   1.425 -0.1258  0.2874 -0.1265
 1676SOL     OW 6701   6.507   7.847   2.262  0.0443  0.0823 -0.1273
 1676SOL    HW1 6702   6.486   7.936   2.291 -0.7988 -0.3209  0.5509
 1676SOL    HW2 6703   6.469   7.842   2.174  1.3001  0.8240 -0.7350
 1676SOL     MW 6704   6.499   7.858   2.254  0.0971  0.1256 -0.1182
 1677SOL     OW 6705   0.177   2.558   1.358 -0.1898 -0.6322 -0.3805
 1677SOL    HW1 6706   0.201   2.642   1.317 -0.4769  0.1655  1.0156
 1677SOL    HW2 6707   0.258   2.508   1.361  0.7274  0.8644  1.6282
 1677SOL     MW 6708   0.190   2.563   1.353 -0.1092 -0.3385  0.0554
 1678SOL     OW 6709   6.503   9.401   9.882 -0.5322  0.1780  0.3328
 1678SOL    HW1 6710   6.585   9.417   9.836 -0.3369 -0.8158  0.3283
 1678SOL    HW2 6711   6.514   9.316   9.923 -1.2781  0.3756  0.9726
 1678SOL     MW 6712   6.515   9.392   9.881 -0.6027  0.0761  0.4141
 1679SOL     OW 6713   8.530   5.833   9.014  0.3609  0.3289 -0.3771
 1679SOL    HW1 6714   8.515   5.912   9.067 -0.9032  0.0372 -0.2780
 1679SOL    HW2 6715   8.554   5.765   9.077  0.5918  0.4102 -0.3743
 1679SOL     MW 6716   8.532   5.835   9.029  0.2287  0.3020 -0.3641
 1680SOL     OW 6717   6.457   1.576   1.910  0.5484 -0.5624 -0.6208
 1680SOL    HW1 6718   6.402   1.545   1.838 -1.7546 -0.2026  0.8817
 1680SOL    HW2 6719   6.478   1.667   1.887  0.3848 -0.6560 -1.1500
 1680SOL     MW 6720   6.453   1.584   1.898  0.2327 -0.5283 -0.4962
 1681SOL     OW 6721   8.863   0.797   2.567  0.7266 -0.3961 -0.2066
 1681SOL    HW1 6722   8.826   0.820   2.652 -0.4848  2.2610 -1.3347
 1681SOL    HW2 6723   8.921   0.870   2.546  2.3469 -1.8247 -0.9718
 1681SOL     MW 6724   8.866   0.809   2.575  0.7789 -0.2388 -0.4490
 1682SOL     OW 6725   7.439   6.250   9.652 -0.0819  0.0100 -0.6093
 1682SOL    HW1 6726   7.488   6.240   9.733  0.9883  0.1728 -1.2285
 1682SOL    HW2 6727   7.367   6.187   9.660  0.4785 -0.5491  0.1205
 1682SOL     MW 6728   7.436   6.240   9.663  0.1268 -0.0407 -0.5952
 1683SOL     OW 6729   9.188   9.074   1.786  0.5490  0.4464 -0.1249
 1683SOL    HW1 6730   9.144   9.012   1.845  0.3444 -0.7138 -1.4530
 1683SOL    HW2 6731   9.278   9.079   1.820  0.9146 -1.5369 -0.6445
 1683SOL     MW 6732   9.194   9.067   1.798  0.5696  0.0440 -0.3615
 1684SOL     OW 6733   8.618   1.305   1.354 -0.4277  0.1397  0.3664
 1684SOL    HW1 6734   8.699   1.356   1.350 -0.6593  0.4115 -1.0987
 1684SOL    HW2 6735   8.629   1.237   1.289 -1.0470 -0.3425  0.7558
 1684SOL     MW 6736   8.630   1.303   1.345 -0.5366  0.1128  0.2287
 1685SOL     OW 6737   7.198   6.358   1.023 -0.0937  0.3634 -0.2983
 1685SOL    HW1 6738   7.124   6.368   1.083 -0.1238  1.2529 -0.4726
 1685SOL    HW2 6739   7.240   6.444   1.023  2.0193 -0.5996  1.1997
 1685SOL     MW 6740   7.194   6.370   1.031  0.1729  0.3540 -0.1289
 1686SOL     OW 6741   9.297   1.742   1.213 -0.0736  0.6373  0.2634
 1686SOL    HW1 6742   9.224   1.689   1.245  0.2863 -1.1266 -1.6135
 1686SOL    HW2 6743   9.256   1.801   1.149 -0.0728  0.6488  0.2736
 1686SOL     MW 6744   9.282   1.743   1.209 -0.0274  0.4130  0.0245
 1687SOL     OW 6745   6.786   2.928   2.041 -0.1976  0.1488  0.2441
 1687SOL    HW1 6746   6.868   2.878   2.043 -1.0810 -1.5189 -1.6548
 1687SOL    HW2 6747   6.806   3.009   2.088  2.9694  0.4485 -1.3788
 1687SOL     MW 6748   6.799   2.932   2.047  0.0947 -0.0263 -0.2067
 1688SOL     OW 6749   7.245   2.538   0.165  0.1638  0.6147  0.5754
 1688SOL    HW1 6750   7.276   2.626   0.186  1.7951 -0.2312  1.9075
 1688SOL    HW2 6751   7.297   2.512   0.089 -0.3796  0.8023  0.1278
 1688SOL     MW 6752   7.255   2.546   0.158  0.3030  0.5304  0.6886
 1689SOL     OW 6753   8.825   0.177   0.978  0.0305 -0.5187 -0.2620
 1689SOL    HW1 6754   8.894   0.192   0.914 -0.5629  0.8326 -0.6168
 1689SOL    HW2 6755   8.766   0.115   0.936 -1.3412  1.7304 -1.8496
 1689SOL     MW 6756   8.826   0.171   0.965 -0.2211 -0.0578 -0.5107
 1690SOL     OW 6757   6.455   8.496   0.788  0.2208  0.0136  0.0386
 1690SOL    HW1 6758   6.471   8.587   0.762 -0.9587  0.6129  1.2826
 1690SOL    HW2 6759   6.525   8.477   0.852  0.1589  0.2269  0.1716
 1690SOL     MW 6760   6.466   8.505   0.793  0.0619  0.1176  0.2149
 1691SOL     OW 6761   8.549   6.811   0.258  1.2500  0.1216  0.6935
 1691SOL    HW1 6762   8.617   6.751   0.289  0.6384 -0.5897  0.6900
 1691SOL    HW2 6763   8.467   6.773   0.290  0.5191 -0.8971 -2.0410
 1691SOL     MW 6764   8.547   6.798   0.266  1.0782 -0.0999  0.3430
 1692SOL     OW 6765   9.522   0.503   2.180  0.0190 -0.1916 -0.0360
 1692SOL    HW1 6766   9.466   0.554   2.122  0.9416 -0.9848 -1.7001
 1692SOL    HW2 6767   9.603   0.553   2.185  1.0431 -1.5009 -1.9195
 1692SOL     MW 6768   9.525   0.516   2.173  0.2682 -0.4608 -0.4901
 1693SOL     OW 6769   6.941   2.402   0.602  0.3681 -0.4004  0.1196
 1693SOL    HW1 6770   6.859   2.430   0.642  0.2892  0.4988 -0.6577
 1693SOL    HW2 6771   6.999   2.478   0.611  1.2245 -1.1245  0.9276
 1693SOL     MW 6772   6.938   2.415   0.608  0.4676 -0.3780  0.1236
 1694SOL     OW 6773   8.818   3.091   2.509  0.2573  0.0575 -0.2948
 1694SOL    HW1 6774   8.740   3.070   2.561  0.0423  0.7657 -0.3274
 1694SOL    HW2 6775   8.889   3.097   2.573  0.3300 -0.7422 -0.2815
 1694SOL     MW 6776   8.817   3.089   2.524  0.2391  0.0458 -0.2973
 1695SOL     OW 6777   9.777   5.278   2.362  0.0575  0.4587  0.1302
 1695SOL    HW1 6778   9.784   5.235   2.448  1.0929  0.6293  0.1443
 1695SOL    HW2 6779   9.864   5.270   2.325 -0.4961 -0.0223 -1.1180
 1695SOL     MW 6780   9.789   5.271   2.368  0.1191  0.4190 -0.0278
 1696SOL     OW 6781   6.520   9.142   0.811  0.3113  0.5484 -0.0980
 1696SOL    HW1 6782   6.573   9.118   0.734  0.0551  0.8363 -0.3681
 1696SOL    HW2 6783   6.433   9.110   0.791  0.1316  1.0540 -0.1422
 1696SOL     MW 6784   6.516   9.135   0.798  0.2555  0.6500 -0.1382
 1697SOL     OW 6785   9.321   0.115   1.303 -0.0704 -0.5526  0.2758
 1697SOL    HW1 6786   9.377   0.090   1.376  0.8185 -2.1433 -0.8690
 1697SOL    HW2 6787   9.252   0.048   1.301  0.2635 -0.8911 -0.6756
 1697SOL     MW 6788   9.319   0.103   1.312  0.0862 -0.7996  0.0075
 1698SOL     OW 6789   6.860   4.427   0.142 -0.1482  0.0148 -0.2558
 1698SOL    HW1 6790   6.857   4.418   0.237  0.6482 -0.1186 -0.2388
 1698SOL    HW2 6791   6.847   4.338   0.109 -0.1866  0.0236 -0.2646
 1698SOL     MW 6792   6.858   4.414   0.150 -0.0511 -0.0011 -0.2547
 1699SOL     OW 6793   6.172  10.144   9.991  0.2401 -0.1103 -0.1238
 1699SOL    HW1 6794   6.197  10.213   9.930  0.9053 -1.3205 -1.2848
 1699SOL    HW2 6795   6.142  10.072   9.935 -1.3508 -0.4432  1.0787
 1699SOL     MW 6796   6.171  10.143   9.976  0.1216 -0.3079 -0.1185
 1700SOL     OW 6797   8.875   8.149   9.182 -0.0080  0.1262 -0.0350
 1700SOL    HW1 6798   8.793   8.124   9.224 -0.1156  0.7918  0.1722
 1700SOL    HW2 6799   8.895   8.077   9.123 -0.8052  0.0072 -0.1731
 1700SOL     MW 6800   8.867   8.137   9.180 -0.1238  0.1961 -0.0261
 1701SOL     OW 6801   8.705   0.095   1.270 -0.1388  0.1415 -0.4942
 1701SOL    HW1 6802   8.716   0.009   1.230  0.9238  0.1778 -0.3081
 1701SOL    HW2 6803   8.785   0.143   1.247 -0.6300  1.0108 -0.4302
 1701SOL     MW 6804   8.717   0.090   1.262 -0.0656  0.2574 -0.4622
 1702SOL     OW 6805   9.515   0.822   9.277  0.0574  0.3397 -0.5165
 1702SOL    HW1 6806   9.505   0.729   9.257 -0.1467  0.4093 -0.7499
 1702SOL    HW2 6807   9.605   0.831   9.307 -0.1020 -0.0386  0.0895
 1702SOL     MW 6808   9.525   0.812   9.278  0.0109  0.3002 -0.4688
 1703SOL     OW 6809   7.561   2.402   9.411  0.7227 -0.0282  0.0719
 1703SOL    HW1 6810   7.606   2.340   9.354 -2.8105 -2.0324 -0.8703
 1703SOL    HW2 6811   7.528   2.469   9.352  0.4743  0.1105  0.3654
 1703SOL     MW 6812   7.562   2.402   9.396  0.2386 -0.2670 -0.0111
 1704SOL     OW 6813   7.525   2.607   2.160 -0.1411 -0.1370 -0.2727
 1704SOL    HW1 6814   7.477   2.573   2.236 -0.1953  0.4189 -0.0595
 1704SOL    HW2 6815   7.475   2.576   2.084 -0.1138 -0.6527 -0.0880
 1704SOL     MW 6816   7.513   2.598   2.160 -0.1446 -0.1318 -0.2217
 1705SOL     OW 6817   7.693   5.013   2.250 -0.0191 -0.0953  0.1699
 1705SOL    HW1 6818   7.645   5.001   2.331  1.9799 -0.4849  1.3491
 1705SOL    HW2 6819   7.705   4.924   2.216 -1.1801  0.0863 -0.8145
 1705SOL     MW 6820   7.688   5.000   2.256  0.0882 -0.1219  0.1948
 1706SOL     OW 6821   7.904   9.563   1.041 -0.2192 -0.5130  0.1149
 1706SOL    HW1 6822   7.809   9.561   1.033 -0.2461  0.6439 -0.0756
 1706SOL    HW2 6823   7.930   9.471   1.043 -1.6011 -0.9849  3.7577
 1706SOL     MW 6824   7.895   9.551   1.040 -0.3996 -0.4253  0.5568
 1707SOL     OW 6825   9.931  10.138   1.495  0.0091  0.3447  0.2918
 1707SOL    HW1 6826   9.975  10.215   1.531 -0.3302  0.4496  0.4878
 1707SOL    HW2 6827   9.889  10.097   1.571 -0.6715  0.5423  0.0279
 1707SOL     MW 6828   9.931  10.143   1.510 -0.1215  0.3834  0.2831
 1708SOL     OW 6829   9.358   5.711   9.639 -0.2403 -0.6125  0.0801
 1708SOL    HW1 6830   9.424   5.727   9.572 -0.6229  1.1489  0.0654
 1708SOL    HW2 6831   9.383   5.628   9.679  0.3289 -1.4101 -1.8356
 1708SOL     MW 6832   9.370   5.703   9.636 -0.2164 -0.4891 -0.1670
 1709SOL     OW 6833  10.133   0.548   1.342  0.0633 -0.2750 -0.0128
 1709SOL    HW1 6834  10.189   0.500   1.403 -0.5192 -1.1534 -0.1628
 1709SOL    HW2 6835  10.122   0.634   1.383  1.9747  0.1287 -0.2372
 1709SOL     MW 6836  10.139   0.553   1.355  0.2334 -0.3357 -0.0607
 1710SOL     OW 6837   6.672   1.570   0.102 -0.5047 -0.2071 -0.0387
 1710SOL    HW1 6838   6.631   1.549   0.018 -0.7163  0.6342 -0.1551
 1710SOL    HW2 6839   6.683   1.665   0.100  1.2073 -0.3781  0.1101
 1710SOL     MW 6840   6.668   1.579   0.091 -0.3126 -0.1213 -0.0345
 1711SOL     OW 6841   6.444   1.022   1.470 -0.0600  0.2512  0.2604
 1711SOL    HW1 6842   6.407   1.082   1.535  1.1232  2.3672 -0.9217
 1711SOL    HW2 6843   6.489   1.078   1.408 -0.2766 -1.7677 -1.8660
 1711SOL     MW 6844   6.445   1.037   1.470  0.0637  0.2637 -0.1631
 1712SOL     OW 6845   6.841   6.019   0.545  0.3125  0.0918  0.6221
 1712SOL    HW1 6846   6.853   6.021   0.640  0.0380  0.2598  0.6558
 1712SOL    HW2 6847   6.874   6.104   0.515  0.7361 -0.1038  0.5218
 1712SOL     MW 6848   6.847   6.030   0.554  0.3316  0.0883  0.6136
 1713SOL     OW 6849   0.288   1.661   0.340  0.1608 -0.0691  0.4885
 1713SOL    HW1 6850   0.223   1.617   0.394 -1.7114  0.5318 -1.1934
 1713SOL    HW2 6851   0.309   1.741   0.389 -0.7870  0.0054  0.7787
 1713SOL     MW 6852   0.283   1.666   0.353 -0.2002  0.0173  0.3103
 1714SOL     OW 6853   9.792   6.345   0.093 -0.2496 -0.2553 -0.1559
 1714SOL    HW1 6854   9.883   6.371   0.080 -0.5936  0.7024 -0.7594
 1714SOL    HW2 6855   9.765   6.310   0.008 -0.4921 -0.4142 -0.0164
 1714SOL     MW 6856   9.800   6.344   0.080 -0.3246 -0.1531 -0.2153
 1715SOL     OW 6857  10.131   7.293   1.744  0.0273  0.0018 -0.0697
 1715SOL    HW1 6858  10.102   7.342   1.667 -0.7710 -0.4120 -0.0517
 1715SOL    HW2 6859  10.059   7.303   1.807  0.2632 -0.4225  0.2747
 1715SOL     MW 6860  10.118   7.300   1.742 -0.0447 -0.1055 -0.0233
 1716SOL     OW 6861   0.227   6.012   0.355  0.4651 -0.3732  0.1994
 1716SOL    HW1 6862   0.285   6.079   0.317  0.2017  0.0340  0.5157
 1716SOL    HW2 6863   0.222   5.945   0.287  0.8010 -0.1165 -0.0872
 1716SOL     MW 6864   0.234   6.012   0.341  0.4744 -0.2882  0.2032
 1717SOL     OW 6865   8.788   1.966   9.674 -0.2271  0.2583  0.8122
 1717SOL    HW1 6866   8.871   1.951   9.630 -1.3414  1.6899 -2.0097
 1717SOL    HW2 6867   8.794   2.056   9.707 -0.5484  0.2734  0.8380
 1717SOL     MW 6868   8.799   1.976   9.673 -0.4109  0.4435  0.4543
 1718SOL     OW 6869   7.335   7.667  10.090  0.0137  0.0232 -0.0366
 1718SOL    HW1 6870   7.408   7.713  10.047 -0.3719  1.0272  0.3601
 1718SOL    HW2 6871   7.317   7.719  10.168 -2.3198  0.8631 -1.0318
 1718SOL     MW 6872   7.342   7.680  10.094 -0.3344  0.2593 -0.1132
 1719SOL     OW 6873   9.561   5.148   9.243  0.3365 -0.6805  0.1080
 1719SOL    HW1 6874   9.625   5.206   9.203 -0.2131 -0.8029 -0.9897
 1719SOL    HW2 6875   9.477   5.175   9.205 -0.1198 -1.2038  0.7221
 1719SOL     MW 6876   9.558   5.159   9.233  0.2078 -0.7632  0.0461
 1720SOL     OW 6877   8.737   1.631   0.556 -0.5133  0.4074  0.3693
 1720SOL    HW1 6878   8.736   1.697   0.625 -1.1978  1.5358 -0.6737
 1720SOL    HW2 6879   8.773   1.677   0.479  0.1625 -0.7868 -0.0604
 1720SOL     MW 6880   8.741   1.645   0.555 -0.5144  0.3990  0.1808
 1721SOL     OW 6881  10.130   9.043   0.646  0.1647 -0.4341  0.1584
 1721SOL    HW1 6882  10.087   9.097   0.712  1.8877 -0.4764  1.3449
 1721SOL    HW2 6883  10.091   8.956   0.658 -0.8805 -0.0356 -0.1720
 1721SOL     MW 6884  10.119   9.039   0.656  0.2515 -0.3885  0.2680
 1722SOL     OW 6885   7.633   0.061   1.702  0.1901 -0.4289  0.1226
 1722SOL    HW1 6886   7.604  -0.011   1.758 -0.1821 -0.0642  0.4053
 1722SOL    HW2 6887   7.704   0.103   1.750 -0.1859 -0.0635  0.3670
 1722SOL     MW 6888   7.638   0.057   1.715  0.0943 -0.3354  0.1901
 1723SOL     OW 6889   7.037   7.791   9.967  0.0219 -0.0827  0.5691
 1723SOL    HW1 6890   7.031   7.792  10.063 -0.3842  0.3666  0.5445
 1723SOL    HW2 6891   6.988   7.714   9.940 -0.1562 -0.0182  0.7079
 1723SOL     MW 6892   7.030   7.782   9.976 -0.0528 -0.0170  0.5837
 1724SOL     OW 6893   9.654   1.569   2.726 -0.1685 -0.1034 -0.2921
 1724SOL    HW1 6894   9.718   1.570   2.656 -0.9947 -0.0442 -1.0732
 1724SOL    HW2 6895   9.664   1.654   2.769  0.4475 -0.1998 -0.2382
 1724SOL     MW 6896   9.663   1.580   2.723 -0.1954 -0.1082 -0.3852
 1725SOL     OW 6897   8.450   3.682   9.920  0.3362 -0.4377 -0.0672
 1725SOL    HW1 6898   8.413   3.736   9.850  1.1883 -0.7046 -0.7571
 1725SOL    HW2 6899   8.481   3.603   9.875  1.2439 -0.4493  0.5414
 1725SOL     MW 6900   8.450   3.678   9.905  0.5615 -0.4733 -0.0776
 1726SOL     OW 6901   9.187   6.518   1.770 -0.1769 -0.4961  1.0119
 1726SOL    HW1 6902   9.133   6.443   1.795 -1.0598 -0.2421 -0.0714
 1726SOL    HW2 6903   9.259   6.517   1.833 -1.3197 -0.9596  2.3898
 1726SOL     MW 6904   9.189   6.508   1.781 -0.4362 -0.5230  1.0496
 1727SOL     OW 6905   8.743   3.989  10.121 -0.8431 -0.0757  0.2362
 1727SOL    HW1 6906   8.687   3.911  10.120 -1.5609  0.4228  0.4271
 1727SOL    HW2 6907   8.696   4.051  10.177  0.4394 -0.0290  1.2993
 1727SOL     MW 6908   8.730   3.987  10.128 -0.7708 -0.0059  0.3967
 1728SOL     OW 6909   7.103   7.803   9.586  0.3060 -0.5520 -0.2260
 1728SOL    HW1 6910   7.148   7.725   9.553  0.4705  0.1228 -1.6716
 1728SOL    HW2 6911   7.141   7.819   9.672  1.0100 -1.4571 -0.3561
 1728SOL     MW 6912   7.113   7.795   9.592  0.4172 -0.5815 -0.4277
 1729SOL     OW 6913   7.560   2.734   1.799  0.0578 -0.1127 -0.7281
 1729SOL    HW1 6914   7.610   2.661   1.762 -0.2264 -0.5774 -0.1909
 1729SOL    HW2 6915   7.627   2.800   1.819  0.5081 -0.8171  0.1870
 1729SOL     MW 6916   7.575   2.733   1.797  0.0791 -0.2623 -0.5422
 1730SOL     OW 6917   8.724   1.032   2.382 -0.5577 -0.1695 -0.0202
 1730SOL    HW1 6918   8.763   0.945   2.371  0.2260  0.2337 -0.4545
 1730SOL    HW2 6919   8.704   1.060   2.292 -3.0569 -0.8872  0.2119
 1730SOL     MW 6920   8.726   1.024   2.369 -0.7773 -0.2097 -0.0461
 1731SOL     OW 6921   7.577   9.440   0.088  0.4404  0.0924 -0.2649
 1731SOL    HW1 6922   7.565   9.528   0.053  2.3899  0.6888  0.4266
 1731SOL    HW2 6923   7.609   9.454   0.177 -3.4928 -1.3608  1.6194
 1731SOL     MW 6924   7.580   9.453   0.095  0.1865 -0.0173  0.0648
 1732SOL     OW 6925  10.148   4.945   0.818  0.2008  0.0485 -0.2798
 1732SOL    HW1 6926  10.060   4.978   0.835  0.0984 -0.4358  0.1820
 1732SOL    HW2 6927  10.205   5.022   0.824 -0.2315  0.4313 -0.9789
 1732SOL     MW 6928  10.144   4.959   0.821  0.1323  0.0355 -0.3101
 1733SOL     OW 6929  10.145   7.115   0.062  0.2094  0.2845  0.5379
 1733SOL    HW1 6930  10.189   7.097  -0.021  0.8346  2.3783  0.3410
 1733SOL    HW2 6931  10.111   7.204   0.052  0.4854  0.6785  2.5851
 1733SOL     MW 6932  10.146   7.124   0.050  0.3247  0.6030  0.7748
 1734SOL     OW 6933   6.738   1.208   1.406  0.4111 -0.5761 -0.0252
 1734SOL    HW1 6934   6.748   1.195   1.312 -0.8014  0.7662 -0.3701
 1734SOL    HW2 6935   6.799   1.278   1.427  0.9172 -1.0906  0.2791
 1734SOL     MW 6936   6.747   1.215   1.397  0.3207 -0.4701 -0.0304
 1735SOL     OW 6937  10.130   0.906   0.329 -0.4990 -0.1447  0.6591
 1735SOL    HW1 6938  10.061   0.848   0.363 -0.9467  1.2720  2.3605
 1735SOL    HW2 6939  10.211   0.872   0.366 -0.3289 -1.4342 -0.8221
 1735SOL     MW 6940  10.132   0.894   0.338 -0.5346 -0.1284  0.6873
 1736SOL     OW 6941   9.135   6.467   0.249 -0.4637  0.4766 -0.2968
 1736SOL    HW1 6942   9.047   6.434   0.232 -0.3283 -1.6718  2.3980
 1736SOL    HW2 6943   9.136   6.484   0.343  1.7544  1.2951 -0.4120
 1736SOL     MW 6944   9.124   6.465   0.259 -0.1624  0.3063  0.0334
 1737SOL     OW 6945   7.544   6.100   2.029  0.3168 -0.1234  0.4155
 1737SOL    HW1 6946   7.529   6.146   2.111 -0.5923 -0.4709  0.4555
 1737SOL    HW2 6947   7.638   6.112   2.011  0.1916  1.3808  0.6320
 1737SOL     MW 6948   7.554   6.108   2.037  0.1844  0.0247  0.4483
 1738SOL     OW 6949   8.623   2.242   2.636 -0.2260 -0.2982  0.2188
 1738SOL    HW1 6950   8.586   2.200   2.713  0.6204 -0.2101  0.6792
 1738SOL    HW2 6951   8.692   2.182   2.606  0.0606  0.1015  0.0705
 1738SOL     MW 6952   8.627   2.229   2.642 -0.0810 -0.2357  0.2587
 1739SOL     OW 6953   7.195   4.097   0.755 -0.3781 -0.0479  0.4131
 1739SOL    HW1 6954   7.241   4.028   0.803  0.5806  1.0274  1.1303
 1739SOL    HW2 6955   7.183   4.167   0.821  1.2409  1.5978 -0.9125
 1739SOL     MW 6956   7.199   4.097   0.770 -0.0481  0.3004  0.3352
 1740SOL     OW 6957   9.221   8.979   0.967  0.1728 -0.4645  0.2119
 1740SOL    HW1 6958   9.178   9.010   0.888 -1.0015  0.3205  1.1257
 1740SOL    HW2 6959   9.311   8.961   0.940 -0.4464 -1.1950 -1.5167
 1740SOL     MW 6960   9.227   8.980   0.953 -0.0568 -0.4575  0.1076
 1741SOL     OW 6961   8.402   3.285   0.089  0.2769 -0.2459  0.2260
 1741SOL    HW1 6962   8.336   3.249   0.148  0.5902  0.5743  1.1047
 1741SOL    HW2 6963   8.382   3.379   0.085  1.3964  0.0205  0.5357
 1741SOL     MW 6964   8.391   3.292   0.096  0.4603 -0.1068  0.3781
 1742SOL     OW 6965   7.006   6.981   9.404 -0.5279 -0.0780  0.1961
 1742SOL    HW1 6966   7.026   6.899   9.359  0.1391 -0.7906  1.7200
 1742SOL    HW2 6967   7.075   7.041   9.376  1.2782 -1.2017  1.9551
 1742SOL     MW 6968   7.018   6.978   9.395 -0.2113 -0.3130  0.6163
 1743SOL     OW 6969   9.752   1.152   2.644 -0.1066  0.3373  0.2442
 1743SOL    HW1 6970   9.806   1.099   2.584  0.4353  1.4649 -0.2967
 1743SOL    HW2 6971   9.811   1.221   2.675 -0.5357  0.0788  1.6898
 1743SOL     MW 6972   9.766   1.154   2.640 -0.0922  0.4485  0.3600
 1744SOL     OW 6973   8.167   8.303   1.730  0.3049 -1.0097 -0.5095
 1744SOL    HW1 6974   8.239   8.240   1.725 -0.3241 -1.8508  0.7295
 1744SOL    HW2 6975   8.171   8.337   1.819  0.7817  0.9187 -1.2188
 1744SOL     MW 6976   8.177   8.299   1.740  0.2854 -0.8705 -0.4417
 1745SOL     OW 6977  10.116   0.288   1.081  0.1047  0.1647 -0.2620
 1745SOL    HW1 6978  10.049   0.223   1.102  0.5278 -0.5824 -1.1707
 1745SOL    HW2 6979  10.167   0.296   1.162 -0.7481  0.3776  0.2798
 1745SOL     MW 6980  10.114   0.281   1.094  0.0497  0.0963 -0.3090
 1746SOL     OW 6981   8.941   3.977   1.388  0.2656  0.2221  0.5294
 1746SOL    HW1 6982   8.988   3.905   1.430  0.0536 -0.1513  0.1300
 1746SOL    HW2 6983   8.879   4.007   1.455 -0.3626 -0.6439  0.3556
 1746SOL     MW 6984   8.939   3.972   1.402  0.1580  0.0635  0.4560
 1747SOL     OW 6985   9.160   1.157   0.608 -0.4240 -0.5842 -0.6765
 1747SOL    HW1 6986   9.227   1.123   0.549 -0.8844  0.1046 -1.6161
 1747SOL    HW2 6987   9.087   1.180   0.551 -1.1789 -0.6170  0.2502
 1747SOL     MW 6988   9.160   1.155   0.593 -0.5796 -0.5002 -0.6782
 1748SOL     OW 6989   7.773   5.958   0.181  0.0390 -0.2085 -0.2491
 1748SOL    HW1 6990   7.824   5.968   0.262  0.8949  1.5537 -0.9684
 1748SOL    HW2 6991   7.715   6.034   0.180  0.6033  0.2296 -1.6749
 1748SOL     MW 6992   7.772   5.969   0.191  0.2208  0.0731 -0.5237
 1749SOL     OW 6993   7.477   2.875   0.595  0.1925  0.1800  0.0838
 1749SOL    HW1 6994   7.540   2.924   0.541  0.1178 -0.4556 -0.5929
 1749SOL    HW2 6995   7.530   2.838   0.665  0.3180  0.8839  0.3712
 1749SOL     MW 6996   7.492   2.877   0.597  0.1990  0.1887  0.0340
 1750SOL     OW 6997  10.129   7.642   0.647  0.4860 -0.5188  0.6792
 1750SOL    HW1 6998  10.088   7.568   0.603 -1.0654 -0.5585  2.0656
 1750SOL    HW2 6999  10.170   7.692   0.576 -0.2487 -1.5834 -0.5502
 1750SOL     MW 7000  10.129   7.639   0.632  0.1934 -0.6602  0.6993
 1751SOL     OW 7001   8.916   7.666   2.187 -0.2157  0.3752  0.4619
 1751SOL    HW1 7002   8.981   7.611   2.230 -1.0262 -0.3479  0.7846
 1751SOL    HW2 7003   8.835   7.650   2.235 -0.9258  0.2650 -0.7350
 1751SOL     MW 7004   8.914   7.657   2.198 -0.4103  0.2685  0.3500
 1752SOL     OW 7005   9.368   8.762   1.865  0.1502  0.3285 -0.1877
 1752SOL    HW1 7006   9.413   8.845   1.848  0.1391  0.2061 -0.8114
 1752SOL    HW2 7007   9.312   8.781   1.940  0.2994  0.8317 -0.1993
 1752SOL     MW 7008   9.367   8.775   1.873  0.1679  0.3773 -0.2691
 1753SOL     OW 7009   8.279   0.067   9.778  0.8036  0.1242  0.2622
 1753SOL    HW1 7010   8.359   0.119   9.767  0.1174  1.0049 -0.6748
 1753SOL    HW2 7011   8.225   0.118   9.838  0.1781  0.4446 -0.5626
 1753SOL     MW 7012   8.282   0.080   9.784  0.6357  0.2779  0.0367
 1754SOL     OW 7013   9.644   6.980   9.160 -0.1180  0.2201  0.1269
 1754SOL    HW1 7014   9.673   7.052   9.216  1.1128 -0.9662  1.0714
 1754SOL    HW2 7015   9.699   6.986   9.082 -0.5195  0.7276 -0.1223
 1754SOL     MW 7016   9.655   6.990   9.157 -0.0119  0.1332  0.2159
 1755SOL     OW 7017   7.632   3.824   0.018 -0.1029 -0.4256 -0.2615
 1755SOL    HW1 7018   7.715   3.776   0.017 -0.7438 -1.7386  1.7514
 1755SOL    HW2 7019   7.565   3.755   0.030 -1.3672  0.7111 -0.5482
 1755SOL     MW 7020   7.634   3.809   0.019 -0.3468 -0.4482 -0.0405
 1756SOL     OW 7021   8.060   8.320   8.911  0.2642 -0.2243 -0.5470
 1756SOL    HW1 7022   8.041   8.387   8.846  0.9516 -1.6962 -2.3409
 1756SOL    HW2 7023   8.154   8.305   8.904 -0.0113 -1.9952 -0.8401
 1756SOL     MW 7024   8.069   8.327   8.902  0.3169 -0.6394 -0.8142
 1757SOL     OW 7025   9.312   4.461   1.755  0.4471  0.4111 -0.2762
 1757SOL    HW1 7026   9.393   4.410   1.764 -0.3227 -0.6961  0.7768
 1757SOL    HW2 7027   9.250   4.399   1.714 -1.0046 -0.1719  2.5252
 1757SOL     MW 7028   9.314   4.446   1.751  0.1628  0.1948  0.2172
 1758SOL     OW 7029   9.711   5.989   1.045  0.1710  0.8091 -0.2202
 1758SOL    HW1 7030   9.685   6.073   1.009 -0.7341 -0.1509 -1.9306
 1758SOL    HW2 7031   9.628   5.941   1.055  0.8865 -0.8983 -2.0204
 1758SOL     MW 7032   9.697   5.994   1.042  0.1467  0.4677 -0.6696
 1759SOL     OW 7033   7.900   2.692   2.412  0.0665 -0.4037  0.0099
 1759SOL    HW1 7034   7.946   2.721   2.333 -1.8605  1.5833 -0.4785
 1759SOL    HW2 7035   7.815   2.663   2.380 -0.5763  0.0176  1.3073
 1759SOL     MW 7036   7.895   2.692   2.398 -0.2625 -0.0954  0.1134
 1760SOL     OW 7037   7.760   9.716   0.240  0.4119  0.0164  0.3831
 1760SOL    HW1 7038   7.751   9.633   0.287 -2.5930  0.0849  0.0747
 1760SOL    HW2 7039   7.787   9.779   0.307 -0.5437 -0.5564  1.3312
 1760SOL     MW 7040   7.762   9.713   0.254 -0.0951 -0.0482  0.4650
 1761SOL     OW 7041   7.670   6.477   9.333  0.1323 -0.3470  0.1748
 1761SOL    HW1 7042   7.636   6.559   9.297  0.9780  0.3785  0.9634
 1761SOL    HW2 7043   7.681   6.494   9.427 -0.6842 -1.7264  0.5438
 1761SOL     MW 7044   7.667   6.490   9.340  0.1360 -0.4307  0.3230
 1762SOL     OW 7045   0.419   9.555   0.811  0.0139 -0.0234  0.5032
 1762SOL    HW1 7046   0.416   9.609   0.890  1.9585  0.5963  0.2107
 1762SOL    HW2 7047   0.503   9.510   0.816  0.5353  0.5998 -1.5342
 1762SOL     MW 7048   0.429   9.556   0.822  0.3296  0.1357  0.2050
 1763SOL     OW 7049   7.484   9.723   9.852  0.2091 -0.0674  0.3304
 1763SOL    HW1 7050   7.395   9.757   9.862 -0.0420 -1.3096  2.8777
 1763SOL    HW2 7051   7.475   9.648   9.792 -0.1877  0.6292 -0.5061
 1763SOL     MW 7052   7.472   9.718   9.845  0.1261 -0.1373  0.5494
 1764SOL     OW 7053   8.220   1.629   2.623 -0.2304 -0.5932  0.4583
 1764SOL    HW1 7054   8.234   1.639   2.529  1.2219  1.3232  0.8295
 1764SOL    HW2 7055   8.292   1.573   2.653  0.2978  0.1806  0.6648
 1764SOL     MW 7056   8.231   1.623   2.615  0.0231 -0.2488  0.5323
 1765SOL     OW 7057   7.716   5.563   2.811 -0.0359 -0.1096 -0.4888
 1765SOL    HW1 7058   7.634   5.594   2.770  0.2446 -0.3276 -1.2334
 1765SOL    HW2 7059   7.742   5.488   2.758  1.0891  0.4652 -0.7883
 1765SOL     MW 7060   7.709   5.558   2.799  0.1440 -0.0639 -0.6225
 1766SOL     OW 7061   9.782   9.322   0.334  0.5630 -0.1429 -0.4203
 1766SOL    HW1 7062   9.839   9.371   0.394 -1.3853  1.7723  0.0161
 1766SOL    HW2 7063   9.839   9.257   0.294  2.4409 -0.0782  1.9194
 1766SOL     MW 7064   9.796   9.320   0.337  0.5540  0.1105 -0.0649
 1767SOL     OW 7065   0.063   4.609   9.564 -0.3404 -0.4990  0.1208
 1767SOL    HW1 7066   0.012   4.531   9.586 -2.5224  1.1663  1.4212
 1767SOL    HW2 7067   0.151   4.591   9.599 -0.8723 -2.2273  0.6711
 1767SOL     MW 7068   0.068   4.597   9.571 -0.6878 -0.5071  0.3577
 1768SOL     OW 7069   8.997   7.686   9.174 -0.0112 -0.3896  0.5009
 1768SOL    HW1 7070   9.053   7.613   9.149 -0.6575 -0.5663 -0.4740
 1768SOL    HW2 7071   9.029   7.712   9.260  1.4440 -0.6057  0.0486
 1768SOL     MW 7072   9.008   7.680   9.182  0.0923 -0.4399  0.3182
 1769SOL     OW 7073   7.173   1.054   2.198  0.7908 -0.1678  0.3257
 1769SOL    HW1 7074   7.215   0.975   2.232 -1.0946 -0.9921  0.8887
 1769SOL    HW2 7075   7.083   1.049   2.232  0.0385  1.1519 -1.3655
 1769SOL     MW 7076   7.167   1.043   2.207  0.4531 -0.1044  0.1813
 1770SOL     OW 7077   8.858   6.835   1.566 -0.9385  0.0494  0.2058
 1770SOL    HW1 7078   8.829   6.750   1.531  0.8012 -0.2885 -0.5187
 1770SOL    HW2 7079   8.910   6.813   1.643  1.2620  0.2325 -1.1337
 1770SOL     MW 7080   8.861   6.821   1.571 -0.4341  0.0295 -0.0584
 1771SOL     OW 7081   8.610   8.276   8.755 -0.2731 -0.6090  0.0170
 1771SOL    HW1 7082   8.608   8.338   8.682  0.0510 -1.9538 -1.1698
 1771SOL    HW2 7083   8.519   8.273   8.786 -0.0503  1.5447  1.1121
 1771SOL     MW 7084   8.598   8.284   8.750 -0.2031 -0.5055  0.0052
 1772SOL     OW 7085   9.610   8.324   2.660 -0.1074  0.5994  0.0862
 1772SOL    HW1 7086   9.544   8.264   2.626  0.2592  1.0202 -1.4492
 1772SOL    HW2 7087   9.574   8.412   2.644  1.2582  0.8758 -1.8647
 1772SOL     MW 7088   9.597   8.328   2.654  0.1144  0.6886 -0.3601
 1773SOL     OW 7089   7.620   2.951   9.178  0.0254  0.2826 -0.1964
 1773SOL    HW1 7090   7.606   2.862   9.210  1.1530 -0.2944 -1.2331
 1773SOL    HW2 7091   7.633   3.003   9.257  0.4630 -0.6862  0.3881
 1773SOL     MW 7092   7.620   2.946   9.192  0.2257  0.0847 -0.2543
 1774SOL     OW 7093   0.099   8.534   0.669  0.0362 -0.1840 -0.3535
 1774SOL    HW1 7094   0.068   8.443   0.672 -0.6519  0.0316 -0.7109
 1774SOL    HW2 7095   0.082   8.568   0.756  1.4544 -0.7559  0.1751
 1774SOL     MW 7096   0.093   8.527   0.680  0.1297 -0.2296 -0.3316
 1775SOL     OW 7097  10.038   9.419   0.430 -0.2385  0.3781  0.5087
 1775SOL    HW1 7098  10.113   9.462   0.389  0.6770 -1.8284 -0.2727
 1775SOL    HW2 7099  10.062   9.415   0.523  0.1021  0.6913  0.4406
 1775SOL     MW 7100  10.051   9.424   0.437 -0.0777  0.1357  0.4000
 1776SOL     OW 7101   8.101   8.366   9.370  0.0056  0.9164  0.7220
 1776SOL    HW1 7102   8.130   8.435   9.430  0.6064  1.1079  0.2170
 1776SOL    HW2 7103   8.083   8.411   9.288 -1.3648  0.7389  0.9045
 1776SOL     MW 7104   8.102   8.381   9.367 -0.0929  0.9182  0.6807
 1777SOL     OW 7105   8.882   6.228   0.964 -0.2185  0.1208  0.6363
 1777SOL    HW1 7106   8.872   6.141   1.003 -0.9644  0.7517  1.9112
 1777SOL    HW2 7107   8.816   6.282   1.008  1.8797  1.9523  1.7283
 1777SOL     MW 7108   8.872   6.224   0.975 -0.0454  0.4361  0.9393
 1778SOL     OW 7109   9.497   0.266   9.439 -0.2225 -0.4140  0.3913
 1778SOL    HW1 7110   9.591   0.252   9.449  0.0794  1.8141  1.2265
 1778SOL    HW2 7111   9.477   0.335   9.502 -2.4827 -0.9804  0.3781
 1778SOL     MW 7112   9.506   0.273   9.449 -0.4732 -0.2013  0.4965
 1779SOL     OW 7113   9.227   4.802   1.910  0.4331 -0.1033  0.3411
 1779SOL    HW1 7114   9.318   4.830   1.896 -0.0007  0.6247 -1.2963
 1779SOL    HW2 7115   9.235   4.712   1.942  1.7332  0.0742  0.5942
 1779SOL     MW 7116   9.240   4.794   1.912  0.5440  0.0126  0.1639
 1780SOL     OW 7117   6.238   0.207   1.231  0.1668  0.4302 -0.4996
 1780SOL    HW1 7118   6.166   0.153   1.263  1.0225 -1.0953 -1.0596
 1780SOL    HW2 7119   6.229   0.207   1.136  0.6986  0.5183 -0.5562
 1780SOL     MW 7120   6.228   0.200   1.223  0.3444  0.2462 -0.5785
 1781SOL     OW 7121   8.193   1.634   1.147 -0.4164 -0.5082 -0.0164
 1781SOL    HW1 7122   8.214   1.697   1.078 -1.8966 -2.0380 -1.9561
 1781SOL    HW2 7123   8.119   1.674   1.194 -0.0955  0.0576  0.0174
 1781SOL     MW 7124   8.186   1.647   1.144 -0.5648 -0.6316 -0.2604
 1782SOL     OW 7125   8.094   3.849   0.857 -0.0405  0.0521  0.0068
 1782SOL    HW1 7126   8.043   3.768   0.850 -2.7727  1.6195  0.4085
 1782SOL    HW2 7127   8.061   3.904   0.786 -1.0598  2.1927  1.9928
 1782SOL     MW 7128   8.083   3.845   0.847 -0.5207  0.5268  0.3125
 1783SOL     OW 7129   6.648   8.453   1.001  0.4878  0.2622 -0.2673
 1783SOL    HW1 7130   6.727   8.502   0.977  0.6452  0.1117 -0.0614
 1783SOL    HW2 7131   6.605   8.507   1.066 -0.8940  1.5628 -2.1479
 1783SOL     MW 7132   6.653   8.466   1.006  0.3310  0.4094 -0.4817
 1784SOL     OW 7133   7.063   9.424   1.471 -0.1984  0.0763  0.1984
 1784SOL    HW1 7134   7.106   9.403   1.554 -0.0339 -0.3299  0.0130
 1784SOL    HW2 7135   6.970   9.407   1.487 -0.3316  1.1515  0.6631
 1784SOL     MW 7136   7.057   9.419   1.483 -0.1944  0.1620  0.2341
 1785SOL     OW 7137   6.770   9.086   2.022 -0.2360 -0.0579 -0.0962
 1785SOL    HW1 7138   6.711   9.116   1.953  0.1532 -1.9243 -1.3069
 1785SOL    HW2 7139   6.843   9.045   1.976 -0.3135 -2.0147  1.3863
 1785SOL     MW 7140   6.772   9.085   2.007 -0.1961 -0.5473 -0.0614
 1786SOL     OW 7141   8.025   2.063   3.061  0.1456  0.1376  0.1058
 1786SOL    HW1 7142   7.997   1.974   3.041 -0.7328  0.6181 -0.8915
 1786SOL    HW2 7143   8.052   2.099   2.977  0.7410  0.7271  0.5459
 1786SOL     MW 7144   8.025   2.056   3.048  0.1094  0.2745  0.0345
 1787SOL     OW 7145   9.235   2.362   0.290 -0.1173  0.5095 -0.4639
 1787SOL    HW1 7146   9.326   2.339   0.271  0.0373 -0.5049  1.2821
 1787SOL    HW2 7147   9.210   2.422   0.219  1.8981  0.8228 -0.9751
 1787SOL     MW 7148   9.244   2.367   0.278  0.1605  0.4197 -0.3058
 1788SOL     OW 7149   8.768   0.978   9.424 -0.0260  0.1694 -0.0125
 1788SOL    HW1 7150   8.758   1.034   9.501  0.4869  0.8071 -0.4048
 1788SOL    HW2 7151   8.859   0.990   9.397 -0.7575  1.7390 -2.0665
 1788SOL     MW 7152   8.778   0.987   9.430 -0.0540  0.4519 -0.3257
 1789SOL     OW 7153   0.306   4.203   0.751  0.2651  0.2088 -0.5962
 1789SOL    HW1 7154   0.289   4.134   0.816  0.6701  0.8781  0.2323
 1789SOL    HW2 7155   0.367   4.162   0.689  2.4537  0.5226  1.2048
 1789SOL     MW 7156   0.312   4.189   0.751  0.5971  0.3346 -0.2596
 1790SOL     OW 7157   7.677   0.555   1.329  0.0978 -0.1070 -0.0729
 1790SOL    HW1 7158   7.731   0.477   1.346 -0.7060 -0.5229  0.6416
 1790SOL    HW2 7159   7.721   0.598   1.256  1.3205 -0.5111  0.3880
 1790SOL     MW 7160   7.690   0.550   1.322  0.1514 -0.2120  0.0775
 1791SOL     OW 7161   0.144   9.285  10.107 -0.0435 -0.5972  0.4816
 1791SOL    HW1 7162   0.090   9.251  10.178 -0.2211  1.0236  1.1668
 1791SOL    HW2 7163   0.230   9.246  10.122 -0.6750 -2.1902  0.1296
 1791SOL     MW 7164   0.148   9.276  10.118 -0.1471 -0.5936  0.5242
 1792SOL     OW 7165   7.996   6.254   2.781  0.2881 -0.2492 -0.3009
 1792SOL    HW1 7166   7.941   6.184   2.747  0.9048 -1.0216  0.2628
 1792SOL    HW2 7167   8.085   6.220   2.775  0.4104 -0.6005  2.3829
 1792SOL     MW 7168   8.000   6.241   2.776  0.3827 -0.3930  0.1148
 1793SOL     OW 7169   6.456   8.938   1.967  0.2967  0.0516  0.2999
 1793SOL    HW1 7170   6.462   8.890   2.049  1.6279 -1.0138 -0.3829
 1793SOL    HW2 7171   6.381   8.899   1.922  0.1185  0.0220  0.6187
 1793SOL     MW 7172   6.447   8.927   1.971  0.4443 -0.0886  0.2533
 1794SOL     OW 7173  10.181   8.617   0.912  0.0408 -0.3279  0.0290
 1794SOL    HW1 7174  10.212   8.675   0.982  0.5306  1.0489 -1.2845
 1794SOL    HW2 7175  10.087   8.610   0.927  0.0339  0.5026  0.4465
 1794SOL     MW 7176  10.173   8.624   0.923  0.1027 -0.0453 -0.0857
 1795SOL     OW 7177   8.053   2.660   1.169 -0.0873 -0.0765 -0.5616
 1795SOL    HW1 7178   8.013   2.719   1.233 -1.3965 -3.2750  1.8638
 1795SOL    HW2 7179   8.007   2.678   1.087 -2.7148  0.1720  0.8571
 1795SOL     MW 7180   8.042   2.670   1.167 -0.5913 -0.4541 -0.0696
 1796SOL     OW 7181   7.383   4.154   9.182 -0.6509  0.2693  0.0245
 1796SOL    HW1 7182   7.469   4.134   9.145  0.6253  0.8071  2.4539
 1796SOL    HW2 7183   7.366   4.083   9.243 -0.3614  1.7288  1.9136
 1796SOL     MW 7184   7.392   4.143   9.185 -0.4505  0.5250  0.5773
 1797SOL     OW 7185   7.780   0.172   9.320 -0.3485  0.0842 -0.0050
 1797SOL    HW1 7186   7.728   0.093   9.303 -0.0503 -0.7961  2.6633
 1797SOL    HW2 7187   7.836   0.148   9.394  0.7135  2.4166  0.0346
 1797SOL     MW 7188   7.781   0.159   9.327 -0.1744  0.2701  0.3417
 1798SOL     OW 7189   7.595   2.852   0.197  0.1744  0.0226 -0.0085
 1798SOL    HW1 7190   7.609   2.911   0.122 -1.6024 -0.1515 -0.5182
 1798SOL    HW2 7191   7.636   2.898   0.271  4.0568 -0.8370 -1.3769
 1798SOL     MW 7192   7.602   2.866   0.197  0.4439 -0.1097 -0.2489
 1799SOL     OW 7193   7.570   7.197   2.314  0.4541 -0.3164 -0.1281
 1799SOL    HW1 7194   7.496   7.256   2.303 -0.3917 -1.5197 -1.3472
 1799SOL    HW2 7195   7.647   7.253   2.308 -0.2859  0.5586 -2.2030
 1799SOL     MW 7196   7.570   7.212   2.312  0.2511 -0.3584 -0.5498
 1800SOL     OW 7197   0.075   3.150   9.855  0.4185  0.0413 -0.4887
 1800SOL    HW1 7198   0.119   3.117   9.933 -0.1352  1.7797  0.6176
 1800SOL    HW2 7199   0.067   3.073   9.798  0.3307 -1.4325  1.3872
 1800SOL     MW 7200   0.079   3.136   9.857  0.3364  0.0752 -0.1069
 1801SOL     OW 7201   8.700   9.389   1.909  0.1631  0.3814  0.4095
 1801SOL    HW1 7202   8.725   9.472   1.868 -1.2001  1.2149  1.1875
 1801SOL    HW2 7203   8.745   9.322   1.858  0.3662  1.5300 -0.9703
 1801SOL     MW 7204   8.709   9.391   1.898  0.0146  0.6352  0.3325
 1802SOL     OW 7205   7.485   1.696   0.090  0.3881 -0.5290  0.1203
 1802SOL    HW1 7206   7.564   1.749   0.076  0.8459 -1.1911  0.1171
 1802SOL    HW2 7207   7.519   1.612   0.122 -0.2828 -1.0032 -0.3830
 1802SOL     MW 7208   7.500   1.692   0.092  0.3608 -0.6745  0.0554
 1803SOL     OW 7209   7.654   4.306   1.814  0.0004  0.4901 -0.3479
 1803SOL    HW1 7210   7.607   4.256   1.747 -1.0680  1.1431 -0.1112
 1803SOL    HW2 7211   7.746   4.285   1.800 -0.2194  0.4366 -1.8796
 1803SOL     MW 7212   7.660   4.297   1.804 -0.1645  0.5669 -0.5136
 1804SOL     OW 7213   7.960   3.987   0.665 -0.1384  0.6955 -0.4353
 1804SOL    HW1 7214   7.868   4.010   0.656 -0.3875 -0.1845 -0.2576
 1804SOL    HW2 7215   8.006   4.071   0.671 -0.9990  1.1300  0.1985
 1804SOL     MW 7216   7.954   4.001   0.665 -0.2805  0.6385 -0.3315
 1805SOL     OW 7217   7.338   8.218   0.863 -0.4166  0.2974 -0.0556
 1805SOL    HW1 7218   7.323   8.204   0.769  2.1887 -0.3804 -0.4324
 1805SOL    HW2 7219   7.252   8.203   0.903 -0.9582 -2.6020 -2.0188
 1805SOL     MW 7220   7.325   8.214   0.856 -0.1525 -0.1606 -0.3551
 1806SOL     OW 7221   7.427   5.481   9.567 -0.3056 -0.2397  0.1020
 1806SOL    HW1 7222   7.518   5.466   9.542  0.5610  1.2502  2.0965
 1806SOL    HW2 7223   7.415   5.427   9.645 -0.9561  0.0035  0.1713
 1806SOL     MW 7224   7.437   5.472   9.574 -0.2780 -0.0178  0.3662
 1807SOL     OW 7225   6.717  10.010   0.223 -0.1853 -0.2866 -0.3887
 1807SOL    HW1 7226   6.642  10.068   0.209  0.3858  0.0641 -2.3136
 1807SOL    HW2 7227   6.789  10.052   0.175  0.9539 -1.1963  0.4661
 1807SOL     MW 7228   6.717  10.023   0.215  0.0336 -0.3581 -0.5257
 1808SOL     OW 7229   8.226   9.832   1.126  0.5775 -0.0009 -0.6303
 1808SOL    HW1 7230   8.310   9.792   1.145 -0.3892 -1.3761  1.0248
 1808SOL    HW2 7231   8.236   9.867   1.038  1.9455 -2.7653 -1.7077
 1808SOL     MW 7232   8.238   9.831   1.117  0.6289 -0.5308 -0.5564
 1809SOL     OW 7233   8.391   1.114  10.020 -0.1226  0.3712  0.1825
 1809SOL    HW1 7234   8.454   1.168  10.068  0.1443 -0.3655  0.6920
 1809SOL    HW2 7235   8.422   1.114   9.930  1.6840 -1.4121  0.7159
 1809SOL     MW 7236   8.403   1.121  10.015  0.1428  0.0486  0.3160
 1810SOL     OW 7237   8.967   4.795   0.276 -0.0360  0.1930 -0.1994
 1810SOL    HW1 7238   9.008   4.710   0.257 -0.6859 -0.6602  1.9297
 1810SOL    HW2 7239   9.027   4.838   0.336 -0.4353  0.5716 -0.0707
 1810SOL     MW 7240   8.980   4.789   0.281 -0.1703  0.1323  0.0896
 1811SOL     OW 7241   0.344   4.243   0.364  0.2543 -0.3017 -0.2945
 1811SOL    HW1 7242   0.375   4.334   0.366 -0.1149 -0.1598 -0.8976
 1811SOL    HW2 7243   0.334   4.222   0.271  0.6046 -1.0566 -0.1691
 1811SOL     MW 7244   0.346   4.252   0.352  0.2518 -0.3802 -0.3556
 1812SOL     OW 7245   9.310   0.646   0.079  0.0611 -0.5042  0.4427
 1812SOL    HW1 7246   9.316   0.706   0.153  0.8611  0.1730 -0.1522
 1812SOL    HW2 7247   9.385   0.587   0.090  1.0123  0.4699 -0.5528
 1812SOL     MW 7248   9.321   0.646   0.090  0.2853 -0.2928  0.2391
 1813SOL     OW 7249   7.142   1.213   0.268 -0.3368 -0.4812  0.1783
 1813SOL    HW1 7250   7.058   1.229   0.226  0.3406 -0.4672 -1.2124
 1813SOL    HW2 7251   7.176   1.300   0.288  0.0057 -0.4351 -0.6009
 1813SOL     MW 7252   7.135   1.226   0.265 -0.2063 -0.4735 -0.0995
 1814SOL     OW 7253   8.599   4.639   9.677 -0.1119  0.3146 -0.0228
 1814SOL    HW1 7254   8.684   4.683   9.679  0.4171 -0.6669 -0.1149
 1814SOL    HW2 7255   8.588   4.613   9.585 -0.6990  0.7836 -0.0899
 1814SOL     MW 7256   8.608   4.641   9.665 -0.1194  0.2490 -0.0431
 1815SOL     OW 7257   8.856   9.750   1.563 -0.0896  0.2774 -0.3075
 1815SOL    HW1 7258   8.919   9.679   1.547 -1.0614 -0.4305 -1.1902
 1815SOL    HW2 7259   8.908   9.830   1.557  1.2406 -0.3488  1.7332
 1815SOL     MW 7260   8.871   9.751   1.560 -0.0438  0.1066 -0.1593
 1816SOL     OW 7261   8.490   8.072   1.417 -0.3172  0.1524 -0.6130
 1816SOL    HW1 7262   8.476   8.047   1.326  0.3475 -0.0090 -0.6768
 1816SOL    HW2 7263   8.567   8.129   1.415  1.8937 -2.5456  0.2018
 1816SOL     MW 7264   8.498   8.076   1.405  0.0509 -0.2136 -0.5169
 1817SOL     OW 7265   7.580   6.994   2.132 -0.0931  0.1731  0.0955
 1817SOL    HW1 7266   7.675   6.982   2.129 -0.2345 -2.3400  1.9653
 1817SOL    HW2 7267   7.564   7.046   2.211 -0.2775  0.1474  0.0771
 1817SOL     MW 7268   7.590   6.999   2.142 -0.1348 -0.1519  0.3325
 1818SOL     OW 7269   6.220   0.893   0.534 -0.0053  0.4246 -0.4352
 1818SOL    HW1 7270   6.170   0.815   0.558  1.8733 -0.0925  2.2133
 1818SOL    HW2 7271   6.231   0.941   0.616 -0.2347  3.0046 -1.8225
 1818SOL     MW 7272   6.215   0.889   0.547  0.2058  0.6887 -0.2738
 1819SOL     OW 7273   9.614   4.300   9.607 -0.3279  0.0444  0.1619
 1819SOL    HW1 7274   9.581   4.234   9.547 -1.3741 -0.0045  0.7755
 1819SOL    HW2 7275   9.536   4.337   9.649  0.3890 -0.3098  1.9001
 1819SOL     MW 7276   9.600   4.296   9.605 -0.3700 -0.0072  0.4629
 1820SOL     OW 7277   9.558   9.692   0.152  0.0012 -0.2847 -0.6806
 1820SOL    HW1 7278   9.576   9.714   0.060 -0.2223 -1.2910 -0.9795
 1820SOL    HW2 7279   9.614   9.751   0.202 -1.0364  1.3864 -1.4007
 1820SOL     MW 7280   9.568   9.703   0.147 -0.1602 -0.1996 -0.8111
 1821SOL     OW 7281   9.014   1.028   9.328 -0.3925 -0.2726  0.1859
 1821SOL    HW1 7282   9.075   0.967   9.286  0.9191  1.6847 -0.9336
 1821SOL    HW2 7283   8.995   1.093   9.260 -3.1776 -0.3866  0.7521
 1821SOL     MW 7284   9.019   1.028   9.314 -0.5811 -0.0367  0.1151
 1822SOL     OW 7285   7.180   4.742   1.015  0.3040  0.4075  0.0104
 1822SOL    HW1 7286   7.264   4.781   1.041  1.2281 -0.0533 -2.1277
 1822SOL    HW2 7287   7.203   4.652   0.988 -0.9519  0.1333 -0.1829
 1822SOL     MW 7288   7.194   4.735   1.015  0.2615  0.3134 -0.2881
 1823SOL     OW 7289   6.711   9.787   2.676  0.0714  0.4145 -0.0061
 1823SOL    HW1 7290   6.668   9.856   2.726 -0.5144 -0.3417  0.5501
 1823SOL    HW2 7291   6.687   9.805   2.585 -0.9852  0.3120  0.2415
 1823SOL     MW 7292   6.703   9.798   2.670 -0.1388  0.3046  0.0968
 1824SOL     OW 7293   0.545   9.731   1.269  0.0760  0.1454 -0.3936
 1824SOL    HW1 7294   0.579   9.645   1.294  0.5801  0.7223  1.0127
 1824SOL    HW2 7295   0.464   9.740   1.318  0.4246  0.7798  0.0792
 1824SOL     MW 7296   0.539   9.721   1.278  0.1852  0.3004 -0.1530
 1825SOL     OW 7297   6.592   2.233   1.928  0.5014 -0.2375 -0.2657
 1825SOL    HW1 7298   6.621   2.208   2.016  1.3401 -1.9604 -0.9651
 1825SOL    HW2 7299   6.631   2.166   1.871 -1.3637 -0.1201 -1.7697
 1825SOL     MW 7300   6.601   2.221   1.932  0.3700 -0.4430 -0.5478
 1826SOL     OW 7301   8.068   8.839   9.020 -0.6872 -0.2065 -0.1273
 1826SOL    HW1 7302   8.117   8.795   9.089 -2.6012 -2.3974 -0.0609
 1826SOL    HW2 7303   8.128   8.906   8.987  1.4999 -1.3214  1.3675
 1826SOL     MW 7304   8.082   8.842   9.025 -0.6523 -0.6297  0.0726
 1827SOL     OW 7305   9.577   9.587   9.920 -0.1673 -0.0894  0.1579
 1827SOL    HW1 7306   9.590   9.671   9.963 -0.7339  0.1345 -0.1017
 1827SOL    HW2 7307   9.665   9.552   9.909 -0.0043 -0.0893  1.3700
 1827SOL     MW 7308   9.590   9.593   9.924 -0.2190 -0.0607  0.2798
 1828SOL     OW 7309   8.163   6.915   2.685 -0.3400  0.0979  0.0502
 1828SOL    HW1 7310   8.102   6.940   2.755 -0.4643 -1.5217  0.5753
 1828SOL    HW2 7311   8.117   6.939   2.604 -0.6031  1.1420  0.4928
 1828SOL     MW 7312   8.149   6.921   2.684 -0.3896  0.0243  0.1741
 1829SOL     OW 7313   7.889   2.930   9.937  0.3172 -0.9160  0.1757
 1829SOL    HW1 7314   7.894   2.839   9.910 -0.3147 -1.1049  0.6537
 1829SOL    HW2 7315   7.857   2.977   9.860  2.4436 -0.7818 -0.6666
 1829SOL     MW 7316   7.885   2.925   9.924  0.5085 -0.9230  0.1291
 1830SOL     OW 7317   7.005   3.962   0.619 -0.1074 -0.3290 -0.2114
 1830SOL    HW1 7318   7.056   4.006   0.687 -1.3214 -0.6073  0.9204
 1830SOL    HW2 7319   6.917   3.957   0.655 -1.3967  1.5988 -2.7511
 1830SOL     MW 7320   7.000   3.967   0.632 -0.4279 -0.1178 -0.3916
 1831SOL     OW 7321   9.050   9.336   3.045 -0.2439 -0.7075 -0.3421
 1831SOL    HW1 7322   9.049   9.431   3.054  1.2189 -0.7459  0.5592
 1831SOL    HW2 7323   8.963   9.308   3.071 -0.2304  0.2901  0.8308
 1831SOL     MW 7324   9.039   9.344   3.049 -0.0549 -0.5847 -0.0766
 1832SOL     OW 7325   9.118   6.982   2.007 -0.2101 -0.3662  0.2243
 1832SOL    HW1 7326   9.077   6.987   2.093 -0.4290  1.8467  0.0494
 1832SOL    HW2 7327   9.205   7.018   2.019 -0.4277  0.4670 -0.5588
 1832SOL     MW 7328   9.124   6.987   2.019 -0.2659  0.0238  0.1017
 1833SOL     OW 7329   7.100   8.808  10.114 -0.3877 -0.2233  0.3317
 1833SOL    HW1 7330   7.113   8.783  10.022 -2.4166  0.4010 -0.1805
 1833SOL    HW2 7331   7.188   8.827  10.146  0.3028  0.4030 -1.7475
 1833SOL     MW 7332   7.113   8.807  10.106 -0.5591 -0.0632 -0.0001
 1834SOL     OW 7333   9.556   4.094   1.264  0.0081  0.1160 -0.0483
 1834SOL    HW1 7334   9.476   4.101   1.317 -0.8867 -0.1914 -1.3017
 1834SOL    HW2 7335   9.529   4.045   1.187  0.9911  1.5137 -1.3397
 1834SOL     MW 7336   9.542   4.088   1.261  0.0194  0.2556 -0.3740
 1835SOL     OW 7337   7.034   4.233   0.548 -0.3751 -0.1931  0.1024
 1835SOL    HW1 7338   7.026   4.269   0.637  0.2334  0.3264 -0.0416
 1835SOL    HW2 7339   7.042   4.139   0.561  1.8922  0.0290  0.7780
 1835SOL     MW 7340   7.034   4.226   0.561 -0.0070 -0.0982  0.1704
 1836SOL     OW 7341   6.230   0.609   1.231  0.0634  0.4091  0.0201
 1836SOL    HW1 7342   6.300   0.544   1.240 -0.1158 -0.1755 -2.2946
 1836SOL    HW2 7343   6.263   0.686   1.278  0.8990 -0.8340  1.5883
 1836SOL     MW 7344   6.244   0.611   1.238  0.1474  0.1751 -0.0755
 1837SOL     OW 7345   7.938   9.667   2.035  0.1796  0.2417 -0.5213
 1837SOL    HW1 7346   7.886   9.615   2.096  1.9200  1.0391  1.8377
 1837SOL    HW2 7347   7.880   9.738   2.008 -1.0630 -0.8831 -0.8694
 1837SOL     MW 7348   7.924   9.670   2.040  0.2433  0.1998 -0.2638
 1838SOL     OW 7349   8.455   7.917   9.140  0.3567 -0.3100 -0.0480
 1838SOL    HW1 7350   8.512   7.969   9.084  0.0731 -0.8900 -0.9059
 1838SOL    HW2 7351   8.484   7.935   9.229  1.8866 -0.6130 -0.4633
 1838SOL     MW 7352   8.466   7.926   9.144  0.5162 -0.4230 -0.2110
 1839SOL     OW 7353   8.710   7.150   2.118  0.1495  0.3263  0.0390
 1839SOL    HW1 7354   8.654   7.073   2.108 -0.5127  0.6992  0.8053
 1839SOL    HW2 7355   8.754   7.159   2.033 -2.6009  1.3516 -1.3708
 1839SOL     MW 7356   8.709   7.141   2.106 -0.2873  0.5053 -0.0434
 1840SOL     OW 7357   0.198   8.131   0.285  0.1989 -0.3509  0.2482
 1840SOL    HW1 7358   0.104   8.144   0.292  0.2549  0.9738 -1.0296
 1840SOL    HW2 7359   0.223   8.179   0.206  1.6285 -2.3747 -0.6025
 1840SOL     MW 7360   0.189   8.139   0.276  0.3890 -0.4404 -0.0243
 1841SOL     OW 7361   8.974   3.016   2.123  0.0038  0.5356  0.2071
 1841SOL    HW1 7362   8.997   2.965   2.201  0.5111  0.0459 -0.2537
 1841SOL    HW2 7363   9.042   2.994   2.060  0.3572  1.9535  0.0637
 1841SOL     MW 7364   8.986   3.006   2.125  0.1140  0.6544  0.1298
 1842SOL     OW 7365   7.729   9.170   1.414 -0.0783  0.0099  0.3731
 1842SOL    HW1 7366   7.796   9.224   1.372  1.5734 -1.4197  1.0276
 1842SOL    HW2 7367   7.763   9.081   1.407 -2.4840 -0.9222 -0.2436
 1842SOL     MW 7368   7.742   9.166   1.408 -0.1748 -0.2925  0.3779
 1843SOL     OW 7369   9.711   0.871   9.594 -0.1732 -0.5962 -0.1574
 1843SOL    HW1 7370   9.757   0.951   9.619  0.8706 -1.3129  0.3043
 1843SOL    HW2 7371   9.634   0.901   9.547 -0.5337  0.7199  1.2083
 1843SOL     MW 7372   9.707   0.885   9.591 -0.0857 -0.5195  0.0766
 1844SOL     OW 7373   9.958   8.848   1.107  0.7115 -0.5443 -0.3962
 1844SOL    HW1 7374   9.889   8.842   1.174  1.8463  0.6098  0.9364
 1844SOL    HW2 7375   9.995   8.935   1.118  0.4838 -0.0349 -3.0588
 1844SOL     MW 7376   9.954   8.858   1.117  0.8276 -0.3313 -0.5665
 1845SOL     OW 7377   6.887   0.072   0.928 -0.2604  0.0901  0.7721
 1845SOL    HW1 7378   6.974   0.070   0.967 -0.1132  0.8497  0.5145
 1845SOL    HW2 7379   6.834   0.122   0.989 -0.7688 -1.1628  1.3859
 1845SOL     MW 7380   6.892   0.078   0.941 -0.3066  0.0270  0.8177
 1846SOL     OW 7381   7.365   2.352   0.348  0.5246 -0.7427  0.0631
 1846SOL    HW1 7382   7.343   2.428   0.295 -0.3788  0.3860  1.9423
 1846SOL    HW2 7383   7.460   2.358   0.362  0.6018 -0.5024 -0.5725
 1846SOL     MW 7384   7.375   2.362   0.343  0.4189 -0.5675  0.2223
 1847SOL     OW 7385   7.115   5.548   9.551 -0.1081 -0.4111 -0.1268
 1847SOL    HW1 7386   7.056   5.530   9.478  0.1707  1.2220 -0.8022
 1847SOL    HW2 7387   7.202   5.554   9.512  0.4344 -2.0510  0.7550
 1847SOL     MW 7388   7.118   5.547   9.537 -0.0029 -0.4120 -0.1004
 1848SOL     OW 7389   8.502   2.724   1.425  0.1442  0.4253 -0.0111
 1848SOL    HW1 7390   8.500   2.815   1.452  1.5470  0.4442  0.0960
 1848SOL    HW2 7391   8.593   2.707   1.404 -0.3274 -0.5447 -1.4665
 1848SOL     MW 7392   8.513   2.733   1.426  0.2634  0.3035 -0.1837
 1849SOL     OW 7393   8.729   0.613   9.126  0.2504  0.1336 -0.5335
 1849SOL    HW1 7394   8.741   0.652   9.213  0.1167 -0.5129 -0.2233
 1849SOL    HW2 7395   8.641   0.642   9.100 -0.8542 -1.8403  0.7124
 1849SOL     MW 7396   8.719   0.622   9.134  0.0919 -0.2018 -0.3343
 1850SOL     OW 7397   7.817   1.441   9.256 -0.4871 -0.4640  0.3542
 1850SOL    HW1 7398   7.882   1.491   9.305  0.4700  0.9720 -2.1707
 1850SOL    HW2 7399   7.738   1.495   9.261 -0.0390  0.3281 -0.6302
 1850SOL     MW 7400   7.815   1.455   9.263 -0.3072 -0.1788 -0.0950
 1851SOL     OW 7401   9.826   0.887   0.959  0.0108 -0.1331 -0.6182
 1851SOL    HW1 7402   9.905   0.897   0.905  1.2707  2.6877  1.4785
 1851SOL    HW2 7403   9.852   0.826   1.028  0.3345  0.6103 -0.0652
 1851SOL     MW 7404   9.839   0.880   0.961  0.2135  0.3231 -0.2790
 1852SOL     OW 7405   9.032   1.014   2.514 -0.2450  0.1179 -0.5378
 1852SOL    HW1 7406   9.094   0.983   2.581 -1.0414  0.4351  0.3683
 1852SOL    HW2 7407   9.084   1.020   2.434  1.2560  1.6701  0.4816
 1852SOL     MW 7408   9.047   1.011   2.513 -0.1548  0.3572 -0.2913
 1853SOL     OW 7409   9.284   6.017   9.851  0.1397 -0.2502  0.3971
 1853SOL    HW1 7410   9.216   6.005   9.918 -0.6034 -0.6869 -0.4201
 1853SOL    HW2 7411   9.242   5.992   9.769  1.9133 -2.6466  0.1223
 1853SOL     MW 7412   9.269   6.012   9.849  0.2716 -0.6129  0.2573
 1854SOL     OW 7413   7.294   2.883   1.538 -0.1766  0.2551 -0.1387
 1854SOL    HW1 7414   7.265   2.897   1.447  1.8176  0.4844 -0.7952
 1854SOL    HW2 7415   7.381   2.842   1.529  0.0479  0.2667  1.6781
 1854SOL     MW 7416   7.302   2.879   1.525  0.1075  0.2859  0.0098
 1855SOL     OW 7417   9.914   3.074   9.627  0.3066  0.1113  0.1775
 1855SOL    HW1 7418   9.971   3.019   9.680 -0.1541 -0.3127  0.2391
 1855SOL    HW2 7419   9.834   3.023   9.617  0.2101  0.3895 -0.5272
 1855SOL     MW 7420   9.911   3.061   9.633  0.2353  0.0926  0.0951
 1856SOL     OW 7421  10.042   9.089   1.217  0.0836 -0.7662 -0.4041
 1856SOL    HW1 7422   9.986   9.165   1.202  0.8988 -0.3564 -1.6090
 1856SOL    HW2 7423  10.042   9.077   1.312 -0.1551  0.6806 -0.1903
 1856SOL     MW 7424  10.035   9.097   1.227  0.1574 -0.5286 -0.5310
 1857SOL     OW 7425   7.181   8.533   9.207  0.0165 -0.1277 -0.6569
 1857SOL    HW1 7426   7.195   8.522   9.113 -0.7172 -1.0176 -0.6800
 1857SOL    HW2 7427   7.126   8.611   9.215 -0.2910 -0.3037 -1.0098
 1857SOL     MW 7428   7.175   8.541   9.196 -0.1168 -0.2642 -0.7050
 1858SOL     OW 7429   7.298   1.738   1.865 -0.0902  0.7396  0.0174
 1858SOL    HW1 7430   7.281   1.681   1.789  0.3673  0.1132  0.3733
 1858SOL    HW2 7431   7.211   1.759   1.899 -0.2676 -1.1537  0.8917
 1858SOL     MW 7432   7.284   1.733   1.859 -0.0544  0.4171  0.1749
 1859SOL     OW 7433   6.172   9.125   1.285 -0.0950  0.2346  0.4834
 1859SOL    HW1 7434   6.245   9.110   1.344  0.2523 -0.3786 -0.0873
 1859SOL    HW2 7435   6.182   9.216   1.256  1.5752 -0.3898 -1.0880
 1859SOL     MW 7436   6.182   9.135   1.289  0.1633  0.0761  0.2092
 1860SOL     OW 7437   9.702   3.772   1.396  0.1195 -0.5052  0.6323
 1860SOL    HW1 7438   9.612   3.782   1.364  0.3254 -0.0488  0.1916
 1860SOL    HW2 7439   9.720   3.855   1.440  1.9149  1.3870 -3.2262
 1860SOL     MW 7440   9.693   3.784   1.398  0.3757 -0.2045  0.0820
 1861SOL     OW 7441   6.671   7.724   9.703 -0.1277  0.0795  0.4920
 1861SOL    HW1 7442   6.692   7.766   9.787 -1.8521 -0.8279  1.4357
 1861SOL    HW2 7443   6.575   7.724   9.700 -0.0944 -0.0366 -1.4368
 1861SOL     MW 7444   6.662   7.729   9.713 -0.3442 -0.0515  0.3659
 1862SOL     OW 7445   7.346   7.068   0.303  0.3646 -0.1555 -0.3153
 1862SOL    HW1 7446   7.324   7.068   0.210 -1.8124  0.4034  0.1432
 1862SOL    HW2 7447   7.306   6.988   0.337 -0.2393  0.4311  0.4016
 1862SOL     MW 7448   7.338   7.058   0.296  0.0086 -0.0088 -0.1649
 1863SOL     OW 7449   9.707   6.245   0.935  0.3581 -0.0499 -0.0138
 1863SOL    HW1 7450   9.793   6.228   0.897  1.1227  1.2383  1.0469
 1863SOL    HW2 7451   9.645   6.221   0.866  1.6196  0.2350 -1.2899
 1863SOL     MW 7452   9.710   6.240   0.921  0.6174  0.1514 -0.0413
 1864SOL     OW 7453   8.551  10.040   8.902  0.8590 -0.0013  0.2312
 1864SOL    HW1 7454   8.630  10.037   8.956  2.2775  0.2395 -1.7122
 1864SOL    HW2 7455   8.486   9.990   8.952  2.6796 -1.5123  1.2267
 1864SOL     MW 7456   8.552  10.033   8.915  1.2736 -0.1639  0.1098
 1865SOL     OW 7457   9.822   5.185   0.600 -0.1167 -0.4376  0.4185
 1865SOL    HW1 7458   9.806   5.205   0.692 -0.4900 -1.6993  0.6541
 1865SOL    HW2 7459   9.915   5.203   0.586 -0.1463  0.1154  0.9449
 1865SOL     MW 7460   9.832   5.190   0.610 -0.1683 -0.5283  0.5161
 1866SOL     OW 7461   8.528   0.593   1.280 -0.0693  0.1198  0.0743
 1866SOL    HW1 7462   8.436   0.618   1.273 -0.0319  0.3802  0.4565
 1866SOL    HW2 7463   8.528   0.498   1.267 -0.5271 -0.0437  1.1281
 1866SOL     MW 7464   8.516   0.584   1.277 -0.1231  0.1322  0.2581
 1867SOL     OW 7465   8.406   8.651   1.677  0.0259  0.5203 -0.2799
 1867SOL    HW1 7466   8.475   8.685   1.733  0.3288 -0.4078 -0.0776
 1867SOL    HW2 7467   8.329   8.645   1.734 -0.2623  1.6226 -0.5237
 1867SOL     MW 7468   8.405   8.654   1.692  0.0278  0.5426 -0.2853
 1868SOL     OW 7469   6.586   6.082   1.842  0.1550  0.4087 -0.4931
 1868SOL    HW1 7470   6.667   6.083   1.893  1.6445 -0.4816 -2.7050
 1868SOL    HW2 7471   6.603   6.139   1.767 -1.3132  0.2565 -0.9867
 1868SOL     MW 7472   6.598   6.089   1.839  0.1578  0.2753 -0.8395
 1869SOL     OW 7473   6.612   9.132   2.266  0.1749 -0.6770 -0.2007
 1869SOL    HW1 7474   6.619   9.039   2.287  1.0257 -0.8325 -1.0986
 1869SOL    HW2 7475   6.642   9.139   2.175  1.7316  0.6936  0.3591
 1869SOL     MW 7476   6.617   9.121   2.257  0.4831 -0.5215 -0.2440
 1870SOL     OW 7477   7.693   3.896   2.456  0.4419  0.3182 -0.3352
 1870SOL    HW1 7478   7.728   3.984   2.451 -0.5383  0.6930 -0.9031
 1870SOL    HW2 7479   7.681   3.879   2.549 -0.2884  1.1610 -0.2731
 1870SOL     MW 7480   7.696   3.905   2.467  0.2230  0.4741 -0.4000
 1871SOL     OW 7481   8.048   5.942   9.270 -0.2020  0.2381  0.2546
 1871SOL    HW1 7482   7.975   6.001   9.290 -0.3061  0.2173 -0.0542
 1871SOL    HW2 7483   8.008   5.855   9.266 -0.1713  0.2336  0.0294
 1871SOL     MW 7484   8.034   5.939   9.272 -0.2114  0.2349  0.1862
 1872SOL     OW 7485   6.600   7.071   2.049 -0.2545 -0.7609 -0.0144
 1872SOL    HW1 7486   6.676   7.025   2.084  0.1220  0.1334  0.3522
 1872SOL    HW2 7487   6.632   7.158   2.027 -1.3710 -0.0870  0.9443
 1872SOL     MW 7488   6.614   7.076   2.051 -0.3492 -0.5601  0.1552
 1873SOL     OW 7489   7.989   7.308   9.343  0.0976 -0.1359  0.4484
 1873SOL    HW1 7490   7.955   7.349   9.264  1.8056  0.4561 -0.0110
 1873SOL    HW2 7491   7.997   7.379   9.407  0.6031 -0.2264  0.4943
 1873SOL     MW 7492   7.986   7.322   9.341  0.3810 -0.0717  0.3954
 1874SOL     OW 7493   7.477   5.001  10.154 -0.1864  0.0593 -0.3109
 1874SOL    HW1 7494   7.389   5.037  10.147 -0.0896  0.1264 -1.3310
 1874SOL    HW2 7495   7.515   5.012  10.067  0.9504  0.3333  0.2005
 1874SOL     MW 7496   7.471   5.007  10.142 -0.0285  0.1030 -0.3760
 1875SOL     OW 7497   7.246   5.684   1.703  0.1607 -0.0469 -0.0716
 1875SOL    HW1 7498   7.177   5.751   1.700  0.8293  0.6233 -1.9935
 1875SOL    HW2 7499   7.204   5.605   1.671 -0.3538 -0.3082  1.1934
 1875SOL     MW 7500   7.232   5.683   1.699  0.1805  0.0054 -0.1557
 1876SOL     OW 7501   6.336   9.798   0.028  0.1820  0.0141  0.0858
 1876SOL    HW1 7502   6.269   9.787   0.095  0.7602 -0.9287  0.5382
 1876SOL    HW2 7503   6.373   9.710   0.017  3.4701  0.9470  2.1225
 1876SOL     MW 7504   6.332   9.785   0.035  0.6769  0.0128  0.4044
 1877SOL     OW 7505   8.308   3.003   9.997 -0.2842  0.2938  0.7434
 1877SOL    HW1 7506   8.279   3.080   9.947  1.3927 -1.3911 -3.1942
 1877SOL    HW2 7507   8.253   2.931   9.964  1.3901 -1.0256  0.7078
 1877SOL     MW 7508   8.297   3.004   9.986  0.1448 -0.0908  0.2348
 1878SOL     OW 7509   7.384   1.020  10.020  0.0090  0.1269 -0.0581
 1878SOL    HW1 7510   7.365   0.955  10.088  1.8807 -1.8692 -1.3004
 1878SOL    HW2 7511   7.309   1.079  10.022 -1.6547 -1.8762  1.4107
 1878SOL     MW 7512   7.372   1.019  10.029  0.0356 -0.3850 -0.0291
 1879SOL     OW 7513   8.178   2.780   1.438 -0.2055 -0.1456 -0.0700
 1879SOL    HW1 7514   8.132   2.771   1.521  1.3282  0.3409  0.8867
 1879SOL    HW2 7515   8.138   2.855   1.396  1.0917  1.6689  1.7417
 1879SOL     MW 7516   8.167   2.788   1.444  0.1569  0.1489  0.2844
 1880SOL     OW 7517   9.284   8.057   0.587  0.1730  0.4338  0.0888
 1880SOL    HW1 7518   9.251   8.128   0.532 -0.2661  0.6141  0.5746
 1880SOL    HW2 7519   9.292   7.983   0.527  1.0076  0.9868 -0.5056
 1880SOL     MW 7520   9.281   8.057   0.572  0.2236  0.5277  0.0749
 1881SOL     OW 7521   7.748   4.231   0.042 -0.4359 -0.0245 -0.1916
 1881SOL    HW1 7522   7.697   4.172   0.097  0.5193  0.1229  0.8975
 1881SOL    HW2 7523   7.736   4.318   0.081  0.8629 -0.0360  0.2890
 1881SOL     MW 7524   7.740   4.234   0.054 -0.1473 -0.0071  0.0093
 1882SOL     OW 7525   8.489   5.814   9.509 -0.4894  0.3699  0.1779
 1882SOL    HW1 7526   8.518   5.725   9.487 -0.4582  0.5359 -0.4656
 1882SOL    HW2 7527   8.395   5.813   9.491 -0.4313  0.5607 -0.1398
 1882SOL     MW 7528   8.480   5.802   9.504 -0.4780  0.4156  0.0549
 1883SOL     OW 7529   9.525   7.892   2.331 -0.1790 -0.2382  0.1249
 1883SOL    HW1 7530   9.456   7.932   2.279  0.3982  1.0031  0.2823
 1883SOL    HW2 7531   9.589   7.962   2.345 -0.0873 -0.6676  2.1269
 1883SOL     MW 7532   9.525   7.906   2.326 -0.0934 -0.1342  0.4013
 1884SOL     OW 7533   9.523   8.180   0.985  0.0164  0.1327 -0.0501
 1884SOL    HW1 7534   9.549   8.102   0.936 -0.1749  0.5614 -0.8594
 1884SOL    HW2 7535   9.531   8.251   0.922 -1.7741  0.4865  0.0506
 1884SOL     MW 7536   9.527   8.179   0.971 -0.2373  0.2329 -0.1408
 1885SOL     OW 7537   5.990   1.633   0.423 -0.4539 -0.0508  0.0157
 1885SOL    HW1 7538   5.984   1.564   0.490  0.6334 -0.1501  0.0289
 1885SOL    HW2 7539   5.943   1.707   0.461 -0.9038 -0.5116  0.3652
 1885SOL     MW 7540   5.984   1.634   0.437 -0.3723 -0.1225  0.0621
 1886SOL     OW 7541   7.723   9.274   9.450 -0.0881 -0.1789  0.6076
 1886SOL    HW1 7542   7.770   9.197   9.418  0.6932 -0.0237  1.3527
 1886SOL    HW2 7543   7.646   9.280   9.393  1.2690  0.1255 -1.3087
 1886SOL     MW 7544   7.719   9.265   9.439  0.1856 -0.1201  0.4577
 1887SOL     OW 7545   9.438   0.474   9.648 -1.2652  0.0487 -0.1511
 1887SOL    HW1 7546   9.367   0.426   9.691  0.0711 -1.6793  0.2589
 1887SOL    HW2 7547   9.474   0.530   9.716 -1.4398  0.0111 -0.0273
 1887SOL     MW 7548   9.434   0.475   9.662 -1.1164 -0.1773 -0.0828
 1888SOL     OW 7549   9.344   7.056   1.858 -0.0978  0.1752  0.1361
 1888SOL    HW1 7550   9.321   7.056   1.765  0.6760 -0.2497 -0.0632
 1888SOL    HW2 7551   9.365   7.147   1.878 -0.2426  0.2630 -0.1169
 1888SOL     MW 7552   9.344   7.067   1.848 -0.0173  0.1321  0.0782
 1889SOL     OW 7553   0.030   1.586   1.690 -0.4533 -0.2534  0.1274
 1889SOL    HW1 7554  -0.032   1.548   1.627 -0.6506  2.3350 -1.4069
 1889SOL    HW2 7555   0.116   1.558   1.658 -0.6433 -0.4748 -0.1998
 1889SOL     MW 7556   0.033   1.578   1.678 -0.5029  0.0496 -0.1109
 1890SOL     OW 7557   8.147   1.356   0.748 -0.2180  0.4532 -0.1224
 1890SOL    HW1 7558   8.073   1.300   0.773 -0.5160  0.8838 -0.0341
 1890SOL    HW2 7559   8.112   1.445   0.752  0.2503  0.6454 -0.2806
 1890SOL     MW 7560   8.133   1.360   0.752 -0.1962  0.5329 -0.1314
 1891SOL     OW 7561   8.699   3.133   1.052  0.1897  0.0998  0.4075
 1891SOL    HW1 7562   8.739   3.113   1.136 -0.1151 -1.4661  0.2221
 1891SOL    HW2 7563   8.677   3.226   1.056 -0.0533 -0.0115  2.1601
 1891SOL     MW 7564   8.701   3.142   1.063  0.1196 -0.1149  0.6081
 1892SOL     OW 7565   6.766   0.264   2.887 -0.1293  0.3495  0.3732
 1892SOL    HW1 7566   6.849   0.309   2.871  0.8802 -1.8720 -1.1678
 1892SOL    HW2 7567   6.791   0.176   2.914 -1.9495 -0.7318 -1.2291
 1892SOL     MW 7568   6.780   0.259   2.888 -0.2330 -0.0733 -0.0292
 1893SOL     OW 7569   9.036   4.146   1.913  0.3088  0.0350 -0.1320
 1893SOL    HW1 7570   8.943   4.146   1.935  0.3306  3.4510  0.4646
 1893SOL    HW2 7571   9.063   4.054   1.923 -2.5481 -0.7460  1.5497
 1893SOL     MW 7572   9.027   4.134   1.917 -0.0541  0.3723  0.1597
 1894SOL     OW 7573   9.662   5.510   2.075  0.1276  0.4142 -0.0336
 1894SOL    HW1 7574   9.618   5.427   2.060  0.1631  0.0864  1.5052
 1894SOL    HW2 7575   9.738   5.509   2.018 -0.5988 -0.0169 -1.0102
 1894SOL     MW 7576   9.666   5.499   2.066  0.0391  0.3170  0.0384
 1895SOL     OW 7577   6.670   0.723   1.801  0.0279  0.1515 -0.1015
 1895SOL    HW1 7578   6.649   0.793   1.740 -0.8334 -0.6512 -0.7488
 1895SOL    HW2 7579   6.586   0.686   1.827  0.4428 -0.3538  0.5943
 1895SOL     MW 7580   6.657   0.727   1.797 -0.0293 -0.0159 -0.0953
 1896SOL     OW 7581   7.514   4.184   9.645  0.2644  0.2174 -0.1969
 1896SOL    HW1 7582   7.496   4.239   9.721 -0.5305 -0.4223  0.0890
 1896SOL    HW2 7583   7.570   4.115   9.678  0.8870  0.5869 -0.4593
 1896SOL     MW 7584   7.519   4.182   9.659  0.2423  0.1828 -0.1939
 1897SOL     OW 7585   9.714   6.667   0.768 -0.1066 -0.2371 -0.6221
 1897SOL    HW1 7586   9.683   6.664   0.678 -0.2324  0.8901 -0.6362
 1897SOL    HW2 7587   9.730   6.760   0.784 -3.4110  0.1123  1.6285
 1897SOL     MW 7588   9.712   6.679   0.759 -0.5457 -0.0481 -0.3358
 1898SOL     OW 7589   7.487   7.425   1.940  0.5022  0.1204  0.3508
 1898SOL    HW1 7590   7.440   7.486   1.883 -0.0361  0.2496  0.9325
 1898SOL    HW2 7591   7.563   7.476   1.971  0.6402  0.1429 -0.0170
 1898SOL     MW 7592   7.491   7.440   1.936  0.4509  0.1399  0.3782
 1899SOL     OW 7593   7.220   0.263   0.295 -0.0648 -0.8861 -0.4155
 1899SOL    HW1 7594   7.279   0.222   0.358 -0.7168 -0.1041  0.7589
 1899SOL    HW2 7595   7.144   0.206   0.292 -0.6501 -0.2052  0.6455
 1899SOL     MW 7596   7.218   0.251   0.303 -0.2232 -0.6988 -0.1293
 1900SOL     OW 7597   8.442   9.825   0.330 -0.0176  0.5585 -0.2097
 1900SOL    HW1 7598   8.477   9.894   0.273 -0.0779  1.3555  0.6787
 1900SOL    HW2 7599   8.348   9.826   0.314 -0.1498  1.4044  0.5324
 1900SOL     MW 7600   8.435   9.834   0.321 -0.0422  0.7688 -0.0009
 1901SOL     OW 7601   8.001   3.403   1.070 -0.2599  0.3544  0.0262
 1901SOL    HW1 7602   8.035   3.361   1.149 -1.8553 -0.1199  0.4938
 1901SOL    HW2 7603   8.063   3.474   1.052  0.3023  0.2685  1.5145
 1901SOL     MW 7604   8.013   3.407   1.078 -0.3922  0.2827  0.2766
 1902SOL     OW 7605   7.012   9.660  10.145 -0.0536  0.3792 -0.2433
 1902SOL    HW1 7606   7.006   9.618  10.231  0.2403  0.6707 -0.0785
 1902SOL    HW2 7607   6.922   9.685  10.124 -0.0944  0.5086  0.0807
 1902SOL     MW 7608   7.000   9.657  10.154 -0.0212  0.4331 -0.1807
 1903SOL     OW 7609   8.696   5.878   0.560 -0.3788  0.9563  0.5912
 1903SOL    HW1 7610   8.740   5.822   0.495 -0.7671  0.9414  0.3357
 1903SOL    HW2 7611   8.746   5.959   0.559 -0.5826  1.0852  0.0166
 1903SOL     MW 7612   8.708   5.881   0.551 -0.4546  0.9709  0.4850
 1904SOL     OW 7613   9.390   7.063   9.085 -0.7676 -0.0414  0.3649
 1904SOL    HW1 7614   9.479   7.029   9.097 -0.9318 -0.4736  0.3493
 1904SOL    HW2 7615   9.352   7.060   9.173 -0.8178  0.0103  0.3447
 1904SOL     MW 7616   9.397   7.058   9.098 -0.7951 -0.0901  0.3603
 1905SOL     OW 7617   7.596   9.291   2.486 -0.2503 -0.5252  0.7361
 1905SOL    HW1 7618   7.511   9.317   2.451  0.3427 -1.6172 -1.7626
 1905SOL    HW2 7619   7.637   9.373   2.513 -1.9195  0.0488  1.6204
 1905SOL     MW 7620   7.591   9.305   2.485 -0.3880 -0.5915  0.5294
 1906SOL     OW 7621   8.202   0.325   0.066 -0.1103  0.5851  0.1800
 1906SOL    HW1 7622   8.148   0.402   0.081 -0.3309  0.3520  0.6000
 1906SOL    HW2 7623   8.267   0.353   0.002  0.5664  1.4662  1.2340
 1906SOL     MW 7624   8.203   0.338   0.060 -0.0519  0.6681  0.3687
 1907SOL     OW 7625   9.738   9.013   9.442 -0.1550 -0.6316  0.3353
 1907SOL    HW1 7626   9.664   9.007   9.382 -1.4635  2.5448  1.4196
 1907SOL    HW2 7627   9.718   8.947   9.509 -0.4513 -1.8078 -0.8594
 1907SOL     MW 7628   9.726   9.004   9.443 -0.3604 -0.3756  0.3212
 1908SOL     OW 7629   7.827   0.480   3.142 -0.0566 -0.0839 -0.3467
 1908SOL    HW1 7630   7.742   0.436   3.138 -0.5409  0.6701  1.0054
 1908SOL    HW2 7631   7.805   0.573   3.146  0.7496  0.0649  1.5045
 1908SOL     MW 7632   7.813   0.487   3.142 -0.0154  0.0317  0.0634
 1909SOL     OW 7633  10.047   2.723   1.111  0.3763  0.1206 -0.2481
 1909SOL    HW1 7634   9.973   2.662   1.112  1.3260 -1.1650 -2.4960
 1909SOL    HW2 7635  10.016   2.799   1.063  0.4576 -0.3752 -1.0980
 1909SOL     MW 7636  10.034   2.725   1.105  0.5082 -0.1074 -0.6446
 1910SOL     OW 7637   7.483   9.585   0.538 -0.8624  0.0315 -0.1428
 1910SOL    HW1 7638   7.389   9.575   0.523 -1.1395  1.6608  0.2816
 1910SOL    HW2 7639   7.501   9.676   0.514  0.2720  0.2445  1.4011
 1910SOL     MW 7640   7.473   9.596   0.533 -0.7527  0.2674  0.1092
 1911SOL     OW 7641   8.908   7.861   1.628 -0.0565 -0.2678 -0.2291
 1911SOL    HW1 7642   8.817   7.860   1.659  0.5530  2.8229  2.1325
 1911SOL    HW2 7643   8.901   7.890   1.537 -1.4694  1.3232  0.3153
 1911SOL     MW 7644   8.895   7.865   1.620 -0.1593  0.3315  0.1429
 1912SOL     OW 7645   0.243   8.438   1.304  0.0707 -0.1603 -0.2973
 1912SOL    HW1 7646   0.196   8.516   1.334 -0.7346 -0.4698 -0.7332
 1912SOL    HW2 7647   0.334   8.467   1.293 -0.1434  0.6067 -0.0596
 1912SOL     MW 7648   0.249   8.451   1.306 -0.0598 -0.1017 -0.3227
 1913SOL     OW 7649   9.537   7.097   0.388 -0.2254 -0.0312  0.0756
 1913SOL    HW1 7650   9.537   7.164   0.457  0.5458 -0.8160  0.8482
 1913SOL    HW2 7651   9.494   7.140   0.314  2.5406  2.2857 -0.3694
 1913SOL     MW 7652   9.531   7.111   0.387  0.2274  0.1649  0.1176
 1914SOL     OW 7653   0.580   5.702   1.632  0.0305  0.2077 -0.0555
 1914SOL    HW1 7654   0.564   5.614   1.665  0.5001 -0.6785 -2.0164
 1914SOL    HW2 7655   0.665   5.727   1.668 -0.5131  0.2664  1.2401
 1914SOL     MW 7656   0.589   5.694   1.641  0.0210  0.1017 -0.1407
 1915SOL     OW 7657   0.062   9.201   0.438  0.2033  0.0727  0.3331
 1915SOL    HW1 7658  -0.008   9.266   0.434 -0.2027 -0.4276 -1.1011
 1915SOL    HW2 7659   0.029   9.135   0.499 -0.3535  0.0906  0.0577
 1915SOL     MW 7660   0.049   9.201   0.446  0.0800  0.0109  0.1143
 1916SOL     OW 7661   8.589   1.342   0.683  0.1018  0.0924  0.5912
 1916SOL    HW1 7662   8.619   1.383   0.764  0.6926  1.8864 -0.4783
 1916SOL    HW2 7663   8.630   1.256   0.682  0.6219  0.3076  1.8541
 1916SOL     MW 7664   8.598   1.336   0.693  0.2440  0.3496  0.6159
 1917SOL     OW 7665   9.049   5.641   0.874  0.6953 -0.5684 -0.1444
 1917SOL    HW1 7666   9.010   5.721   0.838  0.1094 -1.1938 -0.9460
 1917SOL    HW2 7667   8.981   5.606   0.932  1.8764  0.7869  2.2198
 1917SOL     MW 7668   9.035   5.647   0.877  0.7715 -0.4750  0.0556
 1918SOL     OW 7669   7.626   3.337   9.808  0.5690  0.3901  0.2228
 1918SOL    HW1 7670   7.671   3.254   9.794 -0.2693 -0.4117  1.9795
 1918SOL    HW2 7671   7.552   3.316   9.865  0.9020  2.4960  1.5558
 1918SOL     MW 7672   7.622   3.324   9.813  0.5043  0.5570  0.6184
 1919SOL     OW 7673   0.073   9.221   1.043  0.0106  0.0167  0.3082
 1919SOL    HW1 7674   0.024   9.166   1.105  0.8591 -0.5782  0.4648
 1919SOL    HW2 7675   0.020   9.222   0.964 -1.7028  1.7643  1.3964
 1919SOL     MW 7676   0.060   9.214   1.041 -0.1001  0.1643  0.4675
 1920SOL     OW 7677   9.367   9.793   1.026 -0.2842 -0.7224  0.3213
 1920SOL    HW1 7678   9.461   9.807   1.039 -0.6265  0.0007  2.6065
 1920SOL    HW2 7679   9.335   9.874   0.986 -0.0078 -0.8083 -0.0743
 1920SOL     MW 7680   9.375   9.805   1.023 -0.2927 -0.6408  0.5632
 1921SOL     OW 7681   7.603   4.055   2.031 -0.1827 -0.3063  0.3340
 1921SOL    HW1 7682   7.647   4.135   2.058 -0.1606 -0.4304  0.6633
 1921SOL    HW2 7683   7.512   4.068   2.055 -0.1476 -0.4511  0.5475
 1921SOL     MW 7684   7.597   4.067   2.037 -0.1754 -0.3407  0.4035
 1922SOL     OW 7685  10.000   7.425   1.476 -0.1373  0.3160  0.3768
 1922SOL    HW1 7686  10.036   7.449   1.390 -2.1448 -0.4653 -0.7682
 1922SOL    HW2 7687   9.950   7.501   1.503  0.5691  0.5950  0.9245
 1922SOL     MW 7688   9.998   7.438   1.468 -0.3038  0.2517  0.3003
 1923SOL     OW 7689   8.955   7.002   2.224 -0.6101 -0.1066 -0.1187
 1923SOL    HW1 7690   8.930   6.950   2.299 -0.7095  1.7968  1.2378
 1923SOL    HW2 7691   8.873   7.036   2.189 -0.5407 -0.7298 -0.9096
 1923SOL     MW 7692   8.941   7.000   2.229 -0.6140  0.0573 -0.0463
 1924SOL     OW 7693   8.639   7.954   1.820 -0.3658  0.4379 -0.3396
 1924SOL    HW1 7694   8.631   7.886   1.887 -0.1359 -0.7110 -1.4581
 1924SOL    HW2 7695   8.562   7.943   1.764  0.7923 -0.3932 -1.8424
 1924SOL     MW 7696   8.628   7.944   1.821 -0.1881  0.1844 -0.6751
 1925SOL     OW 7697   7.291   5.780   0.060  0.6192  0.3229  0.0213
 1925SOL    HW1 7698   7.326   5.691   0.065 -0.8256 -0.2384  1.0587
 1925SOL    HW2 7699   7.199   5.771   0.084  0.3749  2.0821 -0.0770
 1925SOL     MW 7700   7.284   5.768   0.064  0.4030  0.4762  0.1415
 1926SOL     OW 7701   9.894   5.531   1.486 -0.6728  0.1792 -0.3465
 1926SOL    HW1 7702   9.937   5.466   1.542 -1.6239  1.3315  1.8432
 1926SOL    HW2 7703   9.957   5.548   1.416  0.6249 -1.2686  0.4101
 1926SOL     MW 7704   9.907   5.525   1.484 -0.6284  0.1414  0.0307
 1927SOL     OW 7705   8.869   8.934   1.694  0.3205 -0.0948 -0.1866
 1927SOL    HW1 7706   8.946   8.892   1.657 -0.0853 -0.2752 -0.8442
 1927SOL    HW2 7707   8.796   8.901   1.641 -0.4232 -1.1864  1.4382
 1927SOL     MW 7708   8.870   8.925   1.682  0.1734 -0.2576 -0.0628
 1928SOL     OW 7709   9.472   2.944   2.802 -0.2473 -0.0215  0.2334
 1928SOL    HW1 7710   9.450   3.033   2.774  1.1377  0.3913  0.4199
 1928SOL    HW2 7711   9.565   2.935   2.784  0.3724 -0.3079  3.0909
 1928SOL     MW 7712   9.481   2.954   2.796  0.0093 -0.0053  0.6230
 1929SOL     OW 7713   7.345   2.062   9.292 -0.4064 -0.0110  0.4792
 1929SOL    HW1 7714   7.376   2.090   9.206  0.8566 -2.5033  0.0196
 1929SOL    HW2 7715   7.416   2.086   9.352 -0.5422  0.2101  0.5536
 1929SOL     MW 7716   7.358   2.069   9.289 -0.2621 -0.3018  0.4299
 1930SOL     OW 7717   9.402   4.101   2.615 -0.4587  0.1307  0.4616
 1930SOL    HW1 7718   9.451   4.143   2.685  0.5273  0.6946 -0.5582
 1930SOL    HW2 7719   9.327   4.159   2.600 -0.2524  0.4097  0.5098
 1930SOL     MW 7720   9.398   4.114   2.622 -0.3061  0.2386  0.3372
 1931SOL     OW 7721   7.778   6.781   9.910  0.2509  0.3832 -0.5143
 1931SOL    HW1 7722   7.786   6.804  10.003  0.3990 -0.8664 -0.2040
 1931SOL    HW2 7723   7.693   6.738   9.904 -0.8608  2.5164 -1.4312
 1931SOL     MW 7724   7.768   6.779   9.921  0.1276  0.4963 -0.5920
 1932SOL     OW 7725   9.980   4.101   1.208 -0.3264 -0.0472  0.1912
 1932SOL    HW1 7726   9.894   4.108   1.166 -0.8385 -1.0571  1.0090
 1932SOL    HW2 7727  10.037   4.160   1.158 -1.5416  0.8063 -0.2264
 1932SOL     MW 7728   9.976   4.109   1.197 -0.5475 -0.0672  0.2425
 1933SOL     OW 7729   8.405   3.823   0.189  0.3674 -0.0709  0.5171
 1933SOL    HW1 7730   8.315   3.843   0.163  0.4354 -0.7297 -0.2551
 1933SOL    HW2 7731   8.406   3.729   0.203  1.2340 -0.2706 -0.7359
 1933SOL     MW 7732   8.393   3.814   0.188  0.4871 -0.1808  0.2578
 1934SOL     OW 7733   9.342   4.974   1.423  0.0845  0.1842 -0.3914
 1934SOL    HW1 7734   9.424   5.014   1.452 -0.1757  0.3883  0.0816
 1934SOL    HW2 7735   9.354   4.880   1.439 -0.0199  0.2842  0.3101
 1934SOL     MW 7736   9.354   4.967   1.429  0.0378  0.2231 -0.2411
 1935SOL     OW 7737   9.385   6.425   9.352 -0.1197 -0.0228  0.2725
 1935SOL    HW1 7738   9.426   6.509   9.329  0.6415 -0.7674 -1.2599
 1935SOL    HW2 7739   9.291   6.444   9.354  0.1081  1.1581  1.3262
 1935SOL     MW 7740   9.379   6.438   9.349  0.0069  0.0330  0.2112
 1936SOL     OW 7741   7.262   0.756   2.030 -0.3532 -0.2417  0.2319
 1936SOL    HW1 7742   7.168   0.736   2.027 -0.4268  0.1378 -0.0608
 1936SOL    HW2 7743   7.305   0.672   2.012 -0.6692  0.0863 -2.3345
 1936SOL     MW 7744   7.255   0.743   2.028 -0.4031 -0.1511 -0.1341
 1937SOL     OW 7745   8.225   6.211   1.790 -0.4973 -0.0406 -0.0740
 1937SOL    HW1 7746   8.145   6.263   1.793 -0.5320 -0.1052  0.1303
 1937SOL    HW2 7747   8.286   6.264   1.738 -0.9088 -0.3302 -0.8629
 1937SOL     MW 7748   8.223   6.225   1.784 -0.5544 -0.0859 -0.1488
 1938SOL     OW 7749   9.295   0.050   9.512  0.2320 -0.1917  0.2643
 1938SOL    HW1 7750   9.319  -0.010   9.441 -0.7926 -0.2430 -0.0595
 1938SOL    HW2 7751   9.369   0.110   9.519  1.2166 -1.3875  0.4874
 1938SOL     MW 7752   9.307   0.050   9.504  0.2269 -0.3514  0.2514
 1939SOL     OW 7753   6.115   8.556   0.554 -0.2582 -0.2486 -0.4932
 1939SOL    HW1 7754   6.067   8.503   0.491 -0.4671 -0.7679  0.0958
 1939SOL    HW2 7755   6.178   8.495   0.594 -2.1701 -0.7455  2.0003
 1939SOL     MW 7756   6.117   8.541   0.551 -0.5297 -0.3787 -0.0986
 1940SOL     OW 7757   7.978   0.964   1.080  0.0038 -0.3987  0.1038
 1940SOL    HW1 7758   7.975   1.003   0.993 -0.4009 -0.4001  0.1186
 1940SOL    HW2 7759   7.992   1.038   1.139  0.4444 -0.4149  0.0302
 1940SOL     MW 7760   7.980   0.978   1.076  0.0084 -0.4010  0.0963
 1941SOL     OW 7761   7.211  10.126   9.560 -0.4997  0.4321 -0.9492
 1941SOL    HW1 7762   7.128  10.084   9.580 -1.4979  2.5695 -0.2296
 1941SOL    HW2 7763   7.257  10.129   9.644 -0.2365  0.3428 -1.0896
 1941SOL     MW 7764   7.206  10.121   9.574 -0.5938  0.6943 -0.8751
 1942SOL     OW 7765   7.305   2.258   2.652  0.3171 -0.1539 -0.5088
 1942SOL    HW1 7766   7.377   2.199   2.628  0.5661  0.7924 -2.2137
 1942SOL    HW2 7767   7.332   2.344   2.620 -0.7873  0.5772  0.4345
 1942SOL     MW 7768   7.318   2.261   2.645  0.2076  0.0608 -0.6063
 1943SOL     OW 7769   8.000   1.860   9.132 -0.2589  0.2657 -0.0736
 1943SOL    HW1 7770   8.045   1.940   9.158 -0.5006  0.5183 -0.4236
 1943SOL    HW2 7771   8.066   1.791   9.143  0.0921  0.5768 -0.2038
 1943SOL     MW 7772   8.015   1.861   9.137 -0.2449  0.3379 -0.1351
 1944SOL     OW 7773   6.714   4.345   1.940  0.3518 -0.3867  0.4225
 1944SOL    HW1 7774   6.653   4.417   1.922 -0.1611 -1.2062 -1.2917
 1944SOL    HW2 7775   6.800   4.381   1.919  0.1766 -0.0598  0.2549
 1944SOL     MW 7776   6.717   4.359   1.935  0.2637 -0.4498  0.1816
 1945SOL     OW 7777   8.080   9.312   8.743 -0.3152  0.3333 -0.5768
 1945SOL    HW1 7778   8.148   9.283   8.682  0.6610 -0.3869  0.8167
 1945SOL    HW2 7779   8.078   9.407   8.731  1.5516  0.4910 -0.0866
 1945SOL     MW 7780   8.089   9.321   8.733  0.0487  0.2613 -0.3356
 1946SOL     OW 7781   9.414   4.960   9.405 -0.1507  0.1835 -0.4108
 1946SOL    HW1 7782   9.480   5.016   9.366 -0.3567  0.2476 -0.6683
 1946SOL    HW2 7783   9.366   5.017   9.465 -0.2592  0.2439 -0.5553
 1946SOL     MW 7784   9.416   4.974   9.408 -0.1910  0.1995 -0.4623
 1947SOL     OW 7785   6.692   1.213   0.231 -0.2462  0.1274  0.4867
 1947SOL    HW1 7786   6.735   1.131   0.208 -0.1581 -0.3225  2.0842
 1947SOL    HW2 7787   6.752   1.281   0.201  0.6055 -0.4564  0.8232
 1947SOL     MW 7788   6.705   1.212   0.224 -0.1259 -0.0049  0.7343
 1948SOL     OW 7789   6.674   4.921   1.794 -0.0383 -0.1052  0.3088
 1948SOL    HW1 7790   6.628   4.910   1.877 -0.7218  0.8289  0.0704
 1948SOL    HW2 7791   6.740   4.852   1.794 -1.5326 -1.6015  0.5804
 1948SOL     MW 7792   6.677   4.911   1.805 -0.3171 -0.1772  0.3131
 1949SOL     OW 7793   8.015   8.660   0.907 -0.7882 -0.3477 -0.1323
 1949SOL    HW1 7794   8.050   8.709   0.833 -1.4486 -0.1107 -0.2989
 1949SOL    HW2 7795   8.092   8.626   0.953 -0.3345  0.5573 -0.2115
 1949SOL     MW 7796   8.029   8.662   0.903 -0.8147 -0.2015 -0.1637
 1950SOL     OW 7797   0.478   4.091   0.537  0.6104 -0.0592 -0.2145
 1950SOL    HW1 7798   0.444   4.137   0.460 -1.5668  0.2541  0.8688
 1950SOL    HW2 7799   0.438   4.004   0.533 -0.3662  0.3063  1.0841
 1950SOL     MW 7800   0.469   4.086   0.527  0.2067  0.0277  0.0904
 1951SOL     OW 7801   6.511   1.742   0.543 -0.0902 -0.2478  0.3413
 1951SOL    HW1 7802   6.441   1.747   0.609 -1.1571 -0.4811 -0.7317
 1951SOL    HW2 7803   6.474   1.688   0.473  1.1352 -0.2763 -0.3168
 1951SOL     MW 7804   6.497   1.736   0.542 -0.0699 -0.2813  0.1197
 1952SOL     OW 7805   8.846   9.076   8.748  0.3696 -0.4402 -0.0495
 1952SOL    HW1 7806   8.846   9.140   8.676 -0.8813  0.5696  0.7916
 1952SOL    HW2 7807   8.938   9.066   8.771  0.6243  0.8106 -0.4406
 1952SOL     MW 7808   8.857   9.083   8.741  0.2421 -0.1509  0.0081
 1953SOL     OW 7809   8.435   8.900   1.288 -0.2866 -0.0108  0.1433
 1953SOL    HW1 7810   8.507   8.891   1.351 -0.6885 -0.2392  0.5780
 1953SOL    HW2 7811   8.478   8.914   1.204  0.2790 -0.8020  0.2928
 1953SOL     MW 7812   8.450   8.901   1.286 -0.2656 -0.1413  0.2181
 1954SOL     OW 7813   8.866   8.868   2.307 -0.5583  0.0951 -0.0718
 1954SOL    HW1 7814   8.819   8.785   2.311  0.2393 -0.3959 -0.7221
 1954SOL    HW2 7815   8.826   8.921   2.377 -1.1971 -0.7562  0.2278
 1954SOL     MW 7816   8.855   8.864   2.317 -0.5379 -0.0767 -0.1167
 1955SOL     OW 7817   8.273   8.750   2.988 -0.1263 -0.4216 -0.5090
 1955SOL    HW1 7818   8.266   8.678   2.925 -1.9537 -0.6534 -0.0917
 1955SOL    HW2 7819   8.187   8.752   3.031  0.7686  0.3224  1.3297
 1955SOL     MW 7820   8.261   8.741   2.985 -0.2457 -0.3560 -0.2202
 1956SOL     OW 7821   9.082   8.346   0.779 -0.1948 -0.6333 -0.2645
 1956SOL    HW1 7822   9.100   8.324   0.870 -1.0438  0.0114  0.0686
 1956SOL    HW2 7823   9.006   8.293   0.755 -0.4557 -0.2273 -0.3507
 1956SOL     MW 7824   9.075   8.336   0.787 -0.3369 -0.4988 -0.2329
 1957SOL     OW 7825   9.303   4.829   9.843  0.2177 -0.0339  0.1533
 1957SOL    HW1 7826   9.377   4.769   9.843  0.7725  0.6460 -0.4102
 1957SOL    HW2 7827   9.342   4.916   9.846 -0.5173  0.3651 -1.1338
 1957SOL     MW 7828   9.317   4.833   9.844  0.1946  0.1042 -0.0836
 1958SOL     OW 7829   7.155   0.184   2.142  0.0413 -0.2707  0.4521
 1958SOL    HW1 7830   7.119   0.121   2.205  1.2554 -0.9094  0.5466
 1958SOL    HW2 7831   7.215   0.132   2.089 -0.8703  0.2714 -1.1973
 1958SOL     MW 7832   7.158   0.169   2.144  0.0800 -0.2830  0.2531
 1959SOL     OW 7833   8.697   6.975   1.372 -0.4935 -0.1083  0.1482
 1959SOL    HW1 7834   8.607   6.957   1.397 -0.3448  0.1779  0.9416
 1959SOL    HW2 7835   8.749   6.941   1.445  0.0760 -0.6783 -0.5066
 1959SOL     MW 7836   8.692   6.969   1.385 -0.4016 -0.1446  0.1659
 1960SOL     OW 7837   8.028   5.785  10.076  0.7610 -0.3558  0.0447
 1960SOL    HW1 7838   8.118   5.803  10.103  1.2809 -1.5418 -0.7755
 1960SOL    HW2 7839   8.037   5.748   9.988 -0.5327 -0.4550 -0.0621
 1960SOL     MW 7840   8.041   5.782  10.068  0.6619 -0.5203 -0.0739
 1961SOL     OW 7841   6.676   8.233   1.134 -0.0453 -0.4213 -0.7144
 1961SOL    HW1 7842   6.652   8.251   1.225  0.6893  0.9449 -0.7590
 1961SOL    HW2 7843   6.664   8.317   1.090  0.7331 -0.7739 -1.6228
 1961SOL     MW 7844   6.671   8.246   1.140  0.1484 -0.2915 -0.8364
 1962SOL     OW 7845   9.330   4.911   2.829 -0.0828  0.0233  0.0432
 1962SOL    HW1 7846   9.399   4.914   2.764 -0.5911  1.7959 -0.4844
 1962SOL    HW2 7847   9.347   4.987   2.885  0.3036 -1.4080  1.9782
 1962SOL     MW 7848   9.341   4.921   2.828 -0.0984  0.0670  0.2233
 1963SOL     OW 7849   7.837   0.369   1.553  0.1173  0.1832 -0.0205
 1963SOL    HW1 7850   7.757   0.325   1.525  0.7066 -0.9833  0.0634
 1963SOL    HW2 7851   7.904   0.301   1.547  0.7713  0.6621  1.5439
 1963SOL     MW 7852   7.835   0.354   1.549  0.2765  0.0952  0.1905
 1964SOL     OW 7853   9.809   9.083   1.640 -0.6229  0.7220  0.0952
 1964SOL    HW1 7854   9.771   9.147   1.579  0.9289  0.6749 -1.0036
 1964SOL    HW2 7855   9.780   8.998   1.607  0.4119  0.6814 -0.7946
 1964SOL     MW 7856   9.801   9.080   1.628 -0.2918  0.7108 -0.1594
 1965SOL     OW 7857   9.344   6.898   1.253  0.6526 -0.5779  0.4572
 1965SOL    HW1 7858   9.309   6.860   1.172 -0.2392  0.1164  0.4993
 1965SOL    HW2 7859   9.433   6.865   1.259  0.8886 -0.2764 -1.0557
 1965SOL     MW 7860   9.351   6.889   1.243  0.5686 -0.4504  0.2690
 1966SOL     OW 7861   7.813   8.068   2.535 -0.6121 -0.4410 -0.8010
 1966SOL    HW1 7862   7.800   8.054   2.629 -0.2591 -0.0691 -0.6950
 1966SOL    HW2 7863   7.728   8.100   2.504 -0.3208  0.8649 -0.3220
 1966SOL     MW 7864   7.800   8.070   2.543 -0.5296 -0.2262 -0.7261
 1967SOL     OW 7865   6.434   3.864   0.581 -0.2075 -0.1575 -0.2374
 1967SOL    HW1 7866   6.519   3.821   0.582  0.1177  0.3235 -2.0481
 1967SOL    HW2 7867   6.393   3.834   0.499 -1.4842  0.1569  0.2604
 1967SOL     MW 7868   6.439   3.855   0.570 -0.3293 -0.0557 -0.4054
 1968SOL     OW 7869   9.579   1.507   2.359 -0.2335  0.1790  0.7565
 1968SOL    HW1 7870   9.541   1.473   2.440  2.0137  0.0737  1.8711
 1968SOL    HW2 7871   9.561   1.440   2.294 -1.7238  0.0604  1.2581
 1968SOL     MW 7872   9.572   1.494   2.361 -0.1366  0.1503  0.9634
 1969SOL     OW 7873   7.175   6.436   0.581  0.0483 -0.1492  0.4003
 1969SOL    HW1 7874   7.221   6.444   0.498  2.0207  0.6411  1.4918
 1969SOL    HW2 7875   7.166   6.341   0.594  0.5527 -0.2930 -0.2691
 1969SOL     MW 7876   7.180   6.425   0.572  0.3653 -0.0664  0.4543
 1970SOL     OW 7877   7.988   7.665   9.813  0.6527 -1.0137 -0.0388
 1970SOL    HW1 7878   7.962   7.581   9.851 -0.5608 -0.8104 -0.3880
 1970SOL    HW2 7879   7.906   7.706   9.787  1.3423 -0.5111 -1.5563
 1970SOL     MW 7880   7.974   7.659   9.814  0.5856 -0.9234 -0.2777
 1971SOL     OW 7881   9.731   5.385   1.290  0.0350  0.0124  0.3798
 1971SOL    HW1 7882   9.732   5.371   1.385 -2.3768  0.0482  0.4845
 1971SOL    HW2 7883   9.697   5.304   1.254 -2.0394  1.0350 -0.1293
 1971SOL     MW 7884   9.727   5.373   1.298 -0.5393  0.1479  0.3280
 1972SOL     OW 7885   8.586   5.203   2.448  0.1402  0.0544  0.0850
 1972SOL    HW1 7886   8.625   5.179   2.364  1.3117 -0.4419  0.7424
 1972SOL    HW2 7887   8.516   5.140   2.461  1.0376 -0.9399  0.2436
 1972SOL     MW 7888   8.582   5.192   2.439  0.4050 -0.1364  0.1895
 1973SOL     OW 7889   6.298   0.250   1.954 -0.0118 -0.2716  0.2771
 1973SOL    HW1 7890   6.238   0.175   1.948  1.4974 -1.4470 -0.8019
 1973SOL    HW2 7891   6.336   0.244   2.041 -1.6177  0.6764  1.1061
 1973SOL     MW 7892   6.295   0.240   1.965 -0.0242 -0.3007  0.2451
 1974SOL     OW 7893   9.135   9.523   2.767  0.4270  0.1810  0.5845
 1974SOL    HW1 7894   9.164   9.432   2.758  0.1754 -0.0009  1.5488
 1974SOL    HW2 7895   9.048   9.525   2.728  0.1691 -0.1428  1.1337
 1974SOL     MW 7896   9.128   9.512   2.761  0.3618  0.1163  0.7783
 1975SOL     OW 7897  10.002   4.711   1.247 -0.3716 -0.2805 -0.4444
 1975SOL    HW1 7898   9.939   4.703   1.319 -1.9085 -0.1814 -1.7381
 1975SOL    HW2 7899  10.060   4.636   1.259 -0.7530 -0.4199  0.7407
 1975SOL     MW 7900  10.001   4.700   1.258 -0.6172 -0.2857 -0.4583
 1976SOL     OW 7901   7.082   8.747   1.559  0.2888 -0.8819  0.6557
 1976SOL    HW1 7902   7.002   8.695   1.565  0.0828 -1.1427 -2.6901
 1976SOL    HW2 7903   7.150   8.685   1.532  1.5380 -0.5187  2.7061
 1976SOL     MW 7904   7.081   8.732   1.557  0.4223 -0.8688  0.4899
 1977SOL     OW 7905   0.118   5.172   0.828  0.2037  0.1612 -0.0868
 1977SOL    HW1 7906   0.183   5.165   0.758  0.7790 -1.8901  0.5755
 1977SOL    HW2 7907   0.116   5.265   0.849  1.7724  0.5005 -1.2048
 1977SOL     MW 7908   0.126   5.183   0.821  0.4782 -0.0580 -0.1451
 1978SOL     OW 7909   9.961   1.366   1.110 -0.1835 -0.1922 -0.1357
 1978SOL    HW1 7910  10.051   1.392   1.128 -0.4306  0.7483 -0.2036
 1978SOL    HW2 7911   9.913   1.449   1.104 -1.1089 -0.6933  0.2086
 1978SOL     MW 7912   9.966   1.380   1.111 -0.3336 -0.1360 -0.1003
 1979SOL     OW 7913   6.939   9.157   0.674 -0.5332  0.3746 -0.7172
 1979SOL    HW1 7914   6.931   9.239   0.723 -0.0496 -1.0264  1.8481
 1979SOL    HW2 7915   6.849   9.133   0.652 -0.9413  0.2864  0.8988
 1979SOL     MW 7916   6.927   9.164   0.678 -0.5235  0.1840 -0.1820
 1980SOL     OW 7917   9.934   0.599   1.169  0.1427  0.7942 -0.0564
 1980SOL    HW1 7918  10.001   0.574   1.233  0.7136  2.5277  0.0531
 1980SOL    HW2 7919   9.982   0.617   1.089 -0.4018  0.2577 -0.5108
 1980SOL     MW 7920   9.948   0.598   1.167  0.1461  0.9474 -0.1006
 1981SOL     OW 7921   6.560   7.028   0.803  0.6169 -0.2229  0.0378
 1981SOL    HW1 7922   6.535   6.968   0.872 -0.2709  1.2326  1.0464
 1981SOL    HW2 7923   6.655   7.037   0.813  0.4834  0.1134  1.2386
 1981SOL     MW 7924   6.569   7.022   0.813  0.4862  0.0065  0.3206
 1982SOL     OW 7925   7.369   5.310   1.391 -0.4807  0.6212 -0.1321
 1982SOL    HW1 7926   7.393   5.344   1.305  0.2305 -1.3642 -0.7662
 1982SOL    HW2 7927   7.311   5.236   1.372 -0.2466  0.0990  1.0997
 1982SOL     MW 7928   7.364   5.305   1.378 -0.3597  0.3002 -0.0556
 1983SOL     OW 7929   9.082   0.758   1.994 -0.3372 -0.3342 -0.1271
 1983SOL    HW1 7930   9.042   0.837   2.031  0.8056  0.6701 -0.9391
 1983SOL    HW2 7931   9.079   0.695   2.065  0.7596  1.1753  1.3574
 1983SOL     MW 7932   9.076   0.760   2.008 -0.0505 -0.0124 -0.0410
 1984SOL     OW 7933   8.079   3.277   2.387  0.3134  0.7382  0.2780
 1984SOL    HW1 7934   7.993   3.312   2.411 -0.0318 -0.5591  1.0669
 1984SOL    HW2 7935   8.115   3.342   2.327 -1.1402  1.3958  0.0550
 1984SOL     MW 7936   8.072   3.290   2.383  0.0832  0.6563  0.3505
 1985SOL     OW 7937   7.218   6.994   1.574  0.7146 -0.5208  0.5613
 1985SOL    HW1 7938   7.313   7.001   1.565  0.5734 -0.6401 -1.4020
 1985SOL    HW2 7939   7.197   6.909   1.535 -0.1980 -0.5906  1.1661
 1985SOL     MW 7940   7.227   6.984   1.568  0.5797 -0.5450  0.3873
 1986SOL     OW 7941  10.105   4.584   2.191  0.4541  0.3937 -0.3029
 1986SOL    HW1 7942  10.083   4.643   2.263 -0.0564 -0.4711  0.2731
 1986SOL    HW2 7943  10.040   4.514   2.197 -0.3034  0.8645 -2.2986
 1986SOL     MW 7944  10.094   4.583   2.201  0.2918  0.3433 -0.4846
 1987SOL     OW 7945   7.454   3.207   2.661 -0.0285  0.3957  0.2957
 1987SOL    HW1 7946   7.440   3.121   2.621 -0.3180  0.9477 -0.8337
 1987SOL    HW2 7947   7.548   3.209   2.681  0.5825  0.8811 -2.3164
 1987SOL     MW 7948   7.464   3.196   2.659  0.0127  0.5285 -0.1832
 1988SOL     OW 7949   9.358   8.438   2.361  0.0922 -0.5160 -0.1153
 1988SOL    HW1 7950   9.438   8.473   2.323 -0.0663  0.2315  0.2264
 1988SOL    HW2 7951   9.291   8.452   2.294  0.0408 -0.1975 -0.0025
 1988SOL     MW 7952   9.360   8.444   2.348  0.0653 -0.3795 -0.0571
 1989SOL     OW 7953   6.592   6.140   0.209 -0.0532 -0.3358 -0.2932
 1989SOL    HW1 7954   6.570   6.084   0.135 -1.3817 -1.3181  0.7861
 1989SOL    HW2 7955   6.688   6.137   0.214 -0.0740 -2.3119 -0.4273
 1989SOL     MW 7956   6.602   6.132   0.200 -0.2259 -0.7145 -0.1722
 1990SOL     OW 7957   7.588   0.221   1.471  0.0046  0.5575  0.2522
 1990SOL    HW1 7958   7.600   0.150   1.534  1.9840  1.2955  0.7916
 1990SOL    HW2 7959   7.494   0.236   1.469 -0.3011 -0.9436  1.3911
 1990SOL     MW 7960   7.577   0.214   1.479  0.2188  0.4598  0.4671
 1991SOL     OW 7961   9.194   4.695   2.530  0.3971 -0.1228  0.0681
 1991SOL    HW1 7962   9.130   4.625   2.546 -0.2646  0.6848  1.1744
 1991SOL    HW2 7963   9.150   4.774   2.561  1.8194  0.5106  0.5473
 1991SOL     MW 7964   9.180   4.696   2.536  0.4945  0.0617  0.2711
 1992SOL     OW 7965   9.222   0.871   9.253 -0.7019 -0.1690  0.1675
 1992SOL    HW1 7966   9.316   0.877   9.236 -0.7572  2.2700  0.3326
 1992SOL    HW2 7967   9.193   0.795   9.203  0.9739  0.3772 -1.7780
 1992SOL     MW 7968   9.230   0.862   9.244 -0.4945  0.2131 -0.0604
 1993SOL     OW 7969   9.422   5.649  10.046 -0.0519 -0.5075  0.0258
 1993SOL    HW1 7970   9.429   5.685  10.134  0.2917 -1.0378  0.2247
 1993SOL    HW2 7971   9.474   5.708   9.992  0.3593 -0.5967  0.3139
 1993SOL     MW 7972   9.430   5.661  10.050  0.0447 -0.5868  0.0881
 1994SOL     OW 7973   0.340   7.965   0.818  0.5166 -0.3343  0.3616
 1994SOL    HW1 7974   0.339   7.948   0.724 -0.4240 -1.2345  0.5154
 1994SOL    HW2 7975   0.312   8.056   0.826 -1.7851 -0.9377 -0.1303
 1994SOL     MW 7976   0.337   7.975   0.807  0.1016 -0.5268  0.3183
 1995SOL     OW 7977  10.073   2.489   1.941  0.0921  0.0399 -0.4633
 1995SOL    HW1 7978  10.086   2.399   1.971  3.3652  0.4413 -0.3076
 1995SOL    HW2 7979  10.079   2.542   2.020 -0.1072  0.5129 -0.7620
 1995SOL     MW 7980  10.075   2.484   1.955  0.4856  0.1518 -0.4816
 1996SOL     OW 7981   9.094   2.305   9.583 -0.2187  0.3834  0.3948
 1996SOL    HW1 7982   9.176   2.262   9.556 -0.5589  0.4850 -0.8710
 1996SOL    HW2 7983   9.061   2.346   9.502 -0.9949  1.2141  1.1121
 1996SOL     MW 7984   9.101   2.305   9.569 -0.3616  0.5027  0.3246
 1997SOL     OW 7985   8.606   5.149   9.772  0.0627 -0.3306  0.2885
 1997SOL    HW1 7986   8.700   5.170   9.768 -0.1502  0.4716 -0.9062
 1997SOL    HW2 7987   8.582   5.127   9.682 -1.1046  0.4494  0.3845
 1997SOL     MW 7988   8.615   5.149   9.760 -0.1140 -0.1281  0.1479
 1998SOL     OW 7989   8.890   8.323   2.984 -0.3104 -0.0324 -0.0635
 1998SOL    HW1 7990   8.894   8.228   2.976 -0.0180  0.0884 -1.5262
 1998SOL    HW2 7991   8.806   8.347   2.944 -0.4220  0.3256  0.3735
 1998SOL     MW 7992   8.879   8.314   2.978 -0.2872  0.0289 -0.1948
 1999SOL     OW 7993   7.455   8.451   1.608 -0.3277 -0.3381 -0.4411
 1999SOL    HW1 7994   7.548   8.443   1.627  0.0904  1.9454 -1.2262
 1999SOL    HW2 7995   7.421   8.507   1.677 -0.6734  0.4786 -1.2468
 1999SOL     MW 7996   7.462   8.457   1.619 -0.3185  0.0588 -0.6447
 2000SOL     OW 7997   8.334   7.435   9.117  0.2865 -0.4794  0.0547
 2000SOL    HW1 7998   8.417   7.468   9.082  0.5093 -0.3218  0.7101
 2000SOL    HW2 7999   8.267   7.486   9.071  0.5673 -0.3103 -0.1734
 2000SOL     MW 8000   8.336   7.446   9.107  0.3510 -0.4376  0.1094
 2001SOL     OW 8001   8.208   4.569   0.301 -0.0455 -0.3664 -0.7245
 2001SOL    HW1 8002   8.214   4.665   0.307 -2.4266 -0.2369  1.2983
 2001SOL    HW2 8003   8.282   4.537   0.352 -0.7242  0.4775  0.8461
 2001SOL     MW 8004   8.218   4.578   0.308 -0.4372 -0.2418 -0.2645
 2002SOL     OW 8005   7.456   4.109   2.360  0.0342 -0.2671 -0.3464
 2002SOL    HW1 8006   7.422   4.111   2.449  0.6928  1.0940 -0.0964
 2002SOL    HW2 8007   7.547   4.079   2.370  0.1782  0.1054 -0.5309
 2002SOL     MW 8008   7.464   4.105   2.373  0.1370 -0.0452 -0.3380
 2003SOL     OW 8009   7.666   2.072   8.956  0.3444  0.5520  0.4296
 2003SOL    HW1 8010   7.664   1.999   8.895  0.4470  1.1229 -0.2672
 2003SOL    HW2 8011   7.708   2.037   9.035 -0.0948 -0.2775  0.3025
 2003SOL     MW 8012   7.671   2.058   8.959  0.3013  0.5189  0.3241
 2004SOL     OW 8013   7.312   8.384   2.014 -0.3758  0.0311 -0.1506
 2004SOL    HW1 8014   7.375   8.323   1.976 -0.0634  0.5838 -0.5347
 2004SOL    HW2 8015   7.229   8.337   2.011  0.1634 -1.1128  1.3173
 2004SOL     MW 8016   7.310   8.370   2.009 -0.2668 -0.0446 -0.0118
 2005SOL     OW 8017   9.539   6.944   9.638 -0.9147  0.7543  0.2646
 2005SOL    HW1 8018   9.567   6.860   9.602 -0.4176  1.1544 -0.2922
 2005SOL    HW2 8019   9.510   6.923   9.727 -0.1409  0.0987  0.3773
 2005SOL     MW 8020   9.539   6.930   9.645 -0.7520  0.7216  0.2078
 2006SOL     OW 8021   6.895   1.413   0.196  0.0049  0.1674 -0.0227
 2006SOL    HW1 8022   6.834   1.475   0.157  0.4850 -0.5581 -2.0384
 2006SOL    HW2 8023   6.978   1.462   0.204 -0.0102  0.2250 -0.2178
 2006SOL     MW 8024   6.898   1.427   0.192  0.0644  0.0819 -0.3057
 2007SOL     OW 8025   6.893   7.096   0.543  0.0302 -0.3009 -0.2274
 2007SOL    HW1 8026   6.878   7.178   0.498  1.1756  0.0659  0.0278
 2007SOL    HW2 8027   6.879   7.029   0.476 -0.2467  0.1284 -0.6053
 2007SOL     MW 8028   6.889   7.098   0.529  0.1413 -0.1990 -0.2431
 2008SOL     OW 8029   8.013   7.576   0.637  0.1197 -0.0930  0.3637
 2008SOL    HW1 8030   8.082   7.524   0.677  1.8118  0.7939 -1.2515
 2008SOL    HW2 8031   8.004   7.541   0.549 -0.0918  1.0944 -0.1013
 2008SOL     MW 8032   8.020   7.565   0.631  0.3092  0.1725  0.0974
 2009SOL     OW 8033   9.174   5.704   0.266  0.0838 -0.5689 -0.2042
 2009SOL    HW1 8034   9.133   5.637   0.211  0.3884  0.1868 -1.3998
 2009SOL    HW2 8035   9.251   5.732   0.216  0.1071  0.4867  0.3919
 2009SOL     MW 8036   9.179   5.699   0.253  0.1258 -0.3371 -0.2809
 2010SOL     OW 8037   8.375   6.364   2.935 -0.0358  0.1412  0.1286
 2010SOL    HW1 8038   8.470   6.362   2.919  0.0991 -0.7713  0.9388
 2010SOL    HW2 8039   8.358   6.449   2.974  0.8133 -0.4725  1.9506
 2010SOL     MW 8040   8.385   6.374   2.938  0.0901 -0.0542  0.4656
 2011SOL     OW 8041   8.296   3.168   1.562 -0.1456  0.7871 -0.2571
 2011SOL    HW1 8042   8.339   3.200   1.641  1.9502 -2.1414 -0.0609
 2011SOL    HW2 8043   8.356   3.190   1.491 -0.2079  0.1730 -0.5111
 2011SOL     MW 8044   8.309   3.175   1.563  0.1147  0.3336 -0.2645
 2012SOL     OW 8045   9.249   3.768   1.780  0.5237  0.2562 -0.3873
 2012SOL    HW1 8046   9.335   3.734   1.755  1.0818  1.1346  0.2980
 2012SOL    HW2 8047   9.246   3.855   1.740 -0.9443 -0.5750 -2.2417
 2012SOL     MW 8048   9.260   3.775   1.772  0.4072  0.2622 -0.5369
 2013SOL     OW 8049   7.725   5.611   9.793  0.0805  0.0663 -0.3940
 2013SOL    HW1 8050   7.728   5.589   9.700 -1.1058  0.2263 -0.4777
 2013SOL    HW2 8051   7.815   5.639   9.814  1.2537 -3.0736 -0.6866
 2013SOL     MW 8052   7.737   5.612   9.784  0.0789 -0.3152 -0.4422
 2014SOL     OW 8053   9.697   9.491   9.402 -0.0680  0.1940 -0.3731
 2014SOL    HW1 8054   9.731   9.446   9.325  0.2983 -1.5240  0.7414
 2014SOL    HW2 8055   9.608   9.458   9.412 -0.1534  0.4924 -0.1055
 2014SOL     MW 8056   9.690   9.481   9.393 -0.0321  0.0122 -0.1962
 2015SOL     OW 8057   8.734   6.173   2.762  0.2213  0.0015 -0.0451
 2015SOL    HW1 8058   8.822   6.168   2.725 -0.3348  1.3209 -1.7045
 2015SOL    HW2 8059   8.683   6.219   2.695 -1.5871 -0.1740  1.1434
 2015SOL     MW 8060   8.739   6.178   2.749 -0.0814  0.1479 -0.1053
 2016SOL     OW 8061   6.772   0.676   0.112  0.1887 -0.2278 -0.2070
 2016SOL    HW1 8062   6.780   0.729   0.033 -1.8280 -0.4304 -0.6109
 2016SOL    HW2 8063   6.826   0.721   0.177  0.5339  0.8877 -1.2340
 2016SOL     MW 8064   6.780   0.689   0.110 -0.0253 -0.1109 -0.3901
 2017SOL     OW 8065  10.075   1.695   0.860 -0.1599  0.6658 -0.0552
 2017SOL    HW1 8066  10.074   1.758   0.788  0.6103  0.1180 -0.5485
 2017SOL    HW2 8067   9.995   1.643   0.848  0.2664  0.1829 -0.8691
 2017SOL     MW 8068  10.065   1.697   0.849 -0.0067  0.5339 -0.2226
 2018SOL     OW 8069   8.127   0.067   1.936 -0.0795  0.3400  0.3293
 2018SOL    HW1 8070   8.184   0.063   1.859  0.4516 -0.0066  0.7277
 2018SOL    HW2 8071   8.177   0.120   1.999  0.0240 -0.3784  0.8582
 2018SOL     MW 8072   8.141   0.073   1.934  0.0018  0.2037  0.4480
 2019SOL     OW 8073   6.471   5.148   2.107  0.2383  0.2081 -0.0130
 2019SOL    HW1 8074   6.562   5.148   2.135  0.1047 -0.9613  0.4971
 2019SOL    HW2 8075   6.473   5.113   2.018  0.2483 -0.2671  0.1722
 2019SOL     MW 8076   6.483   5.143   2.099  0.2225 -0.0024  0.0760
 2020SOL     OW 8077   7.693   4.043   0.624  0.4940 -0.2374 -0.1426
 2020SOL    HW1 8078   7.645   4.123   0.605  0.9504 -0.0795 -0.6424
 2020SOL    HW2 8079   7.662   4.016   0.711 -0.5423 -0.1775 -0.4822
 2020SOL     MW 8080   7.683   4.050   0.633  0.4198 -0.2095 -0.2501
 2021SOL     OW 8081   8.589   3.832   9.661 -0.0759 -0.6622  0.1207
 2021SOL    HW1 8082   8.639   3.872   9.732 -2.0525  1.8308  0.2297
 2021SOL    HW2 8083   8.656   3.800   9.600  1.6605 -1.7775  2.4180
 2021SOL     MW 8084   8.604   3.833   9.662 -0.1066 -0.4859  0.4287
 2022SOL     OW 8085   8.584   1.490   0.354  0.1627  0.1638 -0.4914
 2022SOL    HW1 8086   8.661   1.502   0.409 -0.1906  0.3125 -0.0227
 2022SOL    HW2 8087   8.619   1.482   0.265  1.0855 -3.5822  0.0245
 2022SOL     MW 8088   8.599   1.490   0.350  0.2356 -0.2967 -0.3654
 2023SOL     OW 8089   0.498   8.205   1.329  0.0819 -0.1893 -0.0168
 2023SOL    HW1 8090   0.494   8.173   1.239  1.4232  1.5043 -0.7358
 2023SOL    HW2 8091   0.493   8.125   1.383 -2.0785 -1.1530 -1.4838
 2023SOL     MW 8092   0.497   8.190   1.324 -0.0230 -0.0959 -0.2966
 2024SOL     OW 8093   8.530   4.170   2.971 -0.2206  0.4244  0.3763
 2024SOL    HW1 8094   8.519   4.235   3.041  2.1135  1.1173  0.1736
 2024SOL    HW2 8095   8.585   4.214   2.906 -1.2372 -0.6756 -1.3114
 2024SOL     MW 8096   8.535   4.184   2.971 -0.0520  0.3723  0.1343
 2025SOL     OW 8097   8.804   3.518   0.222  0.1655  0.3736 -0.1567
 2025SOL    HW1 8098   8.754   3.437   0.235 -1.3995  1.3970  0.4968
 2025SOL    HW2 8099   8.796   3.537   0.129 -0.8212  0.6134 -0.0286
 2025SOL     MW 8100   8.797   3.510   0.212 -0.1611  0.5353 -0.0566
 2026SOL     OW 8101   8.383   7.719   8.816 -0.2911 -0.6559  0.5989
 2026SOL    HW1 8102   8.439   7.684   8.885  0.3596 -1.7672 -0.4723
 2026SOL    HW2 8103   8.323   7.648   8.795  1.5764 -1.5798 -2.1807
 2026SOL     MW 8104   8.382   7.706   8.822  0.0312 -0.9165  0.1059
 2027SOL     OW 8105   7.580   4.479   0.100  0.1025  0.3060  0.5284
 2027SOL    HW1 8106   7.652   4.514   0.152 -1.0022  1.4002  1.3852
 2027SOL    HW2 8107   7.545   4.555   0.053 -0.0256 -0.3520 -0.4697
 2027SOL     MW 8108   7.585   4.493   0.101 -0.0553  0.3618  0.5103
 2028SOL     OW 8109   9.823   2.901   2.295  0.2522  0.4185 -0.5658
 2028SOL    HW1 8110   9.750   2.844   2.314  0.8267 -0.5094 -1.0804
 2028SOL    HW2 8111   9.852   2.876   2.207  1.6691  0.2212 -0.0733
 2028SOL     MW 8112   9.818   2.891   2.286  0.5072  0.2744 -0.5686
 2029SOL     OW 8113   0.020   2.760   0.514 -0.7321  0.0488  0.1905
 2029SOL    HW1 8114  -0.074   2.775   0.525 -0.4804  0.9970  1.3502
 2029SOL    HW2 8115   0.060   2.841   0.546  0.4507  0.1029 -1.3320
 2029SOL     MW 8116   0.013   2.773   0.519 -0.5485  0.1771  0.1441
 2030SOL     OW 8117   8.497   4.277   2.518 -0.1958 -0.1336  0.2233
 2030SOL    HW1 8118   8.482   4.186   2.544 -0.6272 -0.3650 -0.8085
 2030SOL    HW2 8119   8.436   4.328   2.572 -0.0623 -0.4595  0.6910
 2030SOL     MW 8120   8.487   4.272   2.528 -0.2339 -0.2050  0.1511
 2031SOL     OW 8121   8.079   1.265   3.166 -0.5864 -0.5329 -0.1325
 2031SOL    HW1 8122   7.985   1.243   3.164 -0.4798 -0.9967 -0.0261
 2031SOL    HW2 8123   8.117   1.201   3.225 -0.2564 -0.1150  0.1128
 2031SOL     MW 8124   8.072   1.254   3.174 -0.5305 -0.5387 -0.0875
 2032SOL     OW 8125   9.674   6.182   0.296 -0.3654 -0.2230 -0.6081
 2032SOL    HW1 8126   9.656   6.236   0.373 -0.5152 -0.3731 -0.5366
 2032SOL    HW2 8127   9.725   6.239   0.238  1.8981 -0.8658  0.6291
 2032SOL     MW 8128   9.678   6.196   0.299 -0.0948 -0.3245 -0.4406
 2033SOL     OW 8129   7.536   6.689   2.640 -0.3018  0.0465 -0.3715
 2033SOL    HW1 8130   7.498   6.728   2.718 -0.9598  0.3815 -0.8525
 2033SOL    HW2 8131   7.608   6.635   2.673 -0.3495  0.4578  0.4296
 2033SOL     MW 8132   7.540   6.687   2.654 -0.3921  0.1420 -0.3305
 2034SOL     OW 8133   7.598   3.656   0.496 -0.3119 -0.1147 -0.8246
 2034SOL    HW1 8134   7.635   3.663   0.408  0.7082 -3.6114 -0.8367
 2034SOL    HW2 8135   7.669   3.683   0.554  0.0274 -0.5468 -1.0292
 2034SOL     MW 8136   7.612   3.660   0.492 -0.1379 -0.6176 -0.8523
 2035SOL     OW 8137   7.173   5.276   2.064 -0.0314  0.3247  0.8271
 2035SOL    HW1 8138   7.265   5.300   2.063 -0.0199  0.3307 -1.1348
 2035SOL    HW2 8139   7.127   5.357   2.086  0.2878  1.1335 -1.2490
 2035SOL     MW 8140   7.179   5.289   2.067  0.0110  0.4290  0.3102
 2036SOL     OW 8141   8.917   8.763   0.656 -0.0632  0.1130 -0.1052
 2036SOL    HW1 8142   8.895   8.848   0.618  1.7806  0.3444 -0.7803
 2036SOL    HW2 8143   8.995   8.734   0.608  0.1933 -1.3048  1.0608
 2036SOL     MW 8144   8.925   8.770   0.645  0.2057 -0.0389 -0.0424
 2037SOL     OW 8145   7.833   5.571   1.482  0.0582 -0.0305  0.0240
 2037SOL    HW1 8146   7.875   5.530   1.407  1.6654  0.3994  0.6539
 2037SOL    HW2 8147   7.847   5.511   1.554  1.0506  0.8631  0.5993
 2037SOL     MW 8148   7.840   5.558   1.481  0.3910  0.1389  0.1783
 2038SOL     OW 8149   8.665   3.844   1.715 -0.2792  0.0967  0.1670
 2038SOL    HW1 8150   8.685   3.892   1.635 -0.5149  0.6328  0.4298
 2038SOL    HW2 8151   8.578   3.873   1.740 -0.4786 -0.5585  0.2673
 2038SOL     MW 8152   8.656   3.854   1.708 -0.3349  0.0815  0.2135
 2039SOL     OW 8153   8.619   4.190   0.081 -0.0791 -0.3772 -0.1708
 2039SOL    HW1 8154   8.699   4.230   0.114  0.3652 -1.1437 -0.2966
 2039SOL    HW2 8155   8.557   4.197   0.154  0.2939 -0.3258  0.1415
 2039SOL     MW 8156   8.621   4.196   0.095  0.0256 -0.4688 -0.1470
 2040SOL     OW 8157   8.999   9.079   2.634 -0.3155  0.3272  0.1149
 2040SOL    HW1 8158   9.059   9.151   2.618 -1.2366  1.1404  0.1804
 2040SOL    HW2 8159   9.052   9.000   2.627  0.9301  1.0592  1.0685
 2040SOL     MW 8160   9.013   9.078   2.631 -0.2740  0.5250  0.2454
 2041SOL     OW 8161   9.019   5.806   9.274  0.0372 -0.4886 -0.2850
 2041SOL    HW1 8162   9.031   5.759   9.356 -1.8139 -1.0695 -0.2962
 2041SOL    HW2 8163   9.038   5.898   9.296 -2.4785 -0.2622  1.4237
 2041SOL     MW 8164   9.023   5.812   9.287 -0.5218 -0.5340 -0.0677
 2042SOL     OW 8165   7.873   8.573   9.510  0.2368  0.3944 -0.0397
 2042SOL    HW1 8166   7.812   8.529   9.451  0.7301 -0.3167 -0.0406
 2042SOL    HW2 8167   7.824   8.582   9.592 -0.3626  1.1562 -0.4715
 2042SOL     MW 8168   7.859   8.568   9.513  0.2232  0.4009 -0.0951
 2043SOL     OW 8169   7.414   6.301   2.530  0.1325  0.3021  0.3422
 2043SOL    HW1 8170   7.359   6.287   2.607  0.2021  0.6666  0.4605
 2043SOL    HW2 8171   7.502   6.312   2.565  0.3238 -0.5047  0.1367
 2043SOL     MW 8172   7.418   6.300   2.545  0.1659  0.2455  0.3310
 2044SOL     OW 8173   9.746   7.567   2.433  0.3603 -0.0683 -0.0253
 2044SOL    HW1 8174   9.755   7.633   2.365  0.7694  0.2515  0.3319
 2044SOL    HW2 8175   9.725   7.617   2.512 -0.3505 -0.4529  0.0370
 2044SOL     MW 8176   9.744   7.581   2.435  0.3217 -0.0766  0.0284
 2045SOL     OW 8177   7.203   5.987   2.052 -0.4530 -0.2389  0.2469
 2045SOL    HW1 8178   7.255   5.910   2.074 -0.1666 -0.4198 -1.0007
 2045SOL    HW2 8179   7.128   5.952   2.003  0.4647  0.3733 -1.6724
 2045SOL     MW 8180   7.200   5.972   2.049 -0.2988 -0.1837 -0.1585
 2046SOL     OW 8181   8.096   8.929   9.627 -0.1526 -0.3340 -0.1685
 2046SOL    HW1 8182   8.163   8.886   9.681  0.0674  1.3020  0.9167
 2046SOL    HW2 8183   8.038   8.972   9.689 -1.3081 -0.4088 -1.1633
 2046SOL     MW 8184   8.097   8.929   9.642 -0.2724 -0.1342 -0.1569
 2047SOL     OW 8185   8.706   7.093   0.298 -0.1770 -0.3656 -0.2755
 2047SOL    HW1 8186   8.624   7.044   0.296  0.3651 -1.2501 -1.0075
 2047SOL    HW2 8187   8.679   7.181   0.326 -1.2569 -0.8514  0.3146
 2047SOL     MW 8188   8.692   7.098   0.301 -0.2458 -0.5410 -0.2937
 2048SOL     OW 8189   6.304  -0.007   9.192 -0.1715 -0.3998 -0.1288
 2048SOL    HW1 8190   6.341   0.059   9.250  1.2652 -0.4941 -0.9098
 2048SOL    HW2 8191   6.209   0.002   9.204  0.0508  0.4850  1.2052
 2048SOL     MW 8192   6.296   0.003   9.201  0.0409 -0.2986 -0.0580
 2049SOL     OW 8193   0.282   9.660   1.393  0.5672 -0.6907  0.1260
 2049SOL    HW1 8194   0.335   9.582   1.407  0.3222 -0.5645  2.1714
 2049SOL    HW2 8195   0.211   9.631   1.336  0.2713 -2.1036  1.1538
 2049SOL     MW 8196   0.279   9.646   1.388  0.4980 -0.8554  0.5194
 2050SOL     OW 8197   9.219   0.342   9.709  0.2465  0.1160  0.1668
 2050SOL    HW1 8198   9.145   0.308   9.660  0.4755  0.2714 -0.2960
 2050SOL    HW2 8199   9.261   0.265   9.747  0.2080 -0.0290 -0.0844
 2050SOL     MW 8200   9.215   0.328   9.708  0.2709  0.1174  0.0754
 2051SOL     OW 8201   8.519   4.331  10.051 -0.1778 -0.2156 -0.2583
 2051SOL    HW1 8202   8.552   4.277  10.122 -0.7304  0.6188  0.6633
 2051SOL    HW2 8203   8.437   4.368  10.084 -1.3273 -1.1090 -1.9535
 2051SOL     MW 8204   8.512   4.329  10.064 -0.3957 -0.2232 -0.3573
 2052SOL     OW 8205   8.297   5.227   0.945 -0.4686 -0.6565 -0.4219
 2052SOL    HW1 8206   8.234   5.156   0.953  0.8919 -1.6759  3.6113
 2052SOL    HW2 8207   8.382   5.186   0.961  0.5007  1.6573  0.8379
 2052SOL     MW 8208   8.300   5.213   0.948 -0.1704 -0.4908  0.2557
 2053SOL     OW 8209   7.110   1.082   1.128  0.2786  0.1980 -0.5243
 2053SOL    HW1 8210   7.028   1.130   1.116 -0.2512 -0.5608 -0.0230
 2053SOL    HW2 8211   7.172   1.149   1.157 -1.0279  0.2643  2.5153
 2053SOL     MW 8212   7.107   1.097   1.130  0.0436  0.1094 -0.0710
 2054SOL     OW 8213   8.979   9.645   1.953  0.2985 -0.2775  0.0137
 2054SOL    HW1 8214   8.900   9.645   1.900  0.9486 -1.8128 -1.0093
 2054SOL    HW2 8215   8.985   9.735   1.987 -0.7726  0.4164 -1.5278
 2054SOL     MW 8216   8.970   9.657   1.951  0.2446 -0.3852 -0.3146
 2055SOL     OW 8217   8.340   0.083   9.135 -0.4829 -0.0447 -0.0007
 2055SOL    HW1 8218   8.267   0.129   9.176 -1.8411 -0.7303 -1.5281
 2055SOL    HW2 8219   8.391   0.048   9.208 -0.5924  2.0146  1.1480
 2055SOL     MW 8220   8.337   0.084   9.150 -0.6708  0.1312 -0.0492
 2056SOL     OW 8221   9.474   7.091   1.107  0.5160  0.0998  0.0349
 2056SOL    HW1 8222   9.408   7.046   1.159  2.7192 -0.4962  2.4874
 2056SOL    HW2 8223   9.476   7.044   1.024 -0.1085 -1.7342  1.0180
 2056SOL     MW 8224   9.466   7.079   1.103  0.7181 -0.2113  0.4747
 2057SOL     OW 8225   7.514   3.774   9.813 -0.4388  0.1199 -0.5664
 2057SOL    HW1 8226   7.565   3.783   9.732  1.1900  1.4606  0.5284
 2057SOL    HW2 8227   7.531   3.855   9.861 -1.6002 -0.5157  0.9990
 2057SOL     MW 8228   7.523   3.785   9.809 -0.3790  0.2102 -0.2259
 2058SOL     OW 8229   6.314   2.012   0.761  0.4112 -0.1426 -0.3619
 2058SOL    HW1 8230   6.308   2.075   0.832 -0.7497  0.8421 -1.2888
 2058SOL    HW2 8231   6.397   1.967   0.775  0.3035  0.1888  1.4607
 2058SOL     MW 8232   6.324   2.014   0.772  0.2488  0.0259 -0.2472
 2059SOL     OW 8233   8.077   1.071   0.305  0.3581 -0.2105  0.3286
 2059SOL    HW1 8234   8.117   1.050   0.389  0.0360  1.5798  0.9793
 2059SOL    HW2 8235   8.143   1.123   0.259 -0.1848  0.4891  0.3139
 2059SOL     MW 8236   8.090   1.075   0.310  0.2473  0.1082  0.4100
 2060SOL     OW 8237   9.719   7.842   9.476  0.4653  0.6337  0.8484
 2060SOL    HW1 8238   9.701   7.763   9.528  0.9051  1.2247  1.9324
 2060SOL    HW2 8239   9.812   7.836   9.455  0.2429  0.2903 -0.0772
 2060SOL     MW 8240   9.728   7.831   9.480  0.4932  0.6654  0.8687
 2061SOL     OW 8241   7.522   3.176   8.932 -0.1565 -0.4378 -0.1743
 2061SOL    HW1 8242   7.488   3.136   9.012  0.6803  1.7913  1.3777
 2061SOL    HW2 8243   7.475   3.260   8.925  0.0348 -0.4280 -1.8625
 2061SOL     MW 8244   7.511   3.182   8.941 -0.0249 -0.1512 -0.1917
 2062SOL     OW 8245   7.920   9.264   0.983  0.3509  0.2905  0.3127
 2062SOL    HW1 8246   7.903   9.302   0.897  0.1827 -0.9760 -0.2283
 2062SOL    HW2 8247   7.835   9.228   1.010  0.2367  1.2400  1.3156
 2062SOL     MW 8248   7.907   9.264   0.975  0.3147  0.2499  0.3719
 2063SOL     OW 8249   8.985   1.519   1.817 -0.6065  0.4652  0.2985
 2063SOL    HW1 8250   9.040   1.442   1.834 -0.8608  0.5851  1.8051
 2063SOL    HW2 8251   8.900   1.483   1.791 -0.2058  0.2749 -0.8217
 2063SOL     MW 8252   8.981   1.504   1.816 -0.5877  0.4562  0.3480
 2064SOL     OW 8253   8.140   4.914   9.282 -0.1345  0.1098 -0.7957
 2064SOL    HW1 8254   8.071   4.850   9.297 -1.6539  1.5682 -1.1672
 2064SOL    HW2 8255   8.096   4.999   9.292  1.7167  1.1084 -0.6132
 2064SOL     MW 8256   8.125   4.917   9.285 -0.0920  0.4244 -0.8199
 2065SOL     OW 8257   7.832   5.285   0.790 -0.2656  0.3618  0.1216
 2065SOL    HW1 8258   7.919   5.322   0.776 -0.7892  2.3390  1.6059
 2065SOL    HW2 8259   7.773   5.359   0.782 -1.4242 -0.1594  2.7795
 2065SOL     MW 8260   7.836   5.299   0.787 -0.4809  0.5482  0.6518
 2066SOL     OW 8261   0.155   4.757   2.080 -0.0933 -0.3550  0.3187
 2066SOL    HW1 8262   0.171   4.736   1.988 -2.4123 -0.0871 -0.2121
 2066SOL    HW2 8263   0.103   4.684   2.112 -0.0579 -0.0088  1.1758
 2066SOL     MW 8264   0.151   4.745   2.072 -0.3856 -0.2764  0.3605
 2067SOL     OW 8265   9.957   9.727   0.136  0.1565  0.0156  0.1949
 2067SOL    HW1 8266  10.051   9.722   0.119  0.1452 -1.3318  0.4155
 2067SOL    HW2 8267   9.918   9.748   0.051  0.6644  0.7155  0.1313
 2067SOL     MW 8268   9.964   9.729   0.123  0.2201 -0.0673  0.2150
 2068SOL     OW 8269   7.943   4.513   2.291  0.2361  0.4260  0.3770
 2068SOL    HW1 8270   7.948   4.492   2.198 -1.3111  0.4686  0.2609
 2068SOL    HW2 8271   7.989   4.440   2.334  1.4766  0.7044 -0.4255
 2068SOL     MW 8272   7.950   4.501   2.285  0.1968  0.4671  0.2594
 2069SOL     OW 8273   6.125   1.189   1.216 -0.2952  0.0633  0.2965
 2069SOL    HW1 8274   6.039   1.147   1.224  0.0463 -0.6964  0.0067
 2069SOL    HW2 8275   6.130   1.215   1.124 -0.2574  0.2155  0.3411
 2069SOL     MW 8276   6.114   1.187   1.205 -0.2466 -0.0145  0.2651
 2070SOL     OW 8277   8.602   9.883   1.456  0.2093  0.3666 -0.1553
 2070SOL    HW1 8278   8.650   9.963   1.439  1.0369  0.1129  0.9148
 2070SOL    HW2 8279   8.666   9.823   1.493 -0.8023 -0.1566  0.8153
 2070SOL     MW 8280   8.616   9.885   1.458  0.1857  0.2672  0.1059
 2071SOL     OW 8281   0.361   2.249   1.314 -0.2221 -0.0176 -0.1654
 2071SOL    HW1 8282   0.293   2.195   1.355 -1.6565  0.2989 -1.9590
 2071SOL    HW2 8283   0.411   2.285   1.387 -3.3731  1.5141  1.4392
 2071SOL     MW 8284   0.359   2.247   1.329 -0.8091  0.2190 -0.1896
 2072SOL     OW 8285   9.950   8.211  10.011 -0.5769 -0.6270 -0.1569
 2072SOL    HW1 8286   9.918   8.222  10.101  0.4897  0.1155  0.1553
 2072SOL    HW2 8287  10.029   8.158  10.021 -0.1480 -0.0726 -0.5965
 2072SOL     MW 8288   9.956   8.206  10.024 -0.3854 -0.4610 -0.1732
 2073SOL     OW 8289   9.408   7.323   1.839 -0.0178  0.3596  0.4105
 2073SOL    HW1 8290   9.375   7.371   1.915  1.6810  0.5422  1.0706
 2073SOL    HW2 8291   9.340   7.335   1.772 -0.2543  2.5923  0.9711
 2073SOL     MW 8292   9.395   7.331   1.840  0.1694  0.6688  0.5667
 2074SOL     OW 8293   8.743   2.484   9.682 -0.3870 -0.0188  0.1022
 2074SOL    HW1 8294   8.786   2.562   9.718 -0.0219  1.9718 -4.1054
 2074SOL    HW2 8295   8.651   2.495   9.705 -0.0235  0.4874  1.4136
 2074SOL     MW 8296   8.737   2.496   9.690 -0.2937  0.3008 -0.2686
 2075SOL     OW 8297   6.516   6.175   0.701 -0.1898 -0.8337  0.0145
 2075SOL    HW1 8298   6.576   6.245   0.673 -0.2087 -1.1318 -0.8056
 2075SOL    HW2 8299   6.556   6.139   0.780 -0.6814  0.7473  1.0298
 2075SOL     MW 8300   6.529   6.180   0.707 -0.2551 -0.6695  0.0395
 2076SOL     OW 8301   6.399   1.473   1.157 -0.4316  0.4547  0.3668
 2076SOL    HW1 8302   6.391   1.418   1.079 -0.8714 -2.3992  2.2759
 2076SOL    HW2 8303   6.308   1.497   1.178 -0.2721  1.6672 -0.2360
 2076SOL     MW 8304   6.386   1.469   1.149 -0.4674  0.2446  0.5340
 2077SOL     OW 8305   7.315   7.858   2.315  0.4517  0.3181  0.3501
 2077SOL    HW1 8306   7.247   7.836   2.251  1.3910 -1.1549 -0.1855
 2077SOL    HW2 8307   7.346   7.944   2.288  0.1780  0.1286 -0.6248
 2077SOL     MW 8308   7.310   7.866   2.303  0.5369  0.1053  0.1567
 2078SOL     OW 8309  10.066   2.697  -0.026  0.4003 -0.4234  0.8665
 2078SOL    HW1 8310  10.038   2.752   0.048  0.2668 -1.1454  1.3618
 2078SOL    HW2 8311  10.121   2.629   0.014  0.0043 -1.0513  0.3524
 2078SOL     MW 8312  10.070   2.695  -0.011  0.3325 -0.5962  0.8641
 2079SOL     OW 8313   7.651   5.723   0.105  0.5103  0.2031 -0.4242
 2079SOL    HW1 8314   7.565   5.723   0.147  0.9559 -0.1075  0.5151
 2079SOL    HW2 8315   7.690   5.808   0.129  0.3132  0.5148 -1.1830
 2079SOL     MW 8316   7.645   5.734   0.114  0.5421  0.2032 -0.4010
 2080SOL     OW 8317   8.361   7.110   0.581  0.2064 -0.0864  0.5724
 2080SOL    HW1 8318   8.362   7.124   0.486 -2.5385 -3.1542 -0.0881
 2080SOL    HW2 8319   8.440   7.059   0.599 -0.5694 -1.7668 -0.5859
 2080SOL     MW 8320   8.371   7.105   0.571 -0.2443 -0.6942  0.3396
 2081SOL     OW 8321   7.425   3.698   2.611  0.0982 -0.8599 -0.3417
 2081SOL    HW1 8322   7.468   3.616   2.588 -1.5136 -1.5760 -0.9747
 2081SOL    HW2 8323   7.360   3.712   2.542  0.3186  0.9598 -0.2369
 2081SOL     MW 8324   7.422   3.689   2.599 -0.0799 -0.7186 -0.4093
 2082SOL     OW 8325   6.951   8.990   1.853 -0.8810 -0.0578  0.3168
 2082SOL    HW1 8326   6.974   9.042   1.776 -0.4328 -0.1127  0.4120
 2082SOL    HW2 8327   6.979   8.901   1.832  2.4768  0.4985  1.8591
 2082SOL     MW 8328   6.957   8.985   1.841 -0.3938  0.0064  0.5264
 2083SOL     OW 8329   9.252   3.422  10.020  0.3213  0.2765 -0.5683
 2083SOL    HW1 8330   9.173   3.369  10.025 -0.1929  0.6332 -3.2402
 2083SOL    HW2 8331   9.263   3.440   9.927  1.5627  3.2045  0.0127
 2083SOL     MW 8332   9.243   3.418  10.009  0.4144  0.6970 -0.8360
 2084SOL     OW 8333   8.845   2.148   2.950 -0.9044 -0.1798 -0.2876
 2084SOL    HW1 8334   8.918   2.210   2.942 -1.5602  0.5763 -0.5423
 2084SOL    HW2 8335   8.843   2.102   2.866 -1.0044  0.1243 -0.4540
 2084SOL     MW 8336   8.854   2.150   2.938 -1.0011 -0.0441 -0.3415
 2085SOL     OW 8337   9.718   5.970   9.860  0.4427  0.1625  0.1072
 2085SOL    HW1 8338   9.635   5.927   9.839 -1.0035  2.3508  0.9660
 2085SOL    HW2 8339   9.739   5.939   9.948  1.7014 -1.9835 -0.8770
 2085SOL     MW 8340   9.710   5.961   9.869  0.4187  0.1679  0.0912
 2086SOL     OW 8341   8.771  10.093   1.469  0.5366  0.3094 -0.1844
 2086SOL    HW1 8342   8.775  10.146   1.549  1.4583 -0.1314  0.0801
 2086SOL    HW2 8343   8.745  10.154   1.401 -1.9698  0.3773  0.7171
 2086SOL     MW 8344   8.768  10.108   1.471  0.3337  0.2617 -0.0351
 2087SOL     OW 8345   8.833   5.518   0.111  0.2213 -0.0094 -0.5161
 2087SOL    HW1 8346   8.927   5.505   0.127  0.6360  2.6011 -0.4579
 2087SOL    HW2 8347   8.790   5.462   0.177  1.8139  1.7781  2.2581
 2087SOL     MW 8348   8.840   5.509   0.122  0.4783  0.5536 -0.1535
 2088SOL     OW 8349   8.876   2.457   0.611 -0.1344  0.8382  0.1795
 2088SOL    HW1 8350   8.786   2.483   0.595  0.4534  1.8352 -1.8240
 2088SOL    HW2 8351   8.913   2.443   0.524  1.4658 -0.2489  0.9802
 2088SOL     MW 8352   8.869   2.458   0.598  0.1457  0.8267  0.0255
 2089SOL     OW 8353   9.757   0.991   1.357  0.2322 -0.0110  0.0058
 2089SOL    HW1 8354   9.764   1.056   1.287  0.7202 -1.8870 -1.7589
 2089SOL    HW2 8355   9.673   1.010   1.399 -0.1361  1.0778 -1.1703
 2089SOL     MW 8356   9.747   1.002   1.354  0.2475 -0.1118 -0.3707
 2090SOL     OW 8357   8.869   7.582   1.927 -0.3135  0.5022 -0.0974
 2090SOL    HW1 8358   8.944   7.602   1.871  0.9966 -2.2826  0.4650
 2090SOL    HW2 8359   8.885   7.630   2.007  0.8975 -0.0083 -0.0093
 2090SOL     MW 8360   8.880   7.590   1.930  0.0092  0.0804 -0.0141
 2091SOL     OW 8361   7.813   4.355   0.995  0.2023 -0.2091 -0.2530
 2091SOL    HW1 8362   7.793   4.447   1.015  1.7384  0.0656  0.1520
 2091SOL    HW2 8363   7.745   4.306   1.040 -0.5980  0.7186 -0.4052
 2091SOL     MW 8364   7.802   4.361   1.003  0.2965 -0.0552 -0.2206
 2092SOL     OW 8365   7.753   7.464   9.684 -0.2424  0.5649  0.3772
 2092SOL    HW1 8366   7.839   7.505   9.681 -0.4776  0.9888 -1.5187
 2092SOL    HW2 8367   7.757   7.394   9.618 -0.9011 -0.3536  1.2744
 2092SOL     MW 8368   7.765   7.460   9.675 -0.3568  0.5016  0.2493
 2093SOL     OW 8369   6.892   7.423   2.125  0.3691  0.4320  0.3904
 2093SOL    HW1 8370   6.868   7.457   2.211 -0.9093  2.3415 -0.6456
 2093SOL    HW2 8371   6.810   7.395   2.086  1.0551 -1.2952  0.1113
 2093SOL     MW 8372   6.879   7.424   2.131  0.2932  0.4553  0.2220
 2094SOL     OW 8373   8.831   3.012   1.277 -0.2831  0.0152 -0.1868
 2094SOL    HW1 8374   8.919   3.025   1.244 -0.4642  0.9750 -0.3228
 2094SOL    HW2 8375   8.836   3.033   1.370 -0.0120 -1.6097  0.1946
 2094SOL     MW 8376   8.843   3.016   1.285 -0.2715 -0.0700 -0.1554
 2095SOL     OW 8377   7.667   9.878   1.070 -0.4643  0.2299  0.0551
 2095SOL    HW1 8378   7.604   9.811   1.095  0.8669 -1.4284 -0.7976
 2095SOL    HW2 8379   7.660   9.884   0.974 -0.2925  1.0309  0.0817
 2095SOL     MW 8380   7.658   9.870   1.061 -0.2719  0.1201 -0.0507
 2096SOL     OW 8381   7.972   3.841   9.283  0.0239 -0.5191 -0.1106
 2096SOL    HW1 8382   7.982   3.751   9.254 -1.0186 -0.0096 -2.2175
 2096SOL    HW2 8383   8.060   3.867   9.310  0.5050 -1.8852 -0.3017
 2096SOL     MW 8384   7.985   3.833   9.283 -0.0479 -0.6288 -0.4048
 2097SOL     OW 8385   8.689   7.457   9.607  0.7650 -0.4997 -0.5479
 2097SOL    HW1 8386   8.600   7.487   9.626  0.7185 -1.3256  0.5862
 2097SOL    HW2 8387   8.744   7.531   9.631  0.3852  0.2011 -1.7085
 2097SOL     MW 8388   8.684   7.470   9.612  0.7104 -0.5157 -0.5513
 2098SOL     OW 8389   7.242   5.290   0.418 -0.2215  0.0267 -0.2707
 2098SOL    HW1 8390   7.265   5.381   0.397  1.7873 -0.4358 -0.2846
 2098SOL    HW2 8391   7.171   5.298   0.482 -0.1120  1.6097 -0.3018
 2098SOL     MW 8392   7.236   5.303   0.424  0.0496  0.1701 -0.2764
 2099SOL     OW 8393   7.151   2.057   9.930  0.0240 -0.1315  0.0072
 2099SOL    HW1 8394   7.175   1.966   9.913  0.9068 -0.0001  0.4912
 2099SOL    HW2 8395   7.086   2.077   9.863 -2.4125 -1.9999  1.6235
 2099SOL     MW 8396   7.146   2.048   9.919 -0.1749 -0.3538  0.2761
 2100SOL     OW 8397   6.859   9.727   9.785 -0.4621 -0.2015  0.0636
 2100SOL    HW1 8398   6.930   9.723   9.721 -1.1685 -0.4646 -0.7252
 2100SOL    HW2 8399   6.809   9.646   9.770 -0.7586 -0.1623  0.8048
 2100SOL     MW 8400   6.862   9.716   9.775 -0.5905 -0.2301  0.0575
 2101SOL     OW 8401   8.242   9.739   9.767  0.0213  0.5874 -0.3869
 2101SOL    HW1 8402   8.186   9.782   9.703  1.0289  0.3046 -1.4815
 2101SOL    HW2 8403   8.319   9.711   9.718  0.7872  0.2798  0.9256
 2101SOL     MW 8404   8.245   9.741   9.753  0.2483  0.5118 -0.3590
 2102SOL     OW 8405   7.318   2.076   2.093 -0.1360  0.3082  0.0050
 2102SOL    HW1 8406   7.378   2.099   2.021 -0.4118 -0.7100 -0.5801
 2102SOL    HW2 8407   7.364   2.006   2.140  0.1465  1.1381  0.9755
 2102SOL     MW 8408   7.332   2.070   2.090 -0.1352  0.2841  0.0543
 2103SOL     OW 8409   9.380   3.682   0.657 -0.2500 -0.1983 -0.5274
 2103SOL    HW1 8410   9.407   3.726   0.576 -1.2191 -0.8128 -1.1995
 2103SOL    HW2 8411   9.449   3.705   0.720  1.3326 -0.9280 -1.9095
 2103SOL     MW 8412   9.392   3.691   0.655 -0.1715 -0.3704 -0.7904
 2104SOL     OW 8413   9.225   3.241   9.436 -0.5261 -0.4744  0.6046
 2104SOL    HW1 8414   9.281   3.297   9.382 -2.3446 -0.1458 -1.0539
 2104SOL    HW2 8415   9.280   3.217   9.510  1.1909  1.3098  0.0046
 2104SOL     MW 8416   9.239   3.245   9.439 -0.5391 -0.2039  0.3155
 2105SOL     OW 8417   0.526   5.392   1.647  0.1809  0.6512  0.5107
 2105SOL    HW1 8418   0.517   5.307   1.691  1.5960 -0.2111 -0.7842
 2105SOL    HW2 8419   0.450   5.395   1.588  0.1542  0.2627  0.5176
 2105SOL     MW 8420   0.515   5.381   1.645  0.3586  0.4911  0.3458
 2106SOL     OW 8421   8.833   6.912   2.877 -0.0647 -0.6377  0.3403
 2106SOL    HW1 8422   8.886   6.992   2.876 -2.0993  0.8208 -1.4770
 2106SOL    HW2 8423   8.823   6.891   2.970 -2.5881  3.5767  1.3243
 2106SOL     MW 8424   8.838   6.920   2.889 -0.6482  0.0885  0.2336
 2107SOL     OW 8425   9.780   3.159   0.763 -0.6290  0.1126 -0.0407
 2107SOL    HW1 8426   9.726   3.108   0.703 -1.8409  0.3490  0.8241
 2107SOL    HW2 8427   9.867   3.161   0.721 -0.5401 -2.5987 -0.1049
 2107SOL     MW 8428   9.784   3.153   0.750 -0.7728 -0.2042  0.0618
 2108SOL     OW 8429   8.568   4.926  10.141  0.5747  0.1087 -0.4164
 2108SOL    HW1 8430   8.509   4.863  10.101  1.1251 -1.1631  0.7033
 2108SOL    HW2 8431   8.650   4.878  10.156  1.0231  1.0788  0.4508
 2108SOL     MW 8432   8.571   4.912  10.138  0.7025  0.0701 -0.1621
 2109SOL     OW 8433   8.328   1.346   1.599  0.0225  0.0168 -0.1852
 2109SOL    HW1 8434   8.412   1.318   1.635 -0.1049 -0.2047 -0.0582
 2109SOL    HW2 8435   8.351   1.413   1.534  0.3319 -0.3802 -0.4956
 2109SOL     MW 8436   8.342   1.351   1.595  0.0458 -0.0623 -0.2086
 2110SOL     OW 8437   9.638   5.376   9.752 -0.2033 -0.6894 -0.2590
 2110SOL    HW1 8438   9.666   5.323   9.678 -2.6987 -2.5419 -0.0138
 2110SOL    HW2 8439   9.638   5.316   9.827 -2.3414 -0.2132  0.2082
 2110SOL     MW 8440   9.641   5.362   9.752 -0.7965 -0.8656 -0.1678
 2111SOL     OW 8441   9.992   6.225   1.504 -0.1725 -0.1722 -0.0992
 2111SOL    HW1 8442  10.015   6.188   1.589  1.5377 -0.6018 -0.7120
 2111SOL    HW2 8443  10.066   6.202   1.447 -1.4435 -0.2283 -1.8039
 2111SOL     MW 8444  10.005   6.217   1.508 -0.1162 -0.2344 -0.3958
 2112SOL     OW 8445   8.862   8.601   1.200 -0.3379  0.4239  0.0186
 2112SOL    HW1 8446   8.771   8.606   1.170  0.0458  0.2494 -1.2626
 2112SOL    HW2 8447   8.863   8.650   1.282 -0.9687  3.1330 -1.4961
 2112SOL     MW 8448   8.850   8.608   1.206 -0.3696  0.7484 -0.3393
 2113SOL     OW 8449   7.232   4.748   2.127  0.1423 -0.3163 -0.2276
 2113SOL    HW1 8450   7.143   4.779   2.112 -0.1047  0.0194  1.6122
 2113SOL    HW2 8451   7.264   4.802   2.199  1.4293 -1.1780 -0.1147
 2113SOL     MW 8452   7.225   4.759   2.135  0.2754 -0.3837  0.0224
 2114SOL     OW 8453   7.537   9.673   8.952 -0.9827  0.4436  0.1396
 2114SOL    HW1 8454   7.487   9.593   8.966  0.9592 -1.8223 -3.9837
 2114SOL    HW2 8455   7.517   9.699   8.862  2.0786  1.7312 -0.3078
 2114SOL     MW 8456   7.528   9.666   8.943 -0.3422  0.3184 -0.4455
 2115SOL     OW 8457   8.514   9.389   2.960  0.2406  0.1177  0.3344
 2115SOL    HW1 8458   8.426   9.357   2.983  0.0663 -0.3821 -0.9445
 2115SOL    HW2 8459   8.549   9.422   3.042 -1.7947  1.9288  0.5758
 2115SOL     MW 8460   8.507   9.389   2.974 -0.0423  0.2856  0.2016
 2116SOL     OW 8461  10.074   6.956   2.386  0.2956 -0.0749 -0.3373
 2116SOL    HW1 8462   9.983   6.984   2.387  0.8779  2.1980 -1.9567
 2116SOL    HW2 8463  10.100   6.955   2.478 -0.7229  1.6422  0.0271
 2116SOL     MW 8464  10.066   6.960   2.398  0.2398  0.4359 -0.4980
 2117SOL     OW 8465   7.327   9.723   8.737  0.1975 -0.0421  0.5560
 2117SOL    HW1 8466   7.298   9.788   8.801  0.8316  0.1338  0.6671
 2117SOL    HW2 8467   7.332   9.771   8.655 -1.2259 -0.4115  0.2289
 2117SOL     MW 8468   7.324   9.737   8.735  0.0965 -0.0668  0.5283
 2118SOL     OW 8469   9.269   6.128   1.384  0.0251 -0.0311  0.3153
 2118SOL    HW1 8470   9.318   6.147   1.305 -0.5713 -4.1124 -1.2560
 2118SOL    HW2 8471   9.185   6.173   1.372 -0.0759 -0.6385 -1.4492
 2118SOL     MW 8472   9.264   6.136   1.372 -0.0642 -0.6313 -0.1117
 2119SOL     OW 8473   8.010   4.629   1.016 -0.2819  1.2730 -0.2819
 2119SOL    HW1 8474   8.065   4.637   1.094 -0.2400  0.7601 -0.2603
 2119SOL    HW2 8475   7.924   4.603   1.051  0.1823 -0.7496 -0.5343
 2119SOL     MW 8476   8.006   4.627   1.031 -0.2171  0.9485 -0.3114
 2120SOL     OW 8477   7.996   2.243   1.210  0.5670  0.4481  0.0370
 2120SOL    HW1 8478   8.025   2.215   1.297  1.0689  0.0091 -0.2628
 2120SOL    HW2 8479   8.011   2.167   1.154 -0.0161  0.6325 -0.3818
 2120SOL     MW 8480   8.002   2.230   1.214  0.5566  0.4155 -0.0550
 2121SOL     OW 8481   8.488  10.137   0.472 -0.1229  0.4809  0.5691
 2121SOL    HW1 8482   8.568  10.141   0.523 -0.0253  0.9337  0.3904
 2121SOL    HW2 8483   8.517  10.138   0.381 -0.3589  1.9020  0.4861
 2121SOL     MW 8484   8.502  10.138   0.467 -0.1407  0.7208  0.5356
 2122SOL     OW 8485   6.294   1.801   1.215  0.1186  0.3484 -0.6261
 2122SOL    HW1 8486   6.330   1.784   1.302  0.5254  1.4221 -0.5706
 2122SOL    HW2 8487   6.230   1.731   1.202 -0.0903  0.2752  0.6161
 2122SOL     MW 8488   6.291   1.790   1.225  0.1440  0.4765 -0.4600
 2123SOL     OW 8489   0.414   2.860   0.769  0.0669 -0.3875 -0.5921
 2123SOL    HW1 8490   0.439   2.821   0.685 -0.3033 -1.2267 -0.3220
 2123SOL    HW2 8491   0.384   2.787   0.822  0.6072  0.0779  0.4025
 2123SOL     MW 8492   0.413   2.846   0.765  0.0887 -0.4353 -0.4302
 2124SOL     OW 8493   0.091   0.839   0.715  0.2882  0.0269 -0.0091
 2124SOL    HW1 8494   0.120   0.930   0.725 -1.8144  0.5941  1.5872
 2124SOL    HW2 8495   0.137   0.791   0.784 -0.7561  0.4893  1.0464
 2124SOL     MW 8496   0.101   0.844   0.725 -0.1146  0.1587  0.3304
 2125SOL     OW 8497   7.374   8.248   0.347  0.0205  0.1033  0.6097
 2125SOL    HW1 8498   7.286   8.231   0.314  0.5402  0.0306 -0.8177
 2125SOL    HW2 8499   7.428   8.181   0.306  1.2604  2.0402 -1.1038
 2125SOL     MW 8500   7.370   8.237   0.338  0.2457  0.3419  0.2076
 2126SOL     OW 8501   8.075   0.960   1.596 -0.0279  0.0325 -0.3160
 2126SOL    HW1 8502   8.149   0.963   1.536 -0.6248 -0.7902 -1.1148
 2126SOL    HW2 8503   8.000   0.937   1.542 -0.9204  1.0304  0.4479
 2126SOL     MW 8504   8.075   0.958   1.582 -0.2186  0.0549 -0.3205
 2127SOL     OW 8505   0.155   8.546   0.391  0.3639 -0.0783  0.2824
 2127SOL    HW1 8506   0.087   8.511   0.334  0.0038  1.1134 -0.0446
 2127SOL    HW2 8507   0.110   8.562   0.475 -0.1041  1.8151 -0.2746
 2127SOL     MW 8508   0.141   8.544   0.395  0.2579  0.3166  0.1692
 2128SOL     OW 8509   8.250   2.953   1.033 -0.3472 -0.5412  0.1074
 2128SOL    HW1 8510   8.223   2.975   1.122  1.5818 -0.9250  0.8418
 2128SOL    HW2 8511   8.314   3.020   1.010  1.3083 -2.0373  0.1569
 2128SOL     MW 8512   8.255   2.965   1.042  0.1117 -0.7818  0.2077
 2129SOL     OW 8513   9.231   7.534   0.059  0.0164  0.1848 -0.4151
 2129SOL    HW1 8514   9.239   7.514   0.152 -0.4002  0.9530 -0.2043
 2129SOL    HW2 8515   9.321   7.540   0.028  0.1845  1.0958  0.2109
 2129SOL     MW 8516   9.244   7.532   0.067 -0.0154  0.3997 -0.3080
 2130SOL     OW 8517   9.596   5.125   0.485 -0.5903  0.3655  0.2308
 2130SOL    HW1 8518   9.675   5.143   0.535 -0.8446  0.7543  0.4986
 2130SOL    HW2 8519   9.567   5.039   0.516 -0.6266  0.5085  0.5933
 2130SOL     MW 8520   9.602   5.116   0.496 -0.6275  0.4336  0.3115
 2131SOL     OW 8521   9.751   3.163   1.325  0.0794 -0.1043  0.4701
 2131SOL    HW1 8522   9.833   3.132   1.287 -0.3935 -0.7620 -0.0493
 2131SOL    HW2 8523   9.724   3.235   1.267  0.5066  0.4013  0.8964
 2131SOL     MW 8524   9.758   3.168   1.312  0.0735 -0.1238  0.4582
 2132SOL     OW 8525   8.801   7.439   2.479  0.2696  0.2870 -0.7605
 2132SOL    HW1 8526   8.741   7.408   2.411 -1.4032  1.1522  0.2622
 2132SOL    HW2 8527   8.753   7.428   2.561  3.0164 -2.6718  0.6416
 2132SOL     MW 8528   8.787   7.434   2.481  0.4071  0.0190 -0.4501
 2133SOL     OW 8529   9.098   2.000   2.429 -0.0384 -0.4990 -0.0358
 2133SOL    HW1 8530   9.152   1.933   2.386 -0.4339 -0.5100 -0.5296
 2133SOL    HW2 8531   9.070   1.960   2.511  1.8111 -0.0024  0.9041
 2133SOL     MW 8532   9.101   1.986   2.434  0.1477 -0.4368  0.0213
 2134SOL     OW 8533   6.109   5.096   0.825  0.7199  0.3299  0.1056
 2134SOL    HW1 8534   6.189   5.064   0.867  0.8273 -0.9990 -1.0316
 2134SOL    HW2 8535   6.137   5.116   0.735 -0.6834 -2.5720 -1.0868
 2134SOL     MW 8536   6.123   5.094   0.819  0.5540 -0.2117 -0.1926
 2135SOL     OW 8537   9.243   7.041   1.616  0.0212 -0.3479  0.0074
 2135SOL    HW1 8538   9.281   7.109   1.561  1.3906 -0.7763  0.3944
 2135SOL    HW2 8539   9.273   6.959   1.578 -3.0575 -0.9115 -1.5480
 2135SOL     MW 8540   9.252   7.039   1.604 -0.1976 -0.4749 -0.1422
 2136SOL     OW 8541   9.668   4.194   0.334  0.0450  0.5370  0.0827
 2136SOL    HW1 8542   9.733   4.141   0.288  0.2579  0.8912 -0.0329
 2136SOL    HW2 8543   9.647   4.264   0.273 -1.4098 -0.2761 -0.4046
 2136SOL     MW 8544   9.674   4.196   0.320 -0.1140  0.4782  0.0055
 2137SOL     OW 8545   6.097   8.072   0.617 -0.1076 -0.1853 -0.1574
 2137SOL    HW1 8546   6.155   8.002   0.647  2.0191  0.3033 -2.7413
 2137SOL    HW2 8547   6.140   8.152   0.647  1.9486  0.3031 -3.8554
 2137SOL     MW 8548   6.110   8.073   0.625  0.4278 -0.0602 -0.9615
 2138SOL     OW 8549   6.452   0.903   9.740 -0.0872 -0.3604 -0.2533
 2138SOL    HW1 8550   6.541   0.900   9.773 -0.0887  1.0512 -0.0497
 2138SOL    HW2 8551   6.428   0.996   9.743 -0.7810 -0.4082 -2.3910
 2138SOL     MW 8552   6.460   0.914   9.745 -0.1762 -0.1858 -0.5009
 2139SOL     OW 8553   9.372   9.666   0.605  0.6363 -0.1296  0.4136
 2139SOL    HW1 8554   9.287   9.709   0.604  0.3930 -0.5532 -1.3617
 2139SOL    HW2 8555   9.435   9.737   0.595  0.4533  0.1078  0.9103
 2139SOL     MW 8556   9.369   9.680   0.604  0.5817 -0.1534  0.2499
 2140SOL     OW 8557   7.458   1.381   2.783 -0.0634 -0.2079  0.0287
 2140SOL    HW1 8558   7.482   1.449   2.846 -0.6921 -1.0289  1.1952
 2140SOL    HW2 8559   7.367   1.401   2.760 -0.1443 -0.4761  0.1212
 2140SOL     MW 8560   7.449   1.393   2.788 -0.1542 -0.3473  0.1898
 2141SOL     OW 8561  10.054   4.396   9.682 -0.8421 -0.2966 -0.1416
 2141SOL    HW1 8562   9.986   4.455   9.649 -1.1077 -1.4188 -1.6926
 2141SOL    HW2 8563  10.049   4.319   9.626  2.7716  0.1818 -1.4051
 2141SOL     MW 8564  10.045   4.394   9.671 -0.4135 -0.3790 -0.5019
 2142SOL     OW 8565   7.163  10.007   2.608  0.0197  0.4370  0.0641
 2142SOL    HW1 8566   7.204  10.080   2.655  0.9605 -1.5059  2.5115
 2142SOL    HW2 8567   7.135   9.947   2.677 -1.5056 -1.1440 -1.8137
 2142SOL     MW 8568   7.165  10.009   2.623 -0.0551 -0.0141  0.1370
 2143SOL     OW 8569   9.033   4.187   0.077 -0.1535  0.3836  0.2076
 2143SOL    HW1 8570   9.016   4.093   0.087  0.1104  0.0414 -2.0579
 2143SOL    HW2 8571   9.125   4.196   0.098 -0.1638  0.1301  0.3778
 2143SOL     MW 8572   9.042   4.176   0.081 -0.1210  0.3073 -0.0606
 2144SOL     OW 8573   9.261   4.015   1.688  0.2929 -0.1497  0.1029
 2144SOL    HW1 8574   9.345   4.042   1.726 -0.0350  0.4004  0.4425
 2144SOL    HW2 8575   9.222   4.096   1.655 -1.1385  0.0111  2.0066
 2144SOL     MW 8576   9.267   4.029   1.689  0.0677 -0.0587  0.3901
 2145SOL     OW 8577   8.657   9.203   2.078 -0.1099 -0.3562 -0.6817
 2145SOL    HW1 8578   8.562   9.201   2.082 -0.1940  2.2708  1.4525
 2145SOL    HW2 8579   8.679   9.282   2.030  1.0005 -0.6227 -0.6611
 2145SOL     MW 8580   8.648   9.213   2.073  0.0215 -0.0540 -0.4059
 2146SOL     OW 8581   7.787   9.778   9.026 -0.1666  0.2332  0.1503
 2146SOL    HW1 8582   7.695   9.752   9.022 -0.0615 -0.2671  0.8256
 2146SOL    HW2 8583   7.816   9.750   9.113  1.1954 -1.5519 -0.8188
 2146SOL     MW 8584   7.779   9.771   9.037  0.0212 -0.0594  0.1127
 2147SOL     OW 8585   6.408   9.488   1.195 -0.0856 -0.4118 -0.3728
 2147SOL    HW1 8586   6.484   9.432   1.210  0.8931  0.9459 -0.0258
 2147SOL    HW2 8587   6.441   9.560   1.142 -0.2044  1.9878  2.5074
 2147SOL     MW 8588   6.422   9.490   1.190  0.0245  0.0692  0.0403
 2148SOL     OW 8589   9.019   5.466   9.964  0.9136 -0.4243  0.1728
 2148SOL    HW1 8590   9.078   5.541   9.956  0.9316 -0.4757 -0.1839
 2148SOL    HW2 8591   8.954   5.478   9.896  1.5849 -1.3242 -0.6580
 2148SOL     MW 8592   9.019   5.477   9.955  1.0018 -0.5461  0.0208
 2149SOL     OW 8593   6.116   1.387   0.951  0.1742  0.0665 -0.0897
 2149SOL    HW1 8594   6.120   1.455   0.884  2.8972  0.4140  0.3181
 2149SOL    HW2 8595   6.086   1.309   0.904 -1.9390  1.2270 -0.7860
 2149SOL     MW 8596   6.113   1.386   0.937  0.2523  0.2595 -0.1267
 2150SOL     OW 8597   7.435   0.685   2.858 -0.0502  0.5147 -0.3237
 2150SOL    HW1 8598   7.412   0.738   2.934  0.9274 -0.7014  0.8607
 2150SOL    HW2 8599   7.393   0.601   2.874  1.5864 -0.3264 -0.2267
 2150SOL     MW 8600   7.426   0.681   2.870  0.2844  0.2514 -0.1596
 2151SOL     OW 8601   8.189   0.952   3.087 -0.0256 -0.4802 -0.2732
 2151SOL    HW1 8602   8.157   0.863   3.103  0.2264 -0.5258 -0.0294
 2151SOL    HW2 8603   8.130   0.986   3.019 -0.0751 -0.8576 -0.4238
 2151SOL     MW 8604   8.177   0.945   3.080  0.0003 -0.5344 -0.2613
 2152SOL     OW 8605   7.248   1.842   2.378  0.7337  0.5124 -0.2945
 2152SOL    HW1 8606   7.198   1.916   2.410 -0.1230 -0.1712 -0.0298
 2152SOL    HW2 8607   7.259   1.785   2.454 -0.6718 -0.7606 -0.9974
 2152SOL     MW 8608   7.243   1.844   2.392  0.4441  0.2619 -0.3506
 2153SOL     OW 8609   9.098   0.725   9.794 -0.2426 -0.1930  0.0678
 2153SOL    HW1 8610   9.075   0.638   9.826  1.3466 -0.8412 -0.4430
 2153SOL    HW2 8611   9.140   0.767   9.869  2.3548 -1.2642 -0.6700
 2153SOL     MW 8612   9.101   0.719   9.808  0.2933 -0.4131 -0.0920
 2154SOL     OW 8613   9.285   8.234   0.121 -0.1166 -0.4515  0.1879
 2154SOL    HW1 8614   9.228   8.308   0.141  0.9216 -0.3034  3.1309
 2154SOL    HW2 8615   9.373   8.269   0.131  0.3991 -1.8151  0.5866
 2154SOL     MW 8616   9.289   8.248   0.125  0.0824 -0.6071  0.6157
 2155SOL     OW 8617   8.345   0.289   8.782 -0.1704 -0.0775  0.4101
 2155SOL    HW1 8618   8.350   0.353   8.711 -0.3793 -1.3908 -0.8237
 2155SOL    HW2 8619   8.417   0.228   8.764  1.0332  0.6201  2.4475
 2155SOL     MW 8620   8.355   0.289   8.771 -0.0431 -0.1563  0.5130
 2156SOL     OW 8621   9.359   8.925  10.134 -0.1222  0.6369  0.2280
 2156SOL    HW1 8622   9.425   8.896  10.197  1.1111 -0.4909 -1.4916
 2156SOL    HW2 8623   9.410   8.970  10.066 -1.2816  0.9084 -0.4817
 2156SOL     MW 8624   9.374   8.927  10.133 -0.1128  0.5273 -0.0829
 2157SOL     OW 8625   7.248   1.655   1.581 -0.9415 -0.2242  0.1660
 2157SOL    HW1 8626   7.333   1.686   1.552 -0.6972  0.4605  1.5496
 2157SOL    HW2 8627   7.185   1.713   1.539 -0.6743 -0.0346  0.0269
 2157SOL     MW 8628   7.251   1.666   1.572 -0.8760 -0.1123  0.3253
 2158SOL     OW 8629  10.176   0.650   1.866  0.3535 -0.8317 -0.2090
 2158SOL    HW1 8630  10.135   0.565   1.853 -0.0022 -0.3850 -2.3568
 2158SOL    HW2 8631  10.119   0.696   1.928  0.0401 -1.8004  0.2323
 2158SOL     MW 8632  10.164   0.645   1.873  0.2678 -0.8985 -0.4274
 2159SOL     OW 8633   9.510   8.619   0.395  0.2554  0.0674  0.1158
 2159SOL    HW1 8634   9.425   8.613   0.438  0.7949 -1.2507  1.0739
 2159SOL    HW2 8635   9.491   8.617   0.302 -0.7867  0.3961  0.3134
 2159SOL     MW 8636   9.497   8.618   0.389  0.1911 -0.0592  0.2637
 2160SOL     OW 8637   6.507   6.931   0.137 -0.0590  0.0511  0.2108
 2160SOL    HW1 8638   6.463   6.953   0.219 -0.2248 -1.3393  0.5211
 2160SOL    HW2 8639   6.556   7.010   0.114  0.4020  0.2960  1.9135
 2160SOL     MW 8640   6.508   6.944   0.145 -0.0212 -0.0955  0.4685
 2161SOL     OW 8641   9.190   4.170   9.261 -0.0068 -0.8027  0.1586
 2161SOL    HW1 8642   9.204   4.156   9.354  0.3865 -0.9072  0.0842
 2161SOL    HW2 8643   9.273   4.203   9.228 -0.3058 -0.2531 -0.0587
 2161SOL     MW 8644   9.202   4.172   9.268  0.0052 -0.7457  0.1213
 2162SOL     OW 8645   8.924   7.194   0.081  0.2372  0.1265 -0.4882
 2162SOL    HW1 8646   8.856   7.156   0.137  2.5127 -1.6494  1.2663
 2162SOL    HW2 8647   8.895   7.176  -0.008 -1.4458 -0.8409  0.2050
 2162SOL     MW 8648   8.911   7.187   0.077  0.3130 -0.2247 -0.1749
 2163SOL     OW 8649   8.202   5.317   2.699 -0.4410  0.4189  0.1368
 2163SOL    HW1 8650   8.144   5.289   2.628 -0.2520  0.3764  0.0007
 2163SOL    HW2 8651   8.191   5.412   2.703  0.3160  0.5442 -0.6195
 2163SOL     MW 8652   8.193   5.325   2.691 -0.3199  0.4295  0.0226
 2164SOL     OW 8653   9.714   1.885   1.102  0.3998  1.0568 -0.4810
 2164SOL    HW1 8654   9.768   1.938   1.043  2.7253 -1.6766 -1.0637
 2164SOL    HW2 8655   9.685   1.811   1.048 -0.5308  0.3900  0.8781
 2164SOL     MW 8656   9.718   1.882   1.088  0.5783  0.6216 -0.3816
 2165SOL     OW 8657   8.462   2.671   9.301  0.5040 -0.4296 -0.0962
 2165SOL    HW1 8658   8.408   2.695   9.225  3.0824  1.4251 -1.5040
 2165SOL    HW2 8659   8.525   2.607   9.266  0.2620 -1.3575  1.1042
 2165SOL     MW 8660   8.463   2.665   9.287  0.8031 -0.3110 -0.1228
 2166SOL     OW 8661  10.023   1.231   0.486 -0.5304  0.2306 -0.3836
 2166SOL    HW1 8662   9.987   1.263   0.403 -0.0294 -1.3092 -1.2327
 2166SOL    HW2 8663  10.098   1.178   0.461 -0.5376 -0.4941  1.0478
 2166SOL     MW 8664  10.028   1.229   0.472 -0.4672 -0.0593 -0.3090
 2167SOL     OW 8665   8.819   5.018   9.044  0.1879  0.4679 -0.0251
 2167SOL    HW1 8666   8.728   4.990   9.055  1.1195 -3.3548 -0.7666
 2167SOL    HW2 8667   8.813   5.113   9.034 -3.5983  0.5035  0.8511
 2167SOL     MW 8668   8.807   5.027   9.044 -0.1775 -0.0169 -0.0078
 2168SOL     OW 8669   7.239   4.652   2.693 -0.2216  0.1917  0.7862
 2168SOL    HW1 8670   7.332   4.639   2.709  0.5387  2.0312 -1.5935
 2168SOL    HW2 8671   7.201   4.666   2.780  1.2639 -2.6910  2.0321
 2168SOL     MW 8672   7.246   4.652   2.706  0.0659  0.0582  0.6410
 2169SOL     OW 8673   6.368   4.901   1.672  0.0339 -0.1534 -0.1559
 2169SOL    HW1 8674   6.334   4.984   1.705 -1.8485 -0.8693 -0.1730
 2169SOL    HW2 8675   6.455   4.893   1.710  0.3461  1.9207 -0.3447
 2169SOL     MW 8676   6.375   4.910   1.681 -0.1671  0.0205 -0.1823
 2170SOL     OW 8677   6.984   9.798   2.713 -0.2087  0.0710 -0.4426
 2170SOL    HW1 8678   7.006   9.708   2.735 -0.3704 -0.3290 -1.7915
 2170SOL    HW2 8679   6.889   9.796   2.697 -0.1709  0.4114 -0.7263
 2170SOL     MW 8680   6.974   9.786   2.714 -0.2246  0.0634 -0.6516
 2171SOL     OW 8681   7.770   1.706   1.817  0.1432  0.3264  0.1066
 2171SOL    HW1 8682   7.766   1.626   1.870  0.9644  0.0421 -0.2451
 2171SOL    HW2 8683   7.818   1.768   1.870  0.7190  0.1317 -0.1733
 2171SOL     MW 8684   7.776   1.703   1.830  0.3221  0.2651  0.0257
 2172SOL     OW 8685   6.942   0.769   1.677  0.3367 -0.0234 -0.1358
 2172SOL    HW1 8686   6.986   0.699   1.629  0.9121  0.8202 -0.8846
 2172SOL    HW2 8687   6.853   0.737   1.690  0.8488 -1.2900  0.4023
 2172SOL     MW 8688   6.936   0.756   1.672  0.4759 -0.0775 -0.1628
 2173SOL     OW 8689   8.746   9.006   2.501  0.2713  0.3483 -0.3661
 2173SOL    HW1 8690   8.701   9.080   2.458  1.1904  1.6709  0.8383
 2173SOL    HW2 8691   8.825   9.045   2.538 -1.3121 -0.1784  4.1825
 2173SOL     MW 8692   8.751   9.021   2.500  0.1863  0.4502  0.3704
 2174SOL     OW 8693   7.205   0.134   1.216 -0.0183 -0.5488  0.1892
 2174SOL    HW1 8694   7.135   0.083   1.254  1.0264 -0.9669  1.6305
 2174SOL    HW2 8695   7.172   0.224   1.217 -0.2776 -0.6348  1.5192
 2174SOL     MW 8696   7.192   0.139   1.221  0.0822 -0.6133  0.5439
 2175SOL     OW 8697   9.548   2.329  10.149  0.5374 -0.3036  0.0165
 2175SOL    HW1 8698   9.488   2.352  10.078 -0.8734 -0.2004  1.2221
 2175SOL    HW2 8699   9.610   2.269  10.108  0.2855  0.4239 -1.5201
 2175SOL     MW 8700   9.549   2.324  10.135  0.3245 -0.1973 -0.0259
 2176SOL     OW 8701   6.583   6.663  10.058 -0.0288  0.0433 -0.1153
 2176SOL    HW1 8702   6.613   6.752  10.038 -1.1541  0.6724  0.8873
 2176SOL    HW2 8703   6.494   6.674  10.090  0.2553 -1.3063  1.2652
 2176SOL     MW 8704   6.576   6.676  10.060 -0.1365 -0.0490  0.1898
 2177SOL     OW 8705   9.343   5.404   0.479 -0.7043 -0.3367 -0.1565
 2177SOL    HW1 8706   9.294   5.483   0.502 -0.5084  0.1209 -1.2868
 2177SOL    HW2 8707   9.287   5.358   0.417  0.1378  0.0296 -1.2123
 2177SOL     MW 8708   9.329   5.408   0.474 -0.5714 -0.2312 -0.4364
 2178SOL     OW 8709   0.540   2.099   0.874 -0.0909 -0.0740 -0.3474
 2178SOL    HW1 8710   0.494   2.121   0.956  1.1176  1.6847 -0.1045
 2178SOL    HW2 8711   0.508   2.011   0.853 -1.5009 -0.0135  1.2518
 2178SOL     MW 8712   0.530   2.091   0.882 -0.1167  0.1589 -0.1116
 2179SOL     OW 8713   8.405   8.183   0.266 -0.0046 -0.0671 -0.0744
 2179SOL    HW1 8714   8.450   8.148   0.343 -0.0022 -2.0654 -0.9128
 2179SOL    HW2 8715   8.334   8.121   0.250  0.2759  0.0182 -1.9383
 2179SOL     MW 8716   8.402   8.170   0.274  0.0316 -0.3120 -0.4203
 2180SOL     OW 8717   6.571   8.377   2.354  0.3642  0.9961 -0.1138
 2180SOL    HW1 8718   6.666   8.369   2.365  0.2405 -0.5374  0.0183
 2180SOL    HW2 8719   6.542   8.291   2.325 -1.0824  1.2365  0.4945
 2180SOL     MW 8720   6.579   8.365   2.352  0.1632  0.8306 -0.0190
 2181SOL     OW 8721   6.958   0.231  10.160 -0.2597 -0.0411  0.1056
 2181SOL    HW1 8722   7.019   0.231  10.087 -0.6388 -0.1701 -0.2183
 2181SOL    HW2 8723   6.978   0.311  10.208  0.0534 -0.0025 -0.0870
 2181SOL     MW 8724   6.968   0.241  10.156 -0.2681 -0.0527  0.0395
 2182SOL     OW 8725   9.491   7.441   8.885  0.1663 -0.4808 -0.2149
 2182SOL    HW1 8726   9.469   7.530   8.912  1.2391 -0.3233  0.1922
 2182SOL    HW2 8727   9.503   7.448   8.790 -2.4403 -0.7898 -0.6346
 2182SOL     MW 8728   9.490   7.454   8.876 -0.0300 -0.5002 -0.2165
 2183SOL     OW 8729   7.884   4.511   0.575 -0.1595 -0.0966  0.4329
 2183SOL    HW1 8730   7.964   4.559   0.553 -1.1740  1.1360 -0.6943
 2183SOL    HW2 8731   7.813   4.564   0.539 -1.5072 -1.1471  1.4358
 2183SOL     MW 8732   7.886   4.524   0.568 -0.4619 -0.0732  0.4170
 2184SOL     OW 8733   8.344   4.465   1.221 -0.1902 -0.2646 -0.0973
 2184SOL    HW1 8734   8.404   4.462   1.146 -0.7454 -0.8481 -0.5296
 2184SOL    HW2 8735   8.276   4.526   1.194  0.3443  0.6412  0.5174
 2184SOL     MW 8736   8.343   4.472   1.208 -0.1928 -0.2233 -0.0739
 2185SOL     OW 8737   9.173   3.545   9.752 -0.1072 -0.5816 -0.1110
 2185SOL    HW1 8738   9.137   3.628   9.785 -0.7007 -1.2076  0.8424
 2185SOL    HW2 8739   9.235   3.572   9.685  0.8834  0.7272  1.2597
 2185SOL     MW 8740   9.176   3.559   9.748 -0.0563 -0.4942  0.1865
 2186SOL     OW 8741   9.228   2.316   0.917  0.3500  0.2307  0.2652
 2186SOL    HW1 8742   9.297   2.252   0.900  0.2888 -0.1802  1.4970
 2186SOL    HW2 8743   9.201   2.299   1.007 -0.0764  1.6065  0.4196
 2186SOL     MW 8744   9.234   2.306   0.926  0.2876  0.3542  0.4426
 2187SOL     OW 8745   9.463   8.118   1.712 -0.2369  0.1571  0.0839
 2187SOL    HW1 8746   9.458   8.099   1.806  2.9828 -1.1254  0.1227
 2187SOL    HW2 8747   9.400   8.059   1.672 -1.2401  0.3006  1.3653
 2187SOL     MW 8748   9.455   8.108   1.719  0.0468  0.0113  0.2529
 2188SOL     OW 8749   7.289   9.832   1.806  0.0777 -0.1036 -0.2180
 2188SOL    HW1 8750   7.349   9.877   1.747  1.3757 -1.4244  0.0401
 2188SOL    HW2 8751   7.266   9.898   1.871 -0.3255  0.9835 -1.4205
 2188SOL     MW 8752   7.294   9.847   1.807  0.1923 -0.1335 -0.3389
 2189SOL     OW 8753   8.151   8.589   9.536  0.0891  0.0776  0.0901
 2189SOL    HW1 8754   8.175   8.601   9.628 -0.8063 -1.2086  0.5225
 2189SOL    HW2 8755   8.058   8.568   9.537  0.9688 -5.1535 -0.5145
 2189SOL     MW 8756   8.142   8.588   9.548  0.0871 -0.7567  0.0681
 2190SOL     OW 8757   7.564   1.685   2.084  0.4359  0.1921  0.0259
 2190SOL    HW1 8758   7.511   1.757   2.119 -1.5950 -2.0803  1.9947
 2190SOL    HW2 8759   7.624   1.662   2.155  0.4806 -0.5676 -0.2484
 2190SOL     MW 8760   7.565   1.691   2.097  0.1816 -0.1960  0.2428
 2191SOL     OW 8761   7.964   7.555   9.489  0.0356  0.7180 -0.5811
 2191SOL    HW1 8762   7.874   7.586   9.481  0.2727  1.3891 -0.7181
 2191SOL    HW2 8763   8.017   7.633   9.476  0.6057  0.7583  1.7051
 2191SOL     MW 8764   7.959   7.569   9.486  0.1389  0.8091 -0.3060
 2192SOL     OW 8765   7.874   0.791   2.106  0.0025 -0.4192  0.1896
 2192SOL    HW1 8766   7.904   0.880   2.119  2.4882 -1.2984  1.0908
 2192SOL    HW2 8767   7.861   0.783   2.012  2.2255  0.2234 -0.2292
 2192SOL     MW 8768   7.876   0.801   2.096  0.6053 -0.4495  0.2513
 2193SOL     OW 8769   8.884   9.915   0.555 -0.3468  0.3348 -0.2035
 2193SOL    HW1 8770   8.944   9.950   0.490 -1.3995  1.0350 -0.8211
 2193SOL    HW2 8771   8.804   9.967   0.545 -1.3992 -1.1863 -0.0616
 2193SOL     MW 8772   8.881   9.926   0.545 -0.6163  0.2297 -0.2644
 2194SOL     OW 8773   8.096   3.086   0.779 -0.4064  0.5651 -0.0960
 2194SOL    HW1 8774   8.142   3.057   0.857  0.6742 -0.8251 -1.2045
 2194SOL    HW2 8775   8.008   3.048   0.787 -0.2645  0.3420  0.3979
 2194SOL     MW 8776   8.090   3.077   0.790 -0.2499  0.3586 -0.1747
 2195SOL     OW 8777   7.748   6.592   0.920 -0.4075  0.4339  0.1161
 2195SOL    HW1 8778   7.809   6.627   0.985  1.3940 -0.7884 -0.8366
 2195SOL    HW2 8779   7.768   6.640   0.839  0.2015 -0.8681 -0.5225
 2195SOL     MW 8780   7.758   6.603   0.918 -0.0989  0.1108 -0.0876
 2196SOL     OW 8781   8.268   2.191   2.190  0.2557  0.0055  0.4604
 2196SOL    HW1 8782   8.220   2.143   2.123  1.8960  0.7102 -1.2851
 2196SOL    HW2 8783   8.257   2.138   2.269 -3.3564  0.1468  0.2189
 2196SOL     MW 8784   8.260   2.178   2.192  0.0033  0.1138  0.2060
 2197SOL     OW 8785   6.324   6.434   1.560 -0.1746  1.0704 -0.0320
 2197SOL    HW1 8786   6.347   6.457   1.650  0.4944 -1.9798  0.6865
 2197SOL    HW2 8787   6.407   6.441   1.512 -0.5644  2.8654 -0.5305
 2197SOL     MW 8788   6.338   6.438   1.566 -0.1389  0.9097 -0.0038
 2198SOL     OW 8789   0.105   5.966   0.592  0.2183 -0.0799 -0.1949
 2198SOL    HW1 8790   0.155   5.972   0.511  2.1638 -1.2085  0.8578
 2198SOL    HW2 8791   0.021   6.006   0.571  0.9048  0.2670 -2.5586
 2198SOL     MW 8792   0.101   5.972   0.579  0.5553 -0.1799 -0.3627
 2199SOL     OW 8793   7.812   4.869   9.850 -0.5742 -0.1190  0.6122
 2199SOL    HW1 8794   7.760   4.950   9.852 -1.9645 -0.9323 -0.7428
 2199SOL    HW2 8795   7.858   4.872   9.765 -0.2362 -0.5149  0.7774
 2199SOL     MW 8796   7.811   4.880   9.839 -0.7089 -0.2738  0.4599
 2200SOL     OW 8797   8.943   0.003   9.286 -0.7034  0.2640  0.1206
 2200SOL    HW1 8798   9.006   0.038   9.223 -0.5403 -2.0504 -1.1097
 2200SOL    HW2 8799   8.997  -0.036   9.355 -0.8154  0.0687  0.0995
 2200SOL     MW 8800   8.958   0.002   9.286 -0.6969 -0.0572 -0.0396
 2201SOL     OW 8801   7.695   2.433   9.653  0.4113  0.5127  0.1293
 2201SOL    HW1 8802   7.669   2.432   9.561  1.6628  1.2064 -0.2561
 2201SOL    HW2 8803   7.667   2.348   9.687 -0.1571  0.2910 -0.8549
 2201SOL     MW 8804   7.688   2.422   9.646  0.4987  0.5731 -0.0460
 2202SOL     OW 8805   9.162   0.403   9.028 -0.4727  0.4126 -0.6052
 2202SOL    HW1 8806   9.252   0.400   9.058  0.2307 -0.8149 -2.6232
 2202SOL    HW2 8807   9.126   0.482   9.068  0.9331  0.0228  1.6291
 2202SOL     MW 8808   9.169   0.412   9.037 -0.2027  0.2056 -0.5775
 2203SOL     OW 8809   7.511   1.097   2.856 -0.4203  0.5215  0.0736
 2203SOL    HW1 8810   7.482   1.188   2.848  1.4591  1.0223 -2.2691
 2203SOL    HW2 8811   7.477   1.054   2.778  0.3260 -0.2844  0.1784
 2203SOL     MW 8812   7.503   1.103   2.845 -0.0841  0.4825 -0.2129
 2204SOL     OW 8813   0.305   4.210   0.088  0.1281 -0.0771  0.2343
 2204SOL    HW1 8814   0.251   4.282   0.054  0.7105 -0.5521 -1.8864
 2204SOL    HW2 8815   0.249   4.132   0.077 -0.6851  0.0288  2.9570
 2204SOL     MW 8816   0.291   4.209   0.082  0.0985 -0.1243  0.3113
 2205SOL     OW 8817   6.477   0.836   0.292  0.1193 -0.5574 -0.1285
 2205SOL    HW1 8818   6.509   0.816   0.204  0.5201 -0.2374 -0.0571
 2205SOL    HW2 8819   6.392   0.792   0.297 -0.4022  0.2930 -1.0559
 2205SOL     MW 8820   6.470   0.828   0.281  0.1038 -0.4076 -0.2381
 2206SOL     OW 8821   8.641   5.770   2.347  0.1821  0.6968  0.2917
 2206SOL    HW1 8822   8.605   5.693   2.303  1.6339 -0.1341  0.4845
 2206SOL    HW2 8823   8.572   5.798   2.406 -1.1030  0.7163 -1.1577
 2206SOL     MW 8824   8.628   5.764   2.348  0.2034  0.5929  0.1308
 2207SOL     OW 8825   7.804  -0.008   3.178  0.1237 -0.2423  0.3369
 2207SOL    HW1 8826   7.842   0.040   3.104 -0.4451  1.0273  0.8320
 2207SOL    HW2 8827   7.876  -0.015   3.241  0.5049 -0.9973 -0.1766
 2207SOL     MW 8828   7.818  -0.002   3.177  0.0997 -0.1764  0.3345
 2208SOL     OW 8829   6.166   8.575   1.376 -0.1061  0.1893  0.1080
 2208SOL    HW1 8830   6.217   8.501   1.345  1.1124  0.0513  2.2260
 2208SOL    HW2 8831   6.161   8.634   1.300  1.5702 -0.6607 -0.7287
 2208SOL     MW 8832   6.172   8.573   1.362  0.2645  0.0628  0.2720
 2209SOL     OW 8833   7.527   9.682   0.793 -0.2411  0.1377 -0.0612
 2209SOL    HW1 8834   7.606   9.735   0.777  1.2728 -1.6944  1.0188
 2209SOL    HW2 8835   7.518   9.629   0.714  0.2084 -0.3757  0.2304
 2209SOL     MW 8836   7.536   9.682   0.781  0.0102 -0.1625  0.1144
 2210SOL     OW 8837   6.515   7.373   9.886 -0.2524 -0.1004  0.0263
 2210SOL    HW1 8838   6.603   7.410   9.897  0.4367 -1.4938 -0.5422
 2210SOL    HW2 8839   6.495   7.385   9.794 -1.4515  1.8227  0.4886
 2210SOL     MW 8840   6.524   7.379   9.876 -0.3177 -0.0326  0.0127
 2211SOL     OW 8841   8.965   9.452   1.302 -0.3550  0.3497  0.8034
 2211SOL    HW1 8842   8.976   9.455   1.397 -0.7280  1.7727  0.8348
 2211SOL    HW2 8843   8.870   9.456   1.289 -0.3324 -0.4211  0.3729
 2211SOL     MW 8844   8.954   9.453   1.313 -0.3998  0.4332  0.7523
 2212SOL     OW 8845   7.015   3.218   0.284  0.2887  0.0438  0.1317
 2212SOL    HW1 8846   7.034   3.262   0.367 -0.5436  1.0294 -0.1835
 2212SOL    HW2 8847   7.015   3.125   0.306  0.5323  0.2714  1.1401
 2212SOL     MW 8848   7.018   3.212   0.297  0.2134  0.1991  0.2204
 2213SOL     OW 8849   7.566   2.228   0.647 -0.1510 -0.0903 -0.1436
 2213SOL    HW1 8850   7.475   2.258   0.648 -0.8444 -1.9637  1.8010
 2213SOL    HW2 8851   7.618   2.308   0.654 -1.5788  1.0655 -2.0445
 2213SOL     MW 8852   7.561   2.242   0.648 -0.4225 -0.1822 -0.1380
 2214SOL     OW 8853   8.465   9.611   9.658 -0.0184 -0.1521 -0.0079
 2214SOL    HW1 8854   8.457   9.532   9.604  2.4576 -2.0887  2.1468
 2214SOL    HW2 8855   8.543   9.655   9.625  0.4052 -0.3311  0.7231
 2214SOL     MW 8856   8.474   9.606   9.647  0.3528 -0.4229  0.3615
 2215SOL     OW 8857  10.021   0.451   0.256 -0.3475 -0.2852 -0.6799
 2215SOL    HW1 8858   9.970   0.477   0.333  1.5676  1.5512  0.0745
 2215SOL    HW2 8859   9.974   0.488   0.182  0.0399  1.7762  0.0407
 2215SOL     MW 8860  10.009   0.459   0.256 -0.0528  0.2137 -0.4911
 2216SOL     OW 8861   9.054   9.734   9.605  0.5095 -0.7400  0.3176
 2216SOL    HW1 8862   9.035   9.793   9.678  1.9013  0.6120 -0.3491
 2216SOL    HW2 8863   9.077   9.651   9.646  0.3639 -0.2721  1.3700
 2216SOL     MW 8864   9.055   9.731   9.619  0.6690 -0.5070  0.3670
 2217SOL     OW 8865  10.006   4.647   1.718 -0.4265  0.0974 -0.0018
 2217SOL    HW1 8866   9.980   4.667   1.807 -0.3416 -1.1912  0.3382
 2217SOL    HW2 8867   9.970   4.560   1.701  0.9011 -0.3552 -0.6508
 2217SOL     MW 8868   9.998   4.638   1.727 -0.2457 -0.1255 -0.0414
 2218SOL     OW 8869   9.768   1.604   0.291  0.4432 -0.1623 -0.0747
 2218SOL    HW1 8870   9.777   1.558   0.375  0.5258 -1.5605 -0.8322
 2218SOL    HW2 8871   9.701   1.670   0.308 -0.3087 -1.1113  0.8148
 2218SOL     MW 8872   9.761   1.607   0.304  0.3575 -0.4628 -0.0578
 2219SOL     OW 8873   6.654   3.717   0.859  0.1166  0.3098  0.3441
 2219SOL    HW1 8874   6.642   3.622   0.857  0.0354  0.3233  0.2097
 2219SOL    HW2 8875   6.565   3.753   0.854 -0.0844  0.3611  2.8515
 2219SOL     MW 8876   6.641   3.710   0.858  0.0805  0.3181  0.6479
 2220SOL     OW 8877   8.231   1.265   0.169 -0.3856 -0.3899 -0.0463
 2220SOL    HW1 8878   8.318   1.244   0.202 -0.0395  0.5871 -0.3268
 2220SOL    HW2 8879   8.243   1.342   0.113 -1.2802 -0.7838 -0.8214
 2220SOL     MW 8880   8.244   1.272   0.166 -0.4558 -0.3152 -0.1814
 2221SOL     OW 8881   6.931   1.168   0.762  0.1900  0.2631  0.4090
 2221SOL    HW1 8882   6.968   1.255   0.745 -0.5001  0.1344 -2.1841
 2221SOL    HW2 8883   6.846   1.186   0.802  0.7282  0.6971  1.4091
 2221SOL     MW 8884   6.925   1.182   0.765  0.1706  0.3022  0.2051
 2222SOL     OW 8885   8.141   2.035   2.016  0.0987 -0.0895 -0.1214
 2222SOL    HW1 8886   8.216   1.994   1.972  2.7928  1.4638  2.7106
 2222SOL    HW2 8887   8.120   2.110   1.961  0.3455 -0.7331 -1.1346
 2222SOL     MW 8888   8.148   2.039   2.003  0.4752  0.0269  0.1114
 2223SOL     OW 8889   6.714   6.901   9.591 -0.4606 -0.1713  0.1248
 2223SOL    HW1 8890   6.757   6.985   9.611 -0.9566  0.2534 -0.5448
 2223SOL    HW2 8891   6.733   6.887   9.498 -2.3918  0.4196 -0.4056
 2223SOL     MW 8892   6.722   6.910   9.581 -0.7713 -0.0413 -0.0288
 2224SOL     OW 8893   8.460   8.629   0.993 -0.3170  0.2895  0.9120
 2224SOL    HW1 8894   8.500   8.709   0.957 -1.3933  1.1090  1.4906
 2224SOL    HW2 8895   8.466   8.565   0.922  0.8694  0.7712  0.5525
 2224SOL     MW 8896   8.466   8.631   0.979 -0.3029  0.4561  0.9401
 2225SOL     OW 8897   6.484   2.944   0.664  0.0565 -1.0889 -0.1040
 2225SOL    HW1 8898   6.444   2.883   0.726  1.8146 -1.7770  0.4126
 2225SOL    HW2 8899   6.469   3.030   0.703  1.4763 -1.5345  1.5435
 2225SOL     MW 8900   6.477   2.947   0.677  0.4633 -1.2340  0.1731
 2226SOL     OW 8901   8.012   7.171   2.096  0.4905  0.4035  0.2223
 2226SOL    HW1 8902   8.019   7.209   2.183 -1.3154 -1.7527  1.4048
 2226SOL    HW2 8903   7.946   7.225   2.051 -0.0028  0.3811  0.9003
 2226SOL     MW 8904   8.004   7.183   2.101  0.1962  0.1246  0.4605
 2227SOL     OW 8905   8.481   0.789  10.007  0.1980 -0.1312 -0.1838
 2227SOL    HW1 8906   8.411   0.845  10.040  0.8884 -0.3446  1.7756
 2227SOL    HW2 8907   8.457   0.771   9.916 -1.7212  0.6506  0.1294
 2227SOL     MW 8908   8.469   0.794  10.000  0.0407 -0.0584  0.1071
 2228SOL     OW 8909   8.240   1.684   2.119  0.2590  0.0548  0.7631
 2228SOL    HW1 8910   8.149   1.667   2.095  0.0565 -1.7218  2.5119
 2228SOL    HW2 8911   8.265   1.760   2.067 -1.3843 -0.9894 -1.7674
 2228SOL     MW 8912   8.231   1.691   2.109  0.0227 -0.3063  0.6630
 2229SOL     OW 8913   7.196   7.245   1.669  0.5297  0.1103 -0.0067
 2229SOL    HW1 8914   7.220   7.302   1.596  3.1119 -0.4225  0.3191
 2229SOL    HW2 8915   7.196   7.157   1.633  0.3248 -0.0279  0.3183
 2229SOL     MW 8916   7.199   7.241   1.655  0.8340  0.0244  0.0766
 2230SOL     OW 8917   8.271   5.905  10.136 -0.1096 -0.1178 -0.0831
 2230SOL    HW1 8918   8.276   5.961  10.058 -1.9624 -0.1346 -0.2666
 2230SOL    HW2 8919   8.333   5.944  10.197 -1.0879  2.0044 -0.3211
 2230SOL     MW 8920   8.279   5.917  10.134 -0.4720  0.1517 -0.1371
 2231SOL     OW 8921   8.982   9.416   0.034  0.9400 -0.0330 -0.4841
 2231SOL    HW1 8922   8.970   9.462  -0.049  1.4362 -0.3938 -0.7649
 2231SOL    HW2 8923   8.894   9.399   0.066  0.7516  0.6210 -0.6524
 2231SOL     MW 8924   8.969   9.420   0.028  0.9794  0.0045 -0.5416
 2232SOL     OW 8925   7.359   8.687   0.452  0.3465 -0.0017 -0.0551
 2232SOL    HW1 8926   7.276   8.640   0.449 -0.3318  1.1150  0.4606
 2232SOL    HW2 8927   7.399   8.661   0.535 -0.7476  1.4529  0.9770
 2232SOL     MW 8928   7.354   8.678   0.463  0.1196  0.3275  0.1431
 2233SOL     OW 8929   9.896   6.489   1.719  0.4215 -0.3852 -0.6109
 2233SOL    HW1 8930   9.935   6.563   1.673  1.1611 -0.4964 -0.1778
 2233SOL    HW2 8931   9.806   6.487   1.687  0.1376  1.2068 -0.0297
 2233SOL     MW 8932   9.890   6.499   1.709  0.4798 -0.1956 -0.4810
 2234SOL     OW 8933   7.695   6.530   1.666  0.0607  0.1226 -0.2923
 2234SOL    HW1 8934   7.622   6.488   1.712  1.1156  1.6310  3.0975
 2234SOL    HW2 8935   7.657   6.610   1.629 -0.3897 -0.0894 -0.2950
 2234SOL     MW 8936   7.680   6.535   1.667  0.1381  0.2885  0.1413
 2235SOL     OW 8937   7.102   5.920   2.601 -0.3192  0.0629  0.1992
 2235SOL    HW1 8938   7.023   5.917   2.546 -0.2083  0.4918  0.0082
 2235SOL    HW2 8939   7.144   6.003   2.578  0.1307 -0.1089  0.3809
 2235SOL     MW 8940   7.097   5.930   2.591 -0.2474  0.0958  0.1980
 2236SOL     OW 8941   8.005   8.513   8.723  0.4341 -0.0255 -0.2975
 2236SOL    HW1 8942   7.942   8.568   8.769 -0.9167  0.2192 -2.2968
 2236SOL    HW2 8943   8.077   8.571   8.702 -0.3067  0.6467 -1.0730
 2236SOL     MW 8944   8.006   8.527   8.726  0.1663  0.0919 -0.6527
 2237SOL     OW 8945   9.019   5.011   1.607 -0.3143  0.1972 -0.1451
 2237SOL    HW1 8946   9.075   5.084   1.581 -0.9252  0.4792 -0.7225
 2237SOL    HW2 8947   8.941   5.052   1.643 -0.1869 -0.1887  0.5832
 2237SOL     MW 8948   9.016   5.025   1.608 -0.3762  0.1839 -0.1258
 2238SOL     OW 8949   6.614   1.405   0.531  0.6800 -0.2796 -0.1303
 2238SOL    HW1 8950   6.568   1.459   0.467 -0.4264  0.1828  1.0233
 2238SOL    HW2 8951   6.700   1.388   0.491 -0.4625 -1.2281 -2.3947
 2238SOL     MW 8952   6.619   1.410   0.518  0.3921 -0.3418 -0.2725
 2239SOL     OW 8953   9.633   2.755   0.429 -0.1962 -0.0011 -0.4046
 2239SOL    HW1 8954   9.546   2.765   0.469  0.5338  1.3781  0.9500
 2239SOL    HW2 8955   9.646   2.837   0.382  0.9803  0.4847  0.7140
 2239SOL     MW 8956   9.623   2.767   0.428  0.0479  0.2377 -0.0880
 2240SOL     OW 8957   8.847   4.418   9.263 -0.1416 -0.0842 -0.3928
 2240SOL    HW1 8958   8.922   4.399   9.207  0.5603  0.6903  0.2651
 2240SOL    HW2 8959   8.874   4.386   9.349  0.2550  1.9740  0.2964
 2240SOL     MW 8960   8.860   4.411   9.267 -0.0010  0.2784 -0.2204
 2241SOL     OW 8961   7.588   6.149   1.625  0.1873  0.0752  0.5168
 2241SOL    HW1 8962   7.554   6.201   1.698  0.1881 -0.1755  0.7003
 2241SOL    HW2 8963   7.682   6.165   1.626  0.3949 -1.0648  1.5038
 2241SOL     MW 8964   7.596   6.157   1.635  0.2140 -0.1029  0.6666
 2242SOL     OW 8965   6.345   5.292   1.432  0.2151 -0.4413 -0.0418
 2242SOL    HW1 8966   6.339   5.370   1.487 -0.0565 -0.9061  0.6012
 2242SOL    HW2 8967   6.382   5.324   1.349  2.7060 -0.0939  1.1243
 2242SOL     MW 8968   6.349   5.306   1.428  0.4992 -0.4563  0.1898
 2243SOL     OW 8969   6.180   7.435   1.211 -0.3051  0.2196  0.7489
 2243SOL    HW1 8970   6.248   7.404   1.270  1.5886 -0.0288 -1.4353
 2243SOL    HW2 8971   6.138   7.507   1.258  1.0349 -0.0237  2.4133
 2243SOL     MW 8972   6.183   7.440   1.224  0.1089  0.1566  0.6824
 2244SOL     OW 8973   8.851   6.007   1.128  0.2696  0.4584 -0.1264
 2244SOL    HW1 8974   8.775   5.985   1.074  0.5121 -0.2308 -0.2015
 2244SOL    HW2 8975   8.815   6.058   1.200  0.1387  2.7788 -1.7341
 2244SOL     MW 8976   8.837   6.010   1.130  0.2839  0.6672 -0.3418
 2245SOL     OW 8977   8.474   1.540   2.699 -0.4520  0.1118  0.4611
 2245SOL    HW1 8978   8.521   1.623   2.711  0.8901 -0.8324  2.1139
 2245SOL    HW2 8979   8.527   1.492   2.635 -0.4652 -0.0235  0.5524
 2245SOL     MW 8980   8.487   1.545   2.692 -0.2819 -0.0264  0.6844
 2246SOL     OW 8981   8.530   5.710   1.741  0.3088 -0.2680  0.0143
 2246SOL    HW1 8982   8.549   5.668   1.657 -2.5096 -0.8296 -0.4489
 2246SOL    HW2 8983   8.456   5.768   1.723 -0.4890 -0.5355  2.1040
 2246SOL     MW 8984   8.523   5.712   1.728 -0.1541 -0.3742  0.2225
 2247SOL     OW 8985   6.869   4.134   0.166  0.1821 -0.1450 -0.0063
 2247SOL    HW1 8986   6.816   4.150   0.244 -2.1167 -1.1403 -1.2488
 2247SOL    HW2 8987   6.952   4.099   0.199 -0.4412  0.1544  1.9904
 2247SOL     MW 8988   6.873   4.132   0.180 -0.1920 -0.2341  0.0903
 2248SOL     OW 8989   7.536   8.458   8.845  0.6611  0.6597 -0.0684
 2248SOL    HW1 8990   7.451   8.443   8.884  1.4218 -0.6832  1.1807
 2248SOL    HW2 8991   7.556   8.375   8.800  0.7285  1.4380 -1.5359
 2248SOL     MW 8992   7.528   8.445   8.844  0.7671  0.5874 -0.0963
 2249SOL     OW 8993   5.977   0.605   1.315  0.4157 -0.2429 -0.2382
 2249SOL    HW1 8994   5.991   0.670   1.383 -0.6497 -1.4432  1.1863
 2249SOL    HW2 8995   6.065   0.584   1.284  0.8109  1.4977 -0.4213
 2249SOL     MW 8996   5.990   0.611   1.320  0.3299 -0.1738 -0.0793
 2250SOL     OW 8997   8.498   2.688   1.769  0.4205  0.3691  0.9809
 2250SOL    HW1 8998   8.450   2.760   1.730  1.2737  1.6679  2.2310
 2250SOL    HW2 8999   8.447   2.663   1.847  1.1245  0.9588  1.6464
 2250SOL     MW 9000   8.486   2.694   1.774  0.6198  0.6108  1.2261
 2251SOL     OW 9001   9.381   8.366   1.341 -0.3766 -0.2402 -0.3799
 2251SOL    HW1 9002   9.345   8.395   1.424 -0.3563 -0.6641 -0.2183
 2251SOL    HW2 9003   9.462   8.321   1.364  0.4451  0.9983 -0.7672
 2251SOL     MW 9004   9.387   8.364   1.354 -0.2688 -0.1359 -0.4088
 2252SOL     OW 9005   8.489   4.746   2.451  0.3785 -0.0686 -0.1549
 2252SOL    HW1 9006   8.567   4.778   2.497 -0.0890 -2.5362  2.6816
 2252SOL    HW2 9007   8.462   4.669   2.501 -1.9541 -1.3118 -3.0172
 2252SOL     MW 9008   8.496   4.740   2.463  0.0201 -0.5437 -0.1582
 2253SOL     OW 9009   9.982   2.566   9.909  0.2257 -0.5697  0.1465
 2253SOL    HW1 9010   9.999   2.610   9.993  1.4705  0.0972 -0.4233
 2253SOL    HW2 9011   9.900   2.604   9.879  1.1250  1.2545 -0.1969
 2253SOL     MW 9012   9.974   2.577   9.916  0.5002 -0.2508  0.0296
 2254SOL     OW 9013   9.009   8.860   1.949  0.9211  1.0327 -0.0998
 2254SOL    HW1 9014   8.959   8.911   1.885  0.2879  0.6829  0.1021
 2254SOL    HW2 9015   8.956   8.863   2.029  0.7955 -0.0429 -0.1237
 2254SOL     MW 9016   8.996   8.867   1.951  0.8240  0.8502 -0.0770
 2255SOL     OW 9017   8.778   7.440  10.009 -0.0330 -0.1223  0.6314
 2255SOL    HW1 9018   8.829   7.368   9.972 -0.5823 -0.1088 -0.1594
 2255SOL    HW2 9019   8.746   7.489   9.934 -0.0424  0.6977  1.1536
 2255SOL     MW 9020   8.781   7.437   9.995 -0.1045 -0.0156  0.5970
 2256SOL     OW 9021   6.362   5.818   0.631  0.1722  0.2318 -0.1795
 2256SOL    HW1 9022   6.447   5.828   0.588 -0.3476 -1.5122 -1.7411
 2256SOL    HW2 9023   6.378   5.757   0.703  0.4386  0.7685  0.2244
 2256SOL     MW 9024   6.375   5.811   0.635  0.1398  0.0773 -0.3277
 2257SOL     OW 9025   9.853   7.191   0.541  0.2774  0.5468  0.3055
 2257SOL    HW1 9026   9.903   7.111   0.554  0.3209  0.3780 -0.7547
 2257SOL    HW2 9027   9.776   7.181   0.597 -0.7844 -1.2186 -1.3037
 2257SOL     MW 9028   9.850   7.180   0.550  0.1471  0.2992 -0.0362
 2258SOL     OW 9029   8.725   5.665   9.853 -0.1831  0.3455 -0.6343
 2258SOL    HW1 9030   8.726   5.670   9.948  1.1480  2.9246 -0.6658
 2258SOL    HW2 9031   8.816   5.684   9.828 -0.0175 -2.3054 -2.4294
 2258SOL     MW 9032   8.737   5.668   9.862  0.0085  0.3363 -0.8681
 2259SOL     OW 9033   9.069   5.836   1.087  0.2350 -0.2667 -0.0424
 2259SOL    HW1 9034   9.001   5.778   1.054 -1.2918  0.9087  0.9298
 2259SOL    HW2 9035   9.023   5.914   1.117  2.2706  1.9483 -2.1838
 2259SOL     MW 9036   9.055   5.838   1.086  0.3001  0.1673 -0.1921
 2260SOL     OW 9037   9.219   2.648   2.674  0.6167  0.2721  0.6772
 2260SOL    HW1 9038   9.243   2.555   2.682  0.4045  0.2368  0.9098
 2260SOL    HW2 9039   9.234   2.684   2.761  1.8721  0.7400  0.2957
 2260SOL     MW 9040   9.224   2.641   2.686  0.7503  0.3275  0.6581
 2261SOL     OW 9041   7.478   2.032   1.349  0.1502  0.1505 -0.2332
 2261SOL    HW1 9042   7.470   2.097   1.279  0.7237 -0.4623 -0.8817
 2261SOL    HW2 9043   7.449   1.950   1.309 -0.5977  0.0066  0.5883
 2261SOL     MW 9044   7.473   2.030   1.335  0.1279  0.0536 -0.2111
 2262SOL     OW 9045   8.649   0.644   1.670 -0.0400  0.7379 -0.0887
 2262SOL    HW1 9046   8.582   0.610   1.730  0.2382  0.9617  0.3560
 2262SOL    HW2 9047   8.732   0.627   1.714  0.2271  0.1661 -0.7888
 2262SOL     MW 9048   8.651   0.638   1.683  0.0298  0.6934 -0.1214
 2263SOL     OW 9049   9.098   5.469   0.073  0.2230  0.0765 -0.0740
 2263SOL    HW1 9050   9.177   5.417   0.057 -1.7516 -2.5408 -2.3803
 2263SOL    HW2 9051   9.062   5.485  -0.015 -2.0774  0.7119  0.9060
 2263SOL     MW 9052   9.104   5.465   0.060 -0.3242 -0.1772 -0.2438
 2264SOL     OW 9053   8.030   0.273   3.213 -0.1073 -0.1574 -0.0253
 2264SOL    HW1 9054   8.022   0.223   3.132 -0.2189  0.4387 -0.3918
 2264SOL    HW2 9055   7.953   0.330   3.213 -1.3075 -1.6802  1.5970
 2264SOL     MW 9056   8.019   0.274   3.202 -0.2752 -0.2760  0.1355
 2265SOL     OW 9057   9.387  10.145   2.489 -0.2907  0.1969 -0.0955
 2265SOL    HW1 9058   9.469  10.186   2.462 -0.2147 -1.2293 -2.3578
 2265SOL    HW2 9059   9.409  10.054   2.505 -1.1555  0.1425  0.9057
 2265SOL     MW 9060   9.400  10.139   2.487 -0.3916  0.0074 -0.2569
 2266SOL     OW 9061   8.533   6.662   2.126 -0.3019 -0.3512  0.1779
 2266SOL    HW1 9062   8.609   6.654   2.184  0.8568  0.2370 -1.2074
 2266SOL    HW2 9063   8.473   6.593   2.156  0.1894  0.0192  2.1352
 2266SOL     MW 9064   8.535   6.652   2.138 -0.0906 -0.2284  0.2511
 2267SOL     OW 9065   6.976   3.313   2.484  0.0804 -0.1205  0.0378
 2267SOL    HW1 9066   7.009   3.283   2.568  0.2897 -0.5128 -0.1791
 2267SOL    HW2 9067   7.025   3.261   2.419 -0.8376 -0.5923 -0.2931
 2267SOL     MW 9068   6.987   3.303   2.486 -0.0103 -0.2311 -0.0323
 2268SOL     OW 9069   9.658   4.970   9.707 -0.0891  0.4218  0.3542
 2268SOL    HW1 9070   9.653   4.900   9.642  0.6545  0.1622  0.5587
 2268SOL    HW2 9071   9.580   5.023   9.692  0.7812  1.2461 -1.7705
 2268SOL     MW 9072   9.648   4.968   9.696  0.1175  0.4941  0.1084
 2269SOL     OW 9073   9.054   7.324   9.272  0.1199  0.3799  0.2962
 2269SOL    HW1 9074   8.988   7.256   9.259 -0.3118  0.5847  1.3012
 2269SOL    HW2 9075   9.100   7.329   9.188 -0.7184 -0.2125 -0.2194
 2269SOL     MW 9076   9.051   7.316   9.260 -0.0427  0.3303  0.3588
 2270SOL     OW 9077   0.405   7.440   1.577  0.1561  0.5218  0.0765
 2270SOL    HW1 9078   0.464   7.513   1.556 -1.0316  1.4487 -0.1844
 2270SOL    HW2 9079   0.344   7.437   1.503 -0.6188  0.1194  0.7167
 2270SOL     MW 9080   0.405   7.449   1.564 -0.0951  0.5889  0.1250
 2271SOL     OW 9081   9.299   4.516   1.094 -0.1402  0.3771 -0.0187
 2271SOL    HW1 9082   9.291   4.591   1.036  1.1726  0.6460  0.1261
 2271SOL    HW2 9083   9.246   4.447   1.052  0.8735  0.5272 -1.5971
 2271SOL     MW 9084   9.291   4.517   1.081  0.1576  0.4308 -0.2022
 2272SOL     OW 9085   9.176   9.918   0.644 -0.5676 -0.0085  0.0129
 2272SOL    HW1 9086   9.163   9.874   0.561 -1.0113  0.1105  0.0191
 2272SOL    HW2 9087   9.096   9.901   0.694 -1.4392  2.0715 -0.5706
 2272SOL     MW 9088   9.164   9.911   0.640 -0.7360  0.2730 -0.0610
 2273SOL     OW 9089  10.084   8.440   9.970 -0.1511  0.1850 -0.3699
 2273SOL    HW1 9090  10.026   8.364   9.981  1.4420 -0.8215  1.8582
 2273SOL    HW2 9091  10.130   8.447  10.054  2.5438  1.2460 -1.8259
 2273SOL     MW 9092  10.082   8.431   9.982  0.3978  0.1920 -0.2711
 2274SOL     OW 9093   8.865   2.098   0.503 -0.1729  0.1483  0.0223
 2274SOL    HW1 9094   8.892   2.125   0.590 -0.2041  0.3573 -0.0323
 2274SOL    HW2 9095   8.782   2.143   0.488  0.6467  1.4617 -0.7701
 2274SOL     MW 9096   8.858   2.107   0.512 -0.0720  0.3431 -0.0861
 2275SOL     OW 9097   9.518   2.256   0.229  0.5653  0.1560  0.3608
 2275SOL    HW1 9098   9.607   2.284   0.252  0.3866  1.3547 -0.3208
 2275SOL    HW2 9099   9.517   2.256   0.133 -0.0340 -0.3021  0.3663
 2275SOL     MW 9100   9.529   2.260   0.220  0.4657  0.2508  0.2743
 2276SOL     OW 9101   6.900   1.514   9.761  0.6762  0.2085  0.6943
 2276SOL    HW1 9102   6.896   1.497   9.856  0.9100  2.1443  1.0929
 2276SOL    HW2 9103   6.934   1.432   9.724 -2.2786 -1.7278  1.8736
 2276SOL     MW 9104   6.904   1.501   9.769  0.3278  0.2084  0.8963
 2277SOL     OW 9105   8.668   0.608   3.193 -0.3634 -0.1534  0.7283
 2277SOL    HW1 9106   8.619   0.560   3.260 -0.3055  0.5658  1.2979
 2277SOL    HW2 9107   8.723   0.669   3.242 -0.7517  0.8002  0.0209
 2277SOL     MW 9108   8.669   0.610   3.208 -0.4057  0.0608  0.7107
 2278SOL     OW 9109   7.371   5.381   1.782  0.1108 -0.5673 -0.1621
 2278SOL    HW1 9110   7.439   5.378   1.715  0.6709  1.8370  0.2048
 2278SOL    HW2 9111   7.420   5.384   1.865 -0.4069  0.7920  0.1202
 2278SOL     MW 9112   7.386   5.381   1.784  0.1162 -0.0855 -0.0790
 2279SOL     OW 9113   8.548   5.497   9.719 -0.2363  0.5913 -0.3138
 2279SOL    HW1 9114   8.612   5.554   9.762  0.2065 -0.8172  0.9726
 2279SOL    HW2 9115   8.553   5.415   9.767 -1.2953 -0.3487 -1.7365
 2279SOL     MW 9116   8.557   5.494   9.730 -0.3152  0.2907 -0.3312
 2280SOL     OW 9117   7.656   0.777   2.618 -0.3172  0.2307  0.7808
 2280SOL    HW1 9118   7.720   0.848   2.614  1.4737 -1.3681 -0.3165
 2280SOL    HW2 9119   7.607   0.785   2.536 -0.1380  0.1822  0.6709
 2280SOL     MW 9120   7.658   0.787   2.607 -0.0650  0.0198  0.6263
 2281SOL     OW 9121   9.572   7.405   2.571  0.4208 -0.7078  0.3426
 2281SOL    HW1 9122   9.642   7.339   2.573  2.6908  1.4702 -1.4552
 2281SOL    HW2 9123   9.601   7.470   2.507 -2.9073  0.7906  0.1190
 2281SOL     MW 9124   9.585   7.405   2.563  0.2854 -0.2372  0.0838
 2282SOL     OW 9125   7.749   3.443   1.575 -0.3299 -0.2299  0.0169
 2282SOL    HW1 9126   7.761   3.387   1.652 -1.2045  0.0181  0.3448
 2282SOL    HW2 9127   7.804   3.519   1.592  1.7318 -1.4199 -0.9175
 2282SOL     MW 9128   7.758   3.445   1.587 -0.1779 -0.3505 -0.0608
 2283SOL     OW 9129   9.917   9.132   0.198 -0.3126  0.2252  0.4727
 2283SOL    HW1 9130   9.931   9.152   0.106  0.2617 -0.1901  0.4621
 2283SOL    HW2 9131   9.881   9.043   0.198  2.5006 -1.0185  0.7535
 2283SOL     MW 9132   9.914   9.123   0.187  0.1211  0.0128  0.5073
 2284SOL     OW 9133   6.563   2.969   1.597 -0.2646 -0.4651  0.0207
 2284SOL    HW1 9134   6.596   2.932   1.679  1.4873  0.2958 -0.2996
 2284SOL    HW2 9135   6.471   2.991   1.616  0.6848  1.8787  2.5684
 2284SOL     MW 9136   6.555   2.967   1.610  0.0812 -0.0676  0.3059
 2285SOL     OW 9137   9.467   3.637   9.429 -0.1292 -0.0772 -0.7703
 2285SOL    HW1 9138   9.529   3.706   9.454 -0.6299 -0.0229  0.3604
 2285SOL    HW2 9139   9.387   3.684   9.406 -0.2922 -0.2546 -0.5611
 2285SOL     MW 9140   9.465   3.652   9.429 -0.2142 -0.0930 -0.5988
 2286SOL     OW 9141   6.716   7.167   1.499  0.2105  0.1314  0.6868
 2286SOL    HW1 9142   6.684   7.165   1.590  0.9284 -1.6941  0.9466
 2286SOL    HW2 9143   6.808   7.139   1.506  0.0438 -0.8205 -0.6693
 2286SOL     MW 9144   6.724   7.163   1.512  0.2810 -0.2241  0.5465
 2287SOL     OW 9145   9.254   8.242   2.118  0.1896  0.1573  0.7653
 2287SOL    HW1 9146   9.238   8.227   2.025  0.5296 -1.0839  0.8884
 2287SOL    HW2 9147   9.321   8.311   2.121  0.1586  0.2160  0.1018
 2287SOL     MW 9148   9.261   8.249   2.107  0.2291  0.0060  0.6961
 2288SOL     OW 9149   6.675   1.800   1.434  0.2539  1.0266  0.4763
 2288SOL    HW1 9150   6.708   1.717   1.468 -0.6209  0.7517  0.6789
 2288SOL    HW2 9151   6.580   1.796   1.449 -0.0851  1.1782 -1.3819
 2288SOL     MW 9152   6.667   1.789   1.440  0.0985  1.0108  0.2643
 2289SOL     OW 9153   8.656   2.039   1.466 -0.1433  0.0578 -0.1288
 2289SOL    HW1 9154   8.741   2.060   1.426 -0.3640  0.9605 -0.1357
 2289SOL    HW2 9155   8.637   1.951   1.434  1.8040 -1.0731  1.5898
 2289SOL     MW 9156   8.665   2.031   1.457  0.0777  0.0286  0.0903
 2290SOL     OW 9157   6.109   0.648   0.573  0.1044 -0.1092 -0.2976
 2290SOL    HW1 9158   6.013   0.644   0.577 -0.0005 -0.2884 -2.2387
 2290SOL    HW2 9159   6.133   0.575   0.515  1.7831 -2.9979  3.5567
 2290SOL     MW 9160   6.100   0.638   0.566  0.3059 -0.5019 -0.0526
 2291SOL     OW 9161   9.291   8.550   2.115  0.3252  0.2117 -0.4372
 2291SOL    HW1 9162   9.282   8.642   2.137  0.8342 -0.3721  2.7434
 2291SOL    HW2 9163   9.227   8.535   2.045  0.1469  2.9031 -0.9422
 2291SOL     MW 9164   9.282   8.560   2.108  0.3676  0.4815 -0.0947
 2292SOL     OW 9165   9.212  10.125   2.269  0.6834  0.2582 -0.5411
 2292SOL    HW1 9166   9.226  10.107   2.362 -0.1411  1.4962 -0.1455
 2292SOL    HW2 9167   9.299  10.144   2.235  1.2171 -1.7334 -0.4126
 2292SOL     MW 9168   9.225  10.125   2.276  0.6462  0.1617 -0.4740
 2293SOL     OW 9169   6.997   7.273   2.357  0.0669  0.6747 -1.0479
 2293SOL    HW1 9170   7.005   7.303   2.266  1.2582 -1.0789 -1.5632
 2293SOL    HW2 9171   7.065   7.207   2.367  0.1147  0.9884  1.2217
 2293SOL     MW 9172   7.007   7.268   2.347  0.2255  0.4904 -0.8233
 2294SOL     OW 9173   8.988   6.220   2.246  0.5761  0.1337 -0.4888
 2294SOL    HW1 9174   9.079   6.195   2.264  0.3972 -0.3854 -0.2714
 2294SOL    HW2 9175   8.994   6.294   2.185  1.1297 -0.4294 -1.1271
 2294SOL     MW 9176   9.000   6.226   2.241  0.6241 -0.0049 -0.5427
 2295SOL     OW 9177   8.533   8.921   1.025  0.0315 -0.6096  0.1825
 2295SOL    HW1 9178   8.626   8.903   1.007  0.1528 -0.6397  0.8335
 2295SOL    HW2 9179   8.505   8.975   0.951  1.0666  0.9944  0.9097
 2295SOL     MW 9180   8.542   8.926   1.013  0.1795 -0.4081  0.3589
 2296SOL     OW 9181   9.084   3.204   1.410 -0.3075 -0.1164  0.3584
 2296SOL    HW1 9182   9.115   3.260   1.481 -0.4396  0.4266 -0.0075
 2296SOL    HW2 9183   9.106   3.115   1.438  1.7673  0.2472  0.0420
 2296SOL     MW 9184   9.091   3.200   1.422 -0.0588 -0.0004  0.2711
 2297SOL     OW 9185   8.626   4.574   2.919  0.2838  0.2325 -0.2746
 2297SOL    HW1 9186   8.692   4.605   2.981  0.5109  1.1488 -0.9426
 2297SOL    HW2 9187   8.546   4.620   2.944 -0.2006 -1.1385  0.7473
 2297SOL     MW 9188   8.625   4.584   2.930  0.2509  0.1743 -0.2293
 2298SOL     OW 9189   9.778   3.885  10.095  0.0368  0.1376 -0.1841
 2298SOL    HW1 9190   9.831   3.809  10.119 -0.2374 -0.4753 -1.4437
 2298SOL    HW2 9191   9.838   3.943  10.048  0.0501  0.3366  0.0753
 2298SOL     MW 9192   9.792   3.883  10.092  0.0034  0.0846 -0.3121
 2299SOL     OW 9193   7.908   5.024   2.412 -0.6569 -0.0036 -0.0211
 2299SOL    HW1 9194   7.841   5.033   2.345 -0.7055  1.3904  0.1845
 2299SOL    HW2 9195   7.860   5.000   2.491 -0.8266  0.3407 -0.0222
 2299SOL     MW 9196   7.893   5.022   2.413 -0.6848  0.2190  0.0050
 2300SOL     OW 9197   7.577   2.654   9.231 -0.2263 -0.6442 -0.1010
 2300SOL    HW1 9198   7.485   2.672   9.253 -0.0287  0.2943  0.0107
 2300SOL    HW2 9199   7.574   2.624   9.140 -0.6770 -0.9448  0.0083
 2300SOL     MW 9200   7.565   2.653   9.222 -0.2587 -0.5626 -0.0727
 2301SOL     OW 9201   9.009   1.790   0.716  0.0459 -0.0555 -0.1006
 2301SOL    HW1 9202   9.087   1.738   0.734  1.0113  0.6434 -1.9742
 2301SOL    HW2 9203   9.005   1.794   0.620 -1.3986  1.2465 -0.0182
 2301SOL     MW 9204   9.018   1.784   0.706 -0.0154  0.2007 -0.3299
 2302SOL     OW 9205   8.805   9.711  10.116  0.6036  0.2754 -0.1576
 2302SOL    HW1 9206   8.845   9.660  10.046 -1.2582  0.6738 -1.5700
 2302SOL    HW2 9207   8.711   9.706  10.100  0.1662  1.0938  1.8293
 2302SOL     MW 9208   8.798   9.704  10.105  0.3093  0.4312 -0.0840
 2303SOL     OW 9209   7.234   2.113   0.182  0.1022 -0.0273  0.0932
 2303SOL    HW1 9210   7.284   2.181   0.227 -1.5884  0.2053  1.6955
 2303SOL    HW2 9211   7.268   2.031   0.218  0.0904  0.0797  0.3488
 2303SOL     MW 9212   7.245   2.112   0.192 -0.1157  0.0162  0.3310
 2304SOL     OW 9213   8.989   7.893   2.800 -0.0216  0.1645 -0.2411
 2304SOL    HW1 9214   9.072   7.893   2.846 -1.7894 -0.8529  3.2695
 2304SOL    HW2 9215   8.956   7.804   2.810 -2.0378  0.8376 -0.4924
 2304SOL     MW 9216   8.995   7.882   2.807 -0.5060  0.1204  0.1761
 2305SOL     OW 9217   8.686   8.388   0.444 -1.0087 -0.0288  0.0598
 2305SOL    HW1 9218   8.657   8.327   0.513  0.0538  0.1335  0.6776
 2305SOL    HW2 9219   8.669   8.342   0.362  0.2688 -1.4248  0.5303
 2305SOL     MW 9220   8.680   8.374   0.443 -0.7092 -0.1868  0.1991
 2306SOL     OW 9221   8.882   4.800   1.819  0.2334 -0.1398  0.5644
 2306SOL    HW1 9222   8.956   4.790   1.759  0.9321  1.5489  1.0882
 2306SOL    HW2 9223   8.845   4.885   1.796 -1.2408 -0.7337  0.6725
 2306SOL     MW 9224   8.887   4.810   1.808  0.1341  0.0003  0.6453
 2307SOL     OW 9225   9.316   4.673   0.381  0.4525  0.1545 -0.5717
 2307SOL    HW1 9226   9.289   4.749   0.433  0.0084 -0.1207 -0.3897
 2307SOL    HW2 9227   9.405   4.655   0.409  0.4121  0.3505 -0.3083
 2307SOL     MW 9228   9.324   4.681   0.391  0.3905  0.1444 -0.5147
 2308SOL     OW 9229   7.416   6.786   1.858 -0.5584 -0.4289  0.0640
 2308SOL    HW1 9230   7.420   6.871   1.902  0.2228 -0.5336  0.2262
 2308SOL    HW2 9231   7.327   6.754   1.874 -0.7803  0.2507  0.2055
 2308SOL     MW 9232   7.405   6.792   1.866 -0.4868 -0.3553  0.1029
 2309SOL     OW 9233   9.026   0.472   9.881  0.2615  0.2454  0.0708
 2309SOL    HW1 9234   9.034   0.474   9.976  0.4647  0.4638  0.0481
 2309SOL    HW2 9235   9.088   0.405   9.853  0.3954  0.3672  0.0731
 2309SOL     MW 9236   9.035   0.464   9.890  0.3046  0.2890  0.0682
 2310SOL     OW 9237   9.566   9.952   9.476  0.2460  0.2385  0.3170
 2310SOL    HW1 9238   9.564   9.872   9.424 -0.8993 -0.8836  1.9763
 2310SOL    HW2 9239   9.499  10.008   9.437 -1.9041 -1.3112  1.5536
 2310SOL     MW 9240   9.558   9.949   9.464 -0.1759 -0.1035  0.6877
 2311SOL     OW 9241   8.111   9.806   9.529 -0.5359 -0.1688 -0.1313
 2311SOL    HW1 9242   8.051   9.734   9.509 -0.6339  0.0908 -0.8055
 2311SOL    HW2 9243   8.178   9.801   9.460  0.7008 -0.9563  1.0662
 2311SOL     MW 9244   8.112   9.796   9.517 -0.3902 -0.2364 -0.0643
 2312SOL     OW 9245   7.361  -0.023   8.979 -0.1065  0.3018 -0.1492
 2312SOL    HW1 9246   7.452  -0.017   8.951 -0.0074  0.5784  0.2294
 2312SOL    HW2 9247   7.318   0.054   8.941  0.0241  0.6679  0.4201
 2312SOL     MW 9248   7.367  -0.012   8.971 -0.0771  0.3840 -0.0278
 2313SOL     OW 9249   7.931   9.068   9.780  0.0417 -0.1075  0.2101
 2313SOL    HW1 9250   7.979   9.140   9.739 -1.2933  0.1420 -0.9944
 2313SOL    HW2 9251   7.842   9.076   9.747 -0.1225 -2.3995 -0.0982
 2313SOL     MW 9252   7.926   9.078   9.770 -0.1503 -0.3689  0.0165
 2314SOL     OW 9253   6.824   1.736   9.563  0.3031 -0.1077 -0.7034
 2314SOL    HW1 9254   6.900   1.792   9.579 -0.6141  1.1836 -0.6650
 2314SOL    HW2 9255   6.839   1.658   9.616  1.6312  0.0773 -0.7806
 2314SOL     MW 9256   6.836   1.733   9.572  0.3557  0.0813 -0.7083
 2315SOL     OW 9257   6.821   3.961   1.412  0.3298  0.0163  0.7266
 2315SOL    HW1 9258   6.833   3.894   1.344  2.6044  0.4239  0.6492
 2315SOL    HW2 9259   6.776   4.033   1.367  0.5056 -0.3013  0.0343
 2315SOL     MW 9260   6.817   3.962   1.397  0.6435  0.0278  0.6281
 2316SOL     OW 9261   0.410   4.528   0.369 -0.2935  0.3993  0.1254
 2316SOL    HW1 9262   0.361   4.597   0.414 -1.5918  0.2799 -1.0247
 2316SOL    HW2 9263   0.498   4.564   0.358 -0.4930  1.1934  1.0178
 2316SOL     MW 9264   0.415   4.541   0.373 -0.4853  0.4857  0.0924
 2317SOL     OW 9265   8.582   4.794   1.660  0.2285 -0.0385 -0.0668
 2317SOL    HW1 9266   8.497   4.820   1.694  0.9058  0.2129  1.5040
 2317SOL    HW2 9267   8.623   4.745   1.732  0.4401 -2.3665 -1.6355
 2317SOL     MW 9268   8.576   4.791   1.673  0.3423 -0.3043 -0.0666
 2318SOL     OW 9269   8.575   5.774   1.233 -0.2535  0.1772  0.2597
 2318SOL    HW1 9270   8.574   5.835   1.160 -1.1747  0.4945  0.5148
 2318SOL    HW2 9271   8.547   5.690   1.195 -1.3394  0.4818  0.3389
 2318SOL     MW 9272   8.571   5.771   1.219 -0.5104  0.2568  0.3025
 2319SOL     OW 9273   7.647   0.638   9.242  0.3189  0.1170 -0.0974
 2319SOL    HW1 9274   7.650   0.588   9.161 -0.8994 -0.5873  0.2788
 2319SOL    HW2 9275   7.657   0.573   9.311  0.2003  0.5741  0.3594
 2319SOL     MW 9276   7.649   0.623   9.241  0.1478  0.0853  0.0092
 2320SOL     OW 9277   9.340   5.918   1.514  0.5602  0.1825  0.4208
 2320SOL    HW1 9278   9.300   5.994   1.473 -0.8720  0.0556  1.5191
 2320SOL    HW2 9279   9.367   5.948   1.601  0.7856 -0.3327  0.5359
 2320SOL     MW 9280   9.338   5.931   1.520  0.4057  0.1003  0.5761
 2321SOL     OW 9281   9.109   5.410   1.645  0.3239 -0.0678  0.1648
 2321SOL    HW1 9282   9.188   5.395   1.593  1.5601  1.3142  1.5499
 2321SOL    HW2 9283   9.051   5.460   1.588  0.4075 -1.1363 -0.8827
 2321SOL     MW 9284   9.111   5.415   1.631  0.4928 -0.0277  0.2080
 2322SOL     OW 9285   7.897   9.040   9.070  0.3860  0.1712  0.3756
 2322SOL    HW1 9286   7.962   8.972   9.054  0.0980  0.2843 -1.4548
 2322SOL    HW2 9287   7.825   9.019   9.011  0.4875  2.2921 -0.6141
 2322SOL     MW 9288   7.896   9.029   9.060  0.3622  0.4572  0.0146
 2323SOL     OW 9289   8.549   8.196   9.552 -0.3748  0.0742 -0.6239
 2323SOL    HW1 9290   8.546   8.290   9.570 -0.0317 -0.1310  0.5809
 2323SOL    HW2 9291   8.458   8.172   9.534 -0.7655  0.3077  0.9366
 2323SOL     MW 9292   8.537   8.205   9.552 -0.3809  0.0778 -0.2699
 2324SOL     OW 9293   8.468   5.497   2.696 -0.2542  0.4973 -0.4125
 2324SOL    HW1 9294   8.462   5.415   2.745 -0.4408  1.0680  0.5469
 2324SOL    HW2 9295   8.380   5.533   2.699 -0.3129  0.4489 -1.3556
 2324SOL     MW 9296   8.456   5.491   2.703 -0.2856  0.5642 -0.4104
 2325SOL     OW 9297   6.978   5.260   1.464  0.0511 -0.3083  0.0184
 2325SOL    HW1 9298   6.947   5.170   1.455  0.6499 -0.6665  1.3437
 2325SOL    HW2 9299   6.899   5.313   1.450 -0.5384 -1.0788  0.3354
 2325SOL     MW 9300   6.964   5.255   1.461  0.0523 -0.4528  0.2286
 2326SOL     OW 9301   9.989   9.535   1.009 -0.2518 -0.6920 -0.5276
 2326SOL    HW1 9302   9.982   9.442   1.030  0.4418 -0.3139  1.6643
 2326SOL    HW2 9303   9.903   9.558   0.972 -0.5940 -2.0725 -0.6486
 2326SOL     MW 9304   9.977   9.526   1.007 -0.2068 -0.8203 -0.2625
 2327SOL     OW 9305   8.995   7.618   1.545  0.2778  0.0687  0.5039
 2327SOL    HW1 9306   8.977   7.613   1.451  1.5059  2.3662  0.0678
 2327SOL    HW2 9307   8.971   7.707   1.570 -2.4476 -1.1805  3.0168
 2327SOL     MW 9308   8.990   7.629   1.536  0.0861  0.2029  0.7697
 2328SOL     OW 9309   8.583   0.831   9.630 -0.3826  0.1791 -0.1462
 2328SOL    HW1 9310   8.572   0.821   9.536  1.6454 -1.4181 -0.2772
 2328SOL    HW2 9311   8.670   0.794   9.648 -0.2323  1.4813  2.1903
 2328SOL     MW 9312   8.593   0.825   9.620 -0.1038  0.1413  0.1361
 2329SOL     OW 9313   9.026   0.338   9.311  0.0067 -0.1438 -0.2398
 2329SOL    HW1 9314   9.047   0.424   9.349  0.0804 -0.0710 -0.4422
 2329SOL    HW2 9315   8.952   0.355   9.253 -0.4059 -0.3413  0.2225
 2329SOL     MW 9316   9.019   0.352   9.309 -0.0367 -0.1598 -0.2066
 2330SOL     OW 9317   7.334   0.538   9.259 -0.0612 -0.4784  0.1566
 2330SOL    HW1 9318   7.373   0.495   9.335  0.3847 -1.3843 -0.5625
 2330SOL    HW2 9319   7.361   0.484   9.184  0.6453  1.1388 -0.8172
 2330SOL     MW 9320   7.342   0.526   9.259  0.0864 -0.3873 -0.0601
 2331SOL     OW 9321   9.292  10.002   0.890  0.0526 -0.1416  0.1663
 2331SOL    HW1 9322   9.249   9.995   0.805 -0.1500 -0.3849  0.2897
 2331SOL    HW2 9323   9.270  10.090   0.921  2.0480  0.8821 -1.0766
 2331SOL     MW 9324   9.284  10.012   0.883  0.2821 -0.0417  0.0230
 2332SOL     OW 9325   9.118   4.905   2.682  0.2608 -0.4763  0.5748
 2332SOL    HW1 9326   9.070   4.986   2.668 -0.0440 -0.4839  1.4725
 2332SOL    HW2 9327   9.191   4.930   2.739  1.1475 -0.5281 -0.4983
 2332SOL     MW 9328   9.122   4.918   2.688  0.3353 -0.4839  0.5524
 2333SOL     OW 9329   7.146   7.741   0.559  0.1719  0.1494 -0.0074
 2333SOL    HW1 9330   7.080   7.709   0.619 -0.0975 -1.4060 -1.0812
 2333SOL    HW2 9331   7.224   7.754   0.613 -0.5076  0.3533  0.9480
 2333SOL     MW 9332   7.148   7.739   0.573  0.0504 -0.0236 -0.0226
 2334SOL     OW 9333   7.539   0.070   3.099 -0.0690  0.1403 -0.3551
 2334SOL    HW1 9334   7.619   0.058   3.150 -0.4352 -0.0943  0.1803
 2334SOL    HW2 9335   7.522  -0.015   3.059  0.9100  0.6571 -1.9257
 2334SOL     MW 9336   7.547   0.058   3.100  0.0095  0.1764 -0.4877
 2335SOL     OW 9337   8.992   9.503   1.582  0.0440 -0.4348  0.6146
 2335SOL    HW1 9338   8.914   9.448   1.582 -0.5346  0.3256 -0.5748
 2335SOL    HW2 9339   9.063   9.445   1.607 -0.4659 -1.8572 -1.0354
 2335SOL     MW 9340   8.991   9.489   1.585 -0.0954 -0.5195  0.2511
 2336SOL     OW 9341   9.294   8.069   1.092 -0.2077 -0.3246 -0.2973
 2336SOL    HW1 9342   9.271   7.984   1.055 -1.2877  0.6031 -1.8687
 2336SOL    HW2 9343   9.369   8.099   1.041  0.3403 -0.4375  0.4299
 2336SOL     MW 9344   9.300   8.062   1.081 -0.2758 -0.2203 -0.4053
 2337SOL     OW 9345   7.223   8.413   2.453  0.5221  0.2317  0.1111
 2337SOL    HW1 9346   7.128   8.426   2.457 -0.0509 -3.0677  1.0323
 2337SOL    HW2 9347   7.250   8.453   2.371 -2.2607 -1.3290 -1.7589
 2337SOL     MW 9348   7.214   8.420   2.443  0.0926 -0.3904 -0.0104
 2338SOL     OW 9349   8.472   2.515   9.730  0.7882 -0.2057  0.0236
 2338SOL    HW1 9350   8.462   2.595   9.782 -0.3937  0.4297 -1.1384
 2338SOL    HW2 9351   8.384   2.477   9.727  0.7422 -0.0347 -1.7844
 2338SOL     MW 9352   8.460   2.520   9.736  0.6311 -0.1024 -0.3566
 2339SOL     OW 9353   6.746   0.729   9.514 -0.1000 -0.1239  0.7383
 2339SOL    HW1 9354   6.795   0.652   9.543  0.3713  0.3194  1.1416
 2339SOL    HW2 9355   6.799   0.804   9.542 -1.9014  0.4426  2.8904
 2339SOL     MW 9356   6.759   0.729   9.521 -0.2703  0.0054  1.0654
 2340SOL     OW 9357   8.963   1.534   0.187 -0.0155  0.2009 -0.1291
 2340SOL    HW1 9358   9.044   1.539   0.238  0.7081 -0.1334 -1.2172
 2340SOL    HW2 9359   8.992   1.538   0.096 -1.1125 -1.3803 -0.5789
 2340SOL     MW 9360   8.977   1.535   0.182 -0.0633 -0.0443 -0.3260
 2341SOL     OW 9361   6.506   9.653   9.737  0.1764  1.0649 -0.2910
 2341SOL    HW1 9362   6.461   9.597   9.800  1.0202  0.0380 -0.5593
 2341SOL    HW2 9363   6.585   9.604   9.714 -0.1873  1.3188 -2.2647
 2341SOL     MW 9364   6.510   9.639   9.742  0.2379  0.9660 -0.5780
 2342SOL     OW 9365   6.890   0.534   9.618  0.3992 -0.0827 -0.0935
 2342SOL    HW1 9366   6.889   0.534   9.714  1.6338 -0.5325 -0.0535
 2342SOL    HW2 9367   6.977   0.569   9.596  0.7788 -1.5160 -0.9987
 2342SOL     MW 9368   6.901   0.538   9.628  0.6059 -0.3237 -0.2042
 2343SOL     OW 9369   7.988   1.192   2.412 -0.1855  0.2753  0.3679
 2343SOL    HW1 9370   8.010   1.136   2.337  0.4371  1.0093 -0.0130
 2343SOL    HW2 9371   7.921   1.251   2.378 -0.4734  0.0942  0.6212
 2343SOL     MW 9372   7.982   1.193   2.398 -0.1426  0.3461  0.3516
 2344SOL     OW 9373   9.124   2.378   1.932  0.0685 -0.3068  0.4510
 2344SOL    HW1 9374   9.216   2.351   1.937  0.5849  1.2272 -0.2337
 2344SOL    HW2 9375   9.106   2.386   1.839 -0.8138 -0.7315  0.5781
 2344SOL     MW 9376   9.134   2.375   1.921  0.0216 -0.1648  0.3796
 2345SOL     OW 9377   6.758   9.523   1.235  0.1285  0.0119  0.2043
 2345SOL    HW1 9378   6.711   9.448   1.272  0.1439 -0.7156 -1.1840
 2345SOL    HW2 9379   6.732   9.597   1.290  1.0075 -1.1776  2.3454
 2345SOL     MW 9380   6.748   9.523   1.247  0.2430 -0.2335  0.3007
 2346SOL     OW 9381   9.299   6.725   1.004  0.1404 -0.5061 -0.0033
 2346SOL    HW1 9382   9.347   6.643   1.010  0.2309 -0.3748  1.1943
 2346SOL    HW2 9383   9.215   6.701   0.964  1.1624 -0.7272 -2.1952
 2346SOL     MW 9384   9.295   6.712   0.999  0.2828 -0.5176 -0.1306
 2347SOL     OW 9385   9.812   2.590   0.768  0.1565  0.6006 -0.6085
 2347SOL    HW1 9386   9.866   2.511   0.772  1.0615  1.2173 -0.5957
 2347SOL    HW2 9387   9.724   2.557   0.749  0.7487 -0.3259 -1.8702
 2347SOL     MW 9388   9.807   2.575   0.766  0.3482  0.5609 -0.7684
 2348SOL     OW 9389   9.545   6.199   0.724  0.3464 -0.2536 -0.3095
 2348SOL    HW1 9390   9.567   6.131   0.660 -1.5399 -0.9203 -0.3140
 2348SOL    HW2 9391   9.460   6.173   0.758  1.0680  0.3389  2.1690
 2348SOL     MW 9392   9.537   6.187   0.720  0.1973 -0.2631  0.0072
 2349SOL     OW 9393   7.975   3.482   9.536 -0.1032  0.5543  0.2179
 2349SOL    HW1 9394   8.040   3.483   9.465  0.2455 -0.6540  0.4845
 2349SOL    HW2 9395   7.957   3.389   9.550 -0.9612  0.8251  1.0049
 2349SOL     MW 9396   7.981   3.470   9.528 -0.1684  0.4343  0.3528
 2350SOL     OW 9397   9.365   0.297   9.187 -0.0086 -0.3930 -0.0029
 2350SOL    HW1 9398   9.308   0.221   9.189 -0.1657 -0.2923 -0.4141
 2350SOL    HW2 9399   9.420   0.289   9.265 -0.1328 -0.8384  0.0390
 2350SOL     MW 9400   9.365   0.286   9.197 -0.0446 -0.4371 -0.0501
 2351SOL     OW 9401   9.065   0.088   0.545 -0.1110 -0.0711  0.4335
 2351SOL    HW1 9402   9.160   0.076   0.556 -0.0853  0.2402  0.5500
 2351SOL    HW2 9403   9.038   0.015   0.489 -0.0218 -0.9268  1.4759
 2351SOL     MW 9404   9.074   0.077   0.540 -0.0963 -0.1408  0.5819
 2352SOL     OW 9405   9.318   4.220   1.394 -0.3792 -0.0413 -0.2041
 2352SOL    HW1 9406   9.344   4.307   1.365  0.8871 -1.3480 -3.4873
 2352SOL    HW2 9407   9.243   4.198   1.338  0.2873 -1.6165 -0.5077
 2352SOL     MW 9408   9.311   4.228   1.383 -0.1318 -0.4102 -0.6633
 2353SOL     OW 9409   8.451   0.362  10.099  0.0170  0.4615  0.2375
 2353SOL    HW1 9410   8.525   0.404  10.055 -0.7120  1.2405 -0.2602
 2353SOL    HW2 9411   8.486   0.335  10.184  1.2301 -0.3539 -0.4815
 2353SOL     MW 9412   8.465   0.364  10.104  0.0789  0.4568  0.0818
 2354SOL     OW 9413   7.007   4.401   2.379 -0.2468 -0.5490 -0.0533
 2354SOL    HW1 9414   6.970   4.313   2.375  1.3897 -1.2905  0.3997
 2354SOL    HW2 9415   7.092   4.390   2.421 -0.3275  1.3643  0.7536
 2354SOL     MW 9416   7.013   4.389   2.384 -0.0476 -0.3990  0.1080
 2355SOL     OW 9417   9.455   0.939   2.064  0.2631 -0.0079  0.3376
 2355SOL    HW1 9418   9.387   0.984   2.015  1.4017  2.0166  0.4779
 2355SOL    HW2 9419   9.533   0.945   2.008  0.8013 -0.5143  1.0109
 2355SOL     MW 9420   9.456   0.946   2.051  0.4777  0.1864  0.4418
 2356SOL     OW 9421   8.561   5.552   9.463  0.3421  0.7193  0.0258
 2356SOL    HW1 9422   8.521   5.471   9.431  0.4193  1.5790 -2.4324
 2356SOL    HW2 9423   8.565   5.541   9.558 -0.9301 -1.5565 -0.1253
 2356SOL     MW 9424   8.557   5.540   9.471  0.1891  0.5380 -0.3083
 2357SOL     OW 9425   6.545   7.945   0.035  0.2808 -0.4986 -0.1342
 2357SOL    HW1 9426   6.563   8.033   0.002  1.6983 -0.6089  0.2725
 2357SOL    HW2 9427   6.493   7.904  -0.034 -1.2281  0.9235  0.0591
 2357SOL     MW 9428   6.540   7.951   0.022  0.2691 -0.3307 -0.0574
 2358SOL     OW 9429   9.082   3.546   0.978 -0.1794 -0.0618  0.4877
 2358SOL    HW1 9430   9.106   3.614   0.915 -0.6816 -0.4199 -0.0978
 2358SOL    HW2 9431   9.128   3.571   1.058  0.5382  0.3506 -0.0389
 2358SOL     MW 9432   9.091   3.558   0.980 -0.1518 -0.0548  0.3453
 2359SOL     OW 9433   9.683   7.217   1.887 -0.2399  0.6578  0.0704
 2359SOL    HW1 9434   9.773   7.247   1.902  0.2309 -0.0605 -1.1710
 2359SOL    HW2 9435   9.670   7.230   1.793 -0.4728 -1.7328 -0.2864
 2359SOL     MW 9436   9.693   7.223   1.877 -0.2094  0.2598 -0.1342
 2360SOL     OW 9437   8.253   9.502   2.255 -1.2039 -0.3162  0.2158
 2360SOL    HW1 9438   8.332   9.534   2.212  0.0299 -2.3809  0.8079
 2360SOL    HW2 9439   8.210   9.581   2.289  0.1938  0.9119 -0.7685
 2360SOL     MW 9440   8.257   9.516   2.254 -0.8670 -0.4233  0.1656
 2361SOL     OW 9441   7.661   2.842   1.164  0.0203  0.1914 -0.2405
 2361SOL    HW1 9442   7.613   2.760   1.173  2.0917 -1.0971 -0.2438
 2361SOL    HW2 9443   7.650   2.867   1.072 -1.1340  0.2625 -0.0877
 2361SOL     MW 9444   7.654   2.835   1.153  0.1377  0.0356 -0.2213
 2362SOL     OW 9445   9.803   0.450   1.742 -0.1202  0.5467 -0.6568
 2362SOL    HW1 9446   9.724   0.505   1.743 -2.3002 -2.3234  0.6466
 2362SOL    HW2 9447   9.820   0.433   1.650 -0.7027  1.5852 -0.9745
 2362SOL     MW 9448   9.795   0.455   1.731 -0.4738  0.3123 -0.5306
 2363SOL     OW 9449   6.395   2.167   1.492  0.3246  0.0784 -0.4935
 2363SOL    HW1 9450   6.363   2.245   1.537  1.7469  0.5368 -0.2350
 2363SOL    HW2 9451   6.483   2.190   1.463  0.6440 -1.3216 -0.7171
 2363SOL     MW 9452   6.402   2.180   1.494  0.5476 -0.0422 -0.4890
 2364SOL     OW 9453   6.369   9.371   0.159 -0.3946  0.3848  0.3225
 2364SOL    HW1 9454   6.308   9.412   0.221 -0.6328  0.6656 -0.0861
 2364SOL    HW2 9455   6.319   9.299   0.120 -0.8298  1.2343 -0.7473
 2364SOL     MW 9456   6.355   9.367   0.162 -0.4808  0.5295  0.1333
 2365SOL     OW 9457   6.990   6.854   2.651  0.9443  0.2869  0.5676
 2365SOL    HW1 9458   7.071   6.840   2.602  0.5417  1.6239 -0.5498
 2365SOL    HW2 9459   6.955   6.767   2.666  1.0496 -0.2028 -1.6468
 2365SOL     MW 9460   6.996   6.841   2.646  0.9063  0.3954  0.1411
 2366SOL     OW 9461   9.146   8.602   0.774 -0.1795  0.2576 -0.4901
 2366SOL    HW1 9462   9.056   8.607   0.741 -1.1126  1.0384  2.0050
 2366SOL    HW2 9463   9.159   8.509   0.792 -0.6625  0.1988 -0.4150
 2366SOL     MW 9464   9.136   8.591   0.772 -0.3608  0.3500 -0.1611
 2367SOL     OW 9465   7.636   1.674   9.620 -0.5917 -0.3228 -0.0134
 2367SOL    HW1 9466   7.605   1.652   9.532 -1.9305 -1.4087  0.6837
 2367SOL    HW2 9467   7.618   1.767   9.629  2.5906  0.6630 -2.0200
 2367SOL     MW 9468   7.630   1.683   9.610 -0.3557 -0.3356 -0.1811
 2368SOL     OW 9469   8.351   0.464   2.044  0.1206 -0.0752 -0.4372
 2368SOL    HW1 9470   8.364   0.468   2.139 -0.7710 -1.1083 -0.2411
 2368SOL    HW2 9471   8.283   0.529   2.026  2.6232  2.6099 -0.9198
 2368SOL     MW 9472   8.344   0.472   2.054  0.3268  0.1363 -0.4739
 2369SOL     OW 9473   0.234   4.315   1.089 -0.3950  0.2949  0.8637
 2369SOL    HW1 9474   0.138   4.315   1.079 -0.3931 -1.6147  0.5010
 2369SOL    HW2 9475   0.263   4.241   1.035  1.5552  2.4301 -1.2598
 2369SOL     MW 9476   0.225   4.306   1.081 -0.1451  0.3238  0.5454
 2370SOL     OW 9477   8.677   7.720   2.346  0.1151 -0.2838  0.3001
 2370SOL    HW1 9478   8.586   7.690   2.348  0.0424 -0.0840  0.0548
 2370SOL    HW2 9479   8.671   7.814   2.327  0.3810 -0.3120  0.0707
 2370SOL     MW 9480   8.665   7.728   2.344  0.1398 -0.2618  0.2393
 2371SOL     OW 9481   8.224   7.475   0.773 -0.2886 -0.4468 -0.1962
 2371SOL    HW1 9482   8.213   7.511   0.861  1.4504  0.7578 -0.4340
 2371SOL    HW2 9483   8.198   7.383   0.782  2.3091 -1.0800  2.2206
 2371SOL     MW 9484   8.219   7.467   0.786  0.2666 -0.3737  0.0827
 2372SOL     OW 9485   0.176   3.216   1.007 -0.1296 -0.0826  0.1993
 2372SOL    HW1 9486   0.112   3.185   0.943  0.4276 -0.3462 -0.2428
 2372SOL    HW2 9487   0.258   3.172   0.982  0.3625  0.7072  0.3814
 2372SOL     MW 9488   0.178   3.206   0.996  0.0047 -0.0152  0.1660
 2373SOL     OW 9489   6.373   5.082   1.111 -0.1715 -0.3611 -0.1306
 2373SOL    HW1 9490   6.286   5.116   1.132 -1.1064 -2.4383 -0.4027
 2373SOL    HW2 9491   6.376   4.995   1.150  1.9388 -0.2319  0.1527
 2373SOL     MW 9492   6.363   5.076   1.118 -0.0210 -0.6105 -0.1292
 2374SOL     OW 9493   8.328   0.584   2.330 -0.4550  0.1492  0.4336
 2374SOL    HW1 9494   8.264   0.618   2.393 -1.4519 -1.1069  0.1583
 2374SOL    HW2 9495   8.403   0.558   2.383 -1.3232 -0.9887  1.1498
 2374SOL     MW 9496   8.329   0.585   2.345 -0.6938 -0.1573  0.4900
 2375SOL     OW 9497   9.723   7.430   1.249  0.3557  0.4071 -0.2998
 2375SOL    HW1 9498   9.721   7.509   1.193 -2.0569  0.4396 -0.2901
 2375SOL    HW2 9499   9.699   7.462   1.336 -1.3404 -0.3688 -0.4352
 2375SOL     MW 9500   9.720   7.445   1.253 -0.1702  0.3119 -0.3159
 2376SOL     OW 9501   8.310   1.108   1.424 -0.0673 -0.2845 -0.6314
 2376SOL    HW1 9502   8.391   1.056   1.420 -1.1754 -2.2024  0.3748
 2376SOL    HW2 9503   8.323   1.166   1.499  1.2610  1.1034 -1.8670
 2376SOL     MW 9504   8.322   1.109   1.433 -0.0391 -0.3523 -0.6608
 2377SOL     OW 9505   6.208  10.058   0.757 -0.0191  0.2755 -0.2204
 2377SOL    HW1 9506   6.271  10.049   0.686  1.9820  1.9302  1.2339
 2377SOL    HW2 9507   6.217   9.977   0.807  1.6853  0.8478  0.4698
 2377SOL     MW 9508   6.217  10.046   0.754  0.4552  0.5606  0.0541
 2378SOL     OW 9509   9.668   7.789   0.761  0.0701 -0.1202  0.1238
 2378SOL    HW1 9510   9.590   7.845   0.761 -1.0195 -1.5650  1.7941
 2378SOL    HW2 9511   9.647   7.718   0.820  2.7005 -0.5598  0.6399
 2378SOL     MW 9512   9.655   7.787   0.768  0.2674 -0.3614  0.4037
 2379SOL     OW 9513   8.767   1.723   9.203 -0.2599  0.6005  0.2151
 2379SOL    HW1 9514   8.817   1.800   9.229  0.2850  0.5999 -0.7584
 2379SOL    HW2 9515   8.799   1.652   9.260 -1.5001  1.2846  1.8293
 2379SOL     MW 9516   8.777   1.723   9.213 -0.3489  0.6880  0.2971
 2380SOL     OW 9517   8.735   2.274   1.761  0.0015 -0.4622  0.1191
 2380SOL    HW1 9518   8.795   2.348   1.770  0.5641 -1.0002  1.0714
 2380SOL    HW2 9519   8.691   2.288   1.678  0.3143  0.7783  0.1419
 2380SOL     MW 9520   8.737   2.285   1.752  0.1136 -0.3723  0.2439
 2381SOL     OW 9521   6.734   3.836   1.087  0.0107 -0.1827 -0.0607
 2381SOL    HW1 9522   6.690   3.787   1.018  0.2118 -2.3850  1.2697
 2381SOL    HW2 9523   6.662   3.871   1.140 -0.2709 -2.4343  1.1955
 2381SOL     MW 9524   6.719   3.834   1.085  0.0004 -0.7528  0.2704
 2382SOL     OW 9525   9.791   8.387   2.456  0.2642  1.0166  0.1323
 2382SOL    HW1 9526   9.735   8.378   2.533  1.1035  0.9157  0.7402
 2382SOL    HW2 9527   9.869   8.433   2.488  0.8039  0.6055 -0.5658
 2382SOL     MW 9528   9.794   8.392   2.470  0.4407  0.9511  0.1207
 2383SOL     OW 9529   7.089   1.984   0.529  0.2570  0.1356 -0.2639
 2383SOL    HW1 9530   7.103   2.067   0.483  2.5969 -0.7985 -1.4005
 2383SOL    HW2 9531   7.103   2.005   0.621  0.0630  1.1528 -0.4588
 2383SOL     MW 9532   7.093   1.997   0.535  0.5317  0.1462 -0.4343
 2384SOL     OW 9533   9.369   6.592   0.536 -0.1225  0.1185 -0.3717
 2384SOL    HW1 9534   9.275   6.606   0.544 -0.0812  0.1456  0.0910
 2384SOL    HW2 9535   9.400   6.667   0.485 -0.2379  0.5399  0.1625
 2384SOL     MW 9536   9.361   6.603   0.530 -0.1320  0.1759 -0.2441
 2385SOL     OW 9537   8.919   5.108   2.706 -0.0815  0.1673  0.1130
 2385SOL    HW1 9538   8.894   5.177   2.644 -1.0632 -0.1248  0.1554
 2385SOL    HW2 9539   8.842   5.099   2.763  0.3331 -0.4259  0.5916
 2385SOL     MW 9540   8.906   5.116   2.705 -0.1541  0.0540  0.1797
 2386SOL     OW 9541   8.396   6.014   2.353 -0.1480 -0.2583  0.1830
 2386SOL    HW1 9542   8.305   6.001   2.326 -0.1035  1.5983 -1.0716
 2386SOL    HW2 9543   8.393   6.092   2.409  1.0483  2.3251 -3.0315
 2386SOL     MW 9544   8.384   6.023   2.357  0.0108  0.3101 -0.3891
 2387SOL     OW 9545   6.956   9.879   9.100 -0.0701 -0.3066 -0.1160
 2387SOL    HW1 9546   6.873   9.831   9.108  0.4635 -1.4472 -1.0462
 2387SOL    HW2 9547   6.991   9.880   9.189 -0.4856 -0.9632  0.0665
 2387SOL     MW 9548   6.950   9.873   9.113 -0.0550 -0.5367 -0.2117
 2388SOL     OW 9549   9.019   1.949   9.884  0.2805 -0.0993  0.0184
 2388SOL    HW1 9550   8.963   2.024   9.904  1.3725  0.4129  1.3801
 2388SOL    HW2 9551   9.074   1.940   9.962  2.6385 -0.0656 -1.5713
 2388SOL     MW 9552   9.019   1.957   9.897  0.7221 -0.0294 -0.0108
 2389SOL     OW 9553   7.305   8.765   2.209 -0.1716 -0.5495  0.0901
 2389SOL    HW1 9554   7.317   8.816   2.289  0.8471  0.4263 -0.6491
 2389SOL    HW2 9555   7.270   8.829   2.146  2.5721 -0.2612 -1.3148
 2389SOL     MW 9556   7.302   8.780   2.211  0.3100 -0.3877 -0.1844
 2390SOL     OW 9557   6.924   1.368   9.360  0.5138 -0.4769  0.2306
 2390SOL    HW1 9558   6.923   1.273   9.350  2.4263 -0.6043  0.7318
 2390SOL    HW2 9559   6.903   1.402   9.273  2.7542 -1.4034 -0.7478
 2390SOL     MW 9560   6.921   1.360   9.348  1.0454 -0.6118  0.1695
 2391SOL     OW 9561   8.653   6.575   2.714 -0.7238  0.0744 -0.0633
 2391SOL    HW1 9562   8.739   6.601   2.749 -0.7630 -0.5792  0.5430
 2391SOL    HW2 9563   8.598   6.652   2.725 -0.1393  0.5975 -0.7268
 2391SOL     MW 9564   8.657   6.588   2.720 -0.6540  0.0577 -0.0707
 2392SOL     OW 9565   8.150   5.337   1.398 -0.0328 -0.0136  0.7602
 2392SOL    HW1 9566   8.158   5.396   1.473  0.3444  1.7160 -0.5680
 2392SOL    HW2 9567   8.186   5.387   1.324 -0.3416 -1.6626 -0.5767
 2392SOL     MW 9568   8.156   5.351   1.398 -0.0240 -0.0033  0.4191
 2393SOL     OW 9569   0.208   1.156   2.312  0.6440  0.1417 -0.3392
 2393SOL    HW1 9570   0.255   1.173   2.394  0.4604  1.5030 -0.4900
 2393SOL    HW2 9571   0.278   1.149   2.247  0.7073  1.4987 -0.4510
 2393SOL     MW 9572   0.223   1.157   2.314  0.6286  0.4897 -0.3728
 2394SOL     OW 9573   8.959   9.170   2.074 -0.0962  0.1748  0.0125
 2394SOL    HW1 9574   8.871   9.164   2.038 -0.1593  0.3270  0.1380
 2394SOL    HW2 9575   8.993   9.253   2.041 -0.2959  0.4980  0.6066
 2394SOL     MW 9576   8.952   9.180   2.065 -0.1299  0.2357  0.1046
 2395SOL     OW 9577   8.347   0.073   0.102  0.1925  0.4283  0.8451
 2395SOL    HW1 9578   8.292   0.151   0.111  0.2337  0.2545  3.2178
 2395SOL    HW2 9579   8.290  -0.000   0.123  0.3949 -0.1427 -0.4670
 2395SOL     MW 9580   8.333   0.074   0.106  0.2237  0.3330  0.9809
 2396SOL     OW 9581   7.879   2.918   0.760 -0.2776 -0.5327 -0.3872
 2396SOL    HW1 9582   7.808   2.974   0.792  0.1710 -0.0556 -0.2033
 2396SOL    HW2 9583   7.835   2.840   0.726 -0.8249 -0.6317  0.5254
 2396SOL     MW 9584   7.864   2.915   0.760 -0.2902 -0.4843 -0.2468
 2397SOL     OW 9585   0.400   1.060   1.091  0.1977 -0.0094  0.2681
 2397SOL    HW1 9586   0.489   1.051   1.126  0.0953  0.4747  0.6702
 2397SOL    HW2 9587   0.360   0.974   1.104  1.3519 -0.9809 -2.0934
 2397SOL     MW 9588   0.407   1.048   1.097  0.3324 -0.0718  0.0173
 2398SOL     OW 9589   8.609   5.196   0.605 -0.3759 -0.4975 -0.1030
 2398SOL    HW1 9590   8.579   5.285   0.590  0.9137  0.1871  1.1959
 2398SOL    HW2 9591   8.609   5.156   0.517  1.3239  1.5255 -1.1137
 2398SOL     MW 9592   8.605   5.202   0.592  0.0068 -0.1509 -0.0661
 2399SOL     OW 9593   0.095   9.712   1.142  0.2404  0.4680  0.2062
 2399SOL    HW1 9594   0.186   9.696   1.118  0.9544  1.9013  1.7086
 2399SOL    HW2 9595   0.054   9.626   1.140  1.3931 -0.0938 -1.3161
 2399SOL     MW 9596   0.101   9.699   1.139  0.4794  0.5795  0.2036
 2400SOL     OW 9597   8.858   5.374   0.946  0.4240  0.6002  0.1055
 2400SOL    HW1 9598   8.818   5.288   0.930  0.7712  0.4050  0.2798
 2400SOL    HW2 9599   8.871   5.378   1.041  1.8905  0.1723 -0.0523
 2400SOL     MW 9600   8.855   5.363   0.956  0.6562  0.5205  0.1076
 2401SOL     OW 9601   8.682   6.181   0.768  0.2423 -0.3910 -0.2387
 2401SOL    HW1 9602   8.751   6.187   0.834 -0.0786 -0.6470  0.1244
 2401SOL    HW2 9603   8.657   6.271   0.751  0.8903 -0.2782 -0.6088
 2401SOL     MW 9604   8.688   6.193   0.774  0.2841 -0.4093 -0.2396
 2402SOL     OW 9605   8.166   8.586   1.752  0.3709  0.5982  0.6500
 2402SOL    HW1 9606   8.090   8.612   1.804  0.3387 -0.4814  1.1725
 2402SOL    HW2 9607   8.161   8.490   1.748 -0.4618  0.6504 -2.6444
 2402SOL     MW 9608   8.156   8.577   1.758  0.2602  0.4667  0.2951
 2403SOL     OW 9609   0.127   1.409   2.430 -0.2141 -0.0508 -0.4041
 2403SOL    HW1 9610   0.077   1.358   2.493  1.0355 -0.9929 -0.1300
 2403SOL    HW2 9611   0.157   1.345   2.365  0.2258  0.5671 -0.8222
 2403SOL     MW 9612   0.125   1.394   2.430  0.0021 -0.0923 -0.4226
 2404SOL     OW 9613   7.084   3.751   9.986  0.4637  0.5740 -0.4552
 2404SOL    HW1 9614   7.129   3.667   9.998 -0.2706  0.2091 -0.1963
 2404SOL    HW2 9615   7.018   3.753  10.055  0.0528  1.0819 -0.8518
 2404SOL     MW 9616   7.081   3.740   9.996  0.3171  0.5923 -0.4729
 2405SOL     OW 9617   8.845   6.096   0.544 -0.1684 -0.2331  0.6835
 2405SOL    HW1 9618   8.921   6.151   0.522 -1.1105  0.5517 -0.7534
 2405SOL    HW2 9619   8.790   6.153   0.599 -0.0661 -0.5477  1.1137
 2405SOL     MW 9620   8.848   6.111   0.548 -0.2759 -0.1729  0.5546
 2406SOL     OW 9621   8.044   9.289   9.016 -0.3423 -0.1860 -0.3607
 2406SOL    HW1 9622   8.043   9.301   8.921 -1.8403  0.0823 -0.3279
 2406SOL    HW2 9623   7.966   9.238   9.034 -1.1415  1.3980  0.9125
 2406SOL     MW 9624   8.034   9.284   9.006 -0.6364  0.0511 -0.1935
 2407SOL     OW 9625   8.760   4.682   2.683 -0.3814 -0.1275 -0.4592
 2407SOL    HW1 9626   8.726   4.767   2.652 -2.0577 -0.5428  0.1388
 2407SOL    HW2 9627   8.705   4.660   2.758 -0.6314 -2.1983 -1.1822
 2407SOL     MW 9628   8.749   4.690   2.688 -0.6280 -0.4458 -0.4752
 2408SOL     OW 9629   9.472   1.287   1.330 -0.1523 -0.2475 -0.6404
 2408SOL    HW1 9630   9.494   1.210   1.382  0.3106  0.4431  0.2151
 2408SOL    HW2 9631   9.530   1.283   1.254  1.3354  0.3211  0.4188
 2408SOL     MW 9632   9.482   1.277   1.327  0.0974 -0.0863 -0.3953
 2409SOL     OW 9633   6.376   5.561   0.476  0.0729  0.1453 -0.3688
 2409SOL    HW1 9634   6.338   5.614   0.407  0.2979  2.2636  1.0460
 2409SOL    HW2 9635   6.372   5.616   0.554  0.5312 -1.8549  1.1534
 2409SOL     MW 9636   6.371   5.575   0.477  0.1603  0.1604  0.0071
 2410SOL     OW 9637   7.574   4.810   1.270 -0.4934  0.4564  0.5364
 2410SOL    HW1 9638   7.624   4.889   1.290 -0.9231  0.9841 -0.3996
 2410SOL    HW2 9639   7.510   4.803   1.341 -1.2946  1.6856 -0.0357
 2410SOL     MW 9640   7.572   4.819   1.281 -0.6509  0.6813  0.3434
 2411SOL     OW 9641   0.169   0.265   1.243  0.6658 -0.1338  0.7174
 2411SOL    HW1 9642   0.188   0.171   1.239  0.1848 -0.1980 -2.1355
 2411SOL    HW2 9643   0.242   0.306   1.198  1.0059  0.9209  2.1837
 2411SOL     MW 9644   0.181   0.258   1.237  0.6478 -0.0070  0.5399
 2412SOL     OW 9645   8.864   1.275   2.440 -0.1562  0.1836 -0.6568
 2412SOL    HW1 9646   8.802   1.318   2.499  0.9636  1.0155 -0.0621
 2412SOL    HW2 9647   8.831   1.185   2.432 -1.5237  0.6488 -0.4921
 2412SOL     MW 9648   8.851   1.269   2.446 -0.1879  0.3497 -0.5596
 2413SOL     OW 9649   8.913   2.475   1.756  0.1493  0.0461  0.5184
 2413SOL    HW1 9650   8.962   2.500   1.678  1.8070 -1.4946  1.0053
 2413SOL    HW2 9651   8.878   2.557   1.790  0.4410  0.8996 -1.1427
 2413SOL     MW 9652   8.915   2.489   1.751  0.3988 -0.0419  0.3681
 2414SOL     OW 9653   8.472   5.046   1.400  0.3765  0.1226  0.2865
 2414SOL    HW1 9654   8.533   4.982   1.436  0.3957 -1.1582 -1.8790
 2414SOL    HW2 9655   8.396   5.042   1.459  0.5556 -1.5785  0.4462
 2414SOL     MW 9656   8.470   5.037   1.412  0.4019 -0.2591  0.0297
 2415SOL     OW 9657   9.281   6.942   0.666 -0.2357 -0.5276  0.6837
 2415SOL    HW1 9658   9.319   6.929   0.579 -0.2033 -3.2450  1.0196
 2415SOL    HW2 9659   9.186   6.948   0.650 -0.1434  0.3737  0.3824
 2415SOL     MW 9660   9.274   6.941   0.653 -0.2198 -0.7601  0.6881
 2416SOL     OW 9661   8.579   0.224   1.654  0.2714  0.4126 -0.1420
 2416SOL    HW1 9662   8.616   0.288   1.592 -0.3543  0.9452  0.0304
 2416SOL    HW2 9663   8.656   0.191   1.701  0.6682  0.6018 -0.6372
 2416SOL     MW 9664   8.594   0.228   1.652  0.2421  0.5050 -0.1833
 2417SOL     OW 9665   8.267   5.437   1.124  0.1212  0.0804  0.3063
 2417SOL    HW1 9666   8.188   5.473   1.084  0.6747  1.2091  0.2053
 2417SOL    HW2 9667   8.301   5.374   1.059 -0.4751 -0.1258  0.1924
 2417SOL     MW 9668   8.261   5.433   1.110  0.1157  0.1985  0.2788
 2418SOL     OW 9669   6.974   8.984   9.053 -0.3533  0.4344 -0.2031
 2418SOL    HW1 9670   6.993   8.948   9.140  0.9930  1.8930  0.1593
 2418SOL    HW2 9671   6.893   9.033   9.065 -0.4154  0.2658  0.1096
 2418SOL     MW 9672   6.966   8.985   9.066 -0.1889  0.5995 -0.1167
 2419SOL     OW 9673   8.031   0.614   9.770 -0.2706  0.2188 -0.0345
 2419SOL    HW1 9674   8.075   0.609   9.686  0.7139  3.1164  0.1727
 2419SOL    HW2 9675   7.943   0.582   9.754 -0.0168  0.4557 -2.1066
 2419SOL     MW 9676   8.025   0.609   9.757 -0.1121  0.6201 -0.2732
 2420SOL     OW 9677   7.679   7.975   2.237 -0.2073  0.0147 -0.1058
 2420SOL    HW1 9678   7.602   8.024   2.268 -0.6015 -1.4789  1.3955
 2420SOL    HW2 9679   7.746   8.042   2.226 -1.5695  1.2961 -1.0228
 2420SOL     MW 9680   7.678   7.990   2.239 -0.4321 -0.0125 -0.0310
 2421SOL     OW 9681   8.532   0.448   2.472  0.6399  0.3330  0.3531
 2421SOL    HW1 9682   8.577   0.439   2.556  0.2951  1.8402  0.7293
 2421SOL    HW2 9683   8.486   0.365   2.461 -0.0730  0.4246  2.1400
 2421SOL     MW 9684   8.532   0.436   2.482  0.5045  0.5377  0.6300
 2422SOL     OW 9685  10.126   7.088   0.655  0.8902 -0.1545 -0.1946
 2422SOL    HW1 9686  10.154   7.102   0.745 -1.1765  2.1429  0.1902
 2422SOL    HW2 9687  10.189   7.136   0.602  2.6062 -2.1977 -0.1333
 2422SOL     MW 9688  10.138   7.096   0.660  0.8453 -0.1220 -0.1375
 2423SOL     OW 9689   9.727   6.995   0.218 -0.1712  0.3752  0.0966
 2423SOL    HW1 9690   9.653   6.997   0.279 -0.8130 -1.9836 -0.4986
 2423SOL    HW2 9691   9.686   6.995   0.131  0.4299 -1.7113 -0.2335
 2423SOL     MW 9692   9.712   6.995   0.214 -0.1764 -0.1939 -0.0219
 2424SOL     OW 9693   7.820   1.974   0.243 -0.0169  0.2221  0.2688
 2424SOL    HW1 9694   7.749   1.986   0.305  1.7632  0.0577  2.4866
 2424SOL    HW2 9695   7.896   1.954   0.298  2.1770  2.1883 -1.8180
 2424SOL     MW 9696   7.821   1.973   0.258  0.4918  0.4528  0.2856
 2425SOL     OW 9697   7.917   0.957   2.565 -1.0671 -0.4049  0.1387
 2425SOL    HW1 9698   7.933   0.871   2.524  1.4109 -0.4769  1.0665
 2425SOL    HW2 9699   7.967   1.018   2.511 -0.3463 -0.0352  1.2008
 2425SOL     MW 9700   7.926   0.954   2.553 -0.6576 -0.3668  0.3935
 2426SOL     OW 9701   7.259   7.112   1.255 -0.0938  0.0221 -0.0187
 2426SOL    HW1 9702   7.312   7.154   1.187  1.4538  0.7219  1.5163
 2426SOL    HW2 9703   7.194   7.178   1.278 -2.4205 -1.1918 -2.5863
 2426SOL     MW 9704   7.257   7.126   1.249 -0.1935 -0.0437 -0.1509
 2427SOL     OW 9705   7.749   0.184   8.987 -0.2175  0.3690 -0.0326
 2427SOL    HW1 9706   7.836   0.180   9.026  0.0320  0.2630 -0.5983
 2427SOL    HW2 9707   7.730   0.277   8.981 -0.2010  0.3900  0.2070
 2427SOL     MW 9708   7.758   0.195   8.991 -0.1834  0.3581 -0.0743
 2428SOL     OW 9709   8.307   7.875   1.705 -0.1568 -0.2244 -0.3929
 2428SOL    HW1 9710   8.372   7.807   1.720  0.6602  0.5544 -0.2708
 2428SOL    HW2 9711   8.346   7.930   1.637  0.1079  1.2230  0.8583
 2428SOL     MW 9712   8.321   7.874   1.698 -0.0183  0.0606 -0.2171
 2429SOL     OW 9713   8.693   4.586   9.429 -0.0079  0.1943  0.1187
 2429SOL    HW1 9714   8.616   4.598   9.373 -0.0725  0.6459  0.2986
 2429SOL    HW2 9715   8.750   4.527   9.379 -0.2650  0.2258 -0.2192
 2429SOL     MW 9716   8.690   4.580   9.415 -0.0491  0.2561  0.0984
 2430SOL     OW 9717   8.444   3.392   9.500 -0.3980 -0.9945 -0.0322
 2430SOL    HW1 9718   8.450   3.484   9.472 -2.8177 -0.3532  1.2202
 2430SOL    HW2 9719   8.455   3.342   9.419 -1.4120  0.5235 -1.1836
 2430SOL     MW 9720   8.446   3.397   9.486 -0.8375 -0.7181 -0.0193
 2431SOL     OW 9721   8.918   4.249   2.620 -0.1186  0.4792  0.3034
 2431SOL    HW1 9722   8.953   4.165   2.650 -1.6631 -1.3191 -2.4639
 2431SOL    HW2 9723   8.836   4.259   2.669 -0.8858 -0.6674 -0.6802
 2431SOL     MW 9724   8.912   4.239   2.631 -0.4145  0.1022 -0.1768
 2432SOL     OW 9725   9.985   3.117   1.205 -0.4694  0.1782  0.4267
 2432SOL    HW1 9726  10.025   3.073   1.280  1.9133 -0.6806 -1.2252
 2432SOL    HW2 9727  10.037   3.196   1.193 -1.4329  0.8034  0.2105
 2432SOL     MW 9728   9.997   3.121   1.213 -0.2877  0.1483  0.1876
 2433SOL     OW 9729   8.043   9.959   9.971 -0.6104  0.2737 -0.5750
 2433SOL    HW1 9730   8.138   9.964   9.973 -0.6632  2.9691  1.0971
 2433SOL    HW2 9731   8.018  10.001   9.889 -0.3351  1.9052  0.1330
 2433SOL     MW 9732   8.052   9.965   9.961 -0.5819  0.8276 -0.2703
 2434SOL     OW 9733   8.083   2.390   2.237  0.2702  0.2425  0.2327
 2434SOL    HW1 9734   8.143   2.321   2.208 -0.8844 -0.5303 -0.3973
 2434SOL    HW2 9735   7.997   2.362   2.206 -0.1589  2.2894 -0.6289
 2434SOL     MW 9736   8.080   2.378   2.230  0.0675  0.4056  0.0418
 2435SOL     OW 9737   9.203   9.167   9.178  0.2100  0.2849 -0.5257
 2435SOL    HW1 9738   9.168   9.113   9.249  0.7096 -0.1886 -0.6286
 2435SOL    HW2 9739   9.251   9.237   9.222 -0.8052  0.9125 -0.3852
 2435SOL     MW 9740   9.205   9.169   9.193  0.1440  0.3047 -0.5209
 2436SOL     OW 9741   7.833   3.887   2.085 -0.1398 -0.0711  0.0874
 2436SOL    HW1 9742   7.758   3.944   2.102 -0.5302 -0.3275 -0.7162
 2436SOL    HW2 9743   7.803   3.799   2.108  0.5191  0.0434  1.4954
 2436SOL     MW 9744   7.820   3.883   2.090 -0.1055 -0.0893  0.1648
 2437SOL     OW 9745   8.782   3.594   1.076 -0.0467 -0.4162  0.3887
 2437SOL    HW1 9746   8.878   3.598   1.080 -0.0940 -0.0141  1.8453
 2437SOL    HW2 9747   8.753   3.645   1.152 -1.4235 -0.3245 -0.1746
 2437SOL     MW 9748   8.791   3.601   1.086 -0.2290 -0.3530  0.5030
 2438SOL     OW 9749   7.740   9.506   9.586  0.1824 -0.0163  0.3076
 2438SOL    HW1 9750   7.736   9.430   9.528  1.4021  0.1359 -0.0054
 2438SOL    HW2 9751   7.782   9.474   9.666 -1.7126 -0.2854  1.2750
 2438SOL     MW 9752   7.745   9.492   9.589  0.0960 -0.0312  0.3914
 2439SOL     OW 9753   6.903   9.678   1.557 -0.6056 -0.3472  1.0688
 2439SOL    HW1 9754   6.836   9.669   1.490  0.9104  0.9659 -0.7251
 2439SOL    HW2 9755   6.985   9.654   1.514  0.3720  0.0906  2.5798
 2439SOL     MW 9756   6.905   9.674   1.543 -0.2864 -0.1231  1.0326
 2440SOL     OW 9757   9.197   1.920   0.288 -0.5345 -0.5010  0.8111
 2440SOL    HW1 9758   9.158   1.988   0.232  0.6861 -0.3375  0.1357
 2440SOL    HW2 9759   9.210   1.846   0.230 -2.1689 -1.4952  1.6186
 2440SOL     MW 9760   9.193   1.920   0.273 -0.5874 -0.6073  0.8280
 2441SOL     OW 9761   7.006   9.593   0.224  0.0918  0.4271  0.0124
 2441SOL    HW1 9762   7.053   9.670   0.255  0.5132  0.6156 -1.0702
 2441SOL    HW2 9763   7.048   9.519   0.268 -0.2201  0.7858  0.9411
 2441SOL     MW 9764   7.017   9.593   0.234  0.1058  0.4971 -0.0073
 2442SOL     OW 9765   9.689   9.756   1.578  0.0338  0.0748  0.0989
 2442SOL    HW1 9766   9.758   9.717   1.525  0.2152 -0.8749  1.0066
 2442SOL    HW2 9767   9.732   9.829   1.624  0.2447 -0.0446  0.0893
 2442SOL     MW 9768   9.703   9.760   1.577  0.0840 -0.0621  0.2139
 2443SOL     OW 9769   7.168   2.100   0.753  0.2742 -0.2569  0.0071
 2443SOL    HW1 9770   7.093   2.111   0.811  1.2347 -0.2806  1.3095
 2443SOL    HW2 9771   7.234   2.056   0.807  1.0407 -0.7262 -1.2579
 2443SOL     MW 9772   7.167   2.096   0.767  0.4952 -0.3200  0.0119
 2444SOL     OW 9773   0.133   8.408   1.053  0.7314 -0.3404 -0.6918
 2444SOL    HW1 9774   0.181   8.459   1.119  0.0818  0.4414 -0.8026
 2444SOL    HW2 9775   0.098   8.474   0.993  0.1944 -0.9540 -1.0662
 2444SOL     MW 9776   0.135   8.423   1.054  0.5795 -0.3189 -0.7539
 2445SOL     OW 9777   8.532   3.993   2.555 -0.0025  0.1462  0.2090
 2445SOL    HW1 9778   8.594   4.045   2.505 -0.6426 -0.1247 -0.8962
 2445SOL    HW2 9779   8.583   3.920   2.590  0.2262 -0.3174 -1.0545
 2445SOL     MW 9780   8.546   3.990   2.553 -0.0551  0.0522 -0.0943
 2446SOL     OW 9781   7.732   8.315   2.761 -0.2382 -0.9086  0.3499
 2446SOL    HW1 9782   7.753   8.393   2.813 -0.5430 -1.4889  1.3838
 2446SOL    HW2 9783   7.645   8.332   2.727 -0.4099 -0.8945  0.7858
 2446SOL     MW 9784   7.724   8.327   2.764 -0.2992 -0.9811  0.5381
 2447SOL     OW 9785   9.864   3.753   0.398 -0.2211  0.5052 -0.8937
 2447SOL    HW1 9786   9.793   3.700   0.363 -1.3861  1.1723  0.3569
 2447SOL    HW2 9787   9.855   3.745   0.493 -0.9481  3.4975 -0.6049
 2447SOL     MW 9788   9.854   3.745   0.406 -0.4633  0.9737 -0.6966
 2448SOL     OW 9789   6.720   0.313   0.162  0.5829 -0.0626  0.2426
 2448SOL    HW1 9790   6.803   0.361   0.160  0.6897 -0.1928  1.3876
 2448SOL    HW2 9791   6.729   0.251   0.234 -0.3314 -0.4098  0.0740
 2448SOL     MW 9792   6.732   0.311   0.171  0.4796 -0.1237  0.3676
 2449SOL     OW 9793   6.850   5.684   1.979  0.0839 -0.4794 -0.7255
 2449SOL    HW1 9794   6.774   5.701   1.922  1.4163  1.6995 -1.9688
 2449SOL    HW2 9795   6.897   5.613   1.934 -0.4356 -0.8421 -0.7145
 2449SOL     MW 9796   6.846   5.677   1.966  0.1880 -0.2469 -0.8832
 2450SOL     OW 9797   9.131  10.032   2.976 -0.2565  0.7146  0.4033
 2450SOL    HW1 9798   9.044  10.019   3.015 -0.3286  2.2333  0.8196
 2450SOL    HW2 9799   9.113  10.059   2.886 -0.2894  2.2499  0.8460
 2450SOL     MW 9800   9.117  10.033   2.970 -0.2699  1.1056  0.5133
 2451SOL     OW 9801   7.043   5.485   0.175 -0.2650 -0.0285  0.8549
 2451SOL    HW1 9802   7.049   5.458   0.267  3.2368 -0.6796  0.5708
 2451SOL    HW2 9803   7.050   5.580   0.177 -1.4897  0.0725  1.2800
 2451SOL     MW 9804   7.045   5.494   0.187  0.0265 -0.0989  0.8730
 2452SOL     OW 9805   0.324   4.610   9.719  0.5837  0.2258  0.6091
 2452SOL    HW1 9806   0.264   4.593   9.791  0.0988  1.0992  0.4216
 2452SOL    HW2 9807   0.403   4.560   9.741  0.5881  0.7644  1.9321
 2452SOL     MW 9808   0.327   4.602   9.731  0.5222  0.4065  0.7545
 2453SOL     OW 9809   9.747   7.693   0.065  0.0069 -0.2932 -0.9107
 2453SOL    HW1 9810   9.688   7.617   0.059  0.7159 -0.8453 -1.0177
 2453SOL    HW2 9811   9.797   7.678   0.146 -1.4671  1.2613  0.3510
 2453SOL     MW 9812   9.746   7.681   0.075 -0.0911 -0.1649 -0.7629
 2454SOL     OW 9813   9.786   1.693   1.742  0.0214 -0.0223  0.5616
 2454SOL    HW1 9814   9.691   1.693   1.731 -0.0263 -0.6429  0.9429
 2454SOL    HW2 9815   9.810   1.601   1.745  0.5325  0.1266  1.3539
 2454SOL     MW 9816   9.777   1.681   1.741  0.0807 -0.0827  0.7118
 2455SOL     OW 9817   6.954   4.316   0.807  0.3957 -0.1182  0.1781
 2455SOL    HW1 9818   6.926   4.235   0.849 -0.4437  1.1041  2.1428
 2455SOL    HW2 9819   6.877   4.347   0.760  0.2171  0.3049  0.7358
 2455SOL     MW 9820   6.941   4.310   0.807  0.2654  0.0924  0.5010
 2456SOL     OW 9821   7.736   4.189   9.920  0.2466  0.1734 -0.4288
 2456SOL    HW1 9822   7.735   4.096   9.898  0.0129 -0.2463  1.2017
 2456SOL    HW2 9823   7.755   4.191  10.013  1.4842  1.8405 -0.6809
 2456SOL     MW 9824   7.738   4.178   9.929  0.3751  0.3331 -0.2523
 2457SOL     OW 9825  10.099   3.940   1.834 -0.2085 -0.7222 -0.5828
 2457SOL    HW1 9826  10.147   3.860   1.856  0.2854 -0.6955 -1.5197
 2457SOL    HW2 9827  10.009   3.911   1.820 -0.3776 -0.8555  0.6397
 2457SOL     MW 9828  10.094   3.926   1.835 -0.1669 -0.7358 -0.5463
 2458SOL     OW 9829   9.893   1.373   2.710 -0.5779  0.2125 -0.6751
 2458SOL    HW1 9830   9.859   1.445   2.763  0.8868  0.4587 -0.0430
 2458SOL    HW2 9831   9.891   1.407   2.620 -0.7434  0.6995 -0.4895
 2458SOL     MW 9832   9.888   1.387   2.705 -0.4116  0.3064 -0.5704
 2459SOL     OW 9833   0.137   4.589   9.929 -0.3446  0.0056 -0.2717
 2459SOL    HW1 9834   0.162   4.659   9.989  0.5701 -0.3766 -0.1989
 2459SOL    HW2 9835   0.060   4.624   9.883  0.2740  1.1799 -0.4537
 2459SOL     MW 9836   0.130   4.602   9.931 -0.1483  0.1070 -0.2857
 2460SOL     OW 9837   8.389   9.066   3.347 -0.2991 -0.3025  0.7529
 2460SOL    HW1 9838   8.463   9.109   3.390  1.4455 -1.0124 -1.3403
 2460SOL    HW2 9839   8.429   8.996   3.295 -2.2330  0.3401 -1.7900
 2460SOL     MW 9840   8.404   9.062   3.346 -0.3233 -0.3111  0.1594
 2461SOL     OW 9841   9.170   0.673   0.825  0.3806  0.1526  0.1953
 2461SOL    HW1 9842   9.111   0.599   0.807 -0.6111  0.8767  0.3760
 2461SOL    HW2 9843   9.257   0.637   0.813 -0.0976 -0.9230 -0.2195
 2461SOL     MW 9844   9.173   0.659   0.821  0.1924  0.1076  0.1653
 2462SOL     OW 9845   9.381   0.953   2.498  0.2101 -0.4626 -0.1057
 2462SOL    HW1 9846   9.402   1.039   2.532  0.5952 -0.7253  0.3361
 2462SOL    HW2 9847   9.464   0.905   2.501  0.3724 -0.3323 -1.9257
 2462SOL     MW 9848   9.394   0.958   2.503  0.2802 -0.4795 -0.2821
 2463SOL     OW 9849   8.220   4.141   2.516  0.0900 -0.0707 -0.0862
 2463SOL    HW1 9850   8.137   4.116   2.555  0.0241  1.1857  0.6341
 2463SOL    HW2 9851   8.250   4.063   2.469 -0.8932 -0.9118  0.6639
 2463SOL     MW 9852   8.213   4.128   2.515 -0.0443 -0.0176  0.1020
 2464SOL     OW 9853   9.247   8.661   2.490 -0.1963 -0.3199 -0.2403
 2464SOL    HW1 9854   9.301   8.604   2.435  0.5825 -1.8605  1.9670
 2464SOL    HW2 9855   9.166   8.612   2.504  0.4039 -0.9048  1.5208
 2464SOL     MW 9856   9.244   8.648   2.485 -0.0198 -0.5920  0.2677
 2465SOL     OW 9857   6.307   5.890   0.980  0.7229  0.4401 -0.5430
 2465SOL    HW1 9858   6.301   5.861   1.071 -1.7772 -0.6064 -0.9392
 2465SOL    HW2 9859   6.220   5.926   0.961  0.7379 -0.5610 -2.8407
 2465SOL     MW 9860   6.295   5.891   0.989  0.4048  0.1780 -0.8878
 2466SOL     OW 9861   8.146   7.921  10.109  0.2044 -0.3924 -0.1379
 2466SOL    HW1 9862   8.104   7.837  10.089  0.4839 -0.4649 -0.4249
 2466SOL    HW2 9863   8.235   7.898  10.135  0.3906 -0.1646 -0.5532
 2466SOL     MW 9864   8.152   7.907  10.110  0.2640 -0.3725 -0.2278
 2467SOL     OW 9865   9.873   7.872  10.057  0.5059 -0.3085  0.2263
 2467SOL    HW1 9866   9.881   7.950  10.112 -0.9285  0.4807 -0.6203
 2467SOL    HW2 9867   9.821   7.811  10.109 -1.1694  0.5756 -0.3358
 2467SOL     MW 9868   9.868   7.875  10.071  0.1078 -0.0943  0.0460
 2468SOL     OW 9869   8.325   8.541   2.793 -0.8221 -0.0701  0.3112
 2468SOL    HW1 9870   8.386   8.467   2.789 -0.2583  0.2610  1.8823
 2468SOL    HW2 9871   8.264   8.527   2.720  0.3129 -1.1377 -0.4632
 2468SOL     MW 9872   8.325   8.530   2.783 -0.6047 -0.1644  0.4132
 2469SOL     OW 9873   9.280   1.342   1.179 -0.3760  0.2037  0.1670
 2469SOL    HW1 9874   9.348   1.318   1.242  0.6994  1.6585 -0.3890
 2469SOL    HW2 9875   9.230   1.261   1.166  1.7437 -1.1523 -0.0269
 2469SOL     MW 9876   9.283   1.328   1.185  0.0330  0.2163  0.0710
 2470SOL     OW 9877   8.507   3.868   1.280 -0.7975 -0.3476 -0.0213
 2470SOL    HW1 9878   8.512   3.935   1.212 -0.7067 -1.5575 -1.2557
 2470SOL    HW2 9879   8.488   3.917   1.361 -0.6800  1.1489 -0.8603
 2470SOL     MW 9880   8.505   3.883   1.282 -0.7708 -0.3109 -0.2868
 2471SOL     OW 9881   8.927   7.810   0.143 -0.6641 -0.3014 -0.3280
 2471SOL    HW1 9882   9.004   7.866   0.130  1.1198 -1.9015  2.4199
 2471SOL    HW2 9883   8.924   7.755   0.065  0.3305  0.4796 -0.9409
 2471SOL     MW 9884   8.936   7.810   0.132 -0.3084 -0.4063 -0.0547
 2472SOL     OW 9885   6.596   4.892   1.161 -0.1413  0.6082  0.2136
 2472SOL    HW1 9886   6.538   4.860   1.230  1.2987 -1.7956  0.4255
 2472SOL    HW2 9887   6.619   4.981   1.188  0.5401 -0.3242  2.9900
 2472SOL     MW 9888   6.592   4.899   1.173  0.1303  0.1811  0.5962
 2473SOL     OW 9889   6.405   3.431   1.153 -0.3431 -0.2090  0.0516
 2473SOL    HW1 9890   6.494   3.401   1.136 -0.5344 -0.8227  0.0915
 2473SOL    HW2 9891   6.397   3.429   1.249  0.0464  1.1965  0.1345
 2473SOL     MW 9892   6.415   3.427   1.163 -0.3177 -0.1076  0.0673
 2474SOL     OW 9893   6.234   0.154   0.931  0.0141  0.0940  0.2365
 2474SOL    HW1 9894   6.223   0.092   0.859  0.6577 -0.6796  0.7746
 2474SOL    HW2 9895   6.270   0.232   0.890 -1.7703  0.5050 -0.6071
 2474SOL     MW 9896   6.237   0.156   0.917 -0.1320  0.0476  0.1974
 2475SOL     OW 9897   7.922   6.959   0.749 -0.2912 -0.1173  0.0357
 2475SOL    HW1 9898   7.922   7.032   0.687 -0.3082 -0.1928 -0.0526
 2475SOL    HW2 9899   7.840   6.968   0.798 -0.4162 -0.2285 -0.1524
 2475SOL     MW 9900   7.911   6.969   0.747 -0.3094 -0.1412  0.0003
 2476SOL     OW 9901   9.544   1.298   2.179 -0.2680  0.3117  0.0141
 2476SOL    HW1 9902   9.451   1.306   2.198 -0.2517  1.7589 -0.4116
 2476SOL    HW2 9903   9.550   1.308   2.084  0.4057  1.1329  0.1383
 2476SOL     MW 9904   9.533   1.300   2.169 -0.1796  0.6021 -0.0245
 2477SOL     OW 9905   7.283   6.506   0.314  0.3416  0.3750  0.2538
 2477SOL    HW1 9906   7.254   6.416   0.295  0.2692  0.7393 -1.4962
 2477SOL    HW2 9907   7.370   6.495   0.353  0.0069 -0.4889  0.7837
 2477SOL     MW 9908   7.290   6.493   0.316  0.2895  0.3111  0.0976
 2478SOL     OW 9909   9.439   5.897   1.104  0.0523 -0.5834  0.2164
 2478SOL    HW1 9910   9.359   5.886   1.052 -0.8737  0.1225  1.4497
 2478SOL    HW2 9911   9.439   5.822   1.164  2.2369 -2.6253 -2.0876
 2478SOL     MW 9912   9.428   5.886   1.105  0.2134 -0.7544  0.0794
 2479SOL     OW 9913   7.003   0.458   2.389 -0.2053 -0.2001  0.8734
 2479SOL    HW1 9914   7.012   0.450   2.294  0.4285  1.2803  0.7791
 2479SOL    HW2 9915   6.910   0.476   2.403 -0.1667  0.3166  0.4711
 2479SOL     MW 9916   6.993   0.459   2.379 -0.1193  0.0556  0.8098
 2480SOL     OW 9917   7.052   1.003   2.558  0.0922 -0.3472 -0.4238
 2480SOL    HW1 9918   7.075   1.086   2.516 -0.2338 -0.3578 -0.6289
 2480SOL    HW2 9919   7.125   0.945   2.538  0.5667  0.0441  0.1649
 2480SOL     MW 9920   7.064   1.006   2.550  0.1112 -0.2985 -0.3747
 2481SOL     OW 9921   9.942   4.256   0.794  0.0234 -0.3153 -0.2401
 2481SOL    HW1 9922   9.997   4.334   0.792 -0.8631  0.3054 -1.0836
 2481SOL    HW2 9923   9.900   4.253   0.708 -0.9786 -0.9720  0.2506
 2481SOL     MW 9924   9.943   4.265   0.783 -0.2183 -0.3199 -0.2853
 2482SOL     OW 9925   7.832   0.840  10.142  0.2057 -0.6404  0.1651
 2482SOL    HW1 9926   7.816   0.933  10.124 -0.3897 -0.6470  0.5956
 2482SOL    HW2 9927   7.895   0.840  10.214  1.3035 -0.5975 -0.7655
 2482SOL     MW 9928   7.838   0.852  10.149  0.2700 -0.6357  0.1011
 2483SOL     OW 9929   9.277   5.581   2.574 -0.4766  0.3818 -0.0705
 2483SOL    HW1 9930   9.272   5.493   2.537  2.3065  0.1692 -0.1794
 2483SOL    HW2 9931   9.304   5.636   2.500 -0.0701  0.9237  0.4770
 2483SOL     MW 9932   9.280   5.577   2.560 -0.0683  0.4239 -0.0143
 2484SOL     OW 9933   8.308   8.275   9.158 -0.6216 -0.2064 -0.3618
 2484SOL    HW1 9934   8.365   8.352   9.155 -1.1395  0.2642  1.0669
 2484SOL    HW2 9935   8.340   8.225   9.233 -1.3814 -0.4819 -0.2103
 2484SOL     MW 9936   8.319   8.279   9.168 -0.7851 -0.1814 -0.1595
 2485SOL     OW 9937   7.595   5.078   9.929 -0.1450 -0.2142 -0.3940
 2485SOL    HW1 9938   7.648   5.153   9.903 -0.2334  0.2875  0.8451
 2485SOL    HW2 9939   7.529   5.070   9.860 -0.6142  1.3209 -0.1492
 2485SOL     MW 9940   7.594   5.086   9.917 -0.2164  0.0465 -0.2040
 2486SOL     OW 9941   7.978   1.057   2.164 -0.1301  0.1918  0.0816
 2486SOL    HW1 9942   7.927   1.121   2.113 -0.6215 -0.1244  0.1692
 2486SOL    HW2 9943   8.059   1.046   2.114  0.6474  2.0288  0.8425
 2486SOL     MW 9944   7.982   1.064   2.151 -0.0935  0.3865  0.1902
 2487SOL     OW 9945   6.732   9.546   1.722 -0.1745 -0.4544  0.3997
 2487SOL    HW1 9946   6.782   9.604   1.664  0.2314  0.2300  1.4106
 2487SOL    HW2 9947   6.798   9.487   1.758 -0.5574 -1.4513 -0.4719
 2487SOL     MW 9948   6.747   9.546   1.719 -0.1716 -0.4944  0.4176
 2488SOL     OW 9949   8.062   5.428   0.704 -0.2247 -0.6319 -0.3031
 2488SOL    HW1 9950   8.047   5.472   0.787  0.1348  0.1708 -0.6525
 2488SOL    HW2 9951   8.157   5.422   0.697 -0.2230  0.1885 -1.1019
 2488SOL     MW 9952   8.072   5.433   0.714 -0.1785 -0.4241 -0.4501
 2489SOL     OW 9953   7.325   9.326   0.714 -0.1365 -0.2453  0.0775
 2489SOL    HW1 9954   7.325   9.231   0.721  0.9867 -0.2133  0.8533
 2489SOL    HW2 9955   7.280   9.356   0.793 -0.3748 -0.1244 -0.1024
 2489SOL     MW 9956   7.319   9.318   0.725 -0.0233 -0.2257  0.1538
 2490SOL     OW 9957   7.617   9.682   9.263 -0.5857  0.3830  0.0933
 2490SOL    HW1 9958   7.713   9.679   9.267 -0.6420 -0.9066  2.1345
 2490SOL    HW2 9959   7.598   9.763   9.216  1.4890 -0.0625 -1.6638
 2490SOL     MW 9960   7.627   9.692   9.258 -0.3273  0.1609  0.1297
 2491SOL     OW 9961   7.817   9.658   2.802 -0.0230 -0.0521 -0.5449
 2491SOL    HW1 9962   7.805   9.564   2.785  1.7246 -0.7414  1.5231
 2491SOL    HW2 9963   7.909   9.674   2.780  0.9134  0.1169  2.8904
 2491SOL     MW 9964   7.827   9.648   2.797  0.3206 -0.1187  0.1596
 2492SOL     OW 9965   9.550   0.606   1.028 -0.3131  0.0967 -0.1688
 2492SOL    HW1 9966   9.628   0.551   1.024 -0.2951 -0.1340  2.2509
 2492SOL    HW2 9967   9.583   0.693   1.052 -0.6796  0.3942 -0.7042
 2492SOL     MW 9968   9.564   0.610   1.030 -0.3578  0.1053  0.0724
 2493SOL     OW 9969   6.732   6.694   1.884 -0.6992 -0.5486  0.3766
 2493SOL    HW1 9970   6.736   6.723   1.793  2.0279 -0.1148  0.5404
 2493SOL    HW2 9971   6.666   6.749   1.924 -0.7902  0.3815 -0.9882
 2493SOL     MW 9972   6.724   6.705   1.877 -0.3617 -0.3740  0.2229
 2494SOL     OW 9973   8.614   6.735   9.983 -0.5304 -0.2483 -0.6210
 2494SOL    HW1 9974   8.556   6.774   9.918 -0.5853 -0.8170 -0.9197
 2494SOL    HW2 9975   8.695   6.716   9.936 -0.8393 -1.3811 -0.7430
 2494SOL     MW 9976   8.617   6.737   9.969 -0.5770 -0.4661 -0.6749
 2495SOL     OW 9977   6.783   4.556   1.483  0.2299 -0.6068 -0.0563
 2495SOL    HW1 9978   6.787   4.461   1.491 -0.2587 -0.6405 -0.1623
 2495SOL    HW2 9979   6.822   4.574   1.397 -1.8731 -0.9366 -1.1635
 2495SOL     MW 9980   6.788   4.546   1.473 -0.1019 -0.6533 -0.2116
 2496SOL     OW 9981   7.845   6.913  -0.009 -0.4863  0.4785  0.3861
 2496SOL    HW1 9982   7.878   6.997   0.022 -0.5707  0.6584 -0.0082
 2496SOL    HW2 9983   7.828   6.863   0.071  0.3723  0.5207  0.5974
 2496SOL     MW 9984   7.847   6.917   0.005 -0.3872  0.5069  0.3627
 2497SOL     OW 9985   9.767   5.938   0.211 -0.2347  0.2309 -0.2818
 2497SOL    HW1 9986   9.711   5.863   0.230 -0.2329  0.4028  0.4393
 2497SOL    HW2 9987   9.717   6.014   0.239 -0.8476  0.6553 -2.3680
 2497SOL     MW 9988   9.754   5.938   0.217 -0.3129  0.3073 -0.4565
 2498SOL     OW 9989   7.729   8.112  10.165 -0.5285  0.0998  0.1196
 2498SOL    HW1 9990   7.706   8.168  10.091 -1.0219  0.7933  0.7789
 2498SOL    HW2 9991   7.825   8.117  10.170 -0.6045  1.5511  0.6516
 2498SOL     MW 9992   7.739   8.120  10.157 -0.6014  0.3743  0.2721
 2499SOL     OW 9993   8.713   8.502   9.721  0.0067  0.0609  0.5650
 2499SOL    HW1 9994   8.729   8.593   9.697  0.5573  0.3756  2.0427
 2499SOL    HW2 9995   8.619   8.490   9.712  0.1458  0.1777 -1.5612
 2499SOL     MW 9996   8.703   8.512   9.717  0.0950  0.1162  0.4820
 2500SOL     OW 9997   9.065   3.632   1.957 -0.0567  0.1686  0.2012
 2500SOL    HW1 9998   9.104   3.662   1.875  0.0926  1.6883  0.8036
 2500SOL    HW2 9999   9.031   3.711   1.999 -2.9726 -0.9483  0.1816
 2500SOL     MW10000   9.066   3.646   1.952 -0.4108  0.2201  0.2758
 2501SOL     OW10001   8.477   7.602   2.925 -0.5176  0.1735 -0.3999
 2501SOL    HW110002   8.452   7.552   2.847  0.0118  0.0806 -0.5158
 2501SOL    HW210003   8.417   7.573   2.993 -1.7131  1.0641 -1.0525
 2501SOL     MW10004   8.466   7.592   2.924 -0.6029  0.2756 -0.4983
 2502SOL     OW10005   8.772   0.058   9.483 -0.2098  0.3440  0.4542
 2502SOL    HW110006   8.805   0.049   9.394  2.4459 -1.5108  1.5073
 2502SOL    HW210007   8.774   0.152   9.500 -0.6309  0.7129 -1.3622
 2502SOL     MW10008   8.776   0.069   9.474  0.0762  0.1538  0.3565
 2503SOL     OW10009   6.901   7.049  10.114  0.3393  0.0111  0.4259
 2503SOL    HW110010   6.935   7.120  10.059 -0.1644 -0.7091 -0.8583
 2503SOL    HW210011   6.886   6.977  10.053 -1.2824 -0.4553  1.3175
 2503SOL     MW10012   6.904   7.049  10.099  0.0672 -0.1408  0.3757
 2504SOL     OW10013   8.478   0.740   9.123  0.1285  0.1982 -0.4622
 2504SOL    HW110014   8.439   0.695   9.048  0.4532  0.0919 -0.5664
 2504SOL    HW210015   8.538   0.804   9.084  0.8952 -0.4013 -0.2780
 2504SOL     MW10016   8.480   0.743   9.109  0.2682  0.1079 -0.4519
 2505SOL     OW10017   8.009   9.264   0.310 -0.3853 -0.0819  0.3821
 2505SOL    HW110018   7.993   9.227   0.223  1.9104 -0.3204 -0.0037
 2505SOL    HW210019   7.951   9.215   0.368 -1.9519  0.0620 -0.9723
 2505SOL     MW10020   7.999   9.253   0.306 -0.2920 -0.0940  0.1593
 2506SOL     OW10021   8.087   4.962   0.115 -0.2483  0.2797 -0.2373
 2506SOL    HW110022   8.113   4.895   0.053 -0.7332  0.1456 -0.3009
 2506SOL    HW210023   8.097   5.044   0.068 -0.1233  0.2169 -0.3202
 2506SOL     MW10024   8.092   4.964   0.101 -0.2944  0.2545 -0.2561
 2507SOL     OW10025   0.200   5.434   0.859  0.2960 -0.5921  0.2472
 2507SOL    HW110026   0.254   5.495   0.909 -0.4829 -0.0748  0.4836
 2507SOL    HW210027   0.123   5.485   0.833  0.1025 -1.1974 -0.4230
 2507SOL     MW10028   0.197   5.448   0.862  0.1716 -0.6034  0.1917
 2508SOL     OW10029   8.464   6.647   1.628 -0.0227  0.0121 -0.3351
 2508SOL    HW110030   8.458   6.688   1.714  2.4534 -0.6308  0.2274
 2508SOL    HW210031   8.558   6.641   1.611 -0.3993 -1.6114 -2.2481
 2508SOL     MW10032   8.475   6.651   1.637  0.2460 -0.2781 -0.5080
 2509SOL     OW10033   9.675   8.346   1.778  0.2870 -0.0501  0.4806
 2509SOL    HW110034   9.606   8.287   1.748  2.4067 -1.8588 -1.1572
 2509SOL    HW210035   9.630   8.429   1.795 -2.0833 -0.7164 -1.8832
 2509SOL     MW10036   9.660   8.349   1.776  0.2549 -0.3669 -0.0316
 2510SOL     OW10037   8.876   8.067   0.978 -0.3999 -0.0293  0.2720
 2510SOL    HW110038   8.886   7.982   1.021  2.0155 -1.3308 -2.5134
 2510SOL    HW210039   8.958   8.113   0.996 -0.4421  0.4739 -0.7305
 2510SOL     MW10040   8.888   8.062   0.986 -0.0961 -0.1315 -0.2129
 2511SOL     OW10041   8.125   6.261   2.095  0.3280  0.1222  0.5530
 2511SOL    HW110042   8.095   6.255   2.186  0.9388 -0.9817  0.6904
 2511SOL    HW210043   8.212   6.299   2.101  1.3549 -2.1299  0.6546
 2511SOL     MW10044   8.132   6.265   2.107  0.5376 -0.3074  0.5836
 2512SOL     OW10045   7.230   5.108   1.842 -0.7346 -0.1530  0.7618
 2512SOL    HW110046   7.195   5.155   1.918  0.6027 -1.0124  1.9616
 2512SOL    HW210047   7.315   5.149   1.826 -0.6133 -0.5743  0.2924
 2512SOL     MW10048   7.236   5.119   1.850 -0.5479 -0.3169  0.8553
 2513SOL     OW10049   8.012   1.486   9.844  0.3572  0.7152  0.1698
 2513SOL    HW110050   8.070   1.526   9.910 -1.5672  1.7216  1.3482
 2513SOL    HW210051   7.930   1.533   9.853 -0.7497 -0.8211 -1.2824
 2513SOL     MW10052   8.009   1.497   9.854 -0.0309  0.6474  0.1348
 2514SOL     OW10053   9.856   8.823   2.652 -0.2271  0.0721 -0.4540
 2514SOL    HW110054   9.886   8.895   2.596 -0.9031  1.6352  1.0916
 2514SOL    HW210055   9.760   8.828   2.649 -0.2802 -0.6545 -0.1900
 2514SOL     MW10056   9.848   8.833   2.644 -0.3204  0.1792 -0.2224
 2515SOL     OW10057   8.319   0.143   1.386 -0.5057 -0.0747  0.3300
 2515SOL    HW110058   8.296   0.144   1.479 -1.4112 -0.3687  0.1183
 2515SOL    HW210059   8.275   0.066   1.351 -0.8168  0.4629 -0.4986
 2515SOL     MW10060   8.311   0.134   1.394 -0.6615 -0.0435  0.1968
 2516SOL     OW10061   0.310   2.178   1.691 -0.3824  0.4089  0.2763
 2516SOL    HW110062   0.364   2.250   1.657  0.5793 -0.4649 -0.0712
 2516SOL    HW210063   0.224   2.192   1.652 -0.2142  1.3827  0.2318
 2516SOL     MW10064   0.306   2.189   1.682 -0.2378  0.4217  0.2261
 2517SOL     OW10065   7.978   8.670   1.942 -0.0344  0.4412  0.0776
 2517SOL    HW110066   7.988   8.588   1.989 -1.2073  0.5273  0.4960
 2517SOL    HW210067   8.008   8.737   2.003  1.4596  0.3056 -0.4632
 2517SOL     MW10068   7.983   8.668   1.956  0.0067  0.4349  0.0619
 2518SOL     OW10069   9.144   9.505   2.225  0.4269 -0.4515 -0.4129
 2518SOL    HW110070   9.065   9.560   2.231  0.7762  0.0084  0.1046
 2518SOL    HW210071   9.178   9.503   2.314  1.5144  0.1274 -0.7984
 2518SOL     MW10072   9.138   9.512   2.237  0.6108 -0.3185 -0.3960
 2519SOL     OW10073   9.672   1.060   2.267  0.2876 -0.1025  0.4359
 2519SOL    HW110074   9.600   0.998   2.257  0.5161 -0.3258  0.1854
 2519SOL    HW210075   9.637   1.143   2.233 -0.5398  0.2942  2.1808
 2519SOL     MW10076   9.658   1.063   2.261  0.2109 -0.0803  0.6272
 2520SOL     OW10077   8.503   9.640   2.134 -0.1112  0.9603  0.1764
 2520SOL    HW110078   8.518   9.733   2.147 -1.6130  1.2665 -0.0880
 2520SOL    HW210079   8.485   9.631   2.040  1.5030  0.1612 -0.0876
 2520SOL     MW10080   8.503   9.650   2.124 -0.0968  0.8972  0.1087
 2521SOL     OW10081   8.042   4.502   9.236 -0.1296  0.1941  0.2257
 2521SOL    HW110082   8.026   4.575   9.297  0.9128  1.8242 -1.3410
 2521SOL    HW210083   7.969   4.443   9.250 -1.7588  2.1789  0.6613
 2521SOL     MW10084   8.031   4.504   9.246 -0.2047  0.6568  0.0809
 2522SOL     OW10085   8.001   0.460   0.285 -0.2176 -0.1622  0.4660
 2522SOL    HW110086   7.930   0.505   0.330  0.5643 -0.4136  2.0194
 2522SOL    HW210087   7.984   0.474   0.192 -0.8610  1.9580  0.8665
 2522SOL     MW10088   7.989   0.467   0.279 -0.1999  0.0770  0.7161
 2523SOL     OW10089   7.057   8.162   0.778 -0.5776  0.1997 -0.6181
 2523SOL    HW110090   7.120   8.139   0.710  2.3198  0.4224  1.8071
 2523SOL    HW210091   7.035   8.079   0.820 -0.1059  0.3746 -0.0158
 2523SOL     MW10092   7.062   8.148   0.775 -0.1463  0.2506 -0.2305
 2524SOL     OW10093   9.624   7.078  10.042  0.2927 -0.5551  0.4875
 2524SOL    HW110094   9.664   7.138   9.978 -0.0312 -1.5889 -0.7245
 2524SOL    HW210095   9.677   6.999  10.038  0.0212 -0.7820  1.2108
 2524SOL     MW10096   9.636   7.076  10.033  0.2165 -0.7165  0.4249
 2525SOL     OW10097   6.660   0.762   0.491  0.0404  0.6356 -0.2891
 2525SOL    HW110098   6.719   0.835   0.473 -0.1128  0.8056 -0.1015
 2525SOL    HW210099   6.605   0.756   0.413  1.5564 -0.7552 -1.3215
 2525SOL     MW10100   6.660   0.770   0.479  0.2148  0.4793 -0.3972
 2526SOL     OW10101   8.487   0.875   0.708  0.2848  0.3111 -0.2808
 2526SOL    HW110102   8.440   0.792   0.704  2.0304 -0.6819 -0.7237
 2526SOL    HW210103   8.568   0.861   0.659  0.9088  2.0849  0.1433
 2526SOL     MW10104   8.491   0.863   0.702  0.5881  0.4111 -0.2832
 2527SOL     OW10105   8.750   7.189   9.677 -0.0820  0.0377  0.1787
 2527SOL    HW110106   8.834   7.172   9.633 -1.0715 -0.6288 -1.5614
 2527SOL    HW210107   8.726   7.277   9.647 -1.0339 -0.6415 -1.1574
 2527SOL     MW10108   8.758   7.198   9.667 -0.3305 -0.1346 -0.2151
 2528SOL     OW10109   6.273   7.899   0.983  0.4043 -0.1997  0.0147
 2528SOL    HW110110   6.283   7.895   0.888  0.3826  1.4531 -0.0828
 2528SOL    HW210111   6.242   7.988   1.001 -0.3233 -0.7149  1.5140
 2528SOL     MW10112   6.271   7.910   0.973  0.3084 -0.0540  0.1941
 2529SOL     OW10113   8.345   0.742   9.724  0.1537  0.0004  0.4550
 2529SOL    HW110114   8.430   0.769   9.691  0.6871 -0.3999  1.4442
 2529SOL    HW210115   8.283   0.801   9.683  0.5615 -1.4011 -2.4611
 2529SOL     MW10116   8.348   0.753   9.715  0.2742 -0.2303  0.2084
 2530SOL     OW10117   6.812   7.646   1.108  0.0475  0.1204  0.3548
 2530SOL    HW110118   6.723   7.611   1.115  0.2979 -1.3184 -2.2931
 2530SOL    HW210119   6.817   7.678   1.018  2.2470  0.0703  0.4232
 2530SOL     MW10120   6.801   7.646   1.097  0.3611 -0.0702  0.0246
 2531SOL     OW10121   8.118   5.566   2.082  0.4568  0.4444  0.1135
 2531SOL    HW110122   8.103   5.568   1.988 -0.1269 -2.1420  0.0768
 2531SOL    HW210123   8.043   5.612   2.120 -1.4984 -1.9304 -0.5952
 2531SOL     MW10124   8.106   5.572   2.075  0.1318 -0.1907  0.0181
 2532SOL     OW10125   9.973   4.666   0.269 -0.0896  0.6420  0.0263
 2532SOL    HW110126  10.011   4.671   0.357  1.5884 -0.8870 -0.5586
 2532SOL    HW210127   9.929   4.581   0.267  0.2026  0.5008 -0.7110
 2532SOL     MW10128   9.972   4.656   0.280  0.1627  0.4282 -0.1430
 2533SOL     OW10129   8.385   9.980   1.609 -0.1107 -0.1047 -0.3351
 2533SOL    HW110130   8.461   9.956   1.556 -0.9852 -0.5676 -1.4286
 2533SOL    HW210131   8.419   9.990   1.697  1.3834  0.6015 -0.9638
 2533SOL     MW10132   8.399   9.978   1.613 -0.0314 -0.0735 -0.5556
 2534SOL     OW10133   7.482   0.445   1.116  0.1345  0.5376  0.3231
 2534SOL    HW110134   7.572   0.458   1.148  0.6924  0.1164 -0.9924
 2534SOL    HW210135   7.485   0.474   1.025 -0.6495 -0.9915 -0.2329
 2534SOL     MW10136   7.494   0.450   1.109  0.1056  0.2879  0.0835
 2535SOL     OW10137   0.422   0.249   0.648  0.4014  0.0389  0.4268
 2535SOL    HW110138   0.330   0.275   0.634  0.1183 -1.4409 -0.6356
 2535SOL    HW210139   0.471   0.306   0.589  0.3391  1.7613  1.9570
 2535SOL     MW10140   0.416   0.260   0.639  0.3572  0.0699  0.4867
 2536SOL     OW10141   8.453   0.489   0.530  0.3123  0.1956  0.3423
 2536SOL    HW110142   8.519   0.428   0.496  1.0393  0.8153  0.6367
 2536SOL    HW210143   8.453   0.561   0.467 -0.5548 -0.0880 -0.0086
 2536SOL     MW10144   8.461   0.490   0.517  0.2944  0.2386  0.3351
 2537SOL     OW10145   7.414   5.350   9.807 -0.8791 -0.2894  0.2919
 2537SOL    HW110146   7.414   5.256   9.791  0.0551  0.0174 -1.7192
 2537SOL    HW210147   7.504   5.371   9.832  0.1117  0.6140 -3.4012
 2537SOL     MW10148   7.425   5.341   9.809 -0.6327 -0.1345 -0.4383
 2538SOL     OW10149   8.655   5.887   9.724  0.3738  0.1068 -0.2140
 2538SOL    HW110150   8.586   5.844   9.674 -0.2677  0.7978  0.0627
 2538SOL    HW210151   8.694   5.817   9.776  0.7563 -0.5405 -1.3367
 2538SOL     MW10152   8.651   5.873   9.724  0.3406  0.1124 -0.3223
 2539SOL     OW10153   7.685   5.490   2.208 -0.0506  0.2928  0.4457
 2539SOL    HW110154   7.670   5.528   2.122  0.1131 -0.0830  0.2521
 2539SOL    HW210155   7.735   5.410   2.192 -0.3967 -0.0113  0.8499
 2539SOL     MW10156   7.689   5.485   2.195 -0.0740  0.2058  0.4727
 2540SOL     OW10157   8.121   5.086   0.462 -0.2699 -0.1314 -0.3702
 2540SOL    HW110158   8.104   5.174   0.428  0.3487  1.5396  3.2293
 2540SOL    HW210159   8.035   5.053   0.486 -0.4281 -0.2539 -1.0718
 2540SOL     MW10160   8.108   5.093   0.460 -0.2109  0.0668  0.0008
 2541SOL     OW10161   6.322   0.105   9.803 -0.0770  0.0607  0.1801
 2541SOL    HW110162   6.345   0.012   9.810 -2.3709 -0.4539  2.5521
 2541SOL    HW210163   6.380   0.148   9.864  2.0277  0.5173 -2.0050
 2541SOL     MW10164   6.332   0.098   9.812 -0.1012  0.0532  0.2041
 2542SOL     OW10165   9.261   0.208   2.576 -0.1570 -0.1319  0.5461
 2542SOL    HW110166   9.211   0.165   2.645 -1.6964 -0.2152 -0.5596
 2542SOL    HW210167   9.308   0.136   2.533  0.1647 -0.1851  0.9734
 2542SOL     MW10168   9.261   0.193   2.579 -0.3129 -0.1494  0.4593
 2543SOL     OW10169   9.110   6.320   1.105  0.3711  0.5559 -0.5755
 2543SOL    HW110170   9.052   6.284   1.039  1.5755 -2.4303 -0.1720
 2543SOL    HW210171   9.189   6.346   1.057  0.8977 -0.7891 -0.4852
 2543SOL     MW10172   9.113   6.318   1.091  0.5927  0.0015 -0.5123
 2544SOL     OW10173   6.860   6.761   1.605 -0.1545  0.7540 -0.1076
 2544SOL    HW110174   6.902   6.681   1.573 -1.6096 -0.7759  1.5986
 2544SOL    HW210175   6.930   6.810   1.647  1.2598  1.5873 -3.1434
 2544SOL     MW10176   6.874   6.757   1.606 -0.1597  0.6648 -0.2778
 2545SOL     OW10177   9.580   6.519   0.959  0.0862  0.2295  0.6390
 2545SOL    HW110178   9.598   6.579   0.886 -1.0466 -0.6259 -0.3979
 2545SOL    HW210179   9.625   6.438   0.934 -0.9481 -0.3140  0.4938
 2545SOL     MW10180   9.588   6.516   0.946 -0.1912  0.0505  0.4877
 2546SOL     OW10181   6.654   9.840   1.162  0.4283  0.0672  0.1221
 2546SOL    HW110182   6.712   9.893   1.106  0.1793  0.2878  0.0682
 2546SOL    HW210183   6.590   9.803   1.102  0.1912  0.2618  0.2498
 2546SOL     MW10184   6.653   9.842   1.147  0.3661  0.1203  0.1315
 2547SOL     OW10185   8.943   2.338   0.378  0.7562 -0.1195 -0.4206
 2547SOL    HW110186   8.925   2.248   0.406 -1.0632  0.8538  1.9160
 2547SOL    HW210187   9.039   2.345   0.378  0.9078 -1.8001  0.2805
 2547SOL     MW10188   8.953   2.327   0.381  0.5427 -0.2101 -0.0317
 2548SOL     OW10189   8.617   0.209   2.708 -0.0326  0.0651  0.2761
 2548SOL    HW110190   8.664   0.292   2.720  2.4075 -1.1160 -0.4278
 2548SOL    HW210191   8.565   0.199   2.787  1.7977  0.9645  1.6651
 2548SOL     MW10192   8.617   0.219   2.720  0.5141  0.0291  0.3638
 2549SOL     OW10193   7.432   8.894   1.010 -0.6271 -0.3916  0.3729
 2549SOL    HW110194   7.359   8.932   1.061 -0.8579  0.2447 -0.4141
 2549SOL    HW210195   7.403   8.898   0.919  0.5524  0.2445  0.0030
 2549SOL     MW10196   7.419   8.899   1.005 -0.5056 -0.2288  0.2248
 2550SOL     OW10197   7.240   9.902   8.917  0.0854 -0.0161 -0.2856
 2550SOL    HW110198   7.271   9.992   8.928 -1.3217  0.5117 -0.4307
 2550SOL    HW210199   7.150   9.904   8.951 -0.8792 -0.7402 -2.6345
 2550SOL     MW10200   7.232   9.914   8.923 -0.2182 -0.0413 -0.6049
 2551SOL     OW10201   6.972   7.343   1.763  0.6835  0.2421  0.4363
 2551SOL    HW110202   7.058   7.318   1.728  0.8621 -2.7325  2.5800
 2551SOL    HW210203   6.993   7.402   1.836  1.0031 -0.8917  1.2886
 2551SOL     MW10204   6.986   7.347   1.768  0.7472 -0.2838  0.8198
 2552SOL     OW10205   9.174   4.322   0.692  0.2061  0.1650 -0.1889
 2552SOL    HW110206   9.140   4.245   0.737  0.9020  0.7752  1.4502
 2552SOL    HW210207   9.099   4.355   0.641 -0.1309 -1.4877 -0.8276
 2552SOL     MW10208   9.160   4.316   0.691  0.2521  0.0316 -0.0608
 2553SOL     OW10209   6.485   5.705   1.487  1.0027 -0.0043 -0.6267
 2553SOL    HW110210   6.560   5.676   1.539  0.5145  0.4168  0.3483
 2553SOL    HW210211   6.448   5.777   1.538 -0.3229 -0.5014 -0.8519
 2553SOL     MW10212   6.490   5.711   1.500  0.7705 -0.0140 -0.5307
 2554SOL     OW10213   6.416   5.783   1.209 -0.2999 -0.4080  0.3692
 2554SOL    HW110214   6.413   5.726   1.286  0.0784  1.4011  1.7737
 2554SOL    HW210215   6.505   5.772   1.175 -0.4092 -1.0711  0.2729
 2554SOL     MW10216   6.427   5.774   1.215 -0.2654 -0.2613  0.5366
 2555SOL     OW10217   7.165   3.656   9.584  0.0929  0.7572  0.6680
 2555SOL    HW110218   7.178   3.738   9.630  2.2412 -0.1930  1.9249
 2555SOL    HW210219   7.200   3.672   9.496  2.5995  0.6377  1.5643
 2555SOL     MW10220   7.171   3.668   9.578  0.6888  0.6203  0.9436
 2556SOL     OW10221   9.078   2.309   9.878  0.1642  0.6453 -0.4011
 2556SOL    HW110222   9.017   2.251   9.924  0.5173  1.1758  0.7808
 2556SOL    HW210223   9.049   2.307   9.787  0.2535 -1.4860 -0.4251
 2556SOL     MW10224   9.066   2.301   9.873  0.2208  0.4403 -0.2529
 2557SOL     OW10225   8.726   3.267   1.885 -0.2053 -0.5216  0.3507
 2557SOL    HW110226   8.784   3.337   1.916  0.0962 -0.9614  0.7766
 2557SOL    HW210227   8.704   3.217   1.964  1.5843 -2.4251 -0.2870
 2557SOL     MW10228   8.731   3.270   1.899  0.0624 -0.8216  0.3236
 2558SOL     OW10229   7.281   7.499   2.575  0.3803 -0.4687 -0.2068
 2558SOL    HW110230   7.306   7.487   2.666 -0.8256 -0.0457  0.1981
 2558SOL    HW210231   7.185   7.494   2.575  0.1442  2.2343 -1.0062
 2558SOL     MW10232   7.272   7.497   2.586  0.1957 -0.0685 -0.2573
 2559SOL     OW10233   6.317   8.450   1.059 -0.3399 -0.2362  0.0079
 2559SOL    HW110234   6.357   8.460   0.972  1.1821 -1.3457  0.5240
 2559SOL    HW210235   6.325   8.536   1.099  1.1864 -0.3021 -0.0841
 2559SOL     MW10236   6.324   8.462   1.053  0.0503 -0.3866  0.0622
 2560SOL     OW10237   0.124   7.990   1.762 -0.4542  0.4101  0.1437
 2560SOL    HW110238   0.146   8.023   1.849 -1.8967  0.7549  0.4008
 2560SOL    HW210239   0.122   8.068   1.706 -0.8405  0.3617  0.0886
 2560SOL     MW10240   0.127   8.005   1.766 -0.6883  0.4481  0.1695
 2561SOL     OW10241   9.575   5.768   9.451  0.2827  0.0404 -0.2450
 2561SOL    HW110242   9.635   5.694   9.457  1.2135  0.6702 -1.4079
 2561SOL    HW210243   9.545   5.768   9.360 -1.4131 -0.1786  0.2739
 2561SOL     MW10244   9.579   5.758   9.440  0.1848  0.0930 -0.3274
 2562SOL     OW10245   6.391   0.409   1.744  0.5264  0.0661 -0.4096
 2562SOL    HW110246   6.427   0.478   1.799 -0.8193  1.4355 -1.1637
 2562SOL    HW210247   6.345   0.350   1.804 -0.2974  1.1335  0.0286
 2562SOL     MW10248   6.390   0.410   1.759  0.2487  0.3780 -0.4500
 2563SOL     OW10249   7.786   4.025   9.367 -0.3131  0.1274 -0.2391
 2563SOL    HW110250   7.696   3.994   9.370  0.4816 -2.2953  1.4037
 2563SOL    HW210251   7.832   3.961   9.313  0.5631  1.0363 -0.6191
 2563SOL     MW10252   7.780   4.013   9.361 -0.0992 -0.0664 -0.0774
 2564SOL     OW10253   7.206   0.220   8.906 -0.2525  0.0980  0.5233
 2564SOL    HW110254   7.160   0.239   8.824  0.2111  0.6886  0.3918
 2564SOL    HW210255   7.138   0.223   8.973 -0.7702 -1.1174  0.0829
 2564SOL     MW10256   7.191   0.222   8.904 -0.2594  0.0180  0.4501
 2565SOL     OW10257  10.122   6.459   1.505 -0.1666 -0.1685  0.1827
 2565SOL    HW110258  10.059   6.388   1.507 -0.4430  0.0394 -0.5967
 2565SOL    HW210259  10.193   6.426   1.449  0.0397 -0.1044  0.4059
 2565SOL     MW10260  10.123   6.446   1.498 -0.1756 -0.1337  0.1115
 2566SOL     OW10261   8.914   5.970   1.749  0.0750 -0.6241  0.2627
 2566SOL    HW110262   8.852   5.981   1.677  0.7262 -2.0883 -0.5806
 2566SOL    HW210263   8.872   5.907   1.808 -0.0413 -0.1683  0.6722
 2566SOL     MW10264   8.901   5.963   1.747  0.1435 -0.7532  0.2072
 2567SOL     OW10265   8.811   4.681   0.444  0.0225  0.1940  0.1737
 2567SOL    HW110266   8.780   4.607   0.391  1.5607  0.4069 -1.1145
 2567SOL    HW210267   8.866   4.731   0.384  0.4546  1.4008  1.5349
 2567SOL     MW10268   8.814   4.678   0.429  0.2747  0.3757  0.1830
 2568SOL     OW10269   9.559   5.139   1.504 -0.5777  1.0979 -0.8645
 2568SOL    HW110270   9.625   5.085   1.461 -0.4433  1.3210 -0.9440
 2568SOL    HW210271   9.589   5.147   1.594 -1.7929 -0.8825 -0.2155
 2568SOL     MW10272   9.571   5.133   1.510 -0.7161  0.8730 -0.7916
 2569SOL     OW10273   6.247   0.777   1.019  0.3652 -0.2570 -0.5765
 2569SOL    HW110274   6.249   0.713   1.090  0.8170 -1.4232 -1.6024
 2569SOL    HW210275   6.154   0.787   0.998  0.2829 -0.4882 -0.3255
 2569SOL     MW10276   6.235   0.770   1.025  0.4125 -0.4359 -0.6757
 2570SOL     OW10277  10.021   2.530   1.559 -0.0182 -0.5272  0.4859
 2570SOL    HW110278  10.035   2.565   1.646  0.7344 -0.7317  0.4554
 2570SOL    HW210279   9.926   2.517   1.553 -0.4989  2.4681  0.0939
 2570SOL     MW10280  10.010   2.532   1.569  0.0166 -0.1699  0.4318
 2571SOL     OW10281   9.197   1.978   0.789 -0.1098  0.6689 -0.4147
 2571SOL    HW110282   9.180   2.070   0.767 -0.0266  0.7022 -0.3409
 2571SOL    HW210283   9.123   1.931   0.753 -0.6855  0.8835  0.4675
 2571SOL     MW10284   9.186   1.984   0.782 -0.1728  0.7007 -0.2923
 2572SOL     OW10285   8.270   4.027   9.058 -0.1538 -0.3082 -0.3185
 2572SOL    HW110286   8.213   3.983   8.994 -0.5976  0.1796 -0.2686
 2572SOL    HW210287   8.319   3.956   9.099 -0.2031 -0.6714 -0.8739
 2572SOL     MW10288   8.269   4.012   9.055 -0.2169 -0.2923 -0.3832
 2573SOL     OW10289   8.201   7.915   2.330 -0.1665 -0.2965 -0.2742
 2573SOL    HW110290   8.268   7.931   2.263  0.8966  0.9539  1.0273
 2573SOL    HW210291   8.169   8.002   2.353  0.6463 -0.5413  1.9615
 2573SOL     MW10292   8.206   7.928   2.324  0.0736 -0.1678  0.1786
 2574SOL     OW10293   8.200   3.195   9.558 -0.5468  0.1161  0.1526
 2574SOL    HW110294   8.258   3.126   9.526 -0.9927 -0.3388  0.2953
 2574SOL    HW210295   8.217   3.199   9.652  0.3216  1.0279 -0.0222
 2574SOL     MW10296   8.209   3.187   9.566 -0.4927  0.1746  0.1485
 2575SOL     OW10297   7.132   5.814   9.717 -0.2071 -0.4978  0.1581
 2575SOL    HW110298   7.106   5.741   9.661 -0.3809 -1.5569  1.5768
 2575SOL    HW210299   7.108   5.786   9.805 -1.0113  1.6023  0.6644
 2575SOL     MW10300   7.125   5.801   9.721 -0.3323 -0.3645  0.4045
 2576SOL     OW10301   8.425   6.291   9.697  0.3403 -0.0915  0.0401
 2576SOL    HW110302   8.504   6.322   9.654 -1.2700  1.1591 -2.2178
 2576SOL    HW210303   8.416   6.200   9.669 -1.1238  0.9106 -3.2536
 2576SOL     MW10304   8.434   6.284   9.688 -0.0533  0.1968 -0.6706
 2577SOL     OW10305   8.284   3.819   9.760  0.0271 -0.4240  0.8168
 2577SOL    HW110306   8.246   3.907   9.763 -0.4749 -0.5568 -0.6240
 2577SOL    HW210307   8.215   3.765   9.722  0.4072 -1.4090  1.4878
 2577SOL     MW10308   8.270   3.824   9.755  0.0115 -0.5671  0.7183
 2578SOL     OW10309   7.670   2.536   1.687 -0.4149  0.1867  0.1955
 2578SOL    HW110310   7.695   2.566   1.600  0.5313  0.5436  0.5811
 2578SOL    HW210311   7.752   2.509   1.728 -0.9534 -0.7439  0.6932
 2578SOL     MW10312   7.684   2.537   1.681 -0.3627  0.1132  0.3085
 2579SOL     OW10313   7.402   9.553   9.228  0.1612  0.1719  0.2678
 2579SOL    HW110314   7.344   9.609   9.177 -0.6878 -0.4528  0.5279
 2579SOL    HW210315   7.485   9.599   9.229  0.2977  0.0498 -1.9357
 2579SOL     MW10316   7.405   9.566   9.222  0.0700  0.0763  0.0190
 2580SOL     OW10317   9.440   0.244   0.818  0.2319  0.3151 -0.5303
 2580SOL    HW110318   9.432   0.338   0.805 -1.0148  0.4259  0.8210
 2580SOL    HW210319   9.535   0.229   0.818  0.5798  1.9572  1.4954
 2580SOL     MW10320   9.451   0.254   0.817  0.1168  0.5395 -0.0980
 2581SOL     OW10321   7.138   9.958   1.570  0.1538 -0.1710  0.1481
 2581SOL    HW110322   7.197   9.916   1.632  0.5229 -0.1307 -0.1707
 2581SOL    HW210323   7.134   9.898   1.495 -0.8089 -0.5401  0.4753
 2581SOL     MW10324   7.145   9.945   1.568  0.0778 -0.2131  0.1492
 2582SOL     OW10325   7.837   6.932   2.410 -0.2043 -0.2398  0.2237
 2582SOL    HW110326   7.795   7.003   2.459 -2.4368  0.8169 -2.8778
 2582SOL    HW210327   7.830   6.959   2.318  1.8917 -2.9831 -0.8920
 2582SOL     MW10328   7.831   6.945   2.404 -0.2218 -0.4557 -0.3162
 2583SOL     OW10329   0.079   8.650   1.399 -0.0457 -0.5303 -0.1888
 2583SOL    HW110330   0.076   8.696   1.315 -1.7894  1.1173  0.7006
 2583SOL    HW210331   0.002   8.594   1.398 -0.1659 -0.3790  0.3729
 2583SOL     MW10332   0.069   8.649   1.388 -0.2843 -0.3000 -0.0030
 2584SOL     OW10333   6.629   6.898   9.874  0.0662  0.0017 -0.6516
 2584SOL    HW110334   6.709   6.850   9.896  0.7676  1.0859 -0.7513
 2584SOL    HW210335   6.619   6.885   9.780  0.6115  0.5480 -0.7946
 2584SOL     MW10336   6.638   6.890   9.865  0.2258  0.2104 -0.6827
 2585SOL     OW10337   9.065   2.147   1.642  0.4642  0.0505 -0.1596
 2585SOL    HW110338   9.058   2.080   1.574 -0.4440 -0.0060 -0.0277
 2585SOL    HW210339   9.004   2.118   1.710  2.5760 -0.8039  1.4955
 2585SOL     MW10340   9.056   2.135   1.642  0.6183 -0.0661  0.0692
 2586SOL     OW10341   9.171   8.200   1.857  0.5194 -0.0208 -0.3464
 2586SOL    HW110342   9.122   8.240   1.786  0.1907 -0.0434 -0.1331
 2586SOL    HW210343   9.162   8.106   1.842  0.3361 -0.0265 -0.1973
 2586SOL     MW10344   9.164   8.193   1.846  0.4539 -0.0244 -0.3000
 2587SOL     OW10345   6.805   0.468   2.031  0.0017 -0.0290  0.2773
 2587SOL    HW110346   6.801   0.435   1.941 -0.0726 -0.3487  0.3967
 2587SOL    HW210347   6.893   0.443   2.062 -0.0025  0.0103  0.3218
 2587SOL     MW10348   6.816   0.460   2.024 -0.0084 -0.0649  0.2983
 2588SOL     OW10349   8.478   7.218   9.299  0.3414  0.5528 -0.1190
 2588SOL    HW110350   8.565   7.256   9.307  0.6121 -0.0463 -0.1098
 2588SOL    HW210351   8.434   7.241   9.381 -0.0526  2.1572 -0.7597
 2588SOL     MW10352   8.484   7.226   9.311  0.3256  0.6815 -0.1999
 2589SOL     OW10353   6.610   5.820   0.506 -0.1439 -0.5679 -0.2967
 2589SOL    HW110354   6.650   5.904   0.529 -1.8959  0.0210  0.7658
 2589SOL    HW210355   6.662   5.755   0.553 -0.1152  0.1276  0.6620
 2589SOL     MW10356   6.621   5.822   0.515 -0.3645 -0.4035 -0.0380
 2590SOL     OW10357   9.392   4.367   2.378 -0.9088 -0.5506  0.3632
 2590SOL    HW110358   9.411   4.394   2.468  1.7181  1.7645 -0.7364
 2590SOL    HW210359   9.307   4.323   2.383 -0.2775 -1.6802  4.1406
 2590SOL     MW10360   9.384   4.364   2.390 -0.4917 -0.3988  0.7060
 2591SOL     OW10361   8.026   6.505   0.615 -0.3531 -0.1413  0.5298
 2591SOL    HW110362   7.964   6.578   0.616 -0.1482  0.0369  0.1577
 2591SOL    HW210363   7.994   6.446   0.684 -0.5314  0.2866  0.8204
 2591SOL     MW10364   8.014   6.507   0.624 -0.3497 -0.0637  0.5194
 2592SOL     OW10365   9.820   5.588   0.399  0.1041 -0.1037  0.2363
 2592SOL    HW110366   9.898   5.560   0.446  1.2076 -0.1959 -1.5463
 2592SOL    HW210367   9.762   5.512   0.401 -0.3191  0.2303  2.2584
 2592SOL     MW10368   9.822   5.575   0.405  0.1912 -0.0728  0.2670
 2593SOL     OW10369   6.619   8.223   0.028 -0.4738  0.2066 -0.4500
 2593SOL    HW110370   6.712   8.214   0.008 -0.4669  1.0724 -0.9022
 2593SOL    HW210371   6.585   8.277  -0.044 -0.9636  1.3470  0.6081
 2593SOL     MW10372   6.627   8.229   0.016 -0.5356  0.4635 -0.3724
 2594SOL     OW10373  10.139   9.325   9.558 -0.5463  0.1898  0.3348
 2594SOL    HW110374  10.068   9.261   9.556 -1.0064  0.7046 -0.1202
 2594SOL    HW210375  10.218   9.274   9.539 -0.6880 -0.5078  1.4972
 2594SOL     MW10376  10.140   9.310   9.555 -0.6233  0.1664  0.4254
 2595SOL     OW10377   6.983   7.519   0.170  0.0084 -0.2132  0.0549
 2595SOL    HW110378   6.978   7.462   0.246 -2.4285  0.4763  0.4923
 2595SOL    HW210379   6.981   7.607   0.206  0.3722  0.1358 -0.7577
 2595SOL     MW10380   6.982   7.523   0.184 -0.2570 -0.0803  0.0069
 2596SOL     OW10381   9.778  10.056   2.404 -0.5473 -0.2516  0.1609
 2596SOL    HW110382   9.853  10.073   2.347  0.1121  0.0735  1.0984
 2596SOL    HW210383   9.734  10.141   2.411 -0.9634 -0.4223 -0.3163
 2596SOL     MW10384   9.782  10.069   2.398 -0.5161 -0.2318  0.2198
 2597SOL     OW10385   9.472   2.763   1.587  0.0144  0.2282 -0.2721
 2597SOL    HW110386   9.516   2.784   1.505  0.4623 -0.7458 -0.2910
 2597SOL    HW210387   9.543   2.745   1.649 -0.3293 -0.6385 -0.1105
 2597SOL     MW10388   9.486   2.763   1.584  0.0278 -0.0074 -0.2538
 2598SOL     OW10389   7.115   1.670   2.934 -0.4189  0.5898  0.0058
 2598SOL    HW110390   7.053   1.724   2.983 -0.9270  1.2840 -1.3441
 2598SOL    HW210391   7.199   1.715   2.944 -0.7596  1.4267 -0.7641
 2598SOL     MW10392   7.118   1.682   2.941 -0.5276  0.7858 -0.2655
 2599SOL     OW10393   7.673   0.432   2.579  0.0767  0.1335 -0.1501
 2599SOL    HW110394   7.665   0.472   2.665  0.0619 -0.6146  0.2121
 2599SOL    HW210395   7.583   0.426   2.547  0.0859  0.4522 -0.2342
 2599SOL     MW10396   7.660   0.436   2.586  0.0760  0.0785 -0.1145
 2600SOL     OW10397   8.511   9.235   0.565  0.3359  0.3088 -0.1372
 2600SOL    HW110398   8.593   9.254   0.518  0.9863 -0.1808  0.7817
 2600SOL    HW210399   8.464   9.176   0.507  0.0306  1.5951 -1.2680
 2600SOL     MW10400   8.516   9.230   0.551  0.3801  0.4108 -0.1644
 2601SOL     OW10401   7.613   5.066   0.240  0.0620  0.1641  0.3502
 2601SOL    HW110402   7.543   5.054   0.176 -0.2368 -0.6228  0.8026
 2601SOL    HW210403   7.567   5.082   0.322  0.4117 -0.2685  0.6337
 2601SOL     MW10404   7.598   5.067   0.242  0.0685  0.0080  0.4444
 2602SOL     OW10405   8.049   4.260   1.098  0.2127 -0.6626  0.2974
 2602SOL    HW110406   8.030   4.166   1.104 -0.2094 -0.5216  1.2516
 2602SOL    HW210407   7.964   4.300   1.079  0.3951 -0.4708 -0.1213
 2602SOL     MW10408   8.036   4.253   1.096  0.1820 -0.6200  0.3659
 2603SOL     OW10409   6.542   9.375   2.227  0.2770 -0.1749 -0.1607
 2603SOL    HW110410   6.612   9.419   2.276 -0.6394  0.3614  0.6896
 2603SOL    HW210411   6.555   9.282   2.245  0.7367 -0.0760  0.0321
 2603SOL     MW10412   6.553   9.368   2.236  0.2185 -0.0936 -0.0272
 2604SOL     OW10413   7.948   3.218   1.279 -0.1859 -0.2358 -0.3790
 2604SOL    HW110414   7.853   3.234   1.281 -0.1516 -0.0769  0.6694
 2604SOL    HW210415   7.977   3.237   1.368  0.3260 -3.3870  0.2225
 2604SOL     MW10416   7.939   3.223   1.291 -0.1159 -0.6188 -0.1678
 2605SOL     OW10417   8.848   4.362   0.181  0.5449 -0.5525  0.4543
 2605SOL    HW110418   8.916   4.299   0.158 -0.7920 -2.0553  0.4345
 2605SOL    HW210419   8.847   4.424   0.108  2.2242 -0.1775  0.7167
 2605SOL     MW10420   8.857   4.362   0.169  0.5887 -0.6969  0.4853
 2606SOL     OW10421   9.903   2.732   0.561  0.0707  0.0660 -0.0442
 2606SOL    HW110422   9.846   2.677   0.615 -1.0829 -0.9124 -2.1093
 2606SOL    HW210423   9.844   2.797   0.522  0.7666  0.4685 -0.4503
 2606SOL     MW10424   9.888   2.733   0.563  0.0121 -0.0077 -0.3605
 2607SOL     OW10425   9.465   3.546   9.687  0.0896  0.4173 -0.1710
 2607SOL    HW110426   9.461   3.567   9.594 -2.7419 -1.7614 -0.6714
 2607SOL    HW210427   9.431   3.624   9.731 -0.2877  0.7853 -1.0992
 2607SOL     MW10428   9.460   3.558   9.681 -0.3212  0.1855 -0.3539
 2608SOL     OW10429   7.357   5.923   9.814 -0.0664 -0.2070  0.5189
 2608SOL    HW110430   7.391   5.866   9.882 -2.3310 -0.5993  1.4398
 2608SOL    HW210431   7.278   5.879   9.783 -1.1159  1.7056  0.2689
 2608SOL     MW10432   7.351   5.910   9.819 -0.4907 -0.0124  0.6048
 2609SOL     OW10433   9.794   5.837   0.568 -0.7576 -0.4317 -0.1393
 2609SOL    HW110434   9.812   5.812   0.659  2.1397 -0.3779 -0.6055
 2609SOL    HW210435   9.812   5.758   0.518 -1.4792 -0.2046 -0.7822
 2609SOL     MW10436   9.799   5.824   0.573 -0.4791 -0.3957 -0.2813
 2610SOL     OW10437   6.924   0.361   9.351 -0.5753  0.4001  0.8737
 2610SOL    HW110438   6.952   0.295   9.415 -0.2376  0.6113  0.9471
 2610SOL    HW210439   6.841   0.395   9.386 -0.7245  0.0530  0.8609
 2610SOL     MW10440   6.917   0.357   9.364 -0.5511  0.3827  0.8814
 2611SOL     OW10441   0.458   2.399   1.535 -0.2134 -0.1964  0.1406
 2611SOL    HW110442   0.551   2.418   1.550 -0.5753  1.7780  0.2164
 2611SOL    HW210443   0.414   2.483   1.551 -1.7661 -0.4754 -2.2113
 2611SOL     MW10444   0.464   2.412   1.539 -0.4585  0.0206 -0.1508
 2612SOL     OW10445   8.747   5.927   2.063 -0.0896  0.1479 -0.2729
 2612SOL    HW110446   8.748   5.873   1.984  0.6006  0.2592 -0.3461
 2612SOL    HW210447   8.798   5.877   2.127  0.2699  0.5545 -0.2359
 2612SOL     MW10448   8.754   5.914   2.061  0.0448  0.2142 -0.2775
 2613SOL     OW10449   9.538   4.072   2.376  0.2964 -0.3585 -0.1823
 2613SOL    HW110450   9.478   4.040   2.309  0.6362 -0.0138 -0.6601
 2613SOL    HW210451   9.486   4.075   2.456 -0.7749  1.4636 -0.9028
 2613SOL     MW10452   9.524   4.068   2.378  0.2028 -0.0811 -0.3357
 2614SOL     OW10453   8.537   8.151   2.462  0.0643  0.0338  0.5368
 2614SOL    HW110454   8.612   8.136   2.519  0.6742 -2.5354 -0.8131
 2614SOL    HW210455   8.558   8.105   2.381 -1.9615  1.2493 -0.7761
 2614SOL     MW10456   8.549   8.143   2.459 -0.1169 -0.1395  0.1959
 2615SOL     OW10457   8.653   5.429   0.317  0.1851 -0.0876  0.0168
 2615SOL    HW110458   8.595   5.470   0.382 -0.8243 -0.0288 -0.8905
 2615SOL    HW210459   8.610   5.347   0.295  0.1265  0.2354 -1.1171
 2615SOL     MW10460   8.640   5.424   0.322  0.0484 -0.0387 -0.2445
 2616SOL     OW10461   7.643   0.342   0.394  0.3287  0.3823 -0.4927
 2616SOL    HW110462   7.654   0.354   0.299 -1.1971  1.4352 -0.5697
 2616SOL    HW210463   7.585   0.266   0.402 -0.4894  0.9889 -0.4749
 2616SOL     MW10464   7.637   0.334   0.383  0.0286  0.5947 -0.5003
 2617SOL     OW10465  10.057   6.393   0.062  0.2420  0.4400  0.1380
 2617SOL    HW110466  10.088   6.317   0.111  3.3604  0.5332 -1.4240
 2617SOL    HW210467  10.061   6.466   0.125  0.1974 -0.1469  0.8265
 2617SOL     MW10468  10.062   6.393   0.077  0.6355  0.3768  0.0262
 2618SOL     OW10469   9.670   0.292   1.903  0.1535  0.2701 -0.2475
 2618SOL    HW110470   9.727   0.358   1.864  0.2239  0.2157 -0.2363
 2618SOL    HW210471   9.644   0.237   1.830  0.4362  0.0555 -0.1858
 2618SOL     MW10472   9.674   0.294   1.889  0.1987  0.2357 -0.2382
 2619SOL     OW10473   5.900  10.069   0.950  0.1449 -0.3277 -0.1990
 2619SOL    HW110474   5.895  10.145   1.008 -0.9056  1.5360 -2.5467
 2619SOL    HW210475   5.899  10.107   0.861  0.9059 -3.0410 -1.4536
 2619SOL     MW10476   5.899  10.084   0.946  0.1078 -0.4365 -0.6601
 2620SOL     OW10477   7.386   1.137   0.785  0.2393 -0.5267 -0.7957
 2620SOL    HW110478   7.459   1.080   0.810  0.1069 -0.4535 -0.2328
 2620SOL    HW210479   7.312   1.105   0.836 -0.0414 -0.3828 -1.1111
 2620SOL     MW10480   7.386   1.125   0.795  0.1864 -0.4989 -0.7640
 2621SOL     OW10481   7.608   8.142   9.057  0.4552  0.8183  0.1093
 2621SOL    HW110482   7.598   8.096   9.140 -0.1712  0.8041  0.0366
 2621SOL    HW210483   7.700   8.169   9.054  0.2945  1.5111  1.1724
 2621SOL     MW10484   7.618   8.140   9.067  0.3545  0.9052  0.2361
 2622SOL     OW10485   6.849   7.554   2.408 -0.1535 -0.0945 -0.3241
 2622SOL    HW110486   6.782   7.487   2.394  1.4186 -1.4797 -1.7933
 2622SOL    HW210487   6.903   7.518   2.479 -1.8021  1.7869  2.0349
 2622SOL     MW10488   6.847   7.541   2.416 -0.1633 -0.0309 -0.2102
 2623SOL     OW10489   9.362   9.999   9.290  0.1781  0.5052 -0.3197
 2623SOL    HW110490   9.285   9.943   9.301  1.8325 -1.5820  1.6043
 2623SOL    HW210491   9.379   9.997   9.196 -2.2207  1.2798 -0.8526
 2623SOL     MW10492   9.354   9.991   9.279  0.0828  0.3372 -0.1416
 2624SOL     OW10493   6.938   5.917   1.246  0.7419 -0.1856 -0.5843
 2624SOL    HW110494   6.950   5.833   1.290 -1.8695  0.0498  0.8068
 2624SOL    HW210495   6.995   5.977   1.293 -0.7105 -0.3074  1.4910
 2624SOL     MW10496   6.947   5.914   1.258  0.2217 -0.1711 -0.1406
 2625SOL     OW10497   0.039   7.756   0.404  0.4424  0.3262 -0.0886
 2625SOL    HW110498   0.131   7.781   0.412  1.0608 -2.2070  1.9968
 2625SOL    HW210499   0.041   7.671   0.360 -0.6058 -1.0425  2.3338
 2625SOL     MW10500   0.051   7.748   0.399  0.3874 -0.1733  0.4884
 2626SOL     OW10501   8.457   6.237   1.177 -0.1806  0.2386  0.3521
 2626SOL    HW110502   8.389   6.296   1.145  0.5186  0.5410 -0.6638
 2626SOL    HW210503   8.446   6.235   1.272 -0.7519  1.3338  0.3192
 2626SOL     MW10504   8.447   6.244   1.185 -0.1642  0.4175  0.2178
 2627SOL     OW10505   9.308   4.242   1.988 -0.1389 -0.0962 -0.6974
 2627SOL    HW110506   9.255   4.223   1.911 -0.5124 -1.2202 -0.1880
 2627SOL    HW210507   9.397   4.250   1.954 -0.4300  0.3338 -1.3658
 2627SOL     MW10508   9.313   4.240   1.974 -0.2240 -0.1850 -0.7178
 2628SOL     OW10509   7.373   1.472   2.132  0.7261  0.1793  0.0062
 2628SOL    HW110510   7.441   1.537   2.118  0.4358  0.7108  0.9857
 2628SOL    HW210511   7.421   1.391   2.149  1.0926  0.2086 -0.8520
 2628SOL     MW10512   7.388   1.470   2.133  0.7359  0.2511  0.0217
 2629SOL     OW10513   8.044   9.278   9.639  0.0347  0.2060  0.1560
 2629SOL    HW110514   8.032   9.308   9.549  1.4313  0.7674  0.1244
 2629SOL    HW210515   7.987   9.333   9.691 -1.3886 -0.6453 -0.4455
 2629SOL     MW10516   8.035   9.289   9.634  0.0312  0.1689  0.0749
 2630SOL     OW10517   7.528   8.564   2.447  0.2029 -0.1480 -0.4697
 2630SOL    HW110518   7.615   8.590   2.419  0.6417 -2.4072 -1.3985
 2630SOL    HW210519   7.485   8.534   2.367 -0.9791 -0.2775  0.1876
 2630SOL     MW10520   7.533   8.564   2.433  0.1078 -0.4538 -0.5044
 2631SOL     OW10521   8.050   6.708   9.587  0.0530 -0.0319 -0.1221
 2631SOL    HW110522   8.030   6.719   9.680 -0.4454  1.8036 -0.4067
 2631SOL    HW210523   8.143   6.688   9.585  0.1726  0.3606  0.7623
 2631SOL     MW10524   8.059   6.707   9.599  0.0045  0.2533 -0.0453
 2632SOL     OW10525   9.673   7.384   9.095 -0.3803 -0.0079  0.2110
 2632SOL    HW110526   9.687   7.478   9.082 -0.4077  0.1952  1.5572
 2632SOL    HW210527   9.642   7.352   9.010  0.6530  0.9954 -0.5710
 2632SOL     MW10528   9.671   7.392   9.082 -0.2515  0.1465  0.2833
 2633SOL     OW10529   7.863   0.144   2.978  0.1711 -0.1209  0.3775
 2633SOL    HW110530   7.844   0.096   2.898  1.0422 -2.8023  1.6427
 2633SOL    HW210531   7.784   0.195   2.995  0.2920  1.2360 -2.5792
 2633SOL     MW10532   7.851   0.144   2.970  0.2981 -0.2905  0.1610
 2634SOL     OW10533   7.099   6.118   1.345  0.2962  0.2641  0.4470
 2634SOL    HW110534   7.162   6.064   1.298 -0.7840  0.3874 -1.2479
 2634SOL    HW210535   7.066   6.179   1.279 -0.4145  1.2862  1.6838
 2634SOL     MW10536   7.103   6.119   1.331  0.0669  0.4107  0.3884
 2635SOL     OW10537   9.270   6.798   1.506 -0.2319 -0.1959 -0.4131
 2635SOL    HW110538   9.276   6.823   1.414  0.8835 -0.8977 -0.5571
 2635SOL    HW210539   9.353   6.754   1.524 -0.3386  0.1327  0.9956
 2635SOL     MW10540   9.282   6.795   1.496 -0.1027 -0.2436 -0.2512
 2636SOL     OW10541   6.933   6.561   2.694  0.0701 -0.7228  0.2267
 2636SOL    HW110542   6.970   6.495   2.636  0.1564 -1.1867  0.8002
 2636SOL    HW210543   6.860   6.517   2.738 -1.8359  0.4241 -1.5677
 2636SOL     MW10544   6.928   6.547   2.693 -0.1628 -0.6353  0.0704
 2637SOL     OW10545   7.024   2.194   1.798 -0.1043 -0.0793  0.0716
 2637SOL    HW110546   6.954   2.189   1.733  0.6384  0.3454 -0.7855
 2637SOL    HW210547   7.063   2.280   1.785  0.4225 -0.2115  0.7034
 2637SOL     MW10548   7.020   2.204   1.788  0.0582 -0.0419  0.0428
 2638SOL     OW10549   7.921   3.775   9.539 -0.3712  0.3243  0.1218
 2638SOL    HW110550   7.962   3.799   9.455 -0.6200  0.6469  0.0911
 2638SOL    HW210551   7.932   3.680   9.544 -0.5550  0.2696 -0.3890
 2638SOL     MW10552   7.928   3.766   9.529 -0.4265  0.3586  0.0525
 2639SOL     OW10553   9.889   7.629   1.668 -0.1468 -0.7733  0.2888
 2639SOL    HW110554   9.825   7.559   1.655 -1.0171 -0.2680  1.5534
 2639SOL    HW210555   9.836   7.709   1.668  0.8765 -0.0337 -1.6080
 2639SOL     MW10556   9.874   7.631   1.666 -0.1273 -0.6140  0.2079
 2640SOL     OW10557   9.478   7.335   1.225  0.4002  0.4790  0.2039
 2640SOL    HW110558   9.568   7.367   1.216  0.7643 -0.7405 -0.6472
 2640SOL    HW210559   9.477   7.251   1.180 -1.1640  0.4410  0.2468
 2640SOL     MW10560   9.489   7.329   1.218  0.2466  0.3181  0.1005
 2641SOL     OW10561   7.866   7.419   9.088  0.1648 -0.0416 -0.6456
 2641SOL    HW110562   7.771   7.430   9.094  0.2460 -0.0894  1.9296
 2641SOL    HW210563   7.878   7.326   9.072 -0.2388 -0.2674  0.2711
 2641SOL     MW10564   7.855   7.408   9.087  0.1235 -0.0766 -0.1986
 2642SOL     OW10565   7.709   7.936   0.637 -0.1862  0.3160  0.0127
 2642SOL    HW110566   7.780   7.893   0.685 -2.5826 -1.1498  2.5173
 2642SOL    HW210567   7.667   7.992   0.701 -2.1518  0.0779 -0.9927
 2642SOL     MW10568   7.713   7.938   0.651 -0.7446  0.0979  0.2046
 2643SOL     OW10569   7.911   9.099   1.770  0.1061 -0.1336  0.0527
 2643SOL    HW110570   7.978   9.039   1.804 -0.2450 -0.2910  0.4810
 2643SOL    HW210571   7.961   9.167   1.725  0.4526 -1.7656 -2.2130
 2643SOL     MW10572   7.926   9.100   1.769  0.1055 -0.3627 -0.1825
 2644SOL     OW10573   7.416   7.980  10.121 -0.1711  0.8672  0.0604
 2644SOL    HW110574   7.506   7.973  10.090  0.1784  1.8525  0.7677
 2644SOL    HW210575   7.398   8.074  10.120 -1.0495  0.7139  0.3208
 2644SOL     MW10576   7.425   7.991  10.117 -0.2388  0.9737  0.1842
 2645SOL     OW10577   9.446   9.508   2.144 -0.2398 -0.0222  0.0923
 2645SOL    HW110578   9.396   9.502   2.225 -0.8330 -1.4621 -0.3646
 2645SOL    HW210579   9.395   9.459   2.079  0.9708 -0.1989 -0.7717
 2645SOL     MW10580   9.433   9.501   2.146 -0.1607 -0.2292 -0.0768
 2646SOL     OW10581   8.730   8.327   1.297 -0.4299  0.6876  0.2903
 2646SOL    HW110582   8.656   8.387   1.283  0.1837  1.3521 -0.1738
 2646SOL    HW210583   8.807   8.383   1.291  0.1524 -0.1444 -0.0527
 2646SOL     MW10584   8.730   8.342   1.295 -0.2768  0.6662  0.1870
 2647SOL     OW10585   7.083   9.093   0.450 -0.3001 -0.0304  0.2756
 2647SOL    HW110586   7.041   9.121   0.531  0.3360  1.4175  0.1309
 2647SOL    HW210587   7.154   9.035   0.477 -0.3280  0.1503  0.7289
 2647SOL     MW10588   7.087   9.089   0.464 -0.2223  0.1781  0.3151
 2648SOL     OW10589   6.896   8.416   0.761  0.1101  0.5164 -0.3589
 2648SOL    HW110590   6.958   8.343   0.761 -0.0695  0.2889 -2.6183
 2648SOL    HW210591   6.917   8.465   0.681 -1.6224  1.2996 -0.3745
 2648SOL     MW10592   6.907   8.413   0.750 -0.1347  0.5875 -0.6501
 2649SOL     OW10593   7.316   5.535   9.973  0.3804 -0.3478  0.0701
 2649SOL    HW110594   7.349   5.459   9.927 -0.9400  0.1292 -1.8253
 2649SOL    HW210595   7.376   5.606   9.949  0.3840 -0.3548  0.0590
 2649SOL     MW10596   7.328   5.535   9.964  0.2119 -0.2876 -0.1740
 2650SOL     OW10597   9.485   7.613   9.280  0.1707  0.0697  0.2041
 2650SOL    HW110598   9.506   7.539   9.337  1.1589  0.4167  0.3137
 2650SOL    HW210599   9.565   7.627   9.229 -1.1644 -1.2724 -2.4773
 2650SOL     MW10600   9.498   7.605   9.280  0.1263 -0.0577 -0.1251
 2651SOL     OW10601   8.531   2.575   3.094  0.6175  0.6460  0.7867
 2651SOL    HW110602   8.574   2.490   3.103  0.8288  0.9027  2.4787
 2651SOL    HW210603   8.463   2.575   3.161 -1.8387  0.4320 -1.5238
 2651SOL     MW10604   8.528   2.564   3.104  0.3301  0.6515  0.7075
 2652SOL     OW10605   7.896   9.691   9.253 -0.2568 -0.1141  0.3926
 2652SOL    HW110606   7.931   9.605   9.278  0.0812  0.3784  1.7201
 2652SOL    HW210607   7.970   9.751   9.264 -0.6567  0.4424  0.0891
 2652SOL     MW10608   7.910   9.688   9.258 -0.2648  0.0202  0.5237
 2653SOL     OW10609   9.563   7.219   9.715 -0.1475 -0.1619 -0.4089
 2653SOL    HW110610   9.590   7.260   9.632  0.2744 -0.6966 -0.5433
 2653SOL    HW210611   9.567   7.125   9.697  0.6788 -0.3051  0.4390
 2653SOL     MW10612   9.567   7.213   9.702  0.0123 -0.2487 -0.3176
 2654SOL     OW10613   7.852   8.915   1.399 -1.5515  0.8885  0.1249
 2654SOL    HW110614   7.891   8.904   1.485 -0.1524 -0.7141 -0.6574
 2654SOL    HW210615   7.914   8.969   1.351 -1.6462  0.6212 -0.3035
 2654SOL     MW10616   7.865   8.920   1.404 -1.3846  0.6492 -0.0301
 2655SOL     OW10617   8.659   1.127   1.122 -0.3646 -0.3953  0.1138
 2655SOL    HW110618   8.566   1.125   1.099 -0.3717  1.3428 -0.1235
 2655SOL    HW210619   8.705   1.131   1.038 -0.1494  0.1210  0.2487
 2655SOL     MW10620   8.653   1.127   1.109 -0.3379 -0.1067  0.1007
 2656SOL     OW10621   7.964   3.579   9.206 -0.1258 -0.3101 -0.4627
 2656SOL    HW110622   8.021   3.521   9.255  0.7397  0.6934 -0.2421
 2656SOL    HW210623   7.991   3.568   9.115  1.0208  0.7640 -0.2795
 2656SOL     MW10624   7.974   3.570   9.201  0.1318 -0.0441 -0.4110
 2657SOL     OW10625   7.159   1.195  10.049 -0.1219 -0.4190 -0.3152
 2657SOL    HW110626   7.208   1.245  10.114 -1.3144 -0.3502  0.5483
 2657SOL    HW210627   7.124   1.262   9.990 -0.6205 -0.3310  0.0771
 2657SOL     MW10628   7.161   1.210  10.049 -0.3384 -0.3990 -0.1545
 2658SOL     OW10629   7.796   8.788   0.037 -0.1191  0.4165 -0.7299
 2658SOL    HW110630   7.774   8.876   0.069 -0.3589  0.7417 -1.7599
 2658SOL    HW210631   7.712   8.742   0.035 -0.1333  0.4542 -1.0488
 2658SOL     MW10632   7.782   8.793   0.041 -0.1516  0.4629 -0.9026
 2659SOL     OW10633   7.639   5.506   1.952  0.0448  0.3725 -0.0548
 2659SOL    HW110634   7.699   5.499   1.877  0.5840  0.7079  0.3430
 2659SOL    HW210635   7.564   5.555   1.918 -0.5965 -1.1301 -0.9143
 2659SOL     MW10636   7.637   5.511   1.938  0.0317  0.2231 -0.1139
 2660SOL     OW10637   7.234   4.531   1.260  0.1937 -0.0453 -0.3324
 2660SOL    HW110638   7.235   4.572   1.173  1.9608  1.9469  0.5257
 2660SOL    HW210639   7.193   4.597   1.317  1.0179 -0.4130  0.7119
 2660SOL     MW10640   7.229   4.545   1.256  0.5254  0.1627 -0.0888
 2661SOL     OW10641   0.266   2.578   0.448 -0.0597 -0.3876  0.6103
 2661SOL    HW110642   0.265   2.561   0.542 -1.1164 -2.6119  0.2699
 2661SOL    HW210643   0.175   2.596   0.426 -0.2122 -1.9692 -0.2514
 2661SOL     MW10644   0.254   2.578   0.457 -0.2145 -0.8748  0.4565
 2662SOL     OW10645   8.545   3.334   2.581  0.1110  0.2794 -0.8008
 2662SOL    HW110646   8.537   3.336   2.485 -1.7686 -1.8719 -0.7864
 2662SOL    HW210647   8.504   3.251   2.606  0.0841  1.0347  1.9357
 2662SOL     MW10648   8.539   3.323   2.572 -0.1330  0.1007 -0.4487
 2663SOL     OW10649   7.690   8.587   9.726  0.0248  0.1739 -0.0477
 2663SOL    HW110650   7.709   8.647   9.799 -1.8628 -0.1503  0.7608
 2663SOL    HW210651   7.613   8.625   9.684 -1.8065 -2.1199  1.0627
 2663SOL     MW10652   7.683   8.600   9.730 -0.4513 -0.1612  0.1979
 2664SOL     OW10653   8.925   1.603   2.818 -0.2036  0.0727 -0.3344
 2664SOL    HW110654   8.883   1.521   2.843  0.1230  0.3023  1.0531
 2664SOL    HW210655   8.932   1.599   2.723  0.3994 -1.8048 -0.2449
 2664SOL     MW10656   8.920   1.592   2.809 -0.0846 -0.1383 -0.1454
 2665SOL     OW10657   6.911   2.779   0.289 -0.7559  0.0221  0.1788
 2665SOL    HW110658   6.973   2.841   0.328 -1.4405  1.9231 -1.5588
 2665SOL    HW210659   6.943   2.765   0.200 -1.2942 -1.2019  0.1522
 2665SOL     MW10660   6.923   2.785   0.283 -0.9125  0.1088 -0.0470
 2666SOL     OW10661   8.666   8.763   0.771  0.1381  0.0096 -0.1558
 2666SOL    HW110662   8.714   8.818   0.833  1.4981  0.3383 -1.4350
 2666SOL    HW210663   8.735   8.715   0.724 -0.8553 -0.3456 -1.2880
 2666SOL     MW10664   8.681   8.764   0.773  0.1851  0.0062 -0.4645
 2667SOL     OW10665   6.638   2.811   1.795  0.5522 -0.3559 -0.2981
 2667SOL    HW110666   6.676   2.859   1.869 -0.0875  0.6520 -0.5953
 2667SOL    HW210667   6.706   2.749   1.768  1.9424  1.2795 -0.7261
 2667SOL     MW10668   6.652   2.809   1.801  0.6483 -0.0175 -0.3909
 2668SOL     OW10669   8.872   4.710   9.732  0.1036 -0.5946  0.7103
 2668SOL    HW110670   8.833   4.774   9.792  1.0968 -0.0788  0.8305
 2668SOL    HW210671   8.924   4.653   9.789  0.6677 -0.3953  0.4030
 2668SOL     MW10672   8.874   4.711   9.747  0.3029 -0.5030  0.6864
 2669SOL     OW10673   9.106   5.623   1.256 -0.2686  0.0170 -0.0174
 2669SOL    HW110674   9.078   5.654   1.342 -1.3286  1.0828 -0.7231
 2669SOL    HW210675   9.115   5.702   1.203 -1.7649 -0.7581 -1.4986
 2669SOL     MW10676   9.104   5.637   1.261 -0.5958  0.0542 -0.2974
 2670SOL     OW10677   8.146   5.477   2.343 -0.0415  0.3489 -0.5324
 2670SOL    HW110678   8.128   5.486   2.249  0.6813  0.9491 -0.6255
 2670SOL    HW210679   8.231   5.432   2.346 -0.6492 -0.8324 -0.1352
 2670SOL     MW10680   8.155   5.472   2.331 -0.0267  0.2745 -0.4935
 2671SOL     OW10681   9.153   8.446   9.717 -0.4819  0.0959 -0.3700
 2671SOL    HW110682   9.107   8.364   9.730  0.2457 -0.4304 -1.0014
 2671SOL    HW210683   9.227   8.423   9.661  3.2588 -0.1058  4.0602
 2671SOL     MW10684   9.157   8.433   9.711  0.0901  0.0027  0.1163
 2672SOL     OW10685   7.471   8.446   0.891  0.2119 -0.6930  0.2319
 2672SOL    HW110686   7.548   8.401   0.926  0.7090 -0.6332 -0.7546
 2672SOL    HW210687   7.409   8.376   0.872  1.1316 -1.0495 -1.6614
 2672SOL     MW10688   7.473   8.431   0.893  0.3932 -0.7310 -0.1368
 2673SOL     OW10689   9.249   2.364   9.167  0.3460  0.1398 -0.5690
 2673SOL    HW110690   9.203   2.288   9.201  0.5917  0.4522  0.4935
 2673SOL    HW210691   9.230   2.364   9.073 -0.4534 -0.6705 -0.4158
 2673SOL     MW10692   9.240   2.354   9.159  0.2751  0.0761 -0.4134
 2674SOL     OW10693   6.741   9.760   2.126  0.4670 -0.4965 -0.0891
 2674SOL    HW110694   6.674   9.700   2.092 -0.7136  0.4824  0.4314
 2674SOL    HW210695   6.821   9.734   2.081 -0.3035 -1.5514 -0.9218
 2674SOL     MW10696   6.742   9.749   2.116  0.2173 -0.5062 -0.1291
 2675SOL     OW10697   0.407   0.499   1.182 -0.2983 -0.0893  0.7927
 2675SOL    HW110698   0.494   0.510   1.218  0.0470 -0.3047  0.0506
 2675SOL    HW210699   0.414   0.424   1.123 -0.4149  1.2372 -0.9822
 2675SOL     MW10700   0.419   0.491   1.179 -0.2690  0.0529  0.4705
 2676SOL     OW10701   8.240   4.251   0.460  0.0121  0.0265 -0.3536
 2676SOL    HW110702   8.167   4.241   0.521 -1.3628 -0.9149 -2.0658
 2676SOL    HW210703   8.282   4.165   0.459 -1.0559 -0.5343 -1.9647
 2676SOL     MW10704   8.236   4.239   0.468 -0.3006 -0.1658 -0.7790
 2677SOL     OW10705   9.107   6.558   9.637  0.3431  0.3823  0.1945
 2677SOL    HW110706   9.135   6.599   9.719 -1.4656  1.4052  0.3582
 2677SOL    HW210707   9.025   6.514   9.660  0.5666 -0.5739 -0.7563
 2677SOL     MW10708   9.100   6.558   9.651  0.1402  0.3908  0.0937
 2678SOL     OW10709   7.193   7.221   2.069 -0.2106  0.0403 -0.0163
 2678SOL    HW110710   7.245   7.301   2.059 -0.1676  0.6499  3.6703
 2678SOL    HW210711   7.250   7.152   2.034  2.1349  1.0045  1.6027
 2678SOL     MW10712   7.207   7.223   2.064  0.0952  0.2418  0.6629
 2679SOL     OW10713   9.906   5.045   0.829  0.2192  0.0712 -0.6720
 2679SOL    HW110714   9.849   5.117   0.856  1.0954  0.8489 -0.8466
 2679SOL    HW210715   9.852   4.966   0.839 -0.6953  0.7301 -0.3099
 2679SOL     MW10716   9.892   5.044   0.834  0.2143  0.2551 -0.6480
 2680SOL     OW10717   6.989   6.552   1.462 -0.2476 -0.3791  0.4934
 2680SOL    HW110718   7.027   6.577   1.378 -0.0901 -0.8088  0.4354
 2680SOL    HW210719   7.055   6.496   1.503 -0.1473  0.1510  1.0805
 2680SOL     MW10720   7.002   6.548   1.457 -0.2146 -0.3662  0.5611
 2681SOL     OW10721   0.522   1.726   1.007 -0.0030  0.0135  0.3631
 2681SOL    HW110722   0.594   1.788   1.020  0.1227 -0.2463  0.9577
 2681SOL    HW210723   0.454   1.754   1.068 -0.8352  0.8660 -0.9025
 2681SOL     MW10724   0.523   1.738   1.016 -0.0935  0.0894  0.2772
 2682SOL     OW10725   9.002   5.969   2.850 -0.4760 -0.1282 -0.3161
 2682SOL    HW110726   9.041   5.903   2.794  0.6906  0.7281 -0.5631
 2682SOL    HW210727   9.003   5.931   2.938  1.1928 -0.0471 -0.2715
 2682SOL     MW10728   9.007   5.956   2.854 -0.1130 -0.0082 -0.3420
 2683SOL     OW10729   8.772   9.218   8.983 -0.0138 -0.6489 -0.1560
 2683SOL    HW110730   8.805   9.165   8.910  0.4458  0.5837 -0.8610
 2683SOL    HW210731   8.823   9.298   8.980 -0.7641 -0.1096  0.8487
 2683SOL     MW10732   8.783   9.221   8.973 -0.0510 -0.4221 -0.1176
 2684SOL     OW10733   9.684   8.876   1.526 -0.1408  0.2868 -0.1880
 2684SOL    HW110734   9.749   8.808   1.546 -2.3548 -2.1133 -0.5352
 2684SOL    HW210735   9.666   8.865   1.433 -1.8762  0.0219  0.1414
 2684SOL     MW10736   9.690   8.866   1.517 -0.6464 -0.0544 -0.1903
 2685SOL     OW10737   6.808   0.062   1.692  0.0837 -0.0608 -0.5478
 2685SOL    HW110738   6.823  -0.030   1.668 -0.6863 -0.1276 -0.8243
 2685SOL    HW210739   6.717   0.063   1.722 -0.2998  0.8298 -1.6702
 2685SOL     MW10740   6.798   0.050   1.693 -0.0640  0.0447 -0.7269
 2686SOL     OW10741   6.956   4.984   1.446 -0.5018  0.2372 -0.2213
 2686SOL    HW110742   6.964   4.917   1.513  1.3436  1.3735  0.7574
 2686SOL    HW210743   6.911   4.940   1.373 -1.4294 -1.3622  1.2478
 2686SOL     MW10744   6.951   4.970   1.445 -0.3843  0.1779  0.0920
 2687SOL     OW10745   8.990   7.999   0.482 -0.0660  0.0190  0.4700
 2687SOL    HW110746   8.914   7.943   0.498  1.4248 -1.5069  2.6953
 2687SOL    HW210747   9.023   7.970   0.397 -1.2726 -0.1116  0.0292
 2687SOL     MW10748   8.985   7.988   0.473 -0.0296 -0.1930  0.6984
 2688SOL     OW10749   7.216   0.698   0.679  0.0159  0.0551  0.1329
 2688SOL    HW110750   7.198   0.788   0.654  0.0296  0.1426  0.4291
 2688SOL    HW210751   7.148   0.646   0.635  1.4187 -0.0841 -2.0197
 2688SOL     MW10752   7.205   0.703   0.670  0.1972  0.0485 -0.1048
 2689SOL     OW10753   7.302   1.390   0.035  0.8298  0.1519  0.0813
 2689SOL    HW110754   7.379   1.343   0.068 -0.2848 -1.6996  0.1738
 2689SOL    HW210755   7.252   1.411   0.114  0.3264 -0.3217 -0.1109
 2689SOL     MW10756   7.306   1.387   0.049  0.6227 -0.1457  0.0686
 2690SOL     OW10757   6.839   4.695   0.177 -0.0497 -0.1618  0.5492
 2690SOL    HW110758   6.858   4.726   0.088  3.7047  0.4506  1.4218
 2690SOL    HW210759   6.825   4.601   0.167 -0.1273 -0.0400 -0.7112
 2690SOL     MW10760   6.839   4.687   0.164  0.4210 -0.0678  0.4995
 2691SOL     OW10761   9.289   1.689   9.936  0.0920  0.0662 -0.3883
 2691SOL    HW110762   9.253   1.611   9.977 -1.6373  0.7933 -0.4361
 2691SOL    HW210763   9.220   1.718   9.876  0.2856  2.1224  0.2961
 2691SOL     MW10764   9.275   1.683   9.934 -0.1046  0.4225 -0.3068
 2692SOL     OW10765   8.345   5.759   2.133  0.1260 -0.0107  0.2316
 2692SOL    HW110766   8.339   5.852   2.108 -0.0703 -0.1242 -0.1475
 2692SOL    HW210767   8.260   5.723   2.107  0.7987 -0.6657 -1.1092
 2692SOL     MW10768   8.333   5.767   2.126  0.1870 -0.1090  0.0114
 2693SOL     OW10769   6.080   9.428   1.558 -0.7003 -0.3251  0.9438
 2693SOL    HW110770   6.169   9.427   1.525 -0.9701  0.8852  0.1277
 2693SOL    HW210771   6.048   9.339   1.546  0.1090 -0.5482  0.4312
 2693SOL     MW10772   6.087   9.417   1.553 -0.6312 -0.1988  0.7737
 2694SOL     OW10773   0.141   6.693   0.874  0.4790  0.0149  0.4484
 2694SOL    HW110774   0.073   6.633   0.903 -1.3860  0.9255 -1.7244
 2694SOL    HW210775   0.161   6.665   0.785  0.9477  1.4380  0.0836
 2694SOL     MW10776   0.135   6.682   0.866  0.3002  0.3137  0.1236
 2695SOL     OW10777   7.684   1.360   0.866  0.1233 -0.3469 -0.2048
 2695SOL    HW110778   7.773   1.373   0.897  0.1034  1.5530 -0.8251
 2695SOL    HW210779   7.642   1.445   0.878 -1.4961 -1.0946 -0.3115
 2695SOL     MW10780   7.690   1.373   0.872 -0.0866 -0.1994 -0.2979
 2696SOL     OW10781   6.598   1.456  10.031 -0.4828 -0.0438  0.1941
 2696SOL    HW110782   6.548   1.375  10.036  0.2524 -0.6230 -1.2860
 2696SOL    HW210783   6.555   1.506   9.961  1.6752 -1.0737 -1.9643
 2696SOL     MW10784   6.586   1.452  10.023 -0.1124 -0.2498 -0.2717
 2697SOL     OW10785   7.555   3.770   1.180  0.5243 -0.3711 -0.2367
 2697SOL    HW110786   7.553   3.681   1.216  0.4270 -0.2675  0.0162
 2697SOL    HW210787   7.470   3.807   1.202  0.2555 -0.4823 -1.0370
 2697SOL     MW10788   7.544   3.763   1.187  0.4774 -0.3721 -0.3068
 2698SOL     OW10789   6.866   3.093   0.026 -0.2406 -0.3021  0.3043
 2698SOL    HW110790   6.859   3.118  -0.066  2.1766 -0.5799 -0.0080
 2698SOL    HW210791   6.914   3.165   0.067  0.8203 -1.2803  0.8306
 2698SOL     MW10792   6.871   3.106   0.020  0.2046 -0.4629  0.3317
 2699SOL     OW10793   7.903   2.792   2.681 -0.6109  0.0469 -0.2439
 2699SOL    HW110794   7.992   2.778   2.712 -1.0644 -1.3389  0.5588
 2699SOL    HW210795   7.904   2.763   2.590 -0.0854  0.7384 -0.4631
 2699SOL     MW10796   7.914   2.786   2.674 -0.6017 -0.0420 -0.1692
 2700SOL     OW10797   7.752   9.142   2.026  0.1675  0.0937 -0.2733
 2700SOL    HW110798   7.814   9.133   1.953  1.2041 -0.5623  0.6606
 2700SOL    HW210799   7.798   9.197   2.090  0.3265 -1.4578  0.9876
 2700SOL     MW10800   7.766   9.148   2.025  0.3206 -0.1889  0.0077
 2701SOL     OW10801   6.635   4.553   0.928  0.4827  0.2222  0.3331
 2701SOL    HW110802   6.573   4.531   0.997  0.4389  0.2215  0.2937
 2701SOL    HW210803   6.627   4.647   0.916 -0.4268  0.0559 -0.5449
 2701SOL     MW10804   6.626   4.562   0.935  0.3607  0.2008  0.2157
 2702SOL     OW10805   0.142   4.815   1.450 -0.0815 -0.2173 -0.1903
 2702SOL    HW110806   0.171   4.857   1.531 -0.0796  1.7406 -1.1416
 2702SOL    HW210807   0.047   4.831   1.448 -0.1336 -0.5576 -0.4038
 2702SOL     MW10808   0.133   4.823   1.460 -0.0879 -0.0102 -0.3394
 2703SOL     OW10809   9.696   0.052   0.799  0.0359 -0.2618  0.1795
 2703SOL    HW110810   9.777   0.004   0.816  0.0216 -0.7517 -1.0360
 2703SOL    HW210811   9.725   0.142   0.784  0.5721 -0.7430 -1.9099
 2703SOL     MW10812   9.710   0.057   0.800  0.1027 -0.3861 -0.2436
 2704SOL     OW10813   7.916   6.503   1.520 -0.0228 -0.0472  0.1474
 2704SOL    HW110814   7.848   6.506   1.588 -0.8143  0.8604 -0.6470
 2704SOL    HW210815   7.868   6.520   1.438  1.1942  0.8178 -0.4085
 2704SOL     MW10816   7.901   6.505   1.518  0.0317  0.1797 -0.0254
 2705SOL     OW10817   8.660   7.333   2.293  0.1147 -0.0344  0.4445
 2705SOL    HW110818   8.681   7.257   2.239  1.3905 -0.0989  0.9985
 2705SOL    HW210819   8.634   7.401   2.230 -1.4305 -1.0009 -0.0322
 2705SOL     MW10820   8.659   7.332   2.278  0.0802 -0.1664  0.4544
 2706SOL     OW10821   8.960   0.013  10.162 -0.2908 -0.3582  0.3164
 2706SOL    HW110822   8.935   0.071  10.234 -0.3334  0.3440 -0.2524
 2706SOL    HW210823   8.920   0.053  10.084  0.9426 -0.3088 -0.3148
 2706SOL     MW10824   8.951   0.026  10.161 -0.1383 -0.2620  0.1628
 2707SOL     OW10825   8.618   7.458   0.064  0.0980  0.5207  0.0087
 2707SOL    HW110826   8.666   7.467  -0.018 -0.7342  2.3563 -0.3188
 2707SOL    HW210827   8.682   7.424   0.126  1.0465  0.2344 -1.1109
 2707SOL     MW10828   8.632   7.455   0.061  0.1129  0.7191 -0.1766
 2708SOL     OW10829   8.623   1.611   2.291  0.3419  0.5493 -0.5082
 2708SOL    HW110830   8.586   1.687   2.337  1.2322  0.4815  0.3500
 2708SOL    HW210831   8.550   1.576   2.240 -0.7292  0.5674  0.9501
 2708SOL     MW10832   8.609   1.616   2.290  0.3188  0.5430 -0.2117
 2709SOL     OW10833   9.069   2.234   2.566 -0.2687  0.5618 -0.0150
 2709SOL    HW110834   9.008   2.287   2.515  1.2024  1.3594 -1.0149
 2709SOL    HW210835   9.098   2.165   2.506 -2.2296 -1.5390  1.2981
 2709SOL     MW10836   9.065   2.232   2.552 -0.3314  0.3950  0.0251
 2710SOL     OW10837  10.105   5.604   1.320 -0.6067 -0.2712 -0.5383
 2710SOL    HW110838  10.145   5.643   1.242  1.0469  0.1410  0.4640
 2710SOL    HW210839  10.175   5.603   1.385 -1.9235 -0.6519  0.9408
 2710SOL     MW10840  10.119   5.609   1.319 -0.5636 -0.2672 -0.2206
 2711SOL     OW10841   7.566   4.331   1.549  0.3461 -0.5750  0.2765
 2711SOL    HW110842   7.537   4.254   1.500 -3.3810  0.6776  0.2124
 2711SOL    HW210843   7.540   4.405   1.494  0.4342  0.7865  2.0068
 2711SOL     MW10844   7.559   4.331   1.535 -0.1197 -0.2404  0.4898
 2712SOL     OW10845   6.680   9.729   1.399 -0.2280  0.2432  0.1098
 2712SOL    HW110846   6.686   9.784   1.321  0.6753  0.7380  0.5136
 2712SOL    HW210847   6.586   9.714   1.411 -0.3400 -0.7619 -1.7001
 2712SOL     MW10848   6.669   9.734   1.390 -0.1267  0.1779 -0.0702
 2713SOL     OW10849   6.828   2.520   0.384 -0.5685 -0.7341 -0.2197
 2713SOL    HW110850   6.852   2.612   0.386  0.8176 -1.0460 -0.7943
 2713SOL    HW210851   6.870   2.483   0.462 -1.3279 -0.8348  0.1441
 2713SOL     MW10852   6.837   2.527   0.394 -0.4883 -0.7869 -0.2467
 2714SOL     OW10853   7.189   1.633   1.026 -0.2345 -0.4611  0.7277
 2714SOL    HW110854   7.124   1.632   1.096  0.7237 -0.4617  1.6462
 2714SOL    HW210855   7.217   1.542   1.019 -2.6108 -1.1154 -1.9129
 2714SOL     MW10856   7.185   1.621   1.034 -0.4161 -0.5449  0.5072
 2715SOL     OW10857   9.745   5.667   1.241  0.2085  0.7049 -0.0419
 2715SOL    HW110858   9.738   5.574   1.261  1.8773  0.7933  1.1961
 2715SOL    HW210859   9.661   5.704   1.267 -0.0589 -0.2811  0.5299
 2715SOL     MW10860   9.733   5.660   1.247  0.3879  0.5900  0.1898
 2716SOL     OW10861   9.815   2.547   1.102  0.1334 -0.7594 -0.0194
 2716SOL    HW110862   9.720   2.556   1.111  0.2047 -0.3096  0.3441
 2716SOL    HW210863   9.827   2.484   1.032 -0.4285 -0.1079 -0.7138
 2716SOL     MW10864   9.804   2.540   1.094  0.0706 -0.6184 -0.0617
 2717SOL     OW10865   9.736   2.235   9.964  0.2811  0.0608  0.1040
 2717SOL    HW110866   9.764   2.295   9.895  0.1251 -0.2828 -0.2636
 2717SOL    HW210867   9.765   2.148   9.934 -1.2558 -0.3261 -0.3575
 2717SOL     MW10868   9.743   2.231   9.951  0.0644 -0.0327 -0.0021
 2718SOL     OW10869   7.317   8.884   9.106 -0.2515 -0.3323  0.1051
 2718SOL    HW110870   7.311   8.969   9.149 -1.1432  0.2339 -1.0693
 2718SOL    HW210871   7.356   8.904   9.020  0.4002 -1.2542  0.1692
 2718SOL     MW10872   7.321   8.897   9.100 -0.2822 -0.3779 -0.0370
 2719SOL     OW10873   6.698   5.690   0.747 -0.0093  0.1698 -0.0889
 2719SOL    HW110874   6.664   5.700   0.836 -0.5809 -1.2976 -0.1163
 2719SOL    HW210875   6.761   5.618   0.754 -1.6018 -1.4141 -1.2347
 2719SOL     MW10876   6.702   5.682   0.760 -0.2863 -0.2208 -0.2391
 2720SOL     OW10877   9.706   4.027   1.505 -0.1379 -0.3657  0.7969
 2720SOL    HW110878   9.696   4.066   1.418  0.3128 -0.5657  0.6561
 2720SOL    HW210879   9.781   4.073   1.543 -0.7671  0.2285  1.3624
 2720SOL     MW10880   9.714   4.038   1.499 -0.1607 -0.3153  0.8513
 2721SOL     OW10881   8.835   2.177   0.149  0.2068 -0.2809  0.2436
 2721SOL    HW110882   8.814   2.226   0.229 -0.7597  2.0251 -1.3091
 2721SOL    HW210883   8.770   2.106   0.146 -0.8031  0.5957  0.6982
 2721SOL     MW10884   8.824   2.174   0.159 -0.0462  0.1265  0.1030
 2722SOL     OW10885   9.120   8.591   1.885 -0.7530  0.1057 -0.3787
 2722SOL    HW110886   9.073   8.669   1.915 -2.6596 -0.7446 -1.0387
 2722SOL    HW210887   9.174   8.623   1.812 -1.7260  0.7653 -0.8289
 2722SOL     MW10888   9.121   8.605   1.880 -1.1216  0.0813 -0.5208
 2723SOL     OW10889   0.317   7.943   1.399 -0.5161 -0.2382 -0.1325
 2723SOL    HW110890   0.279   8.031   1.395  1.0019  0.4571  0.0973
 2723SOL    HW210891   0.313   7.911   1.309 -0.8524  0.1572 -0.2624
 2723SOL     MW10892   0.312   7.950   1.387 -0.3649 -0.0986 -0.1197
 2724SOL     OW10893   8.610   9.192   8.463  0.3003 -0.2674 -0.0534
 2724SOL    HW110894   8.573   9.107   8.487  0.9930 -0.5827 -0.0787
 2724SOL    HW210895   8.608   9.192   8.367 -1.1444  0.4015 -0.0443
 2724SOL     MW10896   8.605   9.181   8.453  0.2040 -0.2221 -0.0555
 2725SOL     OW10897   6.876   8.274   2.339  0.2976  0.3172  0.0863
 2725SOL    HW110898   6.905   8.200   2.392 -3.0125 -0.1594  1.4381
 2725SOL    HW210899   6.857   8.235   2.253 -0.9148 -0.3395  0.6302
 2725SOL     MW10900   6.878   8.259   2.335 -0.2813  0.1721  0.3290
 2726SOL     OW10901   8.865   5.682   9.072 -0.2131  0.1456 -0.1799
 2726SOL    HW110902   8.926   5.617   9.037 -1.5542 -1.0505 -0.4178
 2726SOL    HW210903   8.910   5.719   9.147  0.9565 -0.4219 -0.5668
 2726SOL     MW10904   8.878   5.678   9.077 -0.2350 -0.0802 -0.2599
 2727SOL     OW10905   8.307   3.861   2.723  0.4589  0.0764 -0.2493
 2727SOL    HW110906   8.338   3.811   2.798 -0.0494 -1.3262 -0.9432
 2727SOL    HW210907   8.387   3.888   2.678  0.7776  1.0827  0.8469
 2727SOL     MW10908   8.322   3.858   2.727  0.4346  0.0256 -0.1978
 2728SOL     OW10909   9.121   5.936  10.079  0.1834  0.2527 -0.2122
 2728SOL    HW110910   9.030   5.951  10.055  0.8114  1.5374 -1.9766
 2728SOL    HW210911   9.133   5.986  10.160 -0.6822  0.0726  0.0314
 2728SOL     MW10912   9.111   5.945  10.086  0.1530  0.3941 -0.4068
 2729SOL     OW10913   9.328   1.031  10.077  0.1607  0.6293 -0.1017
 2729SOL    HW110914   9.295   0.944  10.052  0.2181  0.6730 -0.3384
 2729SOL    HW210915   9.423   1.020  10.081  0.1398  0.5810  0.2723
 2729SOL     MW10916   9.336   1.019  10.074  0.1654  0.6288 -0.0841
 2730SOL     OW10917   7.526   3.348   1.980 -0.8551  0.0703  0.3415
 2730SOL    HW110918   7.508   3.402   1.903 -0.6321 -0.2402  0.0701
 2730SOL    HW210919   7.601   3.390   2.022 -0.9050  0.1732  0.3292
 2730SOL     MW10920   7.533   3.360   1.975 -0.8330  0.0437  0.3052
 2731SOL     OW10921   6.173   9.295   1.801  0.7555  0.6453 -0.4480
 2731SOL    HW110922   6.132   9.358   1.742 -0.0394 -0.3172 -0.9492
 2731SOL    HW210923   6.219   9.234   1.743  1.0883  0.4574  0.0045
 2731SOL     MW10924   6.174   9.295   1.786  0.6963  0.4980 -0.4542
 2732SOL     OW10925   9.766   0.596   2.209  0.0894 -0.5844 -0.2977
 2732SOL    HW110926   9.788   0.643   2.289 -1.3335 -1.0916  0.4319
 2732SOL    HW210927   9.850   0.564   2.176  0.8194  0.5188  0.4108
 2732SOL     MW10928   9.779   0.598   2.215  0.0007 -0.5081 -0.1136
 2733SOL     OW10929   8.861   1.735   9.897  0.8253  0.4851  0.0027
 2733SOL    HW110930   8.862   1.689   9.814 -1.1041  0.9492 -0.3107
 2733SOL    HW210931   8.916   1.812   9.883  1.1263  0.1654 -0.5859
 2733SOL     MW10932   8.868   1.739   9.885  0.6169  0.5036 -0.1128
 2734SOL     OW10933   7.995   2.220   9.471 -0.3146 -0.1489 -0.2294
 2734SOL    HW110934   8.026   2.210   9.561 -1.2277  0.7817  0.2082
 2734SOL    HW210935   7.918   2.164   9.466 -1.1698  0.9629  0.0549
 2734SOL     MW10936   7.990   2.212   9.482 -0.5410  0.1125 -0.1370
 2735SOL     OW10937   7.761  10.059   1.455 -0.2557 -0.5543 -0.2936
 2735SOL    HW110938   7.797  10.055   1.366 -0.5521  2.9335 -0.7197
 2735SOL    HW210939   7.668  10.073   1.442 -0.2690  0.2006  0.5632
 2735SOL     MW10940   7.754  10.060   1.442 -0.2953 -0.0112 -0.2384
 2736SOL     OW10941   9.627   1.107   0.503 -0.0852 -0.1167 -0.3619
 2736SOL    HW110942   9.631   1.038   0.438  0.1837  0.2267 -0.7108
 2736SOL    HW210943   9.620   1.188   0.453 -0.3814  0.1132  0.0416
 2736SOL     MW10944   9.627   1.108   0.489 -0.0887 -0.0433 -0.3549
 2737SOL     OW10945   8.631   4.201   0.705 -0.2772  0.5927 -0.1238
 2737SOL    HW110946   8.609   4.167   0.618 -0.4697 -1.4312  0.6756
 2737SOL    HW210947   8.547   4.227   0.743 -0.6465 -1.5560  0.6491
 2737SOL     MW10948   8.618   4.200   0.698 -0.3491  0.0585  0.0775
 2738SOL     OW10949   7.889   2.138   0.039  0.0877 -0.1696 -0.3254
 2738SOL    HW110950   7.847   2.081   0.104  0.4025  1.8703  1.7905
 2738SOL    HW210951   7.980   2.109   0.037  0.3937  0.5759  1.2108
 2738SOL     MW10952   7.895   2.127   0.047  0.1672  0.1869  0.1421
 2739SOL     OW10953   7.922   3.187   9.562 -0.1812 -0.4048  0.0553
 2739SOL    HW110954   7.886   3.132   9.493 -1.0084  0.5429 -0.2892
 2739SOL    HW210955   8.017   3.172   9.557 -0.2235 -0.3896 -1.2666
 2739SOL     MW10956   7.930   3.178   9.552 -0.2925 -0.2816 -0.1580
 2740SOL     OW10957   8.952   9.892   9.815 -0.2795  0.0573  0.5706
 2740SOL    HW110958   9.024   9.863   9.871  0.6507 -2.2400 -1.6263
 2740SOL    HW210959   8.960   9.987   9.814  2.5107 -0.0907  0.7203
 2740SOL     MW10960   8.962   9.901   9.822  0.1967 -0.2558  0.3085
 2741SOL     OW10961   9.100   4.714  10.001  0.3441  0.2990 -0.1738
 2741SOL    HW110962   9.039   4.787   9.989  1.0188  0.4902 -3.5320
 2741SOL    HW210963   9.178   4.741   9.952  1.7860 -1.4254  1.0622
 2741SOL     MW10964   9.102   4.727   9.993  0.6151  0.1027 -0.4455
 2742SOL     OW10965   8.260   1.188   2.719  0.3624  0.2619 -0.1898
 2742SOL    HW110966   8.334   1.217   2.773  0.9618  0.8924 -1.3148
 2742SOL    HW210967   8.288   1.103   2.684 -0.3722 -0.5537  1.1223
 2742SOL     MW10968   8.273   1.181   2.722  0.3451  0.2382 -0.1658
 2743SOL     OW10969   8.228   9.216   3.206  0.6109 -0.0460 -0.3655
 2743SOL    HW110970   8.267   9.153   3.267 -0.5694  0.2152  0.6935
 2743SOL    HW210971   8.279   9.206   3.126  1.4381 -1.2451  0.2776
 2743SOL     MW10972   8.240   9.207   3.204  0.5657 -0.1661 -0.1476
 2744SOL     OW10973   6.436   8.738  10.133  0.0925  0.3994  0.4126
 2744SOL    HW110974   6.421   8.828  10.162  0.7846  1.1588 -1.4670
 2744SOL    HW210975   6.351   8.709  10.100  0.3122  1.0920 -0.8153
 2744SOL     MW10976   6.423   8.746  10.133  0.2092  0.5852  0.0148
 2745SOL     OW10977   7.736   9.471   3.218 -0.0613  0.0202 -0.2056
 2745SOL    HW110978   7.658   9.484   3.271  1.3905  1.3336  1.7851
 2745SOL    HW210979   7.719   9.520   3.137 -0.9640  1.0653  0.5853
 2745SOL     MW10980   7.724   9.479   3.214  0.0090  0.3221  0.1505
 2746SOL     OW10981   7.030   2.453   1.544 -0.3412 -0.1978  0.0307
 2746SOL    HW110982   7.003   2.466   1.453 -0.2844  1.0793  0.1738
 2746SOL    HW210983   7.125   2.464   1.543 -0.2588 -0.8643  0.1420
 2746SOL     MW10984   7.039   2.456   1.532 -0.3234 -0.1196  0.0633
 2747SOL     OW10985   8.324   2.493   3.276 -0.6388 -0.3894  0.7338
 2747SOL    HW110986   8.357   2.486   3.366 -0.4574 -2.3183  0.5606
 2747SOL    HW210987   8.302   2.403   3.252 -1.3999  0.2012 -0.9007
 2747SOL     MW10988   8.325   2.481   3.285 -0.7130 -0.5607  0.5024
 2748SOL     OW10989   9.387   3.421   1.311  0.2733 -0.1166  0.2312
 2748SOL    HW110990   9.442   3.385   1.241 -1.6027  0.9693 -1.9381
 2748SOL    HW210991   9.448   3.438   1.383  2.2351 -1.6553 -0.9460
 2748SOL     MW10992   9.402   3.418   1.311  0.2843 -0.1746 -0.1972
 2749SOL     OW10993   9.796   1.096   9.755  0.1780  0.4727  0.5176
 2749SOL    HW110994   9.756   1.182   9.740 -0.6246  0.0107 -0.0729
 2749SOL    HW210995   9.880   1.116   9.796 -0.4885  1.4826  1.4407
 2749SOL     MW10996   9.802   1.110   9.758 -0.0101  0.5428  0.5602
 2750SOL     OW10997   9.991   1.739   1.928  0.0898 -0.0575  0.0970
 2750SOL    HW110998  10.016   1.649   1.949 -1.6875 -0.4804  0.6444
 2750SOL    HW210999   9.935   1.731   1.850  0.2584  0.6171 -0.0975
 2750SOL     MW11000   9.987   1.727   1.921 -0.1161 -0.0252  0.1422
 2751SOL     OW11001   9.845   7.328   2.315 -0.2285  0.3116  0.1061
 2751SOL    HW111002   9.796   7.407   2.337 -0.5528  0.3414 -0.6601
 2751SOL    HW211003   9.936   7.356   2.311 -0.3387  0.6472 -0.1291
 2751SOL     MW11004   9.850   7.341   2.317 -0.2841  0.3584 -0.0221
 2752SOL     OW11005   7.283   9.136   9.248 -0.0506  0.2018  0.2511
 2752SOL    HW111006   7.204   9.190   9.242  0.0991  0.5973  1.5179
 2752SOL    HW211007   7.293   9.118   9.342  1.4206  0.2379  0.1218
 2752SOL     MW11008   7.274   9.140   9.260  0.1569  0.2571  0.3967
 2753SOL     OW11009   9.753   6.605   0.212 -0.4969  0.0442 -0.4881
 2753SOL    HW111010   9.763   6.528   0.157  0.8103  1.1072 -1.8099
 2753SOL    HW211011   9.671   6.646   0.184 -0.4684 -0.0989 -0.7755
 2753SOL     MW11012   9.744   6.601   0.202 -0.3259  0.1619 -0.6941
 2754SOL     OW11013   7.157   2.703   2.540 -0.3362 -0.0461 -0.2990
 2754SOL    HW111014   7.139   2.791   2.573  1.8167  1.0435 -1.8000
 2754SOL    HW211015   7.088   2.687   2.476 -1.1114  0.2614  0.4369
 2754SOL     MW11016   7.146   2.712   2.536 -0.1598  0.1327 -0.3970
 2755SOL     OW11017   6.483   6.541   0.752 -0.2421  0.0608  0.3790
 2755SOL    HW111018   6.403   6.499   0.720  0.3229 -0.2231 -0.7193
 2755SOL    HW211019   6.468   6.635   0.740  0.2537 -0.0761 -1.4946
 2755SOL     MW11020   6.470   6.548   0.747 -0.1063  0.0069 -0.0014
 2756SOL     OW11021   8.982   6.660   2.429  0.2971  0.0102 -0.0876
 2756SOL    HW111022   9.042   6.633   2.359 -0.0523  0.5883 -0.6260
 2756SOL    HW211023   8.997   6.597   2.499 -0.0046 -1.1611 -1.0316
 2756SOL     MW11024   8.992   6.648   2.429  0.2137 -0.0658 -0.2774
 2757SOL     OW11025   9.366   4.182   0.902  0.1328 -0.1357 -0.2028
 2757SOL    HW111026   9.374   4.093   0.938  1.0446 -0.4421 -1.0937
 2757SOL    HW211027   9.406   4.176   0.815 -0.4232  0.9947 -0.5583
 2757SOL     MW11028   9.372   4.170   0.895  0.1784 -0.0302 -0.3624
 2758SOL     OW11029   6.879   3.103   0.787  0.3751 -0.0276 -0.3823
 2758SOL    HW111030   6.893   3.059   0.871  1.4998  0.5162 -0.2726
 2758SOL    HW211031   6.874   3.031   0.724  4.1346 -0.4102 -0.5044
 2758SOL     MW11032   6.880   3.088   0.790  1.0003 -0.0070 -0.3839
 2759SOL     OW11033   6.784   2.237   1.709 -0.3511 -0.4446  0.2019
 2759SOL    HW111034   6.802   2.285   1.790  1.0536 -0.2143 -0.2076
 2759SOL    HW211035   6.720   2.291   1.663 -0.4460 -0.0891  0.7423
 2759SOL     MW11036   6.778   2.250   1.714 -0.1834 -0.3696  0.2187
 2760SOL     OW11037   9.187   7.837   2.610 -0.1059  0.1745 -0.4694
 2760SOL    HW111038   9.250   7.782   2.657  0.5612  0.7616 -0.6747
 2760SOL    HW211039   9.109   7.835   2.665  0.1696 -0.3636 -0.0887
 2760SOL     MW11040   9.185   7.830   2.623  0.0148  0.1807 -0.4469
 2761SOL     OW11041   8.877   8.311   8.894 -0.5972 -0.0886 -0.1534
 2761SOL    HW111042   8.875   8.244   8.962 -0.3968 -1.7489 -1.6959
 2761SOL    HW211043   8.786   8.319   8.867 -0.7355  0.8667  0.5668
 2761SOL     MW11044   8.865   8.303   8.899 -0.5892 -0.1788 -0.2586
 2762SOL     OW11045   6.023   1.204   1.493  0.2076 -0.0256 -0.2186
 2762SOL    HW111046   5.966   1.141   1.448 -0.2248  0.2324 -0.0425
 2762SOL    HW211047   6.103   1.205   1.440  0.1187 -0.5192 -0.3753
 2762SOL     MW11048   6.026   1.196   1.480  0.1409 -0.0558 -0.2161
 2763SOL     OW11049   9.328   7.882   8.815  0.2254  0.4359  0.4337
 2763SOL    HW111050   9.284   7.952   8.864 -1.7563  0.0606 -0.7153
 2763SOL    HW211051   9.383   7.929   8.752 -1.3465  1.0252 -0.5579
 2763SOL     MW11052   9.330   7.897   8.813 -0.2295  0.4633  0.1597
 2764SOL     OW11053   8.129   0.966   0.556 -0.2740  0.1791  0.3035
 2764SOL    HW111054   8.134   0.875   0.527 -1.8702 -0.0604  0.6650
 2764SOL    HW211055   8.220   0.992   0.570  0.2103 -1.3747  0.2398
 2764SOL     MW11056   8.141   0.958   0.554 -0.4163 -0.0505  0.3416
 2765SOL     OW11057   9.899   2.119   0.363 -0.1129 -0.2931 -0.1562
 2765SOL    HW111058   9.980   2.080   0.397  1.4045  1.4961 -1.5088
 2765SOL    HW211059   9.868   2.176   0.433 -0.5330 -1.3884  0.5714
 2765SOL     MW11060   9.905   2.121   0.376  0.0276 -0.2043 -0.2362
 2766SOL     OW11061   8.927   2.042   1.069  0.1601 -1.0021  0.2695
 2766SOL    HW111062   9.022   2.031   1.066  0.2428 -0.3577  0.2018
 2766SOL    HW211063   8.908   2.098   0.993 -0.2270 -0.8631  0.4673
 2766SOL     MW11064   8.937   2.048   1.059  0.1211 -0.9018  0.2861
 2767SOL     OW11065   7.569   3.700   2.148 -0.2058 -0.8196 -0.4337
 2767SOL    HW111066   7.503   3.686   2.080  0.4438 -1.2780 -0.9817
 2767SOL    HW211067   7.523   3.751   2.215 -0.1720  2.0039 -2.3846
 2767SOL     MW11068   7.554   3.705   2.148 -0.1183 -0.5168 -0.7536
 2768SOL     OW11069   9.227   9.760   0.103 -0.4873 -0.5730 -0.2271
 2768SOL    HW111070   9.142   9.721   0.124 -1.1989  0.3254 -1.3632
 2768SOL    HW211071   9.276   9.688   0.063 -0.9152 -0.9314 -0.1225
 2768SOL     MW11072   9.223   9.746   0.101 -0.6332 -0.5039 -0.3592
 2769SOL     OW11073   7.760   2.047   2.079 -0.2929  0.0657 -0.0619
 2769SOL    HW111074   7.825   1.979   2.063  0.8090  0.9842  0.3303
 2769SOL    HW211075   7.722   2.024   2.164  0.8268  0.4721  0.5818
 2769SOL     MW11076   7.763   2.036   2.088 -0.0085  0.2353  0.0707
 2770SOL     OW11077   8.068   1.948   0.411 -0.0146  0.8292  0.0651
 2770SOL    HW111078   8.149   1.899   0.427 -1.0133 -1.1887 -0.6553
 2770SOL    HW211079   8.029   1.959   0.497  0.7049  1.2797  0.3472
 2770SOL     MW11080   8.074   1.943   0.424 -0.0504  0.6285  0.0090
 2771SOL     OW11081   8.237   0.781   9.275 -0.2773  0.6640  0.1535
 2771SOL    HW111082   8.326   0.772   9.242  0.7497  0.4807  2.7448
 2771SOL    HW211083   8.226   0.875   9.289 -0.5982  0.7083 -0.3518
 2771SOL     MW11084   8.247   0.792   9.272 -0.1869  0.6462  0.4206
 2772SOL     OW11085   8.373   4.217   0.203 -0.3997  0.1265 -0.0957
 2772SOL    HW111086   8.353   4.245   0.292  0.8616 -0.8099  0.5283
 2772SOL    HW211087   8.288   4.201   0.163 -0.9919 -1.1444  1.5296
 2772SOL     MW11088   8.360   4.218   0.210 -0.3141 -0.1560  0.1922
 2773SOL     OW11089   9.703  10.165   1.341  0.0676  0.3573  0.3327
 2773SOL    HW111090   9.782  10.147   1.391  1.2187  0.1916 -1.4349
 2773SOL    HW211091   9.717  10.120   1.257 -2.2232 -0.2779  0.2282
 2773SOL     MW11092   9.715  10.157   1.336 -0.0783  0.2548  0.0930
 2774SOL     OW11093   0.082   9.287   1.480 -0.6806 -0.5364 -0.1826
 2774SOL    HW111094   0.126   9.267   1.563 -0.7990  1.6461  0.4749
 2774SOL    HW211095  -0.003   9.244   1.487 -0.4127 -0.9758  0.5185
 2774SOL     MW11096   0.077   9.279   1.492 -0.6615 -0.3132 -0.0087
 2775SOL     OW11097   7.843   6.823   1.338  0.3196  0.0591 -0.2261
 2775SOL    HW111098   7.874   6.914   1.339  1.8683 -0.4438  0.9361
 2775SOL    HW211099   7.750   6.831   1.315 -0.2241  2.1820  2.1527
 2775SOL     MW11100   7.835   6.836   1.336  0.4482  0.2665  0.2272
 2776SOL     OW11101   7.560   0.950   2.110 -0.0515  0.1917 -0.2038
 2776SOL    HW111102   7.513   1.007   2.049 -2.4020  0.1181  1.4125
 2776SOL    HW211103   7.549   0.862   2.075  1.2345  0.4025 -1.2303
 2776SOL     MW11104   7.553   0.946   2.098 -0.1878  0.2093 -0.1283
 2777SOL     OW11105   8.050   5.667   9.282 -0.3463  0.1385 -0.2525
 2777SOL    HW111106   8.078   5.669   9.190 -1.9187  0.5870 -0.7473
 2777SOL    HW211107   7.963   5.627   9.280 -1.4087  2.2305  0.7312
 2777SOL     MW11108   8.043   5.662   9.270 -0.6836  0.4638 -0.1899
 2778SOL     OW11109   8.087   7.867   1.207  0.1050  0.4285  0.2039
 2778SOL    HW111110   8.113   7.954   1.179 -0.7862  0.9373  0.8881
 2778SOL    HW211111   7.995   7.859   1.180 -0.3230  0.3663  1.5890
 2778SOL     MW11112   8.079   7.877   1.200 -0.0639  0.4856  0.4688
 2779SOL     OW11113   8.709   2.547   9.236 -0.2826 -0.0943  0.1856
 2779SOL    HW111114   8.776   2.520   9.299 -0.0525  0.1309  0.0415
 2779SOL    HW211115   8.756   2.603   9.174 -0.6886  0.3892  0.3114
 2779SOL     MW11116   8.723   2.551   9.236 -0.3051 -0.0036  0.1832
 2780SOL     OW11117   8.070   3.986   2.233 -0.1485 -0.5514  0.1127
 2780SOL    HW111118   8.104   4.073   2.213  0.6614 -0.8584  0.1139
 2780SOL    HW211119   7.976   3.992   2.213 -0.3874  0.7293  1.4675
 2780SOL     MW11120   8.062   3.998   2.228 -0.0754 -0.4267  0.2863
 2781SOL     OW11121   8.857   6.768   0.963 -0.1856  0.1326  1.5075
 2781SOL    HW111122   8.878   6.800   1.051 -0.0602  1.1421  1.1281
 2781SOL    HW211123   8.940   6.737   0.928  0.0267  0.9620  1.2626
 2781SOL     MW11124   8.870   6.768   0.970 -0.1424  0.3680  1.4276
 2782SOL     OW11125   7.654   4.577   1.818  0.2017 -0.3285  0.2214
 2782SOL    HW111126   7.576   4.598   1.869 -0.5970 -1.6087 -0.4245
 2782SOL    HW211127   7.650   4.483   1.805  0.9992 -0.1998 -1.2028
 2782SOL     MW11128   7.643   4.568   1.823  0.2015 -0.4759 -0.0436
 2783SOL     OW11129   7.734   8.046   2.792 -0.6772 -0.2419 -0.2265
 2783SOL    HW111130   7.734   8.141   2.791 -1.0776 -0.2436 -1.1466
 2783SOL    HW211131   7.751   8.023   2.884  2.1250  0.6957 -0.4099
 2783SOL     MW11132   7.736   8.055   2.804 -0.3698 -0.1221 -0.3678
 2784SOL     OW11133   9.200   9.945   2.040 -0.0702  0.2910  0.3152
 2784SOL    HW111134   9.110   9.921   2.020  0.1159  0.1846 -0.4117
 2784SOL    HW211135   9.191  10.019   2.101 -0.6622  0.8497 -0.4179
 2784SOL     MW11136   9.187   9.952   2.046 -0.1222  0.3489  0.1283
 2785SOL     OW11137   8.650   1.529   9.637  0.3461  0.3258  0.1135
 2785SOL    HW111138   8.581   1.497   9.696 -1.6878 -0.1532 -2.3554
 2785SOL    HW211139   8.625   1.619   9.617  0.9391  0.4393 -0.1331
 2785SOL     MW11140   8.638   1.536   9.642  0.1616  0.2790 -0.2341
 2786SOL     OW11141   9.711   2.266   1.209  0.0607  0.2646 -0.1529
 2786SOL    HW111142   9.727   2.356   1.236  0.5091 -0.3773  1.8418
 2786SOL    HW211143   9.768   2.213   1.264 -0.5618 -1.2874 -0.9297
 2786SOL     MW11144   9.720   2.270   1.219  0.0384 -0.0163  0.0030
 2787SOL     OW11145   0.223   2.700   1.881  0.7423  0.1344  0.9273
 2787SOL    HW111146   0.142   2.714   1.832  1.8114  1.2529 -0.6681
 2787SOL    HW211147   0.287   2.674   1.814  1.7100 -0.7132  2.1327
 2787SOL     MW11148   0.221   2.698   1.866  1.0030  0.1691  0.8774
 2788SOL     OW11149   6.128   8.600  10.085 -0.1957  0.4974 -0.1255
 2788SOL    HW111150   6.062   8.597  10.015 -0.6548 -0.0440  0.3269
 2788SOL    HW211151   6.191   8.532  10.061  0.6590  1.5493 -0.9901
 2788SOL     MW11152   6.127   8.591  10.073 -0.1451  0.5627 -0.1783
 2789SOL     OW11153   8.297   1.808   0.973  0.5704  0.0183 -0.0887
 2789SOL    HW111154   8.384   1.776   0.949  0.4384  0.8518 -1.8734
 2789SOL    HW211155   8.314   1.885   1.026  0.8849 -1.0121  1.3650
 2789SOL     MW11156   8.311   1.814   0.977  0.5937 -0.0069 -0.1310
 2790SOL     OW11157   7.531  10.063   1.902  0.0736  0.1026 -0.4325
 2790SOL    HW111158   7.593  10.097   1.966  2.0763 -0.9232 -1.7046
 2790SOL    HW211159   7.465  10.132   1.893  1.0247  1.2538  0.9888
 2790SOL     MW11160   7.531  10.077   1.909  0.4518  0.1187 -0.4134
 2791SOL     OW11161   7.326   0.795   9.136  0.2123 -0.0254  0.3482
 2791SOL    HW111162   7.319   0.717   9.192 -0.8517  0.3958  0.8311
 2791SOL    HW211163   7.291   0.866   9.190 -0.3839  0.4789 -0.6756
 2791SOL     MW11164   7.321   0.794   9.150 -0.0002  0.0931  0.2789
 2792SOL     OW11165   0.015   7.184   2.275 -0.2396 -0.0100  0.4824
 2792SOL    HW111166   0.054   7.178   2.188  0.7762  0.9107  0.8469
 2792SOL    HW211167  -0.007   7.094   2.298 -0.1521 -0.3071 -0.5592
 2792SOL     MW11168   0.017   7.171   2.267 -0.0984  0.0699  0.3957
 2793SOL     OW11169   8.927   6.910   2.498 -0.3457  0.1121 -0.5016
 2793SOL    HW111170   8.983   6.957   2.559 -1.2894 -0.0476  0.5288
 2793SOL    HW211171   8.972   6.827   2.483  0.2734  0.4699 -0.6384
 2793SOL     MW11172   8.940   6.905   2.504 -0.3873  0.1375 -0.3872
 2794SOL     OW11173   8.626   3.148   0.058 -0.0272 -0.3960  0.3638
 2794SOL    HW111174   8.684   3.196   0.118  1.0285 -1.3569  0.1584
 2794SOL    HW211175   8.542   3.193   0.064  0.3514  0.1776  1.7606
 2794SOL     MW11176   8.623   3.159   0.067  0.1564 -0.4456  0.5164
 2795SOL     OW11177   9.271   8.202   9.406  0.3161 -0.0517 -0.6022
 2795SOL    HW111178   9.323   8.134   9.450 -0.8045  1.1021  2.8195
 2795SOL    HW211179   9.188   8.159   9.385  0.4566 -0.3513 -0.5516
 2795SOL     MW11180   9.267   8.188   9.409  0.1906  0.0576 -0.1577
 2796SOL     OW11181   8.303   5.558   9.082 -0.1524  0.3963  0.2700
 2796SOL    HW111182   8.386   5.597   9.112 -0.9478  2.0598  0.4401
 2796SOL    HW211183   8.257   5.631   9.039 -0.7783 -0.9364 -1.4313
 2796SOL     MW11184   8.308   5.573   9.080 -0.3343  0.4387  0.0739
 2797SOL     OW11185   7.528   1.210   1.258  0.2964 -0.7971  0.4263
 2797SOL    HW111186   7.549   1.214   1.351  0.4560 -2.5469  0.5073
 2797SOL    HW211187   7.485   1.125   1.247 -0.3210 -0.3277 -0.9852
 2797SOL     MW11188   7.525   1.200   1.268  0.2378 -0.9610  0.2560
 2798SOL     OW11189   6.588   8.801   9.557  0.1916 -0.0037 -0.0676
 2798SOL    HW111190   6.501   8.822   9.525  1.1923  1.6592 -1.9355
 2798SOL    HW211191   6.605   8.868   9.624  1.0894  1.5987 -1.7982
 2798SOL     MW11192   6.579   8.812   9.561  0.4346  0.4143 -0.5282
 2799SOL     OW11193   8.779   0.349   9.132 -0.2887  0.0422 -0.1645
 2799SOL    HW111194   8.687   0.322   9.125 -0.4639  0.1023  1.5813
 2799SOL    HW211195   8.776   0.445   9.124  0.0741 -0.1189 -3.8437
 2799SOL     MW11196   8.767   0.358   9.130 -0.2647  0.0293 -0.4120
 2800SOL     OW11197   9.966   1.645  10.043  0.0771 -0.1333  0.0866
 2800SOL    HW111198   9.965   1.705   9.968 -0.7612  0.4101  0.5234
 2800SOL    HW211199  10.015   1.569  10.011 -0.0120  0.2110 -0.9166
 2800SOL     MW11200   9.972   1.643  10.029 -0.0416 -0.0197  0.0141
 2801SOL     OW11201   9.681   1.529   1.399 -0.6344 -0.4708  0.3996
 2801SOL    HW111202   9.690   1.540   1.305 -2.8386  0.1087  0.1937
 2801SOL    HW211203   9.747   1.587   1.437  0.0823 -0.4975 -0.7788
 2801SOL     MW11204   9.690   1.538   1.392 -0.8248 -0.4000  0.2224
 2802SOL     OW11205   8.346   5.595   9.859  0.3042  0.0364  0.4313
 2802SOL    HW111206   8.390   5.620   9.940  2.4413 -1.0816 -0.3231
 2802SOL    HW211207   8.414   5.557   9.804 -1.1915  0.2117 -1.6961
 2802SOL     MW11208   8.360   5.594   9.862  0.3863 -0.0843  0.0624
 2803SOL     OW11209   7.243   8.101   9.177 -0.0473 -0.3011  0.1423
 2803SOL    HW111210   7.219   8.054   9.097 -1.4021  0.1077  0.2922
 2803SOL    HW211211   7.239   8.035   9.246  0.5357 -0.5192 -0.0232
 2803SOL     MW11212   7.240   8.087   9.175 -0.1461 -0.2767  0.1403
 2804SOL     OW11213   8.873   2.056   1.832 -0.7801 -0.1271  0.3795
 2804SOL    HW111214   8.815   1.980   1.839  0.5762 -1.3147 -0.7153
 2804SOL    HW211215   8.823   2.120   1.781 -1.5480 -0.6588  0.4481
 2804SOL     MW11216   8.859   2.055   1.826 -0.7048 -0.3472  0.2481
 2805SOL     OW11217   7.546   6.097   2.812  0.0955  0.2068 -0.6465
 2805SOL    HW111218   7.573   6.042   2.738 -1.0165 -0.7824 -0.3462
 2805SOL    HW211219   7.602   6.070   2.884  1.2701  1.2607 -1.1189
 2805SOL     MW11220   7.557   6.087   2.812  0.1035  0.2151 -0.6686
 2806SOL     OW11221   9.423   6.310   0.024 -0.4208 -0.2446  0.0012
 2806SOL    HW111222   9.453   6.320   0.115  0.7528 -0.7316 -0.3083
 2806SOL    HW211223   9.503   6.290  -0.025 -1.0178  0.1191 -1.1645
 2806SOL     MW11224   9.437   6.309   0.030 -0.3470 -0.2604 -0.1877
 2807SOL     OW11225   8.208   1.301   2.471 -0.0079  0.0074 -0.0143
 2807SOL    HW111226   8.122   1.269   2.444  0.4063  0.2684 -1.7622
 2807SOL    HW211227   8.224   1.259   2.555 -0.1605 -3.1930 -1.4225
 2807SOL     MW11228   8.199   1.292   2.478  0.0256 -0.3689 -0.4183
 2808SOL     OW11229   9.001   9.554   0.847  0.6354 -0.0148  0.8738
 2808SOL    HW111230   9.095   9.567   0.857  0.4515  1.6362  0.8396
 2808SOL    HW211231   8.962   9.610   0.914 -0.3420  0.9128 -0.4185
 2808SOL     MW11232   9.008   9.563   0.857  0.4867  0.3153  0.7040
 2809SOL     OW11233   6.896   2.103   0.826  0.4238  0.0583  0.3455
 2809SOL    HW111234   6.839   2.113   0.750  0.8138  1.5710  0.2165
 2809SOL    HW211235   6.842   2.061   0.892  0.0811 -1.3164 -0.7569
 2809SOL     MW11236   6.882   2.099   0.824  0.4299  0.0760  0.1878
 2810SOL     OW11237   0.218   2.177   2.258  0.3161 -0.7452 -0.2779
 2810SOL    HW111238   0.208   2.083   2.272 -2.0635 -0.7937 -1.7558
 2810SOL    HW211239   0.253   2.184   2.169  0.4289 -0.2141 -0.1966
 2810SOL     MW11240   0.221   2.166   2.248  0.0259 -0.6834 -0.4567
 2811SOL     OW11241   9.111   3.753   0.053  0.1519 -0.3360 -0.0503
 2811SOL    HW111242   9.094   3.663   0.081  0.5800 -0.5258 -0.3850
 2811SOL    HW211243   9.084   3.756  -0.039  0.7616 -0.3075 -0.2306
 2811SOL     MW11244   9.105   3.742   0.045  0.2848 -0.3566 -0.1162
 2812SOL     OW11245   9.435   9.414   1.583  0.2945 -0.6872  0.3729
 2812SOL    HW111246   9.360   9.354   1.582  0.1314 -0.5118  1.0960
 2812SOL    HW211247   9.408   9.487   1.527  0.2442 -0.9948 -0.0057
 2812SOL     MW11248   9.422   9.416   1.576  0.2672 -0.7041  0.4170
 2813SOL     OW11249   7.786   4.615   0.260 -0.2485  0.5733  0.2393
 2813SOL    HW111250   7.862   4.557   0.259 -0.1044  0.7042  1.5812
 2813SOL    HW211251   7.817   4.697   0.224  0.0583  0.4051  0.1191
 2813SOL     MW11252   7.800   4.618   0.255 -0.1908  0.5685  0.3957
 2814SOL     OW11253   6.239   1.481   0.285  0.2578 -0.1154  0.0410
 2814SOL    HW111254   6.188   1.429   0.224  0.8223  1.3676 -1.8053
 2814SOL    HW211255   6.174   1.531   0.335 -0.1909  0.6850 -1.2915
 2814SOL     MW11256   6.224   1.481   0.283  0.2726  0.1769 -0.3659
 2815SOL     OW11257   9.441   3.421   1.951 -0.2824  0.8159  0.0448
 2815SOL    HW111258   9.371   3.442   2.013  0.3893  0.1917  1.0364
 2815SOL    HW211259   9.403   3.357   1.891  0.1816 -1.7031  2.2535
 2815SOL     MW11260   9.428   3.416   1.951 -0.1370  0.4135  0.4545
 2816SOL     OW11261   9.364   4.798   1.030 -0.0621  0.1589  0.2576
 2816SOL    HW111262   9.314   4.876   1.053 -1.0474 -0.5929  0.7344
 2816SOL    HW211263   9.403   4.768   1.113 -0.3661 -0.3208  0.2279
 2816SOL     MW11264   9.363   4.804   1.044 -0.2272  0.0013  0.3148
 2817SOL     OW11265   8.917   7.136   0.835 -0.1857  0.5473 -0.5557
 2817SOL    HW111266   8.861   7.176   0.769 -1.0100  2.0021  0.9542
 2817SOL    HW211267   8.899   7.185   0.915  1.4769 -0.5279  0.5477
 2817SOL     MW11268   8.908   7.147   0.837 -0.0784  0.5959 -0.2212
 2818SOL     OW11269   7.338   2.301   2.259 -0.3678  0.9887  0.5395
 2818SOL    HW111270   7.315   2.381   2.211 -0.1350  0.4617 -0.4683
 2818SOL    HW211271   7.334   2.231   2.193  0.3254  0.3048  1.2049
 2818SOL     MW11272   7.334   2.302   2.244 -0.2493  0.8337  0.4956
 2819SOL     OW11273   7.476   8.513   0.290 -0.2131  0.1817 -0.2821
 2819SOL    HW111274   7.417   8.565   0.343 -0.4878 -0.5243  0.1266
 2819SOL    HW211275   7.443   8.423   0.299  0.5493 -0.1326 -0.5484
 2819SOL     MW11276   7.464   8.508   0.298 -0.1507  0.0511 -0.2639
 2820SOL     OW11277  10.176   2.746   0.797 -0.4721  0.0757  0.3217
 2820SOL    HW111278  10.126   2.828   0.800  1.2047  1.2139 -1.0142
 2820SOL    HW211279  10.179   2.723   0.705 -0.7723 -1.4451  0.6612
 2820SOL     MW11280  10.170   2.754   0.786 -0.2959  0.0267  0.1941
 2821SOL     OW11281   8.835   9.956   9.528  0.2537 -0.2748 -0.2220
 2821SOL    HW111282   8.825  10.045   9.494  1.8035 -0.1287 -0.3396
 2821SOL    HW211283   8.848   9.967   9.623  0.0793 -0.4030 -0.1816
 2821SOL     MW11284   8.835   9.968   9.536  0.4297 -0.2725 -0.2319
 2822SOL     OW11285   6.266   5.823   0.322 -0.1209 -0.8996  0.4919
 2822SOL    HW111286   6.235   5.826   0.413 -1.5904  1.3961  0.0146
 2822SOL    HW211287   6.317   5.904   0.312  2.2744 -2.3788 -0.0751
 2822SOL     MW11288   6.269   5.834   0.333 -0.0024 -0.7951  0.3582
 2823SOL     OW11289   0.121   0.816   1.643  0.2390 -0.3664 -0.2840
 2823SOL    HW111290   0.056   0.826   1.574  0.9157 -3.1273 -1.4657
 2823SOL    HW211291   0.070   0.792   1.721 -0.2705 -1.8397 -1.0332
 2823SOL     MW11292   0.106   0.814   1.644  0.2604 -0.9084 -0.5312
 2824SOL     OW11293   7.196   9.203   2.023  0.6488 -0.1226 -0.6234
 2824SOL    HW111294   7.191   9.114   1.989  1.4137 -0.8504  1.0681
 2824SOL    HW211295   7.269   9.243   1.976 -0.6139  0.1477 -2.4603
 2824SOL     MW11296   7.204   9.197   2.013  0.5851 -0.1812 -0.6420
 2825SOL     OW11297   9.447   6.911   0.894 -0.1441  0.1927  0.2366
 2825SOL    HW111298   9.413   6.826   0.924 -1.1506  0.5413  0.1174
 2825SOL    HW211299   9.399   6.929   0.813 -1.2709  1.6978  1.1800
 2825SOL     MW11300   9.437   6.902   0.887 -0.4172  0.4300  0.3421
 2826SOL     OW11301   6.752   5.407   1.394 -0.3048 -0.1878 -0.3344
 2826SOL    HW111302   6.720   5.452   1.472 -0.1088 -1.9389  0.8046
 2826SOL    HW211303   6.715   5.318   1.400  1.2308 -0.9323 -1.2396
 2826SOL     MW11304   6.743   5.401   1.405 -0.0831 -0.5073 -0.3045
 2827SOL     OW11305   6.451   5.416   2.059  0.1850 -0.0252 -0.1135
 2827SOL    HW111306   6.377   5.434   2.117  1.2521  0.2814  1.2125
 2827SOL    HW211307   6.462   5.321   2.062  1.1889  0.0999  1.4806
 2827SOL     MW11308   6.443   5.406   2.067  0.4501  0.0301  0.2603
 2828SOL     OW11309   9.830   6.248   2.105 -0.0810 -0.5332  0.2272
 2828SOL    HW111310   9.924   6.248   2.122 -0.0472  0.4772  0.0857
 2828SOL    HW211311   9.806   6.340   2.102 -0.6955 -0.7025 -1.7967
 2828SOL     MW11312   9.839   6.260   2.106 -0.1553 -0.4256 -0.0500
 2829SOL     OW11313   6.954   2.525   1.886 -0.0426  0.2160  0.3733
 2829SOL    HW111314   6.897   2.535   1.810 -0.6240  0.3085  0.8110
 2829SOL    HW211315   7.042   2.516   1.849 -0.6380 -3.7691 -0.5608
 2829SOL     MW11316   6.958   2.525   1.871 -0.1932 -0.2823  0.3097
 2830SOL     OW11317   8.656   9.739   9.491 -0.1335  0.2734  0.3738
 2830SOL    HW111318   8.604   9.761   9.413 -1.7311 -0.6436  1.1363
 2830SOL    HW211319   8.710   9.817   9.506 -0.4934  0.8442 -1.0799
 2830SOL     MW11320   8.656   9.752   9.483 -0.3841  0.2291  0.2853
 2831SOL     OW11321   6.936   3.530   1.022 -0.6459 -0.3742 -0.0361
 2831SOL    HW111322   6.865   3.578   1.066 -2.1633 -0.0724 -2.5691
 2831SOL    HW211323   6.957   3.458   1.081  0.2679  2.0954  2.9697
 2831SOL     MW11324   6.929   3.527   1.035 -0.7232 -0.0195  0.0245
 2832SOL     OW11325   8.406   1.502   9.795 -0.4587  0.1393 -0.9966
 2832SOL    HW111326   8.389   1.520   9.702 -0.0381  1.0487 -0.9080
 2832SOL    HW211327   8.346   1.430   9.817 -1.2819  0.5925 -1.7107
 2832SOL     MW11328   8.396   1.495   9.786 -0.5103  0.3138 -1.0766
 2833SOL     OW11329   9.661   6.445   9.662 -0.1829 -0.1919 -0.4634
 2833SOL    HW111330   9.620   6.527   9.634  2.0528  0.6573 -1.4513
 2833SOL    HW211331   9.670   6.393   9.582 -0.0094 -0.6725 -0.1374
 2833SOL     MW11332   9.657   6.449   9.648  0.1255 -0.1448 -0.5481
 2834SOL     OW11333   9.291   8.404   1.628 -0.0944  0.2837 -0.0400
 2834SOL    HW111334   9.319   8.324   1.674  1.0714  1.0615  0.6590
 2834SOL    HW211335   9.198   8.412   1.649  0.1443 -0.0224  1.2325
 2834SOL     MW11336   9.283   8.395   1.637  0.0854  0.3441  0.2124
 2835SOL     OW11337   7.460   2.227   1.149 -0.1945 -0.2407  0.0370
 2835SOL    HW111338   7.377   2.270   1.128 -0.7222 -1.5763 -0.7444
 2835SOL    HW211339   7.499   2.209   1.064 -0.7249 -2.6348  0.2250
 2835SOL     MW11340   7.454   2.230   1.135 -0.3300 -0.7181 -0.0390
 2836SOL     OW11341   7.105   7.259   2.756 -0.1441  0.2156 -0.2811
 2836SOL    HW111342   7.039   7.196   2.786 -0.3885  1.1345  1.2012
 2836SOL    HW211343   7.153   7.212   2.688 -2.3619 -0.4643 -1.4994
 2836SOL     MW11344   7.103   7.245   2.751 -0.4593  0.2462 -0.2473
 2837SOL     OW11345   8.698   9.036  10.101 -0.2491  0.0208  0.2727
 2837SOL    HW111346   8.677   8.963  10.043 -0.6229 -0.1905  0.6731
 2837SOL    HW211347   8.793   9.041  10.100 -0.2464 -0.0477 -0.2760
 2837SOL     MW11348   8.707   9.028  10.093 -0.2966 -0.0150  0.2537
 2838SOL     OW11349   8.172   7.559   2.205 -0.7801  0.5504 -0.3907
 2838SOL    HW111350   8.124   7.635   2.240  0.5426  1.6832 -0.9777
 2838SOL    HW211351   8.194   7.583   2.116  2.2815  0.7765  0.3310
 2838SOL     MW11352   8.168   7.572   2.198 -0.2188  0.7244 -0.3734
 2839SOL     OW11353   7.501   7.822   1.970 -0.6224  0.3339 -0.2171
 2839SOL    HW111354   7.584   7.793   2.007 -0.6975 -0.9336 -0.9941
 2839SOL    HW211355   7.464   7.880   2.037  0.3172 -0.0438  0.6577
 2839SOL     MW11356   7.507   7.826   1.983 -0.5117  0.1233 -0.2046
 2840SOL     OW11357   9.339   5.375  10.130 -0.0816  0.2932  0.2059
 2840SOL    HW111358   9.394   5.450  10.107 -0.0969 -0.4027 -2.4743
 2840SOL    HW211359   9.400   5.311  10.167  0.3203  0.7608  0.3653
 2840SOL     MW11360   9.354   5.376  10.132 -0.0321  0.2640 -0.1168
 2841SOL     OW11361   6.891   9.778   0.838  0.4532 -0.3799 -0.6949
 2841SOL    HW111362   6.869   9.866   0.808  0.0227  0.0206  0.6914
 2841SOL    HW211363   6.921   9.732   0.760 -0.3511  0.6691 -1.6470
 2841SOL     MW11364   6.892   9.783   0.824  0.2952 -0.1944 -0.6393
 2842SOL     OW11365   8.071   2.100   9.244  0.1092  0.3624 -0.1459
 2842SOL    HW111366   8.023   2.148   9.312  0.2898  0.0754  0.1937
 2842SOL    HW211367   8.159   2.135   9.247  0.4044 -0.3942  0.5250
 2842SOL     MW11368   8.076   2.110   9.253  0.1701  0.2288 -0.0165
 2843SOL     OW11369   6.723   5.256   1.737  0.2432  0.4365  0.3259
 2843SOL    HW111370   6.801   5.204   1.720 -0.1957 -0.3122  0.5248
 2843SOL    HW211371   6.663   5.233   1.665  0.9815  2.6602 -1.0840
 2843SOL     MW11372   6.725   5.246   1.726  0.2815  0.6253  0.1709
 2844SOL     OW11373   9.408   7.285  10.066 -0.3062  0.2552 -0.4765
 2844SOL    HW111374   9.469   7.211  10.067 -0.9568 -0.3041 -0.9521
 2844SOL    HW211375   9.391   7.300   9.973  0.8860  1.9294 -0.4786
 2844SOL     MW11376   9.414   7.277  10.054 -0.2369  0.3979 -0.5376
 2845SOL     OW11377   8.381   1.803   2.983  0.5028 -0.5212  0.3411
 2845SOL    HW111378   8.457   1.745   2.987  0.7061 -0.2339  0.6754
 2845SOL    HW211379   8.406   1.879   3.034 -0.9193 -1.4644  2.5709
 2845SOL     MW11380   8.393   1.805   2.990  0.3467 -0.6051  0.6694
 2846SOL     OW11381   8.611   0.975   9.062 -0.2002 -0.3116  0.0291
 2846SOL    HW111382   8.520   0.996   9.044  0.0233  0.3292 -0.4041
 2846SOL    HW211383   8.660   1.053   9.033  0.3488  0.0405  1.7670
 2846SOL     MW11384   8.606   0.988   9.056 -0.1013 -0.1845  0.1961
 2847SOL     OW11385   9.827   0.608   0.806  0.2381  0.0507  0.1048
 2847SOL    HW111386   9.906   0.559   0.831  0.4510 -0.1892 -0.9909
 2847SOL    HW211387   9.860   0.692   0.775 -0.0410  0.4330  0.8303
 2847SOL     MW11388   9.842   0.612   0.805  0.2296  0.0689  0.0574
 2848SOL     OW11389   6.666   1.198   0.805  0.0781 -0.1368  0.1384
 2848SOL    HW111390   6.629   1.142   0.736  0.3437 -0.1519  0.0096
 2848SOL    HW211391   6.590   1.224   0.858  0.0046 -1.0144  0.4899
 2848SOL     MW11392   6.651   1.194   0.803  0.1027 -0.2510  0.1669
 2849SOL     OW11393   8.230   7.329   2.056 -0.6500 -0.0721  0.0681
 2849SOL    HW111394   8.156   7.272   2.075 -1.9333  0.4197 -2.8780
 2849SOL    HW211395   8.196   7.418   2.064  0.1541  0.2068  0.5340
 2849SOL     MW11396   8.216   7.333   2.059 -0.7114  0.0265 -0.2494
 2850SOL     OW11397   8.836   4.564  10.092 -0.3275 -0.0648 -0.3697
 2850SOL    HW111398   8.928   4.541  10.082 -0.0788  0.6405  0.1799
 2850SOL    HW211399   8.791   4.515  10.023  0.2364 -1.6915  0.3616
 2850SOL     MW11400   8.842   4.555  10.082 -0.2235 -0.1827 -0.2057
 2851SOL     OW11401   0.074   5.724   1.119 -0.4509 -0.6594 -0.0280
 2851SOL    HW111402   0.156   5.675   1.110 -0.0897 -0.0569 -0.1265
 2851SOL    HW211403   0.059   5.761   1.032  0.2784  0.9116  0.4752
 2851SOL     MW11404   0.083   5.722   1.107 -0.3113 -0.3811  0.0238
 2852SOL     OW11405   6.235   1.265   0.464  0.4595 -0.1837  0.6166
 2852SOL    HW111406   6.232   1.346   0.414  2.0193  0.0781  0.8989
 2852SOL    HW211407   6.311   1.218   0.429  0.3281 -0.9461  1.3218
 2852SOL     MW11408   6.245   1.269   0.453  0.6424 -0.2478  0.7430
 2853SOL     OW11409   9.055   1.805   2.627  0.0461  0.3919  0.4259
 2853SOL    HW111410   9.119   1.737   2.650 -2.6327 -1.8365  1.9037
 2853SOL    HW211411   9.032   1.845   2.711  0.0546  1.7163 -0.1858
 2853SOL     MW11412   9.061   1.801   2.641 -0.2957  0.2762  0.5368
 2854SOL     OW11413   8.867   0.587   1.822  0.6087 -0.0133 -0.6524
 2854SOL    HW111414   8.936   0.650   1.842  1.6428 -1.2577 -0.1317
 2854SOL    HW211415   8.827   0.569   1.907  1.8206 -1.7074 -0.3880
 2854SOL     MW11416   8.871   0.593   1.836  0.8962 -0.3895 -0.5519
 2855SOL     OW11417   8.012   4.362   2.522  0.0690  0.4146 -0.1858
 2855SOL    HW111418   7.972   4.305   2.588 -0.3102 -0.4919 -1.1656
 2855SOL    HW211419   8.091   4.314   2.495  0.1990  0.7567 -0.4177
 2855SOL     MW11420   8.017   4.348   2.527  0.0371  0.3423 -0.3409
 2856SOL     OW11421   9.918   7.361   1.899 -0.3661 -0.0005  0.3481
 2856SOL    HW111422   9.957   7.408   1.973  1.2449 -1.6569  0.6223
 2856SOL    HW211423   9.878   7.429   1.845  1.3425  1.5964  1.0316
 2856SOL     MW11424   9.918   7.376   1.902  0.0589 -0.0081  0.4707
 2857SOL     OW11425   6.439   5.705   1.879 -0.2838 -0.3495 -0.0106
 2857SOL    HW111426   6.493   5.757   1.819 -1.9344  1.9396  0.3458
 2857SOL    HW211427   6.462   5.614   1.860  3.9442  0.4362  0.4257
 2857SOL     MW11428   6.449   5.700   1.869  0.0462  0.0441  0.0908
 2858SOL     OW11429   6.941   9.358   2.311 -0.0630  0.1930 -0.4561
 2858SOL    HW111430   7.033   9.338   2.331 -0.5166 -1.5797  0.0830
 2858SOL    HW211431   6.936   9.353   2.216  0.6524  1.6639 -0.6025
 2858SOL     MW11432   6.952   9.355   2.302 -0.0295  0.1544 -0.4058
 2859SOL     OW11433   9.695   0.881   0.349  0.3728 -0.0587 -0.2244
 2859SOL    HW111434   9.744   0.822   0.405 -0.7160 -1.0127 -0.2516
 2859SOL    HW211435   9.631   0.826   0.304  1.4582  0.5582 -2.7574
 2859SOL     MW11436   9.693   0.867   0.350  0.3723 -0.1018 -0.5522
 2860SOL     OW11437   6.656   0.934   1.631  0.3216  0.3459  0.5125
 2860SOL    HW111438   6.703   1.014   1.653  1.1517 -0.3570  1.3464
 2860SOL    HW211439   6.586   0.963   1.571  1.0389  1.5746  0.2441
 2860SOL     MW11440   6.653   0.948   1.626  0.5197  0.4132  0.5849
 2861SOL     OW11441   9.955   2.600   0.333  0.7920 -0.4721 -0.1359
 2861SOL    HW111442   9.890   2.551   0.282 -0.0153  0.3813  0.0277
 2861SOL    HW211443   9.904   2.639   0.404  1.4588  0.3372 -0.0915
 2861SOL     MW11444   9.940   2.599   0.335  0.7740 -0.2592 -0.1093
 2862SOL     OW11445   7.117   3.912   1.064 -0.0411 -0.6840 -0.7233
 2862SOL    HW111446   7.074   3.854   1.001 -1.4393  0.4652 -0.8784
 2862SOL    HW211447   7.133   3.992   1.015 -0.1543 -0.1629  0.0737
 2862SOL     MW11448   7.113   3.915   1.049 -0.2345 -0.4702 -0.6411
 2863SOL     OW11449   7.368   7.388   2.358  1.0935 -0.2645 -0.2171
 2863SOL    HW111450   7.340   7.437   2.281  1.4679 -0.0555 -0.2247
 2863SOL    HW211451   7.347   7.444   2.432 -2.1572 -1.7266  0.1349
 2863SOL     MW11452   7.362   7.401   2.358  0.7253 -0.4249 -0.1730
 2864SOL     OW11453   7.078   8.588   0.096  0.1426 -0.5280  0.2254
 2864SOL    HW111454   6.991   8.548   0.101 -0.0127 -0.0676  1.9503
 2864SOL    HW211455   7.066   8.665   0.040  0.0124 -1.7673 -1.5143
 2864SOL     MW11456   7.065   8.593   0.090  0.1061 -0.6277  0.2235
 2865SOL     OW11457   0.359   5.446   0.583 -0.2237 -0.0346  0.0940
 2865SOL    HW111458   0.362   5.480   0.673  1.9211 -0.4761  0.2315
 2865SOL    HW211459   0.318   5.359   0.592 -0.3617  0.0786  0.5897
 2865SOL     MW11460   0.354   5.439   0.596  0.0332 -0.0766  0.1751
 2866SOL     OW11461   6.505   7.030   1.088 -0.1461  0.6980  0.1333
 2866SOL    HW111462   6.496   7.059   1.179 -1.8196  1.3740 -0.2124
 2866SOL    HW211463   6.508   7.110   1.037  4.3440  0.5103 -0.2752
 2866SOL     MW11464   6.504   7.044   1.093  0.2144  0.7605  0.0368
 2867SOL     OW11465   8.133   7.597   1.008  0.4093 -0.8356 -0.0699
 2867SOL    HW111466   8.117   7.690   1.023 -0.0360 -0.8215 -0.5904
 2867SOL    HW211467   8.078   7.552   1.072  1.5630 -0.7293  1.0129
 2867SOL     MW11468   8.124   7.603   1.018  0.4999 -0.8202  0.0021
 2868SOL     OW11469   6.959   9.425   9.939  0.1731 -0.1273 -0.3278
 2868SOL    HW111470   6.934   9.508   9.979 -1.8145 -0.0872 -1.5319
 2868SOL    HW211471   7.054   9.424   9.944  0.1616  1.3285  1.4219
 2868SOL     MW11472   6.968   9.436   9.945 -0.0828  0.0642 -0.2579
 2869SOL     OW11473   8.022   3.801   2.745 -0.4217 -0.4884 -0.2931
 2869SOL    HW111474   8.009   3.717   2.700 -0.4065 -0.1303 -0.9782
 2869SOL    HW211475   8.115   3.820   2.732 -0.9201  0.8390 -2.3101
 2869SOL     MW11476   8.032   3.793   2.737 -0.4836 -0.2726 -0.6390
 2870SOL     OW11477   8.638   1.189   2.152 -0.3847  0.4819 -0.5894
 2870SOL    HW111478   8.558   1.223   2.191 -1.7907 -1.9897 -1.0700
 2870SOL    HW211479   8.688   1.266   2.128 -3.1521  2.2013 -1.3276
 2870SOL     MW11480   8.634   1.203   2.154 -0.9189  0.3856 -0.7454
 2871SOL     OW11481   9.846   4.690   0.667 -0.2666  0.0656  0.1566
 2871SOL    HW111482   9.935   4.673   0.637 -0.5135 -1.5660  0.2493
 2871SOL    HW211483   9.823   4.775   0.629  1.0288  0.1203 -0.5483
 2871SOL     MW11484   9.854   4.699   0.658 -0.1324 -0.1363  0.0782
 2872SOL     OW11485   0.228   3.733   0.868  0.4613  0.2235  0.1581
 2872SOL    HW111486   0.206   3.826   0.873  2.8082  0.8162  0.6096
 2872SOL    HW211487   0.262   3.721   0.780 -0.5336 -0.4032 -0.1536
 2872SOL     MW11488   0.230   3.743   0.858  0.6344  0.2192  0.1760
 2873SOL     OW11489   8.313   4.179   1.817 -0.5191 -0.5158 -0.4036
 2873SOL    HW111490   8.258   4.201   1.892 -1.1587  0.4476 -1.1364
 2873SOL    HW211491   8.273   4.226   1.743  0.6344 -0.7032 -1.1683
 2873SOL     MW11492   8.301   4.188   1.817 -0.4533 -0.4165 -0.5953
 2874SOL     OW11493   9.514   2.071   1.156  0.0167 -0.1348  0.2991
 2874SOL    HW111494   9.574   1.997   1.160 -1.0718 -1.1610 -1.0246
 2874SOL    HW211495   9.568   2.147   1.179  1.6928 -1.0598 -0.3568
 2874SOL     MW11496   9.529   2.071   1.159  0.0919 -0.3845  0.0457
 2875SOL     OW11497   9.992   5.032   1.129  0.0210  0.6304  0.3790
 2875SOL    HW111498   9.931   4.997   1.063  0.9399 -1.6861  0.6903
 2875SOL    HW211499  10.002   4.962   1.192  0.9726  1.9709  1.7853
 2875SOL     MW11500   9.985   5.019   1.128  0.2604  0.5055  0.5989
 2876SOL     OW11501   8.880   2.875   9.321 -0.3967 -0.0082  0.2867
 2876SOL    HW111502   8.913   2.957   9.286  0.4840 -0.8934 -1.0230
 2876SOL    HW211503   8.786   2.877   9.302 -0.4216  0.7639  0.4484
 2876SOL     MW11504   8.872   2.885   9.314 -0.2871 -0.0227  0.1398
 2877SOL     OW11505   9.677   0.263   2.181  0.2704  0.0025 -0.1086
 2877SOL    HW111506   9.677   0.279   2.087  1.4038 -0.3053 -0.1785
 2877SOL    HW211507   9.630   0.338   2.218 -2.1721 -0.9832 -1.0600
 2877SOL     MW11508   9.671   0.275   2.174  0.1029 -0.1631 -0.2393
 2878SOL     OW11509   0.065   9.169   0.169  0.1523  0.1739  0.5470
 2878SOL    HW111510   0.066   9.185   0.264 -0.7881 -0.8656  0.7541
 2878SOL    HW211511  -0.028   9.168   0.146  0.4151  2.2902 -0.7528
 2878SOL     MW11512   0.053   9.171   0.179  0.0655  0.3118  0.4071
 2879SOL     OW11513   8.157   9.922   8.888  0.0715  0.2858  0.3180
 2879SOL    HW111514   8.065   9.935   8.909  0.2548 -0.7923  2.0428
 2879SOL    HW211515   8.190  10.009   8.866 -1.7014  0.4574 -2.0205
 2879SOL     MW11516   8.150   9.934   8.888 -0.1320  0.1697  0.2395
 2880SOL     OW11517   7.769   6.462   1.279  0.0396 -0.7718  0.0337
 2880SOL    HW111518   7.798   6.534   1.223 -2.5847  1.0043  0.7968
 2880SOL    HW211519   7.675   6.455   1.262 -0.5369 -1.3002  2.9448
 2880SOL     MW11520   7.760   6.470   1.269 -0.3701 -0.6120  0.5040
 2881SOL     OW11521   6.753   9.489  10.139  0.7120  0.4313  0.0068
 2881SOL    HW111522   6.723   9.488  10.230  1.5454  1.2131  0.3055
 2881SOL    HW211523   6.680   9.529  10.091  0.5834  0.7452  0.4523
 2881SOL     MW11524   6.739   9.494  10.145  0.8023  0.5715  0.1021
 2882SOL     OW11525   9.705   6.929   0.842 -0.5319  0.6152 -0.3539
 2882SOL    HW111526   9.618   6.904   0.875  0.2987 -0.6020  1.0483
 2882SOL    HW211527   9.765   6.910   0.915  1.2604 -1.1769 -2.1510
 2882SOL     MW11528   9.701   6.923   0.856 -0.1962  0.2300 -0.4045
 2883SOL     OW11529   8.575   4.216   1.799  0.7442  0.5614 -0.0418
 2883SOL    HW111530   8.591   4.304   1.765  0.2397  0.6470 -0.0756
 2883SOL    HW211531   8.480   4.213   1.813  0.5713 -0.3977 -1.2508
 2883SOL     MW11532   8.565   4.227   1.796  0.6575  0.4496 -0.2009
 2884SOL     OW11533   7.153   4.483   2.133  0.3111  0.1108  0.3713
 2884SOL    HW111534   7.092   4.458   2.203 -0.3810  0.6419 -0.0303
 2884SOL    HW211535   7.169   4.576   2.149  0.2994  0.1881 -0.0614
 2884SOL     MW11536   7.147   4.492   2.144  0.2210  0.1887  0.2645
 2885SOL     OW11537   8.938   1.324  10.081  0.2240 -0.3294 -0.3681
 2885SOL    HW111538   9.015   1.273  10.059 -1.4881 -2.8979 -0.8946
 2885SOL    HW211539   8.889   1.268  10.142 -0.4662  1.9290  1.3061
 2885SOL     MW11540   8.941   1.310  10.086 -0.0835 -0.3691 -0.2212
 2886SOL     OW11541   8.851   5.961  10.066  0.2764 -0.1946  0.3707
 2886SOL    HW111542   8.789   5.889  10.084  0.4163 -0.7292 -1.1654
 2886SOL    HW211543   8.797   6.030  10.028  0.2805  0.2258  1.0991
 2886SOL     MW11544   8.836   5.960  10.063  0.2948 -0.2092  0.2673
 2887SOL     OW11545   6.391   4.060   0.961  0.3538  0.1285 -0.0710
 2887SOL    HW111546   6.471   4.094   0.922 -0.1639  2.1616  0.5330
 2887SOL    HW211547   6.335   4.137   0.973 -1.4265 -1.1327  0.1578
 2887SOL     MW11548   6.394   4.074   0.957  0.0596  0.2273  0.0356
 2888SOL     OW11549   6.837   7.123   0.814  0.3868 -0.5278  0.0100
 2888SOL    HW111550   6.857   7.210   0.849  1.7057 -0.8602  0.1534
 2888SOL    HW211551   6.867   7.127   0.723  0.9672 -0.9860  0.1716
 2888SOL     MW11552   6.844   7.135   0.807  0.6299 -0.6290  0.0491
 2889SOL     OW11553   0.118   3.023   1.197 -0.0751 -0.2735 -0.1239
 2889SOL    HW111554   0.152   2.937   1.172 -0.9670 -0.1028 -2.1869
 2889SOL    HW211555   0.139   3.079   1.122 -1.4440  0.7620  0.2315
 2889SOL     MW11556   0.125   3.019   1.184 -0.3645 -0.1191 -0.3425
 2890SOL     OW11557   8.375   6.209   1.430  0.1043 -0.0717  0.3877
 2890SOL    HW111558   8.400   6.268   1.501  0.7689  0.4044 -0.2299
 2890SOL    HW211559   8.287   6.238   1.405  0.2033  0.3010  0.4677
 2890SOL     MW11560   8.367   6.221   1.436  0.2020  0.0370  0.3189
 2891SOL     OW11561   7.929   5.333   0.393 -0.3734 -0.0215  0.4111
 2891SOL    HW111562   7.887   5.402   0.444 -0.1615 -0.3676  1.0656
 2891SOL    HW211563   7.907   5.252   0.439 -2.2594 -0.6426 -1.3977
 2891SOL     MW11564   7.921   5.331   0.405 -0.5877 -0.1453  0.2633
 2892SOL     OW11565   7.202   6.554   0.005  0.6965  0.3346 -0.5867
 2892SOL    HW111566   7.174   6.643   0.028  3.6891  1.6657 -1.5634
 2892SOL    HW211567   7.121   6.503   0.004 -0.8055  2.2029  3.3808
 2892SOL     MW11568   7.188   6.559   0.008  0.8873  0.7441 -0.2039
 2893SOL     OW11569   7.397   5.394   1.126 -0.6376 -0.6355 -0.1644
 2893SOL    HW111570   7.454   5.470   1.113  0.1134 -1.5499 -2.9553
 2893SOL    HW211571   7.309   5.430   1.136  0.0537  0.6819  1.7759
 2893SOL     MW11572   7.393   5.408   1.126 -0.4530 -0.5839 -0.2733
 2894SOL     OW11573   6.580   6.395   0.311 -0.4839  0.3447 -0.0639
 2894SOL    HW111574   6.572   6.321   0.251 -0.1968 -0.8102  1.2688
 2894SOL    HW211575   6.666   6.432   0.292 -0.8096  0.6268 -1.0418
 2894SOL     MW11576   6.590   6.390   0.301 -0.4888  0.2329 -0.0185
 2895SOL     OW11577   6.577   9.327   1.620 -0.8294  0.1036 -0.3425
 2895SOL    HW111578   6.579   9.269   1.696  0.3974 -0.1573 -0.5496
 2895SOL    HW211579   6.608   9.411   1.653  0.1553 -0.1333 -0.6358
 2895SOL     MW11580   6.581   9.331   1.634 -0.5463  0.0398 -0.4065
 2896SOL     OW11581   8.900   7.108   9.349 -0.4466  0.0908 -0.7443
 2896SOL    HW111582   8.910   7.013   9.344  3.0145  0.2442  0.3625
 2896SOL    HW211583   8.814   7.121   9.388 -0.7376 -2.6059 -0.2699
 2896SOL     MW11584   8.890   7.097   9.353 -0.0408 -0.2348 -0.5419
 2897SOL     OW11585   8.611   0.706   9.379  0.7520  0.1796 -0.0049
 2897SOL    HW111586   8.579   0.617   9.389 -1.3844  0.9759  1.0383
 2897SOL    HW211587   8.572   0.736   9.296  0.3177  0.5552  0.3276
 2897SOL     MW11588   8.602   0.699   9.369  0.4229  0.3296  0.1713
 2898SOL     OW11589  10.090   6.555   1.194  0.0927  0.0665 -0.4796
 2898SOL    HW111590  10.026   6.487   1.217 -0.8651  1.5167  1.3840
 2898SOL    HW211591  10.055   6.635   1.234  1.3445  1.6180 -2.3160
 2898SOL     MW11592  10.077   6.557   1.202  0.1303  0.4508 -0.4761
 2899SOL     OW11593   7.995   5.891   9.616  0.5724 -0.4429  0.1073
 2899SOL    HW111594   7.916   5.871   9.565  0.2370  0.1544  0.3746
 2899SOL    HW211595   8.067   5.853   9.566  0.4354  1.4294 -1.6364
 2899SOL     MW11596   7.994   5.884   9.603  0.5119 -0.1267 -0.0817
 2900SOL     OW11597   6.390   5.866   2.117 -0.3293  0.6222 -0.1729
 2900SOL    HW111598   6.371   5.823   2.033  0.3971 -0.5101  0.2234
 2900SOL    HW211599   6.485   5.867   2.123 -0.3705  0.8450  0.5661
 2900SOL     MW11600   6.400   5.861   2.107 -0.2416  0.5058 -0.0276
 2901SOL     OW11601   7.762   7.626   1.258 -0.5478  0.1323  0.2827
 2901SOL    HW111602   7.844   7.580   1.279 -0.9379 -0.2804  0.9177
 2901SOL    HW211603   7.762   7.633   1.163  0.2683  0.2084  0.2812
 2901SOL     MW11604   7.773   7.621   1.249 -0.4933  0.0892  0.3638
 2902SOL     OW11605   9.208   1.031   2.296 -0.4207  0.5756 -0.0459
 2902SOL    HW111606   9.242   1.117   2.270 -0.9538  0.8666  0.1871
 2902SOL    HW211607   9.270   0.999   2.361  0.6966  0.0296 -1.3327
 2902SOL     MW11608   9.220   1.038   2.301 -0.3459  0.5430 -0.1808
 2903SOL     OW11609   7.880   5.998   2.267  0.0821 -0.2043  0.5018
 2903SOL    HW111610   7.862   6.076   2.320 -0.4017  0.5244 -0.6910
 2903SOL    HW211611   7.974   6.005   2.247 -0.0639  0.3739 -0.0314
 2903SOL     MW11612   7.890   6.009   2.271  0.0015 -0.0370  0.2808
 2904SOL     OW11613   6.111   0.188   0.404  0.1285 -0.6319  0.2045
 2904SOL    HW111614   6.068   0.165   0.487  2.2346 -0.1692  1.5043
 2904SOL    HW211615   6.121   0.283   0.409 -1.5670 -0.3136 -1.5737
 2904SOL     MW11616   6.107   0.197   0.416  0.1810 -0.5320  0.1433
 2905SOL     OW11617   6.811   6.369   2.356 -0.5509  0.2574  0.4736
 2905SOL    HW111618   6.736   6.399   2.304 -0.6079 -0.7998 -0.0870
 2905SOL    HW211619   6.831   6.282   2.321 -0.1857 -0.2196  1.8052
 2905SOL     MW11620   6.804   6.362   2.345 -0.5115  0.0610  0.5723
 2906SOL     OW11621   9.634   6.232  10.036  0.0361 -0.2193 -0.4778
 2906SOL    HW111622   9.682   6.150  10.047  1.0091  0.4845  0.7079
 2906SOL    HW211623   9.601   6.228   9.946  1.5654 -1.1292 -1.0350
 2906SOL     MW11624   9.635   6.221  10.026  0.3564 -0.2457 -0.3973
 2907SOL     OW11625   9.163   6.597   9.920  0.2680 -0.0775 -0.4382
 2907SOL    HW111626   9.198   6.509   9.932  0.2761 -0.1012 -0.6393
 2907SOL    HW211627   9.173   6.639  10.006 -0.9994 -0.7210  0.0500
 2907SOL     MW11628   9.169   6.591   9.933  0.1068 -0.1629 -0.4015
 2908SOL     OW11629   9.446   6.040   9.183  0.1119  0.4555  0.2538
 2908SOL    HW111630   9.471   5.951   9.159  0.8852  1.3392 -2.5958
 2908SOL    HW211631   9.356   6.049   9.151 -1.3151 -0.2929  3.6563
 2908SOL     MW11632   9.437   6.030   9.176  0.0282  0.4728  0.3246
 2909SOL     OW11633   7.411   9.101   8.894 -0.4680  0.1112 -0.3969
 2909SOL    HW111634   7.435   9.071   8.806  1.5678 -1.7469  0.6823
 2909SOL    HW211635   7.324   9.141   8.883 -0.7824 -1.0652 -3.0165
 2909SOL     MW11636   7.403   9.103   8.881 -0.2477 -0.2773 -0.5941
 2910SOL     OW11637   0.109   5.416   1.188  0.3555  0.2324 -0.8748
 2910SOL    HW111638   0.029   5.457   1.223 -1.0681 -1.7576 -1.5960
 2910SOL    HW211639   0.081   5.379   1.105  1.4577 -2.3538 -0.1732
 2910SOL     MW11640   0.095   5.417   1.182  0.3144 -0.3534 -0.8773
 2911SOL     OW11641   9.399   5.466   9.739  0.1541 -0.9145 -0.3614
 2911SOL    HW111642   9.487   5.428   9.734  1.7392  2.1653  1.1644
 2911SOL    HW211643   9.372   5.454   9.830  0.0181  0.0715 -0.2509
 2911SOL     MW11644   9.407   5.460   9.750  0.3396 -0.3940 -0.1519
 2912SOL     OW11645   0.187   4.457   1.563  0.1310 -0.0949 -0.2097
 2912SOL    HW111646   0.221   4.470   1.475 -0.2321  0.0072 -0.3383
 2912SOL    HW211647   0.237   4.383   1.597  0.8105  0.3606 -0.2117
 2912SOL     MW11648   0.198   4.449   1.556  0.1715 -0.0235 -0.2264
 2913SOL     OW11649   8.722   2.025   2.476  0.0191 -0.1318  0.0429
 2913SOL    HW111650   8.777   2.020   2.397  0.0934  0.2202  0.0714
 2913SOL    HW211651   8.639   1.986   2.450 -0.6835  1.8302 -0.8452
 2913SOL     MW11652   8.719   2.020   2.463 -0.0613  0.1644 -0.0672
 2914SOL     OW11653   8.550   3.113   9.936 -0.1850 -0.8053  0.5472
 2914SOL    HW111654   8.587   3.140  10.021  1.2696 -0.3576 -0.1918
 2914SOL    HW211655   8.459   3.091   9.956 -0.2068  0.4036  2.0175
 2914SOL     MW11656   8.543   3.114   9.950 -0.0016 -0.5932  0.6408
 2915SOL     OW11657   9.830   5.886   1.444  0.5171 -0.1338  0.1955
 2915SOL    HW111658   9.854   5.959   1.386 -1.4834 -0.1676 -0.7587
 2915SOL    HW211659   9.856   5.808   1.395  2.0240 -0.1274  0.9193
 2915SOL     MW11660   9.836   5.885   1.430  0.4539 -0.1373  0.1660
 2916SOL     OW11661   0.148   7.094   0.419 -0.0609  0.4346  0.2910
 2916SOL    HW111662   0.157   7.063   0.329 -3.9984 -1.3831  0.3410
 2916SOL    HW211663   0.159   7.015   0.473  0.8196  1.2456  1.3701
 2916SOL     MW11664   0.151   7.080   0.415 -0.4523  0.3057  0.4355
 2917SOL     OW11665   6.740   2.346   1.152 -0.0363 -0.0763  0.1741
 2917SOL    HW111666   6.696   2.281   1.097 -1.8970  0.2980  1.1409
 2917SOL    HW211667   6.758   2.419   1.092 -0.4176 -0.3810 -0.3194
 2917SOL     MW11668   6.737   2.347   1.137 -0.3233 -0.0674  0.2347
 2918SOL     OW11669   9.938   8.391   1.266 -0.0138 -0.3557 -0.2191
 2918SOL    HW111670   9.846   8.369   1.276 -0.0524  0.4951  1.7924
 2918SOL    HW211671   9.982   8.307   1.253 -0.8790 -0.9619  0.6480
 2918SOL     MW11672   9.932   8.378   1.266 -0.1295 -0.3244  0.1494
 2919SOL     OW11673   7.749   6.522   2.758  0.0616  0.0090  0.3921
 2919SOL    HW111674   7.764   6.497   2.850 -0.1461  1.4754  0.8506
 2919SOL    HW211675   7.837   6.533   2.722  0.1424  0.0417  0.5964
 2919SOL     MW11676   7.762   6.520   2.765  0.0453  0.2009  0.4769
 2920SOL     OW11677   6.474   2.662   1.544  0.1904 -0.2493  0.2254
 2920SOL    HW111678   6.467   2.643   1.451 -0.7809 -1.4593  0.5166
 2920SOL    HW211679   6.490   2.756   1.548  1.7349 -0.4212 -1.1877
 2920SOL     MW11680   6.475   2.672   1.533  0.2638 -0.4262  0.0818
 2921SOL     OW11681   9.302   9.336   0.175  0.3913  0.1567  0.2473
 2921SOL    HW111682   9.354   9.263   0.142  1.1823  1.8191 -2.5370
 2921SOL    HW211683   9.342   9.358   0.259  2.4411 -0.4057 -0.5214
 2921SOL     MW11684   9.314   9.330   0.181  0.7550  0.2975 -0.2075
 2922SOL     OW11685   7.734   7.085   9.725  0.1762 -0.2818  0.8605
 2922SOL    HW111686   7.668   7.015   9.734 -2.3165  1.5408 -1.5078
 2922SOL    HW211687   7.707   7.150   9.790 -0.3654  0.4530 -0.0901
 2922SOL     MW11688   7.722   7.084   9.735 -0.2123  0.0456  0.4356
 2923SOL     OW11689   6.931   9.119   2.531 -0.2093 -0.5892 -0.1474
 2923SOL    HW111690   6.863   9.183   2.511 -0.5854 -1.1226 -0.6244
 2923SOL    HW211691   6.978   9.156   2.606 -0.3679  0.2711 -0.4571
 2923SOL     MW11692   6.929   9.132   2.538 -0.2777 -0.5473 -0.2481
 2924SOL     OW11693   9.316   6.378   9.605 -0.1084  0.4714 -0.2954
 2924SOL    HW111694   9.242   6.438   9.601  0.0726  0.6732 -0.6101
 2924SOL    HW211695   9.366   6.395   9.526 -1.0976 -1.4536 -1.4272
 2924SOL     MW11696   9.313   6.388   9.595 -0.2118  0.2508 -0.4805
 2925SOL     OW11697   8.885   2.135   1.326  0.0128 -0.1234  0.2903
 2925SOL    HW111698   8.895   2.105   1.236 -0.7125  1.7106 -0.4527
 2925SOL    HW211699   8.955   2.092   1.374  0.1732 -1.4385 -1.0696
 2925SOL     MW11700   8.895   2.126   1.321 -0.0595 -0.0569  0.0211
 2926SOL     OW11701   0.036   8.479   0.086 -0.0744 -0.2157  0.2072
 2926SOL    HW111702  -0.056   8.482   0.114  0.2326  1.7151  1.1431
 2926SOL    HW211703   0.057   8.570   0.065  1.8500 -0.5189  0.6976
 2926SOL     MW11704   0.027   8.491   0.087  0.2113 -0.0073  0.3898
 2927SOL     OW11705   9.622   3.620   1.923  0.0860 -0.6093 -0.7570
 2927SOL    HW111706   9.561   3.546   1.920  0.3484 -0.9402  0.8094
 2927SOL    HW211707   9.705   3.580   1.952 -0.2565  0.5231  2.0912
 2927SOL     MW11708   9.625   3.605   1.927  0.0757 -0.5067 -0.1919
 2928SOL     OW11709   9.125   7.848   0.739 -0.1975 -0.2619  0.3839
 2928SOL    HW111710   9.180   7.909   0.690 -1.3427 -0.0098 -0.6385
 2928SOL    HW211711   9.165   7.844   0.826 -0.1777  2.0704  0.5447
 2928SOL     MW11712   9.137   7.855   0.744 -0.3415  0.0689  0.2736
 2929SOL     OW11713   0.164   9.967   1.743 -0.3265  0.2355 -0.0578
 2929SOL    HW111714   0.168   9.913   1.663 -0.3317  0.3103 -0.1084
 2929SOL    HW211715   0.219  10.043   1.723 -1.6517  1.0842 -0.6238
 2929SOL     MW11716   0.171   9.970   1.730 -0.4968  0.3537 -0.1368
 2930SOL     OW11717   6.127   5.186   1.236 -0.1799 -0.1451  0.7873
 2930SOL    HW111718   6.087   5.229   1.160 -0.3515  0.6259  1.3065
 2930SOL    HW211719   6.166   5.257   1.287  1.2100 -0.8014  0.6870
 2930SOL     MW11720   6.127   5.200   1.233 -0.0239 -0.1304  0.8409
 2931SOL     OW11721   8.481   9.648   1.842 -0.2763 -0.3567 -0.3978
 2931SOL    HW111722   8.404   9.705   1.836  0.2413  0.5951  1.2853
 2931SOL    HW211723   8.456   9.570   1.793 -1.5812  0.6988 -1.5197
 2931SOL     MW11724   8.468   9.645   1.835 -0.3771 -0.0997 -0.3260
 2932SOL     OW11725   8.697   4.784   0.764  0.1448 -0.2680  0.0245
 2932SOL    HW111726   8.636   4.771   0.691 -0.1097 -1.2547  0.4027
 2932SOL    HW211727   8.757   4.709   0.759  1.2991  0.6433 -0.2933
 2932SOL     MW11728   8.697   4.773   0.754  0.2600 -0.2777  0.0322
 2933SOL     OW11729   6.390   6.616   1.058 -0.6485 -0.0298 -0.1770
 2933SOL    HW111730   6.331   6.686   1.031 -0.8123 -0.1188 -0.0557
 2933SOL    HW211731   6.354   6.537   1.018 -0.2106  0.0221 -0.6822
 2933SOL     MW11732   6.378   6.615   1.049 -0.6134 -0.0345 -0.2262
 2934SOL     OW11733   8.818   3.399   9.945 -0.0641 -0.4178 -0.2548
 2934SOL    HW111734   8.897   3.385   9.894 -0.3996 -0.9825 -0.6160
 2934SOL    HW211735   8.747   3.370   9.889 -0.3624 -2.1057  0.9192
 2934SOL     MW11736   8.819   3.394   9.932 -0.1453 -0.7062 -0.1507
 2935SOL     OW11737   7.103   6.803   0.551  0.7652  0.0730  0.3742
 2935SOL    HW111738   7.032   6.740   0.563  0.7059 -0.0154 -0.4272
 2935SOL    HW211739   7.142   6.780   0.467  0.6257  1.2264 -0.0187
 2935SOL     MW11740   7.099   6.792   0.542  0.7397  0.2093  0.2213
 2936SOL     OW11741   7.363   8.870   0.034  0.6911 -0.1862  0.5640
 2936SOL    HW111742   7.413   8.883  -0.046 -0.2558  1.0223  0.1381
 2936SOL    HW211743   7.399   8.934   0.095 -0.5203  0.9547  0.1359
 2936SOL     MW11744   7.374   8.880   0.031  0.4148  0.1146  0.4547
 2937SOL     OW11745   9.112   4.394   9.614  0.1565  0.0287  0.9030
 2937SOL    HW111746   9.128   4.473   9.562 -2.9486 -0.1159 -0.4654
 2937SOL    HW211747   9.065   4.424   9.691 -1.0924 -0.4345  0.3498
 2937SOL     MW11748   9.108   4.408   9.617 -0.4009 -0.0491  0.6570
 2938SOL     OW11749   0.275   4.566   1.004  0.0375 -0.1366 -0.0829
 2938SOL    HW111750   0.258   4.474   1.021 -0.3748  0.1068  0.8266
 2938SOL    HW211751   0.196   4.612   1.031 -0.0628  0.4283 -1.2368
 2938SOL     MW11752   0.263   4.560   1.009 -0.0282 -0.0331 -0.1142
 2939SOL     OW11753   9.092   8.740   0.366  0.6721  0.0145 -0.1301
 2939SOL    HW111754   9.022   8.675   0.379 -0.4771  1.1571 -0.3980
 2939SOL    HW211755   9.047   8.817   0.332  2.2431  0.4007 -1.4613
 2939SOL     MW11756   9.077   8.742   0.364  0.7261  0.2102 -0.3348
 2940SOL     OW11757   8.966   0.231   1.290 -0.2788  0.1273 -0.1462
 2940SOL    HW111758   8.969   0.309   1.346 -0.7389 -1.2400  1.8916
 2940SOL    HW211759   9.024   0.168   1.334 -0.5394 -0.9529 -1.3039
 2940SOL     MW11760   8.974   0.233   1.303 -0.3711 -0.1860 -0.0335
 2941SOL     OW11761   7.783   8.372   0.525 -0.0279  0.5907 -0.4435
 2941SOL    HW111762   7.715   8.439   0.525  0.1240  0.7441 -0.6951
 2941SOL    HW211763   7.810   8.365   0.617 -0.6517  0.2548 -0.2807
 2941SOL     MW11764   7.778   8.380   0.537 -0.0883  0.5673 -0.4549
 2942SOL     OW11765   7.156   0.990   0.878  0.5651 -0.4394  0.3448
 2942SOL    HW111766   7.146   1.011   0.971  2.6248  1.5801  0.1975
 2942SOL    HW211767   7.079   1.030   0.836  0.5203  0.1696  0.9955
 2942SOL     MW11768   7.145   0.998   0.884  0.8230 -0.1030  0.4093
 2943SOL     OW11769   8.444   7.162   1.084 -0.1404  0.9328  0.8987
 2943SOL    HW111770   8.377   7.150   1.152 -2.3931  2.5634 -0.8701
 2943SOL    HW211771   8.438   7.083   1.031 -0.2031  0.7719  1.1453
 2943SOL     MW11772   8.434   7.150   1.086 -0.4368  1.1209  0.7038
 2944SOL     OW11773   9.351   4.684   1.488  0.1684  0.5256  0.4778
 2944SOL    HW111774   9.266   4.682   1.531  0.6079  2.2957  1.5048
 2944SOL    HW211775   9.351   4.607   1.431 -1.8566  0.1515  0.9293
 2944SOL     MW11776   9.340   4.674   1.486 -0.0346  0.7043  0.6671
 2945SOL     OW11777   9.674   5.248   9.509 -0.1600 -0.1848 -0.0574
 2945SOL    HW111778   9.760   5.208   9.519  1.1402  2.2474 -0.7019
 2945SOL    HW211779   9.647   5.226   9.419  1.3026  1.6212 -1.0081
 2945SOL     MW11780   9.681   5.240   9.499  0.1937  0.3577 -0.2616
 2946SOL     OW11781   6.733   0.931   9.818  0.5451  0.7947  0.3256
 2946SOL    HW111782   6.739   1.000   9.883 -0.5238  1.9104 -0.7145
 2946SOL    HW211783   6.786   0.962   9.745  0.0163  0.5430 -0.1727
 2946SOL     MW11784   6.741   0.944   9.817  0.3406  0.9053  0.1287
 2947SOL     OW11785   6.112   5.563   1.356  0.1470 -0.3114 -0.1303
 2947SOL    HW111786   6.172   5.586   1.427 -1.2069  1.0952  0.6104
 2947SOL    HW211787   6.025   5.580   1.392 -0.6845 -1.6827 -1.4040
 2947SOL     MW11788   6.109   5.569   1.370 -0.1327 -0.3069 -0.1985
 2948SOL     OW11789   6.827   7.747   9.448 -0.1892 -0.3749 -0.0763
 2948SOL    HW111790   6.751   7.773   9.499 -0.8858 -1.0372 -0.7311
 2948SOL    HW211791   6.902   7.780   9.496 -0.8929  0.2264  0.6247
 2948SOL     MW11792   6.827   7.754   9.460 -0.3684 -0.3827 -0.0704
 2949SOL     OW11793   0.044   2.104   0.434  0.1274  0.9719 -0.3982
 2949SOL    HW111794   0.001   2.188   0.451  1.2649  1.6190 -0.6268
 2949SOL    HW211795   0.136   2.126   0.421  0.6350 -0.4329  0.5673
 2949SOL     MW11796   0.051   2.117   0.434  0.3380  0.8749 -0.3039
 2950SOL     OW11797  10.113   5.338   1.770  0.5043  0.0799  0.6550
 2950SOL    HW111798  10.140   5.426   1.744 -1.0706  1.1656  2.4623
 2950SOL    HW211799  10.167   5.318   1.846  1.7132 -1.0881 -0.4529
 2950SOL     MW11800  10.123   5.347   1.776  0.4575  0.0694  0.7445
 2951SOL     OW11801   7.185   9.704   9.098  0.1914 -0.1484  0.2632
 2951SOL    HW111802   7.216   9.773   9.039 -0.1535 -0.1921  0.0231
 2951SOL    HW211803   7.099   9.735   9.126  0.9595  0.5823  1.9156
 2951SOL     MW11804   7.178   9.717   9.094  0.2455 -0.0605  0.4440
 2952SOL     OW11805   7.357   9.303   0.190  0.0600  0.4416 -0.1175
 2952SOL    HW111806   7.436   9.350   0.163  0.2769  0.4472  0.4977
 2952SOL    HW211807   7.300   9.305   0.114  0.5395  0.6903 -0.4752
 2952SOL     MW11808   7.360   9.309   0.177  0.1492  0.4742 -0.0845
 2953SOL     OW11809   9.282   7.464   1.346 -0.1383 -1.0153 -0.0313
 2953SOL    HW111810   9.356   7.429   1.297  0.0004 -1.0895  0.2320
 2953SOL    HW211811   9.206   7.417   1.312 -0.7130  1.8725 -3.2896
 2953SOL     MW11812   9.281   7.454   1.336 -0.1941 -0.6551 -0.4147
 2954SOL     OW11813   8.432   1.594   0.627  0.0453 -0.1215  0.1983
 2954SOL    HW111814   8.378   1.515   0.622  0.7119 -0.7215  1.9930
 2954SOL    HW211815   8.511   1.572   0.578  0.2298 -0.5651  0.6947
 2954SOL     MW11816   8.435   1.581   0.620  0.1543 -0.2551  0.4916
 2955SOL     OW11817   9.143   2.119   9.235 -0.0192 -0.0376  0.2325
 2955SOL    HW111818   9.209   2.051   9.223  1.4968  1.3728  0.0915
 2955SOL    HW211819   9.061   2.072   9.248  1.1757 -1.8926  1.5524
 2955SOL     MW11820   9.141   2.105   9.235  0.3278 -0.0945  0.3834
 2956SOL     OW11821   9.804   4.454   1.685 -0.5191 -0.3278 -0.2182
 2956SOL    HW111822   9.736   4.469   1.750 -0.1227  1.0550 -0.1025
 2956SOL    HW211823   9.805   4.359   1.674 -1.6251 -0.4676  0.6697
 2956SOL     MW11824   9.796   4.443   1.692 -0.6100 -0.1687 -0.0897
 2957SOL     OW11825   7.138   8.185   2.080 -0.5847 -0.5637  0.0279
 2957SOL    HW111826   7.044   8.202   2.080 -0.0316  3.4429  0.6952
 2957SOL    HW211827   7.165   8.194   2.171  0.6826  0.2253 -0.3921
 2957SOL     MW11828   7.130   8.188   2.091 -0.3517  0.0502  0.0595
 2958SOL     OW11829   6.938   9.698   1.095  0.4497 -0.6106  0.6101
 2958SOL    HW111830   6.912   9.739   1.013 -0.8024 -0.2931  1.1429
 2958SOL    HW211831   6.882   9.620   1.102  1.6457 -1.5106  0.4103
 2958SOL     MW11832   6.928   9.693   1.085  0.4425 -0.6852  0.6527
 2959SOL     OW11833   9.732   6.151   1.521 -0.1917  0.2397  0.3927
 2959SOL    HW111834   9.822   6.183   1.512 -0.4535  1.1326  0.8160
 2959SOL    HW211835   9.742   6.058   1.540  0.5514 -0.3761 -2.4986
 2959SOL     MW11836   9.745   6.143   1.522 -0.1301  0.2752  0.0768
 2960SOL     OW11837   8.316   5.497   3.223  0.1671 -0.1608 -0.3799
 2960SOL    HW111838   8.292   5.579   3.266  1.0632  0.5969 -1.2843
 2960SOL    HW211839   8.261   5.493   3.145 -0.5961 -0.9374  0.1788
 2960SOL     MW11840   8.306   5.507   3.219  0.1841 -0.1632 -0.4242
 2961SOL     OW11841   7.898   3.384   0.525  0.1129 -0.0459  0.2747
 2961SOL    HW111842   7.893   3.336   0.442  3.1901 -1.4521  0.7300
 2961SOL    HW211843   7.945   3.464   0.504  1.8137 -0.8692  0.7276
 2961SOL     MW11844   7.904   3.388   0.512  0.7246 -0.3313  0.3909
 2962SOL     OW11845   8.760   0.523   2.336  1.0804 -0.2783  0.0070
 2962SOL    HW111846   8.679   0.519   2.385  0.3113  0.2298 -1.1582
 2962SOL    HW211847   8.824   0.477   2.390  0.1665 -0.1728  1.2172
 2962SOL     MW11848   8.758   0.516   2.349  0.8649 -0.1998  0.0128
 2963SOL     OW11849   8.018   4.779   2.344  0.5501 -0.3608  0.0981
 2963SOL    HW111850   7.946   4.727   2.308  0.5662 -2.8374  3.1860
 2963SOL    HW211851   7.976   4.858   2.378  0.0864  0.4355 -2.1285
 2963SOL     MW11852   8.003   4.782   2.344  0.4928 -0.5759  0.2084
 2964SOL     OW11853   8.591   2.908   0.235 -0.0997  0.0044 -0.8356
 2964SOL    HW111854   8.561   2.968   0.166  0.4678  0.4906 -0.6702
 2964SOL    HW211855   8.512   2.861   0.262 -0.5983  0.8546 -0.7917
 2964SOL     MW11856   8.577   2.910   0.229 -0.0909  0.1755 -0.8088
 2965SOL     OW11857   8.113   3.969  10.005  0.1195  0.0398  0.1765
 2965SOL    HW111858   8.138   3.902  10.068  0.1654 -0.2184 -0.1145
 2965SOL    HW211859   8.049   3.926   9.948 -0.1875  0.3747  0.2596
 2965SOL     MW11860   8.108   3.955  10.005  0.0861  0.0496  0.1499
 2966SOL     OW11861   7.857   1.529   2.920  0.8708  0.8588 -0.2525
 2966SOL    HW111862   7.866   1.452   2.864  0.0172  0.8626 -0.4132
 2966SOL    HW211863   7.762   1.542   2.928  0.9666  0.8895  1.1367
 2966SOL     MW11864   7.846   1.521   2.914  0.7738  0.8632 -0.0953
 2967SOL     OW11865   8.406   2.192   0.672 -0.8200 -0.5460 -0.0739
 2967SOL    HW111866   8.339   2.255   0.646  0.4640  1.1787  0.6143
 2967SOL    HW211867   8.478   2.208   0.613  0.8594  1.1286  2.2381
 2967SOL     MW11868   8.406   2.202   0.661 -0.4407 -0.1109  0.3102
 2968SOL     OW11869   7.898   1.191   8.921 -0.0427  0.1376  0.3614
 2968SOL    HW111870   7.932   1.189   8.832 -1.0223  0.8439 -0.0431
 2968SOL    HW211871   7.869   1.281   8.933 -2.2312 -0.5418  0.5067
 2968SOL     MW11872   7.899   1.202   8.911 -0.4483  0.1410  0.3282
 2969SOL     OW11873   6.726   7.970   0.305  0.1707 -0.2569  0.0668
 2969SOL    HW111874   6.720   7.889   0.254 -2.7600 -1.3864  1.9556
 2969SOL    HW211875   6.638   8.008   0.300  1.3749  2.7328 -0.4775
 2969SOL     MW11876   6.714   7.965   0.298 -0.0503 -0.0188  0.2389
 2970SOL     OW11877   7.766   6.184   0.503 -0.1267 -0.1066 -0.6469
 2970SOL    HW111878   7.681   6.143   0.483 -0.3737 -0.0418  0.2359
 2970SOL    HW211879   7.826   6.147   0.439 -0.9369  0.2803 -1.6716
 2970SOL     MW11880   7.763   6.174   0.492 -0.2620 -0.0488 -0.6650
 2971SOL     OW11881   7.071   4.985   0.616  0.1201 -0.3592  0.4111
 2971SOL    HW111882   7.075   4.922   0.688  0.1112  0.4795  1.1595
 2971SOL    HW211883   7.152   4.969   0.567 -0.6155 -2.0196 -0.3542
 2971SOL     MW11884   7.082   4.975   0.619  0.0248 -0.4643  0.4089
 2972SOL     OW11885   9.871   4.307   1.403  0.1927 -0.2280 -0.0937
 2972SOL    HW111886   9.934   4.342   1.466  1.0061 -3.5324  1.1048
 2972SOL    HW211887   9.923   4.248   1.349 -1.5266 -1.6028 -0.3026
 2972SOL     MW11888   9.886   4.304   1.404  0.0767 -0.8270  0.0330
 2973SOL     OW11889   7.539  10.035   2.829 -0.4026 -0.1435  0.2433
 2973SOL    HW111890   7.611  10.090   2.796 -0.8423 -0.0104 -0.5157
 2973SOL    HW211891   7.557   9.949   2.793  0.4501 -0.6003  1.6764
 2973SOL     MW11892   7.551  10.031   2.820 -0.3497 -0.1850  0.3296
 2974SOL     OW11893   9.845   4.210   9.711  0.3380 -0.1381 -0.0917
 2974SOL    HW111894   9.757   4.236   9.683 -0.0501 -2.0565 -0.8067
 2974SOL    HW211895   9.868   4.273   9.780 -1.4814  0.5437 -0.0568
 2974SOL     MW11896   9.837   4.222   9.716  0.0554 -0.2964 -0.1788
 2975SOL     OW11897   8.160   0.158   9.325  0.0986  0.0720  0.0846
 2975SOL    HW111898   8.208   0.237   9.349 -0.5823  0.4274  0.3062
 2975SOL    HW211899   8.166   0.101   9.402 -0.5778  0.4798  0.4441
 2975SOL     MW11900   8.167   0.161   9.338 -0.0751  0.1697  0.1590
 2976SOL     OW11901   9.180   5.263   0.295  0.0685  0.0935  0.5030
 2976SOL    HW111902   9.157   5.322   0.223  1.0263 -1.2193 -0.9410
 2976SOL    HW211903   9.096   5.243   0.336 -0.8256 -0.7173 -1.5578
 2976SOL     MW11904   9.166   5.268   0.291  0.0766 -0.1784  0.0544
 2977SOL     OW11905   8.387   4.257   9.575  0.3079  0.0555  0.3721
 2977SOL    HW111906   8.317   4.212   9.622  0.2832 -0.7573 -0.4064
 2977SOL    HW211907   8.347   4.340   9.547  0.2197  0.3972  1.4521
 2977SOL     MW11908   8.373   4.262   9.577  0.2934 -0.0048  0.4107
 2978SOL     OW11909   8.606   3.706   9.251  0.2961 -0.1916  0.3346
 2978SOL    HW111910   8.672   3.738   9.313  0.0283  1.1309 -0.0325
 2978SOL    HW211911   8.623   3.612   9.245  0.6116 -0.2841  2.0643
 2978SOL     MW11912   8.617   3.698   9.258  0.3022 -0.0341  0.5090
 2979SOL     OW11913   0.328   2.147   0.448  0.3939  0.3958  0.1658
 2979SOL    HW111914   0.357   2.206   0.518  1.3199  0.1389  0.0175
 2979SOL    HW211915   0.334   2.199   0.368  0.2524  0.4044  0.1614
 2979SOL     MW11916   0.332   2.161   0.447  0.4943  0.3640  0.1463
 2980SOL     OW11917   8.597   5.620   9.161 -0.3621 -0.0540  0.0079
 2980SOL    HW111918   8.680   5.628   9.114  0.2040  0.2171  1.0113
 2980SOL    HW211919   8.622   5.623   9.254 -1.5566  0.6786  0.3312
 2980SOL     MW11920   8.611   5.621   9.167 -0.4425  0.0745  0.1777
 2981SOL     OW11921   9.772   9.302   0.773  0.3544 -0.1378 -0.0758
 2981SOL    HW111922   9.704   9.365   0.797 -0.9321 -1.3801 -0.2677
 2981SOL    HW211923   9.735   9.255   0.698  1.7743 -0.3420 -0.6761
 2981SOL     MW11924   9.758   9.304   0.766  0.3715 -0.3229 -0.1772
 2982SOL     OW11925   8.835   5.668   1.054 -0.1459 -0.3255 -0.3120
 2982SOL    HW111926   8.740   5.666   1.042 -0.1344  1.0103 -0.8639
 2982SOL    HW211927   8.850   5.629   1.140 -1.1925 -0.6429 -0.2713
 2982SOL     MW11928   8.825   5.663   1.064 -0.2784 -0.1952 -0.3775
 2983SOL     OW11929   7.189   3.230   2.711  0.0152  0.3550  0.2210
 2983SOL    HW111930   7.159   3.274   2.791  0.4631  0.5882  0.2637
 2983SOL    HW211931   7.284   3.225   2.720 -0.1256 -2.4502  1.1500
 2983SOL     MW11932   7.197   3.235   2.722  0.0545  0.0257  0.3454
 2984SOL     OW11933   7.672   1.040   1.067  0.0122 -0.0982  0.3529
 2984SOL    HW111934   7.646   1.117   1.118  1.1201  2.0940 -2.1174
 2984SOL    HW211935   7.754   1.011   1.107  0.3377  0.9510  0.4898
 2984SOL     MW11936   7.679   1.046   1.079  0.1957  0.3167  0.0542
 2985SOL     OW11937   8.148   1.053   9.822 -0.6123 -0.1774 -0.6962
 2985SOL    HW111938   8.057   1.080   9.833 -0.8016 -0.6503 -1.0981
 2985SOL    HW211939   8.157   0.977   9.879 -0.2694  0.2929 -0.1077
 2985SOL     MW11940   8.138   1.047   9.831 -0.5926 -0.1777 -0.6723
 2986SOL     OW11941   6.671   3.339   1.586  0.2094 -0.4371 -0.3798
 2986SOL    HW111942   6.717   3.420   1.562  1.1676 -1.0524 -0.7124
 2986SOL    HW211943   6.692   3.327   1.679  0.1122 -0.3256 -0.3439
 2986SOL     MW11944   6.680   3.348   1.595  0.3196 -0.5016 -0.4178
 2987SOL     OW11945   9.363   5.513   1.321  0.3015  0.0276 -0.3122
 2987SOL    HW111946   9.428   5.578   1.348 -0.2859  0.5223 -0.0698
 2987SOL    HW211947   9.281   5.562   1.315  0.2893 -0.1566 -2.4955
 2987SOL     MW11948   9.361   5.527   1.324  0.2248  0.0673 -0.5606
 2988SOL     OW11949   7.078   1.269   1.842  0.3969  0.2355  0.1384
 2988SOL    HW111950   7.150   1.311   1.889  0.7174 -1.8967  1.6976
 2988SOL    HW211951   6.999   1.305   1.883  0.6533 -0.0464  0.8960
 2988SOL     MW11952   7.077   1.279   1.853  0.4707 -0.0735  0.4350
 2989SOL     OW11953   6.466   1.204  10.033 -0.0613  0.4142 -0.4512
 2989SOL    HW111954   6.434   1.168   9.950  1.2235  0.0938 -0.8133
 2989SOL    HW211955   6.555   1.171  10.042 -0.8664 -1.3674  2.1438
 2989SOL     MW11956   6.473   1.196  10.023  0.0001  0.1451 -0.1653
 2990SOL     OW11957   7.499   7.430   9.818  0.0411 -0.2175 -0.0202
 2990SOL    HW111958   7.586   7.437   9.779  0.2037 -0.5733  0.2703
 2990SOL    HW211959   7.477   7.338   9.811 -0.3472 -0.1146 -0.1605
 2990SOL     MW11960   7.508   7.419   9.812  0.0122 -0.2498 -0.0009
 2991SOL     OW11961   6.264   0.868   1.325  0.3793 -0.4513  0.0261
 2991SOL    HW111962   6.192   0.846   1.383 -0.4485  1.6705 -0.1020
 2991SOL    HW211963   6.321   0.924   1.377  1.6026 -1.5277 -0.0974
 2991SOL     MW11964   6.262   0.872   1.339  0.4299 -0.3175 -0.0061
 2992SOL     OW11965   9.410   2.989   0.086  0.1042  0.0850 -0.9785
 2992SOL    HW111966   9.442   3.074   0.056  0.6712  0.7184  1.1855
 2992SOL    HW211967   9.469   2.966   0.159 -0.6697 -1.6791 -0.8609
 2992SOL     MW11968   9.422   2.997   0.092  0.0777 -0.0597 -0.6864
 2993SOL     OW11969   6.578   5.163   1.515 -0.0631  0.0551 -0.0788
 2993SOL    HW111970   6.490   5.194   1.494  0.8912  2.3092 -1.1522
 2993SOL    HW211971   6.594   5.091   1.455 -1.4352 -0.9629  0.7120
 2993SOL     MW11972   6.569   5.158   1.505 -0.1166  0.2134 -0.1150
 2994SOL     OW11973   7.797   1.317   2.277  0.7047 -0.3637 -0.2587
 2994SOL    HW111974   7.823   1.300   2.186  0.5165  0.2431 -0.4244
 2994SOL    HW211975   7.712   1.274   2.286 -0.1778  1.1671 -0.9334
 2994SOL     MW11976   7.789   1.309   2.266  0.5677 -0.0900 -0.3663
 2995SOL     OW11977   8.811   1.736   0.265 -0.0080 -0.1993  0.6771
 2995SOL    HW111978   8.876   1.774   0.325  0.3198 -2.3552  1.7888
 2995SOL    HW211979   8.857   1.663   0.224 -0.9772 -0.2025 -0.4549
 2995SOL     MW11980   8.826   1.731   0.267 -0.0901 -0.4757  0.6745
 2996SOL     OW11981   8.212   4.612   1.887  0.0897  0.1271  0.4764
 2996SOL    HW111982   8.237   4.570   1.969 -0.0147  0.1115  0.5003
 2996SOL    HW211983   8.155   4.549   1.844  1.5089 -0.5925 -0.4121
 2996SOL     MW11984   8.208   4.599   1.892  0.2580  0.0330  0.3657
 2997SOL     OW11985   7.938   9.230   0.027  0.3802 -0.7013  0.1485
 2997SOL    HW111986   7.972   9.319   0.017 -1.7551  0.1766  0.0861
 2997SOL    HW211987   7.996   9.176  -0.027  1.3022  0.7504 -0.3802
 2997SOL     MW11988   7.950   9.235   0.019  0.2249 -0.4031  0.0728
 2998SOL     OW11989   0.388   3.100   0.890 -0.5311  0.0461 -0.6540
 2998SOL    HW111990   0.428   3.148   0.818  1.9802 -1.0348 -0.1128
 2998SOL    HW211991   0.399   3.008   0.867 -0.7963 -0.3052  0.5213
 2998SOL     MW11992   0.395   3.094   0.878 -0.2435 -0.1372 -0.4343
 2999SOL     OW11993   8.872   6.661   9.888 -0.2702  0.2745  0.0444
 2999SOL    HW111994   8.880   6.737   9.830  0.1840 -1.5281 -2.4401
 2999SOL    HW211995   8.960   6.623   9.889  0.0340  0.8436  2.9474
 2999SOL     MW11996   8.884   6.666   9.880 -0.1731  0.1166  0.0979
 3000SOL     OW11997   6.594  10.134   9.405 -0.0226 -0.1320  0.0666
 3000SOL    HW111998   6.558  10.059   9.358 -1.5353  0.4914  0.1661
 3000SOL    HW211999   6.538  10.207   9.379  0.3036  0.6012  1.3573
 3000SOL     MW12000   6.582  10.134   9.395 -0.1745  0.0416  0.2446
 3001SOL     OW12001   7.209   8.544   9.521  0.5415  0.2979 -0.3250
 3001SOL    HW112002   7.248   8.531   9.435  1.8946  1.4368  0.0699
 3001SOL    HW212003   7.116   8.525   9.509  0.9823 -1.2439 -1.6169
 3001SOL     MW12004   7.202   8.540   9.508  0.7712  0.2463 -0.4398
 3002SOL     OW12005   6.561   0.865  10.136  0.0111  0.3650 -0.2002
 3002SOL    HW112006   6.468   0.885  10.145 -0.0123 -0.1261  0.7742
 3002SOL    HW212007   6.567   0.817  10.053 -0.9861 -1.7109  0.8642
 3002SOL     MW12008   6.550   0.861  10.126 -0.1195  0.0364  0.0608
 3003SOL     OW12009  10.020   4.768   9.562 -0.3552  0.2412 -0.2172
 3003SOL    HW112010  10.101   4.718   9.566 -1.1373 -1.0553 -0.2021
 3003SOL    HW212011   9.951   4.702   9.553 -1.6587  1.1292  2.3225
 3003SOL     MW12012  10.022   4.753   9.561 -0.6222  0.1889  0.1099
 3004SOL     OW12013   8.804   2.413   2.730 -0.1852  0.2268  0.5247
 3004SOL    HW112014   8.735   2.353   2.702  0.8349 -1.1925  0.9142
 3004SOL    HW212015   8.759   2.494   2.751 -1.7930 -0.7918  1.1762
 3004SOL     MW12016   8.790   2.416   2.729 -0.2605 -0.0853  0.6579
 3005SOL     OW12017   7.599   3.964   0.883 -0.0349  0.1055  0.1370
 3005SOL    HW112018   7.527   3.902   0.894 -1.2325  1.1724 -1.2889
 3005SOL    HW212019   7.658   3.946   0.957 -0.7037 -2.1928  0.1780
 3005SOL     MW12020   7.597   3.954   0.894 -0.2738 -0.0521 -0.0403
 3006SOL     OW12021  10.067   2.059  10.030 -0.0256 -0.1622  0.4454
 3006SOL    HW112022  10.073   2.145   9.988 -1.2227 -0.4205 -0.3287
 3006SOL    HW212023  10.053   2.079  10.123 -0.0173  0.4824  0.3154
 3006SOL     MW12024  10.066   2.073  10.037 -0.1778 -0.1128  0.3296
 3007SOL     OW12025   8.397   5.305   0.261  0.6420 -0.1684  0.2894
 3007SOL    HW112026   8.335   5.354   0.314 -1.1680 -2.3847  0.3673
 3007SOL    HW212027   8.352   5.224   0.239  3.3529 -1.7425 -0.0054
 3007SOL     MW12028   8.384   5.301   0.265  0.7573 -0.6536  0.2616
 3008SOL     OW12029   8.060   9.051  10.026 -0.1708 -0.5127 -0.1079
 3008SOL    HW112030   8.029   9.058   9.936  0.4545 -0.7873 -0.3546
 3008SOL    HW212031   8.152   9.076  10.022  0.1862 -1.6649  0.2329
 3008SOL     MW12032   8.068   9.055  10.014 -0.0451 -0.6953 -0.0958
 3009SOL     OW12033   0.083   7.762   1.461 -0.1017 -0.0727  0.2762
 3009SOL    HW112034   0.125   7.714   1.532  0.4413  1.2859  0.9173
 3009SOL    HW212035   0.149   7.826   1.433 -1.1290  0.9756  0.1555
 3009SOL     MW12036   0.097   7.764   1.466 -0.1637  0.2354  0.3428
 3010SOL     OW12037   8.804   3.447   0.787 -0.6167  0.0899 -0.5100
 3010SOL    HW112038   8.864   3.473   0.717  0.4757  2.8609  1.2644
 3010SOL    HW212039   8.860   3.401   0.850 -0.6720  1.2710  0.4203
 3010SOL     MW12040   8.819   3.444   0.786 -0.4840  0.5958 -0.1638
 3011SOL     OW12041   9.169   4.233   2.321  1.0229 -0.0794 -0.5848
 3011SOL    HW112042   9.136   4.262   2.236 -2.1133 -0.6245  0.3260
 3011SOL    HW212043   9.203   4.145   2.305  0.6707 -0.0913 -1.3060
 3011SOL     MW12044   9.169   4.225   2.308  0.5764 -0.1507 -0.5605
 3012SOL     OW12045   6.921   0.014   0.153 -0.0862 -0.1191 -0.4065
 3012SOL    HW112046   6.952   0.086   0.097  1.1109 -0.6967 -0.5107
 3012SOL    HW212047   6.997  -0.010   0.205 -1.4623  1.2687  2.4946
 3012SOL     MW12048   6.934   0.020   0.152 -0.1091 -0.0154 -0.0485
 3013SOL     OW12049   9.732   2.902   2.696 -0.0357 -0.3512 -0.7501
 3013SOL    HW112050   9.732   2.813   2.731 -0.6052 -0.3906 -0.8447
 3013SOL    HW212051   9.810   2.905   2.641 -0.6278 -1.1754 -1.6796
 3013SOL     MW12052   9.742   2.891   2.693 -0.1844 -0.4617 -0.8812
 3014SOL     OW12053   7.682   9.647   3.018 -0.2310  0.2956  0.0637
 3014SOL    HW112054   7.589   9.660   2.998 -0.0392 -0.7999 -1.7223
 3014SOL    HW212055   7.726   9.656   2.934  0.6184 -4.9022 -0.3594
 3014SOL     MW12056   7.676   9.650   3.005 -0.0977 -0.5101 -0.2191
 3015SOL     OW12057   6.530   7.277   1.003 -0.1178  0.0524  0.3421
 3015SOL    HW112058   6.597   7.289   0.936 -2.3112 -0.2148 -2.0789
 3015SOL    HW212059   6.457   7.332   0.975 -1.4751 -0.7669  2.0363
 3015SOL     MW12060   6.529   7.285   0.991 -0.5723 -0.0867  0.2491
 3016SOL     OW12061   8.032   2.480   9.428 -0.2951  0.3618  0.1824
 3016SOL    HW112062   8.018   2.385   9.428 -0.9431  0.4432 -0.4945
 3016SOL    HW212063   7.961   2.514   9.373 -0.5526  1.3088  1.0737
 3016SOL     MW12064   8.021   2.472   9.421 -0.4110  0.4935  0.2098
 3017SOL     OW12065   8.652   6.932   2.557 -0.2287  0.0103 -0.1786
 3017SOL    HW112066   8.635   7.023   2.534 -1.4119  0.3473  1.7702
 3017SOL    HW212067   8.747   6.923   2.555 -0.1022  1.2797 -0.4154
 3017SOL     MW12068   8.662   6.943   2.554 -0.3640  0.2159  0.0406
 3018SOL     OW12069   8.589   0.504   0.824  0.0593  0.1381 -0.1952
 3018SOL    HW112070   8.574   0.420   0.781  0.3739 -0.3444  0.6111
 3018SOL    HW212071   8.504   0.549   0.819 -1.0491 -1.5199  2.1043
 3018SOL     MW12072   8.576   0.499   0.818 -0.0424 -0.1359  0.2024
 3019SOL     OW12073   9.299   7.995   2.213 -0.1604 -0.1627 -0.0513
 3019SOL    HW112074   9.219   7.952   2.243 -0.8103  0.2865 -1.1061
 3019SOL    HW212075   9.271   8.080   2.182  0.5337 -0.4441 -1.5388
 3019SOL     MW12076   9.286   8.000   2.213 -0.1548 -0.1412 -0.3767
 3020SOL     OW12077   7.683   8.799   0.790 -0.2566  0.1630 -0.3093
 3020SOL    HW112078   7.684   8.751   0.873  0.3063  0.7117  0.0117
 3020SOL    HW212079   7.772   8.835   0.782 -0.4220  0.4405 -0.9586
 3020SOL     MW12080   7.695   8.797   0.800 -0.2057  0.2688 -0.3513
 3021SOL     OW12081   6.539   8.357   9.985  0.0655 -0.0766  0.5506
 3021SOL    HW112082   6.577   8.337   9.899 -0.6161  0.2179  0.1720
 3021SOL    HW212083   6.584   8.437  10.012  0.2671 -0.1569  0.4579
 3021SOL     MW12084   6.549   8.365   9.977  0.0040 -0.0492  0.4903
 3022SOL     OW12085   9.388   2.754   2.192  0.4119  0.0006  0.4491
 3022SOL    HW112086   9.304   2.708   2.186 -0.4093  1.5193 -0.2886
 3022SOL    HW212087   9.427   2.744   2.105  0.5954  0.0273  0.5276
 3022SOL     MW12088   9.382   2.747   2.180  0.3303  0.1984  0.3647
 3023SOL     OW12089   7.105   0.066   0.607 -0.1389  0.3799  0.5746
 3023SOL    HW112090   7.156   0.137   0.646 -0.0254  0.4974  0.2257
 3023SOL    HW212091   7.014   0.095   0.613 -0.1914  0.0382  1.4657
 3023SOL     MW12092   7.100   0.079   0.612 -0.1311  0.3512  0.6440
 3024SOL     OW12093   9.562   1.761   0.363  0.4432  0.1652  0.6238
 3024SOL    HW112094   9.570   1.781   0.456 -0.8350  0.8678  0.5985
 3024SOL    HW212095   9.598   1.838   0.318 -0.6021  0.6326  0.5499
 3024SOL     MW12096   9.568   1.773   0.369  0.1458  0.3150  0.6111
 3025SOL     OW12097   0.101   4.011   0.035 -0.2784  0.2754  0.3153
 3025SOL    HW112098   0.030   4.074   0.045 -0.4059  0.1786  0.0433
 3025SOL    HW212099   0.069   3.948  -0.030  0.0152  0.1724  0.2649
 3025SOL     MW12100   0.088   4.011   0.028 -0.2571  0.2498  0.2740
 3026SOL     OW12101   9.951   7.847   0.720  0.1594 -0.0111 -0.1840
 3026SOL    HW112102   9.856   7.830   0.723  0.3598 -1.2275 -0.2150
 3026SOL    HW212103   9.987   7.773   0.671  1.2634 -0.1789  0.8436
 3026SOL     MW12104   9.943   7.835   0.714  0.3264 -0.1883 -0.0564
 3027SOL     OW12105   8.921   3.839   2.063  0.2207  0.2333 -0.2954
 3027SOL    HW112106   8.855   3.883   2.010 -0.6108 -1.7694 -1.0259
 3027SOL    HW212107   8.917   3.883   2.148 -0.6889  1.3902 -0.9087
 3027SOL     MW12108   8.912   3.850   2.067 -0.0022  0.1251 -0.4674
 3028SOL     OW12109   7.096   6.786   2.298  0.6999  0.0294  0.4484
 3028SOL    HW112110   7.033   6.768   2.228 -0.7740 -0.0538  1.7231
 3028SOL    HW212111   7.177   6.808   2.253  0.2297 -1.5186 -1.2505
 3028SOL     MW12112   7.098   6.787   2.283  0.4510 -0.1794  0.3941
 3029SOL     OW12113   6.558   2.831   2.209 -0.0110  0.2786 -0.7179
 3029SOL    HW112114   6.646   2.854   2.178 -0.9053  0.9651 -2.9366
 3029SOL    HW212115   6.513   2.798   2.131 -1.7441 -0.0389  0.3709
 3029SOL     MW12116   6.563   2.830   2.195 -0.3473  0.3258 -0.8625
 3030SOL     OW12117   7.953   8.660   2.595 -0.1780 -0.1924  0.1903
 3030SOL    HW112118   7.903   8.611   2.660  1.4021  0.2353  1.8044
 3030SOL    HW212119   8.043   8.627   2.604  0.3424  0.9025 -0.7764
 3030SOL     MW12120   7.958   8.649   2.604  0.0909  0.0025  0.2732
 3031SOL     OW12121   9.925   0.006   2.202 -0.3465  0.6022  0.1222
 3031SOL    HW112122   9.992   0.057   2.157 -1.4744  1.7301 -0.3373
 3031SOL    HW212123   9.847   0.014   2.146 -0.3962 -2.2813 -0.3849
 3031SOL     MW12124   9.924   0.013   2.189 -0.4972  0.3775 -0.0015
 3032SOL     OW12125   8.428   4.352   0.779  0.4773  0.0293 -0.1450
 3032SOL    HW112126   8.340   4.348   0.818  0.2205 -1.1916 -0.7963
 3032SOL    HW212127   8.414   4.390   0.692  0.7432  0.7237  0.1070
 3032SOL     MW12128   8.415   4.357   0.773  0.4785 -0.0381 -0.1961
 3033SOL     OW12129   7.149   8.266   1.098  0.1744  0.2506  0.5693
 3033SOL    HW112130   7.083   8.196   1.094  0.6129 -0.2863  2.0400
 3033SOL    HW212131   7.228   8.223   1.129  0.6550  1.2759  0.8063
 3033SOL     MW12132   7.151   8.252   1.101  0.2921  0.3131  0.7879
 3034SOL     OW12133   9.316   2.170   9.527  0.5667  0.2111 -0.0316
 3034SOL    HW112134   9.358   2.214   9.602 -0.7137 -0.6421  1.2390
 3034SOL    HW212135   9.294   2.083   9.560 -1.4841  0.3607 -0.8600
 3034SOL     MW12136   9.319   2.165   9.541  0.1403  0.1210  0.0250
 3035SOL     OW12137   6.965   9.693   2.011 -0.2012  0.1101  0.1023
 3035SOL    HW112138   7.054   9.675   2.039 -0.0697 -2.2590 -1.5675
 3035SOL    HW212139   6.972   9.775   1.961  1.1254 -0.2467 -0.3305
 3035SOL     MW12140   6.977   9.701   2.008 -0.0146 -0.2389 -0.1668
 3036SOL     OW12141   7.143   8.721   9.861 -0.2420 -0.3317  0.5230
 3036SOL    HW112142   7.146   8.627   9.842 -0.1471 -0.1357 -0.4885
 3036SOL    HW212143   7.067   8.753   9.813  0.0913  0.2103  0.3441
 3036SOL     MW12144   7.134   8.713   9.852 -0.1872 -0.2372  0.3706
 3037SOL     OW12145   9.570   7.734   9.939  0.0288  0.0338  0.1759
 3037SOL    HW112146   9.475   7.743   9.945  0.0141  0.5845 -0.8177
 3037SOL    HW212147   9.601   7.822   9.917  1.0428  0.5662  3.2438
 3037SOL     MW12148   9.562   7.746   9.937  0.1567  0.1725  0.4415
 3038SOL     OW12149   8.290   1.740   2.372 -0.3555  0.5778 -0.0168
 3038SOL    HW112150   8.260   1.831   2.368  0.6107  0.8737 -0.7875
 3038SOL    HW212151   8.262   1.702   2.288  0.9377  0.7144 -0.5221
 3038SOL     MW12152   8.282   1.746   2.361 -0.0663  0.6331 -0.1801
 3039SOL     OW12153   9.087   1.690   1.421  0.0679  0.1401  0.1523
 3039SOL    HW112154   8.993   1.701   1.433  0.2415 -0.0297  1.9623
 3039SOL    HW212155   9.100   1.596   1.413  0.0049  0.2234 -1.1774
 3039SOL     MW12156   9.077   1.680   1.421  0.0821  0.1290  0.2138
 3040SOL     OW12157   7.513   6.324   0.991  0.2234  0.1671  0.1895
 3040SOL    HW112158   7.588   6.287   0.945 -0.2593 -0.3849 -0.1699
 3040SOL    HW212159   7.445   6.257   0.984 -1.0511  1.5359 -1.4554
 3040SOL     MW12160   7.514   6.310   0.984 -0.0016  0.2716 -0.0671
 3041SOL     OW12161   8.279   8.165   9.525 -0.4888  0.0591 -0.2332
 3041SOL    HW112162   8.216   8.225   9.484 -1.2017 -0.6952 -0.2789
 3041SOL    HW212163   8.234   8.081   9.526  1.1493 -0.9060 -1.7710
 3041SOL     MW12164   8.265   8.162   9.520 -0.3704 -0.1610 -0.4359
 3042SOL     OW12165   7.903   7.794   0.766 -0.0544 -0.2976 -0.0559
 3042SOL    HW112166   7.949   7.721   0.724  0.1828 -0.4691  0.4971
 3042SOL    HW212167   7.973   7.846   0.806 -0.4498 -2.1618  3.4128
 3042SOL     MW12168   7.918   7.791   0.766 -0.0747 -0.5582  0.4589
 3043SOL     OW12169   7.353   7.363   0.095  0.1628 -0.1902 -0.1817
 3043SOL    HW112170   7.388   7.431   0.153 -0.0154 -0.4372  0.2226
 3043SOL    HW212171   7.277   7.403   0.054 -0.6547 -0.5247  0.9577
 3043SOL     MW12172   7.348   7.377   0.097  0.0353 -0.2646  0.0159
 3044SOL     OW12173   6.767   6.443   1.991  0.2767 -0.3701 -0.4395
 3044SOL    HW112174   6.748   6.386   1.916 -1.7298 -1.6090  0.9181
 3044SOL    HW212175   6.741   6.530   1.962  1.0674 -0.5263 -1.7031
 3044SOL     MW12176   6.761   6.447   1.977  0.1211 -0.5487 -0.4275
 3045SOL     OW12177   0.155   2.087   0.177 -0.1374 -0.1751 -0.3173
 3045SOL    HW112178   0.237   2.130   0.153  0.3132 -0.3480  0.8532
 3045SOL    HW212179   0.173   1.993   0.168 -0.3067 -0.2068 -0.3334
 3045SOL     MW12180   0.168   2.080   0.172 -0.1014 -0.2013 -0.1695
 3046SOL     OW12181   8.535   2.521   0.229 -0.1190 -0.1432 -0.2088
 3046SOL    HW112182   8.513   2.428   0.219  0.0163 -0.0614 -1.3643
 3046SOL    HW212183   8.626   2.527   0.200 -0.4861  0.5381 -1.2597
 3046SOL     MW12184   8.544   2.510   0.224 -0.1487 -0.0455 -0.4913
 3047SOL     OW12185   9.742   1.540   1.123  0.2501 -0.1677  0.1410
 3047SOL    HW112186   9.677   1.601   1.087  0.4549 -0.1982 -0.2851
 3047SOL    HW212187   9.703   1.454   1.111  0.5750 -0.2244 -0.5672
 3047SOL     MW12188   9.728   1.537   1.117  0.3179 -0.1788 -0.0042
 3048SOL     OW12189   9.830   3.328   2.182  0.0165 -0.5565 -0.0671
 3048SOL    HW112190   9.762   3.290   2.127 -0.0942  2.1445 -1.9894
 3048SOL    HW212191   9.788   3.402   2.226  1.4840  0.8366 -0.8768
 3048SOL     MW12192   9.816   3.332   2.181  0.1902 -0.0324 -0.4168
 3049SOL     OW12193   7.867   2.835   1.336 -0.0945 -0.3278 -0.1065
 3049SOL    HW112194   7.892   2.920   1.372 -1.1457  0.6561 -1.5880
 3049SOL    HW212195   7.785   2.852   1.290 -0.8941 -2.3826  0.4568
 3049SOL     MW12196   7.860   2.848   1.335 -0.3314 -0.4649 -0.2240
 3050SOL     OW12197  10.045   7.894   1.229  0.0573 -0.1505  0.2697
 3050SOL    HW112198  10.076   7.983   1.212  2.5477 -0.9448  0.2594
 3050SOL    HW212199  10.071   7.844   1.151 -0.4829 -1.0750  0.6655
 3050SOL     MW12200  10.052   7.899   1.217  0.3069 -0.3706  0.3191
 3051SOL     OW12201   9.419   2.690   9.830  0.0374  0.0978 -0.5879
 3051SOL    HW112202   9.344   2.645   9.790  0.6419 -1.2925 -0.2347
 3051SOL    HW212203   9.424   2.654   9.918  0.7780  0.6075 -0.4112
 3051SOL     MW12204   9.410   2.680   9.836  0.2096 -0.0149 -0.5201
 3052SOL     OW12205  10.118   2.711   2.437 -0.0936 -0.3841 -0.2812
 3052SOL    HW112206  10.127   2.671   2.350  1.3171  0.3318 -0.4814
 3052SOL    HW212207  10.102   2.637   2.496 -0.6262 -0.9168 -1.0771
 3052SOL     MW12208  10.117   2.696   2.433  0.0188 -0.3606 -0.4087
 3053SOL     OW12209   9.579   3.821   0.115 -0.2218  0.2571  0.3012
 3053SOL    HW112210   9.637   3.841   0.042  0.1641 -0.2892  0.4459
 3053SOL    HW212211   9.496   3.796   0.074 -0.0589  0.1189  0.0510
 3053SOL     MW12212   9.575   3.820   0.100 -0.1516  0.1695  0.2877
 3054SOL     OW12213   9.856   8.520   9.684  0.3353  0.4750  0.1344
 3054SOL    HW112214   9.918   8.584   9.719 -0.1845  1.6704 -1.0724
 3054SOL    HW212215   9.819   8.562   9.606 -0.3820 -1.1030 -0.4085
 3054SOL     MW12216   9.859   8.534   9.679  0.1769  0.4260 -0.0896
 3055SOL     OW12217   7.200   3.794   1.558 -0.0613 -0.4394 -0.2835
 3055SOL    HW112218   7.179   3.715   1.509 -0.2750 -1.1630  0.9400
 3055SOL    HW212219   7.116   3.838   1.571 -0.1482 -0.7647  0.2859
 3055SOL     MW12220   7.187   3.790   1.553 -0.0998 -0.5737 -0.0540
 3056SOL     OW12221   9.110   9.396   1.978  0.5938  0.4343  0.2987
 3056SOL    HW112222   9.130   9.419   2.069  1.0410  0.2604  0.2426
 3056SOL    HW212223   9.067   9.474   1.943 -0.3859  0.1979  0.9117
 3056SOL     MW12224   9.107   9.409   1.985  0.5256  0.3818  0.3700
 3057SOL     OW12225   9.033   1.627  10.102 -0.0111 -0.2685  0.5826
 3057SOL    HW112226   9.057   1.717  10.123 -1.5883  0.1072  0.9308
 3057SOL    HW212227   8.972   1.635  10.028 -1.4470 -0.8995  1.6497
 3057SOL     MW12228   9.028   1.639  10.095 -0.3968 -0.3012  0.7638
 3058SOL     OW12229   8.925   3.864   0.993  0.4399 -0.7602 -0.6140
 3058SOL    HW112230   8.885   3.854   0.906  0.0699 -1.6956 -0.3496
 3058SOL    HW212231   8.851   3.863   1.053  0.7184 -0.4149 -0.2624
 3058SOL     MW12232   8.910   3.862   0.989  0.4282 -0.8357 -0.5352
 3059SOL     OW12233   8.908   2.037   2.713  0.2247 -0.1296  0.1137
 3059SOL    HW112234   8.840   2.029   2.646  0.5302  0.2122 -0.2465
 3059SOL    HW212235   8.971   2.098   2.675  0.8827 -0.6723  0.3189
 3059SOL     MW12236   8.907   2.044   2.699  0.3481 -0.1553  0.0939
 3060SOL     OW12237   8.612   6.708   9.560 -0.3800 -0.0172 -0.4412
 3060SOL    HW112238   8.529   6.755   9.552 -0.1865  1.0632  2.6628
 3060SOL    HW212239   8.669   6.766   9.609  1.4034 -1.7360 -0.3314
 3060SOL     MW12240   8.609   6.721   9.565 -0.1269 -0.0989 -0.0298
 3061SOL     OW12241   8.577   9.915   9.228  0.2639  0.1703 -0.1316
 3061SOL    HW112242   8.508   9.891   9.165  0.5711  1.4874 -1.0143
 3061SOL    HW212243   8.658   9.889   9.185  0.3374 -3.4796  1.8492
 3061SOL     MW12244   8.578   9.909   9.214  0.3126 -0.1284  0.0089
 3062SOL     OW12245   6.009   9.908   0.401  0.0996  0.3165 -0.0324
 3062SOL    HW112246   6.087   9.958   0.379  1.7437 -1.5533  1.2606
 3062SOL    HW212247   5.943   9.974   0.421  1.0796  1.9500 -1.8933
 3062SOL     MW12248   6.010   9.923   0.401  0.4355  0.2863 -0.1051
 3063SOL     OW12249   9.825   1.501   2.477 -0.1060  0.0952  0.0498
 3063SOL    HW112250   9.898   1.538   2.428 -0.0583  1.3193  0.9819
 3063SOL    HW212251   9.750   1.509   2.418  0.2125  0.2915 -0.3312
 3063SOL     MW12252   9.824   1.507   2.463 -0.0591  0.2770  0.1203
 3064SOL     OW12253   6.940   8.579   9.417 -0.3040 -0.9120 -0.1238
 3064SOL    HW112254   6.931   8.656   9.362  0.3829 -0.6921  0.0637
 3064SOL    HW212255   6.900   8.508   9.367  0.5217 -0.7596 -1.0152
 3064SOL     MW12256   6.934   8.579   9.404 -0.1104 -0.8643 -0.2139
 3065SOL     OW12257   8.495   4.867   0.267  0.4102 -0.3481 -0.5411
 3065SOL    HW112258   8.508   4.865   0.172 -1.3296  0.3212 -0.8361
 3065SOL    HW212259   8.400   4.871   0.278  0.4840 -2.0322  1.2899
 3065SOL     MW12260   8.484   4.867   0.256  0.1969 -0.4780 -0.3445
 3066SOL     OW12261   7.571   7.773   2.755 -0.3091 -0.1306  0.4758
 3066SOL    HW112262   7.609   7.860   2.754  1.5610 -0.8972 -1.0173
 3066SOL    HW212263   7.498   7.778   2.692 -0.0815  0.3025  0.2470
 3066SOL     MW12264   7.566   7.785   2.747 -0.0406 -0.1733  0.2554
 3067SOL     OW12265   8.118   8.376   2.008  0.0595  0.3862  0.0824
 3067SOL    HW112266   8.035   8.340   1.976  0.1903  1.4768 -1.5823
 3067SOL    HW212267   8.098   8.405   2.097 -0.8671 -0.8945  0.3316
 3067SOL     MW12268   8.105   8.375   2.016 -0.0424  0.3619 -0.0988
 3068SOL     OW12269   9.081   8.804  10.073 -0.2376  0.1706 -0.4312
 3068SOL    HW112270   9.171   8.830  10.090  0.0518 -0.8399 -0.3952
 3068SOL    HW212271   9.079   8.781   9.980 -1.3802  3.8701 -1.5244
 3068SOL     MW12272   9.092   8.805  10.063 -0.3468  0.5148 -0.5665
 3069SOL     OW12273   9.520   6.036   9.453 -0.0999 -0.1122  0.9315
 3069SOL    HW112274   9.501   6.038   9.359  0.7711  0.9523  0.7605
 3069SOL    HW212275   9.553   5.948   9.469 -0.1020 -0.2509  0.2042
 3069SOL     MW12276   9.521   6.025   9.443  0.0113  0.0063  0.8165
 3070SOL     OW12277   7.217   9.737   1.409 -0.0478  0.0458  0.3736
 3070SOL    HW112278   7.309   9.734   1.436  0.3739 -0.7902 -1.0413
 3070SOL    HW212279   7.218   9.707   1.318 -1.5497  1.4148 -0.1406
 3070SOL     MW12280   7.229   9.733   1.401 -0.1861  0.1140  0.1266
 3071SOL     OW12281   8.003   6.327   9.466  0.3311 -0.5646  0.1910
 3071SOL    HW112282   7.992   6.392   9.397  0.8181  0.1147  0.7453
 3071SOL    HW212283   7.940   6.352   9.534 -1.0214 -1.9352 -0.4908
 3071SOL     MW12284   7.993   6.338   9.466  0.2203 -0.6531  0.1747
 3072SOL     OW12285   8.863   6.815   9.313  0.1849 -0.2926 -0.3048
 3072SOL    HW112286   8.774   6.847   9.330  0.1693  0.7225 -2.0962
 3072SOL    HW212287   8.853   6.720   9.310 -0.5701 -0.2783  0.8280
 3072SOL     MW12288   8.850   6.807   9.315  0.0862 -0.1608 -0.3891
 3073SOL     OW12289   6.775   6.459   1.308 -0.2132  0.4483 -0.0490
 3073SOL    HW112290   6.777   6.545   1.264 -0.3385  0.2509 -0.4485
 3073SOL    HW212291   6.816   6.475   1.393 -0.5275  0.9783  0.0102
 3073SOL     MW12292   6.780   6.472   1.313 -0.2694  0.4909 -0.0925
 3074SOL     OW12293   9.277   5.039   1.155 -0.3513  0.0626 -0.1916
 3074SOL    HW112294   9.313   5.123   1.125 -3.7688  1.4780 -0.7783
 3074SOL    HW212295   9.312   5.028   1.243  1.3389  1.3077 -0.6417
 3074SOL     MW12296   9.286   5.049   1.162 -0.5724  0.4032 -0.3243
 3075SOL     OW12297   7.787   7.822   1.773  0.5801  0.5152 -0.2701
 3075SOL    HW112298   7.788   7.809   1.868  1.0368  0.2311 -0.3099
 3075SOL    HW212299   7.878   7.809   1.746  0.4403  0.5259 -0.7584
 3075SOL     MW12300   7.799   7.819   1.782  0.6207  0.4802 -0.3377
 3076SOL     OW12301   7.326   1.984   1.560 -0.1156  0.1181 -0.5233
 3076SOL    HW112302   7.396   1.960   1.621 -1.1886 -0.6319  0.4737
 3076SOL    HW212303   7.371   2.005   1.479  1.1531 -3.3038 -0.8815
 3076SOL     MW12304   7.340   1.984   1.558 -0.0905 -0.4160 -0.4415
 3077SOL     OW12305   9.499   9.802   1.370 -0.0282 -0.5866  0.6843
 3077SOL    HW112306   9.534   9.808   1.281 -1.0653 -0.6896  0.2543
 3077SOL    HW212307   9.576   9.792   1.426  0.6919  0.3271 -0.1161
 3077SOL     MW12308   9.513   9.802   1.366 -0.0688 -0.4828  0.5268
 3078SOL     OW12309   9.583   9.255   2.105 -0.2276  0.8057  0.0652
 3078SOL    HW112310   9.636   9.223   2.033 -0.0700  0.6387  0.2536
 3078SOL    HW212311   9.562   9.345   2.081  0.7939  1.1295  0.3519
 3078SOL     MW12312   9.587   9.262   2.093 -0.0766  0.8258  0.1260
 3079SOL     OW12313   8.855   9.181   1.807 -0.1729  0.1097  0.6797
 3079SOL    HW112314   8.854   9.104   1.750  0.7053  0.9341 -0.5115
 3079SOL    HW212315   8.944   9.185   1.840 -0.1329  0.7623  0.5079
 3079SOL     MW12316   8.866   9.172   1.804 -0.0554  0.2987  0.5053
 3080SOL     OW12317   7.751   6.753   0.187 -0.2413 -0.2840  0.1637
 3080SOL    HW112318   7.823   6.736   0.247  0.7706  1.2336 -0.5499
 3080SOL    HW212319   7.745   6.673   0.134 -0.2762 -1.1133  1.3881
 3080SOL     MW12320   7.760   6.741   0.188 -0.1162 -0.1959  0.2291
 3081SOL     OW12321   7.911   3.051   0.121 -0.6719  0.2367 -0.2654
 3081SOL    HW112322   7.906   3.058   0.026 -0.5918 -1.7910 -0.4473
 3081SOL    HW212323   7.940   2.962   0.138 -0.6837  0.5503  1.6723
 3081SOL     MW12324   7.914   3.041   0.111 -0.6632  0.0173 -0.0406
 3082SOL     OW12325   7.425   0.522   2.052  0.6202  0.3014  0.0153
 3082SOL    HW112326   7.493   0.506   2.118  0.6309  1.5124  0.3236
 3082SOL    HW212327   7.408   0.436   2.014  0.8876 -0.3580  1.3271
 3082SOL     MW12328   7.432   0.509   2.056  0.6558  0.3720  0.2227
 3083SOL     OW12329   8.334   2.630   2.500  0.1832  0.1064  0.2851
 3083SOL    HW112330   8.366   2.541   2.490  0.7829  0.4125 -0.6989
 3083SOL    HW212331   8.265   2.624   2.566  2.0715 -0.6241  2.3250
 3083SOL     MW12332   8.329   2.618   2.507  0.5017  0.0520  0.4203
 3084SOL     OW12333   9.240   5.649   1.822  0.3586  0.1504 -0.2180
 3084SOL    HW112334   9.206   5.705   1.753  1.9067  1.7979  0.2882
 3084SOL    HW212335   9.279   5.574   1.776  1.3338  1.2015 -1.1471
 3084SOL     MW12336   9.240   5.646   1.807  0.6816  0.4958 -0.2722
 3085SOL     OW12337   7.021   0.497   8.910 -0.0072 -0.1619 -0.7115
 3085SOL    HW112338   7.004   0.584   8.946 -1.5105 -0.5900 -0.3247
 3085SOL    HW212339   7.037   0.442   8.987 -0.6628 -0.5482 -0.8436
 3085SOL     MW12340   7.021   0.501   8.924 -0.2836 -0.2661 -0.6789
 3086SOL     OW12341   9.777  10.134   1.956 -0.0694 -0.0335 -0.0708
 3086SOL    HW112342   9.739  10.058   2.001 -0.2160 -0.7958 -1.4034
 3086SOL    HW212343   9.710  10.202   1.965 -1.0457 -0.8321 -0.9096
 3086SOL     MW12344   9.763  10.133   1.963 -0.2132 -0.2333 -0.3488
 3087SOL     OW12345   9.111   7.086   0.253  0.0056  0.3674  0.5704
 3087SOL    HW112346   9.201   7.111   0.232  0.2498 -0.5290  0.4960
 3087SOL    HW212347   9.062   7.105   0.173  0.6350 -1.5641 -0.3338
 3087SOL     MW12348   9.117   7.092   0.240  0.1174  0.0054  0.4451
 3088SOL     OW12349   9.513   9.256   0.357  0.3991  0.2530  0.7811
 3088SOL    HW112350   9.608   9.256   0.345  0.3832 -0.1038  0.6332
 3088SOL    HW212351   9.488   9.348   0.356  0.4191  0.3238 -1.9975
 3088SOL     MW12352   9.522   9.268   0.355  0.3996  0.2164  0.4065
 3089SOL     OW12353   7.958   2.199   0.612 -0.3245  0.4616 -0.6466
 3089SOL    HW112354   7.903   2.120   0.611  1.2002 -0.6500 -1.6430
 3089SOL    HW212355   8.024   2.181   0.679  1.3688 -0.1383 -2.3826
 3089SOL     MW12356   7.960   2.187   0.621  0.0875  0.2425 -0.9964
 3090SOL     OW12357   6.713   8.927   0.138 -0.2818 -0.3689 -0.2078
 3090SOL    HW112358   6.754   8.844   0.161  0.5797 -0.3543 -1.5896
 3090SOL    HW212359   6.770   8.994   0.177  0.0473 -0.3935 -0.6366
 3090SOL     MW12360   6.725   8.925   0.146 -0.1294 -0.3702 -0.4396
 3091SOL     OW12361   7.125  10.109   0.348  0.1452 -0.4895  0.3145
 3091SOL    HW112362   7.110  10.128   0.440  1.9585  0.6103  0.4323
 3091SOL    HW212363   7.219  10.089   0.343  0.4766  1.2567 -1.5535
 3091SOL     MW12364   7.135  10.109   0.359  0.4197 -0.1252  0.0905
 3092SOL     OW12365   6.115   6.077   0.919  0.0085 -0.4739  0.1481
 3092SOL    HW112366   6.160   6.072   0.834  1.3874  0.4186  0.7876
 3092SOL    HW212367   6.022   6.072   0.897  0.3365 -0.3094 -1.4092
 3092SOL     MW12368   6.109   6.076   0.905  0.2270 -0.3386  0.0306
 3093SOL     OW12369   7.461   9.056   0.216 -0.2784 -0.5539  0.3048
 3093SOL    HW112370   7.418   9.141   0.209 -2.2898 -1.5328 -0.0496
 3093SOL    HW212371   7.550   9.071   0.184 -0.6246  1.3693  0.1330
 3093SOL     MW12372   7.467   9.069   0.211 -0.5802 -0.4331  0.2375
 3094SOL     OW12373   9.250   3.461   2.508 -0.1133  0.3847  0.6582
 3094SOL    HW112374   9.266   3.511   2.589 -2.0246 -1.1699  2.1114
 3094SOL    HW212375   9.198   3.386   2.537 -0.2557 -0.6124 -1.9551
 3094SOL     MW12376   9.245   3.458   2.522 -0.3762  0.0581  0.5097
 3095SOL     OW12377   7.208   1.985   1.152  0.3109  0.3286  0.3080
 3095SOL    HW112378   7.124   1.965   1.112 -0.2710  1.1944  1.0520
 3095SOL    HW212379   7.189   2.055   1.214  1.6972  0.9751  0.0344
 3095SOL     MW12380   7.195   1.991   1.155  0.4138  0.5222  0.3682
 3096SOL     OW12381   9.558   3.171   0.935 -0.1473  0.3490 -0.3335
 3096SOL    HW112382   9.525   3.083   0.917  0.0519  0.5413 -1.8446
 3096SOL    HW212383   9.643   3.173   0.892  0.5978  0.7662  1.1082
 3096SOL     MW12384   9.564   3.160   0.927 -0.0264  0.4270 -0.3424
 3097SOL     OW12385   9.336   4.902   2.200  0.3266 -0.2626  0.2521
 3097SOL    HW112386   9.248   4.940   2.194  0.1280 -0.7371  0.1794
 3097SOL    HW212387   9.327   4.830   2.263  0.2066 -1.6166 -1.2677
 3097SOL     MW12388   9.323   4.898   2.207  0.2858 -0.4967  0.0483
 3098SOL     OW12389   9.564   3.749   0.866  0.3757 -0.1030 -0.5591
 3098SOL    HW112390   9.604   3.686   0.925 -0.4425 -0.7062 -0.6366
 3098SOL    HW212391   9.634   3.772   0.805  1.2521  0.5794  0.6629
 3098SOL     MW12392   9.578   3.744   0.866  0.3831 -0.0929 -0.4126
 3099SOL     OW12393   9.327   1.938   1.391  0.3726 -0.5610 -0.5392
 3099SOL    HW112394   9.360   1.984   1.314  1.1067 -0.7559 -0.3480
 3099SOL    HW212395   9.322   1.846   1.364  0.0396 -0.5449 -0.5430
 3099SOL     MW12396   9.331   1.932   1.378  0.4239 -0.5839 -0.5152
 3100SOL     OW12397   7.743   0.153   1.138 -0.2107 -0.7183 -0.4137
 3100SOL    HW112398   7.651   0.141   1.162 -0.2155  0.3161  0.1138
 3100SOL    HW212399   7.788   0.079   1.178 -0.8266 -1.3120 -0.7959
 3100SOL     MW12400   7.737   0.142   1.146 -0.2902 -0.6619 -0.3951
 3101SOL     OW12401   8.734   7.986   0.170 -0.3778 -0.2615  0.1292
 3101SOL    HW112402   8.803   7.922   0.150 -0.0446 -0.2568  1.2267
 3101SOL    HW212403   8.655   7.947   0.134  0.3113  0.1630 -1.9990
 3101SOL     MW12404   8.733   7.973   0.162 -0.2470 -0.2066 -0.0028
 3102SOL     OW12405   6.941   7.961   1.499 -0.1225 -0.2828 -0.1118
 3102SOL    HW112406   6.948   8.049   1.462  4.2289 -0.4123 -0.1009
 3102SOL    HW212407   6.888   7.913   1.436  0.6614  1.4053 -2.1940
 3102SOL     MW12408   6.935   7.966   1.486  0.5348 -0.0833 -0.3770
 3103SOL     OW12409   8.841   1.480   1.310 -0.0820  0.3616 -0.6083
 3103SOL    HW112410   8.824   1.543   1.380  1.3523  0.8772 -0.6893
 3103SOL    HW212411   8.927   1.444   1.330 -0.0571 -0.1779 -1.6004
 3103SOL     MW12412   8.849   1.483   1.321  0.1048  0.3586 -0.7456
 3104SOL     OW12413   8.700   1.289   9.030  0.7152  0.6027  0.2437
 3104SOL    HW112414   8.628   1.314   9.088 -0.8206 -0.6617 -1.0112
 3104SOL    HW212415   8.707   1.361   8.968  1.1334  1.1141  0.8628
 3104SOL     MW12416   8.692   1.301   9.030  0.5721  0.5063  0.1623
 3105SOL     OW12417   9.269   8.061   9.810  0.1594 -0.2311 -0.4245
 3105SOL    HW112418   9.186   8.108   9.809 -1.5599 -3.0620  0.6680
 3105SOL    HW212419   9.335   8.131   9.815 -2.0729  2.1204 -1.4612
 3105SOL     MW12420   9.267   8.076   9.811 -0.3464 -0.2925 -0.4173
 3106SOL     OW12421   9.034   0.507   2.129 -0.6465  0.7804  0.0465
 3106SOL    HW112422   9.052   0.531   2.220  0.6598  3.9484 -0.8905
 3106SOL    HW212423   8.939   0.505   2.123 -0.7930  2.3755  1.1316
 3106SOL     MW12424   9.024   0.510   2.140 -0.4980  1.3902  0.0655
 3107SOL     OW12425   9.750   2.163   1.953  0.1486 -0.3739 -0.3033
 3107SOL    HW112426   9.789   2.087   1.996  0.1550 -0.5845 -0.6781
 3107SOL    HW212427   9.656   2.146   1.955  0.0683  0.1669  0.6621
 3107SOL     MW12428   9.743   2.151   1.958  0.1392 -0.3316 -0.2277
 3108SOL     OW12429   9.714   9.299   2.383 -0.1282  0.0740 -0.1455
 3108SOL    HW112430   9.746   9.388   2.393 -1.4170  0.3855  1.6343
 3108SOL    HW212431   9.690   9.293   2.290 -0.1577  1.6315 -0.2661
 3108SOL     MW12432   9.715   9.309   2.372 -0.2970  0.3133  0.0669
 3109SOL     OW12433  10.042   0.159   0.426 -0.5299  0.0137 -0.3048
 3109SOL    HW112434  10.027   0.237   0.480  0.6272 -0.5392  0.8840
 3109SOL    HW212435  10.018   0.186   0.337  1.3681  2.2354 -0.2332
 3109SOL     MW12436  10.037   0.172   0.422 -0.1388  0.2274 -0.1434
 3110SOL     OW12437   7.737   3.188   2.673 -0.2035  0.0851  0.0484
 3110SOL    HW112438   7.748   3.129   2.599  0.3133 -1.3285  1.1957
 3110SOL    HW212439   7.770   3.138   2.748  1.0583  2.1449  0.9472
 3110SOL     MW12440   7.743   3.174   2.673  0.0242  0.1678  0.3103
 3111SOL     OW12441   7.199   1.681   9.117 -0.5404 -0.5780 -0.1828
 3111SOL    HW112442   7.282   1.701   9.162 -1.2042  0.3356  0.6817
 3111SOL    HW212443   7.134   1.679   9.187 -1.2185 -1.5116 -0.8309
 3111SOL     MW12444   7.201   1.684   9.132 -0.7122 -0.5806 -0.1551
 3112SOL     OW12445   9.900   6.069   1.229 -0.3668 -0.5374  0.2297
 3112SOL    HW112446   9.848   6.034   1.156  1.2916 -1.1304 -0.7091
 3112SOL    HW212447   9.902   6.163   1.213 -0.7415 -0.5605  0.0177
 3112SOL     MW12448   9.893   6.077   1.218 -0.2025 -0.6163  0.0823
 3113SOL     OW12449   8.773   8.623   2.353  0.7307  0.0580  0.4469
 3113SOL    HW112450   8.856   8.608   2.396  0.9605  0.8200  0.2871
 3113SOL    HW212451   8.711   8.565   2.398  1.4324 -0.8694  0.2472
 3113SOL     MW12452   8.775   8.614   2.364  0.8500  0.0368  0.4009
 3114SOL     OW12453   8.428   0.196   2.479  0.3211 -0.1957 -0.1520
 3114SOL    HW112454   8.337   0.168   2.493  0.3518 -0.2292 -0.0153
 3114SOL    HW212455   8.470   0.183   2.564  0.8392 -1.6083 -0.5901
 3114SOL     MW12456   8.422   0.191   2.492  0.3914 -0.3808 -0.1906
 3115SOL     OW12457   8.824   1.728   1.448  0.3429 -0.2796 -0.2396
 3115SOL    HW112458   8.836   1.770   1.363 -0.6383  0.6803  0.0745
 3115SOL    HW212459   8.743   1.766   1.483 -0.3032 -2.0310  0.3107
 3115SOL     MW12460   8.815   1.738   1.442  0.1346 -0.3810 -0.1289
 3116SOL     OW12461   6.928   3.936   1.910 -0.0944  0.3257  0.2338
 3116SOL    HW112462   7.022   3.946   1.918  0.2313 -1.1473 -1.2978
 3116SOL    HW212463   6.908   3.859   1.963 -0.3030  0.1000 -0.1718
 3116SOL     MW12464   6.937   3.927   1.918 -0.0794  0.1083 -0.0142
 3117SOL     OW12465  10.095   5.242   1.002 -0.1447  0.1180  0.7727
 3117SOL    HW112466  10.142   5.201   0.930  0.8635  0.4871  1.2008
 3117SOL    HW212467  10.061   5.168   1.053  0.8744 -0.2001  1.0327
 3117SOL     MW12468  10.097   5.227   0.999  0.1148  0.1246  0.8608
 3118SOL     OW12469   7.271   3.932   9.366 -0.1479  0.0980 -0.0085
 3118SOL    HW112470   7.191   3.929   9.312  0.9183 -0.7110 -1.6192
 3118SOL    HW212471   7.247   3.989   9.440 -1.7899  0.9948 -1.1422
 3118SOL     MW12472   7.258   3.939   9.369 -0.2216  0.1092 -0.3598
 3119SOL     OW12473   9.325   2.525   2.927  0.2544 -0.2114  0.1434
 3119SOL    HW112474   9.342   2.460   2.995 -1.5983  0.9372  1.8373
 3119SOL    HW212475   9.298   2.473   2.851  0.5682 -1.4812  0.8660
 3119SOL     MW12476   9.323   2.510   2.926  0.0574 -0.2269  0.4528
 3120SOL     OW12477   7.447   2.315   2.876 -0.0661  0.2480  0.4854
 3120SOL    HW112478   7.392   2.280   2.806 -0.4111 -1.6971  1.6526
 3120SOL    HW212479   7.392   2.380   2.920 -0.7488 -0.2624  0.4118
 3120SOL     MW12480   7.433   2.319   2.873 -0.1977 -0.0663  0.6254
 3121SOL     OW12481   9.966   6.740   0.115  0.5731  0.0793 -0.0590
 3121SOL    HW112482   9.885   6.695   0.141 -0.2564  1.2356 -0.5838
 3121SOL    HW212483   9.972   6.815   0.174  0.8948  0.3858 -0.4783
 3121SOL     MW12484   9.956   6.744   0.126  0.5081  0.2665 -0.1799
 3122SOL     OW12485   9.456   8.254   9.880 -0.4356 -0.0082 -0.4508
 3122SOL    HW112486   9.399   8.304   9.939 -0.1294  1.1741 -1.1151
 3122SOL    HW212487   9.491   8.320   9.820  1.2185 -0.7943 -0.3866
 3122SOL     MW12488   9.453   8.269   9.880 -0.1847  0.0425 -0.5276
 3123SOL     OW12489   8.884   7.625   0.346  0.2990 -0.2694 -0.0893
 3123SOL    HW112490   8.906   7.681   0.272 -1.1032  2.5122  1.4292
 3123SOL    HW212491   8.950   7.645   0.412 -0.1247 -0.5445  0.4284
 3123SOL     MW12492   8.895   7.635   0.345  0.0652  0.0515  0.1714
 3124SOL     OW12493   6.416   9.677   1.385  0.2387  0.3159 -0.3910
 3124SOL    HW112494   6.369   9.627   1.318 -1.8164  0.8253  0.5922
 3124SOL    HW212495   6.358   9.750   1.405  1.4856  0.9980  0.8837
 3124SOL     MW12496   6.403   9.680   1.379  0.1353  0.4685 -0.1019
 3125SOL     OW12497   6.534   8.876   1.066  0.2188 -0.0375 -0.5433
 3125SOL    HW112498   6.600   8.944   1.051 -0.6227  1.1697  0.8787
 3125SOL    HW212499   6.451   8.922   1.063 -0.4484 -1.1940 -0.4606
 3125SOL     MW12500   6.532   8.891   1.064  0.0257 -0.0310 -0.3507
 3126SOL     OW12501   8.785   2.524   0.157  0.0778 -0.1164  0.2993
 3126SOL    HW112502   8.779   2.450   0.096 -0.9634  0.2559 -0.0720
 3126SOL    HW212503   8.817   2.596   0.103 -0.8467  0.2150  0.1882
 3126SOL     MW12504   8.788   2.524   0.142 -0.1738 -0.0263  0.2375
 3127SOL     OW12505   7.354   0.426   2.975 -0.1721 -0.2239 -0.2057
 3127SOL    HW112506   7.329   0.379   2.896 -2.4260  1.7472 -0.8030
 3127SOL    HW212507   7.274   0.428   3.028  1.1051 -0.9407  1.8878
 3127SOL     MW12508   7.341   0.420   2.972 -0.2971 -0.0633 -0.0141
 3128SOL     OW12509   9.406   3.419   2.307  0.0407 -0.3152 -0.1321
 3128SOL    HW112510   9.367   3.450   2.388 -0.4235  2.0012 -1.1581
 3128SOL    HW212511   9.340   3.437   2.240  1.6915  1.0218 -1.4825
 3128SOL     MW12512   9.393   3.426   2.309  0.1926  0.1525 -0.4363
 3129SOL     OW12513   8.236   3.279   2.627  0.1447 -0.1166  0.3316
 3129SOL    HW112514   8.162   3.294   2.687  0.9223  0.9385  1.0683
 3129SOL    HW212515   8.197   3.283   2.540 -0.8385 -0.6187  0.7222
 3129SOL     MW12516   8.221   3.281   2.624  0.1184 -0.0458  0.4759
 3130SOL     OW12517   9.232   8.955   9.804  0.1050  0.0553  0.1481
 3130SOL    HW112518   9.282   8.984   9.728  0.0527  0.2908  0.2043
 3130SOL    HW212519   9.271   8.870   9.827 -0.0849 -0.1660 -0.3344
 3130SOL     MW12520   9.244   8.948   9.797  0.0740  0.0571  0.0935
 3131SOL     OW12521   7.055   0.571   0.467 -0.4769 -0.1928 -0.0661
 3131SOL    HW112522   7.007   0.489   0.476  0.1632 -0.4561  1.4014
 3131SOL    HW212523   7.128   0.551   0.408 -0.4343 -0.6290  0.1357
 3131SOL     MW12524   7.058   0.558   0.461 -0.3895 -0.2824  0.1476
 3132SOL     OW12525   8.924   7.626   9.614 -0.1333  0.0053 -0.4769
 3132SOL    HW112526   8.957   7.545   9.577 -0.2225  0.5834 -1.8814
 3132SOL    HW212527   8.979   7.641   9.691  2.1405  0.3084 -2.0576
 3132SOL     MW12528   8.936   7.618   9.619  0.1464  0.1181 -0.8590
 3133SOL     OW12529   9.089   7.196   2.405 -0.1904 -0.0065 -0.6500
 3133SOL    HW112530   9.175   7.195   2.363  0.1481  1.4596 -0.0398
 3133SOL    HW212531   9.035   7.137   2.351  0.6044  0.7181 -2.3016
 3133SOL     MW12532   9.093   7.188   2.393 -0.0453  0.2739 -0.7833
 3134SOL     OW12533   8.047   7.985   1.456  0.2139 -0.5628  0.0116
 3134SOL    HW112534   8.073   7.937   1.377 -1.6413 -1.7268  0.0544
 3134SOL    HW212535   8.026   7.917   1.520  0.2370  0.3543  1.0203
 3134SOL     MW12536   8.047   7.970   1.454 -0.0206 -0.5944  0.1462
 3135SOL     OW12537   9.282   6.094   9.575 -0.1150 -0.1751 -0.2717
 3135SOL    HW112538   9.363   6.081   9.525 -0.4706 -1.8842 -0.4451
 3135SOL    HW212539   9.279   6.189   9.590  1.3034  0.0695 -1.2863
 3135SOL     MW12540   9.292   6.105   9.570  0.0210 -0.3626 -0.4238
 3136SOL     OW12541   8.807   5.300   3.023  0.7124  0.2359 -0.1097
 3136SOL    HW112542   8.821   5.353   2.944  0.1597 -1.2520 -1.2520
 3136SOL    HW212543   8.720   5.326   3.053  0.0327 -0.6637 -1.2213
 3136SOL     MW12544   8.798   5.310   3.016  0.5547 -0.0697 -0.3982
 3137SOL     OW12545   7.529   1.511   9.068 -0.4938  0.4886 -0.7190
 3137SOL    HW112546   7.536   1.448   9.139 -0.0460  1.2056 -0.1132
 3137SOL    HW212547   7.591   1.480   9.002 -1.0821 -0.3100 -0.9138
 3137SOL     MW12548   7.538   1.499   9.069 -0.5118  0.4781 -0.6664
 3138SOL     OW12549   8.288   0.229   2.109  0.3081  0.0761 -0.3673
 3138SOL    HW112550   8.252   0.260   2.192 -0.6197 -1.2033 -0.2660
 3138SOL    HW212551   8.299   0.308   2.056  1.2892  0.9662  1.0972
 3138SOL     MW12552   8.285   0.243   2.113  0.3149  0.0263 -0.1668
 3139SOL     OW12553   0.263   1.784   9.994 -0.7325 -0.3805  0.8597
 3139SOL    HW112554   0.189   1.842   9.977  0.4415  1.5578  1.9906
 3139SOL    HW212555   0.325   1.803   9.924 -1.5753 -2.6466 -0.6075
 3139SOL     MW12556   0.261   1.794   9.983 -0.6901 -0.4225  0.8167
 3140SOL     OW12557   8.264  10.114   3.227  0.4056 -0.7493 -0.0559
 3140SOL    HW112558   8.231  10.109   3.137  0.7721  0.0106 -0.2423
 3140SOL    HW212559   8.189  10.142   3.279  0.7345  1.0399 -0.4858
 3140SOL     MW12560   8.251  10.117   3.222  0.4946 -0.4230 -0.1348
 3141SOL     OW12561   6.578   7.244   0.602 -0.2357  0.1018  0.0074
 3141SOL    HW112562   6.616   7.233   0.515  0.8820  1.9184  0.2220
 3141SOL    HW212563   6.577   7.156   0.639  0.7212 -0.4618 -1.2426
 3141SOL     MW12564   6.582   7.231   0.596  0.0299  0.2622 -0.1252
 3142SOL     OW12565   7.685   3.424   9.246 -0.2878 -0.1958  0.4207
 3142SOL    HW112566   7.762   3.478   9.229  2.2976 -3.6564  0.2212
 3142SOL    HW212567   7.660   3.446   9.336  0.9313  0.9624  0.5114
 3142SOL     MW12568   7.692   3.434   9.255  0.1992 -0.4906  0.4068
 3143SOL     OW12569   8.358   2.885   1.617 -0.0284 -0.2701  0.4336
 3143SOL    HW112570   8.305   2.846   1.547 -0.5096  0.3531  0.4451
 3143SOL    HW212571   8.342   2.979   1.610  0.7995 -0.1022  0.6722
 3143SOL     MW12572   8.349   2.892   1.607  0.0160 -0.1689  0.4656
 3144SOL     OW12573   8.698   6.343   1.808 -0.7770  0.2740  0.2945
 3144SOL    HW112574   8.731   6.263   1.848 -0.0565  0.8112  0.8111
 3144SOL    HW212575   8.751   6.413   1.846 -1.9703  1.0971  0.5326
 3144SOL     MW12576   8.709   6.342   1.818 -0.8375  0.4481  0.3911
 3145SOL     OW12577   7.211   3.732   0.162 -0.0856  0.3177  0.2572
 3145SOL    HW112578   7.206   3.791   0.237  0.3953  0.5616  0.1002
 3145SOL    HW212579   7.132   3.750   0.111 -0.2634  0.3618  0.5457
 3145SOL     MW12580   7.200   3.742   0.166 -0.0468  0.3546  0.2740
 3146SOL     OW12581   6.706   9.115   1.083  0.0340  0.1840 -0.4681
 3146SOL    HW112582   6.673   9.139   0.997 -0.9614 -0.7356 -0.3625
 3146SOL    HW212583   6.800   9.132   1.079 -0.0478  0.4090 -1.6308
 3146SOL     MW12584   6.713   9.121   1.072 -0.1039  0.0951 -0.6034
 3147SOL     OW12585   8.811   6.576   1.876  0.3107 -0.5319 -0.6044
 3147SOL    HW112586   8.731   6.628   1.878  0.0154 -0.9932  0.1877
 3147SOL    HW212587   8.878   6.636   1.843  0.1034  0.5408  0.8345
 3147SOL     MW12588   8.809   6.590   1.872  0.2464 -0.4536 -0.3188
 3148SOL     OW12589   6.411   0.415   1.308 -0.6799 -0.2403  0.1706
 3148SOL    HW112590   6.364   0.336   1.280  1.0891 -1.0392 -0.7807
 3148SOL    HW212591   6.463   0.386   1.383  0.8889 -0.3768 -0.9048
 3148SOL     MW12592   6.412   0.401   1.314 -0.2526 -0.3600 -0.0888
 3149SOL     OW12593   7.581   6.528   9.912  0.0952  0.2062  0.3096
 3149SOL    HW112594   7.499   6.560   9.949 -0.3285  0.3122 -0.6920
 3149SOL    HW212595   7.641   6.525   9.986 -1.0993 -0.8718  1.2784
 3149SOL     MW12596   7.578   6.532   9.926 -0.1119  0.0817  0.3054
 3150SOL     OW12597   6.906   2.879   0.609  0.0361 -0.0693  0.0417
 3150SOL    HW112598   6.980   2.822   0.627  0.1297 -0.2470 -0.8869
 3150SOL    HW212599   6.829   2.823   0.621 -0.0013  0.2296  1.4601
 3150SOL     MW12600   6.905   2.865   0.613  0.0433 -0.0538  0.1044
 3151SOL     OW12601   9.702   4.478   0.597  0.4468 -0.3097 -0.6507
 3151SOL    HW112602   9.767   4.409   0.581 -0.7050 -2.4290  2.6916
 3151SOL    HW212603   9.751   4.546   0.644  0.6180 -1.2500  0.5899
 3151SOL     MW12604   9.716   4.478   0.601  0.3213 -0.7014 -0.0640
 3152SOL     OW12605  10.088   9.466   1.823  0.1020 -1.0461 -0.0937
 3152SOL    HW112606  10.159   9.402   1.832 -0.6270 -2.1034 -1.3678
 3152SOL    HW212607  10.025   9.441   1.890  0.7434 -0.3431  0.7883
 3152SOL     MW12608  10.089   9.454   1.833  0.0908 -1.0914 -0.1439
 3153SOL     OW12609   7.519   1.907   9.701 -0.4180  0.4604 -0.0701
 3153SOL    HW112610   7.443   1.868   9.744 -0.4446  0.8870  0.2772
 3153SOL    HW212611   7.525   1.995   9.739  0.0610  0.5376 -0.3254
 3153SOL     MW12612   7.510   1.913   9.712 -0.3601  0.5249 -0.0583
 3154SOL     OW12613   7.101   4.783   0.754  0.3088 -0.2918  0.3982
 3154SOL    HW112614   7.096   4.694   0.719  2.2566 -0.8791  1.4264
 3154SOL    HW212615   7.148   4.773   0.837  0.9288  1.7322  0.3472
 3154SOL     MW12616   7.107   4.770   0.760  0.6375 -0.1079  0.5233
 3155SOL     OW12617   6.131   1.503   0.715 -0.5192  0.5958  0.5230
 3155SOL    HW112618   6.214   1.454   0.715 -0.6277  0.4009 -0.0272
 3155SOL    HW212619   6.158   1.595   0.715 -0.2444  0.5697 -1.6027
 3155SOL     MW12620   6.145   1.508   0.715 -0.4979  0.5675  0.1804
 3156SOL     OW12621   9.269   7.921   1.554 -0.3346 -0.1649  0.1631
 3156SOL    HW112622   9.211   7.956   1.486 -0.1645  1.2694  0.7290
 3156SOL    HW212623   9.330   7.864   1.507 -1.0713 -0.2710 -0.6872
 3156SOL     MW12624   9.269   7.918   1.540 -0.4071  0.0052  0.1267
 3157SOL     OW12625   9.076   0.926   0.716 -0.1107 -0.5789  0.0718
 3157SOL    HW112626   9.151   0.873   0.743  0.0871 -1.4850 -2.0662
 3157SOL    HW212627   9.107   1.016   0.721 -0.1667 -0.6239  2.9067
 3157SOL     MW12628   9.089   0.930   0.720 -0.0925 -0.7006  0.1610
 3158SOL     OW12629   9.079   4.737   0.789  0.6153 -0.1447  0.2041
 3158SOL    HW112630   9.073   4.782   0.873  1.8128 -1.2945  0.9347
 3158SOL    HW212631   9.079   4.807   0.724 -0.6796  0.7519  1.1149
 3158SOL     MW12632   9.078   4.752   0.791  0.6028 -0.1771  0.4142
 3159SOL     OW12633   8.792   8.173   1.862  0.2826 -0.3112  0.6297
 3159SOL    HW112634   8.838   8.169   1.778 -0.9053 -0.9943 -0.0276
 3159SOL    HW212635   8.728   8.101   1.857  0.3478 -0.5107  2.2201
 3159SOL     MW12636   8.790   8.163   1.850  0.1389 -0.4242  0.7492
 3160SOL     OW12637   0.054   4.460   0.358  0.3697  0.2032 -0.4683
 3160SOL    HW112638   0.002   4.380   0.358 -0.9264  0.9581 -2.6287
 3160SOL    HW212639   0.141   4.433   0.329 -0.4333 -0.2688 -2.5656
 3160SOL     MW12640   0.059   4.447   0.354  0.1010  0.2394 -1.0134
 3161SOL     OW12641   7.135   4.565   1.680 -0.1744 -0.3792 -0.3922
 3161SOL    HW112642   7.214   4.511   1.683 -0.0875 -0.3234 -1.3333
 3161SOL    HW212643   7.087   4.542   1.760  1.1077  0.1037  0.5518
 3161SOL     MW12644   7.139   4.555   1.691  0.0009 -0.3102 -0.3918
 3162SOL     OW12645   9.525   9.999   9.908 -0.5604  0.0548  0.5933
 3162SOL    HW112646   9.449   9.984   9.851 -0.3117  1.9181 -0.3115
 3162SOL    HW212647   9.501  10.075   9.961  0.5614  0.5213  0.4584
 3162SOL     MW12648   9.512  10.006   9.907 -0.3849  0.3530  0.4602
 3163SOL     OW12649   9.374   2.422   2.235  0.3670 -0.2020 -0.5619
 3163SOL    HW112650   9.295   2.477   2.240  1.8713  1.9778  1.5513
 3163SOL    HW212651   9.363   2.372   2.154 -2.5723  0.9278 -0.9988
 3163SOL     MW12652   9.362   2.423   2.225  0.1833  0.2217 -0.3473
 3164SOL     OW12653   6.515   7.123  10.009 -0.0097  0.1103 -0.2687
 3164SOL    HW112654   6.524   7.051   9.946  2.1008  0.4142 -0.3898
 3164SOL    HW212655   6.525   7.202   9.956 -0.2128  0.4324  0.1699
 3164SOL     MW12656   6.517   7.124   9.994  0.2345  0.1904 -0.2280
 3165SOL     OW12657   7.580   5.586   0.972 -0.1091 -0.0989  0.0854
 3165SOL    HW112658   7.516   5.648   0.937  0.7689  0.7667 -0.0282
 3165SOL    HW212659   7.633   5.562   0.896 -0.0795 -0.5587  0.2475
 3165SOL     MW12660   7.578   5.591   0.957  0.0070 -0.0470  0.0916
 3166SOL     OW12661   7.817   9.397   2.766 -0.3771  0.2532  0.1226
 3166SOL    HW112662   7.734   9.381   2.811 -1.2973 -0.3848 -1.7018
 3166SOL    HW212663   7.842   9.312   2.730  0.4772  0.6721 -0.3036
 3166SOL     MW12664   7.809   9.384   2.767 -0.3856  0.2252 -0.1655
 3167SOL     OW12665   9.344   8.726   9.902  0.0137  0.6999 -0.3032
 3167SOL    HW112666   9.417   8.743   9.962  0.4369 -1.7254 -0.0645
 3167SOL    HW212667   9.326   8.633   9.912 -1.7851  0.8355 -1.8884
 3167SOL     MW12668   9.351   8.717   9.911 -0.1624  0.4068 -0.4756
 3168SOL     OW12669   8.277   6.989   1.704  0.3404 -0.7643 -0.0521
 3168SOL    HW112670   8.292   7.072   1.749  2.1744 -1.4916  0.7920
 3168SOL    HW212671   8.186   6.967   1.723 -0.4841  1.4774 -1.0876
 3168SOL     MW12672   8.267   6.997   1.712  0.4696 -0.5705 -0.0766
 3169SOL     OW12673   7.469   1.636   9.979  0.2330  0.4221  0.5391
 3169SOL    HW112674   7.401   1.570   9.962  0.3765  0.1674  0.9419
 3169SOL    HW212675   7.457   1.660  10.071 -0.9554  2.2668 -0.0430
 3169SOL     MW12676   7.458   1.631   9.989  0.0992  0.6257  0.5161
 3170SOL     OW12677   8.099   6.867  10.032  0.4436 -0.2148  0.0291
 3170SOL    HW112678   8.018   6.885  10.079  0.2272  1.8188 -1.0155
 3170SOL    HW212679   8.077   6.795   9.972  0.6357 -2.6078  2.6168
 3170SOL     MW12680   8.086   6.860  10.030  0.4405 -0.2608  0.2266
 3171SOL     OW12681   6.901  10.032  10.078  0.0554  0.1148 -0.4107
 3171SOL    HW112682   6.867  10.100  10.136  0.4526 -0.4814  0.5414
 3171SOL    HW212683   6.850   9.954  10.101  1.0104 -0.4103 -0.0580
 3171SOL     MW12684   6.890  10.031  10.088  0.2285 -0.0288 -0.2437
 3172SOL     OW12685   6.914   9.922   1.877 -0.0103  0.4853  0.3411
 3172SOL    HW112686   6.887   9.938   1.786  0.3737 -0.7379 -0.0179
 3172SOL    HW212687   6.859   9.979   1.929 -1.1706  0.2529 -0.5766
 3172SOL     MW12688   6.904   9.931   1.872 -0.1097  0.2990  0.1776
 3173SOL     OW12689   9.158   9.425   9.934  0.1074  0.7507 -0.2202
 3173SOL    HW112690   9.138   9.333   9.951 -0.9396  1.1597  0.9850
 3173SOL    HW212691   9.223   9.448  10.000  0.1779  0.9421 -0.3549
 3173SOL     MW12692   9.163   9.416   9.945 -0.0176  0.8276 -0.0832
 3174SOL     OW12693   9.785   3.250   0.106  0.2110 -0.0200 -0.0945
 3174SOL    HW112694   9.821   3.322   0.157 -1.4586 -0.2077  1.4628
 3174SOL    HW212695   9.861   3.194   0.085  1.0078  0.1846  2.0254
 3174SOL     MW12696   9.799   3.252   0.110  0.0992 -0.0178  0.3762
 3175SOL     OW12697   8.158   4.226  10.073 -0.1197  0.1720  0.3436
 3175SOL    HW112698   8.153   4.138  10.035  0.5677  0.2889 -0.0098
 3175SOL    HW212699   8.099   4.222  10.149 -0.9948 -0.2470 -0.3445
 3175SOL     MW12700   8.150   4.214  10.078 -0.1437  0.1333  0.2103
 3176SOL     OW12701   9.694   0.104   0.123 -0.0279  0.5111  0.3131
 3176SOL    HW112702   9.731   0.060   0.047 -1.5080  0.2630 -0.3025
 3176SOL    HW212703   9.767   0.153   0.161  1.7628 -2.5225  1.1089
 3176SOL     MW12704   9.708   0.104   0.118  0.0118  0.0910  0.3362
 3177SOL     OW12705   8.342   0.888   2.255 -0.3579  0.3224 -0.4165
 3177SOL    HW112706   8.390   0.820   2.208 -1.3430 -0.5706 -0.1608
 3177SOL    HW212707   8.292   0.841   2.322  1.9184  1.6510  2.4065
 3177SOL     MW12708   8.342   0.874   2.258 -0.1926  0.3782 -0.0224
 3178SOL     OW12709   8.210   1.294   9.481  0.1863  0.0526  0.3139
 3178SOL    HW112710   8.246   1.379   9.456 -0.4407  0.0907 -0.5297
 3178SOL    HW212711   8.204   1.296   9.576  0.3643  0.8749  0.3095
 3178SOL     MW12712   8.214   1.305   9.490  0.1288  0.1628  0.2054
 3179SOL     OW12713   9.077   7.859   2.290  0.0769  0.1567  0.2102
 3179SOL    HW112714   9.025   7.793   2.244 -1.1720  0.7326  0.7454
 3179SOL    HW212715   9.110   7.813   2.367 -0.2558 -0.0295  0.2455
 3179SOL     MW12716   9.074   7.845   2.294 -0.1256  0.2066  0.2832
 3180SOL     OW12717   7.053   0.576   1.461 -0.3886  0.0447 -0.6896
 3180SOL    HW112718   7.136   0.545   1.498 -1.0410 -1.5978 -0.5207
 3180SOL    HW212719   7.077   0.653   1.409  1.2459 -0.4246 -0.6774
 3180SOL     MW12720   7.067   0.582   1.459 -0.2629 -0.2256 -0.6664
 3181SOL     OW12721   7.483   5.155   0.479  0.1296 -0.1735 -0.7627
 3181SOL    HW112722   7.466   5.071   0.522  1.8467 -1.1020 -1.7791
 3181SOL    HW212723   7.398   5.197   0.473 -0.2969 -0.1253  3.1636
 3181SOL     MW12724   7.470   5.149   0.484  0.2948 -0.2862 -0.3902
 3182SOL     OW12725   6.698   9.055   0.614  0.3092 -0.2578 -0.1775
 3182SOL    HW112726   6.676   9.081   0.525 -2.4452  0.2796  0.5911
 3182SOL    HW212727   6.705   8.959   0.610  1.4950 -0.1613 -1.1672
 3182SOL     MW12728   6.696   9.046   0.602  0.1084 -0.1767 -0.2058
 3183SOL     OW12729   7.929   0.407   9.582 -0.3191 -0.0052  0.1092
 3183SOL    HW112730   7.978   0.459   9.518 -0.0220 -1.2268 -0.7062
 3183SOL    HW212731   7.991   0.340   9.612 -1.7839 -2.6693 -2.2203
 3183SOL     MW12732   7.943   0.405   9.577 -0.4686 -0.5026 -0.2934
 3184SOL     OW12733   9.299   8.477   2.921 -0.1272 -0.0411  0.0575
 3184SOL    HW112734   9.365   8.495   2.853 -2.2547  1.1349 -1.8312
 3184SOL    HW212735   9.294   8.381   2.924  0.8082 -0.1310 -0.6009
 3184SOL     MW12736   9.307   8.467   2.912 -0.2798  0.0980 -0.2685
 3185SOL     OW12737   6.417   5.383   0.194 -0.2477  0.1462 -0.2234
 3185SOL    HW112738   6.376   5.463   0.159  1.5892  0.3281 -2.1761
 3185SOL    HW212739   6.507   5.408   0.211 -0.0764 -1.0942  0.8012
 3185SOL     MW12740   6.423   5.397   0.192  0.0094  0.0107 -0.3422
 3186SOL     OW12741   8.976   5.135   3.184  0.1003  0.1189 -0.4989
 3186SOL    HW112742   8.915   5.199   3.146 -1.6581 -0.3099  1.3945
 3186SOL    HW212743   8.930   5.102   3.261  1.9746 -1.6830 -0.0747
 3186SOL     MW12744   8.962   5.139   3.189  0.1151 -0.1667 -0.2022
 3187SOL     OW12745   8.578   3.786  10.126  0.3582 -0.0839  0.2481
 3187SOL    HW112746   8.524   3.803  10.203  1.3788 -0.3866  1.0533
 3187SOL    HW212747   8.516   3.754  10.059 -0.4616 -0.3460  1.1137
 3187SOL     MW12748   8.563   3.784  10.127  0.3839 -0.1562  0.4620
 3188SOL     OW12749   7.169   6.167   0.671  0.1747 -0.4746  0.5320
 3188SOL    HW112750   7.085   6.139   0.707 -0.6266  0.3510 -0.6398
 3188SOL    HW212751   7.225   6.179   0.748 -1.4049  1.0305  1.5134
 3188SOL     MW12752   7.166   6.165   0.685 -0.1301 -0.1762  0.5077
 3189SOL     OW12753   7.548   0.115   0.151 -0.0679  0.0863 -0.8357
 3189SOL    HW112754   7.591   0.039   0.113  0.2501 -0.3417  0.3256
 3189SOL    HW212755   7.619   0.177   0.170 -0.1818  0.1630 -0.6551
 3189SOL     MW12756   7.562   0.113   0.149 -0.0418  0.0413 -0.6639
 3190SOL     OW12757   7.749   8.413   9.332  0.5166  0.2346 -0.0204
 3190SOL    HW112758   7.653   8.420   9.337  0.1508  1.4866 -4.3330
 3190SOL    HW212759   7.766   8.319   9.340 -0.7254  0.1590  3.0140
 3190SOL     MW12760   7.739   8.401   9.334  0.3108  0.3852 -0.1840
 3191SOL     OW12761   0.160   1.455   0.579 -0.1296  0.1240  0.0961
 3191SOL    HW112762   0.066   1.455   0.596 -0.3259  0.4514 -0.9753
 3191SOL    HW212763   0.178   1.367   0.546 -0.5032  0.7730 -1.9795
 3191SOL     MW12764   0.150   1.443   0.577 -0.2026  0.2490 -0.3067
 3192SOL     OW12765   0.147   4.146   0.533 -0.3470 -0.6372 -0.1730
 3192SOL    HW112766   0.226   4.162   0.481  0.4352 -1.0454  0.8362
 3192SOL    HW212767   0.168   4.184   0.619 -1.5278 -0.1370 -0.0975
 3192SOL     MW12768   0.160   4.153   0.537 -0.3980 -0.6254 -0.0341
 3193SOL     OW12769   9.156   6.665   0.030 -0.1249  0.5060  0.2930
 3193SOL    HW112770   9.151   6.606   0.104 -1.1799 -0.2250 -0.3352
 3193SOL    HW212771   9.072   6.711   0.029  0.4144  1.5385  0.3681
 3193SOL     MW12772   9.145   6.663   0.039 -0.1909  0.5446  0.2222
 3194SOL     OW12773   7.038   2.860   1.858  0.4024 -0.0281 -0.0794
 3194SOL    HW112774   7.113   2.807   1.831  1.3706  1.1723  0.1669
 3194SOL    HW212775   7.049   2.871   1.952  0.9179  1.6012 -0.2928
 3194SOL     MW12776   7.049   2.855   1.866  0.5924  0.3341 -0.0752
 3195SOL     OW12777   6.709   7.868   1.679  0.0386 -0.1197  0.1751
 3195SOL    HW112778   6.687   7.776   1.668 -2.0871  0.5900 -2.5508
 3195SOL    HW212779   6.794   7.878   1.638 -0.1181 -0.7298 -0.3034
 3195SOL     MW12780   6.717   7.858   1.673 -0.2535 -0.1070 -0.2351
 3196SOL     OW12781   7.377   7.575   1.739 -0.4898  0.1157  0.5830
 3196SOL    HW112782   7.458   7.589   1.690 -0.6895  1.2062  0.5336
 3196SOL    HW212783   7.307   7.592   1.675 -0.7526  0.3225  0.9202
 3196SOL     MW12784   7.378   7.579   1.724 -0.5490  0.2818  0.6199
 3197SOL     OW12785   8.607   3.393   1.038  0.2976  0.5843  0.8036
 3197SOL    HW112786   8.552   3.393   0.959  0.2016 -0.3839  0.8632
 3197SOL    HW212787   8.680   3.450   1.015 -0.7342  1.9179  0.7357
 3197SOL     MW12788   8.609   3.400   1.025  0.1532  0.6310  0.8025
 3198SOL     OW12789   8.538   0.248   0.770 -0.2653 -0.0931  0.2134
 3198SOL    HW112790   8.468   0.193   0.735 -0.2123 -0.8286  1.2050
 3198SOL    HW212791   8.543   0.224   0.862  0.4088  0.9126  0.4500
 3198SOL     MW12792   8.530   0.238   0.777 -0.1722 -0.0585  0.3706
 3199SOL     OW12793   9.109   3.696   0.705 -0.1370  0.4192 -0.2951
 3199SOL    HW112794   9.201   3.696   0.677 -0.7608 -0.1956 -2.5646
 3199SOL    HW212795   9.077   3.783   0.680 -0.6887 -0.1197 -1.5541
 3199SOL     MW12796   9.117   3.707   0.698 -0.2875  0.2715 -0.7468
 3200SOL     OW12797   8.193   0.573   9.987  0.1901 -0.1097  0.5220
 3200SOL    HW112798   8.153   0.585   9.901  2.2042 -0.6342 -0.5483
 3200SOL    HW212799   8.206   0.663  10.020  1.7531  0.2265 -0.9022
 3200SOL     MW12800   8.190   0.586   9.981  0.6480 -0.1338  0.2027
 3201SOL     OW12801   8.551   2.789   2.449  0.2953 -0.2783  0.2019
 3201SOL    HW112802   8.468   2.747   2.472  1.0668 -2.0567 -0.1493
 3201SOL    HW212803   8.568   2.761   2.359  2.5948 -2.2170  1.1547
 3201SOL     MW12804   8.543   2.780   2.440  0.6884 -0.7542  0.2790
 3202SOL     OW12805   8.909   3.089   1.754  0.1385 -0.3733  0.1664
 3202SOL    HW112806   8.853   3.135   1.816 -0.2949  0.1885 -0.6150
 3202SOL    HW212807   8.969   3.039   1.808 -0.9042 -0.7262  1.0273
 3202SOL     MW12808   8.909   3.089   1.769 -0.0505 -0.3466  0.1766
 3203SOL     OW12809   9.621   5.168   1.158 -0.0702 -0.2376 -0.2440
 3203SOL    HW112810   9.535   5.201   1.131  0.0164 -0.5815 -0.9556
 3203SOL    HW212811   9.659   5.130   1.078  0.9962  0.4532 -0.0907
 3203SOL     MW12812   9.615   5.168   1.144  0.0774 -0.1932 -0.3155
 3204SOL     OW12813   9.612   0.978  10.057 -0.1491 -0.2887 -0.1919
 3204SOL    HW112814   9.704   0.956  10.071 -0.5451 -1.5166  0.6005
 3204SOL    HW212815   9.595   0.955   9.966  0.9506  2.3514 -1.1702
 3204SOL     MW12816   9.621   0.972  10.047 -0.0590 -0.1079 -0.2157
 3205SOL     OW12817   0.284   2.201   1.990  0.1414 -0.1891 -0.4421
 3205SOL    HW112818   0.276   2.278   1.934  0.2724 -0.9729 -1.5793
 3205SOL    HW212819   0.308   2.131   1.930 -1.5856 -1.4829  0.2954
 3205SOL     MW12820   0.286   2.202   1.975 -0.0629 -0.4550 -0.4933
 3206SOL     OW12821   9.532   2.556   1.138  0.0263  0.7323 -0.1098
 3206SOL    HW112822   9.505   2.646   1.156 -0.2255  0.5745  0.2971
 3206SOL    HW212823   9.519   2.509   1.220 -0.6897  0.1172 -0.5540
 3206SOL     MW12824   9.527   2.561   1.151 -0.0976  0.6333 -0.1146
 3207SOL     OW12825   8.830   3.486   1.645 -0.7595 -0.0253 -1.1283
 3207SOL    HW112826   8.759   3.442   1.597 -0.4597 -2.3452  0.3714
 3207SOL    HW212827   8.787   3.534   1.715 -0.9520  0.1676 -1.3774
 3207SOL     MW12828   8.816   3.486   1.648 -0.7457 -0.2976 -0.9682
 3208SOL     OW12829   8.440   4.016   1.499  0.2627 -0.1788  0.1726
 3208SOL    HW112830   8.374   4.082   1.480  0.5868 -0.0267 -0.4741
 3208SOL    HW212831   8.495   4.056   1.566  0.0943 -0.0327  0.2230
 3208SOL     MW12832   8.439   4.030   1.505  0.2826 -0.1406  0.0962
 3209SOL     OW12833   7.875   6.219   1.292  0.3434  0.5200 -0.0116
 3209SOL    HW112834   7.852   6.214   1.385 -1.9335 -1.0126 -0.5744
 3209SOL    HW212835   7.815   6.285   1.256  1.8674  1.8332 -0.2910
 3209SOL     MW12836   7.864   6.227   1.299  0.2470  0.4919 -0.1194
 3210SOL     OW12837   6.647   3.827   1.780 -0.3001  0.2819  0.4555
 3210SOL    HW112838   6.667   3.899   1.841  0.3581  0.2571  0.2742
 3210SOL    HW212839   6.631   3.752   1.837  1.0706  0.0663  0.6106
 3210SOL     MW12840   6.648   3.827   1.795 -0.0404  0.2511  0.4521
 3211SOL     OW12841   7.418   8.055   2.143  0.0351  0.2703  0.5313
 3211SOL    HW112842   7.346   8.106   2.180  0.9820  1.6201  0.5971
 3211SOL    HW212843   7.451   8.109   2.071  0.6128 -0.5827  0.1444
 3211SOL     MW12844   7.413   8.069   2.139  0.2303  0.3339  0.4902
 3212SOL     OW12845   8.471   5.825   0.377 -0.1879 -0.8317 -0.5550
 3212SOL    HW112846   8.547   5.834   0.435 -0.8518  0.4075  0.1658
 3212SOL    HW212847   8.503   5.852   0.291  0.0655  0.2923 -0.1332
 3212SOL     MW12848   8.485   5.830   0.373 -0.2404 -0.5291 -0.4087
 3213SOL     OW12849   9.686   0.462  10.025 -0.4712  0.2253 -0.0019
 3213SOL    HW112850   9.711   0.391   9.966 -0.6026  0.6163 -0.5368
 3213SOL    HW212851   9.630   0.420  10.091 -0.9293 -0.0856 -0.5779
 3213SOL     MW12852   9.682   0.447  10.026 -0.5466  0.2355 -0.1441
 3214SOL     OW12853   6.450   6.491   1.293 -0.0175 -0.2272 -0.2684
 3214SOL    HW112854   6.440   6.560   1.227 -0.6785  0.6058  0.6618
 3214SOL    HW212855   6.395   6.420   1.262  0.5351 -0.2748 -1.1572
 3214SOL     MW12856   6.441   6.491   1.281 -0.0314 -0.1267 -0.2631
 3215SOL     OW12857   7.013   6.634   9.416 -0.3569  0.9141  0.3670
 3215SOL    HW112858   6.990   6.611   9.506  2.2184 -0.5238  0.7557
 3215SOL    HW212859   7.000   6.553   9.367  3.0617  0.1032  0.5423
 3215SOL     MW12860   7.008   6.621   9.421  0.4104  0.6262  0.4392
 3216SOL     OW12861   7.699   7.123   2.554 -0.0289  0.5282  0.0339
 3216SOL    HW112862   7.633   7.162   2.497 -0.2865 -0.2362 -0.2081
 3216SOL    HW212863   7.650   7.088   2.628  0.0438 -0.4370 -0.3628
 3216SOL     MW12864   7.684   7.124   2.556 -0.0526  0.3068 -0.0479
 3217SOL     OW12865   9.668   8.839   2.307  0.5661 -0.1487  0.0921
 3217SOL    HW112866   9.614   8.878   2.239 -1.6211  0.1461  1.8562
 3217SOL    HW212867   9.645   8.746   2.306 -0.8176  0.1283  1.4634
 3217SOL     MW12868   9.658   8.832   2.298  0.1090 -0.0755  0.4935
 3218SOL     OW12869   7.573   1.623   9.365  0.1366  0.2087 -0.2755
 3218SOL    HW112870   7.501   1.676   9.331 -0.0239  0.1367 -0.0512
 3218SOL    HW212871   7.542   1.533   9.358 -0.9778  0.2817  2.4170
 3218SOL     MW12872   7.560   1.618   9.360 -0.0266  0.2088  0.0979
 3219SOL     OW12873   9.621   1.347   0.390  0.1315  0.5198 -0.0864
 3219SOL    HW112874   9.646   1.389   0.308  1.9272 -0.3782 -0.0582
 3219SOL    HW212875   9.686   1.378   0.453  1.2406 -1.8243  0.0358
 3219SOL     MW12876   9.633   1.356   0.388  0.5034  0.1048 -0.0671
 3220SOL     OW12877   9.924   2.815   0.183  0.2616 -0.3856  0.5515
 3220SOL    HW112878   9.936   2.737   0.238 -0.2703  0.1907  1.4960
 3220SOL    HW212879   9.908   2.886   0.245 -2.0947 -0.0237 -0.3862
 3220SOL     MW12880   9.923   2.814   0.198 -0.1082 -0.2655  0.5524
 3221SOL     OW12881   8.244   3.251   2.066 -0.2337  0.8106 -0.8396
 3221SOL    HW112882   8.178   3.195   2.026 -2.1870 -0.0375  3.1074
 3221SOL    HW212883   8.324   3.199   2.064 -0.7061  0.0883 -1.8936
 3221SOL     MW12884   8.246   3.237   2.060 -0.5442  0.6096 -0.4693
 3222SOL     OW12885   8.864   3.479   2.020  0.2084  0.1294  0.3974
 3222SOL    HW112886   8.943   3.531   2.005  0.1648 -0.2695 -1.4324
 3222SOL    HW212887   8.894   3.402   2.067  0.9791 -0.1727 -0.5631
 3222SOL     MW12888   8.878   3.476   2.024  0.3015  0.0397  0.0402
 3223SOL     OW12889   6.561   7.871   1.247 -0.3179  0.1948  0.6585
 3223SOL    HW112890   6.551   7.869   1.152 -1.9205 -1.8116  0.8100
 3223SOL    HW212891   6.509   7.946   1.275 -0.4945  0.3190  0.0097
 3223SOL     MW12892   6.553   7.880   1.238 -0.5456 -0.0461  0.5949
 3224SOL     OW12893   8.835   5.442   2.797 -0.0145 -0.4376  0.4753
 3224SOL    HW112894   8.805   5.403   2.714  0.3707 -0.5885  0.4029
 3224SOL    HW212895   8.824   5.536   2.785 -0.9483 -0.5084  0.6469
 3224SOL     MW12896   8.830   5.449   2.785 -0.0847 -0.4660  0.4880
 3225SOL     OW12897   9.626   7.996   9.904  0.4216 -0.1357 -0.1453
 3225SOL    HW112898   9.664   8.071   9.859  0.2052  0.9157  1.3553
 3225SOL    HW212899   9.692   7.972   9.969 -0.7949  0.7451  1.4687
 3225SOL     MW12900   9.639   8.002   9.907  0.2382  0.1116  0.2534
 3226SOL     OW12901   9.781   6.572   2.488  0.3937 -0.5304  0.4550
 3226SOL    HW112902   9.783   6.567   2.584 -1.2039 -0.1721  0.5330
 3226SOL    HW212903   9.734   6.653   2.469  0.4373 -0.7440 -0.6401
 3226SOL     MW12904   9.775   6.582   2.498  0.1947 -0.5119  0.3248
 3227SOL     OW12905   7.312   3.644   2.051 -0.1450 -0.2620  0.1233
 3227SOL    HW112906   7.232   3.591   2.058  0.1652 -0.5509  1.8457
 3227SOL    HW212907   7.283   3.728   2.017 -0.8261 -1.1163 -1.5089
 3227SOL     MW12908   7.298   3.648   2.048 -0.1924 -0.4083  0.1349
 3228SOL     OW12909   7.433   9.237   9.732 -0.0116  0.2817 -0.5822
 3228SOL    HW112910   7.420   9.331   9.716  1.4744  0.5786 -0.1592
 3228SOL    HW212911   7.450   9.232   9.826 -0.9907 -0.5415 -0.4266
 3228SOL     MW12912   7.433   9.249   9.742  0.0533  0.2143 -0.5081
 3229SOL     OW12913   8.536   9.697  10.041 -0.2471 -0.2210 -0.1312
 3229SOL    HW112914   8.529   9.779   9.993  0.4455 -0.1218 -0.0749
 3229SOL    HW212915   8.530   9.629   9.974 -0.3323 -0.1126 -0.2338
 3229SOL     MW12916   8.534   9.699  10.027 -0.1694 -0.1945 -0.1371
 3230SOL     OW12917   0.225   6.576   0.641  0.2839  0.5847  0.0577
 3230SOL    HW112918   0.314   6.581   0.606 -0.3881  0.3777 -1.8501
 3230SOL    HW212919   0.198   6.486   0.625 -0.6981  0.9756 -0.6248
 3230SOL     MW12920   0.233   6.565   0.634  0.0722  0.6082 -0.2739
 3231SOL     OW12921   0.184   0.794   0.449 -0.3745 -0.1816 -0.0177
 3231SOL    HW112922   0.174   0.707   0.411 -1.9911 -0.9860  2.0606
 3231SOL    HW212923   0.187   0.779   0.543 -0.6976  2.0221  0.4028
 3231SOL     MW12924   0.183   0.781   0.456 -0.6228 -0.0025  0.3021
 3232SOL     OW12925   6.267   0.033   1.503  0.6416  0.2148  0.2678
 3232SOL    HW112926   6.297   0.123   1.489  1.2354  0.1490  1.0455
 3232SOL    HW212927   6.335  -0.021   1.462  0.2520  0.1093 -0.2568
 3232SOL     MW12928   6.280   0.037   1.496  0.6678  0.1929  0.3002
 3233SOL     OW12929   8.653   8.220   0.637 -0.3658  0.3738  0.0343
 3233SOL    HW112930   8.744   8.207   0.664 -0.4886  0.1273  0.3404
 3233SOL    HW212931   8.612   8.262   0.713 -0.8424 -0.8070  0.4506
 3233SOL     MW12932   8.660   8.224   0.650 -0.4425  0.1911  0.1268
 3234SOL     OW12933   0.192   2.976   0.591 -0.3669 -0.6683 -0.3276
 3234SOL    HW112934   0.267   2.917   0.580 -0.2839 -0.8298  0.9496
 3234SOL    HW212935   0.175   2.976   0.685 -2.1938 -0.8915 -0.6162
 3234SOL     MW12936   0.199   2.969   0.602 -0.5901 -0.7175 -0.2011
 3235SOL     OW12937   8.099   2.280   2.496  1.0339  0.1370 -0.5002
 3235SOL    HW112938   8.192   2.259   2.499  1.0798  0.3528 -0.3186
 3235SOL    HW212939   8.086   2.323   2.412  1.7500  2.9917  0.7149
 3235SOL     MW12940   8.109   2.283   2.486  1.1314  0.5300 -0.3214
 3236SOL     OW12941   9.208   1.967   1.089  0.3782  0.0369 -0.1422
 3236SOL    HW112942   9.210   1.969   0.994 -0.1931  1.5315 -0.1458
 3236SOL    HW212943   9.237   2.054   1.116 -0.2033 -0.1127  1.0231
 3236SOL     MW12944   9.212   1.978   1.080  0.2306  0.2091  0.0065
 3237SOL     OW12945   8.625   2.086   1.093  0.3077 -0.5483 -0.0441
 3237SOL    HW112946   8.713   2.110   1.121  0.2309 -0.3245  0.0089
 3237SOL    HW212947   8.612   1.998   1.128  0.9425 -1.0571 -1.0349
 3237SOL     MW12948   8.634   2.078   1.101  0.3792 -0.5848 -0.1642
 3238SOL     OW12949   8.855   6.171   9.141 -0.0472 -1.0532 -0.1952
 3238SOL    HW112950   8.827   6.183   9.232  1.6637 -0.6850  0.3165
 3238SOL    HW212951   8.806   6.095   9.111  0.2759 -1.9559  1.4442
 3238SOL     MW12952   8.845   6.163   9.149  0.2132 -1.1217  0.0801
 3239SOL     OW12953   9.355   2.718   0.520  0.3083 -0.4610 -0.4491
 3239SOL    HW112954   9.291   2.743   0.587  1.2143 -1.7370  0.9413
 3239SOL    HW212955   9.342   2.782   0.450  0.4576  2.0132  1.6291
 3239SOL     MW12956   9.345   2.729   0.520  0.4434 -0.3076 -0.0050
 3240SOL     OW12957  10.052   6.313   1.869 -0.6185 -0.0217 -0.5946
 3240SOL    HW112958  10.062   6.353   1.955  0.9321  0.4038 -0.9452
 3240SOL    HW212959   9.983   6.364   1.826  0.3355  1.3923 -0.5097
 3240SOL     MW12960  10.044   6.324   1.874 -0.2979  0.2138 -0.6286
 3241SOL     OW12961   9.659   6.662   0.492  0.1038  0.4102 -0.2221
 3241SOL    HW112962   9.711   6.649   0.412 -0.5455  0.3277 -0.6442
 3241SOL    HW212963   9.595   6.729   0.467 -0.7133 -0.2903 -0.0730
 3241SOL     MW12964   9.657   6.669   0.478 -0.0839  0.3099 -0.2571
 3242SOL     OW12965   6.766   4.006   0.724  0.1112 -0.0299 -0.0394
 3242SOL    HW112966   6.774   4.031   0.816 -2.2600 -0.5368  0.3800
 3242SOL    HW212967   6.746   3.912   0.726  0.3477 -0.1229 -1.0967
 3242SOL     MW12968   6.765   3.997   0.736 -0.1621 -0.1067 -0.1211
 3243SOL     OW12969   8.987   3.536   2.786 -0.0193  0.5906  0.1398
 3243SOL    HW112970   8.952   3.605   2.842 -0.5230  0.3721  0.0935
 3243SOL    HW212971   9.063   3.577   2.743  0.2050  0.8433  0.7609
 3243SOL     MW12972   8.992   3.550   2.788 -0.0551  0.5950  0.2134
 3244SOL     OW12973   7.068   3.059   9.659 -0.3820 -0.5388  0.1568
 3244SOL    HW112974   7.084   2.997   9.587  1.8613 -1.2332  1.1511
 3244SOL    HW212975   7.113   3.020   9.734  1.2643  2.3236  0.7970
 3244SOL     MW12976   7.076   3.046   9.659  0.1159 -0.2613  0.3660
 3245SOL     OW12977   7.587   0.711   0.074 -0.5580  0.1184  0.0001
 3245SOL    HW112978   7.558   0.668  -0.006 -0.1314  0.5627 -0.3985
 3245SOL    HW212979   7.671   0.750   0.051  0.2869 -0.9906  1.0805
 3245SOL     MW12980   7.594   0.711   0.061 -0.3952  0.0333  0.0874
 3246SOL     OW12981   8.170   0.407   1.838 -0.5832 -0.0919  0.4181
 3246SOL    HW112982   8.077   0.386   1.844 -0.6638  0.4896  1.5381
 3246SOL    HW212983   8.176   0.496   1.873 -0.0758  1.3074 -2.8127
 3246SOL     MW12984   8.159   0.416   1.843 -0.5286  0.1617  0.1479
 3247SOL     OW12985   7.384   2.079  10.120  0.3985 -0.4597  0.1403
 3247SOL    HW112986   7.315   2.034  10.070  0.3471 -0.4455  0.1993
 3247SOL    HW212987   7.338   2.123  10.191  0.1823  1.3803 -1.0671
 3247SOL     MW12988   7.369   2.079  10.123  0.3643 -0.2223 -0.0067
 3248SOL     OW12989   9.454   7.956   0.793 -0.0337 -0.3357 -0.4350
 3248SOL    HW112990   9.386   7.993   0.737 -1.8271 -1.3805  0.9441
 3248SOL    HW212991   9.412   7.881   0.835  1.1734  0.4159  2.3288
 3248SOL     MW12992   9.440   7.951   0.791 -0.1087 -0.3732  0.0954
 3249SOL     OW12993   0.337   7.828   1.656  0.6954 -0.0565 -0.1218
 3249SOL    HW112994   0.353   7.846   1.563 -2.2142 -2.8937 -1.3333
 3249SOL    HW212995   0.274   7.895   1.683  2.8327  1.8582  0.4375
 3249SOL     MW12996   0.331   7.839   1.648  0.5966 -0.1746 -0.2053
 3250SOL     OW12997   7.834   5.411   1.723 -0.0676 -0.1105  0.4337
 3250SOL    HW112998   7.867   5.352   1.791  1.3152 -0.2440 -0.3035
 3250SOL    HW212999   7.768   5.360   1.676  2.8521 -2.2061 -1.8410
 3250SOL     MW13000   7.830   5.397   1.725  0.4832 -0.3959  0.0481
 3251SOL     OW13001   6.761   1.756   1.991 -0.0591  0.1161 -0.0140
 3251SOL    HW113002   6.847   1.722   1.967 -0.9071 -1.4752 -0.9226
 3251SOL    HW213003   6.714   1.765   1.908 -1.3648 -0.7661  0.5983
 3251SOL     MW13004   6.766   1.753   1.977 -0.3348 -0.2005 -0.0519
 3252SOL     OW13005   9.462   5.349   1.950  0.1243  0.6899  0.6623
 3252SOL    HW113006   9.464   5.260   1.914 -0.9814  0.9450 -0.0865
 3252SOL    HW213007   9.452   5.406   1.873 -2.0343  1.2674  1.2761
 3252SOL     MW13008   9.461   5.345   1.936 -0.2936  0.7965  0.6450
 3253SOL     OW13009   7.152   2.490   9.490  0.4931 -0.4802  0.1863
 3253SOL    HW113010   7.096   2.560   9.456 -0.6516 -0.8222  1.2799
 3253SOL    HW213011   7.193   2.452   9.413 -0.9364 -0.3319 -0.6881
 3253SOL     MW13012   7.150   2.494   9.476  0.1636 -0.5050  0.2144
 3254SOL     OW13013   8.822   6.875   9.718 -0.1259  0.0271 -0.0758
 3254SOL    HW113014   8.901   6.851   9.669 -0.0474 -0.4777  0.2840
 3254SOL    HW213015   8.851   6.944   9.777  0.3663 -0.9755  0.9126
 3254SOL     MW13016   8.836   6.881   9.719 -0.0528 -0.1659  0.0968
 3255SOL     OW13017   9.154   9.231   1.553  0.1061 -0.3622  0.2468
 3255SOL    HW113018   9.159   9.174   1.630  0.5784  1.2803  1.4994
 3255SOL    HW213019   9.221   9.198   1.494  2.1854  0.3697  2.0464
 3255SOL     MW13020   9.163   9.220   1.555  0.4327 -0.0583  0.6375
 3256SOL     OW13021   7.516   1.906   3.152  0.3111 -0.2128  0.1930
 3256SOL    HW113022   7.511   2.000   3.139 -0.7319 -0.3806 -0.8339
 3256SOL    HW213023   7.489   1.892   3.243 -2.1802  0.3220 -0.3801
 3256SOL     MW13024   7.512   1.916   3.162 -0.1413 -0.1658 -0.0118
 3257SOL     OW13025   8.742   0.784  10.083 -0.3977 -0.3196 -0.3268
 3257SOL    HW113026   8.653   0.806  10.054 -0.5044  1.5631  1.2360
 3257SOL    HW213027   8.799   0.826  10.019 -0.5964 -1.2669 -1.1563
 3257SOL     MW13028   8.738   0.792  10.071 -0.4368 -0.1998 -0.2329
 3258SOL     OW13029   5.999   0.041   0.627 -0.3608  0.0973  0.0602
 3258SOL    HW113030   6.066  -0.023   0.651 -0.1534  0.7061  1.1773
 3258SOL    HW213031   6.004   0.107   0.696 -2.9480 -0.4431  0.8695
 3258SOL     MW13032   6.008   0.041   0.639 -0.6654  0.1061  0.3068
 3259SOL     OW13033  10.106   2.161   2.211 -0.0754  0.2287 -0.9082
 3259SOL    HW113034  10.193   2.174   2.248 -0.5175  0.8586 -0.0472
 3259SOL    HW213035  10.096   2.066   2.207  0.2578  0.1468 -0.0322
 3259SOL     MW13036  10.116   2.151   2.215 -0.0894  0.2988 -0.6858
 3260SOL     OW13037   9.717   5.530   9.444 -0.1715 -0.1127 -0.4465
 3260SOL    HW113038   9.682   5.464   9.504 -0.4168  0.1038 -0.3490
 3260SOL    HW213039   9.809   5.538   9.469 -0.2970  0.0519 -0.0253
 3260SOL     MW13040   9.724   5.523   9.455 -0.2190 -0.0639 -0.3801
 3261SOL     OW13041   8.433   7.708   9.903  0.1280 -0.5426 -0.2081
 3261SOL    HW113042   8.437   7.636   9.841 -2.1358 -0.6685 -0.3167
 3261SOL    HW213043   8.417   7.666   9.988 -0.5342 -0.2284 -0.1678
 3261SOL     MW13044   8.431   7.694   9.906 -0.2466 -0.5185 -0.2169
 3262SOL     OW13045   8.559   5.772   0.802  0.4301 -0.1819 -0.1509
 3262SOL    HW113046   8.609   5.691   0.797  1.3734  0.3887 -0.3124
 3262SOL    HW213047   8.587   5.822   0.725 -1.2752 -0.3142 -0.9030
 3262SOL     MW13048   8.569   5.768   0.791  0.3325 -0.1258 -0.2679
 3263SOL     OW13049   8.545   5.112   9.496  0.4139  0.1759 -0.2734
 3263SOL    HW113050   8.471   5.172   9.507 -0.5267 -0.5570 -2.1638
 3263SOL    HW213051   8.610   5.163   9.448  0.6712  0.4518  0.3560
 3263SOL     MW13052   8.544   5.126   9.491  0.3264  0.1174 -0.4348
 3264SOL     OW13053   9.822   5.808   0.849  0.2744  0.6604 -0.4982
 3264SOL    HW113054   9.791   5.889   0.889  1.0357  1.0934 -0.7577
 3264SOL    HW213055   9.787   5.738   0.905 -0.4153  1.1606 -0.2904
 3264SOL     MW13056   9.814   5.810   0.861  0.2835  0.7798 -0.5048
 3265SOL     OW13057   6.410   3.397   1.430  0.1361  0.2287  0.2274
 3265SOL    HW113058   6.355   3.471   1.457 -1.0937 -0.6050  0.0690
 3265SOL    HW213059   6.489   3.406   1.484 -0.2053  1.3573  0.5783
 3265SOL     MW13060   6.413   3.408   1.441 -0.0651  0.2664  0.2520
 3266SOL     OW13061   8.911   4.670   1.085  0.4896  0.4662  0.1059
 3266SOL    HW113062   8.894   4.579   1.108  0.9049  0.7580  1.7220
 3266SOL    HW213063   8.830   4.701   1.045  0.4552 -0.6852 -0.7614
 3266SOL     MW13064   8.899   4.662   1.083  0.5384  0.3562  0.2017
 3267SOL     OW13065   8.762   2.841   0.806  0.2724 -0.1219  0.4911
 3267SOL    HW113066   8.700   2.770   0.823 -0.4766  0.6369  1.0042
 3267SOL    HW213067   8.829   2.801   0.750 -1.4926 -0.5631 -1.4380
 3267SOL     MW13068   8.762   2.827   0.801 -0.0495 -0.0813  0.3099
 3268SOL     OW13069   7.740   7.231   0.224 -0.0782  0.2542  0.2952
 3268SOL    HW113070   7.668   7.175   0.192 -0.0742 -0.4033  1.3910
 3268SOL    HW213071   7.767   7.190   0.306  1.2596  0.7606  0.1226
 3268SOL     MW13072   7.734   7.218   0.230  0.0936  0.2349  0.4134
 3269SOL     OW13073   5.977   1.164   0.464  0.0526  0.0160 -0.1250
 3269SOL    HW113074   6.067   1.196   0.462 -0.3568  1.2269 -0.3761
 3269SOL    HW213075   5.979   1.083   0.414  1.0336 -0.0415 -0.0027
 3269SOL     MW13076   5.989   1.158   0.457  0.1258  0.1636 -0.1415
 3270SOL     OW13077   7.252   1.473   9.947  0.0824 -0.4200  0.3085
 3270SOL    HW113078   7.179   1.534   9.950 -1.1831 -1.8330 -0.3731
 3270SOL    HW213079   7.266   1.446  10.038 -0.8732 -0.8229  0.3435
 3270SOL     MW13080   7.245   1.477   9.959 -0.2019 -0.6524  0.2257
 3271SOL     OW13081   8.606   0.722   2.634 -0.4489 -0.3180  0.4049
 3271SOL    HW113082   8.685   0.675   2.659 -0.2041 -0.1258  0.0040
 3271SOL    HW213083   8.587   0.691   2.545 -0.8136 -0.3516  0.4930
 3271SOL     MW13084   8.614   0.712   2.626 -0.4642 -0.2977  0.3649
 3272SOL     OW13085   8.879   2.414   2.466 -0.3970 -0.0038 -0.3188
 3272SOL    HW113086   8.848   2.428   2.555  1.5964 -0.7462  0.5304
 3272SOL    HW213087   8.943   2.484   2.451  1.5214 -1.6055 -0.0114
 3272SOL     MW13088   8.883   2.425   2.475  0.1037 -0.3039 -0.1708
 3273SOL     OW13089   9.915   0.758   0.449  0.1326  0.0345  0.5563
 3273SOL    HW113090   9.915   0.798   0.536 -3.3500  0.9975  0.2950
 3273SOL    HW213091   9.907   0.664   0.465 -1.9307  0.3023  1.3625
 3273SOL     MW13092   9.914   0.751   0.462 -0.5774  0.1921  0.6260
 3274SOL     OW13093   6.402   6.562   1.893  0.2673  0.3156 -0.5999
 3274SOL    HW113094   6.372   6.524   1.975 -1.3842 -0.1158 -1.3474
 3274SOL    HW213095   6.458   6.635   1.918 -0.2569  0.2251  0.8997
 3274SOL     MW13096   6.405   6.567   1.906 -0.0112  0.2488 -0.5036
 3275SOL     OW13097   9.122   4.118   1.226  0.2251 -0.0750 -0.4963
 3275SOL    HW113098   9.044   4.084   1.269  1.1817 -0.6406  0.8408
 3275SOL    HW213099   9.147   4.050   1.164  0.0771 -0.1980 -0.4225
 3275SOL     MW13100   9.115   4.105   1.224  0.3286 -0.1631 -0.3157
 3276SOL     OW13101   0.114   1.307   1.974 -0.5919 -0.0692  0.1273
 3276SOL    HW113102   0.140   1.276   1.887  0.8289 -0.2802  0.6050
 3276SOL    HW213103   0.083   1.228   2.019 -0.6084 -0.1014  0.0591
 3276SOL     MW13104   0.113   1.293   1.969 -0.4121 -0.1003  0.1797
 3277SOL     OW13105   9.023   6.316   8.977  0.0649 -0.2172 -0.2510
 3277SOL    HW113106   8.963   6.364   8.919 -0.6119 -1.2753 -0.4584
 3277SOL    HW213107   8.971   6.242   9.008  0.6313 -0.0236  1.1962
 3277SOL     MW13108   9.009   6.313   8.973  0.0508 -0.3279 -0.0923
 3278SOL     OW13109   9.823   6.046  10.129  0.2197  0.1061  0.0351
 3278SOL    HW113110   9.798   6.013  10.215  1.1507  1.6446  0.9324
 3278SOL    HW213111   9.912   6.078  10.141 -0.2450  1.9142 -1.0476
 3278SOL     MW13112   9.831   6.046  10.142  0.2794  0.5345  0.0114
 3279SOL     OW13113   9.260   2.364   1.684 -0.3131  0.1592 -0.0614
 3279SOL    HW113114   9.205   2.300   1.639 -0.4519  0.8504 -0.9102
 3279SOL    HW213115   9.338   2.315   1.710  0.9691  0.2418 -3.3535
 3279SOL     MW13116   9.263   2.349   1.682 -0.1668  0.2583 -0.5915
 3280SOL     OW13117   9.762   8.130   1.126 -0.0756  0.0755 -0.4575
 3280SOL    HW113118   9.679   8.137   1.078  0.0900 -2.6071 -1.2631
 3280SOL    HW213119   9.825   8.176   1.071 -0.5626  0.0117 -1.0837
 3280SOL     MW13120   9.759   8.137   1.113 -0.1167 -0.2761 -0.6408
 3281SOL     OW13121   0.311   5.146   1.074 -0.3262  0.4735 -0.1747
 3281SOL    HW113122   0.288   5.161   0.983 -0.1813 -0.4267 -0.3710
 3281SOL    HW213123   0.297   5.052   1.088  2.2629  0.0280 -0.0599
 3281SOL     MW13124   0.307   5.135   1.064  0.0238  0.3012 -0.1851
 3282SOL     OW13125  10.037   5.896   0.299 -0.3317 -0.0480  0.2327
 3282SOL    HW113126  10.061   5.987   0.281 -0.7640 -0.3045 -1.7591
 3282SOL    HW213127   9.947   5.888   0.269 -0.6408 -0.9017  1.3268
 3282SOL     MW13128  10.029   5.907   0.293 -0.4266 -0.1902  0.1178
 3283SOL     OW13129   8.421   1.347   8.833 -0.3177  0.3204  0.1201
 3283SOL    HW113130   8.395   1.388   8.915  1.8355  0.8151  0.6181
 3283SOL    HW213131   8.508   1.383   8.814 -0.4955 -0.2521 -2.0619
 3283SOL     MW13132   8.429   1.357   8.841 -0.0648  0.3104 -0.0955
 3284SOL     OW13133   6.611   9.307   1.258 -1.0022  0.1152  0.1995
 3284SOL    HW113134   6.621   9.280   1.166 -1.5692  0.8104 -0.0757
 3284SOL    HW213135   6.558   9.237   1.298  0.0489 -0.6718  0.2436
 3284SOL     MW13136   6.605   9.294   1.251 -0.9403  0.1034  0.1699
 3285SOL     OW13137   7.063   8.017   0.533 -0.3937 -0.0059 -0.2138
 3285SOL    HW113138   7.096   7.932   0.559 -0.4164 -0.2118 -0.8373
 3285SOL    HW213139   7.089   8.026   0.441 -1.0928  0.3041 -0.3934
 3285SOL     MW13140   7.070   8.008   0.524 -0.4861  0.0074 -0.3166
 3286SOL     OW13141   9.186   6.748   9.247 -0.2305  0.0557  0.0585
 3286SOL    HW113142   9.186   6.750   9.152 -0.8371 -1.1723  0.0158
 3286SOL    HW213143   9.116   6.686   9.270 -1.4624  1.8260  1.3443
 3286SOL     MW13144   9.177   6.740   9.238 -0.4659  0.1251  0.2176
 3287SOL     OW13145   8.948   9.275   9.542 -0.1619 -0.4421 -0.1460
 3287SOL    HW113146   8.893   9.227   9.605  0.1229  1.3148  1.5337
 3287SOL    HW213147   8.892   9.348   9.513  0.8756  0.7865  0.8198
 3287SOL     MW13148   8.934   9.278   9.546  0.0074 -0.0599  0.1926
 3288SOL     OW13149   9.164   4.437   2.844  0.5608 -0.0074 -0.5188
 3288SOL    HW113150   9.116   4.519   2.850 -0.0582 -0.2710 -1.6346
 3288SOL    HW213151   9.124   4.380   2.909  1.6066  0.8492  0.9263
 3288SOL     MW13152   9.153   4.440   2.853  0.6155  0.0685 -0.4766
 3289SOL     OW13153   9.843   3.183   2.859 -0.2647 -0.3704  0.4287
 3289SOL    HW113154   9.813   3.101   2.899 -0.1809 -0.0996  1.0549
 3289SOL    HW213155   9.936   3.169   2.843 -0.1304 -0.1875  1.0580
 3289SOL     MW13156   9.851   3.170   2.862 -0.2368 -0.3123  0.5894
 3290SOL     OW13157   9.870   1.534   0.848  0.2256 -0.6466 -0.2099
 3290SOL    HW113158   9.800   1.573   0.900  1.2989  0.6804  0.2960
 3290SOL    HW213159   9.836   1.449   0.821 -0.9145 -0.7617  1.4664
 3290SOL     MW13160   9.857   1.528   0.851  0.2171 -0.4915  0.0694
 3291SOL     OW13161   6.655  10.053   9.908 -0.2444 -0.2367 -0.0534
 3291SOL    HW113162   6.671  10.066   9.815 -0.4368  0.2012 -0.0288
 3291SOL    HW213163   6.719  10.109   9.952 -0.0078 -0.6086  0.0824
 3291SOL     MW13164   6.665  10.062   9.902 -0.2387 -0.2283 -0.0329
 3292SOL     OW13165   6.850   6.473   0.323 -0.2589 -0.2949 -0.5154
 3292SOL    HW113166   6.836   6.546   0.262  2.2927 -0.0340 -0.9259
 3292SOL    HW213167   6.870   6.516   0.407  0.5531 -0.5060 -0.5893
 3292SOL     MW13168   6.851   6.488   0.326  0.1717 -0.2885 -0.5774
 3293SOL     OW13169  10.028   5.250   1.479 -0.4664  0.2557 -0.6275
 3293SOL    HW113170  10.092   5.267   1.549 -1.0502 -0.1752  0.0179
 3293SOL    HW213171  10.082   5.236   1.401  0.1890  0.8816 -0.3045
 3293SOL     MW13172  10.043   5.250   1.478 -0.4572  0.2806 -0.5035
 3294SOL     OW13173   9.647   0.052   9.686 -0.0278  0.2507  0.9195
 3294SOL    HW113174   9.677  -0.036   9.705 -0.0851 -0.0877 -0.5009
 3294SOL    HW213175   9.700   0.082   9.613 -1.9085  0.2803 -0.5261
 3294SOL     MW13176   9.657   0.045   9.679 -0.2759  0.2111  0.5526
 3295SOL     OW13177   9.318   0.812   9.663 -0.0206 -0.3601 -0.1190
 3295SOL    HW113178   9.241   0.777   9.709 -0.6051 -0.2635 -1.0084
 3295SOL    HW213179   9.390   0.800   9.725 -0.8732  0.2205  1.0344
 3295SOL     MW13180   9.317   0.806   9.677 -0.2046 -0.2734 -0.0852
 3296SOL     OW13181   8.705   6.154   1.335 -0.2431 -0.1009  0.4051
 3296SOL    HW113182   8.657   6.209   1.272  0.9355  0.4329 -0.0613
 3296SOL    HW213183   8.740   6.216   1.399 -0.9302 -0.5858  1.2715
 3296SOL     MW13184   8.703   6.169   1.335 -0.1802 -0.0946  0.4563
 3297SOL     OW13185   8.624   9.516   9.018  0.2264 -0.5517  0.1323
 3297SOL    HW113186   8.536   9.544   8.995  0.7722  1.3330  0.1929
 3297SOL    HW213187   8.611   9.452   9.088 -1.0850 -0.3191  0.1233
 3297SOL     MW13188   8.611   9.511   9.024  0.1284 -0.2806  0.1389
 3298SOL     OW13189   0.035   1.782   1.094  0.2619 -0.1658 -0.5967
 3298SOL    HW113190  -0.011   1.788   1.010  2.3128  0.8581 -1.7300
 3298SOL    HW213191  -0.011   1.845   1.151 -1.6846 -1.4870 -0.6129
 3298SOL     MW13192   0.023   1.791   1.090  0.2752 -0.2039 -0.7439
 3299SOL     OW13193   7.618   0.539   0.570  0.5423  0.2164  0.0771
 3299SOL    HW113194   7.644   0.480   0.499  0.5707  0.3035  0.0149
 3299SOL    HW213195   7.546   0.591   0.532  0.6765  0.3842  0.0550
 3299SOL     MW13196   7.612   0.538   0.556  0.5631  0.2490  0.0663
 3300SOL     OW13197   7.945   8.161   9.344  0.1104  0.0006 -0.1346
 3300SOL    HW113198   7.987   8.097   9.402  0.5828 -1.3248 -1.8493
 3300SOL    HW213199   8.003   8.238   9.348  0.3923 -0.2446  0.7596
 3300SOL     MW13200   7.958   8.163   9.352  0.2069 -0.2004 -0.2397
 3301SOL     OW13201  10.076   6.479   9.975 -0.4472  0.0830 -0.0161
 3301SOL    HW113202  10.002   6.441   9.927  1.3991 -1.5402 -1.7667
 3301SOL    HW213203  10.072   6.440  10.062 -1.3440 -0.3921 -0.2594
 3301SOL     MW13204  10.066   6.469   9.980 -0.3257 -0.1856 -0.2714
 3302SOL     OW13205   8.527   5.332   9.963  0.5749 -0.3335 -0.1522
 3302SOL    HW113206   8.556   5.309  10.052 -0.7972 -0.5635  0.2697
 3302SOL    HW213207   8.554   5.258   9.909  0.3567 -0.7608  0.3133
 3302SOL     MW13208   8.534   5.320   9.968  0.3713 -0.4176 -0.0386
 3303SOL     OW13209   7.512   1.637   1.533 -0.3157  0.0541  0.1998
 3303SOL    HW113210   7.542   1.587   1.456 -0.3651 -0.1829  0.3315
 3303SOL    HW213211   7.592   1.655   1.582 -0.3539 -0.3634  0.4245
 3303SOL     MW13212   7.526   1.633   1.529 -0.3269 -0.0297  0.2454
 3304SOL     OW13213   8.098   1.174   9.109 -0.0981  0.2630  0.2921
 3304SOL    HW113214   8.021   1.171   9.051  0.4154 -2.5927 -0.3859
 3304SOL    HW213215   8.172   1.151   9.053  0.9881  1.0499  1.3485
 3304SOL     MW13216   8.097   1.170   9.095  0.1066 -0.0019  0.3405
 3305SOL     OW13217   8.420   7.170   0.321 -0.6815 -0.0172  0.1388
 3305SOL    HW113218   8.369   7.158   0.241 -0.7406 -0.2508  0.2108
 3305SOL    HW213219   8.406   7.261   0.346 -0.9906 -0.0579  0.1109
 3305SOL     MW13220   8.412   7.180   0.314 -0.7286 -0.0523  0.1445
 3306SOL     OW13221   9.865   3.898   0.970 -0.7694  0.7800 -0.0640
 3306SOL    HW113222   9.845   3.843   1.046  1.2931  1.0202  0.7282
 3306SOL    HW213223   9.840   3.986   0.997  2.2192  1.2967  1.4261
 3306SOL     MW13224   9.859   3.902   0.983 -0.1228  0.8769  0.2282
 3307SOL     OW13225   8.344   4.737  10.141 -0.0593 -0.5367 -0.4434
 3307SOL    HW113226   8.279   4.771  10.081  0.2661  0.3328 -0.3165
 3307SOL    HW213227   8.319   4.645  10.155 -0.9590 -0.3435 -0.7680
 3307SOL     MW13228   8.333   4.729  10.135 -0.1328 -0.4007 -0.4687
 3308SOL     OW13229   8.635   8.053   8.969 -0.1979  0.2675  0.5750
 3308SOL    HW113230   8.619   8.135   8.922 -0.4926 -0.5192 -0.7307
 3308SOL    HW213231   8.723   8.027   8.944 -0.7500 -0.7106 -0.4478
 3308SOL     MW13232   8.644   8.060   8.960 -0.3063  0.0416  0.2769
 3309SOL     OW13233   7.637   9.513   0.982  0.1271  0.0648  0.8625
 3309SOL    HW113234   7.590   9.540   0.903 -2.1626 -2.1900  1.3242
 3309SOL    HW213235   7.595   9.561   1.053  0.4789  0.1813  0.9955
 3309SOL     MW13236   7.626   9.522   0.981 -0.1210 -0.2089  0.9386
 3310SOL     OW13237   9.811   7.030   2.334 -0.3328  0.1500 -0.3757
 3310SOL    HW113238   9.798   7.123   2.356 -1.3427 -0.1286  0.2711
 3310SOL    HW213239   9.785   7.024   2.242  1.5110  0.8369 -1.0070
 3310SOL     MW13240   9.806   7.041   2.325 -0.2260  0.2022 -0.3737
 3311SOL     OW13241   6.865   7.410   1.530 -0.2041  0.0001  0.4717
 3311SOL    HW113242   6.806   7.335   1.521 -0.7333  0.2774  1.4924
 3311SOL    HW213243   6.903   7.399   1.617  3.5358 -1.7882 -1.1720
 3311SOL     MW13244   6.862   7.399   1.540  0.2069 -0.1933  0.3919
 3312SOL     OW13245   7.636   5.938  10.039 -0.2652  0.7698 -0.6491
 3312SOL    HW113246   7.649   5.904  10.127 -0.6513  1.0781 -0.4753
 3312SOL    HW213247   7.720   5.980  10.017 -0.2544  0.9112 -0.3353
 3312SOL     MW13248   7.649   5.939  10.047 -0.3133  0.8274 -0.5867
 3313SOL     OW13249   9.849   3.690   1.182 -0.2771  0.6647  0.4356
 3313SOL    HW113250   9.939   3.664   1.163  0.0491  1.0130  1.4230
 3313SOL    HW213251   9.845   3.694   1.277 -0.6356  3.0044  0.3916
 3313SOL     MW13252   9.860   3.687   1.192 -0.2812  1.0088  0.5564
 3314SOL     OW13253   7.482   1.114   0.361 -0.0392 -0.2222 -0.1006
 3314SOL    HW113254   7.492   1.135   0.268  0.9104 -1.3758 -0.2906
 3314SOL    HW213255   7.400   1.155   0.387  0.0812  0.7882 -1.2462
 3314SOL     MW13256   7.473   1.122   0.353  0.0978 -0.2405 -0.2716
 3315SOL     OW13257   7.769   8.647   1.003 -0.3853 -0.1114  0.1369
 3315SOL    HW113258   7.862   8.650   0.979 -0.5791  2.5436 -0.6148
 3315SOL    HW213259   7.763   8.697   1.085 -1.1832 -0.0233  0.0360
 3315SOL     MW13260   7.780   8.654   1.011 -0.5123  0.2398  0.0277
 3316SOL     OW13261   8.284   1.798   0.493 -0.2722  0.0306 -0.5318
 3316SOL    HW113262   8.358   1.746   0.523 -0.5375 -0.3659 -0.5527
 3316SOL    HW213263   8.272   1.866   0.560 -0.0596 -0.0657 -0.3970
 3316SOL     MW13264   8.292   1.800   0.505 -0.2790 -0.0325 -0.5173
 3317SOL     OW13265   9.471   8.559   2.676 -0.3723 -0.6266 -0.3548
 3317SOL    HW113266   9.399   8.571   2.614  0.1078 -0.7681 -0.9551
 3317SOL    HW213267   9.528   8.635   2.661 -0.3625 -0.5466  0.0698
 3317SOL     MW13268   9.469   8.571   2.666 -0.3096 -0.6345 -0.3773
 3318SOL     OW13269   9.701   7.350   0.932 -0.1466 -0.0299  0.1861
 3318SOL    HW113270   9.674   7.434   0.968 -1.2876 -0.3324  0.0718
 3318SOL    HW213271   9.795   7.360   0.917 -0.2835  1.2739  0.0405
 3318SOL     MW13272   9.709   7.362   0.935 -0.3102  0.0983  0.1528
 3319SOL     OW13273   7.834   5.124   1.025 -0.0164  0.2053 -0.1498
 3319SOL    HW113274   7.794   5.037   1.033 -0.9586  0.7485  1.6971
 3319SOL    HW213275   7.801   5.158   0.942  0.2424 -1.1388 -0.8223
 3319SOL     MW13276   7.824   5.117   1.015 -0.1039  0.1028  0.0005
 3320SOL     OW13277   0.031   1.501   1.166  0.1724 -0.2212 -0.0893
 3320SOL    HW113278   0.013   1.588   1.130 -0.7400 -0.5747 -0.5243
 3320SOL    HW213279   0.091   1.461   1.103 -2.0225 -1.1307 -1.7552
 3320SOL     MW13280   0.036   1.507   1.153 -0.2254 -0.3829 -0.3583
 3321SOL     OW13281   7.273   2.481   2.071  0.1324 -0.0447 -0.2880
 3321SOL    HW113282   7.284   2.444   1.983 -0.3786  0.5688 -0.6214
 3321SOL    HW213283   7.186   2.453   2.098  0.2158 -0.0782 -0.0535
 3321SOL     MW13284   7.263   2.473   2.063  0.0777  0.0296 -0.3006
 3322SOL     OW13285   7.582  10.009   2.289 -0.2855  0.1158 -0.2007
 3322SOL    HW113286   7.516   9.965   2.235  0.4898 -0.8928 -0.3518
 3322SOL    HW213287   7.636  10.057   2.227 -0.6715  0.6681 -0.1106
 3322SOL     MW13288   7.580  10.009   2.274 -0.2357  0.0574 -0.2085
 3323SOL     OW13289   6.438   2.703   1.962 -0.8900  0.2693 -0.3418
 3323SOL    HW113290   6.498   2.629   1.970 -1.3525 -0.3083 -1.9278
 3323SOL    HW213291   6.471   2.753   1.887 -0.9911  1.3028  0.2786
 3323SOL     MW13292   6.450   2.700   1.953 -0.9622  0.3277 -0.4654
 3324SOL     OW13293   7.560   6.051   0.397  0.4818 -0.5938  0.2744
 3324SOL    HW113294   7.608   5.970   0.416  2.1052  0.2139 -0.1947
 3324SOL    HW213295   7.475   6.039   0.439  1.4332 -1.6907  2.0010
 3324SOL     MW13296   7.555   6.039   0.405  0.8114 -0.6308  0.4354
 3325SOL     OW13297   9.347   4.279   0.461  0.4116  0.0037 -0.5263
 3325SOL    HW113298   9.325   4.354   0.405 -0.5812 -1.1056 -1.6867
 3325SOL    HW213299   9.300   4.295   0.543 -1.8586 -0.5087 -1.6559
 3325SOL     MW13300   9.338   4.291   0.464 -0.0061 -0.2039 -0.8194
 3326SOL     OW13301   8.318   8.341   0.029 -0.2501 -0.2017 -0.3645
 3326SOL    HW113302   8.373   8.336   0.107  0.2226  1.2767 -0.5825
 3326SOL    HW213303   8.235   8.377   0.061 -0.2210 -0.0475 -0.4627
 3326SOL     MW13304   8.314   8.345   0.043 -0.1858  0.0073 -0.4050
 3327SOL     OW13305   6.555   8.632   0.449 -0.3018  0.3564 -0.1198
 3327SOL    HW113306   6.598   8.677   0.521  0.5918  0.2130 -0.5470
 3327SOL    HW213307   6.558   8.539   0.472 -0.2538  0.3336 -0.2130
 3327SOL     MW13308   6.561   8.626   0.461 -0.1813  0.3351 -0.1864
 3328SOL     OW13309   6.891   5.560   0.949 -0.1102  0.2314  0.1016
 3328SOL    HW113310   6.968   5.502   0.945 -0.1660  0.0996  0.7707
 3328SOL    HW213311   6.869   5.564   1.042  1.3235  3.2060  0.4299
 3328SOL     MW13312   6.898   5.553   0.961  0.0662  0.5953  0.2292
 3329SOL     OW13313   5.894   1.414   0.606 -0.5675  0.5309  0.1804
 3329SOL    HW113314   5.915   1.337   0.553 -0.3066  0.8046 -0.1090
 3329SOL    HW213315   5.974   1.433   0.654 -0.4669  0.9419 -0.1443
 3329SOL     MW13316   5.907   1.406   0.605 -0.5212  0.6186  0.1018
 3330SOL     OW13317   9.706   4.711   2.603 -0.0441 -0.4903 -0.1013
 3330SOL    HW113318   9.792   4.740   2.633  0.6638 -0.6835 -1.8159
 3330SOL    HW213319   9.670   4.787   2.556 -0.5653 -0.5911  0.1319
 3330SOL     MW13320   9.712   4.724   2.601 -0.0202 -0.5279 -0.2909
 3331SOL     OW13321   8.124   8.404   0.220 -0.1179  0.1163  0.2134
 3331SOL    HW113322   8.065   8.475   0.198  0.7086  0.4874 -0.9470
 3331SOL    HW213323   8.081   8.325   0.188 -0.5041  0.2347  0.4422
 3331SOL     MW13324   8.111   8.403   0.213 -0.0615  0.1790  0.0941
 3332SOL     OW13325   8.520   3.115   2.117 -0.0979  0.8131 -0.3055
 3332SOL    HW113326   8.533   3.192   2.173 -0.3530  0.4871  0.2067
 3332SOL    HW213327   8.595   3.058   2.136 -1.7661 -0.7638  2.1475
 3332SOL     MW13328   8.531   3.117   2.126 -0.3441  0.5695  0.0741
 3333SOL     OW13329   6.851  10.034   1.098  0.0516 -0.1694 -0.2213
 3333SOL    HW113330   6.855  10.094   1.023  1.4168 -0.5710 -0.5050
 3333SOL    HW213331   6.939   9.996   1.103  0.2969  0.5458  2.1843
 3333SOL     MW13332   6.862  10.036   1.089  0.2577 -0.1292  0.0503
 3334SOL     OW13333   8.158   2.136   9.760 -0.1163  0.1430 -0.3827
 3334SOL    HW113334   8.169   2.041   9.762  2.3828  0.3618  0.0826
 3334SOL    HW213335   8.143   2.159   9.852  0.1740  0.2839 -0.3726
 3334SOL     MW13336   8.157   2.126   9.772  0.2408  0.1890 -0.3218
 3335SOL     OW13337   9.798   9.763   0.706  0.0509  0.2904 -0.1635
 3335SOL    HW113338   9.736   9.789   0.638 -1.1070 -2.7936 -0.4549
 3335SOL    HW213339   9.871   9.723   0.658  1.0802  1.5339  0.3051
 3335SOL     MW13340   9.799   9.761   0.691  0.0344  0.0548 -0.1408
 3336SOL     OW13341   8.684   9.032   3.110 -0.1609 -0.6574 -0.4218
 3336SOL    HW113342   8.701   9.038   3.016  0.1791  2.2749 -0.2671
 3336SOL    HW213343   8.764   8.994   3.147  0.4718 -0.0522 -1.1477
 3336SOL     MW13344   8.696   9.028   3.103 -0.0363 -0.2046 -0.4949
 3337SOL     OW13345   0.155   9.872   0.906 -0.3874 -0.1961  0.1119
 3337SOL    HW113346   0.154   9.828   0.991 -0.0802 -0.7725 -0.1783
 3337SOL    HW213347   0.207   9.951   0.921 -0.8570  0.0250  0.6086
 3337SOL     MW13348   0.162   9.876   0.919 -0.4082 -0.2415  0.1384
 3338SOL     OW13349   9.303   5.324   2.461 -0.2659 -0.0453 -0.1868
 3338SOL    HW113350   9.301   5.328   2.365 -1.9876 -0.4021 -0.1999
 3338SOL    HW213351   9.256   5.243   2.482  0.9299 -0.4781  0.9563
 3338SOL     MW13352   9.297   5.314   2.451 -0.3332 -0.1464 -0.0422
 3339SOL     OW13353   7.195   4.190   1.011  0.4493 -0.0492  0.2179
 3339SOL    HW113354   7.139   4.216   1.084  1.8492  0.4046  1.1694
 3339SOL    HW213355   7.284   4.193   1.046  1.0005 -2.3141 -0.7719
 3339SOL     MW13356   7.199   4.194   1.025  0.6991 -0.2811  0.2130
 3340SOL     OW13357   8.449   6.887   1.528 -0.0352 -0.0037 -0.0720
 3340SOL    HW113358   8.474   6.802   1.566  0.3822 -0.1417 -0.6338
 3340SOL    HW213359   8.390   6.926   1.592 -0.7690 -1.0145 -0.1156
 3340SOL     MW13360   8.445   6.881   1.541 -0.0757 -0.1508 -0.1495
 3341SOL     OW13361   0.119   2.231   0.795 -0.1376  0.7054  0.1517
 3341SOL    HW113362   0.050   2.228   0.861 -0.2462 -1.6587  0.0191
 3341SOL    HW213363   0.122   2.142   0.760  1.1890  1.4262 -1.7183
 3341SOL     MW13364   0.110   2.219   0.799  0.0183  0.4951 -0.1047
 3342SOL     OW13365   7.296   1.813   9.830  0.7991 -0.1315  0.0426
 3342SOL    HW113366   7.213   1.767   9.834  0.3622  0.3755 -1.9146
 3342SOL    HW213367   7.356   1.759   9.881 -0.4896 -1.0449  0.6336
 3342SOL     MW13368   7.293   1.801   9.837  0.5782 -0.1835 -0.1323
 3343SOL     OW13369   6.288   5.539   1.615  0.6885 -0.5332  0.2820
 3343SOL    HW113370   6.311   5.490   1.695  0.0452  0.4629  1.1059
 3343SOL    HW213371   6.371   5.578   1.588  0.7545 -0.1658  0.9769
 3343SOL     MW13372   6.302   5.538   1.622  0.6146 -0.3586  0.4764
 3344SOL     OW13373   7.597   3.262   0.259 -0.7682 -0.4499  0.3686
 3344SOL    HW113374   7.574   3.339   0.311 -0.8686 -0.6229  0.5829
 3344SOL    HW213375   7.542   3.268   0.181  1.1007  1.1111 -0.9077
 3344SOL     MW13376   7.587   3.273   0.256 -0.5418 -0.2722  0.2327
 3345SOL     OW13377   9.368   9.942   1.824  0.0087  0.0423  0.2461
 3345SOL    HW113378   9.442   9.917   1.879  0.3562  0.0612 -0.2063
 3345SOL    HW213379   9.292   9.937   1.882  0.3724  0.0864  0.7302
 3345SOL     MW13380   9.368   9.938   1.838  0.0997  0.0504  0.2501
 3346SOL     OW13381   7.382   2.250   1.629 -0.3468 -0.1773 -0.0086
 3346SOL    HW113382   7.469   2.258   1.588 -0.0819 -2.6935 -0.0966
 3346SOL    HW213383   7.354   2.161   1.607 -1.5999 -0.5155  2.6150
 3346SOL     MW13384   7.390   2.239   1.621 -0.4733 -0.5427  0.3160
 3347SOL     OW13385   7.349   3.526   2.336 -0.1651 -0.3988  0.2778
 3347SOL    HW113386   7.358   3.447   2.283  1.5326 -0.9691  1.3258
 3347SOL    HW213387   7.367   3.598   2.276 -1.0175 -0.8231 -0.5195
 3347SOL     MW13388   7.352   3.525   2.322 -0.0569 -0.5261  0.3099
 3348SOL     OW13389   7.314   3.898   1.266  0.2890  0.0574 -0.0164
 3348SOL    HW113390   7.233   3.922   1.220  0.7188  3.1232  0.6121
 3348SOL    HW213391   7.290   3.822   1.318 -2.3530  1.0756  0.4330
 3348SOL     MW13392   7.300   3.891   1.266  0.0058  0.5802  0.1216
 3349SOL     OW13393   7.873   6.813   2.855  0.0244 -0.0983  0.1262
 3349SOL    HW113394   7.889   6.724   2.886 -0.0137  0.1305  0.8210
 3349SOL    HW213395   7.793   6.806   2.803  0.4936 -0.6222 -0.5522
 3349SOL     MW13396   7.865   6.801   2.852  0.0796 -0.1360  0.1283
 3350SOL     OW13397   0.179   0.292   1.848  0.1410  0.1681 -0.2699
 3350SOL    HW113398   0.095   0.323   1.814 -0.2968  0.0635  0.6902
 3350SOL    HW213399   0.242   0.313   1.779 -0.7941 -0.4671 -1.3554
 3350SOL     MW13400   0.177   0.298   1.835 -0.0347  0.0734 -0.2859
 3351SOL     OW13401   8.036   2.809   1.669 -0.4562  0.1924  0.4839
 3351SOL    HW113402   8.081   2.861   1.735  0.2482 -0.7214  0.7465
 3351SOL    HW213403   7.971   2.868   1.631 -0.1448  1.0395  1.2522
 3351SOL     MW13404   8.033   2.823   1.672 -0.3262  0.1838  0.6158
 3352SOL     OW13405   8.575   9.584   0.390 -0.3839  0.3278 -0.3095
 3352SOL    HW113406   8.516   9.528   0.340 -0.3085  0.3884 -0.4688
 3352SOL    HW213407   8.551   9.673   0.363  0.4969  0.3247 -1.2057
 3352SOL     MW13408   8.565   9.589   0.380 -0.2615  0.3351 -0.4446
 3353SOL     OW13409   8.619   8.542   0.032  0.3275 -0.3031 -0.1610
 3353SOL    HW113410   8.697   8.559  -0.022 -0.3179  1.0470 -0.7242
 3353SOL    HW213411   8.648   8.476   0.095  1.4058 -1.1836 -1.4931
 3353SOL     MW13412   8.633   8.536   0.033  0.3829 -0.2430 -0.4036
 3354SOL     OW13413   9.311   6.011   0.139 -0.1578  0.0734 -0.0625
 3354SOL    HW113414   9.343   6.083   0.084 -2.0690  1.2735  0.2975
 3354SOL    HW213415   9.358   6.021   0.222  0.8735 -0.1854 -0.6052
 3354SOL     MW13416   9.321   6.022   0.143 -0.2704  0.1939 -0.0859
 3355SOL     OW13417   9.474   0.844   1.650 -0.6354  0.3095 -0.4606
 3355SOL    HW113418   9.411   0.776   1.675  1.9420 -2.2395 -0.3659
 3355SOL    HW213419   9.486   0.896   1.730 -1.9225  0.2678 -0.2246
 3355SOL     MW13420   9.468   0.842   1.664 -0.4702 -0.0222 -0.4182
 3356SOL     OW13421   8.085   5.676   0.224  0.3776  0.6407  0.0560
 3356SOL    HW113422   8.012   5.669   0.162  1.5512  2.8000 -1.7515
 3356SOL    HW213423   8.060   5.621   0.297 -2.1888 -0.1957 -1.3215
 3356SOL     MW13424   8.072   5.668   0.225  0.1993  0.8100 -0.3517
 3357SOL     OW13425   8.412   8.782  10.110 -0.6339 -0.3635  0.5712
 3357SOL    HW113426   8.318   8.795  10.095 -0.7347  0.2617  1.6899
 3357SOL    HW213427   8.422   8.783  10.205  0.5707  0.0183  0.4566
 3357SOL     MW13428   8.401   8.784  10.120 -0.4926 -0.2346  0.6998
 3358SOL     OW13429   9.725   2.850   0.888 -0.0937 -0.4456  0.6489
 3358SOL    HW113430   9.630   2.840   0.885 -0.1127 -0.2550 -2.2901
 3358SOL    HW213431   9.759   2.762   0.870  0.1578  0.0540 -1.6233
 3358SOL     MW13432   9.718   2.837   0.886 -0.0639 -0.3572 -0.0182
 3359SOL     OW13433   8.377   0.208   0.427 -0.2469  0.4750 -0.2915
 3359SOL    HW113434   8.439   0.259   0.375 -0.1525  2.0121  1.2504
 3359SOL    HW213435   8.423   0.125   0.444  1.7077  1.7852  1.2704
 3359SOL     MW13436   8.391   0.204   0.422  0.0154  0.8395  0.1058
 3360SOL     OW13437   9.166   6.222   9.170 -0.5043  0.1535 -0.9240
 3360SOL    HW113438   9.111   6.260   9.102  0.8944 -0.6042 -2.5470
 3360SOL    HW213439   9.245   6.276   9.171 -0.5119  0.1621  0.1179
 3360SOL     MW13440   9.169   6.234   9.162 -0.3262  0.0576 -0.9984
 3361SOL     OW13441   0.104   1.889   1.617 -0.1845 -0.1268  0.1477
 3361SOL    HW113442   0.074   1.901   1.707 -0.4030 -1.6883  0.3200
 3361SOL    HW213443   0.061   1.808   1.588  1.2531 -0.6140 -0.7502
 3361SOL     MW13444   0.095   1.880   1.624 -0.0285 -0.3891  0.0549
 3362SOL     OW13445   9.190   9.765   0.384  0.5123 -0.0545 -0.3342
 3362SOL    HW113446   9.110   9.744   0.336  0.2361 -2.5469  1.0632
 3362SOL    HW213447   9.260   9.751   0.320 -0.0612  0.9596 -1.2245
 3362SOL     MW13448   9.189   9.760   0.369  0.4035 -0.2437 -0.2693
 3363SOL     OW13449   8.723   8.914   2.079 -0.2210  0.4219 -0.4694
 3363SOL    HW113450   8.699   9.006   2.072  1.1718  0.8146 -0.2296
 3363SOL    HW213451   8.767   8.907   2.164  1.1055 -0.1252 -1.1849
 3363SOL     MW13452   8.725   8.925   2.089  0.1271  0.4021 -0.5303
 3364SOL     OW13453   8.423   3.577   0.403 -0.0330  0.6185 -0.1514
 3364SOL    HW113454   8.416   3.487   0.434 -0.6981  0.7884  0.1935
 3364SOL    HW213455   8.484   3.619   0.464  0.0688  0.4728 -0.1537
 3364SOL     MW13456   8.430   3.571   0.415 -0.1051  0.6216 -0.1075
 3365SOL     OW13457   9.455   1.040   2.873  0.2898  0.3155 -0.3574
 3365SOL    HW113458   9.529   0.981   2.858  0.1357 -0.5107  1.7497
 3365SOL    HW213459   9.380   0.997   2.833  0.4926 -0.0929 -0.2961
 3365SOL     MW13460   9.455   1.027   2.866  0.2961  0.1575 -0.0798
 3366SOL     OW13461   9.349   9.529  10.110  0.1865 -0.0137 -0.4809
 3366SOL    HW113462   9.436   9.498  10.085  0.0153  0.9813 -2.5064
 3366SOL    HW213463   9.324   9.473  10.184  1.2585 -2.3411 -1.7773
 3366SOL     MW13464   9.357   9.518  10.116  0.3018 -0.1842 -0.9061
 3367SOL     OW13465   6.916   5.474   1.791 -0.3729 -0.8227  0.0254
 3367SOL    HW113466   7.007   5.469   1.762  0.3602 -2.5182  2.2911
 3367SOL    HW213467   6.874   5.397   1.753  0.0380 -1.8462  1.5393
 3367SOL     MW13468   6.922   5.463   1.782 -0.2265 -1.1708  0.5093
 3368SOL     OW13469   0.304   3.653   0.613  0.7172  0.2796  0.0733
 3368SOL    HW113470   0.381   3.613   0.574 -0.7847 -0.8367 -1.9646
 3368SOL    HW213471   0.304   3.742   0.580  1.8528  0.7643  1.2722
 3368SOL     MW13472   0.314   3.659   0.604  0.6703  0.1988 -0.0341
 3369SOL     OW13473   7.050   9.092  10.088  0.0825 -0.4162 -0.1111
 3369SOL    HW113474   7.005   9.105  10.171  1.0820  0.3818  0.3197
 3369SOL    HW213475   7.073   8.999  10.087  0.6997 -0.2846  0.8480
 3369SOL     MW13476   7.047   9.082  10.098  0.2894 -0.2972  0.0668
 3370SOL     OW13477   8.430   4.648   9.349 -0.3615  0.3587 -0.3588
 3370SOL    HW113478   8.465   4.735   9.331 -0.4642  0.4696 -0.0245
 3370SOL    HW213479   8.395   4.618   9.265  0.2212  0.3875 -0.6193
 3370SOL     MW13480   8.430   4.655   9.336 -0.3000  0.3766 -0.3493
 3371SOL     OW13481   9.373   1.452   0.493 -0.0408  0.0955  0.7544
 3371SOL    HW113482   9.435   1.382   0.472 -1.4987 -0.7379 -1.0643
 3371SOL    HW213483   9.422   1.510   0.551  3.3544  0.8224 -2.4388
 3371SOL     MW13484   9.388   1.451   0.498  0.2072  0.0819  0.1128
 3372SOL     OW13485   6.435   7.349   1.357 -0.0875  0.1204 -0.6473
 3372SOL    HW113486   6.383   7.276   1.324  0.0777 -0.2375 -0.1258
 3372SOL    HW213487   6.468   7.319   1.442 -1.1754  1.3180  0.2544
 3372SOL     MW13488   6.432   7.336   1.364 -0.2056  0.2279 -0.4651
 3373SOL     OW13489  10.152   3.143   1.806  0.0905 -0.1201  0.2380
 3373SOL    HW113490  10.066   3.103   1.796  0.0560  0.2652 -1.3025
 3373SOL    HW213491  10.175   3.173   1.718  1.5044  0.3947  0.7482
 3373SOL     MW13492  10.144   3.142   1.793  0.2671 -0.0049  0.1061
 3374SOL     OW13493   7.338   8.626   1.813  0.0127  0.2294  0.1541
 3374SOL    HW113494   7.420   8.644   1.859  0.5612 -0.8022 -0.3759
 3374SOL    HW213495   7.302   8.549   1.857  0.1506 -0.2881 -0.6090
 3374SOL     MW13496   7.344   8.618   1.824  0.1006  0.0311 -0.0114
 3375SOL     OW13497   7.492   4.608   9.832  0.1177 -0.3369  0.4436
 3375SOL    HW113498   7.546   4.650   9.899 -0.9195 -0.5683  1.4525
 3375SOL    HW213499   7.526   4.519   9.826  2.1669  0.4903 -1.5262
 3375SOL     MW13500   7.503   4.602   9.840  0.2473 -0.2606  0.3206
 3376SOL     OW13501   7.409   4.837   1.062 -0.2701 -0.3425 -0.0894
 3376SOL    HW113502   7.461   4.837   1.143 -0.2605 -0.2801 -0.0949
 3376SOL    HW213503   7.420   4.926   1.028 -1.3187  0.0481  0.5204
 3376SOL     MW13504   7.417   4.849   1.068 -0.4031 -0.2845 -0.0120
 3377SOL     OW13505   7.830   9.956   0.394 -0.1243  0.1667 -0.2534
 3377SOL    HW113506   7.803  10.046   0.410  0.0575  0.1114  0.3929
 3377SOL    HW213507   7.899   9.940   0.459  1.4135  0.2708 -1.7809
 3377SOL     MW13508   7.835   9.966   0.404  0.0958  0.1730 -0.3662
 3378SOL     OW13509   9.357   7.152   2.727 -0.1402 -0.1355  0.3000
 3378SOL    HW113510   9.328   7.243   2.734 -0.2386  0.0663 -1.9119
 3378SOL    HW213511   9.279   7.105   2.696 -0.7826 -1.4884  3.5504
 3378SOL     MW13512   9.343   7.157   2.723 -0.2350 -0.2828  0.4330
 3379SOL     OW13513   7.737   8.751   1.689  0.2372 -0.2451  0.3121
 3379SOL    HW113514   7.747   8.693   1.613  1.7162 -0.1828  0.4314
 3379SOL    HW213515   7.826   8.782   1.707 -0.1372 -0.0299  1.8960
 3379SOL     MW13516   7.750   8.748   1.682  0.3786 -0.2096  0.5301
 3380SOL     OW13517   8.989   5.896   0.306  0.2754 -0.2102  0.5161
 3380SOL    HW113518   8.904   5.854   0.312  0.2656 -0.4010 -0.7106
 3380SOL    HW213519   9.051   5.824   0.294  0.2011  0.0844 -2.1205
 3380SOL     MW13520   8.986   5.881   0.305  0.2646 -0.1969  0.0216
 3381SOL     OW13521   8.387   2.364   2.464  0.1881  0.0887  0.6864
 3381SOL    HW113522   8.433   2.296   2.514 -1.6966 -2.2499 -0.5680
 3381SOL    HW213523   8.434   2.368   2.381 -0.0574 -0.1052  0.5385
 3381SOL     MW13524   8.399   2.356   2.460 -0.0846 -0.2355  0.5069
 3382SOL     OW13525   8.240   4.858   0.332  0.0109  0.5828  0.5152
 3382SOL    HW113526   8.221   4.915   0.407 -1.7973 -1.9347  2.1173
 3382SOL    HW213527   8.174   4.880   0.267  0.3971  1.4481  0.3979
 3382SOL     MW13528   8.229   4.869   0.334 -0.1711  0.3713  0.7052
 3383SOL     OW13529  10.043   9.004   1.792  0.0612 -0.0962  0.9754
 3383SOL    HW113530   9.977   9.029   1.727 -0.4199 -0.1167  1.4506
 3383SOL    HW213531  10.088   8.929   1.753 -0.4767 -0.3449  0.8222
 3383SOL     MW13532  10.040   8.998   1.779 -0.0692 -0.1307  1.0167
 3384SOL     OW13533   7.359   6.687   1.293 -0.0106  0.9239  0.0915
 3384SOL    HW113534   7.391   6.597   1.288 -1.1432  0.5765 -2.2322
 3384SOL    HW213535   7.326   6.695   1.382  0.1655 -0.9449  0.3765
 3384SOL     MW13536   7.359   6.676   1.304 -0.1330  0.6402 -0.1695
 3385SOL     OW13537   9.683   6.607  10.056  0.2993  0.0109 -0.1631
 3385SOL    HW113538   9.739   6.682  10.034 -0.2524  0.3284 -0.5101
 3385SOL    HW213539   9.727   6.532  10.016  0.1703  0.3419 -0.9566
 3385SOL     MW13540   9.696   6.607  10.048  0.2122  0.0939 -0.3091
 3386SOL     OW13541   0.167   2.763   1.146  0.1573  0.0017  0.5050
 3386SOL    HW113542   0.071   2.766   1.136  0.2392  0.4015 -0.2285
 3386SOL    HW213543   0.197   2.709   1.073  0.4083 -1.1810  1.4492
 3386SOL     MW13544   0.158   2.756   1.136  0.1999 -0.0985  0.5319
 3387SOL     OW13545   6.133   6.954   1.235  0.1066  0.1461  0.2489
 3387SOL    HW113546   6.091   7.027   1.280  1.1215  0.2175  1.1212
 3387SOL    HW213547   6.136   6.884   1.301  0.0597 -0.3402 -0.2592
 3387SOL     MW13548   6.128   6.955   1.249  0.2305  0.0930  0.2956
 3388SOL     OW13549   8.152   5.850   0.928  0.2154  0.2125  0.2131
 3388SOL    HW113550   8.217   5.905   0.971 -0.1452 -0.1464  1.2517
 3388SOL    HW213551   8.203   5.785   0.880  0.6581  1.6426 -1.3535
 3388SOL     MW13552   8.167   5.849   0.927  0.2259  0.3496  0.1455
 3389SOL     OW13553   8.106   4.614   9.694 -0.3986  0.0717  0.1583
 3389SOL    HW113554   8.136   4.567   9.616  1.5268  0.1620  0.7763
 3389SOL    HW213555   8.125   4.555   9.767  1.4213  1.4401  0.8755
 3389SOL     MW13556   8.112   4.601   9.693  0.0809  0.2584  0.3293
 3390SOL     OW13557   8.631   8.766   1.790  0.0847 -0.1008  0.4302
 3390SOL    HW113558   8.674   8.680   1.791 -1.8209 -1.1333  0.4104
 3390SOL    HW213559   8.658   8.808   1.872  2.1080 -0.1250 -0.1836
 3390SOL     MW13560   8.640   8.760   1.801  0.0998 -0.2360  0.3491
 3391SOL     OW13561   9.898   0.746   2.439  0.2183  0.1079 -0.2521
 3391SOL    HW113562   9.984   0.720   2.407 -0.6248 -1.7724 -1.1356
 3391SOL    HW213563   9.911   0.835   2.473  2.7333 -0.5111  0.6440
 3391SOL     MW13564   9.911   0.754   2.439  0.4323 -0.2120 -0.2505
 3392SOL     OW13565   8.407   6.517   0.866  0.7831 -0.4203  0.9698
 3392SOL    HW113566   8.437   6.584   0.928  0.4432  1.3493 -0.6860
 3392SOL    HW213567   8.362   6.452   0.921  0.1862  1.2414  2.5616
 3392SOL     MW13568   8.405   6.517   0.881  0.6632  0.0190  0.9616
 3393SOL     OW13569   8.606   7.756   1.997 -0.2285  0.4480 -0.0437
 3393SOL    HW113570   8.587   7.687   1.933  1.5208  1.4398 -1.7388
 3393SOL    HW213571   8.674   7.718   2.053 -1.0081 -0.0388  0.5991
 3393SOL     MW13572   8.612   7.742   1.996 -0.1044  0.5126 -0.1784
 3394SOL     OW13573   9.051   9.480   9.249  0.0726  0.5691 -0.2492
 3394SOL    HW113574   9.109   9.533   9.303 -1.2914  1.1732  0.6836
 3394SOL    HW213575   9.006   9.423   9.311 -0.9000  0.6756 -0.8324
 3394SOL     MW13576   9.053   9.479   9.264 -0.2265  0.6600 -0.2045
 3395SOL     OW13577   7.160   9.983   2.002 -0.3519 -0.1689  0.2667
 3395SOL    HW113578   7.080   9.995   1.951 -1.4219 -1.5442  1.5380
 3395SOL    HW213579   7.145  10.033   2.083  0.4842  0.3445  0.1177
 3395SOL     MW13580   7.148   9.991   2.006 -0.3818 -0.2793  0.4104
 3396SOL     OW13581   8.778   5.042   1.750  0.1506  0.3511 -0.3236
 3396SOL    HW113582   8.801   5.107   1.817  2.3892  0.8434 -1.4847
 3396SOL    HW213583   8.723   5.090   1.688  1.3060  1.0159 -0.8624
 3396SOL     MW13584   8.774   5.057   1.751  0.5851  0.4992 -0.5412
 3397SOL     OW13585   8.157   9.281   2.134 -0.4002 -0.5350  0.4393
 3397SOL    HW113586   8.168   9.302   2.041 -1.8489  0.2825  0.4301
 3397SOL    HW213587   8.192   9.358   2.179  1.2270 -1.3476  0.6294
 3397SOL     MW13588   8.163   9.294   2.128 -0.3774 -0.5344  0.4625
 3398SOL     OW13589   9.547   7.921   0.101  0.5845 -0.1036  0.5283
 3398SOL    HW113590   9.612   7.864   0.061  0.6788 -0.5138  1.2435
 3398SOL    HW213591   9.466   7.901   0.054  0.9320  0.2620 -0.2278
 3398SOL     MW13592   9.545   7.911   0.090  0.6411 -0.1093  0.5231
 3399SOL     OW13593   9.504   1.683   1.640  0.5537 -0.0295  0.1666
 3399SOL    HW113594   9.487   1.599   1.596  0.2564  0.3081 -0.3663
 3399SOL    HW213595   9.422   1.702   1.687 -0.2178  1.0493 -1.5105
 3399SOL     MW13596   9.491   1.674   1.641  0.4169  0.1518 -0.1163
 3400SOL     OW13597   9.530   6.164   2.119  0.1627  0.0420  0.1430
 3400SOL    HW113598   9.510   6.080   2.078 -0.5046 -1.0805  2.5988
 3400SOL    HW213599   9.622   6.157   2.144 -0.3673 -0.7694  2.0109
 3400SOL     MW13600   9.539   6.153   2.117  0.0095 -0.2055  0.6965
 3401SOL     OW13601   9.532   0.892   9.821 -0.5263  0.5168  0.3947
 3401SOL    HW113602   9.604   0.895   9.758  0.3574 -0.9059  1.2784
 3401SOL    HW213603   9.486   0.975   9.808  0.1808  0.6811 -1.4469
 3401SOL     MW13604   9.535   0.903   9.811 -0.3227  0.3557  0.2721
 3402SOL     OW13605   9.868   5.074   9.986  0.3388 -0.5968 -0.1913
 3402SOL    HW113606   9.791   5.059   9.932  1.5710 -0.0272 -2.1966
 3402SOL    HW213607   9.939   5.026   9.944  1.4486  0.2104  0.6523
 3402SOL     MW13608   9.868   5.066   9.974  0.6386 -0.4206 -0.3400
 3403SOL     OW13609   7.755   4.671  10.021  0.0737  0.0826  0.7750
 3403SOL    HW113610   7.835   4.652  10.070 -0.0868  1.2374  1.5301
 3403SOL    HW213611   7.784   4.728   9.950  0.0558 -0.2520  0.4979
 3403SOL     MW13612   7.769   4.676  10.019  0.0508  0.1876  0.8362
 3404SOL     OW13613   6.650   8.959   9.760 -0.0075 -0.1034  0.4300
 3404SOL    HW113614   6.725   8.945   9.818 -0.4446  1.0478  1.2964
 3404SOL    HW213615   6.602   9.032   9.799 -1.7086 -0.9492  0.0004
 3404SOL     MW13616   6.654   8.966   9.772 -0.2812 -0.0643  0.4859
 3405SOL     OW13617   9.803   2.366   9.707  0.9810  0.3320 -0.1584
 3405SOL    HW113618   9.752   2.370   9.626 -0.4529  1.1191  0.7427
 3405SOL    HW213619   9.829   2.457   9.723  2.6501 -0.0472 -0.5650
 3405SOL     MW13620   9.800   2.378   9.699  1.0111  0.3842 -0.0951
 3406SOL     OW13621   0.248   4.589   1.323  0.0992  0.0087  0.2272
 3406SOL    HW113622   0.236   4.673   1.366  1.0556  0.7669 -0.9051
 3406SOL    HW213623   0.330   4.599   1.275 -0.4862 -1.0768 -1.0553
 3406SOL     MW13624   0.257   4.601   1.322  0.1467 -0.0332 -0.0819
 3407SOL     OW13625   7.289  10.106   9.809 -0.6203  0.6020  0.5067
 3407SOL    HW113626   7.354  10.141   9.870  1.2694  0.7670 -1.4729
 3407SOL    HW213627   7.283  10.013   9.831 -0.3050  0.7408  1.2154
 3407SOL     MW13628   7.297  10.098   9.820 -0.3380  0.6409  0.3440
 3408SOL     OW13629   9.407   5.059   0.815  0.3853  0.1346  0.2201
 3408SOL    HW113630   9.430   4.981   0.764  0.6010 -0.1374  0.7215
 3408SOL    HW213631   9.439   5.132   0.763 -1.0318 -0.0051 -0.9353
 3408SOL     MW13632   9.414   5.058   0.802  0.2315  0.0819  0.1364
 3409SOL     OW13633   7.398   0.672   0.476 -0.2837  0.2488 -0.3698
 3409SOL    HW113634   7.334   0.690   0.545  0.5888 -0.6158  0.7003
 3409SOL    HW213635   7.432   0.758   0.453 -3.0656  0.9798 -2.2683
 3409SOL     MW13636   7.394   0.685   0.482 -0.5281  0.2317 -0.4758
 3410SOL     OW13637   6.689   4.782   0.377  0.2103  0.3906  0.4439
 3410SOL    HW113638   6.725   4.754   0.293  0.8786 -2.2492  1.4986
 3410SOL    HW213639   6.730   4.868   0.393  1.5884  0.0667 -1.0170
 3410SOL     MW13640   6.699   4.790   0.368  0.4723  0.0112  0.3919
 3411SOL     OW13641   9.450   7.588   1.550  0.5719  0.1534 -0.7334
 3411SOL    HW113642   9.479   7.595   1.641  0.3606  1.2322 -0.7417
 3411SOL    HW213643   9.358   7.563   1.555  0.5112  0.3939 -0.6476
 3411SOL     MW13644   9.442   7.585   1.562  0.5370  0.3223 -0.7235
 3412SOL     OW13645   9.353   1.312   2.966  0.4479  0.2573  0.7189
 3412SOL    HW113646   9.403   1.372   2.911 -0.1284  1.0499  1.0304
 3412SOL    HW213647   9.409   1.235   2.976  0.1844 -0.3098 -1.7072
 3412SOL     MW13648   9.366   1.310   2.960  0.3404  0.2862  0.4482
 3413SOL     OW13649   6.885   8.878   0.467  0.0420 -0.5382 -0.0847
 3413SOL    HW113650   6.922   8.818   0.531  0.0154  0.0252  0.4663
 3413SOL    HW213651   6.953   8.944   0.452 -0.6438  0.4010  0.8037
 3413SOL     MW13652   6.898   8.879   0.473 -0.0492 -0.3459  0.0995
 3414SOL     OW13653   8.726   4.059   1.556  0.2189 -0.1263  0.1809
 3414SOL    HW113654   8.689   4.079   1.470 -0.6822  0.1371  0.6182
 3414SOL    HW213655   8.737   4.144   1.598 -1.1598 -0.3389  1.0447
 3414SOL     MW13656   8.722   4.072   1.551 -0.0729 -0.1198  0.3475
 3415SOL     OW13657   6.387   7.484  10.093 -0.1984 -0.2425  0.4339
 3415SOL    HW113658   6.441   7.445  10.025 -0.2362  0.0231  0.2531
 3415SOL    HW213659   6.301   7.443  10.082 -0.0548 -0.6183  0.6830
 3415SOL     MW13660   6.383   7.473  10.083 -0.1849 -0.2566  0.4426
 3416SOL     OW13661   9.053   3.510   0.195 -0.5204 -0.3582  0.5702
 3416SOL    HW113662   9.098   3.555   0.267 -0.5401 -0.5553  0.7085
 3416SOL    HW213663   8.961   3.511   0.220 -0.4429 -1.1077  0.9331
 3416SOL     MW13664   9.047   3.516   0.208 -0.5130 -0.4794  0.6344
 3417SOL     OW13665   7.121   4.164   0.277 -0.0464  0.3256 -0.1188
 3417SOL    HW113666   7.122   4.201   0.365 -0.7249 -0.2074  0.1191
 3417SOL    HW213667   7.212   4.168   0.248  0.2291  0.2303  0.7156
 3417SOL     MW13668   7.133   4.170   0.284 -0.0980  0.2452  0.0184
 3418SOL     OW13669   7.471   5.668   2.339 -0.2133 -0.2298  0.0365
 3418SOL    HW113670   7.508   5.587   2.302  1.3781  0.7645 -0.6678
 3418SOL    HW213671   7.514   5.738   2.290 -1.3947  1.0622  0.7894
 3418SOL     MW13672   7.481   5.666   2.328 -0.1608  0.0628  0.0427
 3419SOL     OW13673   9.661   3.149   0.427  0.0559  0.1259  0.3369
 3419SOL    HW113674   9.608   3.103   0.493 -0.0936  2.6719  2.1765
 3419SOL    HW213675   9.610   3.227   0.407  1.1532  0.4846 -1.1755
 3419SOL     MW13676   9.648   3.153   0.433  0.1772  0.4977  0.3788
 3420SOL     OW13677   8.121   7.903   0.859 -0.2884  0.0325 -0.5245
 3420SOL    HW113678   8.155   7.936   0.942 -0.4481  0.4199 -0.6094
 3420SOL    HW213679   8.194   7.911   0.798 -0.0894 -0.5015 -0.3591
 3420SOL     MW13680   8.135   7.908   0.862 -0.2834  0.0137 -0.5142
 3421SOL     OW13681   9.482   6.726   9.308 -0.2498  0.3989  0.2527
 3421SOL    HW113682   9.390   6.740   9.285 -0.1061 -0.3698 -0.8912
 3421SOL    HW213683   9.527   6.805   9.277 -0.6086  1.1515  1.5553
 3421SOL     MW13684   9.476   6.738   9.301 -0.2773  0.3968  0.2730
 3422SOL     OW13685   6.815   7.762   0.580  0.4641 -0.4052  0.1506
 3422SOL    HW113686   6.799   7.757   0.674 -0.1106  1.8285  0.2227
 3422SOL    HW213687   6.741   7.812   0.545  2.7076  2.5083 -0.8222
 3422SOL     MW13688   6.804   7.767   0.588  0.6777  0.2537  0.0353
 3423SOL     OW13689   8.231   0.146   0.658 -0.3461  0.3974  0.3709
 3423SOL    HW113690   8.237   0.200   0.579 -1.2571  0.2332  0.1846
 3423SOL    HW213691   8.212   0.058   0.625 -2.5588  0.6478  0.8288
 3423SOL     MW13692   8.230   0.141   0.644 -0.7460  0.4085  0.4057
 3424SOL     OW13693   9.999   5.314   9.880 -0.4051  0.1321 -0.4110
 3424SOL    HW113694   9.971   5.378   9.946  0.1620  0.7302 -0.7369
 3424SOL    HW213695   9.978   5.229   9.919 -0.1579  0.4772  0.5070
 3424SOL     MW13696   9.993   5.312   9.893 -0.3009  0.2529 -0.3352
 3425SOL     OW13697   8.975   1.355   0.935  0.2958 -0.0818 -0.0432
 3425SOL    HW113698   8.943   1.374   0.847 -0.3909 -1.4439 -0.1196
 3425SOL    HW213699   8.922   1.411   0.992 -1.1007 -1.0610 -0.3154
 3425SOL     MW13700   8.964   1.365   0.931  0.0291 -0.3815 -0.0878
 3426SOL     OW13701   8.565   2.929   9.332  0.8033  0.6448 -0.3001
 3426SOL    HW113702   8.554   2.836   9.309 -0.0621  0.3534  1.2050
 3426SOL    HW213703   8.488   2.972   9.296 -0.7747  0.1181  2.2577
 3426SOL     MW13704   8.554   2.922   9.324  0.4905  0.5400  0.2200
 3427SOL     OW13705   8.222   2.552   9.999 -0.4113 -0.0135  0.4542
 3427SOL    HW113706   8.203   2.642   9.975  1.1118  0.1642 -0.2517
 3427SOL    HW213707   8.318   2.546   9.996 -0.5007 -2.2308 -1.8141
 3427SOL     MW13708   8.232   2.563   9.996 -0.2278 -0.2746  0.0734
 3428SOL     OW13709   9.724   5.594   0.995  0.2896 -0.4375  0.6195
 3428SOL    HW113710   9.799   5.535   0.985 -0.1397 -0.8275 -0.4624
 3428SOL    HW213711   9.739   5.638   1.078  0.9930 -1.5453  1.1073
 3428SOL     MW13712   9.735   5.592   1.004  0.3247 -0.6293  0.5434
 3429SOL     OW13713   7.552   2.477   9.011 -0.8823  0.1538  0.2145
 3429SOL    HW113714   7.619   2.430   8.961 -2.3954 -0.5257 -1.2709
 3429SOL    HW213715   7.489   2.409   9.035 -0.5380  0.5828  2.5739
 3429SOL     MW13716   7.553   2.462   9.007 -1.0319  0.1217  0.3264
 3430SOL     OW13717   7.193   7.174   9.380 -0.0609  0.5037 -0.2804
 3430SOL    HW113718   7.202   7.252   9.325  0.3912 -0.1951 -1.2107
 3430SOL    HW213719   7.277   7.129   9.372 -0.1101  0.2101  0.7168
 3430SOL     MW13720   7.205   7.178   9.372 -0.0094  0.3767 -0.2718
 3431SOL     OW13721   7.793   7.815   2.045 -0.4961  0.9356 -0.1233
 3431SOL    HW113722   7.755   7.868   2.116 -0.2743 -0.8283  1.3978
 3431SOL    HW213723   7.883   7.798   2.073 -0.7139 -0.6601 -0.2820
 3431SOL     MW13724   7.799   7.819   2.058 -0.4956  0.5055  0.0511
 3432SOL     OW13725   9.192   1.241   1.537 -0.1427  0.1131 -0.5090
 3432SOL    HW113726   9.161   1.238   1.628 -0.3919 -0.0280 -0.5962
 3432SOL    HW213727   9.202   1.149   1.512  1.9780  0.1402  0.0533
 3432SOL     MW13728   9.189   1.228   1.545  0.0969  0.0985 -0.4482
 3433SOL     OW13729   9.943   8.256   0.968  0.6938  0.2099  0.2997
 3433SOL    HW113730  10.027   8.232   0.928  0.1634  0.1276 -0.7963
 3433SOL    HW213731   9.960   8.342   1.007  1.1543  0.4449 -0.3834
 3433SOL     MW13732   9.956   8.264   0.967  0.6848  0.2294  0.0720
 3434SOL     OW13733   8.138   7.927   9.502  0.0726  0.3900 -0.2046
 3434SOL    HW113734   8.169   7.864   9.567 -0.9196 -0.8923 -0.9332
 3434SOL    HW213735   8.149   7.882   9.418  0.8048  1.8045 -0.9132
 3434SOL     MW13736   8.144   7.913   9.500  0.0393  0.4069 -0.3886
 3435SOL     OW13737   9.715   8.891   1.241 -0.2113 -0.4277 -0.2790
 3435SOL    HW113738   9.654   8.823   1.213 -1.9163  0.8179  0.1997
 3435SOL    HW213739   9.673   8.973   1.216  1.3874  0.4959 -0.1041
 3435SOL     MW13740   9.702   8.893   1.234 -0.2249 -0.1500 -0.1953
 3436SOL     OW13741   8.548   5.469   0.560 -0.6428  0.3216 -0.2840
 3436SOL    HW113742   8.482   5.446   0.626  0.6568 -0.7606  0.7148
 3436SOL    HW213743   8.619   5.507   0.610  0.8304 -1.4988 -0.8630
 3436SOL     MW13744   8.548   5.471   0.575 -0.2879 -0.0499 -0.2303
 3437SOL     OW13745   6.809   8.130   0.516 -0.1947 -0.0111 -0.1637
 3437SOL    HW113746   6.889   8.085   0.543  0.1037  0.9256  0.5679
 3437SOL    HW213747   6.761   8.065   0.465  0.4239 -1.0141  0.5013
 3437SOL     MW13748   6.813   8.116   0.513 -0.0773 -0.0196  0.0151
 3438SOL     OW13749   0.173   0.120   0.399 -0.2569 -0.4148  0.0328
 3438SOL    HW113750   0.206   0.087   0.315  1.2652  0.1077  0.3949
 3438SOL    HW213751   0.080   0.099   0.398 -0.0076 -1.6012 -1.2246
 3438SOL     MW13752   0.165   0.113   0.388 -0.0302 -0.4998 -0.0818
 3439SOL     OW13753   8.119   1.856   9.848  0.1592  0.1922 -0.1304
 3439SOL    HW113754   8.127   1.779   9.904  1.3723 -0.5412 -1.2393
 3439SOL    HW213755   8.039   1.899   9.877 -0.9333 -1.8599  0.0800
 3439SOL     MW13756   8.110   1.852   9.859  0.1747 -0.1644 -0.2454
 3440SOL     OW13757   7.338   0.084   1.906 -0.4266  0.2950 -0.0034
 3440SOL    HW113758   7.331   0.177   1.888 -0.3062  0.0289 -1.5955
 3440SOL    HW213759   7.280   0.043   1.842  0.0303 -0.7490  0.2256
 3440SOL     MW13760   7.330   0.090   1.895 -0.3527  0.1273 -0.1779
 3441SOL     OW13761   7.786   2.562   2.134 -0.0277 -0.0398  0.0812
 3441SOL    HW113762   7.696   2.597   2.135  0.5528  1.5705 -0.3317
 3441SOL    HW213763   7.778   2.474   2.169 -1.4242  0.9056  2.3266
 3441SOL     MW13764   7.773   2.556   2.138 -0.1322  0.2873  0.3158
 3442SOL     OW13765   8.191   6.653   1.114  0.0859  0.1080 -0.1562
 3442SOL    HW113766   8.234   6.705   1.182  1.5183 -0.1712 -0.8140
 3442SOL    HW213767   8.177   6.716   1.042  0.6868 -0.1142 -0.4749
 3442SOL     MW13768   8.194   6.668   1.113  0.3462  0.0438 -0.2812
 3443SOL     OW13769   7.655   1.321   2.592 -0.2314 -0.3728  0.4754
 3443SOL    HW113770   7.592   1.323   2.664 -0.8962  0.3686 -0.1088
 3443SOL    HW213771   7.740   1.311   2.635 -0.4558  1.6026  1.4921
 3443SOL     MW13772   7.658   1.320   2.606 -0.3452 -0.0250  0.5308
 3444SOL     OW13773   8.910   5.422   1.277  0.1703 -0.0931 -0.3080
 3444SOL    HW113774   8.987   5.478   1.278 -0.5078  0.8674  0.2828
 3444SOL    HW213775   8.936   5.344   1.324  0.4001  0.7742  1.0614
 3444SOL     MW13776   8.923   5.419   1.283  0.1129  0.1409 -0.0571
 3445SOL     OW13777   6.325   2.237   0.989 -0.3831  0.2824  0.3556
 3445SOL    HW113778   6.412   2.200   1.004 -0.3348 -0.6402 -1.8524
 3445SOL    HW213779   6.278   2.220   1.071  0.8909 -1.1135  0.8487
 3445SOL     MW13780   6.330   2.230   1.002 -0.2138 -0.0144  0.1361
 3446SOL     OW13781   9.162   7.952   0.211  0.6514  0.4224  0.2604
 3446SOL    HW113782   9.212   7.900   0.148 -0.7769  0.7346 -1.1935
 3446SOL    HW213783   9.169   8.042   0.178  2.1728  1.0759  2.1307
 3446SOL     MW13784   9.170   7.957   0.199  0.6633  0.5460  0.3137
 3447SOL     OW13785   0.498   9.082   0.717  0.6002 -0.1360  0.5505
 3447SOL    HW113786   0.416   9.122   0.687  1.3107  0.8322 -0.1862
 3447SOL    HW213787   0.494   8.992   0.684  0.5246  0.3629 -0.8976
 3447SOL     MW13788   0.487   9.076   0.709  0.6815  0.0518  0.2708
 3448SOL     OW13789   6.198   0.590   1.643  0.0414  0.1480  0.4144
 3448SOL    HW113790   6.165   0.560   1.728 -0.2456 -0.0150  0.2508
 3448SOL    HW213791   6.289   0.563   1.641  0.1678  0.5409  0.8498
 3448SOL     MW13792   6.205   0.583   1.654  0.0208  0.1774  0.4492
 3449SOL     OW13793   8.783   0.745   2.864 -0.1225  0.4086 -0.3906
 3449SOL    HW113794   8.793   0.673   2.926  0.7625 -0.1404 -1.1515
 3449SOL    HW213795   8.715   0.800   2.903 -1.9078 -1.5847 -0.5004
 3449SOL     MW13796   8.775   0.743   2.877 -0.2377  0.0832 -0.5021
 3450SOL     OW13797   8.705   2.062   3.203 -0.5028 -0.4565  0.0770
 3450SOL    HW113798   8.768   2.052   3.131 -0.0417  1.4494  0.1623
 3450SOL    HW213799   8.755   2.040   3.282  0.0351  0.7744  0.1151
 3450SOL     MW13800   8.719   2.058   3.204 -0.3749 -0.0550  0.0928
 3451SOL     OW13801   6.960   3.078   1.768  0.2012 -0.4960  0.3150
 3451SOL    HW113802   6.990   2.990   1.793  1.9186 -0.4417 -1.3587
 3451SOL    HW213803   6.934   3.070   1.677 -3.2079 -0.0380  1.1215
 3451SOL     MW13804   6.961   3.066   1.760 -0.0154 -0.4304  0.2040
 3452SOL     OW13805   9.346   6.778   1.971 -0.1206 -0.0002  0.6013
 3452SOL    HW113806   9.322   6.862   1.931  0.2710 -0.0581  0.2353
 3452SOL    HW213807   9.285   6.768   2.044 -0.6205  0.2801  0.2298
 3452SOL     MW13808   9.335   6.788   1.975 -0.1345  0.0283  0.5069
 3453SOL     OW13809   6.601   8.373   0.498 -0.2870  0.4450  0.3590
 3453SOL    HW113810   6.637   8.316   0.566 -0.6697  0.3489  0.4832
 3453SOL    HW213811   6.530   8.322   0.458 -0.5618  0.7913  0.4001
 3453SOL     MW13812   6.596   8.359   0.501 -0.3712  0.4771  0.3802
 3454SOL     OW13813   6.323   9.128   1.639 -0.2231  0.3083 -0.2483
 3454SOL    HW113814   6.381   9.127   1.716  0.6607 -0.3800 -0.9043
 3454SOL    HW213815   6.285   9.040   1.637  0.2944  0.1005 -0.9988
 3454SOL     MW13816   6.325   9.117   1.649 -0.0437  0.1936 -0.4283
 3455SOL     OW13817   7.348   4.134   2.633  0.0578 -0.1377 -0.0683
 3455SOL    HW113818   7.291   4.209   2.613  0.6529  0.3232 -0.0779
 3455SOL    HW213819   7.290   4.071   2.677 -0.1304  0.9749  1.3591
 3455SOL     MW13820   7.333   4.136   2.636  0.1099  0.0637  0.1132
 3456SOL     OW13821   6.783   5.172   0.987 -0.0642  0.6224  0.1352
 3456SOL    HW113822   6.734   5.251   0.964 -1.2768  0.1620  1.0241
 3456SOL    HW213823   6.738   5.102   0.940  2.0988  0.6156 -2.1224
 3456SOL     MW13824   6.771   5.174   0.978  0.0575  0.5626 -0.0400
 3457SOL     OW13825   9.054   0.041   2.758 -0.2967 -0.1093 -0.4346
 3457SOL    HW113826   8.982   0.051   2.696  0.9978  1.0549 -1.8240
 3457SOL    HW213827   9.030   0.097   2.832 -1.1050 -0.2211 -0.6083
 3457SOL     MW13828   9.042   0.050   2.759 -0.2345  0.0255 -0.6347
 3458SOL     OW13829   8.725   2.273   2.298  0.2894  0.2904  0.1858
 3458SOL    HW113830   8.776   2.280   2.217  1.3219 -0.8160  0.7048
 3458SOL    HW213831   8.771   2.329   2.361  0.7141 -0.4733  0.5718
 3458SOL     MW13832   8.737   2.281   2.296  0.4760  0.0510  0.3017
 3459SOL     OW13833  10.086   9.710   0.582  0.1716  0.1520  0.1910
 3459SOL    HW113834  10.151   9.719   0.652  1.6131  0.6027 -1.1484
 3459SOL    HW213835  10.130   9.658   0.515 -1.3713 -0.7398 -0.1654
 3459SOL     MW13836  10.100   9.705   0.582  0.1586  0.0956 -0.0261
 3460SOL     OW13837   7.440   3.835   2.347  0.3377 -0.6345 -0.6238
 3460SOL    HW113838   7.433   3.930   2.360  0.4577 -0.5555 -1.0999
 3460SOL    HW213839   7.505   3.807   2.411  0.0955 -0.4366 -0.2925
 3460SOL     MW13840   7.448   3.844   2.357  0.3221 -0.5990 -0.6424
 3461SOL     OW13841   6.817   6.108   1.974  0.0949  0.0482 -0.3879
 3461SOL    HW113842   6.867   6.179   1.932  0.3267 -0.8389 -1.6895
 3461SOL    HW213843   6.816   6.131   2.067  0.8617  1.3338 -0.6698
 3461SOL     MW13844   6.824   6.120   1.980  0.2228  0.0992 -0.5906
 3462SOL     OW13845   7.156  10.088   2.279  0.3611  0.2438 -0.6989
 3462SOL    HW113846   7.229  10.104   2.339  1.6415 -0.2199 -2.0517
 3462SOL    HW213847   7.079  10.086   2.335  1.4605  0.0625  0.8931
 3462SOL     MW13848   7.156  10.090   2.294  0.6658  0.1613 -0.6683
 3463SOL     OW13849   9.118   5.473   2.039 -0.0848 -0.1163 -0.0726
 3463SOL    HW113850   9.143   5.394   1.991  1.3372  0.5036 -0.4303
 3463SOL    HW213851   9.162   5.544   1.991 -1.7857  0.9691 -0.1010
 3463SOL     MW13852   9.127   5.472   2.027 -0.1205  0.1020 -0.1221
 3464SOL     OW13853   8.955   0.809   0.465  0.0568  0.5785 -0.0944
 3464SOL    HW113854   8.988   0.873   0.528 -0.0228  1.3750 -0.8449
 3464SOL    HW213855   8.932   0.861   0.388  0.6641 -0.4314 -0.9826
 3464SOL     MW13856   8.956   0.824   0.463  0.1243  0.5512 -0.3042
 3465SOL     OW13857   6.658   7.179   0.337 -0.4171 -0.0132 -0.8832
 3465SOL    HW113858   6.648   7.188   0.242 -0.0372  0.2525 -0.9020
 3465SOL    HW213859   6.660   7.085   0.352  0.2740 -0.0561 -1.2257
 3465SOL     MW13860   6.657   7.168   0.327 -0.2800  0.0153 -0.9295
 3466SOL     OW13861   9.279   7.298   9.016 -0.0507  0.0267  0.6961
 3466SOL    HW113862   9.292   7.204   9.024 -0.0532  0.1377  2.3196
 3466SOL    HW213863   9.341   7.325   8.948  0.4083 -1.0547  0.6720
 3466SOL     MW13864   9.289   7.290   9.009  0.0078 -0.0975  0.9009
 3467SOL     OW13865   6.536   9.138   9.954  0.1975 -0.0007  0.1403
 3467SOL    HW113866   6.517   9.061  10.007 -0.0013  1.3921  2.2058
 3467SOL    HW213867   6.621   9.169   9.987 -0.0207  1.0064 -0.2201
 3467SOL     MW13868   6.545   9.132   9.965  0.1441  0.3065  0.3586
 3468SOL     OW13869   6.756   4.297   1.466 -0.0525  0.0977  0.5402
 3468SOL    HW113870   6.751   4.299   1.370 -0.2501  2.3508  0.5407
 3468SOL    HW213871   6.826   4.234   1.485 -0.6662 -1.1150 -1.0272
 3468SOL     MW13872   6.765   4.289   1.456 -0.1564  0.2309  0.3396
 3469SOL     OW13873   7.121   9.149   8.855  0.2693  0.2018  0.3372
 3469SOL    HW113874   7.070   9.073   8.885 -0.3508  0.5139  0.0914
 3469SOL    HW213875   7.056   9.209   8.819  0.7922  0.7076  0.2139
 3469SOL     MW13876   7.106   9.147   8.854  0.2568  0.3065  0.2899
 3470SOL     OW13877   7.719   1.207   0.458  0.3327  0.5911 -0.0427
 3470SOL    HW113878   7.719   1.177   0.549  0.2731  0.0825 -0.2075
 3470SOL    HW213879   7.635   1.178   0.423  0.3190  0.8581 -0.2417
 3470SOL     MW13880   7.708   1.200   0.465  0.3233  0.5601 -0.0892
 3471SOL     OW13881   8.915   7.334   1.548  0.3743  0.4593  0.1210
 3471SOL    HW113882   8.965   7.260   1.584 -0.1582 -0.5300 -1.0855
 3471SOL    HW213883   8.960   7.412   1.581  1.3250 -0.4015  0.9266
 3471SOL     MW13884   8.928   7.334   1.557  0.4278  0.2225  0.0697
 3472SOL     OW13885   9.298   1.882   9.604  0.6085 -0.0321 -0.3310
 3472SOL    HW113886   9.393   1.896   9.604  0.4000  1.5152 -1.4795
 3472SOL    HW213887   9.274   1.875   9.512 -0.2393 -1.8348 -0.0282
 3472SOL     MW13888   9.307   1.883   9.592  0.4733 -0.0648 -0.4393
 3473SOL     OW13889   9.019   3.915   9.244  0.0926  0.7282 -0.0886
 3473SOL    HW113890   9.093   3.972   9.224  0.5107  0.4720  0.6933
 3473SOL    HW213891   8.942   3.970   9.227  0.3901  0.5460 -2.2827
 3473SOL     MW13892   9.019   3.929   9.239  0.1842  0.6721 -0.2694
 3474SOL     OW13893   7.842   6.410   0.279 -0.0234 -0.5617  0.0263
 3474SOL    HW113894   7.928   6.379   0.249 -1.1742 -1.5612 -2.5283
 3474SOL    HW213895   7.859   6.500   0.308  1.6695 -0.2575 -1.6927
 3474SOL     MW13896   7.855   6.418   0.279  0.0460 -0.6507 -0.5208
 3475SOL     OW13897   7.322   6.874   9.924 -0.0517 -0.6558  0.1198
 3475SOL    HW113898   7.243   6.928   9.923 -0.2968 -1.0143 -0.1450
 3475SOL    HW213899   7.374   6.909   9.997 -0.4035 -0.3461  0.2251
 3475SOL     MW13900   7.319   6.885   9.933 -0.1281 -0.6620  0.0994
 3476SOL     OW13901   9.272   1.297   2.210  0.5309 -0.4763  0.5102
 3476SOL    HW113902   9.254   1.370   2.270 -1.9512  1.0656 -1.8423
 3476SOL    HW213903   9.251   1.332   2.123  3.0902 -2.8405 -1.2458
 3476SOL     MW13904   9.267   1.311   2.206  0.5408 -0.5816 -0.0158
 3477SOL     OW13905   7.709   8.908   8.892 -0.4905 -0.4577  0.1546
 3477SOL    HW113906   7.632   8.923   8.838 -0.0106 -0.7009 -0.6255
 3477SOL    HW213907   7.773   8.870   8.831 -0.0535 -1.0744  0.9768
 3477SOL     MW13908   7.708   8.905   8.877 -0.3731 -0.5678  0.1600
 3478SOL     OW13909   9.106   9.455   9.669  0.2736 -0.5698 -0.5178
 3478SOL    HW113910   9.139   9.441   9.758  0.7144  0.0366 -0.5807
 3478SOL    HW213911   9.048   9.380   9.654 -1.4743  0.3956  1.0482
 3478SOL     MW13912   9.103   9.443   9.679  0.1063 -0.3686 -0.3254
 3479SOL     OW13913   7.927   9.391   9.248 -0.1641 -0.3313 -0.1981
 3479SOL    HW113914   7.836   9.381   9.220  0.2075  0.9400 -2.1073
 3479SOL    HW213915   7.978   9.382   9.167  1.4745 -1.4525  0.8892
 3479SOL     MW13916   7.922   9.388   9.234  0.0933 -0.3121 -0.3033
 3480SOL     OW13917   8.326   0.433   2.867  0.4093 -0.3012  0.2955
 3480SOL    HW113918   8.341   0.339   2.881 -1.7127 -0.5199  1.6403
 3480SOL    HW213919   8.286   0.462   2.949  0.5512  1.6861 -0.3087
 3480SOL     MW13920   8.323   0.424   2.879  0.1558 -0.0748  0.3903
 3481SOL     OW13921   7.804   9.793   9.608 -0.1806  0.1650  0.2685
 3481SOL    HW113922   7.792   9.861   9.542  0.1337 -0.1756 -0.1440
 3481SOL    HW213923   7.800   9.711   9.559 -0.7194 -0.1256  0.7814
 3481SOL     MW13924   7.802   9.791   9.593 -0.2094  0.0842  0.2814
 3482SOL     OW13925   7.599   4.027   1.751 -0.7097 -0.1248 -0.1763
 3482SOL    HW113926   7.504   4.016   1.745 -0.9994  1.5041  0.7763
 3482SOL    HW213927   7.615   4.040   1.845  0.6278 -1.5750 -0.1585
 3482SOL     MW13928   7.589   4.027   1.763 -0.5755 -0.1019 -0.0521
 3483SOL     OW13929   9.712   7.873   2.012 -0.1011  0.2229  0.2467
 3483SOL    HW113930   9.722   7.891   1.918 -0.6732 -0.1103  0.1225
 3483SOL    HW213931   9.626   7.908   2.034 -0.6199 -1.0354  0.3158
 3483SOL     MW13932   9.702   7.880   2.002 -0.2408  0.0192  0.2396
 3484SOL     OW13933   7.591   8.723   1.918  0.1158  0.4792  0.1530
 3484SOL    HW113934   7.647   8.726   1.840 -1.1461 -2.5137 -0.9957
 3484SOL    HW213935   7.605   8.808   1.960  3.9007  0.6772 -1.1381
 3484SOL     MW13936   7.600   8.734   1.913  0.4388  0.1214 -0.1593
 3485SOL     OW13937   0.105   4.903   1.725  0.2601 -0.1017  0.7056
 3485SOL    HW113938   0.105   4.810   1.748  1.7215 -0.6863 -1.3135
 3485SOL    HW213939   0.022   4.916   1.680 -0.7696  0.0643  2.5767
 3485SOL     MW13940   0.094   4.893   1.722  0.3154 -0.1553  0.6866
 3486SOL     OW13941   8.911   8.160   0.689 -0.4440 -0.2731 -0.4829
 3486SOL    HW113942   8.941   8.101   0.620 -0.9869 -1.9833  0.6595
 3486SOL    HW213943   8.912   8.106   0.768 -1.6903  1.0511  0.4883
 3486SOL     MW13944   8.915   8.145   0.690 -0.6730 -0.3225 -0.2124
 3487SOL     OW13945   7.463   3.543   1.800 -0.1003 -0.1813  0.1766
 3487SOL    HW113946   7.379   3.589   1.808  0.0998  0.1823  0.1952
 3487SOL    HW213947   7.524   3.609   1.767 -0.0582 -0.7115 -0.8598
 3487SOL     MW13948   7.460   3.557   1.797 -0.0693 -0.2026  0.0463
 3488SOL     OW13949   6.880   0.363   0.492 -0.9156 -0.0810  0.0114
 3488SOL    HW113950   6.859   0.274   0.461  0.5891 -0.3319 -0.3445
 3488SOL    HW213951   6.794   0.403   0.507 -1.6371 -1.3513 -0.5120
 3488SOL     MW13952   6.866   0.356   0.490 -0.8154 -0.2758 -0.1012
 3489SOL     OW13953   6.895   8.245   9.751 -0.2720  0.2194 -0.0711
 3489SOL    HW113954   6.911   8.167   9.804 -0.8478 -0.2746 -0.6113
 3489SOL    HW213955   6.961   8.242   9.683  0.9712  1.2729  1.0469
 3489SOL     MW13956   6.905   8.235   9.749 -0.1866  0.2910  0.0028
 3490SOL     OW13957   7.064   0.984   1.519  0.8827 -0.0444  0.2645
 3490SOL    HW113958   7.033   0.914   1.576  0.1018  0.4947  0.5200
 3490SOL    HW213959   7.084   0.941   1.436 -0.2763 -0.4661  0.1873
 3490SOL     MW13960   7.063   0.970   1.516  0.6344 -0.0294  0.2873
 3491SOL     OW13961   6.759   8.629   2.088  0.0097  0.2758  0.1620
 3491SOL    HW113962   6.821   8.674   2.145  0.2020 -1.1224  1.0912
 3491SOL    HW213963   6.752   8.686   2.011  1.0385  1.3546  0.8358
 3491SOL     MW13964   6.766   8.642   2.085  0.1660  0.2349  0.3672
 3492SOL     OW13965   6.735  10.043   2.065  0.6316  0.3245 -0.1479
 3492SOL    HW113966   6.726   9.950   2.086  1.1856  0.3496  0.2206
 3492SOL    HW213967   6.651  10.067   2.027 -0.1740  0.1060  1.4100
 3492SOL     MW13968   6.723  10.034   2.063  0.5994  0.2998  0.0987
 3493SOL     OW13969   9.483   9.006   1.664  0.2044  0.4517  0.8019
 3493SOL    HW113970   9.438   9.067   1.606  1.7402  2.0732  1.2198
 3493SOL    HW213971   9.555   8.972   1.611  0.6776  0.7276  1.2640
 3493SOL     MW13972   9.486   9.009   1.649  0.4616  0.6946  0.9146
 3494SOL     OW13973   0.191   1.678   0.759 -0.1127 -0.1552 -0.1268
 3494SOL    HW113974   0.099   1.697   0.778 -0.4650 -1.8265 -0.0287
 3494SOL    HW213975   0.190   1.633   0.675  0.8530  1.6470 -1.1765
 3494SOL     MW13976   0.179   1.674   0.751 -0.0342 -0.1384 -0.2486
 3495SOL     OW13977   7.416   2.724   9.987  0.5899  0.5736 -0.3704
 3495SOL    HW113978   7.477   2.669   9.937 -0.8613  0.5687 -2.2727
 3495SOL    HW213979   7.334   2.718   9.938 -1.3136 -0.2740  2.6494
 3495SOL     MW13980   7.413   2.716   9.974  0.1604  0.4645 -0.2273
 3496SOL     OW13981   8.153   3.386   9.346 -0.0020  0.3233  0.4738
 3496SOL    HW113982   8.228   3.426   9.301 -0.5338 -0.2022 -0.9139
 3496SOL    HW213983   8.193   3.331   9.413  0.9090 -0.5361 -0.7272
 3496SOL     MW13984   8.168   3.384   9.349  0.0465  0.1460  0.1424
 3497SOL     OW13985   7.295   0.563   1.260  0.7265 -0.3372 -0.1298
 3497SOL    HW113986   7.318   0.646   1.303 -0.3584 -0.6090  1.0154
 3497SOL    HW213987   7.373   0.541   1.208  1.6695  0.5543  0.8586
 3497SOL     MW13988   7.308   0.571   1.259  0.7083 -0.2579  0.1433
 3498SOL     OW13989   6.912   6.897   0.348  0.0584  0.8765  0.0918
 3498SOL    HW113990   6.963   6.956   0.292  0.9702 -0.6363 -0.7435
 3498SOL    HW213991   6.974   6.868   0.414  0.5058 -1.3740 -1.2240
 3498SOL     MW13992   6.926   6.901   0.349  0.2324  0.3948 -0.1836
 3499SOL     OW13993  10.140   3.548   9.965 -0.1455 -0.3616 -0.5486
 3499SOL    HW113994  10.125   3.457   9.992  1.1695 -0.9699 -1.7815
 3499SOL    HW213995  10.106   3.553   9.876  0.1356  0.2519 -0.6272
 3499SOL     MW13996  10.134   3.537   9.957  0.0588 -0.3609 -0.7165
 3500SOL     OW13997   8.032   4.245   0.681 -0.2538  0.4267 -0.1794
 3500SOL    HW113998   8.083   4.282   0.754  1.2702 -2.0927  0.1544
 3500SOL    HW213999   7.942   4.273   0.699  0.4180  1.7613  1.4188
 3500SOL     MW14000   8.027   4.253   0.693  0.0273  0.2750  0.0679
 3501SOL     OW14001   8.213   3.660   0.589  0.3966 -0.1536  0.4380
 3501SOL    HW114002   8.277   3.629   0.525  0.7784 -2.4484  1.8285
 3501SOL    HW214003   8.264   3.677   0.668 -0.3637  0.5464  0.7993
 3501SOL     MW14004   8.228   3.658   0.591  0.3481 -0.3577  0.6623
 3502SOL     OW14005   0.146   1.977   0.651  0.4850  0.3996  0.2492
 3502SOL    HW114006   0.110   2.017   0.573 -1.1221 -2.5496 -0.6892
 3502SOL    HW214007   0.225   1.931   0.621  0.2591 -0.1545  0.4779
 3502SOL     MW14008   0.151   1.976   0.637  0.2504 -0.0489  0.1583
 3503SOL     OW14009   8.198   1.833   2.792 -0.0934  0.1676  0.1438
 3503SOL    HW114010   8.273   1.843   2.851 -0.1340  0.5617  0.1298
 3503SOL    HW214011   8.215   1.751   2.746  0.1483  0.0698  0.4014
 3503SOL     MW14012   8.210   1.824   2.794 -0.0677  0.2055  0.1750
 3504SOL     OW14013   9.050   8.061   9.364 -0.4008 -0.0563 -0.2877
 3504SOL    HW114014   8.995   8.111   9.303  0.2324 -0.0076 -0.8186
 3504SOL    HW214015   9.039   7.970   9.337 -1.8430 -0.2728  0.9080
 3504SOL     MW14016   9.041   8.056   9.353 -0.5044 -0.0777 -0.2026
 3505SOL     OW14017   9.486   1.259   0.889 -0.7196 -0.3097  0.5808
 3505SOL    HW114018   9.403   1.295   0.857 -0.7245 -2.0883 -1.6703
 3505SOL    HW214019   9.464   1.169   0.914  0.0232  0.0241  2.6373
 3505SOL     MW14020   9.472   1.252   0.888 -0.6252 -0.4947  0.5559
 3506SOL     OW14021   6.346   6.743  10.157 -0.2765  0.1619 -0.6102
 3506SOL    HW114022   6.283   6.784  10.097 -0.7391  0.1820 -0.1188
 3506SOL    HW214023   6.385   6.816  10.204  0.6586  0.2019 -1.4330
 3506SOL     MW14024   6.343   6.757  10.155 -0.2160  0.1696 -0.6526
 3507SOL     OW14025   9.684   4.557   1.059 -0.0790  0.0547 -0.2758
 3507SOL    HW114026   9.618   4.604   1.008 -0.6342  0.4627  0.7787
 3507SOL    HW214027   9.640   4.475   1.083 -0.4674  0.5908  0.9522
 3507SOL     MW14028   9.670   4.552   1.056 -0.1998  0.1755  0.0164
 3508SOL     OW14029   8.250   7.163   1.269 -0.3702 -0.2982 -0.7118
 3508SOL    HW114030   8.256   7.218   1.347  0.2460  1.6120 -2.0388
 3508SOL    HW214031   8.260   7.074   1.302 -0.3625  0.4264  1.4040
 3508SOL     MW14032   8.252   7.159   1.283 -0.2903  0.0391 -0.6108
 3509SOL     OW14033   7.646   7.737   0.445  0.0469 -0.3459 -0.2175
 3509SOL    HW114034   7.689   7.652   0.452 -0.6957 -0.6723  0.5645
 3509SOL    HW214035   7.677   7.786   0.521 -0.1475 -0.2083 -0.2263
 3509SOL     MW14036   7.655   7.732   0.455 -0.0730 -0.3701 -0.1185
 3510SOL     OW14037   6.534   1.557   2.172  0.2563  0.1771 -0.4001
 3510SOL    HW114038   6.484   1.555   2.090  1.0259 -1.5626 -0.8723
 3510SOL    HW214039   6.600   1.626   2.159  1.6563 -1.3998 -2.0792
 3510SOL     MW14040   6.536   1.566   2.160  0.5340 -0.2474 -0.6755
 3511SOL     OW14041   8.728   5.153   0.858  0.1639 -0.0394 -0.4990
 3511SOL    HW114042   8.686   5.169   0.773 -0.6700 -1.6733 -0.4340
 3511SOL    HW214043   8.659   5.115   0.912  0.6809  0.9709  0.9456
 3511SOL     MW14044   8.714   5.150   0.854  0.1234 -0.1192 -0.3057
 3512SOL     OW14045   0.093   8.784   1.177 -0.5098  0.3212  0.4277
 3512SOL    HW114046   0.130   8.837   1.107  0.3991 -0.8250  0.0107
 3512SOL    HW214047  -0.000   8.807   1.178 -0.6275  0.0237 -1.4717
 3512SOL     MW14048   0.086   8.794   1.168 -0.4085  0.1364  0.1312
 3513SOL     OW14049   8.616   8.630   3.245 -0.2413 -0.2615 -0.1623
 3513SOL    HW114050   8.676   8.639   3.319  0.1667 -1.5112 -0.3130
 3513SOL    HW214051   8.574   8.716   3.238 -0.0249 -0.0040  1.2789
 3513SOL     MW14052   8.618   8.642   3.253 -0.1613 -0.3885  0.0029
 3514SOL     OW14053   6.745   1.791   2.252  0.2164  0.2895  0.1328
 3514SOL    HW114054   6.800   1.864   2.280  1.2608 -0.4843  0.1729
 3514SOL    HW214055   6.756   1.788   2.157  0.3790  0.0334  0.1588
 3514SOL     MW14056   6.754   1.800   2.244  0.3709  0.1577  0.1413
 3515SOL     OW14057   7.777   6.308   9.641 -0.0539  0.2190  0.1331
 3515SOL    HW114058   7.797   6.311   9.734  0.0812 -1.0286  0.1587
 3515SOL    HW214059   7.708   6.242   9.633 -1.4146  1.6465 -0.4379
 3515SOL     MW14060   7.771   6.300   9.652 -0.2108  0.2420  0.0633
 3516SOL     OW14061   9.607   8.715   9.950 -0.5218 -0.2535 -0.8478
 3516SOL    HW114062   9.598   8.623   9.924  0.8942 -0.6201 -0.1636
 3516SOL    HW214063   9.652   8.711  10.035  0.4559  1.1020 -1.2752
 3516SOL     MW14064   9.611   8.702   9.958 -0.2154 -0.1269 -0.8150
 3517SOL     OW14065   7.636   2.791   2.732 -0.1394  0.5251 -0.1476
 3517SOL    HW114066   7.731   2.795   2.729 -0.0806 -0.7649 -1.0350
 3517SOL    HW214067   7.616   2.697   2.733 -1.3935  0.7738  0.3717
 3517SOL     MW14068   7.646   2.779   2.731 -0.2924  0.3918 -0.1947
 3518SOL     OW14069   0.154   7.160  10.013  0.0404 -0.4558 -0.7952
 3518SOL    HW114070   0.112   7.203   9.938  0.5547  0.6579 -0.4612
 3518SOL    HW214071   0.246   7.151   9.987  0.3085  0.3066 -0.1615
 3518SOL     MW14072   0.160   7.164  10.000  0.1406 -0.2156 -0.6713
 3519SOL     OW14073   6.137   9.783   0.622  0.6418  0.5576 -0.0542
 3519SOL    HW114074   6.219   9.753   0.584 -1.2067 -3.3425 -1.4588
 3519SOL    HW214075   6.094   9.832   0.551  0.3098 -0.3854 -0.5115
 3519SOL     MW14076   6.142   9.786   0.608  0.3627 -0.0624 -0.2926
 3520SOL     OW14077   6.075   7.197   0.167 -0.3130  0.1337  0.3207
 3520SOL    HW114078   6.097   7.108   0.138 -1.3895  0.1196 -0.5115
 3520SOL    HW214079   5.997   7.185   0.222  1.2681  0.2460  2.7530
 3520SOL     MW14080   6.068   7.184   0.170 -0.2484  0.1463  0.5255
 3521SOL     OW14081   7.231   4.315   9.330  0.8631 -0.3313  0.0892
 3521SOL    HW114082   7.278   4.257   9.270  1.4535 -0.3764  0.5780
 3521SOL    HW214083   7.143   4.279   9.336  0.0587  0.9836 -2.5310
 3521SOL     MW14084   7.226   4.303   9.323  0.8357 -0.1687 -0.1837
 3522SOL     OW14085   8.226   8.716   8.788  0.0101 -0.0114  0.3355
 3522SOL    HW114086   8.308   8.691   8.831  0.9816  0.1409 -1.3591
 3522SOL    HW214087   8.163   8.724   8.860  0.9748 -2.0676  1.4957
 3522SOL     MW14088   8.228   8.714   8.803  0.2580 -0.2551  0.2671
 3523SOL     OW14089   9.861   9.744   0.420  0.6485 -0.2729 -0.7227
 3523SOL    HW114090   9.845   9.671   0.360  1.0546 -1.1226  0.1780
 3523SOL    HW214091   9.953   9.736   0.443  0.5241  0.1182 -0.0845
 3523SOL     MW14092   9.870   9.734   0.415  0.6845 -0.3316 -0.5257
 3524SOL     OW14093  10.053   0.132   0.813  0.4144 -0.5891  0.7326
 3524SOL    HW114094  10.084   0.042   0.810  0.6858 -0.5598  1.9362
 3524SOL    HW214095  10.012   0.140   0.899  1.3773  0.7315  1.0974
 3524SOL     MW14096  10.052   0.122   0.824  0.5724 -0.4163  0.9334
 3525SOL     OW14097   7.111   2.071   9.427  0.0723  0.3862  0.1767
 3525SOL    HW114098   7.121   2.139   9.494  1.2720 -1.3138  1.8158
 3525SOL    HW214099   7.192   2.076   9.375  0.5202 -0.2641  0.7926
 3525SOL     MW14100   7.123   2.081   9.429  0.2832  0.0853  0.4654
 3526SOL     OW14101   6.915   1.565   2.300  0.3413  0.1796 -0.4580
 3526SOL    HW114102   6.865   1.647   2.302  0.3987  0.3281 -2.8986
 3526SOL    HW214103   6.998   1.588   2.259  0.5315 -1.0189 -0.7676
 3526SOL     MW14104   6.919   1.579   2.295  0.3730  0.0452 -0.8101
 3527SOL     OW14105   8.765   3.868   2.338  0.1122 -0.1328  0.1150
 3527SOL    HW114106   8.734   3.843   2.425  1.1065 -0.7269  0.3144
 3527SOL    HW214107   8.800   3.787   2.301  0.2680  0.2500 -0.5968
 3527SOL     MW14108   8.765   3.855   2.345  0.2595 -0.1598  0.0494
 3528SOL     OW14109   7.231   0.246   0.757  0.0782 -0.2574  0.2481
 3528SOL    HW114110   7.316   0.287   0.739 -0.5483  1.0169  0.1421
 3528SOL    HW214111   7.170   0.319   0.764 -1.0495 -1.1785  0.1710
 3528SOL     MW14112   7.234   0.261   0.756 -0.1463 -0.2122  0.2247
 3529SOL     OW14113   6.546   0.026   1.730  0.2007  0.0688  0.4245
 3529SOL    HW114114   6.522   0.114   1.701  0.0790 -0.2393 -0.4383
 3529SOL    HW214115   6.506   0.018   1.816  1.9359  1.5960  1.4386
 3529SOL     MW14116   6.538   0.036   1.737  0.4073  0.2249  0.4439
 3530SOL     OW14117   7.449   4.240  10.138 -0.6856 -0.1069  0.5234
 3530SOL    HW114118   7.469   4.334  10.140 -0.5276 -0.0862 -0.9816
 3530SOL    HW214119   7.359   4.234  10.170 -0.5630  0.5063  1.0084
 3530SOL     MW14120   7.440   4.251  10.143 -0.6497 -0.0257  0.3928
 3531SOL     OW14121   7.808   8.792   2.984 -0.8401  0.4902 -0.5400
 3531SOL    HW114122   7.752   8.805   3.061  1.7702  0.7737  1.4619
 3531SOL    HW214123   7.807   8.876   2.938 -1.9220  0.5270 -0.4614
 3531SOL     MW14124   7.801   8.804   2.988 -0.6444  0.5312 -0.2736
 3532SOL     OW14125   7.759   9.840   2.387 -0.1029  0.7778 -0.3943
 3532SOL    HW114126   7.692   9.898   2.351  0.0000  2.0710  1.3917
 3532SOL    HW214127   7.715   9.755   2.394  0.3194 -0.0291 -4.8785
 3532SOL     MW14128   7.745   9.836   2.383 -0.0356  0.8401 -0.7397
 3533SOL     OW14129   7.982   4.937   1.918  0.1746  0.7230  0.2823
 3533SOL    HW114130   7.958   4.847   1.941 -1.4410  1.4421  1.6662
 3533SOL    HW214131   8.063   4.953   1.968  0.6053 -0.0193 -0.1583
 3533SOL     MW14132   7.990   4.927   1.928  0.0229  0.7201  0.4030
 3534SOL     OW14133   6.424   0.408  10.068  0.8930 -0.1188 -0.4137
 3534SOL    HW114134   6.465   0.340  10.015  2.0540 -0.5726  0.9840
 3534SOL    HW214135   6.478   0.411  10.147 -0.5460  0.8016  0.5625
 3534SOL     MW14136   6.436   0.400  10.071  0.8575 -0.0590 -0.1099
 3535SOL     OW14137   6.919   1.181   0.040 -0.0879 -0.3589 -0.4031
 3535SOL    HW114138   6.926   1.275   0.057  2.0343 -0.5972  0.4169
 3535SOL    HW214139   6.991   1.162  -0.021 -1.5684 -1.1900 -1.9598
 3535SOL     MW14140   6.929   1.190   0.034 -0.0057 -0.4958 -0.4974
 3536SOL     OW14141   9.272   9.563   0.858 -0.2965  0.4080  0.4746
 3536SOL    HW114142   9.313   9.633   0.910  3.4606 -1.8109  0.8873
 3536SOL    HW214143   9.315   9.568   0.773 -1.8301  0.0916 -0.3561
 3536SOL     MW14144   9.283   9.573   0.854 -0.0119  0.0835  0.4211
 3537SOL     OW14145   6.727   0.742   1.453  0.0019 -0.1148 -0.2174
 3537SOL    HW114146   6.785   0.786   1.391  1.1724 -0.2991  0.7188
 3537SOL    HW214147   6.703   0.811   1.515 -0.7953 -0.0410 -0.5995
 3537SOL     MW14148   6.731   0.757   1.453  0.0497 -0.1289 -0.1465
 3538SOL     OW14149   8.392   8.501   3.096 -0.2936 -0.0468 -0.3254
 3538SOL    HW114150   8.380   8.586   3.052 -0.5312  0.4028  0.5916
 3538SOL    HW214151   8.464   8.516   3.158 -1.3987 -0.0482  0.9933
 3538SOL     MW14152   8.400   8.514   3.098 -0.4655  0.0106 -0.0392
 3539SOL     OW14153   6.980   0.476   0.124  0.0545 -0.1637 -0.0226
 3539SOL    HW114154   7.042   0.503   0.191 -1.2440 -0.1513  1.2231
 3539SOL    HW214155   6.938   0.557   0.095 -1.8937 -0.4376  1.7566
 3539SOL     MW14156   6.983   0.490   0.129 -0.3611 -0.1972  0.3646
 3540SOL     OW14157  10.054   1.467   0.615 -0.0598  0.3518  0.2874
 3540SOL    HW114158  10.055   1.382   0.571  0.3578  0.6858 -0.3578
 3540SOL    HW214159  10.037   1.446   0.707 -0.5126 -0.3838  0.0418
 3540SOL     MW14160  10.052   1.453   0.621 -0.0643  0.3004  0.1734
 3541SOL     OW14161   7.405   9.635   3.032  0.1311 -0.4767 -0.7431
 3541SOL    HW114162   7.403   9.595   2.945  0.8650  0.5130 -1.2312
 3541SOL    HW214163   7.316   9.668   3.046 -0.0421 -0.8302 -1.0277
 3541SOL     MW14164   7.393   9.634   3.023  0.2029 -0.3953 -0.8420
 3542SOL     OW14165   8.244   4.933   2.018 -0.0725 -0.5215 -0.0270
 3542SOL    HW114166   8.298   5.012   2.016 -1.2984  0.3400  0.1382
 3542SOL    HW214167   8.299   4.868   2.063  0.6164  0.4897  0.6453
 3542SOL     MW14168   8.258   4.934   2.024 -0.1413 -0.2818  0.0802
 3543SOL     OW14169   9.915   4.665   0.938  0.1979 -1.0741  0.7153
 3543SOL    HW114170   9.851   4.606   0.977 -2.1860  0.7628 -0.1213
 3543SOL    HW214171   9.877   4.688   0.853  1.3196  1.1008  0.7345
 3543SOL     MW14172   9.902   4.661   0.932  0.0363 -0.5605  0.6107
 3544SOL     OW14173   9.385   0.044   1.894  0.1663 -0.8223 -0.0636
 3544SOL    HW114174   9.382  -0.046   1.862  0.9590 -0.4836 -1.1528
 3544SOL    HW214175   9.400   0.035   1.988  0.8636 -1.8283 -0.2554
 3544SOL     MW14176   9.387   0.032   1.902  0.3570 -0.9077 -0.2276
 3545SOL     OW14177   6.354   7.077   1.338 -0.3969 -0.3265 -0.0606
 3545SOL    HW114178   6.358   7.029   1.421 -0.6456 -0.3578 -0.0658
 3545SOL    HW214179   6.286   7.032   1.288 -1.6057  0.8643  0.4611
 3545SOL     MW14180   6.346   7.065   1.342 -0.5835 -0.1781  0.0055
 3546SOL     OW14181   8.813   5.525   2.408 -0.2997 -0.4734 -0.4848
 3546SOL    HW114182   8.898   5.540   2.368 -0.1849 -1.0206 -0.4443
 3546SOL    HW214183   8.751   5.572   2.351 -0.0436 -0.5594 -0.8327
 3546SOL     MW14184   8.816   5.533   2.396 -0.2522 -0.5544 -0.5242
 3547SOL     OW14185   8.647   8.090   9.307 -0.2254 -0.1977 -0.1340
 3547SOL    HW114186   8.630   8.137   9.389  0.8980  0.6403 -0.3629
 3547SOL    HW214187   8.670   8.002   9.334  1.3903  0.3948  0.5695
 3547SOL     MW14188   8.647   8.085   9.321  0.1252 -0.0146 -0.0732
 3548SOL     OW14189   7.904   7.093   1.586  0.0861  0.0441 -0.3318
 3548SOL    HW114190   7.839   7.105   1.655 -1.9218 -0.8218 -1.9534
 3548SOL    HW214191   7.934   7.003   1.598 -0.0384 -0.0065 -0.3939
 3548SOL     MW14192   7.899   7.083   1.597 -0.1869 -0.0732 -0.5473
 3549SOL     OW14193   9.235   4.017  10.037  0.0949 -0.7332 -0.3663
 3549SOL    HW114194   9.279   3.993  10.119 -0.2559 -0.2921 -0.0420
 3549SOL    HW214195   9.301   4.069   9.990 -0.4591  0.9871  0.6647
 3549SOL     MW14196   9.249   4.021  10.041 -0.0209 -0.4565 -0.1928
 3550SOL     OW14197   0.257   3.888   0.494  0.0139  0.0398  0.2937
 3550SOL    HW114198   0.190   3.951   0.521  0.2827 -0.0121  1.0868
 3550SOL    HW214199   0.228   3.860   0.407 -0.8739  0.1895  0.5253
 3550SOL     MW14200   0.244   3.893   0.486 -0.0654  0.0523  0.4248
 3551SOL     OW14201   8.450   7.498   9.716  0.0504 -0.2325 -0.6516
 3551SOL    HW114202   8.469   7.427   9.777  0.3883  1.1890  0.9631
 3551SOL    HW214203   8.360   7.482   9.688 -0.7107 -0.0559  1.5129
 3551SOL     MW14204   8.441   7.487   9.720 -0.0038 -0.0279 -0.1678
 3552SOL     OW14205   9.779   8.699  10.146 -0.2819 -0.2683  0.0366
 3552SOL    HW114206   9.843   8.768  10.127 -0.5764  1.1537  3.4624
 3552SOL    HW214207   9.831   8.626  10.178 -0.2447  0.6580  2.2167
 3552SOL     MW14208   9.794   8.699  10.147 -0.3148  0.0323  0.7542
 3553SOL     OW14209   8.257   0.907   1.796  0.3675 -0.2274  0.4047
 3553SOL    HW114210   8.179   0.912   1.741 -0.6435  0.5730  1.8539
 3553SOL    HW214211   8.245   0.975   1.862  1.6215 -1.0228  1.5163
 3553SOL     MW14212   8.245   0.916   1.797  0.3986 -0.2267  0.7325
 3554SOL     OW14213   7.187   1.024   9.248 -0.4772  0.3693 -0.0921
 3554SOL    HW114214   7.227   1.105   9.220  0.3770  0.1210  0.3844
 3554SOL    HW214215   7.200   1.021   9.343 -0.9469 -0.0816 -0.0307
 3554SOL     MW14216   7.194   1.034   9.257 -0.4280  0.2798 -0.0232
 3555SOL     OW14217   6.419   1.175   9.739  0.2376 -0.2759  1.3441
 3555SOL    HW114218   6.502   1.172   9.692 -1.2655 -1.3641 -1.4710
 3555SOL    HW214219   6.376   1.255   9.707 -0.0579  0.0023  2.3807
 3555SOL     MW14220   6.424   1.185   9.729  0.0074 -0.3796  1.1165
 3556SOL     OW14221   8.921   9.924   8.789 -0.0357  0.4895  0.5418
 3556SOL    HW114222   8.938   9.830   8.784  2.2643  0.9275 -1.2221
 3556SOL    HW214223   8.841   9.937   8.738 -1.3944 -0.6603  2.2601
 3556SOL     MW14224   8.913   9.914   8.782  0.0848  0.3984  0.5360
 3557SOL     OW14225   9.100   7.638   1.793  0.0867 -0.3834 -0.4262
 3557SOL    HW114226   9.101   7.733   1.800 -1.8325 -0.4357  2.0099
 3557SOL    HW214227   9.078   7.620   1.702 -0.8110  1.5332 -0.6161
 3557SOL     MW14228   9.098   7.648   1.783 -0.2739 -0.1448 -0.1387
 3558SOL     OW14229   7.809   0.212  10.074  0.1868  0.3367 -0.1570
 3558SOL    HW114230   7.724   0.204  10.030 -0.1397  0.1253  0.4982
 3558SOL    HW214231   7.788   0.242  10.162  0.9015  1.6067 -0.3991
 3558SOL     MW14232   7.796   0.215  10.080  0.2365  0.4722 -0.1041
 3559SOL     OW14233   7.707   9.537   2.480 -0.2405  0.0085  0.3868
 3559SOL    HW114234   7.795   9.559   2.511 -0.3059  0.2346  0.4090
 3559SOL    HW214235   7.715   9.536   2.384 -0.2945  0.3657  0.3775
 3559SOL     MW14236   7.720   9.539   2.472 -0.2558  0.0832  0.3884
 3560SOL     OW14237  10.083   0.380   1.803 -0.0955 -0.8315  0.3768
 3560SOL    HW114238   9.992   0.371   1.831 -0.1631 -1.7248 -0.0932
 3560SOL    HW214239  10.079   0.380   1.708  0.3321 -0.0649  0.3474
 3560SOL     MW14240  10.071   0.379   1.795 -0.0494 -0.8477  0.3128
 3561SOL     OW14241   8.521   2.000   1.713  0.1610  0.1403  0.2707
 3561SOL    HW114242   8.557   1.911   1.719  1.3541  0.6981  2.6233
 3561SOL    HW214243   8.542   2.029   1.625 -0.7887 -2.0876 -0.7694
 3561SOL     MW14244   8.528   1.992   1.703  0.1921 -0.0735  0.4387
 3562SOL     OW14245   7.046   6.868   1.794 -0.4216 -0.1423 -0.1281
 3562SOL    HW114246   7.121   6.914   1.757  0.0916 -0.3844  0.5909
 3562SOL    HW214247   7.007   6.932   1.854  0.7453 -0.8598  1.4607
 3562SOL     MW14248   7.051   6.882   1.797 -0.2065 -0.2652  0.1674
 3563SOL     OW14249   6.840   6.611  10.144 -0.1597 -0.0119  0.3053
 3563SOL    HW114250   6.832   6.657  10.228 -0.6935 -0.0148  0.2565
 3563SOL    HW214251   6.754   6.618  10.104  0.0750 -0.0758 -0.2154
 3563SOL     MW14252   6.828   6.618  10.150 -0.1980 -0.0204  0.2324
 3564SOL     OW14253   6.278   5.604   0.112 -0.0292 -0.1592 -0.2469
 3564SOL    HW114254   6.207   5.665   0.130  0.0935 -0.3000  0.8168
 3564SOL    HW214255   6.353   5.660   0.093  0.5820  0.1597  2.6049
 3564SOL     MW14256   6.279   5.619   0.112  0.0647 -0.1364  0.2543
 3565SOL     OW14257   8.152   6.577   1.780 -0.2496  0.5447 -0.0227
 3565SOL    HW114258   8.088   6.648   1.791 -0.2136  0.6119 -0.2475
 3565SOL    HW214259   8.219   6.596   1.846  0.0674  1.0664 -0.4866
 3565SOL     MW14260   8.153   6.589   1.790 -0.2044  0.6201 -0.1108
 3566SOL     OW14261  10.030   5.813   1.641  0.5107 -0.0071  0.0570
 3566SOL    HW114262   9.992   5.831   1.555  0.3062  0.0091  0.1514
 3566SOL    HW214263  10.007   5.889   1.694 -0.2893 -0.4953  0.4335
 3566SOL     MW14264  10.022   5.825   1.637  0.3821 -0.0675  0.1173
 3567SOL     OW14265   7.334   0.317   2.719 -0.0080  0.0277 -0.0014
 3567SOL    HW114266   7.353   0.223   2.720  0.0604  0.0084 -1.5185
 3567SOL    HW214267   7.242   0.323   2.695 -0.1187  0.3439  0.4857
 3567SOL     MW14268   7.325   0.306   2.716 -0.0134  0.0657 -0.1332
 3568SOL     OW14269   9.357   7.666   1.161  0.3041 -0.5824 -0.2497
 3568SOL    HW114270   9.311   7.602   1.216 -0.4980  0.1545 -0.0379
 3568SOL    HW214271   9.400   7.725   1.224  0.4682 -0.5061 -0.4318
 3568SOL     MW14272   9.356   7.666   1.176  0.2224 -0.4783 -0.2459
 3569SOL     OW14273   0.094   9.782   1.555  0.5617 -0.1197 -0.1216
 3569SOL    HW114274   0.165   9.747   1.501 -0.6664  0.3084 -2.1270
 3569SOL    HW214275   0.031   9.711   1.560  0.2735  0.1472  0.0256
 3569SOL     MW14276   0.095   9.769   1.549  0.3676 -0.0307 -0.3595
 3570SOL     OW14277   8.076   7.088   0.294  0.3741  0.3169  0.1043
 3570SOL    HW114278   8.126   7.007   0.293 -1.0295 -0.6312  1.3208
 3570SOL    HW214279   8.103   7.135   0.215  1.2953 -1.2875 -0.5724
 3570SOL     MW14280   8.086   7.083   0.284  0.3123 -0.0098  0.1734
 3571SOL     OW14281   8.824   0.698   0.169 -0.2872 -0.1683 -0.2856
 3571SOL    HW114282   8.807   0.726   0.079 -0.4666  0.1831 -0.1464
 3571SOL    HW214283   8.755   0.740   0.221  0.7972  1.0476  0.2472
 3571SOL     MW14284   8.813   0.707   0.164 -0.1714  0.0323 -0.1996
 3572SOL     OW14285  10.093   6.878   2.655  0.1920  0.1565  0.3635
 3572SOL    HW114286  10.006   6.852   2.685  0.6633 -0.2170  1.4647
 3572SOL    HW214287  10.149   6.868   2.732  0.6412  3.4048  0.5673
 3572SOL     MW14288  10.089   6.873   2.669  0.3099  0.5246  0.5306
 3573SOL     OW14289   7.958   0.611   1.586  0.5828 -0.2113 -0.6282
 3573SOL    HW114290   8.052   0.594   1.579  0.6966 -0.4983  1.2561
 3573SOL    HW214291   7.918   0.524   1.584  0.4484 -0.1578 -0.2613
 3573SOL     MW14292   7.965   0.597   1.585  0.5802 -0.2412 -0.3400
 3574SOL     OW14293   7.293   9.540   2.532 -0.4471  0.5126 -0.0191
 3574SOL    HW114294   7.305   9.634   2.518 -1.3685  0.4319 -1.4680
 3574SOL    HW214295   7.328   9.499   2.453 -2.9087 -0.1629 -0.8312
 3574SOL     MW14296   7.299   9.546   2.520 -0.8802  0.4158 -0.3085
 3575SOL     OW14297   8.374   6.233   2.512 -0.4233 -0.0611 -0.3881
 3575SOL    HW114298   8.460   6.266   2.535 -0.7005  1.1408 -0.9863
 3575SOL    HW214299   8.330   6.217   2.596  0.1382 -0.0323 -0.0884
 3575SOL     MW14300   8.379   6.235   2.525 -0.3869  0.0964 -0.4263
 3576SOL     OW14301   7.011   8.871   1.319  0.5062  0.0250 -0.0299
 3576SOL    HW114302   6.923   8.907   1.323  0.5398  0.3610 -1.7643
 3576SOL    HW214303   7.032   8.849   1.410 -1.4715 -0.3508  0.3764
 3576SOL     MW14304   7.002   8.873   1.331  0.2574  0.0199 -0.1999
 3577SOL     OW14305   8.481   5.383   1.808 -0.4407 -0.3359 -0.7312
 3577SOL    HW114306   8.500   5.470   1.772  2.9762  0.1400  1.7489
 3577SOL    HW214307   8.523   5.322   1.747  1.3172  0.1413 -0.0529
 3577SOL     MW14308   8.489   5.387   1.795  0.2217 -0.2139 -0.3269
 3578SOL     OW14309   6.725   6.820   0.684 -0.1328  0.0841  0.7764
 3578SOL    HW114310   6.779   6.898   0.673  0.6154 -0.5587 -0.2826
 3578SOL    HW214311   6.687   6.829   0.771  1.2770  0.8120  1.3496
 3578SOL     MW14312   6.727   6.831   0.694  0.1434  0.0950  0.7142
 3579SOL     OW14313   8.363   3.789   9.158 -0.4296  0.6175  0.2693
 3579SOL    HW114314   8.314   3.811   9.238  0.5292 -1.6066  1.5817
 3579SOL    HW214315   8.454   3.787   9.187  0.4148  3.3649 -1.8165
 3579SOL     MW14316   8.368   3.792   9.172 -0.1988  0.6845  0.1703
 3580SOL     OW14317   8.835   9.329   0.796 -0.3871  0.2528 -0.2344
 3580SOL    HW114318   8.896   9.398   0.822  0.3076 -0.8371  1.1425
 3580SOL    HW214319   8.776   9.372   0.734  1.1058  1.6164 -0.7866
 3580SOL     MW14320   8.835   9.344   0.791 -0.1071  0.2878 -0.1288
 3581SOL     OW14321   8.046   0.237   9.907  0.0068 -0.2096 -0.2908
 3581SOL    HW114322   8.101   0.312   9.932 -0.4644 -0.3004  1.1273
 3581SOL    HW214323   8.003   0.211   9.989  2.2680 -3.8213 -0.0199
 3581SOL     MW14324   8.047   0.244   9.921  0.2360 -0.6836 -0.0746
 3582SOL     OW14325   8.904   6.772   0.036 -0.4287  0.4424  0.7711
 3582SOL    HW114326   8.838   6.704   0.028 -0.3616  0.4832 -0.2297
 3582SOL    HW214327   8.869   6.832   0.102 -1.5847  0.6888 -0.0418
 3582SOL     MW14328   8.891   6.771   0.044 -0.5681  0.4792  0.5390
 3583SOL     OW14329   8.870   4.575   0.694 -0.2265  0.3415 -0.0953
 3583SOL    HW114330   8.854   4.604   0.604 -0.1185  0.0667 -0.2066
 3583SOL    HW214331   8.935   4.636   0.728 -0.3972  0.5530 -0.1455
 3583SOL     MW14332   8.876   4.586   0.687 -0.2345  0.3334 -0.1159
 3584SOL     OW14333   7.800   8.098   1.422 -0.5595  0.8233 -0.3270
 3584SOL    HW114334   7.888   8.063   1.436 -0.5567  1.0358  0.1781
 3584SOL    HW214335   7.743   8.042   1.475 -0.9153 -0.1778 -1.7013
 3584SOL     MW14336   7.804   8.086   1.430 -0.6047  0.7224 -0.4383
 3585SOL     OW14337   9.197   2.900  10.131  0.3028 -0.2599  0.4491
 3585SOL    HW114338   9.118   2.929  10.176  0.7551 -1.0486  1.8068
 3585SOL    HW214339   9.268   2.944  10.177  0.7831 -1.1372  0.5717
 3585SOL     MW14340   9.196   2.910  10.143  0.4222 -0.4732  0.6386
 3586SOL     OW14341   7.678   5.108   1.618 -0.0856 -0.0357  0.3056
 3586SOL    HW114342   7.621   5.032   1.637 -1.3752  0.7745 -0.1694
 3586SOL    HW214343   7.713   5.090   1.531 -1.2191  0.3757 -0.2544
 3586SOL     MW14344   7.675   5.096   1.609 -0.3958  0.1207  0.1731
 3587SOL     OW14345   7.059   0.435   2.122 -0.0649 -0.2228 -0.0015
 3587SOL    HW114346   7.121   0.361   2.125  1.7836  1.2883  1.5588
 3587SOL    HW214347   7.075   0.475   2.036 -1.6769 -2.0344 -1.2208
 3587SOL     MW14348   7.069   0.431   2.111 -0.0346 -0.2613  0.0421
 3588SOL     OW14349   8.100   1.675   9.652 -1.0611  0.0449  0.3730
 3588SOL    HW114350   8.073   1.605   9.712 -1.4497  0.6072  0.8611
 3588SOL    HW214351   8.129   1.746   9.709  0.3338 -0.0946 -0.1291
 3588SOL     MW14352   8.100   1.675   9.667 -0.9322  0.0990  0.3712
 3589SOL     OW14353   7.409   2.161   9.045 -0.4465  0.1139 -0.0650
 3589SOL    HW114354   7.487   2.158   8.989 -1.6920  1.6450 -2.0364
 3589SOL    HW214355   7.355   2.088   9.015  0.6804 -1.8160  2.2253
 3589SOL     MW14356   7.412   2.151   9.034 -0.4617  0.0629 -0.0242
 3590SOL     OW14357   7.233   4.804   9.854 -0.1434 -0.2257  0.3943
 3590SOL    HW114358   7.260   4.793   9.763 -0.5096  0.4032  0.2031
 3590SOL    HW214359   7.236   4.716   9.891  0.1599 -0.4620 -0.1824
 3590SOL     MW14360   7.237   4.791   9.847 -0.1514 -0.1754  0.2960
 3591SOL     OW14361   9.719   5.252   0.855 -0.3064 -0.4056 -0.1601
 3591SOL    HW114362   9.631   5.278   0.829  0.1440 -0.4779 -1.8658
 3591SOL    HW214363   9.740   5.308   0.929 -1.1416  0.8027 -0.8101
 3591SOL     MW14364   9.711   5.262   0.861 -0.3557 -0.2602 -0.4617
 3592SOL     OW14365   7.681   0.421   9.433  0.5371  0.3611  0.6101
 3592SOL    HW114366   7.749   0.423   9.501  0.1759  0.9361  0.9648
 3592SOL    HW214367   7.690   0.335   9.392  1.6080  0.5115  0.5180
 3592SOL     MW14368   7.691   0.410   9.437  0.6279  0.4540  0.6437
 3593SOL     OW14369   9.457   7.302   0.639 -0.3574 -0.1935  0.4282
 3593SOL    HW114370   9.487   7.372   0.581 -1.4807  0.9499  1.1816
 3593SOL    HW214371   9.538   7.262   0.670  0.3343  0.9350  0.1611
 3593SOL     MW14372   9.471   7.306   0.636 -0.4126  0.0974  0.4905
 3594SOL     OW14373   7.192   9.193   2.305 -0.1258  0.2967  0.0930
 3594SOL    HW114374   7.181   9.103   2.338  1.5318  0.6415  1.8063
 3594SOL    HW214375   7.178   9.186   2.210  2.2577 -2.2976 -0.2114
 3594SOL     MW14376   7.189   9.180   2.297  0.3915  0.0087  0.2733
 3595SOL     OW14377   6.722   2.162   2.206  0.1040  0.4489  0.4802
 3595SOL    HW114378   6.656   2.150   2.274  0.0713  1.2183  0.5924
 3595SOL    HW214379   6.802   2.125   2.243 -0.3850 -1.0932  0.0915
 3595SOL     MW14380   6.724   2.156   2.219  0.0372  0.3500  0.4448
 3596SOL     OW14381   8.631   9.880   2.583 -0.0856 -0.3144  0.1662
 3596SOL    HW114382   8.697   9.862   2.650 -0.4975 -0.5517  0.5109
 3596SOL    HW214383   8.606   9.793   2.550  0.4987 -0.1742 -0.6722
 3596SOL     MW14384   8.636   9.866   2.587 -0.0635 -0.3268  0.1030
 3597SOL     OW14385   8.156   5.482   9.708  0.8906 -0.3676  0.1903
 3597SOL    HW114386   8.230   5.511   9.761  0.2218 -1.5756  1.8584
 3597SOL    HW214387   8.180   5.394   9.679  1.2246  0.2496 -1.5346
 3597SOL     MW14388   8.169   5.475   9.711  0.8478 -0.4432  0.1830
 3598SOL     OW14389   8.201   0.230   0.927  0.2843  0.3086  0.2578
 3598SOL    HW114390   8.147   0.160   0.964 -0.0068 -0.5828 -1.7473
 3598SOL    HW214391   8.231   0.196   0.843  2.2970  1.6009  0.3826
 3598SOL     MW14392   8.197   0.217   0.921  0.5047  0.3599  0.0171
 3599SOL     OW14393   9.888   0.482   0.476 -0.0298  0.0303 -0.1100
 3599SOL    HW114394   9.811   0.432   0.447  0.9155 -0.3037 -2.2736
 3599SOL    HW214395   9.944   0.418   0.520 -0.0151 -0.2247 -0.4951
 3599SOL     MW14396   9.885   0.468   0.478  0.0931 -0.0451 -0.4362
 3600SOL     OW14397   9.236   6.343   9.952 -0.5465 -0.4002 -0.2687
 3600SOL    HW114398   9.267   6.310  10.036 -1.1479  1.8874  0.9356
 3600SOL    HW214399   9.306   6.321   9.890  0.8393 -0.4278  1.2301
 3600SOL     MW14400   9.249   6.336   9.955 -0.4461 -0.1109  0.0773
 3601SOL     OW14401   9.746   2.445   0.243 -0.6445  0.2548  0.1027
 3601SOL    HW114402   9.675   2.497   0.205 -1.1304 -0.6102 -0.1852
 3601SOL    HW214403   9.781   2.394   0.170 -0.7946 -0.5267  0.5687
 3601SOL     MW14404   9.741   2.445   0.229 -0.7259  0.0440  0.1255
 3602SOL     OW14405   8.854   0.882   0.857 -0.1139  0.4714  0.3196
 3602SOL    HW114406   8.806   0.958   0.889  0.1250  0.0031  1.8840
 3602SOL    HW214407   8.936   0.917   0.822 -0.6392  1.0539 -0.3601
 3602SOL     MW14408   8.858   0.896   0.856 -0.1505  0.4860  0.4328
 3603SOL     OW14409   9.891   5.021   9.585  0.0506 -0.1016 -0.7925
 3603SOL    HW114410   9.811   5.008   9.636  0.4058  0.4576 -0.0687
 3603SOL    HW214411   9.934   4.936   9.585 -0.2627 -0.2621 -0.7005
 3603SOL     MW14412   9.886   5.008   9.592  0.0560 -0.0505 -0.6881
 3604SOL     OW14413   7.456   7.001   9.366 -0.0229 -0.1388  0.6912
 3604SOL    HW114414   7.528   6.972   9.310 -0.0691 -1.3048  1.2069
 3604SOL    HW214415   7.424   6.921   9.407 -1.4992  0.3813  0.6251
 3604SOL     MW14416   7.461   6.987   9.364 -0.2178 -0.2215  0.7487
 3605SOL     OW14417   9.673   7.679   9.091  0.0315  0.4122 -0.5791
 3605SOL    HW114418   9.597   7.696   9.034 -1.2497 -0.1728  0.8642
 3605SOL    HW214419   9.692   7.764   9.130  0.4261  0.6546 -1.2733
 3605SOL     MW14420   9.665   7.692   9.089 -0.0820  0.3683 -0.4832
 3606SOL     OW14421   0.275   6.790   1.123 -0.1826  0.1910  0.2028
 3606SOL    HW114422   0.237   6.754   1.043  1.1626  0.6384 -0.6540
 3606SOL    HW214423   0.363   6.754   1.127 -0.4320 -0.3364  1.8421
 3606SOL     MW14424   0.281   6.781   1.114 -0.0423  0.1808  0.3029
 3607SOL     OW14425   6.607   1.594   1.052 -0.1612 -0.0727  0.1255
 3607SOL    HW114426   6.525   1.549   1.072 -1.2235  1.0186 -1.6040
 3607SOL    HW214427   6.626   1.570   0.961  1.5680 -0.4503  0.5454
 3607SOL     MW14428   6.599   1.585   1.043 -0.0759  0.0186 -0.0421
 3608SOL     OW14429   8.620   0.970   1.949  0.8547 -0.4068  0.4647
 3608SOL    HW114430   8.652   1.033   2.014 -0.6959  0.0214  0.8779
 3608SOL    HW214431   8.546   1.014   1.908  1.0864 -1.1424 -0.7806
 3608SOL     MW14432   8.614   0.984   1.952  0.6859 -0.4461  0.3582
 3609SOL     OW14433   0.048   8.091  10.048  0.1032  0.2808  0.0533
 3609SOL    HW114434   0.101   8.144   9.988  0.1640  0.2655  0.0942
 3609SOL    HW214435   0.103   8.079  10.125 -0.1955  0.7930  0.3545
 3609SOL     MW14436   0.062   8.096  10.050  0.0727  0.3444  0.0971
 3610SOL     OW14437   7.891   6.041   0.689 -0.0911  0.4555 -0.2191
 3610SOL    HW114438   7.984   6.067   0.692  0.0857 -0.0317 -1.1164
 3610SOL    HW214439   7.852   6.100   0.624 -0.3628  0.4806 -0.0366
 3610SOL     MW14440   7.898   6.052   0.681 -0.1033  0.3963 -0.3106
 3611SOL     OW14441   8.981   2.904   2.382  0.2126 -0.6662  0.1113
 3611SOL    HW114442   8.919   2.967   2.419 -0.2387 -0.4206 -1.0070
 3611SOL    HW214443   9.064   2.922   2.427 -0.1146  0.1502  0.4109
 3611SOL     MW14444   8.984   2.914   2.392  0.1130 -0.5303  0.0065
 3612SOL     OW14445   8.010   4.596  10.124 -0.1260 -0.6600  0.0738
 3612SOL    HW114446   8.045   4.550  10.048 -0.9083 -0.0745 -0.6595
 3612SOL    HW214447   8.004   4.528  10.192  0.5016 -1.2063 -0.4001
 3612SOL     MW14448   8.014   4.581  10.123 -0.1458 -0.6550 -0.0808
 3613SOL     OW14449   8.274   5.541   2.955  0.1633  0.4123  0.2102
 3613SOL    HW114450   8.220   5.557   2.877  0.3461 -0.6960 -0.1663
 3613SOL    HW214451   8.356   5.587   2.938  0.5877 -0.6496 -0.7212
 3613SOL     MW14452   8.277   5.549   2.943  0.2410  0.1345  0.0428
 3614SOL     OW14453   8.083   2.220   1.474 -0.1472 -0.1426 -0.2492
 3614SOL    HW114454   8.105   2.314   1.475 -0.1985 -0.0853 -1.8853
 3614SOL    HW214455   8.013   2.212   1.539  1.4100  0.5178  1.5922
 3614SOL     MW14456   8.077   2.231   1.483  0.0456 -0.0507 -0.2229
 3615SOL     OW14457   7.894   5.613   0.048  0.0469  0.2857 -0.5351
 3615SOL    HW114458   7.813   5.661   0.061 -0.0945  0.2396 -1.2409
 3615SOL    HW214459   7.947   5.670  -0.008  0.0469 -0.1833 -1.0196
 3615SOL     MW14460   7.891   5.627   0.043  0.0288  0.2198 -0.6875
 3616SOL     OW14461   7.593   1.232  10.017 -0.3708  0.2538 -0.2051
 3616SOL    HW114462   7.616   1.254   9.927 -0.9154 -0.5423 -0.5437
 3616SOL    HW214463   7.555   1.145  10.012 -2.8428  1.2009  0.4295
 3616SOL     MW14464   7.591   1.224  10.005 -0.7570  0.2731 -0.1672
 3617SOL     OW14465   8.132   0.826   8.956 -0.2181  0.0462  0.2867
 3617SOL    HW114466   8.069   0.823   9.029 -0.5747 -2.4682 -0.0292
 3617SOL    HW214467   8.078   0.844   8.879 -0.4380 -1.1417  0.1490
 3617SOL     MW14468   8.117   0.828   8.956 -0.2919 -0.4277  0.2286
 3618SOL     OW14469   8.168   6.385   9.136 -0.2175 -0.0798  0.1351
 3618SOL    HW114470   8.098   6.437   9.174 -0.6581 -0.8374  0.3772
 3618SOL    HW214471   8.230   6.450   9.101 -0.0022  0.6433  1.7423
 3618SOL     MW14472   8.167   6.400   9.136 -0.2463 -0.0842  0.3718
 3619SOL     OW14473   7.919   3.698   2.376 -0.2023  0.3346 -0.2341
 3619SOL    HW114474   7.864   3.773   2.399 -0.7963 -0.1814  0.0701
 3619SOL    HW214475   7.936   3.654   2.460 -2.1208 -1.3942 -0.6858
 3619SOL     MW14476   7.914   3.702   2.390 -0.5239  0.0472 -0.2530
 3620SOL     OW14477   7.869   4.294   9.343 -0.6586  0.2492  0.3128
 3620SOL    HW114478   7.821   4.321   9.422 -1.4651  0.4432 -0.2241
 3620SOL    HW214479   7.843   4.203   9.330  0.8975 -0.3781  1.2750
 3620SOL     MW14480   7.859   4.286   9.352 -0.5627  0.1938  0.3672
 3621SOL     OW14481   9.749   5.823   1.798  0.5216 -0.8082  0.3448
 3621SOL    HW114482   9.670   5.791   1.842 -1.2147  1.1197 -1.1463
 3621SOL    HW214483   9.760   5.912   1.833  1.6225 -0.8067 -0.0014
 3621SOL     MW14484   9.740   5.830   1.808  0.4403 -0.5612  0.1096
 3622SOL     OW14485   8.884   6.816   1.240  0.2754  0.0029  0.0370
 3622SOL    HW114486   8.966   6.855   1.273  0.3880 -0.2761  0.0893
 3622SOL    HW214487   8.815   6.870   1.277  0.4770  1.3245 -1.3929
 3622SOL     MW14488   8.886   6.828   1.249  0.3156  0.1363 -0.1394
 3623SOL     OW14489   6.231   7.364   0.329  0.0775  0.1810 -0.3523
 3623SOL    HW114490   6.317   7.387   0.295  0.1265  0.9711  0.2846
 3623SOL    HW214491   6.186   7.323   0.255  1.5063 -1.6104 -0.3073
 3623SOL     MW14492   6.236   7.362   0.315  0.2666  0.0528 -0.2650
 3624SOL     OW14493   9.577   8.825   2.571  0.3314 -0.1293  0.3597
 3624SOL    HW114494   9.611   8.847   2.484 -1.0878 -0.1543 -0.2245
 3624SOL    HW214495   9.533   8.904   2.600 -0.2590 -0.5135  0.5201
 3624SOL     MW14496   9.576   8.838   2.563  0.0741 -0.1817  0.3054
 3625SOL     OW14497   7.709   5.994   1.325  0.1078  0.3266  0.1000
 3625SOL    HW114498   7.778   6.058   1.304  1.2114 -0.3922  1.3381
 3625SOL    HW214499   7.754   5.910   1.324 -1.1058 -0.3387 -0.4975
 3625SOL     MW14500   7.724   5.992   1.322  0.0937  0.1494  0.1820
 3626SOL     OW14501   6.678   8.785   0.639 -0.5232 -0.4927 -0.0466
 3626SOL    HW114502   6.757   8.757   0.591 -0.9922 -3.2951  0.6393
 3626SOL    HW214503   6.709   8.806   0.727  0.0799  3.0468 -0.9601
 3626SOL     MW14504   6.692   8.784   0.644 -0.5060 -0.3983 -0.0758
 3627SOL     OW14505   9.451   0.973   9.488 -0.1600 -0.6771 -0.0573
 3627SOL    HW114506   9.478   0.915   9.417  1.5677 -0.0648  0.0645
 3627SOL    HW214507   9.386   0.921   9.537 -0.9196 -1.3376 -1.6806
 3627SOL     MW14508   9.446   0.959   9.485 -0.0361 -0.6833 -0.2495
 3628SOL     OW14509   6.510   1.346   1.381 -0.3081  0.2709  0.4812
 3628SOL    HW114510   6.594   1.303   1.360  0.8130  1.8701  1.4491
 3628SOL    HW214511   6.493   1.403   1.306  1.7898  3.1816  1.9837
 3628SOL     MW14512   6.519   1.348   1.369  0.1040  0.8482  0.7974
 3629SOL     OW14513   6.938   2.024   2.296 -0.1521 -0.1473  0.0144
 3629SOL    HW114514   6.981   2.045   2.213 -0.9770 -1.3640 -0.7575
 3629SOL    HW214515   6.979   2.082   2.360  0.7288  0.5922 -1.1815
 3629SOL     MW14516   6.948   2.034   2.294 -0.1449 -0.2084 -0.2375
 3630SOL     OW14517   6.497   7.712   0.547 -0.1251  0.2961 -0.0285
 3630SOL    HW114518   6.510   7.642   0.611  0.4178  0.1101 -0.3333
 3630SOL    HW214519   6.494   7.667   0.462  0.5304  0.6682 -0.2543
 3630SOL     MW14520   6.498   7.697   0.544  0.0283  0.3200 -0.0964
 3631SOL     OW14521   6.669   7.198   1.793  0.6451  0.3860 -0.1288
 3631SOL    HW114522   6.617   7.145   1.854  0.5381  0.5073 -0.1136
 3631SOL    HW214523   6.715   7.261   1.850  0.1260  0.8566 -0.2155
 3631SOL     MW14524   6.668   7.200   1.808  0.5649  0.4618 -0.1380
 3632SOL     OW14525   7.544   4.738  10.168  0.3827  0.0978  0.2782
 3632SOL    HW114526   7.525   4.832  10.165 -1.1861 -0.1501  1.3328
 3632SOL    HW214527   7.618   4.727  10.109 -1.2429  1.5598 -2.2258
 3632SOL     MW14528   7.551   4.749  10.160 -0.0263  0.2532  0.0927
 3633SOL     OW14529   7.932   5.986   1.035 -0.0438 -0.0350 -0.2151
 3633SOL    HW114530   7.901   5.920   1.097  0.0089  0.8313  0.7557
 3633SOL    HW214531   8.015   5.951   1.003 -0.3639 -0.7771 -0.2662
 3633SOL     MW14532   7.938   5.973   1.039 -0.0780 -0.0191 -0.0974
 3634SOL     OW14533   8.388   3.725   2.033  0.2025  0.0091  0.1672
 3634SOL    HW114534   8.411   3.772   1.953  2.1761 -2.0484 -0.5694
 3634SOL    HW214535   8.418   3.781   2.104 -1.2831  1.7141 -0.4705
 3634SOL     MW14536   8.394   3.738   2.031  0.2650 -0.0360 -0.0087
 3635SOL     OW14537   7.788   2.401  10.033 -0.1176 -0.3302  0.2194
 3635SOL    HW114538   7.793   2.332  10.100  2.1939 -1.5245 -1.0720
 3635SOL    HW214539   7.846   2.470  10.067  0.5737 -0.6783 -0.2271
 3635SOL     MW14540   7.796   2.401  10.046  0.2668 -0.5277 -0.0031
 3636SOL     OW14541   8.740   7.640   9.254 -0.1719 -0.2492 -0.1745
 3636SOL    HW114542   8.727   7.724   9.299  0.5198  0.2347 -0.8386
 3636SOL    HW214543   8.828   7.648   9.215 -0.3445 -1.0524 -0.7453
 3636SOL     MW14544   8.750   7.652   9.255 -0.1055 -0.2901 -0.3326
 3637SOL     OW14545   6.351   0.880   1.903 -0.7789 -0.6910  0.2866
 3637SOL    HW114546   6.287   0.939   1.864 -0.2544 -0.1327  0.2551
 3637SOL    HW214547   6.412   0.937   1.950  0.5039 -1.0725 -0.8189
 3637SOL     MW14548   6.351   0.895   1.904 -0.5475 -0.6684  0.1410
 3638SOL     OW14549   8.907   4.266   9.478 -0.2435 -0.1456 -0.2070
 3638SOL    HW114550   8.830   4.271   9.535 -0.9877 -0.7936 -1.1241
 3638SOL    HW214551   8.979   4.299   9.532 -0.2045 -3.8590  2.3964
 3638SOL     MW14552   8.907   4.271   9.492 -0.3338 -0.7039  0.0089
 3639SOL     OW14553   8.282   3.011   2.651  0.1894 -0.1253 -0.0164
 3639SOL    HW114554   8.376   3.001   2.667  0.3400 -0.2354 -0.8959
 3639SOL    HW214555   8.268   3.105   2.651  0.3731 -0.0961 -0.2495
 3639SOL     MW14556   8.292   3.022   2.653  0.2322 -0.1357 -0.1588
 3640SOL     OW14557   9.491   3.576   2.841 -0.0049  0.3617  0.2144
 3640SOL    HW114558   9.542   3.511   2.792 -0.0343  0.0124  0.6359
 3640SOL    HW214559   9.556   3.619   2.897  0.1266  1.1433 -0.5154
 3640SOL     MW14560   9.506   3.573   2.842  0.0081  0.4170  0.1750
 3641SOL     OW14561   8.802   3.590  10.124 -0.0385 -0.2856 -0.0693
 3641SOL    HW114562   8.723   3.637  10.098  0.6406  0.8529 -0.1395
 3641SOL    HW214563   8.814   3.523  10.057 -1.7726 -1.4904  0.7593
 3641SOL     MW14564   8.794   3.587  10.112 -0.1736 -0.2941  0.0278
 3642SOL     OW14565   0.251   2.451   0.690  0.4738  0.2664  0.0370
 3642SOL    HW114566   0.169   2.409   0.715  0.4782  0.3242  0.1503
 3642SOL    HW214567   0.307   2.379   0.662  0.2323  0.2688 -0.4777
 3642SOL     MW14568   0.248   2.436   0.689  0.4434  0.2741 -0.0144
 3643SOL     OW14569   7.706  10.002   0.132 -0.2451  0.2595 -0.0292
 3643SOL    HW114570   7.685   9.909   0.130  0.2534  0.1242  0.8405
 3643SOL    HW214571   7.760  10.013   0.210  1.0766  0.9912 -1.0167
 3643SOL     MW14572   7.710   9.992   0.142 -0.0121  0.3359 -0.0443
 3644SOL     OW14573   7.732   3.151   9.361 -0.7163  0.5534 -0.2394
 3644SOL    HW114574   7.754   3.237   9.326  0.2413  0.6203  0.4923
 3644SOL    HW214575   7.665   3.169   9.427 -1.5007  0.5724 -1.0128
 3644SOL     MW14576   7.726   3.165   9.365 -0.6941  0.5644 -0.2447
 3645SOL     OW14577   7.356   2.371   9.784 -0.3069 -0.1177 -0.2851
 3645SOL    HW114578   7.342   2.459   9.750  0.4308  0.6068  1.2466
 3645SOL    HW214579   7.323   2.374   9.873  1.3089 -0.8901  0.3718
 3645SOL     MW14580   7.350   2.382   9.791 -0.0056 -0.1239 -0.0049
 3646SOL     OW14581   8.794   8.821   9.137  0.0730  0.6456 -0.3332
 3646SOL    HW114582   8.742   8.817   9.056  1.0181  0.4072 -0.9411
 3646SOL    HW214583   8.831   8.909   9.137 -0.6432  0.9618  0.3147
 3646SOL     MW14584   8.792   8.832   9.126  0.1023  0.6555 -0.3281
 3647SOL     OW14585   7.322   2.339   0.635  0.2663  0.0986 -0.4261
 3647SOL    HW114586   7.335   2.357   0.542 -0.3099 -1.4518 -0.8271
 3647SOL    HW214587   7.254   2.271   0.638  1.9850 -1.6556  1.0032
 3647SOL     MW14588   7.315   2.333   0.623  0.4126 -0.3244 -0.2944
 3648SOL     OW14589   7.484   4.514   1.343 -0.4218  0.2305 -0.7282
 3648SOL    HW114590   7.393   4.509   1.314 -0.5294  1.2588 -0.5810
 3648SOL    HW214591   7.512   4.602   1.320  1.0492 -0.5906 -2.2300
 3648SOL     MW14592   7.476   4.524   1.337 -0.2473  0.2570 -0.9016
 3649SOL     OW14593   9.643   7.108   2.770 -0.0311 -0.0629  0.3003
 3649SOL    HW114594   9.548   7.106   2.769 -0.0462  0.3843  0.2227
 3649SOL    HW214595   9.665   7.180   2.831  0.2488 -0.0103  0.1419
 3649SOL     MW14596   9.634   7.117   2.778  0.0028  0.0011  0.2700
 3650SOL     OW14597   0.401   9.110   0.970  0.4081  0.3565  0.0966
 3650SOL    HW114598   0.336   9.177   0.948 -0.8106 -1.1746 -1.1581
 3650SOL    HW214599   0.452   9.098   0.889  0.6725 -0.1766  0.3375
 3650SOL     MW14600   0.399   9.117   0.957  0.2859  0.0923 -0.0332
 3651SOL     OW14601   6.370   4.990   0.730  0.5095  0.4342 -0.3289
 3651SOL    HW114602   6.333   5.029   0.652 -0.2081  1.9781  0.7266
 3651SOL    HW214603   6.334   4.901   0.733  1.2510  0.0339 -2.1775
 3651SOL     MW14604   6.361   4.984   0.721  0.5125  0.5806 -0.4304
 3652SOL     OW14605  10.151  10.032   1.415  0.4648 -0.1377 -0.2103
 3652SOL    HW114606  10.176   9.971   1.485  2.0519  1.9285  1.1543
 3652SOL    HW214607  10.067  10.067   1.443 -0.1687 -1.2403 -0.6995
 3652SOL     MW14608  10.144  10.028   1.428  0.5869 -0.0143 -0.0982
 3653SOL     OW14609   6.499   5.446   1.797  0.1705 -0.8140  0.0449
 3653SOL    HW114610   6.485   5.429   1.890 -1.2968  2.2495  0.4962
 3653SOL    HW214611   6.592   5.425   1.782  1.4368  1.8885  3.1028
 3653SOL     MW14612   6.509   5.441   1.807  0.1448 -0.0759  0.4941
 3654SOL     OW14613   8.205   8.784   1.281 -0.0193 -0.4402 -0.0624
 3654SOL    HW114614   8.166   8.870   1.295 -1.6729 -1.1331 -0.1939
 3654SOL    HW214615   8.298   8.802   1.265  0.0481  1.1651  1.7471
 3654SOL     MW14616   8.212   8.797   1.281 -0.2224 -0.3234  0.1524
 3655SOL     OW14617   9.052   5.410   9.242 -0.2446  0.1438 -0.5045
 3655SOL    HW114618   9.006   5.459   9.310 -0.5729 -1.6368  0.6131
 3655SOL    HW214619   9.122   5.365   9.289 -0.0019 -0.5240 -1.4826
 3655SOL     MW14620   9.055   5.411   9.257 -0.2555 -0.1696 -0.4866
 3656SOL     OW14621   8.595   4.962   2.067  0.0196  0.0359 -0.3324
 3656SOL    HW114622   8.667   4.903   2.089 -0.4693  0.0065  1.3586
 3656SOL    HW214623   8.616   5.043   2.114 -1.2813 -0.1484  0.6290
 3656SOL     MW14624   8.607   4.965   2.076 -0.2095  0.0086  0.0071
 3657SOL     OW14625   7.081   6.642   1.232  0.2692 -0.1985  0.3550
 3657SOL    HW114626   7.175   6.651   1.220  0.1960 -0.6939 -0.7148
 3657SOL    HW214627   7.044   6.647   1.144 -0.5987 -1.1521  0.6358
 3657SOL     MW14628   7.088   6.644   1.219  0.1487 -0.3840  0.2540
 3658SOL     OW14629   6.355   8.377   0.360 -0.1482 -0.6489  0.0515
 3658SOL    HW114630   6.332   8.453   0.308  0.4891  0.3702  1.2182
 3658SOL    HW214631   6.279   8.319   0.354 -1.1090  0.5864  0.0892
 3658SOL     MW14632   6.342   8.379   0.352 -0.1896 -0.3603  0.2057
 3659SOL     OW14633   6.331   6.722   1.643 -0.6428 -0.7485  0.3758
 3659SOL    HW114634   6.408   6.683   1.601 -0.8355 -1.4400  0.6522
 3659SOL    HW214635   6.311   6.663   1.716 -2.8880 -1.9553 -1.0906
 3659SOL     MW14636   6.338   6.709   1.647 -0.9549 -0.9915  0.2235
 3660SOL     OW14637   6.559   4.130   0.551 -0.4709  0.1190 -0.4432
 3660SOL    HW114638   6.645   4.094   0.573 -0.5233  0.2783  0.0273
 3660SOL    HW214639   6.496   4.068   0.589 -0.5632  1.0797  1.0049
 3660SOL     MW14640   6.562   4.117   0.558 -0.4894  0.2624 -0.1976
 3661SOL     OW14641   7.674   8.796   1.236  0.1955  0.2184  0.3167
 3661SOL    HW114642   7.604   8.860   1.220 -0.1873 -0.1584  0.4724
 3661SOL    HW214643   7.738   8.844   1.288 -0.5850  0.1885  1.3552
 3661SOL     MW14644   7.673   8.810   1.241  0.0466  0.1663  0.4696
 3662SOL     OW14645   7.130   7.757   2.146  0.4745  0.2402  0.0853
 3662SOL    HW114646   7.035   7.751   2.153  0.6148 -2.0405  0.7776
 3662SOL    HW214647   7.145   7.813   2.070 -1.3770  1.6834  0.7130
 3662SOL     MW14648   7.120   7.764   2.137  0.2554  0.1330  0.2543
 3663SOL     OW14649   8.317   9.083   9.890 -0.2296  0.0364 -0.6285
 3663SOL    HW114650   8.286   9.159   9.840 -2.9767 -0.2959  0.3660
 3663SOL    HW214651   8.348   9.022   9.824 -0.7575  0.8773 -1.6891
 3663SOL     MW14652   8.317   9.085   9.875 -0.6488  0.1015 -0.6370
 3664SOL     OW14653   7.242   5.176   9.467 -0.2269 -0.3159 -0.1336
 3664SOL    HW114654   7.203   5.198   9.551 -0.4441 -0.4077 -0.2110
 3664SOL    HW214655   7.168   5.169   9.407 -0.0003  0.6027 -0.5248
 3664SOL     MW14656   7.228   5.178   9.470 -0.2257 -0.2100 -0.1936
 3665SOL     OW14657   7.438   1.233   9.577 -0.1592  0.4990 -0.4489
 3665SOL    HW114658   7.384   1.307   9.607 -3.0028 -1.3627 -0.6503
 3665SOL    HW214659   7.514   1.234   9.636 -0.4472  3.0916  0.0095
 3665SOL     MW14660   7.441   1.243   9.589 -0.5601  0.5926 -0.4160
 3666SOL     OW14661   7.926   2.706   0.927  0.2066  0.0675 -0.1988
 3666SOL    HW114662   7.978   2.655   0.864  0.5806  1.3756 -0.9900
 3666SOL    HW214663   7.920   2.793   0.888 -1.9807  0.1551  0.2276
 3666SOL     MW14664   7.932   2.711   0.914 -0.0255  0.2462 -0.2455
 3667SOL     OW14665   8.080   1.577   0.348  0.9517 -0.1175 -0.1190
 3667SOL    HW114666   8.015   1.507   0.353 -0.1871  0.6757 -2.2278
 3667SOL    HW214667   8.145   1.555   0.414  0.1809 -2.6685 -0.1155
 3667SOL     MW14668   8.080   1.565   0.357  0.7072 -0.3425 -0.3885
 3668SOL     OW14669   7.760   5.478   9.566 -0.4433  0.0200 -0.1758
 3668SOL    HW114670   7.794   5.392   9.541 -0.0381  0.2792 -0.5447
 3668SOL    HW214671   7.782   5.534   9.491  0.0881  0.6455  0.4366
 3668SOL     MW14672   7.767   5.474   9.553 -0.3234  0.1333 -0.1446
 3669SOL     OW14673   8.985   7.076   1.609 -0.1195 -0.3132  0.4883
 3669SOL    HW114674   9.077   7.053   1.597 -0.0356 -0.2564  0.9846
 3669SOL    HW214675   8.938   6.992   1.602 -0.0384 -0.3306  0.1577
 3669SOL     MW14676   8.990   7.062   1.607 -0.0984 -0.3082  0.5095
 3670SOL     OW14677   9.146   0.125   9.166 -0.3984 -0.1480  0.0378
 3670SOL    HW114678   9.118   0.213   9.193  0.2646 -0.2098  0.9886
 3670SOL    HW214679   9.118   0.118   9.075 -0.5380  1.0202 -0.0288
 3670SOL     MW14680   9.139   0.136   9.158 -0.3314 -0.0064  0.1510
 3671SOL     OW14681   6.475   7.800   1.973 -0.5093 -0.2851  0.0103
 3671SOL    HW114682   6.428   7.807   1.889  0.3958  1.7646 -0.3981
 3671SOL    HW214683   6.542   7.734   1.957  0.1536  0.6261 -1.1757
 3671SOL     MW14684   6.478   7.793   1.960 -0.3086  0.0939 -0.1938
 3672SOL     OW14685   7.087   8.937   2.369 -0.2789 -0.0451 -0.3204
 3672SOL    HW114686   7.033   8.991   2.426 -0.8348 -0.1209 -0.7679
 3672SOL    HW214687   7.123   8.870   2.427 -0.7106 -0.0279 -0.0322
 3672SOL     MW14688   7.085   8.935   2.384 -0.4053 -0.0526 -0.3408
 3673SOL     OW14689   6.222   6.715   1.386  0.5037 -0.0861 -0.0629
 3673SOL    HW114690   6.221   6.623   1.360  0.2975 -0.1361  0.1198
 3673SOL    HW214691   6.246   6.714   1.478 -0.1366 -0.0017  0.1083
 3673SOL     MW14692   6.225   6.704   1.394  0.3953 -0.0817 -0.0176
 3674SOL     OW14693   8.030   3.727   1.392  0.1094  0.1108 -0.0195
 3674SOL    HW114694   8.100   3.708   1.454  0.3748 -0.8488 -0.5778
 3674SOL    HW214695   8.065   3.795   1.335  1.5481 -1.8894 -1.7194
 3674SOL     MW14696   8.043   3.733   1.393  0.3275 -0.2681 -0.3086
 3675SOL     OW14697   6.959   0.771   0.297  0.2970 -0.8578  0.1172
 3675SOL    HW114698   7.040   0.809   0.263  0.7721 -1.0151  1.0463
 3675SOL    HW214699   6.988   0.707   0.362 -0.5454 -1.6536 -0.2656
 3675SOL     MW14700   6.973   0.768   0.301  0.2500 -0.9798  0.1871
 3676SOL     OW14701   8.020   5.176   9.238 -0.1459 -0.1222 -0.0449
 3676SOL    HW114702   7.982   5.190   9.324 -0.1153 -0.9871  0.1210
 3676SOL    HW214703   8.091   5.240   9.232 -1.9629  1.9648 -0.6202
 3676SOL     MW14704   8.025   5.186   9.248 -0.3746  0.0343 -0.0973
 3677SOL     OW14705   8.506   8.967   8.557 -0.5465 -0.6581  0.2403
 3677SOL    HW114706   8.416   8.958   8.588 -0.4540 -2.2494  0.1080
 3677SOL    HW214707   8.560   8.934   8.629 -0.1093 -0.4429  0.0175
 3677SOL     MW14708   8.501   8.962   8.570 -0.4787 -0.8343  0.1948
 3678SOL     OW14709   8.335   4.274   9.124 -0.3889  0.4056 -0.6728
 3678SOL    HW114710   8.263   4.284   9.187  0.4619  0.7123  0.2772
 3678SOL    HW214711   8.325   4.184   9.092  1.8618 -1.6350  3.4744
 3678SOL     MW14712   8.325   4.263   9.128  0.0081  0.1837 -0.0203
 3679SOL     OW14713   9.021   5.292   0.716  0.0374 -0.6776 -0.0905
 3679SOL    HW114714   9.059   5.205   0.716 -2.4828 -1.8586  0.1091
 3679SOL    HW214715   8.981   5.301   0.803 -0.8875  0.1234 -0.5763
 3679SOL     MW14716   9.021   5.282   0.727 -0.4036 -0.7262 -0.1271
 3680SOL     OW14717   7.341   6.091   1.865 -0.1399  0.2102  0.7239
 3680SOL    HW114718   7.277   6.049   1.922 -0.1733 -0.6406  0.0809
 3680SOL    HW214719   7.422   6.091   1.916  0.4612 -2.7315 -0.0465
 3680SOL     MW14720   7.343   6.086   1.879 -0.0672 -0.2753  0.5429
 3681SOL     OW14721   8.291   6.576   9.947 -0.6881 -0.1810 -0.1013
 3681SOL    HW114722   8.341   6.561   9.867 -0.0787  3.3424 -0.5497
 3681SOL    HW214723   8.204   6.600   9.917 -0.5202  0.9352  0.2493
 3681SOL     MW14724   8.287   6.577   9.933 -0.5886  0.4130 -0.1138
 3682SOL     OW14725   7.016   9.621   2.398  0.0760  0.1094  0.2148
 3682SOL    HW114726   7.063   9.586   2.473  1.4498 -1.4249 -1.2977
 3682SOL    HW214727   6.950   9.555   2.377  2.3308 -1.5187 -2.3257
 3682SOL     MW14728   7.013   9.608   2.405  0.5405 -0.2954 -0.3040
 3683SOL     OW14729   9.075   0.701   9.102 -0.1299  0.8171 -0.0528
 3683SOL    HW114730   9.009   0.669   9.163  0.5847 -1.2542 -0.2809
 3683SOL    HW214731   9.025   0.739   9.030 -1.0079  1.4107  0.8535
 3683SOL     MW14732   9.060   0.702   9.100 -0.1509  0.6279  0.0340
 3684SOL     OW14733   7.428   9.454   1.488 -0.2427 -0.4828 -0.2547
 3684SOL    HW114734   7.338   9.422   1.483  0.6528 -3.4241  0.4792
 3684SOL    HW214735   7.473   9.410   1.415  1.3563 -2.0626  1.5807
 3684SOL     MW14736   7.423   9.444   1.478  0.0766 -1.0616  0.0742
 3685SOL     OW14737   6.857   7.138   9.591 -0.3510  0.1877  0.0971
 3685SOL    HW114738   6.910   7.103   9.519 -0.6135  1.0666 -0.5370
 3685SOL    HW214739   6.903   7.217   9.619 -0.0748 -0.3121  1.1352
 3685SOL     MW14740   6.870   7.144   9.585 -0.3493  0.2362  0.1488
 3686SOL     OW14741   9.492   9.143   9.971  0.5241  0.0653  0.0500
 3686SOL    HW114742   9.535   9.159   9.886  1.0548 -0.5424  0.1956
 3686SOL    HW214743   9.402   9.170   9.957  0.4855 -0.4944 -0.8699
 3686SOL     MW14744   9.486   9.148   9.958  0.5871 -0.0841 -0.0492
 3687SOL     OW14745   9.405   2.308   1.995  0.1621  0.3508 -0.6066
 3687SOL    HW114746   9.418   2.225   1.950  0.2943 -0.1531  0.3545
 3687SOL    HW214747   9.455   2.371   1.943 -0.0043 -0.1427 -1.3829
 3687SOL     MW14748   9.413   2.306   1.983  0.1577  0.2231 -0.5830
 3688SOL     OW14749   6.887   1.460  10.044 -0.2925  0.1703 -0.1237
 3688SOL    HW114750   6.885   1.543  10.091 -1.1541  0.8418 -1.2893
 3688SOL    HW214751   6.795   1.436  10.035 -0.0728 -0.6566 -0.2457
 3688SOL     MW14752   6.875   1.468  10.049 -0.3747  0.1504 -0.2885
 3689SOL     OW14753   6.472   0.314   0.576 -0.0237 -0.0767 -0.4223
 3689SOL    HW114754   6.431   0.322   0.662 -0.4655 -1.7447 -0.4328
 3689SOL    HW214755   6.539   0.382   0.575 -0.0468  0.0183  1.2173
 3689SOL     MW14756   6.475   0.324   0.587 -0.0832 -0.2781 -0.2137
 3690SOL     OW14757   8.142   6.340   1.377 -0.1261  0.2029  0.0564
 3690SOL    HW114758   8.056   6.309   1.350  0.1788 -1.6714  1.0323
 3690SOL    HW214759   8.125   6.407   1.442 -0.8946 -0.9038  1.0360
 3690SOL     MW14760   8.129   6.345   1.382 -0.1855 -0.1787  0.3067
 3691SOL     OW14761   0.333   5.385   1.446  0.5141 -0.1534  0.7486
 3691SOL    HW114762   0.351   5.399   1.353  3.1023  0.1683  1.2272
 3691SOL    HW214763   0.312   5.292   1.452 -1.7816  0.2163 -0.3808
 3691SOL     MW14764   0.332   5.375   1.435  0.5515 -0.0649  0.6653
 3692SOL     OW14765   6.655   0.400   9.496 -0.3626 -0.1570  0.2903
 3692SOL    HW114766   6.633   0.477   9.549 -0.1519  0.2829 -0.2516
 3692SOL    HW214767   6.580   0.342   9.508 -1.4365  0.9305 -0.7793
 3692SOL     MW14768   6.642   0.403   9.505 -0.4731  0.0386  0.0840
 3693SOL     OW14769   7.737   1.618   9.888  0.0663  0.0954  0.1255
 3693SOL    HW114770   7.665   1.615   9.951  0.3245 -0.6289  0.3876
 3693SOL    HW214771   7.694   1.629   9.803 -0.3231  0.1740  0.3317
 3693SOL     MW14772   7.722   1.619   9.885  0.0495  0.0127  0.1855
 3694SOL     OW14773  10.126   6.491   0.944  0.3087  0.1735 -0.1894
 3694SOL    HW114774  10.101   6.527   1.029  0.4608  1.9340 -0.8430
 3694SOL    HW214775  10.157   6.403   0.963  0.7132  0.6708  1.6386
 3694SOL     MW14776  10.127   6.485   0.957  0.3800  0.4625 -0.0391
 3695SOL     OW14777   7.401   1.784   1.235  0.2267  0.1148  0.8680
 3695SOL    HW114778   7.343   1.839   1.182 -1.2609  0.1885  2.4853
 3695SOL    HW214779   7.389   1.696   1.199 -1.8875 -0.0784  1.9455
 3695SOL     MW14780   7.392   1.780   1.223 -0.2344  0.0995  1.2130
 3696SOL     OW14781   7.021   8.295   9.290 -0.2577 -0.1148 -0.2355
 3696SOL    HW114782   7.019   8.221   9.229  0.3142  0.3386 -0.8163
 3696SOL    HW214783   7.089   8.352   9.256 -1.0698  0.9575 -0.1265
 3696SOL     MW14784   7.029   8.293   9.278 -0.2884  0.0805 -0.2959
 3697SOL     OW14785   8.230   1.034   2.051 -0.4905  0.6332  0.1455
 3697SOL    HW114786   8.252   1.127   2.044 -1.4159  0.9206  0.8070
 3697SOL    HW214787   8.267   1.007   2.135  1.3155 -0.0760 -0.8159
 3697SOL     MW14788   8.238   1.042   2.061 -0.3777  0.5792  0.1071
 3698SOL     OW14789   7.891   8.882   2.339 -0.5774 -0.4219 -0.3429
 3698SOL    HW114790   7.867   8.974   2.348  0.9098 -0.0017 -0.4078
 3698SOL    HW214791   7.899   8.849   2.428  1.5384  0.2827 -0.2034
 3698SOL     MW14792   7.889   8.889   2.351 -0.1162 -0.2779 -0.3334
 3699SOL     OW14793   9.880   6.960   1.049  0.4527 -0.2412  0.8279
 3699SOL    HW114794   9.906   6.891   1.110  0.3483 -0.8682  0.1780
 3699SOL    HW214795   9.963   7.000   1.022  0.5050 -0.0108  1.3088
 3699SOL     MW14796   9.894   6.956   1.053  0.4460 -0.2920  0.8062
 3700SOL     OW14797   7.694   9.376   1.590  0.6041 -0.1533  0.0987
 3700SOL    HW114798   7.710   9.289   1.554  1.8291  1.0812 -2.6013
 3700SOL    HW214799   7.598   9.384   1.592  0.4885 -1.0074 -1.1427
 3700SOL     MW14800   7.684   9.366   1.586  0.7461 -0.1046 -0.4059
 3701SOL     OW14801   8.506   8.479   9.121 -0.0556 -0.1919  0.7005
 3701SOL    HW114802   8.583   8.429   9.147  0.0287 -1.0538 -1.0471
 3701SOL    HW214803   8.481   8.528   9.200  1.5573 -0.7974  1.6340
 3701SOL     MW14804   8.513   8.479   9.135  0.1617 -0.3797  0.5963
 3702SOL     OW14805   8.926   8.354   2.659 -0.5488  0.1854 -0.9591
 3702SOL    HW114806   8.837   8.385   2.645 -0.6596  0.5599  0.4827
 3702SOL    HW214807   8.957   8.403   2.735 -0.3736 -2.5232  0.8187
 3702SOL     MW14808   8.919   8.365   2.667 -0.5406 -0.1134 -0.5469
 3703SOL     OW14809   0.324   2.512   0.177  0.7877 -0.4022  0.1895
 3703SOL    HW114810   0.378   2.577   0.131 -0.4877  0.0193 -0.7798
 3703SOL    HW214811   0.320   2.544   0.267  1.1524  0.2185 -0.0086
 3703SOL     MW14812   0.331   2.525   0.182  0.6711 -0.2687  0.0401
 3704SOL     OW14813   6.383   0.180   0.372  0.1096 -0.6202  0.2563
 3704SOL    HW114814   6.288   0.176   0.368  0.0312  1.1829 -1.0626
 3704SOL    HW214815   6.402   0.241   0.443  0.2430 -0.0367 -0.2794
 3704SOL     MW14816   6.374   0.187   0.381  0.1166 -0.3147  0.0189
 3705SOL     OW14817   8.246   6.172   9.311  0.1061  0.4316 -0.4651
 3705SOL    HW114818   8.198   6.090   9.304  1.4352 -0.3745 -0.6705
 3705SOL    HW214819   8.227   6.219   9.230 -1.1997  0.6629 -0.0499
 3705SOL     MW14820   8.238   6.168   9.300  0.1091  0.3580 -0.4383
 3706SOL     OW14821   8.301   5.088   1.619 -0.3016  0.0159 -0.1412
 3706SOL    HW114822   8.344   5.025   1.677  1.0610  0.6097 -0.4756
 3706SOL    HW214823   8.259   5.150   1.678 -0.8907 -0.6805  0.1911
 3706SOL     MW14824   8.301   5.088   1.634 -0.2026  0.0028 -0.1414
 3707SOL     OW14825   7.477   9.387   8.938  0.0694 -0.0446  0.1112
 3707SOL    HW114826   7.389   9.417   8.913 -0.2490  0.2118  1.4498
 3707SOL    HW214827   7.468   9.292   8.946  0.1413 -0.1151 -0.5572
 3707SOL     MW14828   7.464   9.379   8.936  0.0378 -0.0208  0.1970
 3708SOL     OW14829   8.974   9.894   2.387 -0.4373  0.1920  0.4017
 3708SOL    HW114830   9.046   9.844   2.348 -1.6608 -2.2495  1.0545
 3708SOL    HW214831   9.012   9.934   2.465  0.4103 -0.4134  0.3184
 3708SOL     MW14832   8.988   9.893   2.392 -0.4854 -0.1980  0.4746
 3709SOL     OW14833   7.526   1.228   1.566 -0.1752 -0.4993  0.2309
 3709SOL    HW114834   7.433   1.213   1.581 -0.4642  0.7126 -0.2156
 3709SOL    HW214835   7.570   1.173   1.630 -1.1634 -1.9597 -0.2933
 3709SOL     MW14836   7.520   1.219   1.576 -0.3387 -0.5311  0.1066
 3710SOL     OW14837   7.570   7.950   1.104  0.0012 -0.2386  0.1016
 3710SOL    HW114838   7.552   7.859   1.082  2.1030 -0.6573 -0.0848
 3710SOL    HW214839   7.649   7.946   1.158 -1.7142  1.2181  2.9729
 3710SOL     MW14840   7.577   7.938   1.108  0.0507 -0.1057  0.4453
 3711SOL     OW14841   9.142   1.179   9.927  0.1672  0.4804 -0.7396
 3711SOL    HW114842   9.181   1.235   9.860 -1.6021  0.4016 -1.9149
 3711SOL    HW214843   9.214   1.125   9.959  1.2590  1.2356 -1.8602
 3711SOL     MW14844   9.156   1.179   9.922  0.0805  0.5670 -1.0335
 3712SOL     OW14845   7.101   0.807   1.306 -0.1186  0.1239 -0.0704
 3712SOL    HW114846   7.022   0.857   1.284 -0.6904 -1.0321 -0.7064
 3712SOL    HW214847   7.118   0.754   1.228  0.3498 -0.8344  0.6751
 3712SOL     MW14848   7.093   0.807   1.293 -0.1318 -0.1468 -0.0564
 3713SOL     OW14849   9.988   0.065   1.806  0.3309 -0.1595 -0.3702
 3713SOL    HW114850  10.021  -0.025   1.811 -0.9270 -0.5824  1.9815
 3713SOL    HW214851   9.903   0.061   1.849  1.0982  2.4877  1.6728
 3713SOL     MW14852   9.982   0.053   1.812  0.2681  0.1253  0.1924
 3714SOL     OW14853   8.439   4.114   9.882  0.1626 -0.4688 -0.0063
 3714SOL    HW114854   8.526   4.075   9.872  0.0201 -1.3842  1.7923
 3714SOL    HW214855   8.449   4.176   9.954 -0.3368  0.5705 -0.8157
 3714SOL     MW14856   8.452   4.117   9.890  0.0804 -0.4530  0.1203
 3715SOL     OW14857   8.081   2.293   9.994  0.8867 -0.1888  0.3028
 3715SOL    HW114858   8.128   2.376   9.997 -0.6843  0.8358 -1.1799
 3715SOL    HW214859   7.993   2.317   9.965 -0.1011 -2.1923  1.4761
 3715SOL     MW14860   8.076   2.306   9.990  0.5592 -0.3141  0.2632
 3716SOL     OW14861   8.861   3.313   1.275  0.0323  0.3675 -0.2947
 3716SOL    HW114862   8.927   3.264   1.323  0.7036 -0.0226 -1.5818
 3716SOL    HW214863   8.781   3.302   1.326  0.7301  0.0053  0.7457
 3716SOL     MW14864   8.859   3.306   1.287  0.2076  0.2712 -0.3263
 3717SOL     OW14865   6.872   3.728   2.070  0.6764 -0.2879  0.0900
 3717SOL    HW114866   6.854   3.658   2.008  1.3230 -1.4696  1.1780
 3717SOL    HW214867   6.790   3.778   2.075  0.6707 -0.0384 -1.8100
 3717SOL     MW14868   6.859   3.726   2.063  0.7585 -0.4072 -0.0140
 3718SOL     OW14869   7.541   7.676   9.476  0.1058  0.3231 -0.3292
 3718SOL    HW114870   7.530   7.585   9.450  0.2579  0.1069  0.3580
 3718SOL    HW214871   7.477   7.724   9.423 -2.6862 -0.6068  1.9452
 3718SOL     MW14872   7.531   7.671   9.466 -0.2321  0.1764  0.0499
 3719SOL     OW14873   8.687   4.452   9.883  0.3168 -0.2363 -0.1362
 3719SOL    HW114874   8.618   4.402   9.929 -0.2681 -0.0586 -0.8026
 3719SOL    HW214875   8.641   4.493   9.810  0.8225  1.1775  0.3204
 3719SOL     MW14876   8.672   4.451   9.880  0.3067 -0.0326 -0.1631
 3720SOL     OW14877   7.672   2.495   2.703  0.3910  0.6070  0.1508
 3720SOL    HW114878   7.602   2.441   2.739  1.0457 -2.3270 -2.5032
 3720SOL    HW214879   7.750   2.470   2.752  0.2868  0.8757  0.4539
 3720SOL     MW14880   7.673   2.485   2.714  0.4615  0.2658 -0.1502
 3721SOL     OW14881   0.270   4.231   1.655 -0.4016  0.5583 -0.6500
 3721SOL    HW114882   0.342   4.185   1.699 -0.4762  0.7982 -0.2746
 3721SOL    HW214883   0.199   4.167   1.653  0.1444 -0.0277 -1.9276
 3721SOL     MW14884   0.270   4.217   1.661 -0.3412  0.5140 -0.7655
 3722SOL     OW14885   7.157   1.721   0.568 -0.8154 -0.2393  0.1122
 3722SOL    HW114886   7.097   1.700   0.639 -1.5327 -0.4888 -0.5524
 3722SOL    HW214887   7.133   1.810   0.541 -1.4136 -0.6270 -0.6660
 3722SOL     MW14888   7.147   1.730   0.573 -0.9838 -0.3208 -0.0725
 3723SOL     OW14889   6.908   8.616   1.278  0.2774 -0.2551  0.3214
 3723SOL    HW114890   6.979   8.553   1.293 -0.1559 -0.3108  2.3701
 3723SOL    HW214891   6.946   8.701   1.302  0.2819  0.0453 -0.6720
 3723SOL     MW14892   6.922   8.619   1.283  0.2225 -0.2238  0.4565
 3724SOL     OW14893   7.859   1.696   8.950 -0.5966 -0.2079  0.1929
 3724SOL    HW114894   7.769   1.729   8.941 -0.9099 -1.0596  0.0250
 3724SOL    HW214895   7.913   1.774   8.959 -0.8646  0.5995 -3.4895
 3724SOL     MW14896   7.854   1.710   8.950 -0.6710 -0.2136 -0.3000
 3725SOL     OW14897   7.012   2.382   2.111  0.4932  0.0224 -0.2815
 3725SOL    HW114898   7.024   2.289   2.091  0.3833 -0.0845  0.1429
 3725SOL    HW214899   6.976   2.419   2.031  0.0856 -0.3969 -0.2953
 3725SOL     MW14900   7.009   2.375   2.098  0.4269 -0.0449 -0.2289
 3726SOL     OW14901   0.212   0.683   0.930 -0.1257 -0.2878 -0.2865
 3726SOL    HW114902   0.277   0.631   0.883  0.4247  0.9106 -0.8844
 3726SOL    HW214903   0.259   0.720   1.004 -0.2902  0.0814 -0.3652
 3726SOL     MW14904   0.226   0.681   0.934 -0.0763 -0.0871 -0.3731
 3727SOL     OW14905   8.754   4.021   1.914 -0.0649  0.2877  0.5417
 3727SOL    HW114906   8.718   3.974   1.839 -0.4486  1.2252  0.1229
 3727SOL    HW214907   8.706   4.104   1.916  1.1495  1.0053  0.7710
 3727SOL     MW14908   8.743   4.026   1.905  0.0414  0.4996  0.5174
 3728SOL     OW14909   7.132   9.900  10.088  0.0999  0.4653 -0.5825
 3728SOL    HW114910   7.059   9.961  10.098  0.4308  0.5304  2.0119
 3728SOL    HW214911   7.094   9.814  10.107  0.9057  0.6610  2.3514
 3728SOL     MW14912   7.118   9.897  10.092  0.2454  0.4987  0.1252
 3729SOL     OW14913   8.057   8.495   9.136  0.4082  0.5433 -0.2083
 3729SOL    HW114914   7.981   8.549   9.113  0.4221  0.8972  0.5488
 3729SOL    HW214915   8.057   8.425   9.070  0.1017  1.1832 -0.9056
 3729SOL     MW14916   8.047   8.493   9.124  0.3707  0.6705 -0.2007
 3730SOL     OW14917   9.185   1.359   1.964 -0.5999 -0.1167 -0.4679
 3730SOL    HW114918   9.266   1.402   1.937 -0.6448 -0.1580 -0.6756
 3730SOL    HW214919   9.190   1.272   1.924 -0.4330 -0.3626  0.0902
 3730SOL     MW14920   9.196   1.354   1.955 -0.5843 -0.1535 -0.4230
 3731SOL     OW14921   9.573   4.234   1.913  0.0237 -0.0849 -0.2199
 3731SOL    HW114922   9.576   4.328   1.894  1.0326 -0.0165  0.2205
 3731SOL    HW214923   9.608   4.226   2.001 -1.3028 -0.7585  0.2864
 3731SOL     MW14924   9.578   4.245   1.922 -0.0170 -0.1624 -0.0987
 3732SOL     OW14925   7.873   6.724   0.604 -0.1196 -0.4796 -0.1578
 3732SOL    HW114926   7.914   6.796   0.651  0.5806  1.1608 -3.0325
 3732SOL    HW214927   7.779   6.738   0.616  0.0368 -0.0041  0.5505
 3732SOL     MW14928   7.866   6.735   0.611 -0.0100 -0.2088 -0.4351
 3733SOL     OW14929   8.239   3.215   9.863 -0.3977 -0.0885 -0.3161
 3733SOL    HW114930   8.171   3.249   9.921 -1.9654  0.0832 -2.1524
 3733SOL    HW214931   8.299   3.288   9.849 -1.3797  0.6297 -0.8406
 3733SOL     MW14932   8.238   3.228   9.869 -0.7241  0.0254 -0.6183
 3734SOL     OW14933   9.322   0.528   1.169 -0.0612  0.1216  0.0820
 3734SOL    HW114934   9.405   0.530   1.121  0.6570  0.3885  1.2932
 3734SOL    HW214935   9.259   0.496   1.105  0.9650 -0.0643 -0.8812
 3734SOL     MW14936   9.325   0.524   1.155  0.1621  0.1320  0.1138
 3735SOL     OW14937   9.362   8.725   9.249  0.4059 -0.5983 -0.1224
 3735SOL    HW114938   9.445   8.683   9.270  0.8411  0.7716  1.1114
 3735SOL    HW214939   9.334   8.684   9.167  1.7071 -1.9024  0.0465
 3735SOL     MW14940   9.369   8.715   9.241  0.6282 -0.5899  0.0572
 3736SOL     OW14941   8.959   2.524  10.025  0.3968  0.1549  0.0669
 3736SOL    HW114942   9.003   2.453   9.978  0.3200  0.9163 -1.2085
 3736SOL    HW214943   9.008   2.534  10.106 -0.6939 -2.5739  1.1676
 3736SOL     MW14944   8.971   2.516  10.029  0.2474 -0.0970  0.0446
 3737SOL     OW14945   7.804   6.164   2.039  0.6022  0.5567  0.3335
 3737SOL    HW114946   7.815   6.114   2.120  1.7171  0.5612  0.1985
 3737SOL    HW214947   7.812   6.255   2.065 -0.3980  0.6368  0.4143
 3737SOL     MW14948   7.806   6.169   2.053  0.6168  0.5675  0.3266
 3738SOL     OW14949   8.211   5.127   2.346  0.1087 -0.0568 -0.1404
 3738SOL    HW114950   8.285   5.083   2.387 -0.5754 -0.4793  0.6803
 3738SOL    HW214951   8.141   5.062   2.347 -0.1225  0.1415 -1.4170
 3738SOL     MW14952   8.211   5.113   2.352 -0.0085 -0.0855 -0.1988
 3739SOL     OW14953   6.324   1.956   1.621 -0.1941  0.0288  0.1378
 3739SOL    HW114954   6.359   2.034   1.578  1.3326 -0.8465 -0.3011
 3739SOL    HW214955   6.258   1.990   1.682  0.7513  1.7110  0.2984
 3739SOL     MW14956   6.320   1.970   1.624  0.1223  0.1321  0.1022
 3740SOL     OW14957   9.646   3.017   9.604  0.0292  0.4183 -0.0893
 3740SOL    HW114958   9.583   2.987   9.670  0.2303 -0.2560 -0.1958
 3740SOL    HW214959   9.595   3.026   9.524  0.1865 -0.7800 -0.3406
 3740SOL     MW14960   9.632   3.014   9.602  0.0751  0.1786 -0.1351
 3741SOL     OW14961   9.499  10.040   0.713 -0.7640 -0.0067 -0.0275
 3741SOL    HW114962   9.561  10.105   0.745  0.2090 -0.6818 -0.5175
 3741SOL    HW214963   9.449  10.014   0.791 -0.8350  0.9380  0.2656
 3741SOL     MW14964   9.500  10.045   0.727 -0.6486  0.0278 -0.0527
 3742SOL     OW14965   7.320   8.891   9.714  0.1035  0.0804  0.8164
 3742SOL    HW114966   7.390   8.836   9.678 -0.2127 -0.2539  0.7115
 3742SOL    HW214967   7.268   8.831   9.768 -1.0633 -0.0383 -0.4146
 3742SOL     MW14968   7.323   8.876   9.717 -0.0863  0.0224  0.6454
 3743SOL     OW14969   8.787   0.441   0.105  0.3531  0.1099  0.7957
 3743SOL    HW114970   8.814   0.523   0.148 -1.3334  1.5330 -0.6812
 3743SOL    HW214971   8.807   0.456   0.012  1.8000 -1.9752  0.7120
 3743SOL     MW14972   8.793   0.454   0.099  0.3224  0.0252  0.5959
 3744SOL     OW14973   7.475   2.812   9.575  0.3379  0.4806  0.7625
 3744SOL    HW114974   7.461   2.895   9.622  1.7645  0.6340  0.9674
 3744SOL    HW214975   7.570   2.808   9.562  0.0858 -0.1158 -1.1293
 3744SOL     MW14976   7.486   2.822   9.580  0.4883  0.4239  0.5466
 3745SOL     OW14977   8.329   6.706   9.551 -0.4273  0.2162 -0.5227
 3745SOL    HW114978   8.320   6.615   9.577 -2.0685  0.6663  0.6292
 3745SOL    HW214979   8.334   6.703   9.456  0.8716 -1.1459 -0.4449
 3745SOL     MW14980   8.328   6.694   9.542 -0.4711  0.0995 -0.3653
 3746SOL     OW14981   9.620   9.776   1.126 -0.5304 -0.1861 -0.4775
 3746SOL    HW114982   9.664   9.721   1.062  2.2693 -0.2593  1.3536
 3746SOL    HW214983   9.626   9.865   1.090  1.3972 -0.1629 -0.1980
 3746SOL     MW14984   9.626   9.781   1.113  0.0748 -0.1925 -0.2074
 3747SOL     OW14985   9.270  10.004   0.203 -0.1915  0.0292  0.4851
 3747SOL    HW114986   9.258   9.914   0.175  1.6288 -1.2950  3.4223
 3747SOL    HW214987   9.362  10.008   0.231 -0.0497  2.9890 -0.0771
 3747SOL     MW14988   9.280   9.993   0.203  0.0597  0.2386  0.7891
 3748SOL     OW14989   8.819   4.988   0.579 -0.1773 -0.1687 -0.3860
 3748SOL    HW114990   8.780   4.921   0.636 -1.0196  0.5006 -0.1517
 3748SOL    HW214991   8.795   5.071   0.620 -0.5758  0.3226 -1.5787
 3748SOL     MW14992   8.811   4.990   0.592 -0.3361 -0.0201 -0.5087
 3749SOL     OW14993   9.110   0.423   2.547  0.2373 -0.3113 -0.0140
 3749SOL    HW114994   9.030   0.394   2.503 -0.5653  0.7349  0.6986
 3749SOL    HW214995   9.172   0.352   2.532 -1.0600 -1.5230  0.0759
 3749SOL     MW14996   9.107   0.410   2.539 -0.0316 -0.3325  0.0887
 3750SOL     OW14997   6.390   4.348   1.544  0.0870 -0.5037 -0.6326
 3750SOL    HW114998   6.414   4.284   1.610 -1.5782 -0.2411  0.2909
 3750SOL    HW214999   6.397   4.300   1.461 -0.8594 -1.8328  0.0093
 3750SOL     MW15000   6.394   4.334   1.542 -0.2473 -0.6402 -0.4322
 3751SOL     OW15001   6.841   8.642   1.613  0.3719 -0.2707 -0.2122
 3751SOL    HW115002   6.822   8.553   1.642  0.2557  0.0387  0.7158
 3751SOL    HW215003   6.839   8.694   1.694  0.3067  0.5944 -0.7574
 3751SOL     MW15004   6.838   8.637   1.627  0.3487 -0.1203 -0.1632
 3752SOL     OW15005   9.894   4.404   2.157  0.5086 -0.3114 -0.2743
 3752SOL    HW115006   9.818   4.352   2.184  0.4705 -0.7908 -1.2646
 3752SOL    HW215007   9.946   4.343   2.104  1.9713 -0.2321  0.9909
 3752SOL     MW15008   9.891   4.389   2.154  0.6910 -0.3626 -0.2391
 3753SOL     OW15009   9.772   3.203   9.833 -0.5885 -0.3888  0.1584
 3753SOL    HW115010   9.814   3.132   9.784  0.5297  1.0758 -1.1261
 3753SOL    HW215011   9.726   3.159   9.905 -1.2212 -2.5424 -1.4471
 3753SOL     MW15012   9.772   3.188   9.836 -0.5264 -0.4770 -0.2116
 3754SOL     OW15013   9.933   3.062  10.135  0.1169  0.3961 -0.5026
 3754SOL    HW115014  10.010   3.025  10.177  0.2298 -0.2827 -1.2856
 3754SOL    HW215015   9.965   3.141  10.091  0.1583  0.6617 -0.0035
 3754SOL     MW15016   9.947   3.067  10.135  0.1366  0.3432 -0.5390
 3755SOL     OW15017   7.765   9.845   0.768 -0.2659  0.5288  0.2827
 3755SOL    HW115018   7.845   9.798   0.793 -0.7838  0.1534  1.2769
 3755SOL    HW215019   7.793   9.903   0.697  0.9785  0.6783  0.8591
 3755SOL     MW15020   7.779   9.847   0.762 -0.1729  0.4999  0.4838
 3756SOL     OW15021   0.378   9.687   1.057  0.4206 -0.5805 -0.5416
 3756SOL    HW115022   0.448   9.703   1.120 -0.7767 -0.3276  0.7563
 3756SOL    HW215023   0.356   9.594   1.068  0.7428 -0.7410 -1.1719
 3756SOL     MW15024   0.384   9.677   1.066  0.3086 -0.5687 -0.4561
 3757SOL     OW15025   7.058   2.118   2.063 -0.0512 -0.8554 -0.3941
 3757SOL    HW115026   7.139   2.067   2.057  0.4656  0.0160 -1.1911
 3757SOL    HW215027   7.030   2.129   1.972  1.6028  2.9089 -0.6272
 3757SOL     MW15028   7.065   2.113   2.051  0.2267 -0.2620 -0.5260
 3758SOL     OW15029   6.699   0.160   2.609  0.0839 -0.0006  0.4913
 3758SOL    HW115030   6.721   0.231   2.548  1.2135  0.0020  0.8884
 3758SOL    HW215031   6.687   0.203   2.693 -0.9060 -0.0784  0.3972
 3758SOL     MW15032   6.700   0.175   2.612  0.1018 -0.0102  0.5301
 3759SOL     OW15033   9.374   3.702  10.123 -0.3230  0.6083 -0.2860
 3759SOL    HW115034   9.288   3.716  10.164  0.5615  1.1159  1.4975
 3759SOL    HW215035   9.403   3.618  10.157  0.5890  1.2045  0.4476
 3759SOL     MW15036   9.366   3.693  10.133 -0.0930  0.7496  0.0362
 3760SOL     OW15037   7.560   8.673   0.068 -0.4393 -0.0313  0.5579
 3760SOL    HW115038   7.564   8.610   0.140 -3.4641 -0.1430  0.7441
 3760SOL    HW215039   7.478   8.721   0.082  0.4881  2.1928 -1.0291
 3760SOL     MW15040   7.550   8.671   0.079 -0.7078  0.2391  0.3785
 3761SOL     OW15041   9.239   1.448  10.033  0.1411  0.3905 -0.3219
 3761SOL    HW115042   9.163   1.497  10.064  0.4236 -0.0853  1.1548
 3761SOL    HW215043   9.290   1.428  10.111  0.8012 -0.9871 -1.0562
 3761SOL     MW15044   9.236   1.452  10.047  0.2618  0.1532 -0.2268
 3762SOL     OW15045   9.182   9.278   2.692 -0.5027 -0.3816 -0.2728
 3762SOL    HW115046   9.194   9.218   2.766 -0.3305  0.4074  0.3527
 3762SOL    HW215047   9.262   9.267   2.640 -1.2844 -2.0431 -1.1664
 3762SOL     MW15048   9.194   9.269   2.695 -0.5807 -0.4933 -0.3071
 3763SOL     OW15049  10.135   3.705   1.548 -0.2029  0.3092 -0.6658
 3763SOL    HW115050  10.176   3.627   1.512 -0.6285  0.0618 -0.6221
 3763SOL    HW215051  10.178   3.778   1.504  1.5409  0.1485  0.6624
 3763SOL     MW15052  10.145   3.705   1.538 -0.0341  0.2570 -0.4902
 3764SOL     OW15053   6.782   7.441   9.455  0.3980  0.2104  0.0191
 3764SOL    HW115054   6.773   7.536   9.465  1.4134  0.3983 -0.7500
 3764SOL    HW215055   6.865   7.420   9.497  1.0095 -0.0802 -1.2900
 3764SOL     MW15056   6.791   7.451   9.462  0.6063  0.1972 -0.2469
 3765SOL     OW15057   6.317   1.050   1.075 -0.0967  0.1613  0.3720
 3765SOL    HW115058   6.316   0.955   1.064  1.1516  0.1293  0.3828
 3765SOL    HW215059   6.258   1.067   1.148  1.4185 -0.8476  1.9007
 3765SOL     MW15060   6.309   1.040   1.083  0.2571  0.0281  0.5691
 3766SOL     OW15061  10.049   1.158   1.724  0.0974 -0.2944  0.1155
 3766SOL    HW115062   9.976   1.104   1.694 -0.8237  1.7423 -1.5794
 3766SOL    HW215063  10.116   1.095   1.751 -2.0180 -2.2488  1.2172
 3766SOL     MW15064  10.048   1.143   1.724 -0.2913 -0.2838  0.0396
 3767SOL     OW15065   8.200   4.952   9.560  0.4242  0.4951  0.4939
 3767SOL    HW115066   8.231   4.955   9.470 -0.2823  0.7905  0.2564
 3767SOL    HW215067   8.256   4.887   9.603 -0.2191 -0.7665 -0.5227
 3767SOL     MW15068   8.211   4.944   9.554  0.2514  0.3714  0.3334
 3768SOL     OW15069   7.948   0.860   9.898 -0.1402 -0.0263  0.3599
 3768SOL    HW115070   7.902   0.827   9.975  0.6247 -1.1135  0.3705
 3768SOL    HW215071   7.964   0.782   9.845 -0.9502  0.7398 -1.0835
 3768SOL     MW15072   7.944   0.846   9.901 -0.1460 -0.0674  0.1765
 3769SOL     OW15073   7.801   9.974   1.720 -0.1734  0.2248 -0.3287
 3769SOL    HW115074   7.811  10.019   1.636  2.7816 -0.6336 -0.5304
 3769SOL    HW215075   7.795  10.045   1.784 -0.3287  0.8915 -1.0644
 3769SOL     MW15076   7.801   9.989   1.717  0.1850  0.2003 -0.4487
 3770SOL     OW15077  10.074   4.016   0.841 -0.0243 -0.2818 -0.2352
 3770SOL    HW115078  10.013   3.976   0.903  0.5541  0.9285  1.1751
 3770SOL    HW215079  10.036   4.101   0.820  1.7078  1.0613  1.6873
 3770SOL     MW15080  10.062   4.022   0.846  0.2715  0.0450  0.1914
 3771SOL     OW15081   8.063   6.286   0.142 -0.0640  0.1515  0.3372
 3771SOL    HW115082   8.110   6.370   0.144  0.9415 -0.3673 -0.3552
 3771SOL    HW215083   8.126   6.223   0.174 -1.2630 -0.1839  2.1755
 3771SOL     MW15084   8.077   6.289   0.146 -0.0888  0.0421  0.4839
 3772SOL     OW15085   9.772   9.333   9.615  0.0173 -0.2264  0.2588
 3772SOL    HW115086   9.849   9.278   9.604 -0.9746 -1.4055 -1.1682
 3772SOL    HW215087   9.779   9.399   9.546  0.5489  0.6965  1.1620
 3772SOL     MW15088   9.782   9.335   9.605 -0.0416 -0.2592  0.1917
 3773SOL     OW15089   8.831   3.954   0.419 -0.1296  0.1674 -0.4421
 3773SOL    HW115090   8.901   3.952   0.484 -0.0891  1.5317 -0.4042
 3773SOL    HW215091   8.876   3.940   0.336 -0.2037 -1.7410 -0.1898
 3773SOL     MW15092   8.846   3.952   0.417 -0.1339  0.0977 -0.4049
 3774SOL     OW15093   9.248   7.558   9.135 -0.6527 -0.2863  0.6473
 3774SOL    HW115094   9.265   7.474   9.093 -2.4375 -0.0524 -0.6737
 3774SOL    HW215095   9.324   7.574   9.190  0.9636 -1.5113 -1.1281
 3774SOL     MW15096   9.260   7.550   9.137 -0.6742 -0.4132  0.2509
 3775SOL     OW15097  10.032   6.086   0.558  0.5698 -0.4510  0.5619
 3775SOL    HW115098   9.987   6.015   0.511 -0.9498  0.0630  1.1933
 3775SOL    HW215099  10.001   6.166   0.516 -1.8880  0.1287  3.1587
 3775SOL     MW15100  10.022   6.087   0.546  0.0607 -0.3110  0.9751
 3776SOL     OW15101   8.805   9.281   3.107 -0.2195  0.1949  0.3402
 3776SOL    HW115102   8.758   9.214   3.156 -0.2198 -0.2557 -0.2604
 3776SOL    HW215103   8.793   9.256   3.015  0.2095  0.7317  0.1324
 3776SOL     MW15104   8.797   9.269   3.101 -0.1646  0.2059  0.2367
 3777SOL     OW15105   6.334   5.648   0.856  0.2024  0.7951  0.1309
 3777SOL    HW115106   6.422   5.623   0.885 -0.0574 -0.8194 -0.3545
 3777SOL    HW215107   6.324   5.739   0.885  2.0029  1.0030  0.2247
 3777SOL     MW15108   6.344   5.656   0.864  0.3996  0.6150  0.0807
 3778SOL     OW15109   7.943   6.483   9.256 -0.4062 -0.2943 -0.1906
 3778SOL    HW115110   7.849   6.471   9.249 -0.4187 -0.7665  0.6482
 3778SOL    HW215111   7.958   6.574   9.229 -1.2537  0.1666  0.7908
 3778SOL     MW15112   7.933   6.493   9.252 -0.5163 -0.2958  0.0424
 3779SOL     OW15113   8.936   2.640   9.781 -0.3913 -0.0261 -0.4319
 3779SOL    HW115114   8.933   2.618   9.874  0.4398  1.1308 -0.1132
 3779SOL    HW215115   8.925   2.735   9.779 -1.0810 -0.1221 -1.5648
 3779SOL     MW15116   8.934   2.649   9.793 -0.3732  0.1097 -0.5361
 3780SOL     OW15117   9.855   4.955   2.305 -0.0250  0.2880 -0.2009
 3780SOL    HW115118   9.874   4.973   2.213  1.0546  0.2551  0.0110
 3780SOL    HW215119   9.932   4.909   2.337 -0.4767  0.1261  0.6800
 3780SOL     MW15120   9.867   4.951   2.297  0.0554  0.2631 -0.0610
 3781SOL     OW15121   0.014   9.645   0.844 -0.0289  0.2863 -0.3227
 3781SOL    HW115122  -0.059   9.625   0.903  0.4893 -1.1654 -0.1224
 3781SOL    HW215123   0.050   9.727   0.878  0.6226 -0.8134  1.7911
 3781SOL     MW15124   0.009   9.653   0.856  0.1209 -0.0403 -0.0265
 3782SOL     OW15125   8.298   5.683   0.807  0.5784 -0.5825 -0.5745
 3782SOL    HW115126   8.391   5.703   0.816  1.0314 -2.0430 -1.4622
 3782SOL    HW215127   8.282   5.688   0.712 -0.6509  1.1449 -0.3184
 3782SOL     MW15128   8.308   5.686   0.796  0.4790 -0.5483 -0.6554
 3783SOL     OW15129   9.775   0.421   1.043  0.0024 -0.1990 -0.0817
 3783SOL    HW115130   9.839   0.464   1.100 -2.6707  1.0579  2.2095
 3783SOL    HW215131   9.729   0.359   1.100  0.0209 -2.0673 -1.9826
 3783SOL     MW15132   9.777   0.418   1.057 -0.3374 -0.2773 -0.0317
 3784SOL     OW15133   9.564   9.710   2.789 -0.2552  0.3829 -0.0026
 3784SOL    HW115134   9.522   9.691   2.873  0.2640 -0.6635  0.0398
 3784SOL    HW215135   9.607   9.628   2.765  1.3638  1.2648 -0.2616
 3784SOL     MW15136   9.564   9.697   2.796  0.0185  0.3618 -0.0303
 3785SOL     OW15137   9.907   1.266   0.232 -0.6957 -0.2349  0.4487
 3785SOL    HW115138   9.913   1.172   0.216 -0.4369 -0.4592  1.7213
 3785SOL    HW215139   9.817   1.289   0.209 -1.1128 -1.0305  1.2182
 3785SOL     MW15140   9.896   1.257   0.227 -0.7160 -0.3654  0.7101
 3786SOL     OW15141   8.759   2.809   2.855  0.4256 -0.2132 -0.5835
 3786SOL    HW115142   8.720   2.784   2.938  0.4699  1.4256 -0.0345
 3786SOL    HW215143   8.842   2.849   2.878  0.6283 -0.1170 -1.4498
 3786SOL     MW15144   8.764   2.811   2.868  0.4572  0.0089 -0.6241
 3787SOL     OW15145   8.775   6.510   3.103 -0.2150 -0.3946  0.5755
 3787SOL    HW115146   8.724   6.468   3.034 -0.3017  0.5361  0.0576
 3787SOL    HW215147   8.813   6.437   3.152 -0.7455 -1.0794 -0.0063
 3787SOL     MW15148   8.773   6.495   3.100 -0.2940 -0.3631  0.4347
 3788SOL     OW15149   6.995   8.184   1.777 -0.0566 -0.2946 -0.0745
 3788SOL    HW115150   7.091   8.189   1.775 -0.0800  0.2137 -1.7824
 3788SOL    HW215151   6.975   8.114   1.714 -0.8220 -0.1719  0.0344
 3788SOL     MW15152   7.005   8.175   1.768 -0.1576 -0.2138 -0.2792
 3789SOL     OW15153   7.869   8.313   1.916  0.6139  0.0374  0.0440
 3789SOL    HW115154   7.864   8.285   1.824  1.6882 -0.8672  0.2439
 3789SOL    HW215155   7.800   8.380   1.924  1.3702  1.1075 -1.7551
 3789SOL     MW15156   7.859   8.318   1.905  0.8482  0.0586 -0.1607
 3790SOL     OW15157   8.545   9.721   8.673 -0.2354 -0.0103  0.4195
 3790SOL    HW115158   8.449   9.720   8.665 -0.1959 -2.4436 -0.6527
 3790SOL    HW215159   8.569   9.812   8.656 -2.2803  0.4155 -0.5538
 3790SOL     MW15160   8.536   9.733   8.670 -0.4921 -0.2673  0.1577
 3791SOL     OW15161   7.701   1.477   1.939  0.3921 -0.0382  0.2226
 3791SOL    HW115162   7.649   1.451   1.863  1.3237  0.7158 -0.6924
 3791SOL    HW215163   7.643   1.533   1.990 -0.5039 -1.1746  0.4996
 3791SOL     MW15164   7.687   1.481   1.936  0.3966 -0.0871  0.1409
 3792SOL     OW15165   7.882   9.166   2.582 -0.1586 -0.0497  0.3501
 3792SOL    HW115166   7.796   9.163   2.539 -1.4934  0.6251  2.7819
 3792SOL    HW215167   7.922   9.081   2.561 -2.5641 -1.5119  1.2995
 3792SOL     MW15168   7.876   9.155   2.573 -0.6374 -0.1505  0.7829
 3793SOL     OW15169   7.230   2.428   1.782  0.0126  0.0659 -0.1755
 3793SOL    HW115170   7.301   2.372   1.751 -0.7922 -1.2816  0.3234
 3793SOL    HW215171   7.234   2.506   1.727  2.2611  0.2990  0.2501
 3793SOL     MW15172   7.239   2.431   1.771  0.1974 -0.0767 -0.0571
 3794SOL     OW15173   9.925   8.876   2.196 -0.1684  0.7380  0.0903
 3794SOL    HW115174   9.836   8.870   2.232 -0.5975  0.6961 -0.9460
 3794SOL    HW215175   9.913   8.867   2.102  0.7757  2.2255 -0.2025
 3794SOL     MW15176   9.912   8.874   2.189 -0.1024  0.9230 -0.0799
 3795SOL     OW15177   9.271   7.408   2.052 -0.2023 -0.0211 -0.4607
 3795SOL    HW115178   9.178   7.402   2.030 -0.6316 -1.2643  1.4100
 3795SOL    HW215179   9.290   7.501   2.052 -2.3492  0.5721  2.2173
 3795SOL     MW15180   9.261   7.419   2.049 -0.5321 -0.1043  0.1216
 3796SOL     OW15181   8.446   3.131   0.949 -1.1193 -0.5867 -1.0589
 3796SOL    HW115182   8.529   3.106   0.989 -1.5898  0.5531  0.7292
 3796SOL    HW215183   8.440   3.076   0.871  0.5918 -1.7755 -0.4166
 3796SOL     MW15184   8.456   3.120   0.944 -0.9605 -0.5930 -0.7477
 3797SOL     OW15185   9.182   7.425   0.566 -0.2654 -0.0564 -0.3414
 3797SOL    HW115186   9.125   7.367   0.516 -0.1596 -0.3892 -0.0771
 3797SOL    HW215187   9.230   7.367   0.625 -0.8457  0.3926  0.6069
 3797SOL     MW15188   9.181   7.410   0.567 -0.3262 -0.0415 -0.1861
 3798SOL     OW15189   0.083  10.032  10.092 -0.1309 -0.9834  0.3566
 3798SOL    HW115190  -0.005  10.067  10.110 -0.0115 -1.0324  1.0832
 3798SOL    HW215191   0.067   9.942  10.064 -0.4368 -0.3868 -1.4844
 3798SOL     MW15192   0.070  10.024  10.091 -0.1548 -0.9133  0.2139
 3799SOL     OW15193   9.523   3.008   1.336 -0.0073 -0.0534  0.0285
 3799SOL    HW115194   9.446   3.058   1.309 -0.1872 -0.6069 -0.5112
 3799SOL    HW215195   9.595   3.070   1.328 -0.4096  0.5222  0.7036
 3799SOL     MW15196   9.522   3.023   1.331 -0.0818 -0.0506  0.0458
 3800SOL     OW15197   9.751   4.825   0.325 -0.1743 -0.0440 -0.0450
 3800SOL    HW115198   9.793   4.862   0.403 -0.2030 -0.3127  0.0995
 3800SOL    HW215199   9.816   4.765   0.289 -0.7760 -1.1693  0.7055
 3800SOL     MW15200   9.765   4.822   0.330 -0.2550 -0.2224  0.0696
 3801SOL     OW15201   6.773   7.458   9.932 -0.1998 -0.4609 -0.5133
 3801SOL    HW115202   6.779   7.526  10.000  0.8064 -3.3135  2.5463
 3801SOL    HW215203   6.840   7.482   9.868  1.1188  0.7012  1.2038
 3801SOL     MW15204   6.783   7.470   9.933  0.0978 -0.6773  0.0982
 3802SOL     OW15205   9.861   5.031   1.509  0.6024 -0.2399 -0.2786
 3802SOL    HW115206   9.917   5.103   1.481 -0.0584 -0.2167 -1.6104
 3802SOL    HW215207   9.827   5.059   1.594  1.0349  0.6287 -0.3800
 3802SOL     MW15208   9.864   5.044   1.517  0.5732 -0.1258 -0.4621
 3803SOL     OW15209   8.448   9.540   2.524  0.2581 -0.4551  0.2767
 3803SOL    HW115210   8.362   9.519   2.488  0.3710 -2.2422  0.9774
 3803SOL    HW215211   8.508   9.532   2.450 -0.0881  0.2833 -0.0965
 3803SOL     MW15212   8.445   9.537   2.510  0.2282 -0.5894  0.3186
 3804SOL     OW15213   7.765   7.116   0.455 -0.1694 -0.4704  0.5034
 3804SOL    HW115214   7.693   7.133   0.517 -0.2322  0.8796  0.0896
 3804SOL    HW215215   7.842   7.152   0.498 -0.3267  1.0987 -0.4620
 3804SOL     MW15216   7.765   7.123   0.469 -0.1976 -0.0967  0.3269
 3805SOL     OW15217   8.514   7.627   1.094 -0.4398 -0.0821 -0.4385
 3805SOL    HW115218   8.537   7.575   1.171  0.7072 -1.4697 -1.6392
 3805SOL    HW215219   8.482   7.563   1.031 -2.9689  1.2177 -0.6146
 3805SOL     MW15220   8.513   7.612   1.096 -0.6167 -0.0934 -0.6148
 3806SOL     OW15221   6.277   0.728   9.660 -0.5290 -0.0407  0.1365
 3806SOL    HW115222   6.339   0.792   9.696 -1.3368  0.4194  0.7425
 3806SOL    HW215223   6.230   0.695   9.736 -2.5482  1.2330 -0.4684
 3806SOL     MW15224   6.279   0.732   9.674 -0.8909  0.1813  0.1367
 3807SOL     OW15225   7.903   6.681   1.130 -0.0909  0.6312  0.1886
 3807SOL    HW115226   7.998   6.682   1.114  0.0895  0.2676  1.1563
 3807SOL    HW215227   7.892   6.731   1.210 -0.5321 -0.6636  0.9601
 3807SOL     MW15228   7.914   6.687   1.138 -0.1243  0.4189  0.4112
 3808SOL     OW15229   7.211   3.938   2.769 -0.4122 -0.4590 -0.1866
 3808SOL    HW115230   7.160   3.881   2.711  2.3570 -0.5743 -2.7479
 3808SOL    HW215231   7.252   3.878   2.831  1.2431 -1.2058 -1.8946
 3808SOL     MW15232   7.209   3.923   2.769  0.1542 -0.5693 -0.7331
 3809SOL     OW15233   8.424   7.621   2.345  0.1860  0.1159  0.0962
 3809SOL    HW115234   8.340   7.597   2.307  0.7377  1.4400 -2.2073
 3809SOL    HW215235   8.405   7.644   2.436 -1.7933 -0.2268 -0.1973
 3809SOL     MW15236   8.411   7.621   2.352  0.0033  0.2415 -0.2362
 3810SOL     OW15237  10.128   3.396   1.906 -0.1075 -0.0662  0.0256
 3810SOL    HW115238  10.142   3.371   1.997 -0.1704 -0.5547 -0.0960
 3810SOL    HW215239  10.139   3.315   1.857  0.7103  0.3437 -0.4850
 3810SOL     MW15240  10.131   3.382   1.911 -0.0109 -0.0762 -0.0553
 3811SOL     OW15241   9.790   0.009   0.513  0.1431  0.3864 -0.6072
 3811SOL    HW115242   9.740   0.064   0.574  0.9679 -0.1527  0.5947
 3811SOL    HW215243   9.876   0.051   0.509  0.9838 -1.1042  0.8073
 3811SOL     MW15244   9.795   0.022   0.521  0.3563  0.1265 -0.2723
 3812SOL     OW15245   6.829   7.636  10.115 -0.4781  0.2414 -0.1352
 3812SOL    HW115246   6.791   7.675  10.194 -0.0040 -1.0864  0.7951
 3812SOL    HW215247   6.889   7.569  10.148  0.8593  0.6613 -1.6230
 3812SOL     MW15248   6.832   7.632  10.129 -0.2462  0.1252 -0.2065
 3813SOL     OW15249   7.673   0.167   2.264  0.2093 -0.0543 -0.4801
 3813SOL    HW115250   7.723   0.229   2.211  0.3644  0.4711  0.2655
 3813SOL    HW215251   7.585   0.202   2.267 -0.4590 -1.4196 -2.4951
 3813SOL     MW15252   7.668   0.179   2.258  0.1436 -0.1618 -0.6426
 3814SOL     OW15253   7.710   1.863   1.400  0.0588  0.0699 -0.3851
 3814SOL    HW115254   7.715   1.794   1.334 -0.0032 -0.6334  0.3237
 3814SOL    HW215255   7.634   1.915   1.375  0.6199  0.4115 -1.4230
 3814SOL     MW15256   7.701   1.861   1.389  0.1227  0.0236 -0.4272
 3815SOL     OW15257   6.811   0.810   2.254  0.3626 -0.0269 -0.5416
 3815SOL    HW115258   6.744   0.825   2.188 -0.1021  0.1619 -0.0286
 3815SOL    HW215259   6.850   0.896   2.269  1.1742 -0.2486 -1.3165
 3815SOL     MW15260   6.808   0.823   2.247  0.4070 -0.0311 -0.5751
 3816SOL     OW15261   8.619   5.910   0.169 -0.0976  0.1257 -0.8037
 3816SOL    HW115262   8.605   5.964   0.090  0.9982 -0.7503 -1.6383
 3816SOL    HW215263   8.658   5.829   0.135 -0.9336 -0.8529  0.5130
 3816SOL     MW15264   8.623   5.907   0.154 -0.0643 -0.1117 -0.7420
 3817SOL     OW15265  10.159   8.286   0.655 -0.3421  0.4527 -0.4957
 3817SOL    HW115266  10.093   8.223   0.626  1.1409 -0.9354 -1.0223
 3817SOL    HW215267  10.214   8.237   0.716 -0.6389  2.0049  1.1016
 3817SOL     MW15268  10.158   8.271   0.659 -0.1902  0.4737 -0.3586
 3818SOL     OW15269   6.829   6.576   0.801  0.5920  0.2768  0.7570
 3818SOL    HW115270   6.769   6.531   0.861 -0.2195 -0.2440 -0.4006
 3818SOL    HW215271   6.794   6.664   0.792  0.2167  0.0978  0.4084
 3818SOL     MW15272   6.817   6.582   0.807  0.4401  0.1872  0.5642
 3819SOL     OW15273   7.073   7.136   0.280  0.0486  0.1958 -0.0827
 3819SOL    HW115274   7.167   7.125   0.295  0.3587  0.6276 -1.5736
 3819SOL    HW215275   7.055   7.226   0.306  0.3404  0.5470 -1.0356
 3819SOL     MW15276   7.082   7.146   0.285  0.1257  0.2960 -0.3956
 3820SOL     OW15277   8.125   8.317   0.642 -0.0453  0.5912 -0.0676
 3820SOL    HW115278   8.078   8.254   0.587  0.8629 -0.3657  0.2265
 3820SOL    HW215279   8.055   8.367   0.685 -0.7762  1.1534 -1.8015
 3820SOL     MW15280   8.110   8.316   0.641 -0.0226  0.5407 -0.2519
 3821SOL     OW15281   7.400   8.504   2.239  0.0884  0.1895 -0.0040
 3821SOL    HW115282   7.394   8.595   2.211  0.4387 -0.0137 -0.7713
 3821SOL    HW215283   7.381   8.454   2.160  1.9429 -0.4041 -0.1287
 3821SOL     MW15284   7.397   8.509   2.225  0.3706  0.0875 -0.1182
 3822SOL     OW15285   9.716   9.251  10.079 -0.4694  0.3995  0.1213
 3822SOL    HW115286   9.698   9.321  10.142  0.3991 -0.1844  1.0386
 3822SOL    HW215287   9.630   9.213  10.061 -0.6804  0.2233  1.3902
 3822SOL     MW15288   9.702   9.255  10.085 -0.3852  0.3022  0.4012
 3823SOL     OW15289   7.846   2.690   9.822  0.2227 -0.3498 -0.1416
 3823SOL    HW115290   7.760   2.655   9.848 -0.6331  0.3145 -1.9094
 3823SOL    HW215291   7.892   2.615   9.785 -0.3150 -0.3327 -0.8602
 3823SOL     MW15292   7.841   2.676   9.821  0.0443 -0.2626 -0.4599
 3824SOL     OW15293   6.969   9.614   0.620  0.5680  0.4855 -0.7086
 3824SOL    HW115294   7.057   9.595   0.587  0.4959 -0.3001 -0.4696
 3824SOL    HW215295   6.914   9.544   0.586  1.0523 -2.3123  3.4887
 3824SOL     MW15296   6.973   9.603   0.612  0.6208  0.0268 -0.1407
 3825SOL     OW15297   7.627   4.748   9.389 -0.3552  0.7159  0.0842
 3825SOL    HW115298   7.567   4.820   9.410 -0.3981  0.6223  0.2854
 3825SOL    HW215299   7.582   4.697   9.322 -0.8438  0.1913  0.8090
 3825SOL     MW15300   7.614   4.751   9.383 -0.4232  0.6368  0.2027
 3826SOL     OW15301   7.679   8.648   0.432  0.0806 -0.7022  0.1246
 3826SOL    HW115302   7.626   8.626   0.509 -0.5803  0.0287 -0.1076
 3826SOL    HW215303   7.639   8.600   0.360 -0.1722 -0.2826 -0.0190
 3826SOL     MW15304   7.667   8.639   0.433 -0.0364 -0.5550  0.0765
 3827SOL     OW15305   8.177   8.517   2.591  0.2128  0.2446 -0.2172
 3827SOL    HW115306   8.132   8.433   2.591  0.1079  0.3018 -0.2901
 3827SOL    HW215307   8.241   8.509   2.520  0.0818  0.2935 -0.3386
 3827SOL     MW15308   8.180   8.505   2.582  0.1826  0.2582 -0.2420
 3828SOL     OW15309   7.988   7.222   0.522 -0.1890 -0.0902 -0.0461
 3828SOL    HW115310   8.025   7.169   0.451 -1.6931 -1.1834 -0.0593
 3828SOL    HW215311   7.997   7.312   0.492  0.3151 -0.4660 -1.0686
 3828SOL     MW15312   7.994   7.227   0.509 -0.3170 -0.2783 -0.1786
 3829SOL     OW15313   8.780   5.686   0.396 -0.8766 -0.5671 -0.0838
 3829SOL    HW115314   8.738   5.632   0.329 -1.2875  0.6878 -0.8779
 3829SOL    HW215315   8.844   5.628   0.437  0.3151 -1.0650 -2.4277
 3829SOL     MW15316   8.783   5.671   0.393 -0.7767 -0.4702 -0.4855
 3830SOL     OW15317   6.864   1.910   1.029  0.0636  0.0134  0.1250
 3830SOL    HW115318   6.799   1.941   1.092  0.7968 -1.2754  1.5963
 3830SOL    HW215319   6.815   1.855   0.969 -0.7359  1.6539 -0.7845
 3830SOL     MW15320   6.849   1.907   1.029  0.0552  0.0584  0.1969
 3831SOL     OW15321   6.371   5.909   1.632  0.0274  0.0735 -0.1810
 3831SOL    HW115322   6.350   5.889   1.723  0.7229 -0.6638 -0.1660
 3831SOL    HW215323   6.332   5.995   1.616 -1.4256 -0.4465  0.3544
 3831SOL     MW15324   6.363   5.917   1.641 -0.0696 -0.0875 -0.1105
 3832SOL     OW15325   7.844   0.753   1.207 -0.7271  0.2419 -0.5833
 3832SOL    HW115326   7.862   0.822   1.144 -0.6156 -0.3310 -1.1858
 3832SOL    HW215327   7.927   0.705   1.215 -0.0771  1.5882  1.6246
 3832SOL     MW15328   7.857   0.756   1.200 -0.6296  0.3409 -0.3778
 3833SOL     OW15329   9.178   0.425   1.590 -0.1847  0.5051  0.4510
 3833SOL    HW115330   9.228   0.395   1.514 -1.3959 -1.0494  0.2013
 3833SOL    HW215331   9.088   0.434   1.558 -0.7961 -0.5573  1.7415
 3833SOL     MW15332   9.173   0.422   1.576 -0.4180  0.1701  0.5842
 3834SOL     OW15333   9.090   8.213   1.012  0.2469  0.2206 -0.6125
 3834SOL    HW115334   9.168   8.160   1.030 -1.4240 -2.0165  0.5904
 3834SOL    HW215335   9.097   8.286   1.074  0.2392 -1.2717  1.2486
 3834SOL     MW15336   9.101   8.215   1.022  0.0320 -0.2568 -0.2203
 3835SOL     OW15337   9.109   1.603   3.013 -0.3217 -0.3154  0.0820
 3835SOL    HW115338   9.044   1.619   2.944 -0.0246 -0.1110 -0.1524
 3835SOL    HW215339   9.117   1.508   3.016 -0.3033 -0.3241 -0.1957
 3835SOL     MW15340   9.101   1.593   3.004 -0.2813 -0.2904  0.0164
 3836SOL     OW15341   7.375   1.760   0.709  0.1428 -0.0982 -0.0576
 3836SOL    HW115342   7.291   1.743   0.666  0.3953  1.9893 -1.5030
 3836SOL    HW215343   7.355   1.821   0.779  0.5829  1.4654 -1.2444
 3836SOL     MW15344   7.362   1.765   0.713  0.2315  0.3692 -0.3945
 3837SOL     OW15345   8.046   8.650   9.823  0.1387 -0.1337  0.2831
 3837SOL    HW115346   7.959   8.687   9.806  0.3130  0.6175  0.9777
 3837SOL    HW215347   8.074   8.689   9.906  0.4705 -1.5990  0.8997
 3837SOL     MW15348   8.039   8.660   9.831  0.2035 -0.2251  0.4509
 3838SOL     OW15349   8.389   9.916   2.361  0.3794 -0.1352 -0.2663
 3838SOL    HW115350   8.352   9.898   2.274  1.2947 -1.3278 -0.4436
 3838SOL    HW215351   8.454   9.985   2.345 -0.4437  0.6494 -0.2738
 3838SOL     MW15352   8.393   9.922   2.348  0.3912 -0.1875 -0.2900
 3839SOL     OW15353   8.303   5.675   0.528  0.5011  0.0431 -0.0405
 3839SOL    HW115354   8.234   5.709   0.471  0.6043  1.1349  0.4526
 3839SOL    HW215355   8.385   5.698   0.484  0.5669  0.0057  0.0605
 3839SOL     MW15356   8.305   5.682   0.515  0.5227  0.1781  0.0356
 3840SOL     OW15357   6.780   7.498   0.551 -0.2060 -0.1378 -0.5089
 3840SOL    HW115358   6.745   7.469   0.635 -2.0086 -0.2379 -1.2425
 3840SOL    HW215359   6.770   7.593   0.552 -0.9977 -0.2051 -0.9015
 3840SOL     MW15360   6.774   7.506   0.562 -0.5381 -0.1592 -0.6531
 3841SOL     OW15361   7.164   3.596   1.322  0.4752  0.0394  0.1954
 3841SOL    HW115362   7.119   3.515   1.347  0.4780  0.8306  3.0703
 3841SOL    HW215363   7.254   3.583   1.351  1.1397  0.1585 -1.6334
 3841SOL     MW15364   7.170   3.584   1.329  0.5606  0.1559  0.3293
 3842SOL     OW15365   9.938   6.483   0.736 -0.4275  0.3041  0.1437
 3842SOL    HW115366   9.988   6.494   0.817  1.4468  0.8378 -1.0318
 3842SOL    HW215367   9.878   6.557   0.736  1.6137  2.0646 -0.3283
 3842SOL     MW15368   9.937   6.494   0.747  0.0737  0.5978 -0.0672
 3843SOL     OW15369   9.007   2.052   3.174 -0.4653  0.0293  0.0597
 3843SOL    HW115370   9.010   1.959   3.195 -0.1401 -0.1056 -0.5511
 3843SOL    HW215371   8.966   2.056   3.088 -0.6949  0.4734  0.1839
 3843SOL     MW15372   9.002   2.040   3.166 -0.4531  0.0689 -0.0026
 3844SOL     OW15373   9.915   0.953   1.577  0.2544 -0.0164  0.0312
 3844SOL    HW115374   9.869   0.996   1.505  0.3932  0.8307  0.4281
 3844SOL    HW215375   9.868   0.871   1.590 -0.4890  0.3473 -0.2648
 3844SOL     MW15376   9.903   0.948   1.569  0.1770  0.1386  0.0441
 3845SOL     OW15377   9.778   3.528   9.741  0.1096 -0.4427 -0.2711
 3845SOL    HW115378   9.787   3.433   9.744 -0.0791 -0.4467  0.6526
 3845SOL    HW215379   9.685   3.544   9.728  0.0579 -0.3911  0.1373
 3845SOL     MW15380   9.767   3.518   9.740  0.0789 -0.4366 -0.1006
 3846SOL     OW15381   9.877   5.381   1.024  0.5087  0.2592  0.4842
 3846SOL    HW115382   9.956   5.328   1.018 -0.4845 -1.1192 -1.5669
 3846SOL    HW215383   9.851   5.374   1.116  0.7944 -2.3866  0.4611
 3846SOL     MW15384   9.884   5.373   1.035  0.4181 -0.2560  0.2187
 3847SOL     OW15385   6.577   3.766   1.507 -0.7051 -0.6407  0.5086
 3847SOL    HW115386   6.576   3.792   1.599  1.5524 -2.3468  1.1075
 3847SOL    HW215387   6.634   3.830   1.464 -0.3573 -0.8393  0.6694
 3847SOL     MW15388   6.584   3.778   1.513 -0.3716 -0.8846  0.6058
 3848SOL     OW15389   9.655   4.692   2.016 -0.2045  0.1315 -0.3730
 3848SOL    HW115390   9.601   4.750   1.963  0.2743  0.0189 -1.0003
 3848SOL    HW215391   9.598   4.665   2.088 -0.2549  1.8831  0.3109
 3848SOL     MW15392   9.641   4.696   2.019 -0.1497  0.3413 -0.3657
 3849SOL     OW15393   6.714   1.190   9.625 -0.1403  0.9671  0.8033
 3849SOL    HW115394   6.712   1.123   9.557 -1.5802 -1.6764  3.2435
 3849SOL    HW215395   6.807   1.200   9.646  0.0515 -1.6646  1.5728
 3849SOL     MW15396   6.726   1.183   9.619 -0.3000  0.2918  1.2142
 3850SOL     OW15397   6.689   8.037   0.920 -0.7471  0.3047  0.0773
 3850SOL    HW115398   6.660   8.095   0.991 -1.2050  1.3858 -0.9512
 3850SOL    HW215399   6.684   8.092   0.842 -1.5599 -1.2359 -1.0042
 3850SOL     MW15400   6.684   8.052   0.919 -0.9098  0.2459 -0.1928
 3851SOL     OW15401   8.846   7.664   2.809  0.0357  0.2302 -0.0639
 3851SOL    HW115402   8.790   7.614   2.869  0.5691 -1.2222 -0.7168
 3851SOL    HW215403   8.785   7.705   2.748 -0.6875  3.3507  2.4933
 3851SOL     MW15404   8.831   7.663   2.809  0.0114  0.4437  0.1799
 3852SOL     OW15405   7.371   5.770   1.471  0.4321 -0.3522 -0.3332
 3852SOL    HW115406   7.437   5.700   1.466 -1.1207 -1.8391 -1.1104
 3852SOL    HW215407   7.327   5.755   1.555  0.4392  0.0375 -0.2593
 3852SOL     MW15408   7.374   5.759   1.481  0.2343 -0.4926 -0.4233
 3853SOL     OW15409   0.069   8.726   0.185  0.5300  0.0733 -0.0487
 3853SOL    HW115410   0.005   8.788   0.220 -0.8454 -1.0039 -0.5258
 3853SOL    HW215411   0.107   8.685   0.262  2.9985  2.8532  0.3833
 3853SOL     MW15412   0.066   8.728   0.199  0.6699  0.2913 -0.0545
 3854SOL     OW15413   8.160   4.255   9.372 -0.0565 -0.4645  0.2674
 3854SOL    HW115414   8.163   4.202   9.452 -1.3030  0.9497  1.3299
 3854SOL    HW215415   8.067   4.271   9.358  0.2447  0.9510 -0.3220
 3854SOL     MW15416   8.148   4.250   9.381 -0.1775 -0.1023  0.3280
 3855SOL     OW15417   7.766   3.900   0.392  0.2835  0.4268 -0.3249
 3855SOL    HW115418   7.716   3.932   0.316 -0.2614 -0.9201 -0.5636
 3855SOL    HW215419   7.719   3.934   0.468 -0.3574  0.1114 -0.5719
 3855SOL     MW15420   7.754   3.908   0.392  0.1317  0.2140 -0.3870
 3856SOL     OW15421   9.754   7.299   9.905  0.0993  0.4348  0.3712
 3856SOL    HW115422   9.816   7.241   9.861 -1.1035 -0.5714 -0.0596
 3856SOL    HW215423   9.683   7.311   9.842 -0.7654  0.4844  1.3275
 3856SOL     MW15424   9.753   7.293   9.891 -0.1654  0.3124  0.4385
 3857SOL     OW15425   6.331   3.677   1.440 -0.5957  0.3180 -0.5324
 3857SOL    HW115426   6.318   3.685   1.345  2.1229  0.4122 -0.9796
 3857SOL    HW215427   6.412   3.726   1.457 -0.6362 -0.3009  1.7395
 3857SOL     MW15428   6.340   3.684   1.430 -0.2529  0.2508 -0.2988
 3858SOL     OW15429   7.320   5.733   1.035  0.3127 -0.6572  0.2529
 3858SOL    HW115430   7.288   5.715   0.947 -0.0631  0.6681  0.1068
 3858SOL    HW215431   7.260   5.684   1.092  0.8457 -1.9045 -0.2236
 3858SOL     MW15432   7.308   5.724   1.031  0.3328 -0.6472  0.1732
 3859SOL     OW15433   8.669   8.001   2.653  0.2976  0.3803 -0.1052
 3859SOL    HW115434   8.758   8.034   2.650  0.3413  0.2810  0.0607
 3859SOL    HW215435   8.641   8.017   2.743  0.7301 -1.0967  0.3185
 3859SOL     MW15436   8.676   8.007   2.664  0.3586  0.1785 -0.0297
 3860SOL     OW15437   6.711   6.338   1.697  0.1852  0.6982 -0.2530
 3860SOL    HW115438   6.680   6.428   1.682  1.5907  1.3750  0.6451
 3860SOL    HW215439   6.791   6.331   1.645  0.7203  0.3832  0.5781
 3860SOL     MW15440   6.718   6.349   1.689  0.4336  0.7445 -0.0316
 3861SOL     OW15441   9.508   1.946   1.589 -0.1404 -0.1423  0.4503
 3861SOL    HW115442   9.515   1.851   1.598 -0.7288 -0.4232 -1.4773
 3861SOL    HW215443   9.432   1.959   1.533 -0.1883  1.4879  0.8441
 3861SOL     MW15444   9.500   1.935   1.583 -0.2218  0.0304  0.2540
 3862SOL     OW15445   7.294   7.423   1.496  0.0639 -0.5642 -0.0527
 3862SOL    HW115446   7.389   7.427   1.505  0.1104  0.0129 -0.6784
 3862SOL    HW215447   7.269   7.512   1.471 -0.6062 -0.7906 -0.2092
 3862SOL     MW15448   7.303   7.435   1.494 -0.0160 -0.5193 -0.1528
 3863SOL     OW15449   8.261   9.812   3.272  0.1706 -0.4647  0.2362
 3863SOL    HW115450   8.280   9.905   3.278 -1.8583  0.0767 -0.7785
 3863SOL    HW215451   8.197   9.796   3.342 -1.0553 -0.5999 -0.8753
 3863SOL     MW15452   8.255   9.822   3.282 -0.2461 -0.4127 -0.0360
 3864SOL     OW15453   8.579   6.894   0.630  0.1705 -0.5776  0.1441
 3864SOL    HW115454   8.525   6.849   0.566  0.1236 -0.9691  0.4512
 3864SOL    HW215455   8.625   6.823   0.677  0.3928 -0.2887  0.3719
 3864SOL     MW15456   8.578   6.879   0.628  0.1929 -0.5907  0.2125
 3865SOL     OW15457   7.229   1.468   0.482 -0.6755 -0.0886 -0.8202
 3865SOL    HW115458   7.202   1.557   0.507 -0.9834 -0.4621  0.1970
 3865SOL    HW215459   7.312   1.455   0.526 -0.1264  0.0487 -1.7792
 3865SOL     MW15460   7.236   1.478   0.491 -0.6446 -0.1189 -0.8128
 3866SOL     OW15461   6.099   1.545   1.187 -0.4698  0.3459 -0.0757
 3866SOL    HW115462   6.022   1.590   1.221  0.4587  0.5928  1.8354
 3866SOL    HW215463   6.065   1.490   1.117 -2.5668 -0.2599  1.3034
 3866SOL     MW15464   6.085   1.544   1.183 -0.6194  0.3000  0.3455
 3867SOL     OW15465   7.663   7.871  10.050 -0.3829  0.1474  0.3140
 3867SOL    HW115466   7.696   7.952  10.088 -1.1445  0.9057 -0.6068
 3867SOL    HW215467   7.708   7.863   9.966 -0.1091 -0.5380  0.5145
 3867SOL     MW15468   7.673   7.880  10.044 -0.4454  0.1568  0.2218
 3868SOL     OW15469   9.202   8.927   2.506 -0.2987  0.5386  0.2080
 3868SOL    HW115470   9.215   8.832   2.506  0.3902  0.6292 -0.1117
 3868SOL    HW215471   9.217   8.953   2.415  0.9496  1.1421  0.5643
 3868SOL     MW15472   9.205   8.918   2.494 -0.0507  0.6274  0.2127
 3869SOL     OW15473   6.572   1.089   1.214  0.2442 -0.0016 -0.4088
 3869SOL    HW115474   6.498   1.091   1.152 -0.9923  0.9871  1.0231
 3869SOL    HW215475   6.590   0.996   1.227 -0.7199 -0.2615 -0.8383
 3869SOL     MW15476   6.565   1.078   1.208 -0.0375  0.0917 -0.2805
 3870SOL     OW15477   7.968   6.657   0.350  0.7176  0.3539  0.4744
 3870SOL    HW115478   7.941   6.665   0.441 -1.4901 -1.4171  0.0628
 3870SOL    HW215479   8.022   6.734   0.334 -1.3341  2.3686  2.4600
 3870SOL     MW15480   7.971   6.668   0.359  0.1724  0.3851  0.6759
 3871SOL     OW15481   6.514   5.860  -0.007 -0.9209  0.1589  0.0669
 3871SOL    HW115482   6.595   5.855  -0.058 -1.8467  1.5792 -1.6314
 3871SOL    HW215483   6.542   5.841   0.083  1.0454 -0.7872 -0.6821
 3871SOL     MW15484   6.528   5.857  -0.002 -0.7877  0.2196 -0.2464
 3872SOL     OW15485  10.156   3.904   1.174  0.6556  0.5659 -0.3279
 3872SOL    HW115486  10.131   3.832   1.117 -0.3124  0.9565 -0.4093
 3872SOL    HW215487  10.077   3.956   1.184  0.4534 -0.0839  2.2676
 3872SOL     MW15488  10.143   3.901   1.168  0.5058  0.5327 -0.0061
 3873SOL     OW15489   8.076   2.545   2.595 -1.1289 -0.0914 -0.4121
 3873SOL    HW115490   8.019   2.584   2.529 -0.4732 -0.3287 -1.1366
 3873SOL    HW215491   8.101   2.460   2.558  2.1430  1.2045 -1.5967
 3873SOL     MW15492   8.072   2.539   2.582 -0.6262  0.0441 -0.6565
 3874SOL     OW15493   6.362   1.354   0.686 -0.1782 -0.1555 -0.1119
 3874SOL    HW115494   6.321   1.327   0.604 -1.7860  0.4136  0.4745
 3874SOL    HW215495   6.454   1.369   0.663 -0.5745 -0.1194 -1.7809
 3874SOL     MW15496   6.369   1.352   0.672 -0.4348 -0.0780 -0.2505
 3875SOL     OW15497   7.733   6.218   0.831 -0.5737 -0.5731  0.5898
 3875SOL    HW115498   7.776   6.145   0.785 -2.5749  0.1758 -2.7924
 3875SOL    HW215499   7.796   6.289   0.827  0.3232 -1.2722  1.5133
 3875SOL     MW15500   7.746   6.218   0.825 -0.7151 -0.5667  0.2751
 3876SOL     OW15501   7.176   6.523   2.283 -0.5656  0.3188 -0.3144
 3876SOL    HW115502   7.165   6.617   2.288  1.4024  0.6084 -0.4662
 3876SOL    HW215503   7.271   6.510   2.286 -0.7830 -1.6414 -0.4949
 3876SOL     MW15504   7.187   6.533   2.284 -0.3415  0.1050 -0.3569
 3877SOL     OW15505   8.910   0.625   1.199  0.6083  0.2119  0.4533
 3877SOL    HW115506   8.862   0.564   1.143  1.5694 -1.3224  1.2178
 3877SOL    HW215507   8.847   0.692   1.222  0.3073  1.3039 -2.9412
 3877SOL     MW15508   8.896   0.626   1.194  0.6928  0.1553  0.1166
 3878SOL     OW15509   6.850   5.886   0.070  0.1703 -0.2553 -0.1494
 3878SOL    HW115510   6.779   5.845   0.119 -1.1119  0.8505 -1.0211
 3878SOL    HW215511   6.860   5.832  -0.008  0.9393 -0.9355  0.4001
 3878SOL     MW15512   6.842   5.874   0.067  0.1046 -0.2008 -0.1906
 3879SOL     OW15513   8.681   7.721   2.614 -0.5618 -0.1713  0.0148
 3879SOL    HW115514   8.666   7.815   2.618  1.4655  0.2943 -1.6603
 3879SOL    HW215515   8.706   7.704   2.523 -0.2859 -2.2290  0.4168
 3879SOL     MW15516   8.682   7.731   2.603 -0.2669 -0.3751 -0.1482
 3880SOL     OW15517   9.792   4.154   1.025  0.1648  0.4260  0.1484
 3880SOL    HW115518   9.825   4.199   0.948  0.3088  1.7273  0.9256
 3880SOL    HW215519   9.728   4.215   1.063 -0.0585 -0.2685  0.9274
 3880SOL     MW15520   9.788   4.168   1.020  0.1547  0.5037  0.3476
 3881SOL     OW15521   8.739   8.403   9.214  0.1229  0.3754 -0.5757
 3881SOL    HW115522   8.788   8.330   9.175  1.0219  1.3786 -1.3719
 3881SOL    HW215523   8.744   8.388   9.308 -0.8049 -1.2852 -0.7440
 3881SOL     MW15524   8.746   8.391   9.221  0.1193  0.2913 -0.6992
 3882SOL     OW15525   9.479   6.914   2.269  0.3912 -0.6142  0.0898
 3882SOL    HW115526   9.556   6.934   2.215  0.2151 -0.8088 -0.2367
 3882SOL    HW215527   9.414   6.979   2.243 -0.4685 -2.0557 -1.5746
 3882SOL     MW15528   9.481   6.925   2.259  0.2586 -0.8236 -0.1650
 3883SOL     OW15529   7.501   8.922   9.941  0.1681 -0.2321  0.0191
 3883SOL    HW115530   7.531   9.012   9.951  1.6071 -0.6344 -0.5019
 3883SOL    HW215531   7.451   8.923   9.859  1.1407 -0.1280 -0.5897
 3883SOL     MW15532   7.498   8.933   9.932  0.4768 -0.2703 -0.1255
 3884SOL     OW15533   6.588   4.250   0.910  0.0729 -0.5363  0.1032
 3884SOL    HW115534   6.619   4.262   0.820 -0.5197 -0.2624 -0.0663
 3884SOL    HW215535   6.662   4.278   0.964  0.6544 -1.2689 -0.2872
 3884SOL     MW15536   6.602   4.255   0.906  0.0714 -0.5950  0.0315
 3885SOL     OW15537   9.920   0.571  10.173 -0.3287  0.7725 -0.0588
 3885SOL    HW115538   9.854   0.526  10.120 -0.9007  2.3482 -0.7635
 3885SOL    HW215539   9.993   0.585  10.112  0.7872 -1.0897  0.7532
 3885SOL     MW15540   9.921   0.567  10.158 -0.2591  0.7358 -0.0451
 3886SOL     OW15541   9.752   0.756   1.607 -0.4830 -0.1293 -0.1974
 3886SOL    HW115542   9.664   0.790   1.593 -0.5853 -0.6405 -0.8609
 3886SOL    HW215543   9.759   0.683   1.546  0.0602 -0.7006  0.5330
 3886SOL     MW15544   9.741   0.751   1.597 -0.4266 -0.2679 -0.1888
 3887SOL     OW15545   0.281   9.314   0.818 -0.3490  0.0386 -0.3179
 3887SOL    HW115546   0.304   9.405   0.839 -0.8266  0.3275 -0.9926
 3887SOL    HW215547   0.294   9.308   0.723  0.6042 -0.8834 -0.1459
 3887SOL     MW15548   0.286   9.325   0.808 -0.2881 -0.0424 -0.3823
 3888SOL     OW15549   7.727   8.364   1.000 -0.1100 -0.2168  0.8464
 3888SOL    HW115550   7.685   8.328   1.078 -1.6728  1.0854  0.6748
 3888SOL    HW215551   7.726   8.459   1.014  1.0769 -0.0437 -0.0528
 3888SOL     MW15552   7.722   8.372   1.012 -0.1581 -0.0279  0.7093
 3889SOL     OW15553   8.023   5.282   2.493 -0.2333 -0.5315  0.2344
 3889SOL    HW115554   8.057   5.203   2.449  0.8217  0.1194 -0.1514
 3889SOL    HW215555   8.055   5.354   2.440 -0.9171  0.1881  0.7772
 3889SOL     MW15556   8.031   5.281   2.480 -0.1858 -0.3561  0.2545
 3890SOL     OW15557   9.622   2.951   0.253  0.4003 -0.7063 -0.6649
 3890SOL    HW115558   9.619   3.026   0.313 -0.3606 -0.8447 -0.5248
 3890SOL    HW215559   9.695   2.971   0.194 -1.1881  1.2694 -2.0798
 3890SOL     MW15560   9.631   2.963   0.253  0.0995 -0.4711 -0.8281
 3891SOL     OW15561   8.666   2.975   0.577  0.0149  0.3796 -0.1335
 3891SOL    HW115562   8.706   2.899   0.618 -0.1061  1.2725  1.7870
 3891SOL    HW215563   8.727   3.001   0.509 -0.2665 -1.7896 -1.3063
 3891SOL     MW15564   8.679   2.969   0.574 -0.0366  0.2162 -0.0378
 3892SOL     OW15565   9.466   0.181   0.433 -0.1115  0.4054 -0.1274
 3892SOL    HW115566   9.492   0.095   0.399 -0.8686  0.7237 -1.6045
 3892SOL    HW215567   9.405   0.162   0.504 -1.8157 -0.2998 -1.7187
 3892SOL     MW15568   9.462   0.167   0.438 -0.4266  0.3559 -0.5202
 3893SOL     OW15569   7.855   2.168   1.627 -0.2369  0.2216 -0.1068
 3893SOL    HW115570   7.903   2.197   1.704 -1.2854 -0.2089  0.7356
 3893SOL    HW215571   7.849   2.073   1.636  0.5252  0.0459 -1.2672
 3893SOL     MW15572   7.860   2.160   1.638 -0.2736  0.1440 -0.1475
 3894SOL     OW15573   8.367   5.563   0.171  0.3605  0.0388 -0.1439
 3894SOL    HW115574   8.394   5.474   0.191 -1.5431 -1.5020 -3.6358
 3894SOL    HW215575   8.280   5.571   0.210 -0.7050 -0.7663 -2.2175
 3894SOL     MW15576   8.359   5.553   0.178 -0.0196 -0.2615 -0.8563
 3895SOL     OW15577   6.652   9.980   2.871 -0.2048  0.5921  0.0973
 3895SOL    HW115578   6.598  10.055   2.846 -1.0577  0.3269  1.0715
 3895SOL    HW215579   6.591   9.919   2.911  0.4565 -0.6873 -0.7754
 3895SOL     MW15580   6.637   9.982   2.873 -0.2293  0.3944  0.1103
 3896SOL     OW15581   8.749   1.346   1.781  0.4757 -0.1552  0.2946
 3896SOL    HW115582   8.690   1.288   1.732  1.5046 -0.5976 -0.4577
 3896SOL    HW215583   8.783   1.291   1.852  2.7023 -1.0568 -1.3552
 3896SOL     MW15584   8.746   1.332   1.784  0.8924 -0.3273 -0.0129
 3897SOL     OW15585   8.948   7.614   1.257 -0.0885  0.0167 -0.5419
 3897SOL    HW115586   8.980   7.525   1.244 -0.2179 -0.4799  2.0251
 3897SOL    HW215587   8.857   7.602   1.284 -0.5839  1.0452 -1.6960
 3897SOL     MW15588   8.940   7.601   1.259 -0.1684  0.0848 -0.3610
 3898SOL     OW15589   7.310   9.715   9.448 -0.1012 -0.0648  0.2014
 3898SOL    HW115590   7.347   9.802   9.464 -0.8733  0.4787 -0.8372
 3898SOL    HW215591   7.358   9.682   9.372  0.5221 -0.7682  0.8817
 3898SOL     MW15592   7.321   9.722   9.440 -0.1202 -0.0853  0.1555
 3899SOL     OW15593   9.128   5.861   0.643 -0.2386  0.2479  0.0918
 3899SOL    HW115594   9.142   5.924   0.573  0.8601  0.1578  0.2059
 3899SOL    HW215595   9.188   5.888   0.712  0.4121 -1.0258  0.0605
 3899SOL     MW15596   9.138   5.872   0.643 -0.0146  0.0733  0.1024
 3900SOL     OW15597   9.578   5.579   0.737 -0.1892 -0.0289 -0.3773
 3900SOL    HW115598   9.546   5.489   0.733  1.6245 -0.7176 -0.6629
 3900SOL    HW215599   9.602   5.592   0.829 -0.1160  0.0272 -0.4042
 3900SOL     MW15600   9.577   5.569   0.748  0.0524 -0.1099 -0.4173
 3901SOL     OW15601   7.662   9.468   0.368 -0.2425  0.0962  0.1966
 3901SOL    HW115602   7.582   9.485   0.417 -0.5186 -0.6649  0.0161
 3901SOL    HW215603   7.691   9.382   0.397  0.3791  0.2556  0.0732
 3901SOL     MW15604   7.655   9.459   0.378 -0.1982  0.0192  0.1577
 3902SOL     OW15605   0.105   9.535   9.910  0.1560 -0.3309  0.0061
 3902SOL    HW115606   0.056   9.530   9.828  0.2402 -0.4134 -0.0394
 3902SOL    HW215607   0.102   9.446   9.945 -0.7348 -0.0811  0.5913
 3902SOL     MW15608   0.098   9.523   9.904  0.0527 -0.3095  0.0752
 3903SOL     OW15609   0.451  10.164   1.430 -0.3043 -0.4690  0.1109
 3903SOL    HW115610   0.379  10.169   1.367  0.3092 -0.4673 -0.5998
 3903SOL    HW215611   0.486  10.076   1.420 -0.7199 -0.7519  1.0464
 3903SOL     MW15612   0.446  10.154   1.421 -0.2790 -0.5050  0.1396
 3904SOL     OW15613   8.685   9.957   8.658  0.2773  0.6082  0.0715
 3904SOL    HW115614   8.695  10.015   8.583  0.2857 -1.6078 -1.7406
 3904SOL    HW215615   8.635  10.008   8.722  0.8361  2.7895 -1.1373
 3904SOL     MW15616   8.680   9.971   8.657  0.3499  0.6038 -0.3152
 3905SOL     OW15617   8.657   9.877   0.764 -0.0443 -0.1111  0.1031
 3905SOL    HW115618   8.647   9.792   0.807  1.2274  0.4835  1.7074
 3905SOL    HW215619   8.569   9.901   0.735 -0.3628 -2.1020 -0.6799
 3905SOL     MW15620   8.644   9.869   0.766  0.0777 -0.2898  0.2082
 3906SOL     OW15621   8.389   4.178   1.238 -0.4800 -0.2888  0.3704
 3906SOL    HW115622   8.354   4.266   1.249  0.2236  0.0723 -0.1685
 3906SOL    HW215623   8.470   4.178   1.289 -0.8534 -0.8693  0.9802
 3906SOL     MW15624   8.395   4.189   1.246 -0.4377 -0.3169  0.3795
 3907SOL     OW15625   8.840   9.993   1.763  0.2325  0.2804 -0.4674
 3907SOL    HW115626   8.902   9.967   1.695  0.3707 -1.3260  0.2382
 3907SOL    HW215627   8.756   9.958   1.734  0.5207 -1.5480  0.7609
 3907SOL     MW15628   8.837   9.985   1.750  0.2871 -0.1593 -0.2198
 3908SOL     OW15629   7.375   4.633   0.608  0.0036 -0.6292  0.4453
 3908SOL    HW115630   7.307   4.565   0.616 -0.1241 -0.6321 -0.5249
 3908SOL    HW215631   7.400   4.653   0.698 -3.4055  1.5303  1.0926
 3908SOL     MW15632   7.369   4.627   0.621 -0.4491 -0.3531  0.4040
 3909SOL     OW15633   6.437   2.398   0.729 -0.4469 -0.0865  0.4269
 3909SOL    HW115634   6.370   2.370   0.792 -1.8089  0.2407 -0.7968
 3909SOL    HW215635   6.405   2.365   0.645 -0.4692  2.3473 -0.5961
 3909SOL     MW15636   6.424   2.390   0.726 -0.6241  0.2670  0.1393
 3910SOL     OW15637   8.369   9.136   2.165  0.0384  0.3701 -0.0903
 3910SOL    HW115638   8.281   9.169   2.146  0.4610  2.2711  1.0863
 3910SOL    HW215639   8.385   9.159   2.256  1.7256 -0.0182 -0.2510
 3910SOL     MW15640   8.360   9.143   2.174  0.3085  0.5637  0.0398
 3911SOL     OW15641   7.406   8.730   8.865 -0.0683  0.5456  0.0222
 3911SOL    HW115642   7.369   8.744   8.952  0.4290  0.4667  0.2546
 3911SOL    HW215643   7.467   8.657   8.877  0.2254  0.7302 -0.3224
 3911SOL     MW15644   7.409   8.723   8.878  0.0330  0.5591  0.0078
 3912SOL     OW15645   8.364   5.068   0.647  0.0494 -0.0205  0.2834
 3912SOL    HW115646   8.295   5.135   0.639  0.5119  0.4279 -0.0201
 3912SOL    HW215647   8.444   5.114   0.622  0.1567 -1.1073 -1.5560
 3912SOL     MW15648   8.365   5.082   0.643  0.1223 -0.1022  0.0091
 3913SOL     OW15649  10.112   7.091   1.568 -0.1311  0.0824  0.1794
 3913SOL    HW115650  10.039   7.108   1.509  0.4082  0.6009 -0.3491
 3913SOL    HW215651  10.103   7.156   1.638  0.7329  1.2196 -0.7372
 3913SOL     MW15652  10.102   7.101   1.570  0.0485  0.2944 -0.0056
 3914SOL     OW15653   9.004   2.631   1.995 -0.2512 -0.3044  0.7718
 3914SOL    HW115654   9.037   2.542   1.985  0.0626  0.0274 -1.4879
 3914SOL    HW215655   8.911   2.619   2.013 -0.5410 -1.1100 -1.0159
 3914SOL     MW15656   8.996   2.618   1.996 -0.2481 -0.3651  0.2537
 3915SOL     OW15657   8.399   8.446   1.485  0.3098  0.2642 -0.1361
 3915SOL    HW115658   8.333   8.382   1.513  0.2458  0.4570  0.1479
 3915SOL    HW215659   8.390   8.519   1.546  0.9555  0.1887  0.0528
 3915SOL     MW15660   8.389   8.447   1.496  0.3843  0.2792 -0.0755
 3916SOL     OW15661   7.583   5.925   2.610 -0.5375  0.5656  0.5546
 3916SOL    HW115662   7.545   5.844   2.641  0.3462 -1.1813 -2.4828
 3916SOL    HW215663   7.675   5.904   2.594 -0.2134  2.2434 -0.0738
 3916SOL     MW15664   7.590   5.912   2.612 -0.3829  0.5568  0.0854
 3917SOL     OW15665   6.861   8.195   2.063 -0.0320  0.1452  0.1791
 3917SOL    HW115666   6.787   8.254   2.047  1.0942  1.2591 -1.2952
 3917SOL    HW215667   6.838   8.115   2.017 -1.3647 -0.4758  1.7948
 3917SOL     MW15668   6.849   8.193   2.055 -0.0585  0.2083  0.1972
 3918SOL     OW15669   7.431   2.977   9.950  0.1606 -0.1770 -0.4455
 3918SOL    HW115670   7.503   3.000  10.009  0.9440  0.4511 -1.6007
 3918SOL    HW215671   7.423   2.882   9.958 -0.5802 -0.0029  1.5596
 3918SOL     MW15672   7.439   2.968   9.959  0.1661 -0.0743 -0.3367
 3919SOL     OW15673   7.293   1.190   0.539 -0.1006  0.0515  0.2391
 3919SOL    HW115674   7.250   1.274   0.527 -1.6903 -0.5153  1.4780
 3919SOL    HW215675   7.340   1.199   0.622  1.0471  0.2048 -0.4090
 3919SOL     MW15676   7.293   1.202   0.548 -0.1572 -0.0014  0.3147
 3920SOL     OW15677   8.709   6.562   0.032  0.1473  0.5150  0.3039
 3920SOL    HW115678   8.652   6.538   0.105 -0.2860 -0.2813 -0.2801
 3920SOL    HW215679   8.654   6.616  -0.024  0.1458  0.2421  0.0400
 3920SOL     MW15680   8.695   6.566   0.034  0.0916  0.3781  0.1954
 3921SOL     OW15681   9.695   1.374   9.816 -0.4039 -0.2982  0.1787
 3921SOL    HW115682   9.633   1.446   9.827  0.9274  0.9429 -0.0555
 3921SOL    HW215683   9.731   1.360   9.904 -0.0130 -0.0380  0.0664
 3921SOL     MW15684   9.692   1.382   9.829 -0.1835 -0.1060  0.1344
 3922SOL     OW15685   7.327   3.964   1.766 -0.4120 -0.3983  0.2765
 3922SOL    HW115686   7.267   4.038   1.758  1.0805  0.7779 -0.7456
 3922SOL    HW215687   7.302   3.905   1.695 -1.0816 -0.4806  0.5781
 3922SOL     MW15688   7.316   3.966   1.756 -0.3067 -0.2583  0.1843
 3923SOL     OW15689   9.462   5.329   0.741 -0.1263 -0.6407  0.0117
 3923SOL    HW115690   9.389   5.367   0.789 -0.1825 -0.3326 -0.3130
 3923SOL    HW215691   9.430   5.320   0.651 -0.2603 -1.8410  0.1532
 3923SOL     MW15692   9.449   5.333   0.736 -0.1507 -0.7549 -0.0118
 3924SOL     OW15693   9.055   7.505   0.802  0.1710 -0.4123 -0.2658
 3924SOL    HW115694   9.098   7.456   0.872  0.7185 -1.6383 -1.4191
 3924SOL    HW215695   9.109   7.489   0.725 -0.9982  0.0492 -1.2065
 3924SOL     MW15696   9.068   7.496   0.801  0.0914 -0.5102 -0.5339
 3925SOL     OW15697   8.657   6.713   0.803  0.4649 -0.4241 -0.2412
 3925SOL    HW115698   8.739   6.729   0.850  1.2783 -0.9478 -1.4339
 3925SOL    HW215699   8.666   6.625   0.767 -1.6854 -1.5464  1.6731
 3925SOL     MW15700   8.669   6.704   0.805  0.2937 -0.6348 -0.1489
 3926SOL     OW15701   6.880  10.141   9.354  0.2208  0.5782 -1.0206
 3926SOL    HW115702   6.786  10.129   9.369  0.4677  1.0608  1.2558
 3926SOL    HW215703   6.920  10.063   9.393  0.7345 -0.2747 -3.1306
 3926SOL     MW15704   6.873  10.129   9.361  0.3182  0.5308 -0.9993
 3927SOL     OW15705   7.021   9.399   1.188  0.3875  0.2003 -0.0362
 3927SOL    HW115706   6.937   9.442   1.202 -0.5732 -1.0829 -1.4639
 3927SOL    HW215707   7.056   9.385   1.276 -1.7147 -0.7648  0.7168
 3927SOL     MW15708   7.015   9.403   1.201 -0.0046 -0.0875 -0.1226
 3928SOL     OW15709   9.261   8.087   2.721 -0.2090 -0.2432  0.3154
 3928SOL    HW115710   9.252   8.003   2.675  2.2061 -0.7194  0.6291
 3928SOL    HW215711   9.307   8.143   2.658 -1.0121  0.6003  0.4551
 3928SOL     MW15712   9.265   8.083   2.707 -0.0027 -0.1962  0.3734
 3929SOL     OW15713   8.430   1.172   9.525 -0.1122  0.0690 -0.6133
 3929SOL    HW115714   8.450   1.129   9.442 -1.9046 -1.0891 -0.4872
 3929SOL    HW215715   8.341   1.206   9.514 -0.5653 -0.5157  0.9700
 3929SOL     MW15716   8.421   1.171   9.513 -0.3996 -0.1541 -0.3945
 3930SOL     OW15717   9.691   2.065   0.692 -0.3193  0.2934  0.3809
 3930SOL    HW115718   9.763   2.117   0.656  0.9052 -2.3641 -1.3166
 3930SOL    HW215719   9.612   2.107   0.659  0.6242  0.8576 -1.2814
 3930SOL     MW15720   9.690   2.077   0.683 -0.0418  0.0254 -0.0492
 3931SOL     OW15721   7.973   3.611   2.135 -0.1824  0.1571  0.2398
 3931SOL    HW115722   7.996   3.681   2.075 -0.1092  0.8603  1.0573
 3931SOL    HW215723   7.946   3.656   2.215 -1.4869 -0.7162  0.3234
 3931SOL     MW15724   7.973   3.626   2.138 -0.3401  0.1353  0.3552
 3932SOL     OW15725   6.855   5.220   0.281  0.1017 -0.0073  0.0053
 3932SOL    HW115726   6.792   5.201   0.212 -0.8405 -0.2866  0.9234
 3932SOL    HW215727   6.840   5.153   0.347  2.0755 -0.6999 -0.1979
 3932SOL     MW15728   6.845   5.209   0.280  0.2338 -0.1317  0.0969
 3933SOL     OW15729   8.377   6.412   9.368 -0.4972 -0.5070 -0.3132
 3933SOL    HW115730   8.320   6.338   9.347 -1.1283 -0.0419 -0.2553
 3933SOL    HW215731   8.442   6.376   9.428 -1.8611 -0.6163  1.1404
 3933SOL     MW15732   8.378   6.398   9.373 -0.7526 -0.4615 -0.1197
 3934SOL     OW15733   6.603   5.413   0.547 -0.4209 -0.1490  0.5702
 3934SOL    HW115734   6.538   5.473   0.511 -0.1717  1.2769  2.3359
 3934SOL    HW215735   6.684   5.435   0.502 -0.5159  0.2616  0.5988
 3934SOL     MW15736   6.605   5.423   0.537 -0.4011  0.0861  0.7999
 3935SOL     OW15737  10.016   0.428   2.132  0.3393  0.1206 -0.3408
 3935SOL    HW115738  10.108   0.455   2.140  0.0725  0.6020  1.7755
 3935SOL    HW215739  10.020   0.336   2.107  1.2971  1.0266 -4.2273
 3935SOL     MW15740  10.029   0.420   2.130  0.4278  0.2982 -0.5674
 3936SOL     OW15741   7.516   5.654   2.647  0.1768 -0.3077  0.5579
 3936SOL    HW115742   7.422   5.634   2.643  0.0149  0.3949  0.6922
 3936SOL    HW215743   7.550   5.627   2.562 -0.4697  0.9524 -0.1262
 3936SOL     MW15744   7.508   5.648   2.636  0.0733 -0.0564  0.4875
 3937SOL     OW15745   7.549   8.053   0.835  0.1766 -0.2030  0.3227
 3937SOL    HW115746   7.556   8.001   0.914  1.5064 -0.7631 -0.1302
 3937SOL    HW215747   7.492   8.126   0.859  0.2260 -0.5783  1.6555
 3937SOL     MW15748   7.542   8.056   0.848  0.3531 -0.3228  0.4354
 3938SOL     OW15749   8.985   1.540   2.434  0.6049  0.4977 -0.3123
 3938SOL    HW115750   9.050   1.567   2.497 -0.1519  1.0836  0.2373
 3938SOL    HW215751   8.967   1.448   2.455  0.2330  0.7360  0.4526
 3938SOL     MW15752   8.991   1.532   2.444  0.4604  0.6032 -0.1441
 3939SOL     OW15753   7.447   0.138   0.406  0.0024 -0.2640  0.1039
 3939SOL    HW115754   7.493   0.086   0.472  2.6169  1.6094 -0.1028
 3939SOL    HW215755   7.476   0.102   0.323 -1.1307 -0.8318 -0.0663
 3939SOL     MW15756   7.457   0.127   0.404  0.1920 -0.0969  0.0557
 3940SOL     OW15757   7.866   2.380   0.423 -0.4784 -0.0208 -0.2732
 3940SOL    HW115758   7.890   2.301   0.472 -1.2611 -0.1218 -0.0373
 3940SOL    HW215759   7.908   2.369   0.338 -0.8684 -0.8655 -0.3675
 3940SOL     MW15760   7.875   2.368   0.418 -0.6285 -0.1419 -0.2550
 3941SOL     OW15761   6.095   8.738   0.737  0.0368 -0.3825  0.2707
 3941SOL    HW115762   6.114   8.696   0.821 -0.0686 -0.7727  0.0991
 3941SOL    HW215763   6.096   8.667   0.673 -1.7050 -0.3914  0.2009
 3941SOL     MW15764   6.097   8.723   0.740 -0.1997 -0.4336  0.2398
 3942SOL     OW15765   7.879   5.740   1.193  0.4364 -0.2814 -0.1611
 3942SOL    HW115766   7.972   5.724   1.207  0.6020 -0.2499 -1.1484
 3942SOL    HW215767   7.835   5.686   1.258  1.0719 -2.3547 -1.3532
 3942SOL     MW15768   7.885   5.731   1.203  0.5389 -0.5428 -0.4401
 3943SOL     OW15769   9.703   9.125   0.995  0.0587 -0.2769  0.1681
 3943SOL    HW115770   9.739   9.041   0.968  0.4452 -0.8309  2.2373
 3943SOL    HW215771   9.694   9.175   0.913  1.1268 -1.8006 -0.9349
 3943SOL     MW15772   9.706   9.121   0.981  0.2449 -0.5429  0.2918
 3944SOL     OW15773   8.633   3.911   2.898 -0.0621 -0.1760  0.0643
 3944SOL    HW115774   8.559   3.852   2.906 -0.4375  0.1828 -0.6283
 3944SOL    HW215775   8.599   3.996   2.927 -0.2124  0.1957 -1.1535
 3944SOL     MW15776   8.619   3.915   2.903 -0.1294 -0.0825 -0.1803
 3945SOL     OW15777   9.471   5.487   1.709  0.2524 -0.5868 -0.4844
 3945SOL    HW115778   9.531   5.547   1.665 -1.5515  3.1716  1.6300
 3945SOL    HW215779   9.449   5.422   1.642  1.4115  1.8494 -3.4818
 3945SOL     MW15780   9.476   5.487   1.695  0.1699  0.2062 -0.5975
 3946SOL     OW15781   9.075   9.182   0.182  0.1200  0.0633  0.2476
 3946SOL    HW115782   9.163   9.215   0.164  0.1118 -0.1872 -0.2653
 3946SOL    HW215783   9.017   9.255   0.161  0.1747  0.0879  0.1808
 3946SOL     MW15784   9.079   9.195   0.177  0.1259  0.0344  0.1734
 3947SOL     OW15785   7.873   9.346   0.746  0.0648 -0.9445 -0.0368
 3947SOL    HW115786   7.914   9.409   0.687  0.5485 -0.7336  0.5238
 3947SOL    HW215787   7.781   9.374   0.751  0.2508 -0.3645  0.1147
 3947SOL     MW15788   7.866   9.358   0.739  0.1505 -0.8432  0.0543
 3948SOL     OW15789   6.517   8.632   1.193  0.3687 -0.4158  0.3279
 3948SOL    HW115790   6.527   8.716   1.147  0.9731  0.8581  2.6016
 3948SOL    HW215791   6.568   8.644   1.274 -1.2380 -2.2342  1.6786
 3948SOL     MW15792   6.525   8.644   1.197  0.2404 -0.4855  0.7919
 3949SOL     OW15793   0.151   1.444   0.887  0.2835  0.0222 -0.3058
 3949SOL    HW115794   0.230   1.390   0.884  0.2022 -0.1472  0.4273
 3949SOL    HW215795   0.177   1.527   0.846  0.1133 -0.8978 -2.4107
 3949SOL     MW15796   0.164   1.448   0.882  0.2513 -0.1172 -0.4814
 3950SOL     OW15797   8.949   0.476   1.435  0.2102  1.3977 -0.4183
 3950SOL    HW115798   8.958   0.544   1.368  0.2245  0.7651 -1.0796
 3950SOL    HW215799   8.855   0.469   1.449  0.1961  1.4112 -0.5032
 3950SOL     MW15800   8.938   0.484   1.428  0.2103  1.3185 -0.5138
 3951SOL     OW15801   8.161   5.696   1.181 -0.0422 -0.2388  0.1831
 3951SOL    HW115802   8.199   5.771   1.134 -1.0858 -0.0863 -0.4283
 3951SOL    HW215803   8.209   5.694   1.264  0.5488  0.6197 -0.1218
 3951SOL     MW15804   8.172   5.705   1.186 -0.1002 -0.1094  0.0658
 3952SOL     OW15805   9.659   4.259   2.192  0.0668  0.4501 -0.1489
 3952SOL    HW115806   9.671   4.170   2.224  0.3491 -0.1086 -1.7208
 3952SOL    HW215807   9.584   4.293   2.243  0.5436 -0.3241  1.1135
 3952SOL     MW15808   9.651   4.252   2.203  0.1640  0.2794 -0.1885
 3953SOL     OW15809   9.702   2.774   0.008  0.3673 -0.4582 -0.5110
 3953SOL    HW115810   9.776   2.783   0.068 -1.1498  0.7343  1.3018
 3953SOL    HW215811   9.683   2.863  -0.021  0.3211 -0.8887 -1.8261
 3953SOL     MW15812   9.709   2.786   0.012  0.1672 -0.3607 -0.4473
 3954SOL     OW15813  -0.002   2.378   1.227 -0.2264  0.0574 -0.6444
 3954SOL    HW115814   0.005   2.398   1.133  0.3330 -0.4278 -0.7112
 3954SOL    HW215815   0.064   2.435   1.267  0.3013 -0.5274 -0.6696
 3954SOL     MW15816   0.007   2.388   1.220 -0.0873 -0.0796 -0.6562
 3955SOL     OW15817   7.579   8.236   2.463 -0.4638 -0.2630 -0.4910
 3955SOL    HW115818   7.506   8.253   2.404 -0.2876  0.9080 -0.3836
 3955SOL    HW215819   7.570   8.300   2.533  0.7201 -0.0181 -0.5340
 3955SOL     MW15820   7.569   8.246   2.464 -0.2897 -0.0817 -0.4828
 3956SOL     OW15821   0.400   5.401   1.191  0.4119 -0.3679  0.3138
 3956SOL    HW115822   0.369   5.316   1.160  1.0985 -1.2344  1.9158
 3956SOL    HW215823   0.494   5.389   1.206  0.8939  1.2022 -1.0946
 3956SOL     MW15824   0.408   5.389   1.189  0.5615 -0.2778  0.3386
 3957SOL     OW15825   7.354   7.884   1.768  0.2384 -0.0304 -0.0365
 3957SOL    HW115826   7.319   7.798   1.746 -0.1189  0.0158  0.3271
 3957SOL    HW215827   7.422   7.867   1.833  1.2618 -0.1632 -1.1186
 3957SOL     MW15828   7.358   7.871   1.774  0.3236 -0.0415 -0.1285
 3958SOL     OW15829   7.251   8.878   1.719 -0.0940 -0.5644  0.0394
 3958SOL    HW115830   7.283   8.788   1.720  0.8041 -0.3096 -2.0925
 3958SOL    HW215831   7.167   8.874   1.673 -0.5252 -0.4298  0.7935
 3958SOL     MW15832   7.244   8.866   1.714 -0.0342 -0.5146 -0.1370
 3959SOL     OW15833  10.140   3.245   1.544  0.4117  0.3533  0.1283
 3959SOL    HW115834  10.154   3.168   1.490 -0.4625  0.3658 -0.1296
 3959SOL    HW215835  10.048   3.241   1.568  0.2279  1.5802 -0.3067
 3959SOL     MW15836  10.130   3.235   1.540  0.2763  0.5119  0.0396
 3960SOL     OW15837   9.845   4.558   9.586  0.7126 -0.6632  0.1844
 3960SOL    HW115838   9.805   4.552   9.673  0.0021 -1.3927 -0.1789
 3960SOL    HW215839   9.771   4.563   9.525  1.1211 -2.4116 -0.5243
 3960SOL     MW15840   9.831   4.558   9.589  0.6739 -0.9804  0.0472
 3961SOL     OW15841   8.214   0.503   1.581  0.3621 -0.5201 -0.0305
 3961SOL    HW115842   8.262   0.586   1.586  0.5750 -0.7076  1.4442
 3961SOL    HW215843   8.222   0.466   1.669 -3.7831  0.1763  0.8421
 3961SOL     MW15844   8.221   0.509   1.593 -0.1413 -0.4550  0.2699
 3962SOL     OW15845   9.946   0.217   0.192 -0.0797  0.1819  0.2373
 3962SOL    HW115846   9.982   0.305   0.202  2.5610 -0.9329  1.7495
 3962SOL    HW215847  10.002   0.176   0.126 -1.0125 -0.4818 -0.1559
 3962SOL     MW15848   9.958   0.223   0.185  0.1389 -0.0458  0.3805
 3963SOL     OW15849  10.134   6.147   0.212  0.1724 -0.5491  0.1577
 3963SOL    HW115850  10.210   6.194   0.245 -0.3049  0.7375 -0.5171
 3963SOL    HW215851  10.160   6.114   0.126 -0.5440  1.3989 -0.8680
 3963SOL     MW15852  10.147   6.149   0.205  0.0196 -0.1350 -0.0600
 3964SOL     OW15853   7.613   6.790   0.726 -0.0979 -0.9451  0.1949
 3964SOL    HW115854   7.634   6.788   0.819  1.4751  2.4867  0.0797
 3964SOL    HW215855   7.526   6.829   0.722 -0.1392 -1.0352  0.2088
 3964SOL     MW15856   7.605   6.795   0.737  0.0982 -0.5174  0.1819
 3965SOL     OW15857   8.753   0.438   1.058  0.1093  0.2676  0.1666
 3965SOL    HW115858   8.704   0.463   0.980  1.4781 -0.6050 -1.0333
 3965SOL    HW215859   8.762   0.343   1.051  1.1034  0.2973  0.8531
 3965SOL     MW15860   8.748   0.430   1.047  0.4118  0.1597  0.1009
 3966SOL     OW15861   6.619   6.917   0.413 -0.2268 -0.3304  0.3675
 3966SOL    HW115862   6.618   6.837   0.467  0.3866 -0.7230 -0.1840
 3966SOL    HW215863   6.527   6.938   0.399 -0.3929 -0.6536  0.9378
 3966SOL     MW15864   6.607   6.909   0.418 -0.1695 -0.4220  0.3699
 3967SOL     OW15865   9.828   7.230   0.266 -0.4638 -0.2701  0.0972
 3967SOL    HW115866   9.792   7.148   0.232 -0.2914 -0.5451  0.5653
 3967SOL    HW215867   9.833   7.216   0.361  0.3193 -0.0218  0.1010
 3967SOL     MW15868   9.824   7.218   0.274 -0.3415 -0.2735  0.1576
 3968SOL     OW15869   8.849   4.647   3.039 -0.4564 -0.0653 -0.0616
 3968SOL    HW115870   8.926   4.655   2.984 -0.6604 -0.2857 -0.3817
 3968SOL    HW215871   8.835   4.735   3.074 -0.4654  0.1279 -0.5528
 3968SOL     MW15872   8.857   4.659   3.037 -0.4837 -0.0688 -0.1654
 3969SOL     OW15873   0.137   1.108   0.734 -0.4384  0.2680 -0.4835
 3969SOL    HW115874   0.060   1.147   0.775 -1.4837 -0.8111 -1.3284
 3969SOL    HW215875   0.129   1.133   0.641  0.5941  0.6933 -0.4695
 3969SOL     MW15876   0.126   1.116   0.727 -0.4400  0.1843 -0.5899
 3970SOL     OW15877   7.844   0.855   1.459 -0.3175 -0.2777 -0.3384
 3970SOL    HW115878   7.844   0.765   1.494  1.3933  0.0773  0.6738
 3970SOL    HW215879   7.858   0.843   1.365  0.2788 -1.0885 -0.1686
 3970SOL     MW15880   7.846   0.842   1.452 -0.0222 -0.3360 -0.1871
 3971SOL     OW15881   7.344   1.236   9.157  0.4595 -0.0483 -0.2509
 3971SOL    HW115882   7.277   1.290   9.114  0.2422  1.2287  1.5783
 3971SOL    HW215883   7.414   1.229   9.093 -0.8074 -0.2012 -1.6769
 3971SOL     MW15884   7.344   1.242   9.143  0.2695  0.0956 -0.1993
 3972SOL     OW15885   6.911   6.138   2.247  0.1049 -0.0065  0.3700
 3972SOL    HW115886   6.887   6.053   2.284 -0.9324 -0.0509 -0.3574
 3972SOL    HW215887   6.997   6.157   2.284 -0.4769 -0.4689  2.0687
 3972SOL     MW15888   6.919   6.130   2.257 -0.1024 -0.0713  0.4943
 3973SOL     OW15889   6.937   6.061   0.796  0.0332  0.2119 -0.1773
 3973SOL    HW115890   6.967   5.997   0.859 -0.4678 -0.2656 -0.4133
 3973SOL    HW215891   6.900   6.132   0.849 -1.3112 -0.6429  0.0777
 3973SOL     MW15892   6.936   6.062   0.810 -0.2031  0.0414 -0.1749
 3974SOL     OW15893   8.755   9.763   9.008  0.0321  0.2055 -0.1769
 3974SOL    HW115894   8.688   9.696   9.022 -1.1166  1.0357 -1.4573
 3974SOL    HW215895   8.783   9.751   8.917  0.1706  1.1475 -0.2647
 3974SOL     MW15896   8.750   9.753   8.998 -0.0972  0.4324 -0.3520
 3975SOL     OW15897   8.313   6.587   3.104 -0.4255 -0.1256  0.2214
 3975SOL    HW115898   8.373   6.576   3.177 -0.8067 -1.5107  0.3542
 3975SOL    HW215899   8.314   6.681   3.086 -1.1308  0.4510  2.7157
 3975SOL     MW15900   8.321   6.598   3.111 -0.5646 -0.2291  0.5577
 3976SOL     OW15901   7.727   6.024   3.014  0.2595 -0.5170 -0.2198
 3976SOL    HW115902   7.677   6.057   3.088  1.9177  0.2996  0.6033
 3976SOL    HW215903   7.763   5.940   3.045 -1.4805 -1.6988 -1.2282
 3976SOL     MW15904   7.725   6.017   3.027  0.2490 -0.5637 -0.2435
 3977SOL     OW15905   8.358   6.042   9.649  0.1848  0.3204  0.3669
 3977SOL    HW115906   8.269   6.073   9.631 -0.6957 -2.1619  0.1242
 3977SOL    HW215907   8.370   5.968   9.589  1.6163 -0.7256  1.8801
 3977SOL     MW15908   8.348   6.037   9.639  0.2554 -0.1313  0.5295
 3978SOL     OW15909   7.917   0.487   2.883  0.1817  0.1091  0.0171
 3978SOL    HW115910   7.842   0.535   2.848 -0.8169 -2.1118 -1.0841
 3978SOL    HW215911   7.898   0.477   2.977 -0.2522  0.6566 -0.0088
 3978SOL     MW15912   7.905   0.492   2.891 -0.0017 -0.1051 -0.1272
 3979SOL     OW15913   8.011   1.090   0.790  0.3169  0.0194 -0.1026
 3979SOL    HW115914   8.044   1.027   0.726 -0.9550 -0.3138 -0.4625
 3979SOL    HW215915   7.922   1.109   0.761  1.1156  3.1284 -0.8566
 3979SOL     MW15916   8.003   1.085   0.778  0.2563  0.3747 -0.2452
 3980SOL     OW15917   7.160   5.449   1.622 -0.0777 -0.0820 -0.1464
 3980SOL    HW115918   7.233   5.420   1.677 -0.6305 -0.1024  0.5913
 3980SOL    HW215919   7.158   5.387   1.549  2.0291  1.2039 -1.3902
 3980SOL     MW15920   7.169   5.437   1.620  0.1212  0.0800 -0.2112
 3981SOL     OW15921   7.068   2.910   0.967 -0.2117 -0.0817 -0.2189
 3981SOL    HW115922   7.128   2.906   0.892  0.0584  1.3891 -0.1207
 3981SOL    HW215923   7.096   2.838   1.024  0.6556 -0.1983 -0.7641
 3981SOL     MW15924   7.080   2.901   0.965 -0.0661  0.0916 -0.2761
 3982SOL     OW15925   7.981   8.668   0.161 -0.3458 -0.2551  0.1182
 3982SOL    HW115926   7.897   8.697   0.125 -0.9474  0.2167  1.7931
 3982SOL    HW215927   7.962   8.648   0.253  1.0811 -1.5225  0.1766
 3982SOL     MW15928   7.968   8.669   0.168 -0.2402 -0.3569  0.3401
 3983SOL     OW15929   9.324   5.271   2.188 -0.0470 -0.5158 -0.5494
 3983SOL    HW115930   9.337   5.331   2.114 -0.1642  0.5396  0.2610
 3983SOL    HW215931   9.403   5.217   2.189  1.8136  2.0078  0.8381
 3983SOL     MW15932   9.336   5.272   2.179  0.1762 -0.0577 -0.2681
 3984SOL     OW15933   6.586   4.578   1.898 -0.1533 -0.1792 -0.3130
 3984SOL    HW115934   6.646   4.582   1.823 -0.3941  0.5974 -0.4791
 3984SOL    HW215935   6.500   4.594   1.859 -0.4142 -0.8245 -0.0099
 3984SOL     MW15936   6.583   4.581   1.883 -0.2175 -0.1624 -0.2954
 3985SOL     OW15937   9.033   6.337   1.378 -0.1358 -0.0902 -0.7004
 3985SOL    HW115938   9.029   6.352   1.284  0.0244  0.6930 -0.5862
 3985SOL    HW215939   9.100   6.397   1.410  0.9816 -1.4844 -0.2960
 3985SOL     MW15940   9.041   6.346   1.370  0.0277 -0.1684 -0.6340
 3986SOL     OW15941   6.618   3.287   1.026  0.0293 -0.2907 -0.1644
 3986SOL    HW115942   6.707   3.265   1.053  0.1796  0.0292 -0.3911
 3986SOL    HW215943   6.570   3.205   1.034  0.1018 -0.2463  0.9339
 3986SOL     MW15944   6.624   3.274   1.031  0.0578 -0.2441 -0.0528
 3987SOL     OW15945   7.014   4.937   0.982  0.0275  0.0281  0.4397
 3987SOL    HW115946   7.063   5.013   0.948 -0.5099  0.4856  0.6708
 3987SOL    HW215947   7.078   4.866   0.984  0.7972  0.7236  1.1377
 3987SOL     MW15948   7.029   4.938   0.978  0.0572  0.1757  0.5587
 3988SOL     OW15949   6.660   0.501   0.595 -0.2047 -0.0134  0.0213
 3988SOL    HW115950   6.661   0.592   0.564  0.2488  0.1238  0.4095
 3988SOL    HW215951   6.637   0.508   0.688  1.4375 -0.1389  0.4663
 3988SOL     MW15952   6.657   0.514   0.603  0.0636 -0.0119  0.1279
 3989SOL     OW15953   7.449   6.992   1.420  0.7952 -0.7084 -0.7060
 3989SOL    HW115954   7.381   7.019   1.358  1.2375 -1.4833 -1.5608
 3989SOL    HW215955   7.513   7.064   1.419  0.9734 -0.8682 -1.4311
 3989SOL     MW15956   7.449   7.005   1.412  0.8746 -0.8280 -0.9082
 3990SOL     OW15957   6.320   7.893   0.703  0.1117 -0.3976 -0.4328
 3990SOL    HW115958   6.366   7.822   0.659  0.1817 -1.1769  0.8220
 3990SOL    HW215959   6.364   7.973   0.674  1.8160 -1.0748  0.1976
 3990SOL     MW15960   6.331   7.894   0.694  0.3388 -0.5840 -0.1915
 3991SOL     OW15961   0.396   8.657   0.950  0.0058 -0.3872  0.2312
 3991SOL    HW115962   0.403   8.596   0.875 -0.8946  0.2405 -0.3876
 3991SOL    HW215963   0.422   8.604   1.025  0.2124 -1.2570 -0.4209
 3991SOL     MW15964   0.400   8.642   0.950 -0.0830 -0.4182  0.0685
 3992SOL     OW15965   8.858   2.232   9.709 -0.1445  0.0955 -0.2895
 3992SOL    HW115966   8.930   2.247   9.648  0.7154 -1.0117  0.4141
 3992SOL    HW215967   8.813   2.316   9.714 -0.0354  0.3103 -2.1723
 3992SOL     MW15968   8.862   2.244   9.701 -0.0205 -0.0187 -0.4405
 3993SOL     OW15969   8.829   3.531   2.561 -0.0399 -0.2318 -0.4412
 3993SOL    HW115970   8.882   3.547   2.640 -0.6545  0.5362 -0.1629
 3993SOL    HW215971   8.757   3.593   2.569  0.8472  1.1764 -2.5190
 3993SOL     MW15972   8.827   3.541   2.572 -0.0050  0.0468 -0.6716
 3994SOL     OW15973   6.162   1.461   1.474 -0.3463  0.5107  0.2101
 3994SOL    HW115974   6.149   1.458   1.379 -0.6146  0.5181  0.2457
 3994SOL    HW215975   6.116   1.384   1.507  1.8836 -0.9540  0.0992
 3994SOL     MW15976   6.154   1.451   1.466 -0.0952  0.3241  0.2005
 3995SOL     OW15977   8.832   0.091   1.686  0.3206  0.1406 -0.1724
 3995SOL    HW115978   8.890   0.153   1.729  1.0121  0.1472 -1.0768
 3995SOL    HW215979   8.839   0.011   1.738  1.0584  0.1802 -0.1937
 3995SOL     MW15980   8.840   0.089   1.698  0.5036  0.1465 -0.2909
 3996SOL     OW15981   8.624   3.372   1.523 -0.0193  0.3324 -0.4488
 3996SOL    HW115982   8.573   3.449   1.497 -0.0184 -0.0437 -1.5926
 3996SOL    HW215983   8.593   3.352   1.612 -1.6247  0.3080 -0.9839
 3996SOL     MW15984   8.614   3.379   1.531 -0.2247  0.2811 -0.6638
 3997SOL     OW15985   9.549   4.734   1.262 -0.0241 -0.2448  0.1594
 3997SOL    HW115986   9.506   4.695   1.338  0.2540  0.2964  0.6025
 3997SOL    HW215987   9.588   4.815   1.296 -0.0959  0.1174 -0.6113
 3997SOL     MW15988   9.548   4.739   1.276  0.0023 -0.1292  0.1175
 3998SOL     OW15989   7.458   3.094   0.835 -0.2607  0.4904  0.4202
 3998SOL    HW115990   7.436   3.153   0.763 -2.4091  1.7216  2.0009
 3998SOL    HW215991   7.461   3.149   0.912 -0.1477 -1.1334  1.6298
 3998SOL     MW15992   7.456   3.108   0.835 -0.5212  0.4402  0.7774
 3999SOL     OW15993   8.373   7.054   2.716  0.2192 -0.5428 -0.1658
 3999SOL    HW115994   8.370   7.108   2.637  0.2628  0.7193  0.6725
 3999SOL    HW215995   8.309   6.984   2.700  1.1498 -1.0778 -1.8364
 3999SOL     MW15996   8.364   7.052   2.704  0.3439 -0.4497 -0.2723
 4000SOL     OW15997   9.693   7.488   1.504 -0.0369  0.1959  0.0579
 4000SOL    HW115998   9.608   7.532   1.500 -0.2083 -0.1404 -3.8295
 4000SOL    HW215999   9.676   7.410   1.557 -1.9404  0.6302  0.1739
 4000SOL     MW16000   9.680   7.483   1.510 -0.3025  0.2084 -0.4249
 4001SOL     OW16001   8.277   1.293   2.013 -0.2974 -0.3508  0.3354
 4001SOL    HW116002   8.334   1.369   2.026  2.8931 -1.8746 -3.0022
 4001SOL    HW216003   8.206   1.325   1.958  0.0146  0.5580  0.4540
 4001SOL     MW16004   8.275   1.307   2.008  0.1509 -0.4295 -0.0766
 4002SOL     OW16005   9.036   8.899   2.945 -0.0316  0.2557 -0.1849
 4002SOL    HW116006   9.104   8.833   2.958  0.0664  0.0865 -1.4023
 4002SOL    HW216007   9.002   8.882   2.857 -1.1390  0.8094  0.1079
 4002SOL     MW16008   9.040   8.888   2.935 -0.1608  0.3049 -0.3033
 4003SOL     OW16009   8.766   5.772   1.842  0.1979 -0.1292 -0.3830
 4003SOL    HW116010   8.678   5.749   1.813 -0.3188 -0.1753  1.1270
 4003SOL    HW216011   8.815   5.690   1.840 -0.0037 -0.2446 -0.5466
 4003SOL     MW16012   8.761   5.759   1.838  0.1059 -0.1499 -0.2106
 4004SOL     OW16013   0.323   0.376   1.634  0.2008 -0.9294 -0.0827
 4004SOL    HW116014   0.406   0.329   1.628  0.0555 -1.1716 -0.1875
 4004SOL    HW216015   0.347   0.468   1.623  0.3454 -1.0758 -1.0901
 4004SOL     MW16016   0.337   0.382   1.632  0.2007 -0.9792 -0.2251
 4005SOL     OW16017   8.536   2.281   1.350  0.0428 -0.3042 -0.1189
 4005SOL    HW116018   8.504   2.344   1.414 -1.9912  0.4888 -1.7937
 4005SOL    HW216019   8.575   2.211   1.402  1.6028  1.8814  1.8316
 4005SOL     MW16020   8.537   2.280   1.365 -0.0179  0.0771 -0.0836
 4006SOL     OW16021   8.233   9.506   9.907 -0.3018 -0.3123 -0.2689
 4006SOL    HW116022   8.145   9.493   9.941 -0.0668  0.3925  0.6680
 4006SOL    HW216023   8.227   9.586   9.856 -0.0356  0.2179  0.5060
 4006SOL     MW16024   8.221   9.515   9.905 -0.2377 -0.1542 -0.0498
 4007SOL     OW16025   7.568   2.149   0.906 -0.3770  0.0031 -0.7195
 4007SOL    HW116026   7.578   2.191   0.821  0.9970 -0.4444 -0.8037
 4007SOL    HW216027   7.648   2.097   0.917  0.6888  2.0017  1.9465
 4007SOL     MW16028   7.580   2.147   0.896 -0.0647  0.2016 -0.3890
 4008SOL     OW16029   9.062   5.123   9.534  0.1285 -0.0774 -0.3400
 4008SOL    HW116030   9.019   5.092   9.454  1.1294 -0.2032 -0.8442
 4008SOL    HW216031   9.130   5.057   9.552  0.3658  0.3131  0.2246
 4008SOL     MW16032   9.065   5.110   9.526  0.2870 -0.0435 -0.3323
 4009SOL     OW16033   9.432   4.471   1.323  0.3473 -0.1700  0.5308
 4009SOL    HW116034   9.527   4.462   1.327  0.3433  0.1436  1.3648
 4009SOL    HW216035   9.415   4.501   1.233  1.2028  1.6763  0.9348
 4009SOL     MW16036   9.442   4.474   1.312  0.4563  0.1065  0.6893
 4010SOL     OW16037   6.426   1.509   1.582 -0.2165 -0.0149 -0.5151
 4010SOL    HW116038   6.344   1.490   1.537  0.5030 -1.8303 -1.1485
 4010SOL    HW216039   6.492   1.460   1.534  1.1039  0.6248  0.5665
 4010SOL     MW16040   6.424   1.501   1.570  0.0446 -0.1654 -0.4577
 4011SOL     OW16041   9.826   3.844   1.767 -0.3549 -0.9548 -0.4975
 4011SOL    HW116042   9.831   3.774   1.703  0.0506 -0.0807 -1.4344
 4011SOL    HW216043   9.734   3.843   1.796 -0.1818 -2.3335  0.0518
 4011SOL     MW16044   9.815   3.835   1.763 -0.2808 -1.0194 -0.5471
 4012SOL     OW16045   8.030   3.558   2.603  0.0543  0.1799 -0.2341
 4012SOL    HW116046   8.111   3.548   2.552 -0.5058 -1.0209 -0.9339
 4012SOL    HW216047   8.017   3.473   2.644 -0.4368  0.6133  0.5282
 4012SOL     MW16048   8.039   3.546   2.602 -0.0802  0.0816 -0.2261
 4013SOL     OW16049   8.878   1.778   1.174 -0.3011  0.0822  0.2059
 4013SOL    HW116050   8.914   1.844   1.115 -2.5565  1.6966  0.4698
 4013SOL    HW216051   8.884   1.696   1.125 -0.4051  1.0497 -1.5169
 4013SOL     MW16052   8.883   1.776   1.160 -0.6031  0.4127  0.0191
 4014SOL     OW16053   7.173   7.943   1.944 -0.7597 -0.1610  0.4329
 4014SOL    HW116054   7.135   8.029   1.962 -2.4730 -0.7573 -0.1509
 4014SOL    HW216055   7.231   7.958   1.869  0.6015  0.8655  1.6443
 4014SOL     MW16056   7.176   7.956   1.936 -0.8048 -0.1060  0.5132
 4015SOL     OW16057   7.308   4.786   1.751  0.4100 -0.7361  0.5673
 4015SOL    HW116058   7.249   4.843   1.800  0.2244 -1.0153  0.6747
 4015SOL    HW216059   7.250   4.719   1.714  0.4689 -0.2278 -0.4720
 4015SOL     MW16060   7.293   4.785   1.752  0.3938 -0.7068  0.4480
 4016SOL     OW16061   8.289   8.875   2.232 -0.1183  0.2593 -0.5457
 4016SOL    HW116062   8.305   8.963   2.199  0.0215  0.1404 -0.8032
 4016SOL    HW216063   8.269   8.886   2.324 -0.3562  0.5844 -0.6383
 4016SOL     MW16064   8.289   8.887   2.239 -0.1309  0.2857 -0.5905
 4017SOL     OW16065   8.525   6.803   2.760 -0.0848 -0.2421 -1.0329
 4017SOL    HW116066   8.444   6.853   2.769 -0.9266 -1.1414 -2.9669
 4017SOL    HW216067   8.578   6.854   2.699  1.0587  0.5680  0.5570
 4017SOL     MW16068   8.521   6.816   2.753 -0.0462 -0.2535 -1.0770
 4018SOL     OW16069   9.477   3.016   9.390 -0.4537 -0.3294 -0.4373
 4018SOL    HW116070   9.398   3.066   9.368 -0.7977 -0.8912 -0.5090
 4018SOL    HW216071   9.447   2.925   9.393  0.2819 -0.5940 -0.8939
 4018SOL     MW16072   9.463   3.010   9.387 -0.4036 -0.4352 -0.5049
 4019SOL     OW16073   6.947   9.140   9.829 -0.6063 -0.4129  0.3821
 4019SOL    HW116074   6.971   9.143   9.921  1.4313 -0.6029 -0.0974
 4019SOL    HW216075   6.959   9.048   9.804 -0.1701 -0.1862 -0.2821
 4019SOL     MW16076   6.952   9.129   9.837 -0.2896 -0.4082  0.2357
 4020SOL     OW16077   7.589   5.597   1.556  0.6140 -0.4482 -0.1318
 4020SOL    HW116078   7.680   5.602   1.527  0.7464 -1.0864  0.1435
 4020SOL    HW216079   7.574   5.503   1.570 -0.2885 -0.4109 -0.7956
 4020SOL     MW16080   7.599   5.586   1.554  0.5154 -0.5251 -0.1816
 4021SOL     OW16081   9.545   4.675   0.844  0.2122  0.1168  0.0804
 4021SOL    HW116082   9.516   4.748   0.900  3.2010  0.7560  0.9931
 4021SOL    HW216083   9.464   4.637   0.810 -1.5562  2.5331  1.2669
 4021SOL     MW16084   9.531   4.680   0.847  0.3685  0.5080  0.3491
 4022SOL     OW16085   0.178   3.596   1.211  0.6160 -0.1756  0.2254
 4022SOL    HW116086   0.250   3.644   1.168  0.7110 -0.5588 -0.0497
 4022SOL    HW216087   0.107   3.598   1.147  0.2170  0.6019  0.6813
 4022SOL     MW16088   0.178   3.603   1.197  0.5771 -0.1252  0.2486
 4023SOL     OW16089   7.630   0.009   9.155  0.0254  0.2618 -0.1161
 4023SOL    HW116090   7.551   0.046   9.194 -2.1394 -3.2193 -0.7307
 4023SOL    HW216091   7.657   0.074   9.090 -1.0611  2.4765  1.4983
 4023SOL     MW16092   7.623   0.022   9.152 -0.3908  0.0997  0.0119
 4024SOL     OW16093  10.127   3.379   1.163  0.4740 -0.0346 -0.1160
 4024SOL    HW116094  10.140   3.417   1.250  1.8440 -0.4497 -0.1205
 4024SOL    HW216095  10.212   3.341   1.140  0.5162  1.1645 -2.1776
 4024SOL     MW16096  10.139   3.379   1.171  0.6548  0.0658 -0.3805
 4025SOL     OW16097   8.127   0.504   2.653 -0.1140  0.2342 -0.1155
 4025SOL    HW116098   8.077   0.423   2.641 -0.9925  0.6784  0.4768
 4025SOL    HW216099   8.192   0.483   2.720  0.9734 -0.5444 -1.3681
 4025SOL     MW16100   8.129   0.491   2.660 -0.0872  0.1914 -0.2000
 4026SOL     OW16101   7.584   2.289   2.392 -0.1165 -0.0974 -0.3980
 4026SOL    HW116102   7.624   2.369   2.426 -0.0910 -0.0601 -0.5163
 4026SOL    HW216103   7.501   2.318   2.354 -1.1266 -0.4166  1.4393
 4026SOL     MW16104   7.579   2.303   2.392 -0.2425 -0.1335 -0.1779
 4027SOL     OW16105   6.200   6.368   0.950 -0.8160 -0.0251 -0.4548
 4027SOL    HW116106   6.150   6.287   0.939  0.1657 -0.8495  0.8172
 4027SOL    HW216107   6.222   6.395   0.861 -0.6255 -1.5148 -0.8970
 4027SOL     MW16108   6.196   6.361   0.937 -0.6659 -0.3213 -0.3486
 4028SOL     OW16109   9.359   2.551   0.917 -0.3398 -0.0846  0.1662
 4028SOL    HW116110   9.405   2.542   1.001  1.0221 -0.8430 -0.6164
 4028SOL    HW216111   9.303   2.474   0.912  0.5774 -0.7406 -0.1939
 4028SOL     MW16112   9.358   2.540   0.927 -0.0480 -0.2657  0.0199
 4029SOL     OW16113   8.930   0.301   1.826 -0.6602 -0.5778  0.2392
 4029SOL    HW116114   9.015   0.275   1.860 -0.9035 -0.6916  0.7870
 4029SOL    HW216115   8.938   0.395   1.811 -1.1256 -0.0953  2.5377
 4029SOL     MW16116   8.942   0.310   1.828 -0.7510 -0.5306  0.6036
 4030SOL     OW16117   9.145   7.931   1.784 -0.3496 -0.1843 -0.2705
 4030SOL    HW116118   9.193   7.922   1.701  0.7751  1.6540  0.1123
 4030SOL    HW216119   9.053   7.921   1.760  0.0255 -0.6689 -1.5805
 4030SOL     MW16120   9.139   7.929   1.770 -0.1576 -0.0110 -0.3892
 4031SOL     OW16121   7.496   7.259   1.100 -0.0943 -0.2271 -0.1483
 4031SOL    HW116122   7.542   7.206   1.034  0.3934  0.6027 -0.4871
 4031SOL    HW216123   7.561   7.273   1.169 -0.7120 -1.4004  0.7071
 4031SOL     MW16124   7.511   7.254   1.101 -0.1109 -0.2711 -0.0822
 4032SOL     OW16125   8.421   2.356   1.101  0.0178  0.2762  0.1581
 4032SOL    HW116126   8.486   2.324   1.164 -0.2003  0.0945  0.2942
 4032SOL    HW216127   8.371   2.422   1.149  1.5729  2.1128 -0.6384
 4032SOL     MW16128   8.423   2.360   1.115  0.1890  0.4880  0.0736
 4033SOL     OW16129   9.130   6.124   1.956  0.1675  0.2622 -0.3246
 4033SOL    HW116130   9.130   6.029   1.968 -0.6518  0.3457  0.4033
 4033SOL    HW216131   9.172   6.158   2.035 -1.2097  0.5841  0.3036
 4033SOL     MW16132   9.135   6.116   1.968 -0.1137  0.3141 -0.1510
 4034SOL     OW16133   7.466   9.228   1.860 -0.2467  0.4064  0.2690
 4034SOL    HW116134   7.440   9.202   1.772  0.3997  0.8021 -0.0492
 4034SOL    HW216135   7.540   9.171   1.881  1.2126  1.9493 -0.4527
 4034SOL     MW16136   7.472   9.217   1.851  0.0229  0.6546  0.1359
 4035SOL     OW16137   8.552   3.744   0.586 -0.7327  0.0396 -0.4081
 4035SOL    HW116138   8.538   3.744   0.681 -0.4464  0.0159 -0.3650
 4035SOL    HW216139   8.647   3.741   0.576 -0.7742 -0.4589 -0.6958
 4035SOL     MW16140   8.562   3.743   0.597 -0.7014 -0.0273 -0.4394
 4036SOL     OW16141   7.940   1.318   0.338  0.1413  0.6827 -0.0111
 4036SOL    HW116142   8.004   1.248   0.331  0.1795  0.7893 -0.8289
 4036SOL    HW216143   7.862   1.276   0.373  0.0569  0.1531 -0.8012
 4036SOL     MW16144   7.938   1.304   0.341  0.1354  0.6286 -0.2169
 4037SOL     OW16145   8.361   2.517   1.989  0.1797  0.1151 -0.0095
 4037SOL    HW116146   8.322   2.543   2.073  0.5852 -1.7161  0.7995
 4037SOL    HW216147   8.405   2.434   2.008  0.7837 -0.0459 -1.9172
 4037SOL     MW16148   8.362   2.510   2.002  0.3089 -0.1399 -0.1501
 4038SOL     OW16149   9.213   3.451   2.086  0.3841  0.0021  0.3414
 4038SOL    HW116150   9.171   3.519   2.035  0.7160 -3.4065 -5.3421
 4038SOL    HW216151   9.144   3.388   2.105  1.3671 -2.0790 -2.4183
 4038SOL     MW16152   9.199   3.451   2.082  0.5524 -0.7006 -0.7394
 4039SOL     OW16153   8.484   8.043   1.129 -0.1954 -0.3346  0.2418
 4039SOL    HW116154   8.534   8.110   1.082 -2.3397  0.1576 -1.5125
 4039SOL    HW216155   8.526   7.960   1.105 -0.6753 -0.0154 -1.8843
 4039SOL     MW16156   8.496   8.041   1.120 -0.5314 -0.2307 -0.2549
 4040SOL     OW16157   7.862   4.180   2.847  0.6411 -0.0261 -0.4835
 4040SOL    HW116158   7.891   4.125   2.920  1.0374  0.2212 -0.4507
 4040SOL    HW216159   7.767   4.178   2.851  0.6532  0.6190  0.5312
 4040SOL     MW16160   7.854   4.173   2.857  0.6934  0.0881 -0.3494
 4041SOL     OW16161   7.675   0.683   0.803 -0.4838  0.1592  0.0463
 4041SOL    HW116162   7.680   0.636   0.720  1.1320  0.3150  0.0096
 4041SOL    HW216163   7.767   0.697   0.827 -0.8687 -0.8643  2.3993
 4041SOL     MW16164   7.688   0.679   0.796 -0.3262  0.0481  0.3428
 4042SOL     OW16165   7.314   1.891   8.946 -0.2137 -0.6082 -0.4223
 4042SOL    HW116166   7.250   1.824   8.973 -1.5932  0.8072 -0.0566
 4042SOL    HW216167   7.396   1.863   8.988 -1.3883 -0.6223  2.0644
 4042SOL     MW16168   7.316   1.879   8.955 -0.5406 -0.4288 -0.0572
 4043SOL     OW16169   8.723   2.960   2.179 -0.0717 -0.1841  0.2933
 4043SOL    HW116170   8.814   2.973   2.154 -0.1893 -0.2315 -0.1688
 4043SOL    HW216171   8.725   2.889   2.243  0.3524  0.6779  1.2629
 4043SOL     MW16172   8.735   2.953   2.184 -0.0325 -0.0798  0.3583
 4044SOL     OW16173   9.451   7.611   2.100  0.3793 -0.2838 -0.4144
 4044SOL    HW116174   9.485   7.662   2.172 -2.0857 -0.8943  1.3083
 4044SOL    HW216175   9.493   7.525   2.109  0.8173 -0.0597 -0.3198
 4044SOL     MW16176   9.461   7.606   2.110  0.1198 -0.3332 -0.1817
 4045SOL     OW16177   9.649   8.110   0.506 -0.3324 -0.4414 -0.0625
 4045SOL    HW116178   9.605   8.036   0.465 -0.3435 -0.2135 -0.4627
 4045SOL    HW216179   9.581   8.176   0.517  0.1280  0.4077 -1.8550
 4045SOL     MW16180   9.635   8.109   0.502 -0.2749 -0.3035 -0.3432
 4046SOL     OW16181   6.856   4.066   0.976  0.7559  0.1131 -0.2519
 4046SOL    HW116182   6.839   4.119   1.054  0.6767  0.5506 -0.5649
 4046SOL    HW216183   6.826   3.978   1.000 -0.5961  0.5482 -0.2844
 4046SOL     MW16184   6.850   4.061   0.989  0.5727  0.2248 -0.2961
 4047SOL     OW16185   9.317   7.184   2.235  0.9205 -0.0212  0.3225
 4047SOL    HW116186   9.336   7.254   2.172 -0.1902 -0.3900 -0.4320
 4047SOL    HW216187   9.390   7.189   2.297  0.7985  1.9247  0.3922
 4047SOL     MW16188   9.329   7.194   2.235  0.7627  0.1807  0.2348
 4048SOL     OW16189   9.442   2.434   1.353 -0.1222  0.1720  0.0948
 4048SOL    HW116190   9.385   2.507   1.377  0.1847  0.1221  1.0205
 4048SOL    HW216191   9.495   2.418   1.431  0.5845 -0.3236 -0.4667
 4048SOL     MW16192   9.442   2.441   1.366  0.0076  0.1022  0.1414
 4049SOL     OW16193   0.563   1.298   1.410  0.2865  0.3780  0.3258
 4049SOL    HW116194   0.537   1.370   1.353 -2.0219 -0.7681 -0.1654
 4049SOL    HW216195   0.482   1.269   1.451  1.5342 -0.3781  2.4187
 4049SOL     MW16196   0.549   1.304   1.408  0.1507  0.1345  0.5308
 4050SOL     OW16197   8.920   1.625   8.946 -1.2515  0.1408 -0.4313
 4050SOL    HW116198   8.992   1.574   8.983 -2.9355 -1.4879  0.8038
 4050SOL    HW216199   8.882   1.670   9.021 -2.1897  0.1158 -0.8797
 4050SOL     MW16200   8.925   1.625   8.960 -1.5872 -0.0709 -0.3306
 4051SOL     OW16201   8.199   5.611   2.698 -0.5468  0.0851 -0.2922
 4051SOL    HW116202   8.218   5.666   2.622  0.0272  0.4902  0.1287
 4051SOL    HW216203   8.103   5.608   2.702 -0.5844  0.0890 -0.9995
 4051SOL     MW16204   8.189   5.618   2.689 -0.4781  0.1375 -0.3288
 4052SOL     OW16205   6.762   2.130   0.576 -0.4889  0.0116  0.0182
 4052SOL    HW116206   6.682   2.105   0.530  0.2866  0.0456 -1.4119
 4052SOL    HW216207   6.778   2.221   0.551  0.4495 -0.2564 -0.3971
 4052SOL     MW16208   6.754   2.138   0.567 -0.2695 -0.0183 -0.2181
 4053SOL     OW16209   6.388   5.384   1.198 -0.3359  0.0367  0.1130
 4053SOL    HW116210   6.300   5.421   1.191  0.0613  1.2622  1.2231
 4053SOL    HW216211   6.446   5.449   1.159  0.1389 -0.5083 -0.1128
 4053SOL     MW16212   6.384   5.397   1.192 -0.2243  0.1239  0.2262
 4054SOL     OW16213   9.206   9.054   1.240  0.1011 -0.5659 -0.1630
 4054SOL    HW116214   9.140   9.115   1.272  0.6795 -0.0389  0.0516
 4054SOL    HW216215   9.184   9.040   1.148 -0.5720 -0.7524  0.0240
 4054SOL     MW16216   9.195   9.060   1.232  0.0890 -0.5223 -0.1116
 4055SOL     OW16217   6.230   9.886   1.445  0.5715 -0.2832 -0.3157
 4055SOL    HW116218   6.206   9.949   1.513  0.7912  0.9384 -1.3245
 4055SOL    HW216219   6.153   9.881   1.389  0.5860 -0.8750 -0.2935
 4055SOL     MW16220   6.217   9.893   1.447  0.6015 -0.2026 -0.4420
 4056SOL     OW16221   8.869   6.450   9.701 -0.2311 -0.1302 -0.5458
 4056SOL    HW116222   8.830   6.518   9.755 -1.0324 -0.5930 -0.5240
 4056SOL    HW216223   8.911   6.390   9.763 -0.6960 -0.3774 -0.4649
 4056SOL     MW16224   8.870   6.451   9.715 -0.3932 -0.2211 -0.5327
 4057SOL     OW16225   7.888   1.939   9.977 -0.4664 -0.0869 -0.6755
 4057SOL    HW116226   7.845   1.902  10.054  0.1155  0.3507 -0.1215
 4057SOL    HW216227   7.897   2.032   9.998 -0.4333  0.0638 -1.3397
 4057SOL     MW16228   7.883   1.946   9.990 -0.3877 -0.0116 -0.6896
 4058SOL     OW16229   9.566   5.978   0.563 -0.1306  0.2514  0.3360
 4058SOL    HW116230   9.510   5.902   0.574 -0.2947  0.0144 -1.6961
 4058SOL    HW216231   9.655   5.943   0.559 -0.1746  0.1951 -0.2222
 4058SOL     MW16232   9.570   5.964   0.564 -0.1572  0.2138  0.0044
 4059SOL     OW16233   9.240   9.314   0.750 -0.1135 -0.4902  0.3140
 4059SOL    HW116234   9.220   9.344   0.662  1.1975 -1.6736 -0.4263
 4059SOL    HW216235   9.236   9.393   0.804 -0.5988  0.3041 -0.8488
 4059SOL     MW16236   9.237   9.328   0.746 -0.0078 -0.5400  0.0704
 4060SOL     OW16237   8.538   1.694   0.850 -0.1431 -0.5011 -0.1178
 4060SOL    HW116238   8.490   1.680   0.769  1.4676 -0.9468 -1.0511
 4060SOL    HW216239   8.613   1.749   0.824  0.5323 -0.8403  1.0158
 4060SOL     MW16240   8.542   1.700   0.837  0.1495 -0.6015 -0.0922
 4061SOL     OW16241   7.200   2.348  10.024  0.2032  0.3721 -0.0971
 4061SOL    HW116242   7.109   2.377  10.029  0.5377  1.9932 -1.8597
 4061SOL    HW216243   7.195   2.253  10.019 -1.2557  0.3018  1.6341
 4061SOL     MW16244   7.188   2.340  10.024  0.0593  0.5706 -0.1011
 4062SOL     OW16245   8.637   6.353   9.125 -0.0578  0.0121  0.1302
 4062SOL    HW116246   8.594   6.270   9.145  0.0730  0.1699  1.1586
 4062SOL    HW216247   8.720   6.328   9.084 -1.8087 -0.2685 -3.5753
 4062SOL     MW16248   8.642   6.340   9.123 -0.2652 -0.0036 -0.2125
 4063SOL     OW16249   6.691   7.373   0.802 -0.3333 -0.0096 -0.1685
 4063SOL    HW116250   6.639   7.320   0.741  0.4455  0.2620 -1.1033
 4063SOL    HW216251   6.633   7.443   0.830 -0.2382  0.7796 -1.8518
 4063SOL     MW16252   6.677   7.375   0.798 -0.2215  0.1262 -0.5037
 4064SOL     OW16253   7.051   2.439   0.897  0.2007 -0.1480  1.0806
 4064SOL    HW116254   6.976   2.483   0.938  0.9105  0.3759  1.8467
 4064SOL    HW216255   7.012   2.383   0.830 -0.8453  0.4666  1.1485
 4064SOL     MW16256   7.036   2.438   0.894  0.1577 -0.0023  1.1874
 4065SOL     OW16257   6.946   3.626   1.775  0.1671  0.3723 -0.2641
 4065SOL    HW116258   6.892   3.643   1.697 -1.0081 -2.2223 -0.1224
 4065SOL    HW216259   7.034   3.614   1.741  0.1018  1.5599 -0.8934
 4065SOL     MW16260   6.950   3.627   1.760  0.0083  0.1922 -0.3265
 4066SOL     OW16261   7.374   6.609   0.698 -0.5546  0.1056  0.4529
 4066SOL    HW116262   7.332   6.535   0.654 -0.1194  0.2683 -0.2471
 4066SOL    HW216263   7.449   6.630   0.643 -1.8986  2.5021 -0.6019
 4066SOL     MW16264   7.378   6.602   0.686 -0.6709  0.4332  0.2283
 4067SOL     OW16265   9.730   3.424   1.692  0.4054  0.4361  0.3567
 4067SOL    HW116266   9.748   3.474   1.772 -0.2948  1.0620  0.1253
 4067SOL    HW216267   9.797   3.451   1.631  0.0149  1.1177  0.2249
 4067SOL     MW16268   9.741   3.434   1.695  0.2658  0.6035  0.3102
 4068SOL     OW16269   9.932   2.175   0.627 -0.4327 -0.0557 -0.0638
 4068SOL    HW116270   9.943   2.242   0.694 -1.6468  0.6894 -0.5615
 4068SOL    HW216271   9.967   2.095   0.667  2.1396  1.0567  0.1049
 4068SOL     MW16272   9.938   2.173   0.641 -0.2588  0.1821 -0.1059
 4069SOL     OW16273   8.662   6.991   1.860 -0.6718 -0.1680 -0.0644
 4069SOL    HW116274   8.599   7.063   1.859  1.1390  1.4998 -0.0760
 4069SOL    HW216275   8.747   7.033   1.850  0.5329 -2.2735  0.6156
 4069SOL     MW16276   8.665   7.005   1.858 -0.2858 -0.2240  0.0211
 4070SOL     OW16277   7.070   8.818   9.257  0.1823 -0.1733  0.7207
 4070SOL    HW116278   7.091   8.830   9.350 -0.7477  1.6725  0.7394
 4070SOL    HW216279   7.148   8.849   9.211  0.2360 -0.0847  0.8689
 4070SOL     MW16280   7.083   8.823   9.263  0.0701  0.0743  0.7421
 4071SOL     OW16281   9.164   2.780   0.243  0.0931 -0.0399  0.2835
 4071SOL    HW116282   9.224   2.808   0.174 -1.0331  1.6826 -0.0563
 4071SOL    HW216283   9.181   2.840   0.316 -0.1264 -0.5541  0.7653
 4071SOL     MW16284   9.174   2.791   0.243 -0.0791  0.1148  0.3017
 4072SOL     OW16285   9.416   0.888   1.197  0.1730 -0.0932 -0.2315
 4072SOL    HW116286   9.344   0.830   1.222  0.4034 -0.2971 -0.0314
 4072SOL    HW216287   9.493   0.831   1.197  0.3891  0.1992 -0.1018
 4072SOL     MW16288   9.416   0.873   1.200  0.2302 -0.0819 -0.1893
 4073SOL     OW16289   8.273   2.934   0.097 -0.5436  0.5761  0.2000
 4073SOL    HW116290   8.300   2.968   0.011  0.9779 -0.0497  0.3944
 4073SOL    HW216291   8.227   3.007   0.138 -0.1432  1.3198 -0.6374
 4073SOL     MW16292   8.271   2.948   0.091 -0.2976  0.5912  0.1177
 4074SOL     OW16293   8.904   7.105   1.890  0.1079 -0.2754 -0.1995
 4074SOL    HW116294   8.941   7.111   1.802 -2.2496 -1.1172 -1.3521
 4074SOL    HW216295   8.971   7.062   1.942  1.0668 -0.9419 -1.9155
 4074SOL     MW16296   8.917   7.100   1.885 -0.0711 -0.4685 -0.5667
 4075SOL     OW16297   8.286   0.629   1.136 -0.5179 -0.2084  0.7868
 4075SOL    HW116298   8.202   0.618   1.182 -2.2882  1.6872 -1.7456
 4075SOL    HW216299   8.274   0.706   1.081  2.5239 -0.5569 -0.5732
 4075SOL     MW16300   8.274   0.637   1.135 -0.3551 -0.0104  0.2885
 4076SOL     OW16301   7.311   8.154   0.592 -0.2077  0.6689 -0.6413
 4076SOL    HW116302   7.232   8.111   0.559  1.2066 -1.8975 -0.9571
 4076SOL    HW216303   7.337   8.213   0.522 -1.7327  1.4661 -0.5794
 4076SOL     MW16304   7.304   8.156   0.579 -0.2219  0.4424 -0.6738
 4077SOL     OW16305   9.698   8.025   2.614 -0.1806  0.1994  0.1889
 4077SOL    HW116306   9.730   8.072   2.537  1.1524  0.3051  0.7850
 4077SOL    HW216307   9.670   8.093   2.674  0.4135  0.1930  0.4818
 4077SOL     MW16308   9.699   8.039   2.612  0.0661  0.2121  0.3027
 4078SOL     OW16309  10.030   1.598   2.336  1.0527 -0.2050  0.0248
 4078SOL    HW116310  10.119   1.564   2.347  1.0998  0.4510  2.0286
 4078SOL    HW216311  10.040   1.693   2.336  0.2821 -0.0904  1.4812
 4078SOL     MW16312  10.043   1.606   2.337  0.9601 -0.1064  0.4677
 4079SOL     OW16313   7.687   4.821   0.747  0.8514  0.4959 -0.2647
 4079SOL    HW116314   7.684   4.787   0.657  1.3096  0.7223 -0.3700
 4079SOL    HW216315   7.779   4.845   0.760  0.7747  0.5212  0.2461
 4079SOL     MW16316   7.699   4.820   0.737  0.9002  0.5281 -0.2128
 4080SOL     OW16317   7.193   6.765   0.300 -0.2294 -0.1289 -0.3497
 4080SOL    HW116318   7.201   6.792   0.209 -1.8560 -0.3650 -0.6030
 4080SOL    HW216319   7.224   6.675   0.301 -0.8811 -0.3671 -0.8304
 4080SOL     MW16320   7.198   6.757   0.288 -0.5210 -0.1896 -0.4437
 4081SOL     OW16321   9.881   1.685   1.485 -0.1921 -0.2290  0.8081
 4081SOL    HW116322   9.845   1.715   1.569 -1.6748 -0.9590  0.4711
 4081SOL    HW216323   9.901   1.765   1.437  0.3766  0.1985  1.7377
 4081SOL     MW16324   9.879   1.699   1.490 -0.3091 -0.2677  0.8840
 4082SOL     OW16325   8.513   6.760   1.873 -0.3630  0.4325 -0.5877
 4082SOL    HW116326   8.556   6.846   1.879 -2.3574  1.4083  1.0566
 4082SOL    HW216327   8.511   6.728   1.963  0.3790 -1.4286 -1.1757
 4082SOL     MW16328   8.518   6.767   1.885 -0.5233  0.3192 -0.4525
 4083SOL     OW16329   7.450   4.977   9.470 -0.3572 -0.0874 -0.5498
 4083SOL    HW116330   7.378   5.039   9.455 -0.0663  0.2484 -0.5819
 4083SOL    HW216331   7.409   4.901   9.511 -0.7723 -0.0066 -0.8098
 4083SOL     MW16332   7.435   4.975   9.473 -0.3731 -0.0341 -0.5872
 4084SOL     OW16333   0.251   7.600   1.739  0.3840 -0.2421  0.2853
 4084SOL    HW116334   0.300   7.531   1.694  0.1497  0.0594 -0.4554
 4084SOL    HW216335   0.297   7.681   1.716 -0.1702 -0.0086 -0.0152
 4084SOL     MW16336   0.263   7.601   1.730  0.2831 -0.1736  0.1520
 4085SOL     OW16337   9.164   4.251   1.638  0.1061 -0.0428  0.0435
 4085SOL    HW116338   9.192   4.261   1.547  1.3197 -0.6628  0.3218
 4085SOL    HW216339   9.069   4.250   1.634  0.0747  1.9761 -0.9842
 4085SOL     MW16340   9.156   4.252   1.626  0.2574  0.1362 -0.0525
 4086SOL     OW16341   7.779   4.336   0.735 -0.3124 -0.4752  0.0657
 4086SOL    HW116342   7.821   4.405   0.683 -2.1544  0.4631 -0.2806
 4086SOL    HW216343   7.794   4.362   0.826  0.1281 -0.3503 -0.0384
 4086SOL     MW16344   7.786   4.348   0.740 -0.4918 -0.3391  0.0081
 4087SOL     OW16345   9.076   3.790   1.513 -0.0146  0.5194  0.0063
 4087SOL    HW116346   9.119   3.730   1.453 -0.6742 -1.2644  1.2257
 4087SOL    HW216347   9.117   3.772   1.598 -1.5312  0.3960  0.7541
 4087SOL     MW16348   9.087   3.780   1.516 -0.2932  0.2752  0.2581
 4088SOL     OW16349   8.907   2.792   1.522  0.4939 -0.1756 -0.1855
 4088SOL    HW116350   8.988   2.843   1.514  0.9416 -1.0241 -1.2927
 4088SOL    HW216351   8.877   2.781   1.432 -1.3469  0.8381  0.2390
 4088SOL     MW16352   8.914   2.797   1.510  0.3156 -0.1545 -0.2729
 4089SOL     OW16353   0.116   7.707   1.083  0.2467  0.1541  0.1707
 4089SOL    HW116354   0.174   7.632   1.070 -0.7973 -1.1752  2.5028
 4089SOL    HW216355   0.175   7.779   1.107  1.1306 -0.3113 -0.5235
 4089SOL     MW16356   0.131   7.707   1.084  0.2262 -0.0757  0.3803
 4090SOL     OW16357   8.369   3.334   0.525  0.0052  0.1443 -0.0019
 4090SOL    HW116358   8.405   3.245   0.519  0.3379  0.3147 -0.6105
 4090SOL    HW216359   8.274   3.321   0.528  0.0637 -0.2478  0.2594
 4090SOL     MW16360   8.361   3.321   0.524  0.0553  0.1159 -0.0463
 4091SOL     OW16361   0.230   8.943   0.699 -0.5585  0.2393  0.2691
 4091SOL    HW116362   0.139   8.971   0.704 -0.0333  1.8175  2.7955
 4091SOL    HW216363   0.251   8.912   0.787  1.5274  0.6051 -0.0398
 4091SOL     MW16364   0.221   8.942   0.711 -0.2242  0.4882  0.5530
 4092SOL     OW16365   7.698   6.273   2.644  0.9644 -0.4537 -0.2085
 4092SOL    HW116366   7.663   6.220   2.715  1.7334 -0.2653  0.3358
 4092SOL    HW216367   7.708   6.360   2.682  3.8615 -0.9243  0.3427
 4092SOL     MW16368   7.695   6.277   2.658  1.4337 -0.4898 -0.0682
 4093SOL     OW16369   9.420   1.430   1.560  0.1773 -0.1337  0.0311
 4093SOL    HW116370   9.467   1.428   1.476 -0.0982 -0.9403 -0.1167
 4093SOL    HW216371   9.340   1.381   1.543 -0.2111  0.3009  0.5836
 4093SOL     MW16372   9.416   1.423   1.547  0.0923 -0.1813  0.0829
 4094SOL     OW16373   8.588   7.177   2.489 -0.0767  0.0912  0.5230
 4094SOL    HW116374   8.493   7.176   2.479 -0.1635  0.2106  1.3025
 4094SOL    HW216375   8.619   7.238   2.422 -0.5295 -0.0991  0.1350
 4094SOL     MW16376   8.580   7.184   2.479 -0.1458  0.0821  0.5731
 4095SOL     OW16377   8.767   3.834   1.218 -0.0753 -0.2933  0.1179
 4095SOL    HW116378   8.813   3.892   1.278 -0.7999  2.6832 -1.9837
 4095SOL    HW216379   8.674   3.847   1.237 -0.2739 -2.3580  0.8833
 4095SOL     MW16380   8.761   3.843   1.228 -0.1935 -0.1766 -0.0531
 4096SOL     OW16381   7.264   5.653   2.531  0.1114  0.4320  0.5001
 4096SOL    HW116382   7.334   5.679   2.471  0.7072 -0.7897  0.6215
 4096SOL    HW216383   7.215   5.734   2.548  0.2005  0.9088 -1.2521
 4096SOL     MW16384   7.267   5.667   2.525  0.1991  0.3367  0.2914
 4097SOL     OW16385   7.323   6.908   2.580 -0.1052  0.4326  0.9173
 4097SOL    HW116386   7.323   6.880   2.488  0.6031 -0.9896  1.3180
 4097SOL    HW216387   7.312   7.003   2.576 -1.4030  0.2651 -0.5850
 4097SOL     MW16388   7.322   6.916   2.568 -0.1807  0.2291  0.7763
 4098SOL     OW16389   8.632   8.803   9.956  0.6391 -0.7188  1.1129
 4098SOL    HW116390   8.553   8.785  10.006 -1.5110 -0.1494 -1.7895
 4098SOL    HW216391   8.679   8.720   9.955 -1.8078 -2.2257 -0.0261
 4098SOL     MW16392   8.628   8.790   9.962  0.0506 -0.8388  0.5956
 4099SOL     OW16393   7.334   4.365   1.731 -0.0325 -0.0472 -0.3805
 4099SOL    HW116394   7.364   4.370   1.822  0.8538 -0.0893 -0.6551
 4099SOL    HW216395   7.413   4.380   1.679 -0.2202 -1.5776 -1.1615
 4099SOL     MW16396   7.348   4.368   1.736  0.0570 -0.2485 -0.5156
 4100SOL     OW16397   7.278   2.573   0.757  0.4149 -0.9072 -0.1635
 4100SOL    HW116398   7.208   2.526   0.802  0.8860 -1.0134  0.4737
 4100SOL    HW216399   7.316   2.509   0.697 -1.4392 -0.2622 -2.1798
 4100SOL     MW16400   7.274   2.559   0.755  0.2378 -0.8382 -0.3401
 4101SOL     OW16401   8.316   5.071   9.128  0.1164  0.3210 -0.5660
 4101SOL    HW116402   8.229   5.055   9.166  1.1532 -1.8216  1.0938
 4101SOL    HW216403   8.306   5.047   9.036 -0.9340 -0.3063 -0.3090
 4101SOL     MW16404   8.303   5.066   9.122  0.1146 -0.0336 -0.3206
 4102SOL     OW16405   8.753   2.410   1.206 -0.0062 -0.6851 -0.3307
 4102SOL    HW116406   8.693   2.428   1.134 -0.3481  1.3396  0.3967
 4102SOL    HW216407   8.713   2.337   1.253 -1.4754  0.1027 -0.3282
 4102SOL     MW16408   8.740   2.403   1.203 -0.2381 -0.3251 -0.2372
 4103SOL     OW16409   6.873   6.806   9.960  0.3169 -0.2773  0.0597
 4103SOL    HW116410   6.915   6.758   9.889 -1.9852 -2.1383 -0.2034
 4103SOL    HW216411   6.882   6.748  10.036  0.4685  0.4868  0.6351
 4103SOL     MW16412   6.879   6.792   9.961  0.0416 -0.4177  0.0996
 4104SOL     OW16413   8.114   9.848   2.128  0.0840 -0.2381 -0.1010
 4104SOL    HW116414   8.048   9.789   2.091  1.3847 -0.4711 -2.2379
 4104SOL    HW216415   8.074   9.934   2.123 -0.1196 -0.3815 -1.3262
 4104SOL     MW16416   8.101   9.851   2.123  0.2245 -0.2863 -0.5314
 4105SOL     OW16417   7.806   1.441   8.981 -0.2809 -0.5634 -0.0097
 4105SOL    HW116418   7.813   1.438   9.076  1.8542 -0.7447 -0.1339
 4105SOL    HW216419   7.831   1.530   8.957 -0.7393 -0.5380 -0.4060
 4105SOL     MW16420   7.810   1.452   8.990 -0.0663 -0.5834 -0.0764
 4106SOL     OW16421   8.668   9.524   1.321 -0.5557 -0.6238 -0.4406
 4106SOL    HW116422   8.689   9.500   1.412  0.0610  2.2912  0.2771
 4106SOL    HW216423   8.604   9.458   1.294 -0.6640 -1.6786  2.0545
 4106SOL     MW16424   8.662   9.512   1.330 -0.4906 -0.3856 -0.0294
 4107SOL     OW16425   7.622   5.872   1.720  0.5828  0.5163  0.1391
 4107SOL    HW116426   7.565   5.822   1.662 -1.2755  1.1228  1.3556
 4107SOL    HW216427   7.609   5.963   1.696  2.2998  0.6087 -0.6116
 4107SOL     MW16428   7.613   5.877   1.710  0.5647  0.6058  0.1987
 4108SOL     OW16429   8.277   3.612   2.455  0.5114  0.0683  0.1569
 4108SOL    HW116430   8.273   3.705   2.433  3.1259  0.2058 -0.0198
 4108SOL    HW216431   8.263   3.567   2.371 -0.4572  0.2780  0.1926
 4108SOL     MW16432   8.275   3.618   2.442  0.7221  0.1128  0.1388
 4109SOL     OW16433   6.832   6.228   0.968 -0.1526  0.3293  0.0588
 4109SOL    HW116434   6.809   6.321   0.975  0.1809  0.3528  1.0652
 4109SOL    HW216435   6.757   6.183   1.006  0.1053  0.2440  0.4739
 4109SOL     MW16436   6.819   6.234   0.974 -0.0769  0.3214  0.2408
 4110SOL     OW16437   6.719   3.237   1.866  0.3151 -0.0499  0.3582
 4110SOL    HW116438   6.791   3.181   1.838 -0.5346  0.1821 -2.6643
 4110SOL    HW216439   6.674   3.187   1.935  0.6324 -2.3128 -0.9941
 4110SOL     MW16440   6.722   3.224   1.872  0.2469 -0.3099 -0.2018
 4111SOL     OW16441   9.556   1.928   9.604 -0.3088  0.0519 -0.0655
 4111SOL    HW116442   9.616   1.854   9.609  1.0366  1.0342 -0.8478
 4111SOL    HW216443   9.564   1.960   9.514 -0.8498  1.1383  0.2455
 4111SOL     MW16444   9.565   1.923   9.593 -0.2058  0.3167 -0.1258
 4112SOL     OW16445   8.571   0.851   3.026 -0.3870  1.0941 -0.2475
 4112SOL    HW116446   8.602   0.940   3.043 -1.2849  1.2807  0.4376
 4112SOL    HW216447   8.589   0.803   3.107  2.0054  0.0597 -1.2658
 4112SOL     MW16448   8.577   0.856   3.038 -0.1957  0.9856 -0.2902
 4113SOL     OW16449   7.548   3.865   9.339 -0.1968 -0.0198 -0.5376
 4113SOL    HW116450   7.569   3.821   9.420  0.0846  1.1408  0.0475
 4113SOL    HW216451   7.454   3.881   9.344  0.1243  1.8950  0.5709
 4113SOL     MW16452   7.539   3.862   9.350 -0.1197  0.3739 -0.3208
 4114SOL     OW16453   0.282   6.927   0.724  0.5938  0.3462 -0.2056
 4114SOL    HW116454   0.296   6.899   0.633 -0.0052  0.9328 -0.4924
 4114SOL    HW216455   0.207   6.875   0.754 -0.5883  1.6503 -0.7746
 4114SOL     MW16456   0.274   6.917   0.716  0.3658  0.5882 -0.3152
 4115SOL     OW16457   6.274   9.858   0.946  0.1894  0.0696  0.6481
 4115SOL    HW116458   6.186   9.820   0.952  0.9122 -1.5973  1.1658
 4115SOL    HW216459   6.280   9.916   1.022 -0.5235  0.3466  0.5037
 4115SOL     MW16460   6.263   9.860   0.956  0.1907 -0.1083  0.6959
 4116SOL     OW16461   7.850   1.232   2.003  0.0914 -0.4744 -0.1490
 4116SOL    HW116462   7.862   1.202   1.913 -0.3305  0.0313 -0.3773
 4116SOL    HW216463   7.784   1.301   1.997 -1.6144 -1.9468  0.8243
 4116SOL     MW16464   7.843   1.237   1.991 -0.1810 -0.5982 -0.0537
 4117SOL     OW16465   0.373   6.995   0.970  0.2776 -0.3154  0.5606
 4117SOL    HW116466   0.349   6.921   1.027  2.3161 -1.9459 -0.5964
 4117SOL    HW216467   0.347   6.968   0.882  0.9277  0.4113  0.1287
 4117SOL     MW16468   0.366   6.982   0.966  0.6218 -0.4311  0.3572
 4118SOL     OW16469   8.960   2.982   0.077 -0.4886 -0.1413  0.1816
 4118SOL    HW116470   8.981   2.978   0.170  0.4016  0.5256  0.0260
 4118SOL    HW216471   8.865   2.989   0.073 -0.5141  0.0366  1.0455
 4118SOL     MW16472   8.951   2.982   0.088 -0.3779 -0.0331  0.2723
 4119SOL     OW16473   8.064   0.192   0.340 -0.2410 -0.1229 -0.2706
 4119SOL    HW116474   8.121   0.123   0.373  1.4435  1.8151  1.1615
 4119SOL    HW216475   8.112   0.232   0.268  0.2202  1.4039  0.8203
 4119SOL     MW16476   8.077   0.188   0.335  0.0337  0.3206  0.0524
 4120SOL     OW16477   6.525   8.643   1.738 -0.2160  0.0129 -0.3694
 4120SOL    HW116478   6.528   8.551   1.763 -0.9827  0.5907  2.0504
 4120SOL    HW216479   6.466   8.646   1.662 -1.5161 -1.3002  0.5466
 4120SOL     MW16480   6.518   8.632   1.731 -0.4806 -0.0812  0.0576
 4121SOL     OW16481   9.522   4.557   9.218 -0.2902 -0.3219  0.1590
 4121SOL    HW116482   9.601   4.600   9.250 -1.0463  0.3139  1.2381
 4121SOL    HW216483   9.455   4.625   9.220 -1.7420 -1.6489  2.7534
 4121SOL     MW16484   9.523   4.571   9.223 -0.5728 -0.4104  0.6292
 4122SOL     OW16485   6.874   5.639   2.241  0.3779 -0.0578 -0.3602
 4122SOL    HW116486   6.862   5.646   2.146  0.1581 -0.9218 -0.4046
 4122SOL    HW216487   6.818   5.566   2.267  1.1573 -0.4414  0.2963
 4122SOL     MW16488   6.865   5.630   2.232  0.4495 -0.2175 -0.2818
 4123SOL     OW16489   7.480   6.408   1.770 -0.2108  0.0338 -0.1830
 4123SOL    HW116490   7.486   6.421   1.865 -0.0078  0.0125 -0.1928
 4123SOL    HW216491   7.388   6.421   1.750 -0.5065 -1.2718  0.2203
 4123SOL     MW16492   7.469   6.411   1.780 -0.2227 -0.1360 -0.1326
 4124SOL     OW16493   7.544   9.301   1.293 -0.2498  0.3143 -0.1043
 4124SOL    HW116494   7.608   9.257   1.350 -0.5011  1.8737  1.4468
 4124SOL    HW216495   7.557   9.260   1.207  2.7185  0.4385  0.1669
 4124SOL     MW16496   7.554   9.290   1.289  0.0980  0.5298  0.1290
 4125SOL     OW16497   8.169   6.526   0.195  0.1377  0.0905  0.4059
 4125SOL    HW116498   8.193   6.593   0.131 -1.5142 -0.7497 -1.2182
 4125SOL    HW216499   8.108   6.570   0.254  0.1068  0.3745  0.1645
 4125SOL     MW16500   8.164   6.540   0.194 -0.0777  0.0193  0.1671
 4126SOL     OW16501   9.346   5.338   1.516  0.0236 -0.3074 -0.0986
 4126SOL    HW116502   9.348   5.386   1.434  0.7940  0.2301  0.2309
 4126SOL    HW216503   9.416   5.274   1.509  0.6517  0.3063  0.4743
 4126SOL     MW16504   9.355   5.336   1.505  0.2026 -0.1600  0.0169
 4127SOL     OW16505  10.067   2.187   0.126 -0.1600 -0.5709 -0.3061
 4127SOL    HW116506  10.151   2.144   0.140 -0.4585 -0.9446  0.4481
 4127SOL    HW216507  10.005   2.135   0.178 -0.7518  0.0229 -0.3999
 4127SOL     MW16508  10.069   2.175   0.135 -0.2739 -0.5427 -0.2216
 4128SOL     OW16509   8.455   9.394   0.208 -0.2451  0.5352  0.0863
 4128SOL    HW116510   8.411   9.456   0.150 -0.9158  0.4325  0.4846
 4128SOL    HW216511   8.398   9.318   0.210 -0.0851  0.4247  0.6571
 4128SOL     MW16512   8.442   9.392   0.201 -0.3105  0.5079  0.2104
 4129SOL     OW16513   9.147   9.761   9.952 -0.2400  0.2320 -0.2565
 4129SOL    HW116514   9.126   9.667   9.958  0.0213  0.1566 -0.5126
 4129SOL    HW216515   9.164   9.787  10.042 -0.1586 -0.0028 -0.2034
 4129SOL     MW16516   9.146   9.752   9.964 -0.1962  0.1923 -0.2825
 4130SOL     OW16517   9.952   5.774   9.777 -0.4890 -0.0421 -0.5692
 4130SOL    HW116518   9.945   5.709   9.707  0.8020  0.6702 -1.4165
 4130SOL    HW216519   9.862   5.792   9.803 -0.9239 -1.2240 -1.1999
 4130SOL     MW16520   9.940   5.768   9.771 -0.3794 -0.1022 -0.7584
 4131SOL     OW16521   6.334   7.189   0.499  0.3203  0.1690  0.2071
 4131SOL    HW116522   6.285   7.263   0.464  0.4434  0.2850  0.2823
 4131SOL    HW216523   6.420   7.225   0.521  0.6751 -0.1761 -0.5642
 4131SOL     MW16524   6.339   7.203   0.497  0.3815  0.1396  0.1180
 4132SOL     OW16525   7.921   5.759   2.143 -0.3576 -0.5716  0.9548
 4132SOL    HW116526   7.892   5.761   2.051 -0.4624 -2.3147  0.9206
 4132SOL    HW216527   7.891   5.842   2.179  0.2231  0.4418 -0.7436
 4132SOL     MW16528   7.914   5.770   2.136 -0.2966 -0.6650  0.7330
 4133SOL     OW16529   8.629   4.402   0.402  0.0343 -0.4192  0.1265
 4133SOL    HW116530   8.642   4.308   0.404  0.0047 -0.4761 -1.3141
 4133SOL    HW216531   8.602   4.421   0.312 -0.8933  0.8439  0.6418
 4133SOL     MW16532   8.628   4.393   0.391 -0.0882 -0.2648  0.0080
 4134SOL     OW16533   0.339   8.376   0.474 -0.2183 -0.2915 -0.6190
 4134SOL    HW116534   0.286   8.302   0.443  1.0948 -1.2360 -0.6992
 4134SOL    HW216535   0.289   8.454   0.447 -1.1920 -1.1314 -1.3412
 4134SOL     MW16536   0.326   8.377   0.467 -0.1749 -0.5199 -0.7217
 4135SOL     OW16537   6.363   1.931   2.042 -0.4178 -0.0311 -0.1314
 4135SOL    HW116538   6.292   1.994   2.033 -0.9617 -0.6631 -0.3040
 4135SOL    HW216539   6.393   1.941   2.133 -0.7977  0.1577 -0.0260
 4135SOL     MW16540   6.358   1.941   2.053 -0.5361 -0.0878 -0.1400
 4136SOL     OW16541   7.061   6.150   9.941  0.0706 -0.0249 -0.5234
 4136SOL    HW116542   7.154   6.168   9.946  0.0590 -0.1553  0.3036
 4136SOL    HW216543   7.056   6.058   9.913  0.2461 -0.6114  1.2262
 4136SOL     MW16544   7.072   6.140   9.938  0.0916 -0.1167 -0.1936
 4137SOL     OW16545   6.540   6.649   1.504  0.6165 -0.2836 -0.0754
 4137SOL    HW116546   6.514   6.611   1.420  1.3059 -0.6462 -0.1366
 4137SOL    HW216547   6.577   6.735   1.481  0.0534 -0.0343 -0.0535
 4137SOL     MW16548   6.542   6.655   1.490  0.6327 -0.2981 -0.0804
 4138SOL     OW16549   9.510   7.114   1.519  0.0569  0.3463 -0.5473
 4138SOL    HW116550   9.546   7.041   1.569  0.2153 -0.6707 -2.0840
 4138SOL    HW216551   9.525   7.090   1.428 -0.8960  1.7968 -1.1148
 4138SOL     MW16552   9.517   7.102   1.514 -0.0448  0.4018 -0.8166
 4139SOL     OW16553   6.738   0.474   1.543 -0.6929  0.0333  0.4173
 4139SOL    HW116554   6.722   0.558   1.501  1.4475 -0.6723 -2.1075
 4139SOL    HW216555   6.800   0.430   1.485  1.5905 -1.5989  3.7950
 4139SOL     MW16556   6.744   0.479   1.530 -0.1266 -0.2660  0.5265
 4140SOL     OW16557   6.507   7.578   0.797 -0.3918  0.3737 -0.0180
 4140SOL    HW116558   6.425   7.558   0.842 -1.2203  0.0685 -1.5921
 4140SOL    HW216559   6.546   7.649   0.849 -1.3562  0.1310  1.0838
 4140SOL     MW16560   6.502   7.585   0.810 -0.6213  0.3035 -0.0784
 4141SOL     OW16561   7.762   2.645   0.358 -0.5715  0.7830 -0.0255
 4141SOL    HW116562   7.721   2.684   0.281  0.1195  1.2419 -0.1663
 4141SOL    HW216563   7.748   2.551   0.348  0.3405  0.7616 -1.1930
 4141SOL     MW16564   7.755   2.638   0.347 -0.3663  0.8390 -0.1930
 4142SOL     OW16565   7.241   0.548  10.151  0.5172 -0.3677 -0.2974
 4142SOL    HW116566   7.187   0.508  10.082 -0.4570  0.2375  0.0913
 4142SOL    HW216567   7.192   0.531  10.232 -0.8925  3.0452 -0.2694
 4142SOL     MW16568   7.228   0.540  10.153  0.2120  0.1467 -0.2441
 4143SOL     OW16569   8.068   8.628   1.467  0.5346  0.3904 -0.1585
 4143SOL    HW116570   8.126   8.632   1.543  0.5505  2.6153 -0.2259
 4143SOL    HW216571   8.119   8.665   1.396 -0.5327  1.2831 -0.4940
 4143SOL     MW16572   8.082   8.633   1.468  0.4000  0.7895 -0.2101
 4144SOL     OW16573   6.644   5.778   0.240  0.0967 -0.3157 -0.0342
 4144SOL    HW116574   6.614   5.785   0.330  0.9000 -0.4720  0.2504
 4144SOL    HW216575   6.647   5.684   0.222  0.4832 -0.3072 -0.0315
 4144SOL     MW16576   6.641   5.767   0.249  0.2490 -0.3346  0.0026
 4145SOL     OW16577   0.493   4.624   1.188  0.0903  0.1641 -0.1056
 4145SOL    HW116578   0.436   4.615   1.113  0.4294 -3.5246 -0.0818
 4145SOL    HW216579   0.582   4.621   1.152  0.3111  1.4506  0.2498
 4145SOL     MW16580   0.497   4.623   1.174  0.1620 -0.1434 -0.0571
 4146SOL     OW16581   9.249   9.658   9.340  0.3490  0.5313 -0.1631
 4146SOL    HW116582   9.303   9.599   9.392 -0.5857 -0.5586 -0.4073
 4146SOL    HW216583   9.194   9.703   9.404 -2.2949 -2.3141 -0.2479
 4146SOL     MW16584   9.249   9.656   9.355 -0.1091  0.0276 -0.2053
 4147SOL     OW16585   6.938   7.647   9.721  0.2659 -0.3488  0.6000
 4147SOL    HW116586   6.849   7.665   9.692  0.6791 -2.1335 -2.1464
 4147SOL    HW216587   6.993   7.703   9.666  0.9180 -0.4721  1.1140
 4147SOL     MW16588   6.934   7.657   9.710  0.4023 -0.5930  0.3143
 4148SOL     OW16589   8.748   1.457   9.372  0.1942 -0.1755 -0.3472
 4148SOL    HW116590   8.796   1.381   9.339  2.3421  0.3340  1.3276
 4148SOL    HW216591   8.728   1.435   9.463  0.0143  0.8655 -0.1163
 4148SOL     MW16592   8.752   1.444   9.379  0.4461  0.0230 -0.1032
 4149SOL     OW16593   8.367   6.544   1.334 -0.0665 -0.3954 -0.1071
 4149SOL    HW116594   8.345   6.571   1.423  0.5302 -0.3065  0.0188
 4149SOL    HW216595   8.301   6.479   1.311  0.3234 -1.1069  0.7566
 4149SOL     MW16596   8.356   6.539   1.342  0.0597 -0.4751  0.0196
 4150SOL     OW16597   9.536   6.675   9.587  0.8031  0.4218  0.5945
 4150SOL    HW116598   9.460   6.670   9.645  0.0530 -0.0850 -0.4052
 4150SOL    HW216599   9.499   6.692   9.501  1.7279 -0.9233 -0.1082
 4150SOL     MW16600   9.521   6.677   9.584  0.8255  0.1847  0.3766
 4151SOL     OW16601   8.540  -0.009   2.324  0.3416  0.8544 -0.0301
 4151SOL    HW116602   8.518   0.030   2.240 -1.1179  0.5905  0.1910
 4151SOL    HW216603   8.499   0.048   2.389  0.0835  0.1990  0.4021
 4151SOL     MW16604   8.532   0.003   2.322  0.1217  0.7367  0.0535
 4152SOL     OW16605   7.416   9.994   9.448 -0.0851 -0.6026  0.5545
 4152SOL    HW116606   7.393  10.001   9.355  2.4822 -1.0631 -0.1986
 4152SOL    HW216607   7.346  10.041   9.493 -1.3834 -0.3078 -1.6033
 4152SOL     MW16608   7.404  10.001   9.442  0.0773 -0.6238  0.1819
 4153SOL     OW16609   9.825   8.236   9.758  0.0166  0.2226 -0.3881
 4153SOL    HW116610   9.870   8.318   9.740  0.3521  0.2627  0.5771
 4153SOL    HW216611   9.873   8.197   9.831  0.2403 -1.1355 -1.2250
 4153SOL     MW16612   9.837   8.241   9.765  0.0882  0.0539 -0.3717
 4154SOL     OW16613   8.602   4.482   1.759  0.0380 -0.4173 -0.6909
 4154SOL    HW116614   8.698   4.488   1.765 -0.0384  0.3295 -0.0701
 4154SOL    HW216615   8.570   4.551   1.818 -0.8839 -1.2669 -0.1696
 4154SOL     MW16616   8.610   4.492   1.767 -0.0898 -0.4305 -0.5447
 4155SOL     OW16617   8.411   3.049   0.434 -0.3072 -0.1069  0.2223
 4155SOL    HW116618   8.392   2.992   0.509  0.4629 -1.8106 -0.8168
 4155SOL    HW216619   8.494   3.018   0.400 -1.6841 -0.9777 -2.7211
 4155SOL     MW16620   8.419   3.038   0.439 -0.3849 -0.4365 -0.2875
 4156SOL     OW16621   8.640   3.260   0.612  0.3148 -0.3604  0.1150
 4156SOL    HW116622   8.667   3.327   0.674 -2.6858 -0.8045  2.1147
 4156SOL    HW216623   8.668   3.177   0.651  1.2305 -0.4959 -0.7791
 4156SOL     MW16624   8.647   3.258   0.625  0.0479 -0.4346  0.2566
 4157SOL     OW16625   7.723   4.123   9.055 -0.5267 -0.2936  0.0015
 4157SOL    HW116626   7.748   4.214   9.070  0.1650 -0.3743 -0.6052
 4157SOL    HW216627   7.697   4.119   8.963 -0.9441 -0.6257  0.1284
 4157SOL     MW16628   7.723   4.134   9.045 -0.4916 -0.3464 -0.0599
 4158SOL     OW16629   8.130   7.329   2.959 -0.1906  0.3653  0.4976
 4158SOL    HW116630   8.184   7.357   3.033 -0.2908 -0.2290  0.8083
 4158SOL    HW216631   8.041   7.331   2.994 -0.2879  0.5804  0.2322
 4158SOL     MW16632   8.126   7.333   2.973 -0.2159  0.3168  0.5034
 4159SOL     OW16633   9.539   3.010   0.627 -0.1877  0.2982 -0.3249
 4159SOL    HW116634   9.546   2.961   0.709  0.6468  0.0092 -0.5650
 4159SOL    HW216635   9.474   3.078   0.646  0.7261  0.8706  0.8916
 4159SOL     MW16636   9.531   3.012   0.640  0.0361  0.3345 -0.1999
 4160SOL     OW16637   9.924   7.181   9.753 -0.1578 -0.6819  0.0477
 4160SOL    HW116638   9.937   7.091   9.782  0.0485 -0.9119 -0.7319
 4160SOL    HW216639   9.939   7.178   9.658 -0.9869  0.0133 -0.1131
 4160SOL     MW16640   9.928   7.169   9.744 -0.2375 -0.6224 -0.0727
 4161SOL     OW16641   9.569   1.157   1.685 -0.5186  0.8811 -0.0945
 4161SOL    HW116642   9.532   1.128   1.601 -0.2835 -0.1364  0.1322
 4161SOL    HW216643   9.602   1.245   1.668 -1.9939  1.3664 -0.6067
 4161SOL     MW16644   9.568   1.164   1.672 -0.6773  0.8130 -0.1311
 4162SOL     OW16645   6.458   4.704   0.511  0.0405 -0.1929  0.3762
 4162SOL    HW116646   6.511   4.753   0.447 -0.3729 -0.6055 -0.3020
 4162SOL    HW216647   6.465   4.613   0.483 -1.8184 -0.1618 -0.3496
 4162SOL     MW16648   6.465   4.699   0.499 -0.2504 -0.2417  0.1965
 4163SOL     OW16649   9.711   9.965   0.364 -0.0610  0.2420 -0.4312
 4163SOL    HW116650   9.750  10.043   0.405 -0.8245  1.5444 -2.0750
 4163SOL    HW216651   9.775   9.895   0.380  0.2532  0.9664  1.8243
 4163SOL     MW16652   9.724   9.966   0.372 -0.1185  0.5015 -0.3529
 4164SOL     OW16653   9.750   4.666   9.336 -0.0779  0.0261  0.4455
 4164SOL    HW116654   9.682   4.695   9.397  0.2993 -0.3898  1.0747
 4164SOL    HW216655   9.824   4.724   9.354  0.9048 -1.6164  2.1460
 4164SOL     MW16656   9.751   4.677   9.347  0.0962 -0.2374  0.7437
 4165SOL     OW16657   8.051   2.805   2.228  0.2937 -0.1937 -0.4241
 4165SOL    HW116658   8.065   2.867   2.300  0.4808 -0.1662 -0.4833
 4165SOL    HW216659   8.131   2.753   2.225 -0.7457 -2.0192  1.1333
 4165SOL     MW16660   8.063   2.806   2.237  0.1846 -0.4238 -0.2323
 4166SOL     OW16661   8.172   1.643  10.008 -0.3598  0.1817  0.6678
 4166SOL    HW116662   8.161   1.672  10.099  0.7981  0.6081  0.6903
 4166SOL    HW216663   8.261   1.609  10.004 -0.1365  0.8399 -0.4798
 4166SOL     MW16664   8.182   1.642  10.019 -0.1830  0.3205  0.5238
 4167SOL     OW16665   8.221   1.304   9.759  0.0077 -0.3698 -0.1303
 4167SOL    HW116666   8.203   1.223   9.805  1.7559 -0.1176  1.0796
 4167SOL    HW216667   8.165   1.369   9.802  0.9983 -0.3072  1.1064
 4167SOL     MW16668   8.212   1.302   9.770  0.3583 -0.3295  0.1829
 4168SOL     OW16669   0.139   2.771   0.241 -0.0780  0.2203 -0.0270
 4168SOL    HW116670   0.098   2.791   0.326  0.5723 -1.6497  0.7705
 4168SOL    HW216671   0.102   2.686   0.217  1.5453 -0.3861 -0.4410
 4168SOL     MW16672   0.129   2.763   0.249  0.2131 -0.0967  0.0221
 4169SOL     OW16673   8.610   5.241   1.596  0.3787  0.0472 -0.3485
 4169SOL    HW116674   8.540   5.177   1.585 -0.2281  0.6385  0.0043
 4169SOL    HW216675   8.614   5.287   1.512  0.5794 -0.2167 -0.4842
 4169SOL     MW16676   8.601   5.239   1.584  0.3267  0.0891 -0.3207
 4170SOL     OW16677   6.526   9.164   1.844  0.0349 -0.4426 -0.1170
 4170SOL    HW116678   6.475   9.232   1.887  1.4589 -0.5319  1.8432
 4170SOL    HW216679   6.505   9.084   1.893  0.1199 -0.9657 -0.9227
 4170SOL     MW16680   6.517   9.163   1.856  0.2281 -0.5210  0.0308
 4171SOL     OW16681   7.052   4.826   0.324 -0.1129 -0.3564 -0.0746
 4171SOL    HW116682   6.978   4.792   0.274 -1.5461  1.2702  0.8313
 4171SOL    HW216683   7.057   4.918   0.299 -0.6589  0.4234  2.4356
 4171SOL     MW16684   7.043   4.833   0.314 -0.3663 -0.0483  0.3627
 4172SOL     OW16685   9.477   7.813   1.379  0.4411  0.5325 -0.5238
 4172SOL    HW116686   9.568   7.840   1.371  0.7558 -0.6151 -1.0165
 4172SOL    HW216687   9.478   7.739   1.438 -0.0983  0.1717 -0.9540
 4172SOL     MW16688   9.488   7.807   1.385  0.4123  0.3394 -0.6419
 4173SOL     OW16689   0.225  10.165   1.265 -0.1791  0.0502 -0.7695
 4173SOL    HW116690   0.137  10.145   1.296 -0.4863  1.5460 -0.6281
 4173SOL    HW216691   0.229  10.127   1.177 -0.7730 -0.4810 -0.5747
 4173SOL     MW16692   0.215  10.157   1.258 -0.2945  0.1737 -0.7265
 4174SOL     OW16693   8.625   9.993  10.001  0.2873  0.3090 -0.3824
 4174SOL    HW116694   8.586  10.078  10.024  0.9248  0.2463  1.0551
 4174SOL    HW216695   8.711  10.015   9.966 -0.3611  0.3530 -2.0199
 4174SOL     MW16696   8.631  10.006   9.999  0.2859  0.3066 -0.4080
 4175SOL     OW16697   7.006   4.413   1.920  0.4151 -0.2632  0.2297
 4175SOL    HW116698   7.019   4.448   2.008  0.6489 -1.0843  0.5291
 4175SOL    HW216699   7.057   4.332   1.918 -2.1930 -2.0460  0.4835
 4175SOL     MW16700   7.014   4.407   1.931  0.1112 -0.5965  0.3005
 4176SOL     OW16701   6.937   0.055   2.662  0.2004 -0.2740  0.3571
 4176SOL    HW116702   6.846   0.084   2.662  0.8381  1.9003 -1.1855
 4176SOL    HW216703   6.964   0.061   2.754 -0.8224  0.2911  0.6296
 4176SOL     MW16704   6.929   0.059   2.674  0.1511  0.0767  0.1945
 4177SOL     OW16705   9.738   7.201   9.309 -0.1666  0.6423  0.3954
 4177SOL    HW116706   9.729   7.248   9.226  1.1951  0.7000  0.2630
 4177SOL    HW216707   9.689   7.254   9.371  0.4543  1.6835  0.0280
 4177SOL     MW16708   9.731   7.214   9.306  0.0872  0.7830  0.3314
 4178SOL     OW16709   9.118   4.632   9.480 -0.6126  0.6640 -0.6677
 4178SOL    HW116710   9.156   4.674   9.403  1.0088  0.9274  0.2192
 4178SOL    HW216711   9.024   4.642   9.470 -0.6697 -1.7013 -3.9694
 4178SOL     MW16712   9.111   4.639   9.469 -0.4124  0.3949 -0.9768
 4179SOL     OW16713   7.755   4.575   2.501 -0.2951  0.7721  0.0249
 4179SOL    HW116714   7.818   4.559   2.430  0.8505 -0.0654  1.1906
 4179SOL    HW216715   7.745   4.491   2.544  0.0699  1.5238  1.6775
 4179SOL     MW16716   7.762   4.562   2.497 -0.1017  0.7611  0.3857
 4180SOL     OW16717   7.164   6.622   1.859 -0.0349 -0.0262  0.5103
 4180SOL    HW116718   7.130   6.559   1.922  0.2330 -0.7249 -0.0248
 4180SOL    HW216719   7.101   6.695   1.861 -0.4328 -0.3761  1.0266
 4180SOL     MW16720   7.151   6.623   1.867 -0.0515 -0.1605  0.5079
 4181SOL     OW16721   9.406   0.558   0.810 -0.2590  0.9042 -0.0413
 4181SOL    HW116722   9.453   0.600   0.739 -0.1616 -0.0376 -0.5622
 4181SOL    HW216723   9.457   0.576   0.888  2.5555 -2.2515 -0.9075
 4181SOL     MW16724   9.418   0.565   0.811  0.1137  0.3797 -0.2189
 4182SOL     OW16725   9.379   1.797   0.662 -0.5022 -0.0760 -0.7386
 4182SOL    HW116726   9.317   1.725   0.670  0.7122 -0.9872  1.5428
 4182SOL    HW216727   9.352   1.859   0.729  1.3707 -0.8435  0.8383
 4182SOL     MW16728   9.368   1.795   0.672 -0.1070 -0.2909 -0.2447
 4183SOL     OW16729   7.526   6.754   1.606  0.6197  0.2458  0.2733
 4183SOL    HW116730   7.553   6.842   1.579  1.3949 -0.3748 -1.0919
 4183SOL    HW216731   7.505   6.763   1.699  3.2370  1.3106  0.8502
 4183SOL     MW16732   7.526   6.767   1.614  1.0540  0.3027  0.1724
 4184SOL     OW16733   7.141   9.397   0.328 -0.1350  0.0081 -0.2401
 4184SOL    HW116734   7.099   9.318   0.363 -0.4921  0.1255 -0.4046
 4184SOL    HW216735   7.224   9.366   0.291 -0.3441 -0.3132 -0.4416
 4184SOL     MW16736   7.146   9.383   0.328 -0.2075 -0.0180 -0.2869
 4185SOL     OW16737   7.308   6.595   0.942  0.0407 -0.3614  0.6661
 4185SOL    HW116738   7.365   6.665   0.974 -1.0522  1.1383 -0.5531
 4185SOL    HW216739   7.324   6.593   0.848 -0.6807 -1.0871  0.5529
 4185SOL     MW16740   7.318   6.603   0.934 -0.1915 -0.2623  0.4955
 4186SOL     OW16741   8.007   3.953   1.092 -0.0526  0.0688  0.0547
 4186SOL    HW116742   8.086   3.945   1.147  0.5021  1.2468 -0.5558
 4186SOL    HW216743   8.034   3.919   1.007 -0.1306  0.7073 -0.2255
 4186SOL     MW16744   8.021   3.947   1.088  0.0084  0.3014 -0.0593
 4187SOL     OW16745  10.005   8.489   2.017 -0.3770  0.3992 -0.0006
 4187SOL    HW116746   9.962   8.563   1.972 -1.2846 -0.2165 -0.1710
 4187SOL    HW216747  10.029   8.524   2.103  1.7408  1.7272 -1.0193
 4187SOL     MW16748  10.003   8.503   2.022 -0.2221  0.4904 -0.1528
 4188SOL     OW16749   0.322   7.916   0.401  0.1764 -0.0569 -1.0773
 4188SOL    HW116750   0.414   7.944   0.397 -0.0328  1.0999  1.0156
 4188SOL    HW216751   0.273   7.991   0.367 -0.1655  0.8295  1.2187
 4188SOL     MW16752   0.328   7.929   0.396  0.1059  0.2047 -0.5155
 4189SOL     OW16753   9.212   4.901   9.597  0.5901 -0.1147 -0.1061
 4189SOL    HW116754   9.250   4.869   9.679 -0.4133  1.0906  0.8800
 4189SOL    HW216755   9.155   4.830   9.568  0.6857 -0.4159  0.4251
 4189SOL     MW16756   9.210   4.888   9.604  0.4739  0.0011  0.0882
 4190SOL     OW16757   8.259   4.473   9.491 -0.3567  0.3667  0.3455
 4190SOL    HW116758   8.212   4.420   9.427  0.3585 -0.6251  0.6348
 4190SOL    HW216759   8.311   4.534   9.438  0.5982 -0.7598 -0.0540
 4190SOL     MW16760   8.260   4.474   9.476 -0.1429  0.0955  0.3314
 4191SOL     OW16761   8.550   0.743   2.111  0.5002  0.2826 -0.4446
 4191SOL    HW116762   8.582   0.660   2.076 -2.2194 -0.8395 -0.4543
 4191SOL    HW216763   8.569   0.807   2.043  2.1467 -0.3837 -0.6648
 4191SOL     MW16764   8.557   0.740   2.098  0.3628  0.0537 -0.4740
 4192SOL     OW16765   6.404   4.797   1.374 -0.9250  0.5456 -0.4565
 4192SOL    HW116766   6.438   4.714   1.405 -2.5500 -0.0318 -0.1395
 4192SOL    HW216767   6.392   4.850   1.453 -0.5038  0.8566 -0.5952
 4192SOL     MW16768   6.406   4.793   1.388 -1.0791  0.5115 -0.4337
 4193SOL     OW16769   8.843   5.692   2.700 -0.0932 -0.2842  0.5181
 4193SOL    HW116770   8.935   5.718   2.707 -0.2851  0.3756  0.7024
 4193SOL    HW216771   8.829   5.680   2.606 -0.3789  1.8100  0.2452
 4193SOL     MW16772   8.853   5.694   2.689 -0.1543  0.0684  0.5068
 4194SOL     OW16773   9.159   9.159   9.980  0.5129 -0.3323  0.4892
 4194SOL    HW116774   9.078   9.122  10.014 -1.7321  2.1570 -1.6528
 4194SOL    HW216775   9.190   9.094   9.917 -0.6005 -0.7802  0.3743
 4194SOL     MW16776   9.152   9.146   9.976  0.0830 -0.0710  0.2003
 4195SOL     OW16777   9.416   5.744   0.572  0.0246  0.2851  0.3090
 4195SOL    HW116778   9.462   5.688   0.635 -0.2031 -0.6149 -0.3014
 4195SOL    HW216779   9.330   5.703   0.563 -0.4019  1.1452  0.3710
 4195SOL     MW16780   9.411   5.731   0.579 -0.0592  0.2800  0.2388
 4196SOL     OW16781   7.756   1.711   0.981  0.3104  0.3517 -0.0858
 4196SOL    HW116782   7.811   1.634   0.967  0.7341  0.7970 -0.9970
 4196SOL    HW216783   7.671   1.688   0.944  0.3614  0.2245 -0.1226
 4196SOL     MW16784   7.752   1.698   0.975  0.3712  0.3925 -0.2072
 4197SOL     OW16785   6.771   9.575   9.325 -0.1239  0.0063  0.0396
 4197SOL    HW116786   6.808   9.518   9.392  1.9296 -0.0435 -1.0608
 4197SOL    HW216787   6.792   9.664   9.355 -1.2526  0.0993  0.5885
 4197SOL     MW16788   6.778   9.579   9.337 -0.0055  0.0118 -0.0310
 4198SOL     OW16789   8.893   4.309   1.639  0.4368 -0.1442  0.3836
 4198SOL    HW116790   8.908   4.362   1.717 -0.8663  0.4203  0.2752
 4198SOL    HW216791   8.871   4.372   1.570  1.2968 -0.6564 -0.3803
 4198SOL     MW16792   8.892   4.323   1.640  0.3800 -0.1375  0.2719
 4199SOL     OW16793   9.166   5.624   0.520  0.9894  0.3893 -0.0495
 4199SOL    HW116794   9.145   5.696   0.580  1.5194  0.6386 -0.1567
 4199SOL    HW216795   9.172   5.666   0.434  0.7869  0.1274 -0.1922
 4199SOL     MW16796   9.164   5.639   0.517  1.0313  0.3877 -0.0815
 4200SOL     OW16797   7.931   2.070   2.603 -0.0686 -0.0817  0.1085
 4200SOL    HW116798   7.973   2.155   2.587  0.5080 -0.3776  0.0421
 4200SOL    HW216799   7.875   2.085   2.680 -0.6133  0.5765 -0.3965
 4200SOL     MW16800   7.929   2.083   2.611 -0.0645 -0.0353  0.0354
 4201SOL     OW16801   6.216   8.024   1.494  0.0122 -0.4311  0.2749
 4201SOL    HW116802   6.265   7.998   1.572  0.3771 -0.8607 -0.0870
 4201SOL    HW216803   6.210   7.943   1.442  0.3814 -0.0008 -0.4633
 4201SOL     MW16804   6.222   8.010   1.497  0.1062 -0.4310  0.1341
 4202SOL     OW16805   9.060   2.531   0.784  0.6110 -0.1661  0.1565
 4202SOL    HW116806   9.006   2.498   0.712  0.2496  0.8437 -0.0593
 4202SOL    HW216807   9.134   2.472   0.789  0.8800  0.0198 -1.3686
 4202SOL     MW16808   9.062   2.520   0.776  0.5992 -0.0130 -0.0664
 4203SOL     OW16809   7.858   6.204   1.580 -0.3199 -0.0516  0.0142
 4203SOL    HW116810   7.872   6.298   1.570  1.7808 -0.2264  0.8332
 4203SOL    HW216811   7.905   6.181   1.660 -1.4382 -1.6915  0.2604
 4203SOL     MW16812   7.866   6.213   1.589 -0.1941 -0.2839  0.1505
 4204SOL     OW16813   9.884   1.962   2.081  0.4737 -0.1585 -0.3346
 4204SOL    HW116814   9.816   1.945   2.146  1.2116  0.7487  0.7051
 4204SOL    HW216815   9.896   1.878   2.037  0.8909 -1.1718  1.6005
 4204SOL     MW16816   9.877   1.949   2.084  0.6216 -0.1721  0.0462
 4205SOL     OW16817   7.204   9.993   0.765 -0.5766  0.6115 -0.1829
 4205SOL    HW116818   7.190  10.044   0.686  0.4608 -0.6509 -1.2293
 4205SOL    HW216819   7.187  10.054   0.837 -2.5707  1.5011 -1.3323
 4205SOL     MW16820   7.200  10.007   0.764 -0.6990  0.5638 -0.4640
 4206SOL     OW16821   6.526   9.847   9.559  0.1852  0.4217 -0.3882
 4206SOL    HW116822   6.496   9.919   9.614 -0.1512  0.0788 -0.1208
 4206SOL    HW216823   6.512   9.769   9.612 -1.8813 -0.1135 -1.6233
 4206SOL     MW16824   6.520   9.847   9.573 -0.1224  0.3093 -0.5121
 4207SOL     OW16825   9.326   5.754   2.334  0.2698 -0.1500 -0.0460
 4207SOL    HW116826   9.401   5.698   2.313  0.6397  0.6931 -1.0352
 4207SOL    HW216827   9.298   5.790   2.250 -0.1780  0.8908  0.5278
 4207SOL     MW16828   9.332   5.751   2.321  0.2598  0.0912 -0.0992
 4208SOL     OW16829   8.260   2.610   0.474 -0.1563  0.4472 -0.3645
 4208SOL    HW116830   8.320   2.623   0.400  0.2323  1.9057  0.1710
 4208SOL    HW216831   8.175   2.640   0.442 -0.4609 -0.8891 -0.8708
 4208SOL     MW16832   8.257   2.616   0.460 -0.1456  0.4628 -0.3608
 4209SOL     OW16833   7.877   0.103   1.828 -0.2413  0.2611  0.4818
 4209SOL    HW116834   7.954   0.095   1.884  0.1134  0.3819  0.0214
 4209SOL    HW216835   7.908   0.076   1.741 -0.0283  2.7998 -0.2949
 4209SOL     MW16836   7.891   0.098   1.824 -0.1686  0.6015  0.3234
 4210SOL     OW16837   8.975   3.959   9.785 -0.2289  0.1279 -0.0766
 4210SOL    HW116838   8.884   3.990   9.780 -0.1485  0.5794  1.0399
 4210SOL    HW216839   9.001   3.948   9.693 -0.8379  1.7173 -0.4808
 4210SOL     MW16840   8.967   3.962   9.772 -0.2965  0.3892  0.0146
 4211SOL     OW16841   8.376   1.072   0.558 -0.6773 -0.2371  0.0584
 4211SOL    HW116842   8.341   1.136   0.619 -2.0931  0.1267 -1.0801
 4211SOL    HW216843   8.426   1.011   0.612 -1.0732  0.6261  1.4311
 4211SOL     MW16844   8.378   1.072   0.572 -0.9092 -0.0800  0.0884
 4212SOL     OW16845   8.350   1.849   1.899  0.3976 -0.0065  0.1581
 4212SOL    HW116846   8.369   1.792   1.824  0.2148 -1.1081  0.9330
 4212SOL    HW216847   8.427   1.906   1.906  0.4274  0.0974 -0.8459
 4212SOL     MW16848   8.362   1.849   1.890  0.3780 -0.1342  0.1288
 4213SOL     OW16849   9.232   5.658   9.179  0.4942 -0.3014  0.1325
 4213SOL    HW116850   9.187   5.575   9.193  2.3039 -1.3901 -0.1849
 4213SOL    HW216851   9.165   5.725   9.192 -1.0601 -1.8169  0.1694
 4213SOL     MW16852   9.218   5.656   9.182  0.5269 -0.6348  0.0966
 4214SOL     OW16853   8.382   7.867   2.921  0.1307  0.0550  0.0468
 4214SOL    HW116854   8.313   7.864   2.855  0.4494 -0.6495 -0.2622
 4214SOL    HW216855   8.412   7.776   2.929  1.8546  0.5220 -0.7048
 4214SOL     MW16856   8.377   7.855   2.914  0.3922  0.0246 -0.0890
 4215SOL     OW16857   8.302   6.727   9.254  0.0593 -0.2820  0.0358
 4215SOL    HW116858   8.331   6.816   9.233  1.3337 -0.8007 -0.5661
 4215SOL    HW216859   8.363   6.671   9.205  0.5015 -1.5065  1.8976
 4215SOL     MW16860   8.314   6.731   9.245  0.2791 -0.5051  0.1971
 4216SOL     OW16861   8.298   5.866   1.790 -0.6281 -0.4554 -0.0598
 4216SOL    HW116862   8.319   5.910   1.872 -0.2470 -2.0066  0.7325
 4216SOL    HW216863   8.323   5.928   1.722 -1.2846  1.0144  0.9860
 4216SOL     MW16864   8.304   5.879   1.792 -0.6634 -0.4658  0.1755
 4217SOL     OW16865   0.675   1.112   1.225  0.0463 -0.2659  0.1610
 4217SOL    HW116866   0.626   1.174   1.280 -0.9280  0.4269 -1.4044
 4217SOL    HW216867   0.762   1.151   1.217 -0.6097  1.0643 -0.9600
 4217SOL     MW16868   0.679   1.125   1.231 -0.1624 -0.0070 -0.1829
 4218SOL     OW16869   8.361   1.422   3.101 -0.0479  0.3737  0.6070
 4218SOL    HW116870   8.317   1.347   3.141 -0.5990  0.1820 -0.3350
 4218SOL    HW216871   8.290   1.477   3.068  0.3770  0.0797 -0.9006
 4218SOL     MW16872   8.347   1.419   3.102 -0.0640  0.3115  0.2934
 4219SOL     OW16873   9.273   2.649   1.442  0.4621 -0.3366  0.0429
 4219SOL    HW116874   9.214   2.593   1.492 -0.8721  1.0894  0.1263
 4219SOL    HW216875   9.332   2.687   1.507 -0.7925  0.9358  0.4825
 4219SOL     MW16876   9.273   2.647   1.456  0.1307  0.0088  0.1099
 4220SOL     OW16877   8.938   4.982   9.318  0.0053 -0.0584 -0.0865
 4220SOL    HW116878   8.893   4.910   9.362 -0.3663 -0.1720 -0.6396
 4220SOL    HW216879   8.918   4.969   9.225 -0.8502  1.2780 -0.1131
 4220SOL     MW16880   8.929   4.971   9.312 -0.1518  0.0981 -0.1607
 4221SOL     OW16881   8.531   4.476   1.039 -0.1881 -0.4218 -0.6393
 4221SOL    HW116882   8.527   4.463   0.945  0.3280  0.3820 -0.7805
 4221SOL    HW216883   8.589   4.552   1.051 -0.2108 -0.5396  0.3199
 4221SOL     MW16884   8.538   4.484   1.029 -0.1249 -0.3340 -0.5346
 4222SOL     OW16885   7.729   2.409   0.691  0.0884 -0.2566 -0.0985
 4222SOL    HW116886   7.728   2.436   0.783  0.4998  1.3714 -0.5495
 4222SOL    HW216887   7.819   2.379   0.676 -0.0956 -0.9556  0.1230
 4222SOL     MW16888   7.740   2.409   0.701  0.1175 -0.1376 -0.1279
 4223SOL     OW16889   8.229   0.037   8.864 -0.5698 -0.2241  0.1572
 4223SOL    HW116890   8.261   0.087   8.789 -1.2742  0.0048  0.0035
 4223SOL    HW216891   8.289   0.058   8.935 -0.8709  0.8676  0.1030
 4223SOL     MW16892   8.240   0.046   8.864 -0.6985 -0.0551  0.1306
 4224SOL     OW16893   7.047   5.280   1.113  0.0172  0.2987  0.0731
 4224SOL    HW116894   6.968   5.225   1.110  0.4105 -0.6759  3.5688
 4224SOL    HW216895   7.118   5.221   1.089  0.3156 -0.5816  2.8386
 4224SOL     MW16896   7.046   5.266   1.110  0.1057  0.0612  0.8746
 4225SOL     OW16897   8.081   3.166   9.211  0.3714 -0.7168  0.5777
 4225SOL    HW116898   8.080   3.202   9.123  0.4464 -0.4834  0.6722
 4225SOL    HW216899   8.088   3.242   9.269 -0.6305 -0.7919  0.8232
 4225SOL     MW16900   8.082   3.180   9.207  0.2527 -0.6966  0.6212
 4226SOL     OW16901   8.946   9.627   0.563  0.1579 -0.2917  0.2014
 4226SOL    HW116902   8.932   9.721   0.553 -1.4978 -0.5328  0.0779
 4226SOL    HW216903   8.973   9.618   0.655 -1.5373  0.1292  0.7738
 4226SOL     MW16904   8.948   9.638   0.574 -0.2711 -0.2687  0.2589
 4227SOL     OW16905   7.475   8.692   9.600  0.2006  0.4791 -0.1970
 4227SOL    HW116906   7.404   8.628   9.605  1.8093 -1.4414 -0.4868
 4227SOL    HW216907   7.478   8.718   9.508 -1.4475  2.2443  0.1913
 4227SOL     MW16908   7.467   8.687   9.589  0.1955  0.4592 -0.1844
 4228SOL     OW16909   9.162   8.660   0.119 -0.1349  0.2215 -0.1900
 4228SOL    HW116910   9.133   8.709   0.042 -1.6191 -0.8429 -0.3606
 4228SOL    HW216911   9.132   8.712   0.193  0.5872  0.8514 -0.3378
 4228SOL     MW16912   9.154   8.673   0.118 -0.2325  0.1658 -0.2308
 4229SOL     OW16913   7.222   3.905   2.006 -0.6738  0.0220 -0.8994
 4229SOL    HW116914   7.272   3.972   2.052 -1.4410 -0.2603  0.4059
 4229SOL    HW216915   7.251   3.911   1.915  3.3216 -1.5430  0.0580
 4229SOL     MW16916   7.232   3.914   2.000 -0.2605 -0.2145 -0.6097
 4230SOL     OW16917   7.973   8.606   0.444  0.4932  0.2155  0.1828
 4230SOL    HW116918   8.046   8.551   0.470  0.2236 -0.6673 -0.8596
 4230SOL    HW216919   7.895   8.558   0.473  0.3000  1.3308  1.6434
 4230SOL     MW16920   7.972   8.593   0.451  0.4339  0.2452  0.2363
 4231SOL     OW16921   6.807   5.438  10.123 -0.3262  0.1226 -0.3408
 4231SOL    HW116922   6.809   5.348  10.091  1.9947  0.6182 -1.7964
 4231SOL    HW216923   6.890   5.449  10.169 -0.4227  1.6350 -0.4763
 4231SOL     MW16924   6.818   5.428  10.125 -0.0415  0.3797 -0.5445
 4232SOL     OW16925   8.487   4.644   1.350  0.0908  0.3168 -0.2690
 4232SOL    HW116926   8.486   4.717   1.289 -0.0000  0.2893 -0.2997
 4232SOL    HW216927   8.420   4.584   1.318 -2.1502  1.6570  1.5165
 4232SOL     MW16928   8.478   4.646   1.338 -0.2077  0.4849 -0.0444
 4233SOL     OW16929   9.975   6.800   1.264 -0.2992  0.2736  0.3879
 4233SOL    HW116930  10.037   6.873   1.269  0.7243 -0.4982 -0.5776
 4233SOL    HW216931   9.973   6.765   1.353  0.4838  0.4668  0.4957
 4233SOL     MW16932   9.983   6.805   1.276 -0.0679  0.1995  0.2781
 4234SOL     OW16933   6.499   9.895   9.286 -0.0687  0.0574 -0.2605
 4234SOL    HW116934   6.482   9.874   9.378  0.0142  1.6353  0.1405
 4234SOL    HW216935   6.418   9.934   9.254  0.0438 -0.0882 -0.7385
 4234SOL     MW16936   6.487   9.897   9.294 -0.0437  0.2407 -0.2704
 4235SOL     OW16937  10.004   9.226  10.093  0.6248  0.6975 -0.0484
 4235SOL    HW116938   9.915   9.229  10.059  0.8742  1.6459 -0.6795
 4235SOL    HW216939  10.054   9.179  10.026  0.4108 -0.7937  0.8084
 4235SOL     MW16940   9.999   9.220  10.080  0.6293  0.6280 -0.0195
 4236SOL     OW16941   7.458   9.640  10.109  0.3971 -0.0590 -0.2394
 4236SOL    HW116942   7.481   9.651  10.017  0.7642  0.5532 -0.0810
 4236SOL    HW216943   7.453   9.729  10.143 -0.5335 -0.2404  0.1442
 4236SOL     MW16944   7.460   9.653  10.101  0.3250 -0.0038 -0.1700
 4237SOL     OW16945   7.073   2.977   0.395  0.0152  0.5876 -0.1597
 4237SOL    HW116946   7.154   3.015   0.429  0.2861 -0.7435  0.7511
 4237SOL    HW216947   7.015   2.971   0.471  0.6130 -2.3975  0.1790
 4237SOL     MW16948   7.076   2.981   0.409  0.1264  0.0350  0.0002
 4238SOL     OW16949   6.933   2.419  10.081  0.6139 -0.0008 -0.3986
 4238SOL    HW116950   6.844   2.449  10.063  0.2903  0.3069  1.4283
 4238SOL    HW216951   6.945   2.437  10.175  2.3419 -0.7013 -0.4504
 4238SOL     MW16952   6.923   2.425  10.091  0.7937 -0.0511 -0.1714
 4239SOL     OW16953  10.059   4.850   1.554 -0.0239  0.4023  0.1609
 4239SOL    HW116954  10.034   4.774   1.608 -0.2071 -1.1720 -2.0171
 4239SOL    HW216955   9.980   4.902   1.548 -0.5351 -0.3775 -0.0791
 4239SOL     MW16956  10.046   4.847   1.560 -0.1128  0.1010 -0.1486
 4240SOL     OW16957   8.386   8.828   0.592 -0.2806 -0.1832  0.2646
 4240SOL    HW116958   8.446   8.844   0.665  0.7502 -0.4247 -0.5045
 4240SOL    HW216959   8.425   8.754   0.544 -1.8898 -1.2343  0.4759
 4240SOL     MW16960   8.399   8.820   0.595 -0.3546 -0.3487  0.1932
 4241SOL     OW16961   8.805   8.393   9.504 -0.1736  0.2791 -0.0772
 4241SOL    HW116962   8.772   8.433   9.585 -1.7891  1.6925 -1.3602
 4241SOL    HW216963   8.882   8.444   9.482 -2.4342  3.2419 -1.9167
 4241SOL     MW16964   8.810   8.405   9.512 -0.6698  0.8393 -0.4769
 4242SOL     OW16965  10.126   2.930   2.079  0.3705  0.0198  0.6281
 4242SOL    HW116966  10.203   2.921   2.023  0.9073 -1.0009  1.5023
 4242SOL    HW216967  10.133   3.018   2.114  1.3682 -0.1925  1.0079
 4242SOL     MW16968  10.137   2.940   2.076  0.5669 -0.1380  0.7886
 4243SOL     OW16969   8.444   5.691  10.099 -0.0933 -0.1235  0.5704
 4243SOL    HW116970   8.406   5.776  10.122 -1.2309 -0.1345 -1.0796
 4243SOL    HW216971   8.392   5.628  10.150 -0.3575  0.0588  0.5300
 4243SOL     MW16972   8.432   5.694  10.109 -0.2728 -0.1016  0.3540
 4244SOL     OW16973   6.665   5.493   0.175  0.3149  0.0428 -0.2414
 4244SOL    HW116974   6.708   5.462   0.095  1.3227  1.6946 -0.3795
 4244SOL    HW216975   6.726   5.469   0.245  0.6798  0.8892 -0.2596
 4244SOL     MW16976   6.678   5.486   0.174  0.4906  0.3626 -0.2614
 4245SOL     OW16977   6.702   7.764   0.160 -0.1121  0.3212 -0.2286
 4245SOL    HW116978   6.659   7.698   0.215  1.7435 -0.3051  0.5273
 4245SOL    HW216979   6.630   7.807   0.113 -1.3895 -2.2008 -0.7210
 4245SOL     MW16980   6.687   7.761   0.161 -0.0381 -0.0819 -0.1949
 4246SOL     OW16981   7.627   0.021   9.652  0.9135  0.1166  0.3363
 4246SOL    HW116982   7.719   0.047   9.642  1.0355 -0.1205  0.8009
 4246SOL    HW216983   7.615  -0.048   9.586  0.4788  1.5640 -1.1755
 4246SOL     MW16984   7.638   0.016   9.642  0.8735  0.2715  0.2023
 4247SOL     OW16985   8.699   0.804   1.284 -0.3857 -0.3989  0.0888
 4247SOL    HW116986   8.673   0.862   1.212 -1.3993 -0.2103  0.5964
 4247SOL    HW216987   8.644   0.726   1.273 -0.8073 -0.2141  0.8655
 4247SOL     MW16988   8.689   0.802   1.273 -0.5694 -0.3511  0.2532
 4248SOL     OW16989   6.941   1.712  10.118 -0.3965 -0.0644  0.2935
 4248SOL    HW116990   6.868   1.773  10.106 -0.2045  0.3514  1.1399
 4248SOL    HW216991   6.978   1.736  10.203  1.5877  0.6311 -0.7055
 4248SOL     MW16992   6.936   1.723  10.127 -0.1179  0.0778  0.2740
 4249SOL     OW16993   7.761   3.889   9.927  0.4749 -0.6512  0.4610
 4249SOL    HW116994   7.831   3.880   9.862 -0.1425 -0.0832 -0.3116
 4249SOL    HW216995   7.795   3.846  10.005  1.1998 -1.4541 -0.2695
 4249SOL     MW16996   7.774   3.883   9.929  0.4887 -0.6813  0.2686
 4250SOL     OW16997   0.291   0.861   1.435  0.7183 -0.1990  0.1880
 4250SOL    HW116998   0.221   0.828   1.491  0.2010  1.0224  0.3110
 4250SOL    HW216999   0.372   0.839   1.481  0.5897 -3.2898 -0.8333
 4250SOL     MW17000   0.292   0.854   1.448  0.6356 -0.4383  0.0730
 4251SOL     OW17001   8.596   9.628   0.883  0.0650 -0.0362 -0.5489
 4251SOL    HW117002   8.619   9.588   0.799  0.3780 -2.2702  0.5425
 4251SOL    HW217003   8.500   9.621   0.888  0.0630 -0.0669 -0.6260
 4251SOL     MW17004   8.586   9.622   0.873  0.1048 -0.3261 -0.4190
 4252SOL     OW17005   9.468   3.964   1.038 -0.0103 -0.1558  0.1908
 4252SOL    HW117006   9.397   3.923   1.089  0.2732 -0.1396  0.6011
 4252SOL    HW217007   9.520   3.891   1.006 -0.6944 -0.2125 -0.8328
 4252SOL     MW17008   9.465   3.950   1.040 -0.0616 -0.1610  0.1123
 4253SOL     OW17009   7.549   7.374  10.090  0.1593  0.0197  0.4632
 4253SOL    HW117010   7.524   7.445  10.031  0.7769  0.1021  0.3012
 4253SOL    HW217011   7.472   7.363  10.146 -0.2139  0.3275  0.0243
 4253SOL     MW17012   7.536   7.382  10.090  0.1906  0.0697  0.3863
 4254SOL     OW17013  10.095   8.932   9.641 -0.5998 -0.2725 -0.2466
 4254SOL    HW117014  10.102   8.892   9.728 -0.4496  0.7444  0.2193
 4254SOL    HW217015  10.062   8.861   9.585  0.8563 -1.4282  0.2756
 4254SOL     MW17016  10.092   8.918   9.645 -0.3942 -0.2903 -0.1201
 4255SOL     OW17017   7.204   1.462   2.739 -0.5826  0.0754  0.3415
 4255SOL    HW117018   7.173   1.515   2.813 -2.0494  0.0145 -0.1840
 4255SOL    HW217019   7.125   1.420   2.705  0.2717 -0.9756 -0.4229
 4255SOL     MW17020   7.190   1.464   2.744 -0.6610 -0.0670  0.1764
 4256SOL     OW17021   8.238   6.747   2.016 -0.5862  0.3872 -0.3709
 4256SOL    HW117022   8.262   6.753   2.108 -0.3988 -3.1797 -0.0353
 4256SOL    HW217023   8.312   6.786   1.969  1.4803 -1.7189  0.9455
 4256SOL     MW17024   8.251   6.753   2.022 -0.2977 -0.3390 -0.1594
 4257SOL     OW17025   8.391   1.576   1.440 -0.3389 -0.3556 -0.1991
 4257SOL    HW117026   8.298   1.598   1.431 -0.2476 -0.4101 -1.4743
 4257SOL    HW217027   8.415   1.539   1.355  1.4059  1.7935 -0.7203
 4257SOL     MW17028   8.382   1.574   1.428 -0.1039 -0.0875 -0.4291
 4258SOL     OW17029   8.040   5.008   8.992 -0.2042  0.2276 -0.3727
 4258SOL    HW117030   7.986   4.930   9.005 -0.0771  0.0861 -0.6635
 4258SOL    HW217031   7.993   5.078   9.036 -1.1107  0.3039 -1.4034
 4258SOL     MW17032   8.027   5.007   8.999 -0.3040  0.2193 -0.5419
 4259SOL     OW17033   9.570   1.984   9.295 -0.3875 -0.1747 -0.2788
 4259SOL    HW117034   9.552   2.078   9.298 -1.5679 -0.2985 -2.1264
 4259SOL    HW217035   9.657   1.978   9.255  0.9365  0.1668  2.3328
 4259SOL     MW17036   9.579   1.995   9.290 -0.3691 -0.1469 -0.1810
 4260SOL     OW17037   8.190   3.487   1.624  0.6316  0.0669  0.1302
 4260SOL    HW117038   8.243   3.429   1.570  0.6094  0.9527 -0.8763
 4260SOL    HW217039   8.225   3.477   1.712  2.5986  0.7443 -0.5174
 4260SOL     MW17040   8.201   3.478   1.628  0.8805  0.2670 -0.0816
 4261SOL     OW17041   6.099   4.697   0.547  0.1528 -0.1842 -0.4121
 4261SOL    HW117042   6.035   4.759   0.580  2.2754  0.7190  2.4153
 4261SOL    HW217043   6.158   4.750   0.493  0.1613 -0.4003 -0.6171
 4261SOL     MW17044   6.098   4.712   0.544  0.4256 -0.0962 -0.0764
 4262SOL     OW17045   9.461   7.183   2.475 -0.1976  0.3544 -0.0910
 4262SOL    HW117046   9.492   7.271   2.495  3.2267 -0.7281  0.0166
 4262SOL    HW217047   9.435   7.147   2.560  1.1605  0.3669  0.3660
 4262SOL     MW17048   9.462   7.190   2.489  0.4146  0.2174 -0.0188
 4263SOL     OW17049   9.545   8.693   1.236  0.7218  0.2466  0.4558
 4263SOL    HW117050   9.463   8.712   1.192  0.5030 -1.2806  0.1314
 4263SOL    HW217051   9.593   8.637   1.174  1.2323 -0.3474  1.3512
 4263SOL     MW17052   9.541   8.688   1.222  0.7591 -0.0249  0.5289
 4264SOL     OW17053   6.810   9.890   0.449  0.2817 -0.1294 -0.2409
 4264SOL    HW117054   6.795   9.923   0.537 -1.2615 -0.0764 -0.4915
 4264SOL    HW217055   6.753   9.943   0.393  0.3666 -0.9070 -1.1053
 4264SOL     MW17056   6.801   9.901   0.453  0.0950 -0.2222 -0.3837
 4265SOL     OW17057   8.785   5.937   8.996  0.0037 -0.4691 -0.6667
 4265SOL    HW117058   8.819   5.858   9.039 -0.0483 -1.7135 -2.7807
 4265SOL    HW217059   8.699   5.911   8.963 -0.1879  0.6086 -1.0363
 4265SOL     MW17060   8.778   5.923   8.997 -0.0275 -0.4904 -0.9846
 4266SOL     OW17061   9.126   4.541   0.260 -0.1350  0.3299  0.2232
 4266SOL    HW117062   9.102   4.465   0.313  1.3506  0.2754  0.8669
 4266SOL    HW217063   9.198   4.582   0.308  0.7701  0.7027 -1.3699
 4266SOL     MW17064   9.132   4.536   0.273  0.1711  0.3706  0.1016
 4267SOL     OW17065   8.714   4.022   9.829 -0.0433  0.1804  0.3242
 4267SOL    HW117066   8.707   4.108   9.787  1.8964  0.3685  0.3298
 4267SOL    HW217067   8.755   4.038   9.913 -0.3812 -0.6769  0.6714
 4267SOL     MW17068   8.718   4.035   9.834  0.1618  0.0948  0.3694
 4268SOL     OW17069   6.965   1.689   1.186 -0.5165 -0.1112 -0.4352
 4268SOL    HW117070   6.920   1.758   1.139 -0.2389  0.5151  0.1972
 4268SOL    HW217071   6.979   1.725   1.274  1.1176 -0.3100 -0.5778
 4268SOL     MW17072   6.961   1.702   1.191 -0.2718 -0.0565 -0.3725
 4269SOL     OW17073   6.685   1.496   0.807  0.3426  0.1192 -0.1048
 4269SOL    HW117074   6.718   1.410   0.831  2.4116  0.4432 -1.5676
 4269SOL    HW217075   6.640   1.483   0.724 -1.6917  0.0453  0.9298
 4269SOL     MW17076   6.683   1.483   0.799  0.3471  0.1512 -0.1597
 4270SOL     OW17077   0.113   3.907   1.419  0.1877  0.1046 -0.3806
 4270SOL    HW117078   0.065   3.902   1.336  2.1896 -2.8386 -1.5226
 4270SOL    HW217079   0.186   3.966   1.400  0.0269  0.3268 -0.3221
 4270SOL     MW17080   0.116   3.914   1.406  0.4234 -0.2437 -0.5193
 4271SOL     OW17081   9.072   0.643   2.388 -0.8937  0.0748  0.1127
 4271SOL    HW117082   9.100   0.576   2.451 -1.6510 -1.3795 -1.0137
 4271SOL    HW217083   9.001   0.689   2.432  0.5731  1.1441  1.4609
 4271SOL     MW17084   9.067   0.640   2.402 -0.8029  0.0255  0.1411
 4272SOL     OW17085   9.404   2.159   2.777 -0.4284 -0.0922 -0.2137
 4272SOL    HW117086   9.438   2.096   2.713 -0.2767  0.1740 -0.3976
 4272SOL    HW217087   9.477   2.175   2.836 -1.2637 -2.1825  1.5059
 4272SOL     MW17088   9.417   2.153   2.776 -0.5159 -0.3257 -0.0171
 4273SOL     OW17089   7.142   2.265   9.639 -0.0182  0.4039  0.2304
 4273SOL    HW117090   7.229   2.274   9.679 -0.3702  1.4521  0.7947
 4273SOL    HW217091   7.127   2.348   9.594 -0.6127  0.1243 -0.1042
 4273SOL     MW17092   7.151   2.277   9.638 -0.1394  0.5023  0.2598
 4274SOL     OW17093   6.645   7.345   2.043  0.1694  0.4761 -0.5850
 4274SOL    HW117094   6.634   7.355   2.138 -1.2707 -1.3714 -0.4946
 4274SOL    HW217095   6.621   7.430   2.007 -1.6536  0.5151  0.5845
 4274SOL     MW17096   6.641   7.357   2.051 -0.2483  0.2446 -0.4237
 4275SOL     OW17097   7.170   9.767   3.022 -0.2317  0.4116  0.0672
 4275SOL    HW117098   7.111   9.842   3.026 -1.1055 -0.2100 -0.6280
 4275SOL    HW217099   7.166   9.739   2.930  2.2689  1.2266 -0.3513
 4275SOL     MW17100   7.162   9.773   3.010 -0.0235  0.4364 -0.0754
 4276SOL     OW17101   9.814   9.552   2.415 -0.1702  0.1504  0.4523
 4276SOL    HW117102   9.770   9.634   2.437 -1.8263 -0.6002  0.1050
 4276SOL    HW217103   9.881   9.578   2.351 -1.8985  1.0318 -1.1030
 4276SOL     MW17104   9.817   9.566   2.409 -0.6035  0.1671  0.2088
 4277SOL     OW17105   9.530   5.769   9.170  0.0445 -0.1394  0.6392
 4277SOL    HW117106   9.434   5.763   9.179  0.0637  0.8891  1.8305
 4277SOL    HW217107   9.552   5.700   9.108 -1.7424  1.1817 -1.6304
 4277SOL     MW17108   9.520   5.760   9.163 -0.1818  0.1614  0.5012
 4278SOL     OW17109   6.678   2.740   0.680  0.3482  0.1171  0.6730
 4278SOL    HW117110   6.624   2.815   0.658 -0.1532 -0.5792 -0.6143
 4278SOL    HW217111   6.724   2.765   0.760  1.5407  2.4720 -0.6529
 4278SOL     MW17112   6.677   2.753   0.687  0.4367  0.3294  0.3385
 4279SOL     OW17113   0.149   7.421   0.770  0.1784 -0.2006 -0.0379
 4279SOL    HW117114   0.195   7.351   0.724 -1.2880 -1.6020  0.5099
 4279SOL    HW217115   0.115   7.477   0.701 -0.3409 -1.1999 -0.6297
 4279SOL     MW17116   0.150   7.419   0.755 -0.0758 -0.5079 -0.0435
 4280SOL     OW17117   8.386   4.472   0.517  0.0607  0.0598  0.0938
 4280SOL    HW117118   8.464   4.448   0.468 -0.5106  0.3349 -0.9772
 4280SOL    HW217119   8.321   4.406   0.493  0.1509 -0.5796  1.5190
 4280SOL     MW17120   8.387   4.461   0.508 -0.0009  0.0131  0.1391
 4281SOL     OW17121   8.814   6.148   1.907  0.0454  0.2181 -0.1070
 4281SOL    HW117122   8.861   6.080   1.859  1.4505  1.1323 -0.1096
 4281SOL    HW217123   8.805   6.114   1.996  0.3964 -0.1329 -0.2041
 4281SOL     MW17124   8.819   6.135   1.912  0.2702  0.2902 -0.1198
 4282SOL     OW17125   7.524   2.071   9.500  0.7254  0.4756 -0.1735
 4282SOL    HW117126   7.521   2.131   9.575  0.1697 -0.6679  0.7657
 4282SOL    HW217127   7.508   1.985   9.539 -0.6596 -0.0188 -1.7700
 4282SOL     MW17128   7.522   2.068   9.515  0.4770  0.2659 -0.2576
 4283SOL     OW17129   9.511   2.084   9.798 -0.1551 -0.1225 -0.5256
 4283SOL    HW117130   9.541   2.028   9.726 -0.5377 -0.8428 -0.1384
 4283SOL    HW217131   9.575   2.155   9.801  0.1972 -0.3949 -1.1971
 4283SOL     MW17132   9.523   2.086   9.789 -0.1590 -0.2496 -0.5620
 4284SOL     OW17133   7.480   0.708   1.428  0.0810 -0.2938 -0.0151
 4284SOL    HW117134   7.502   0.730   1.518  0.4553  0.0609 -0.1854
 4284SOL    HW217135   7.552   0.652   1.398 -0.2213 -0.7066  0.0140
 4284SOL     MW17136   7.492   0.704   1.436  0.0903 -0.3012 -0.0332
 4285SOL     OW17137   9.823   8.368   0.750  0.7822  0.5868  0.6352
 4285SOL    HW117138   9.843   8.309   0.678 -0.1583  0.5255  0.4061
 4285SOL    HW217139   9.874   8.335   0.824 -0.4928 -1.1634  0.8062
 4285SOL     MW17140   9.832   8.357   0.750  0.4986  0.3549  0.6277
 4286SOL     OW17141   7.683   3.571   9.913  0.3629 -0.4991 -0.5014
 4286SOL    HW117142   7.637   3.497   9.873 -1.0664  0.3071 -0.4275
 4286SOL    HW217143   7.627   3.647   9.895 -0.3254 -0.0479  2.8550
 4286SOL     MW17144   7.670   3.571   9.906  0.0918 -0.3381 -0.0623
 4287SOL     OW17145   6.898   3.536   9.521  0.5684  0.1138  0.2511
 4287SOL    HW117146   6.980   3.585   9.517  0.5366  0.1045 -2.1719
 4287SOL    HW217147   6.853   3.559   9.439 -1.3582 -0.7357  1.0104
 4287SOL     MW17148   6.902   3.545   9.510  0.3177  0.0039  0.0381
 4288SOL     OW17149   7.397   6.830   2.839  0.3339 -0.7878 -0.4361
 4288SOL    HW117150   7.314   6.845   2.884  0.2569  1.3053 -1.1675
 4288SOL    HW217151   7.375   6.839   2.746  1.5566  1.0747 -0.6020
 4288SOL     MW17152   7.384   6.833   2.833  0.4805 -0.2814 -0.5510
 4289SOL     OW17153   9.877   8.877   0.813 -0.1475 -0.2503  0.1232
 4289SOL    HW117154   9.919   8.865   0.898 -1.5391  0.6770  0.9915
 4289SOL    HW217155   9.937   8.837   0.750  1.2570 -0.3230  1.4553
 4289SOL     MW17156   9.890   8.870   0.815 -0.1458 -0.1409  0.4049
 4290SOL     OW17157   9.433   8.610   0.140 -0.4841  0.0835 -0.0150
 4290SOL    HW117158   9.342   8.604   0.111 -0.8377  0.4469  0.9714
 4290SOL    HW217159   9.442   8.700   0.171 -0.3270 -0.4509  1.5864
 4290SOL     MW17160   9.422   8.621   0.141 -0.5093  0.0616  0.3163
 4291SOL     OW17161   9.151   1.104   1.120 -0.2908  0.3288  0.0923
 4291SOL    HW117162   9.225   1.107   1.060  0.0281 -1.1816  0.3438
 4291SOL    HW217163   9.091   1.040   1.081 -0.8435  0.5668  0.5380
 4291SOL     MW17164   9.153   1.096   1.108 -0.3207  0.1659  0.1816
 4292SOL     OW17165   7.875   3.705   0.042 -0.1954  0.2879 -0.1065
 4292SOL    HW117166   7.836   3.623   0.069 -0.8167  0.6739  0.1804
 4292SOL    HW217167   7.927   3.733   0.117 -0.8300  0.6816  0.1884
 4292SOL     MW17168   7.877   3.698   0.055 -0.3562  0.3877 -0.0320
 4293SOL     OW17169   8.776   3.288   9.265  0.1343  0.1286  0.3658
 4293SOL    HW117170   8.782   3.275   9.360  1.6151 -1.1286  0.1407
 4293SOL    HW217171   8.848   3.236   9.229 -0.5386  0.3940 -1.4731
 4293SOL     MW17172   8.786   3.279   9.273  0.2377  0.0016  0.1016
 4294SOL     OW17173   7.492   4.627   2.785  0.1296  0.0755  0.2566
 4294SOL    HW117174   7.495   4.622   2.881 -0.4970 -1.2771  0.2312
 4294SOL    HW217175   7.579   4.658   2.761  0.2534  0.5763  1.2661
 4294SOL     MW17176   7.504   4.630   2.795  0.0652 -0.0335  0.3826
 4295SOL     OW17177   9.741   2.725   1.712  0.0813  0.4303 -0.2662
 4295SOL    HW117178   9.743   2.764   1.799 -0.8920  0.3564 -0.2009
 4295SOL    HW217179   9.739   2.799   1.652  1.3428  0.4894 -0.2636
 4295SOL     MW17180   9.741   2.739   1.716  0.1182  0.4284 -0.2575
 4296SOL     OW17181   6.203   8.176   1.046  0.1472 -0.6988 -0.6039
 4296SOL    HW117182   6.153   8.175   1.127  2.0658 -1.6948  0.6387
 4296SOL    HW217183   6.249   8.260   1.046  2.1868 -1.7396  0.7351
 4296SOL     MW17184   6.203   8.187   1.056  0.6539 -0.9596 -0.2734
 4297SOL     OW17185   7.882   7.242   2.713 -0.5461 -0.0199 -0.1197
 4297SOL    HW117186   7.821   7.204   2.649  0.3722 -0.7509 -0.5809
 4297SOL    HW217187   7.884   7.180   2.785 -1.0327  0.4582  0.3214
 4297SOL     MW17188   7.875   7.230   2.714 -0.4909 -0.0522 -0.1223
 4298SOL     OW17189   8.200   6.045   0.609 -0.1603 -0.6147 -1.2694
 4298SOL    HW117190   8.291   6.058   0.636 -0.7812 -0.4469  0.9352
 4298SOL    HW217191   8.206   5.993   0.529  1.8536 -1.1073 -0.8517
 4298SOL     MW17192   8.213   6.040   0.602  0.0180 -0.6563 -0.9337
 4299SOL     OW17193   8.792   5.315   2.570 -0.5434  0.3447  0.0160
 4299SOL    HW117194   8.800   5.382   2.502 -1.8091 -0.2524 -0.7551
 4299SOL    HW217195   8.711   5.268   2.549 -0.7172 -0.1766  1.6549
 4299SOL     MW17196   8.782   5.318   2.559 -0.7277  0.2015  0.1271
 4300SOL     OW17197   7.831   9.032   9.329 -0.4805  0.8556  0.2354
 4300SOL    HW117198   7.880   9.046   9.248  0.7965  1.3714  1.0531
 4300SOL    HW217199   7.886   8.970   9.379 -0.8345  1.1829  1.0367
 4300SOL     MW17200   7.845   9.026   9.325 -0.3624  0.9636  0.4427
 4301SOL     OW17201   9.561   4.081   9.417 -0.4982  0.2666 -0.6013
 4301SOL    HW117202   9.467   4.092   9.402 -0.3703 -1.0173 -2.6673
 4301SOL    HW217203   9.573   3.986   9.422  0.5979  0.4390  0.4534
 4301SOL     MW17204   9.550   4.070   9.416 -0.3415  0.1243 -0.7307
 4302SOL     OW17205   6.650   8.572  10.107 -0.3796 -0.2269  0.8510
 4302SOL    HW117206   6.701   8.617  10.039  3.4169  0.1049  3.6419
 4302SOL    HW217207   6.579   8.633  10.127 -0.8855  0.2126 -1.8192
 4302SOL     MW17208   6.647   8.585  10.101  0.0417 -0.1282  0.8665
 4303SOL     OW17209   7.885   7.192  10.152  0.6532  0.1938 -0.2870
 4303SOL    HW117210   7.825   7.207  10.079 -0.0932  1.3852  0.5461
 4303SOL    HW217211   7.832   7.207  10.230  1.5440 -0.6669  0.5074
 4303SOL     MW17212   7.870   7.195  10.152  0.6717  0.2361 -0.0787
 4304SOL     OW17213   8.126   6.226  10.056  0.3733  0.2577  0.3873
 4304SOL    HW117214   8.110   6.278  10.134  1.0425 -0.0133  0.7149
 4304SOL    HW217215   8.080   6.144  10.072 -1.1075  0.8946 -0.3441
 4304SOL     MW17216   8.118   6.222  10.068  0.2694  0.3046  0.3356
 4305SOL     OW17217   7.432   6.020   1.365  0.2053  0.0548  0.0776
 4305SOL    HW117218   7.409   5.937   1.405 -0.5660  0.2824  0.1147
 4305SOL    HW217219   7.526   6.013   1.349 -0.0296 -1.2924 -0.9867
 4305SOL     MW17220   7.441   6.008   1.368  0.0765 -0.0885 -0.0539
 4306SOL     OW17221   8.132   4.620   2.553  0.5887  0.2400  0.3519
 4306SOL    HW117222   8.104   4.655   2.468 -2.4197  0.7345  1.4366
 4306SOL    HW217223   8.097   4.531   2.554 -0.0049  0.4782  1.3313
 4306SOL     MW17224   8.124   4.613   2.542  0.1276  0.3338  0.6161
 4307SOL     OW17225   8.444  10.105   1.129  0.2442  0.1866  0.4640
 4307SOL    HW117226   8.467  10.196   1.115  0.2527 -0.0822 -1.5795
 4307SOL    HW217227   8.381  10.107   1.200 -0.0293  1.8268  0.2180
 4307SOL     MW17228   8.439  10.117   1.136  0.2103  0.3622  0.1709
 4308SOL     OW17229   8.122   2.833   9.675 -0.4678  0.6938  0.2172
 4308SOL    HW117230   8.076   2.880   9.605  0.6095  0.6073 -0.5622
 4308SOL    HW217231   8.214   2.855   9.664 -0.0570 -0.7638  0.4786
 4308SOL     MW17232   8.128   2.841   9.665 -0.2773  0.4961  0.1509
 4309SOL     OW17233   8.274   3.877   2.370  0.5800 -0.2582 -0.0624
 4309SOL    HW117234   8.348   3.877   2.309  1.8852  1.5537  1.3987
 4309SOL    HW217235   8.202   3.917   2.321  1.4300  0.6194 -0.6293
 4309SOL     MW17236   8.274   3.882   2.356  0.8559  0.0861  0.0521
 4310SOL     OW17237   8.005   9.966   9.297  0.5620 -0.2542 -0.5286
 4310SOL    HW117238   8.030   9.982   9.389  0.1119 -0.4092 -0.3796
 4310SOL    HW217239   8.009  10.053   9.256 -2.1649  0.3687  0.3456
 4310SOL     MW17240   8.009   9.979   9.304  0.1553 -0.1943 -0.3977
 4311SOL     OW17241   9.870   2.335   0.031 -0.0049  0.1666 -0.3517
 4311SOL    HW117242   9.859   2.312  -0.061  0.8710  0.7224 -0.6038
 4311SOL    HW217243   9.955   2.298   0.055  0.8729  2.0222 -0.4274
 4311SOL     MW17244   9.880   2.327   0.022  0.2196  0.4753 -0.3936
 4312SOL     OW17245   9.401   4.730   0.073  0.1200 -0.0919 -0.0947
 4312SOL    HW117246   9.372   4.652   0.121 -0.9313  0.0830 -0.4094
 4312SOL    HW217247   9.330   4.793   0.084  0.1726  0.2078 -1.2778
 4312SOL     MW17248   9.388   4.728   0.080 -0.0079 -0.0312 -0.2865
 4313SOL     OW17249   7.453   1.417   0.647 -0.2998  0.4910  0.2591
 4313SOL    HW117250   7.476   1.326   0.667  0.2683  0.6994  0.5554
 4313SOL    HW217251   7.481   1.466   0.724  1.2885  1.2147 -0.7317
 4313SOL     MW17252   7.459   1.411   0.659 -0.0238  0.6103  0.1702
 4314SOL     OW17253   9.536   3.991   1.787  0.3013 -0.0819 -0.4339
 4314SOL    HW117254   9.527   3.981   1.692  2.7091 -1.6320 -0.5818
 4314SOL    HW217255   9.555   4.084   1.799 -1.9251  0.5387 -1.2237
 4314SOL     MW17256   9.538   4.002   1.776  0.3245 -0.2009 -0.5539
 4315SOL     OW17257   9.324   3.150   1.231 -0.4914  0.1621 -0.4228
 4315SOL    HW117258   9.335   3.234   1.276 -2.0434  0.6356 -0.8658
 4315SOL    HW217259   9.232   3.128   1.243 -0.1956 -1.2850 -0.6745
 4315SOL     MW17260   9.314   3.158   1.238 -0.6522  0.0374 -0.5117
 4316SOL     OW17261  10.066   8.772   0.671 -0.4798 -0.1835 -0.4096
 4316SOL    HW117262  10.130   8.740   0.734 -1.0756  0.5588  0.6050
 4316SOL    HW217263  10.031   8.693   0.630  0.4969 -0.6320 -0.4040
 4316SOL     MW17264  10.070   8.757   0.673 -0.4311 -0.1459 -0.2790
 4317SOL     OW17265   9.115   2.141   0.130 -0.0210  0.2086  0.1815
 4317SOL    HW117266   9.031   2.168   0.167  0.0419 -0.2857  0.6978
 4317SOL    HW217267   9.178   2.206   0.162 -0.1991  0.5585 -0.1770
 4317SOL     MW17268   9.112   2.153   0.139 -0.0358  0.1901  0.2017
 4318SOL     OW17269   6.884   0.375   1.751  0.1942  0.0143 -0.0787
 4318SOL    HW117270   6.919   0.303   1.699 -1.1033 -1.4402  0.9542
 4318SOL    HW217271   6.827   0.423   1.691  1.5595  0.6172 -0.9508
 4318SOL     MW17272   6.882   0.372   1.737  0.2029 -0.0947 -0.0581
 4319SOL     OW17273   8.541   5.094   1.034 -0.2865 -0.3909 -0.0341
 4319SOL    HW117274   8.526   5.000   1.044  0.3560 -0.5945 -0.8469
 4319SOL    HW217275   8.582   5.120   1.116  0.7899 -1.1060 -0.3163
 4319SOL     MW17276   8.544   5.085   1.046 -0.0665 -0.5085 -0.1743
 4320SOL     OW17277   8.691   2.743   0.036 -0.3479 -0.0392  0.3489
 4320SOL    HW117278   8.654   2.783   0.115  0.3819  2.0038 -0.2973
 4320SOL    HW217279   8.618   2.698  -0.005 -0.7879 -0.9984  2.0680
 4320SOL     MW17280   8.677   2.742   0.041 -0.3108  0.0996  0.4863
 4321SOL     OW17281   9.713   4.519   1.335  0.0647 -0.3112  0.4413
 4321SOL    HW117282   9.726   4.553   1.247 -0.5808  0.4958  0.6391
 4321SOL    HW217283   9.770   4.443   1.341 -0.9931 -1.2751 -1.1867
 4321SOL     MW17284   9.722   4.514   1.325 -0.1533 -0.3312  0.2582
 4322SOL     OW17285   8.470   8.612   0.452 -0.1527 -0.6255 -0.2763
 4322SOL    HW117286   8.388   8.565   0.465  0.2674 -1.4158 -0.4421
 4322SOL    HW217287   8.538   8.545   0.462  0.4502 -0.0730 -0.6078
 4322SOL     MW17288   8.468   8.598   0.455 -0.0217 -0.6559 -0.3400
 4323SOL     OW17289   8.508   9.975   2.950  0.1213  0.1122 -0.3787
 4323SOL    HW117290   8.565   9.898   2.942  1.1226  0.7066  0.8287
 4323SOL    HW217291   8.488   9.999   2.860  0.4918 -1.0562 -0.7904
 4323SOL     MW17292   8.513   9.968   2.937  0.2969  0.0387 -0.2768
 4324SOL     OW17293   6.588   0.411   2.726 -0.2145  0.2381  0.2097
 4324SOL    HW117294   6.653   0.390   2.794  0.0600  1.3075  0.2897
 4324SOL    HW217295   6.636   0.408   2.644 -0.0299  1.1014  0.2754
 4324SOL     MW17296   6.602   0.408   2.724 -0.1557  0.4855  0.2283
 4325SOL     OW17297   7.622   2.402   0.334  0.0487 -0.1854 -0.1553
 4325SOL    HW117298   7.637   2.337   0.265  1.0273  0.6995 -0.8089
 4325SOL    HW217299   7.695   2.390   0.395 -2.0614 -2.6239  2.1698
 4325SOL     MW17300   7.633   2.392   0.333 -0.0962 -0.3843  0.0587
 4326SOL     OW17301   8.195   4.114   9.694 -0.0158  0.5461  0.1084
 4326SOL    HW117302   8.139   4.164   9.754 -0.2908  0.9326 -0.4671
 4326SOL    HW217303   8.275   4.099   9.744  0.1746  1.7847  0.2181
 4326SOL     MW17304   8.198   4.118   9.708 -0.0266  0.7541  0.0488
 4327SOL     OW17305   7.830   0.160   0.183  0.5899  0.1059 -0.5942
 4327SOL    HW117306   7.889   0.110   0.126  0.8306  0.6773 -0.8532
 4327SOL    HW217307   7.888   0.216   0.234  0.5192 -1.4412  1.3177
 4327SOL     MW17308   7.845   0.161   0.182  0.6117 -0.0190 -0.3826
 4328SOL     OW17309   9.202   2.891   9.213 -0.0428 -0.2265  0.3942
 4328SOL    HW117310   9.256   2.864   9.287  2.6721  0.6377 -1.1456
 4328SOL    HW217311   9.139   2.820   9.202  0.2341 -0.9222  2.7624
 4328SOL     MW17312   9.201   2.878   9.221  0.3402 -0.2049  0.5002
 4329SOL     OW17313   9.001   5.029   1.214  0.2853  0.2080 -0.3657
 4329SOL    HW117314   8.987   4.944   1.255  0.4886  1.0027  1.4750
 4329SOL    HW217315   9.094   5.030   1.192  0.9732  0.9723  2.2522
 4329SOL     MW17316   9.011   5.018   1.217  0.3994  0.4075  0.2050
 4330SOL     OW17317   9.830   4.435   0.266 -0.3556  0.1415  0.2180
 4330SOL    HW117318   9.774   4.434   0.189  0.5881 -2.2930 -0.5283
 4330SOL    HW217319   9.778   4.394   0.335  0.4194 -2.2888 -0.5223
 4330SOL     MW17320   9.816   4.430   0.265 -0.1356 -0.4812  0.0277
 4331SOL     OW17321   9.395   9.044   2.668 -0.4117  0.3734 -1.1136
 4331SOL    HW117322   9.323   8.995   2.629  0.4186 -2.1314  0.2795
 4331SOL    HW217323   9.364   9.066   2.756  0.7585 -1.5574 -0.1472
 4331SOL     MW17324   9.382   9.040   2.675 -0.1556 -0.1944 -0.8116
 4332SOL     OW17325   7.182   7.091   0.580 -0.0821 -0.2700  0.2733
 4332SOL    HW117326   7.200   7.004   0.615  0.3928 -0.3323 -0.1228
 4332SOL    HW217327   7.089   7.087   0.554  0.1838 -0.9719 -0.6330
 4332SOL     MW17328   7.172   7.079   0.581  0.0127 -0.3678  0.1066
 4333SOL     OW17329   8.299   0.163   1.660  0.6214  0.0648  0.0599
 4333SOL    HW117330   8.235   0.229   1.685  0.5307  0.9528 -2.2590
 4333SOL    HW217331   8.380   0.213   1.644  1.3257 -0.7693  0.8982
 4333SOL     MW17332   8.301   0.178   1.661  0.6999  0.0717 -0.1296
 4334SOL     OW17333   8.898   4.509   1.821 -0.0327  0.1385 -0.1620
 4334SOL    HW117334   8.904   4.605   1.823  0.3823  0.0990  0.6951
 4334SOL    HW217335   8.944   4.480   1.899  0.2166 -0.7905 -0.6394
 4334SOL     MW17336   8.905   4.518   1.831  0.0524  0.0145 -0.1134
 4335SOL     OW17337   8.305   4.208   2.789 -0.5450  0.2756 -0.0650
 4335SOL    HW117338   8.293   4.160   2.707  0.3775  1.1171 -0.7175
 4335SOL    HW217339   8.386   4.174   2.825 -0.9353 -0.0747  0.4999
 4335SOL     MW17340   8.314   4.198   2.783 -0.4769  0.3385 -0.0763
 4336SOL     OW17341   6.632   2.259   1.408 -0.1155 -0.1483  0.2630
 4336SOL    HW117342   6.651   2.301   1.324 -2.5757 -1.7502 -1.2232
 4336SOL    HW217343   6.612   2.331   1.467 -1.1474  0.9575 -1.3460
 4336SOL     MW17344   6.632   2.274   1.405 -0.5626 -0.2118 -0.1333
 4337SOL     OW17345   7.489   4.411   0.344  0.4305  0.6788  0.4592
 4337SOL    HW117346   7.422   4.478   0.349 -0.8793 -0.5929  0.7048
 4337SOL    HW217347   7.535   4.429   0.262  0.6263  2.3034  0.9025
 4337SOL     MW17348   7.487   4.422   0.334  0.2879  0.7240  0.5474
 4338SOL     OW17349   8.447   9.755   1.270 -0.0704 -0.0837  0.1903
 4338SOL    HW117350   8.483   9.793   1.350  1.7288  0.0399 -0.6337
 4338SOL    HW217351   8.522   9.712   1.228 -1.3732 -1.8237 -0.4890
 4338SOL     MW17352   8.461   9.754   1.275 -0.0068 -0.2906 -0.0021
 4339SOL     OW17353   6.035   8.441   0.322  0.1886 -0.1678  0.1461
 4339SOL    HW117354   5.959   8.450   0.265 -0.5032  0.9330  1.2069
 4339SOL    HW217355   6.048   8.346   0.329 -1.2950 -0.3937  0.2046
 4339SOL     MW17356   6.027   8.430   0.315 -0.0899 -0.0558  0.2894
 4340SOL     OW17357   6.104   8.205   1.330 -0.0900 -1.0042  0.3621
 4340SOL    HW117358   6.051   8.267   1.380  1.2851  0.9548 -0.4624
 4340SOL    HW217359   6.124   8.135   1.391 -0.1415  0.3208  1.9626
 4340SOL     MW17360   6.100   8.204   1.344  0.0794 -0.5838  0.4615
 4341SOL     OW17361  10.055   1.258   1.450  0.3854 -0.1710  0.0708
 4341SOL    HW117362  10.072   1.352   1.453  0.2606 -0.1730  1.1367
 4341SOL    HW217363  10.084   1.225   1.535 -2.2931 -0.6099  0.9001
 4341SOL     MW17364  10.061   1.266   1.461  0.0265 -0.2274  0.3134
 4342SOL     OW17365   9.879   8.676   1.612 -0.1073  0.1633 -0.3201
 4342SOL    HW117366   9.850   8.654   1.701  0.8503  0.6156  0.1200
 4342SOL    HW217367   9.924   8.597   1.581 -0.9900 -0.2149 -0.6496
 4342SOL     MW17368   9.881   8.663   1.620 -0.0977  0.1728 -0.3059
 4343SOL     OW17369   9.427   8.404   9.566 -0.0880 -0.3100  0.5079
 4343SOL    HW117370   9.382   8.367   9.490 -0.9023 -0.5767  1.1082
 4343SOL    HW217371   9.516   8.368   9.560 -0.3833 -1.0054  0.1410
 4343SOL     MW17372   9.433   8.394   9.556 -0.2300 -0.4332  0.5378
 4344SOL     OW17373   7.950   0.866   8.784 -0.1905 -0.4456 -0.2371
 4344SOL    HW117374   7.934   0.771   8.784 -1.5205 -0.2567  1.1966
 4344SOL    HW217375   7.881   0.902   8.839  0.8773  1.2737  0.0483
 4344SOL     MW17376   7.939   0.858   8.791 -0.2241 -0.2013 -0.0170
 4345SOL     OW17377   5.815   0.820   1.188  0.4306  0.0685  0.1097
 4345SOL    HW117378   5.868   0.843   1.112  1.7233  0.0476  0.9621
 4345SOL    HW217379   5.866   0.753   1.233 -1.1727 -1.2708  0.0370
 4345SOL     MW17380   5.828   0.814   1.184  0.3908 -0.1056  0.2095
 4346SOL     OW17381   8.397   2.887   1.995 -0.1311  0.0993 -0.1617
 4346SOL    HW117382   8.436   2.968   2.029  0.1221 -0.1175  0.0572
 4346SOL    HW217383   8.455   2.860   1.924 -0.0894 -0.0175 -0.0827
 4346SOL     MW17384   8.409   2.894   1.990 -0.0933  0.0566 -0.1236
 4347SOL     OW17385   9.456   8.032   1.994  0.3468  0.2306 -0.0083
 4347SOL    HW117386   9.389   8.013   2.059 -0.7878  1.1731 -0.8605
 4347SOL    HW217387   9.518   8.089   2.039  1.1505 -1.4330  1.0869
 4347SOL     MW17388   9.455   8.037   2.008  0.3045  0.1383  0.0228
 4348SOL     OW17389   0.262   7.942   1.107 -0.0529 -0.3651 -0.6003
 4348SOL    HW117390   0.302   7.936   1.020 -0.9033  0.9614 -1.1200
 4348SOL    HW217391   0.193   8.007   1.097 -1.0559 -1.1664  0.7513
 4348SOL     MW17392   0.258   7.949   1.095 -0.2902 -0.2978 -0.4938
 4349SOL     OW17393   7.981   2.517   1.721  0.6618 -0.4027 -0.3416
 4349SOL    HW117394   8.041   2.477   1.658  0.9763  0.2297 -0.4497
 4349SOL    HW217395   8.007   2.609   1.724  1.1209 -0.5571  1.2436
 4349SOL     MW17396   7.992   2.523   1.713  0.7609 -0.3415 -0.1525
 4350SOL     OW17397   7.288   8.175   8.801 -0.1044 -0.5400  0.6347
 4350SOL    HW117398   7.379   8.158   8.776 -0.6875 -2.2447 -0.5225
 4350SOL    HW217399   7.240   8.169   8.718 -1.4379 -0.9758  1.4259
 4350SOL     MW17400   7.294   8.172   8.787 -0.3497 -0.8140  0.5879
 4351SOL     OW17401   0.142   7.421   1.031 -0.4272 -0.1781 -0.6655
 4351SOL    HW117402   0.164   7.333   1.060 -2.0607 -0.4003 -0.0261
 4351SOL    HW217403   0.142   7.417   0.936  0.9975 -0.4646 -0.6724
 4351SOL     MW17404   0.145   7.409   1.023 -0.4539 -0.2432 -0.5845
 4352SOL     OW17405   8.008   1.802   3.013  0.5883 -0.7159 -0.3755
 4352SOL    HW117406   8.082   1.811   2.953  0.9067  2.6999  0.2980
 4352SOL    HW217407   8.022   1.719   3.057  4.2043 -0.1256 -0.1150
 4352SOL     MW17408   8.019   1.793   3.011  1.0920 -0.2031 -0.2560
 4353SOL     OW17409   6.370   6.101   0.376 -0.0558 -0.0707  0.4584
 4353SOL    HW117410   6.396   6.150   0.454  0.0985 -0.6739  0.7903
 4353SOL    HW217411   6.441   6.116   0.313  0.3125 -0.3852  0.7884
 4353SOL     MW17412   6.383   6.109   0.378  0.0111 -0.1882  0.5431
 4354SOL     OW17413   9.276   6.179   0.797  0.3209  0.7445  0.4435
 4354SOL    HW117414   9.299   6.239   0.868 -1.8217  0.3287  1.5664
 4354SOL    HW217415   9.268   6.235   0.720 -1.6586  1.9914  1.4706
 4354SOL     MW17416   9.278   6.194   0.796 -0.2068  0.8509  0.7187
 4355SOL     OW17417   6.393   1.194   1.695 -0.2364 -0.3972 -0.3141
 4355SOL    HW117418   6.422   1.283   1.673 -1.3365 -0.1165 -0.7218
 4355SOL    HW217419   6.454   1.165   1.762  1.1777  0.0081 -1.3895
 4355SOL     MW17420   6.404   1.202   1.701 -0.1962 -0.3094 -0.5039
 4356SOL     OW17421   6.850   9.363   9.487 -0.0415  0.2412 -0.1113
 4356SOL    HW117422   6.851   9.291   9.424 -0.1038  1.2992 -1.3608
 4356SOL    HW217423   6.919   9.341   9.549  1.1945 -0.0151 -1.5042
 4356SOL     MW17424   6.859   9.351   9.487  0.1087  0.3438 -0.4495
 4357SOL     OW17425   7.322   0.833   0.057  0.2820 -0.3189  0.0741
 4357SOL    HW117426   7.390   0.786   0.105  0.9049  0.3050 -0.1861
 4357SOL    HW217427   7.284   0.768  -0.002  2.1494 -0.1823 -1.3778
 4357SOL     MW17428   7.326   0.819   0.056  0.6008 -0.2215 -0.1451
 4358SOL     OW17429  10.059   1.890   0.692  0.0091 -0.0835 -0.2288
 4358SOL    HW117430  10.144   1.934   0.683  0.0804 -0.3458 -0.8404
 4358SOL    HW217431  10.047   1.844   0.610 -0.9122  0.2562 -0.2906
 4358SOL     MW17432  10.068   1.890   0.681 -0.0997 -0.0736 -0.3150
 4359SOL     OW17433   7.203   6.414   1.599  0.5992  0.1810  0.1793
 4359SOL    HW117434   7.265   6.360   1.550 -0.8449 -0.8560 -0.5915
 4359SOL    HW217435   7.178   6.359   1.674  0.4717  0.5045  0.3749
 4359SOL     MW17436   7.208   6.400   1.603  0.3980  0.0897  0.1056
 4360SOL     OW17437   8.128   5.069   1.411  0.3618  0.2490  0.4472
 4360SOL    HW117438   8.138   5.164   1.401 -0.3308  0.4156  1.2902
 4360SOL    HW217439   8.180   5.048   1.488  0.0388  0.0305  0.6060
 4360SOL     MW17440   8.136   5.079   1.420  0.2318  0.2423  0.5754
 4361SOL     OW17441   9.675   4.950   1.339  0.2583 -0.1360 -0.7224
 4361SOL    HW117442   9.685   5.020   1.275 -1.0055  1.4073  0.6821
 4361SOL    HW217443   9.758   4.947   1.386 -0.6205  2.5894  1.2232
 4361SOL     MW17444   9.687   4.958   1.337 -0.0160  0.4105 -0.2936
 4362SOL     OW17445   9.318   0.631   9.459 -0.2470  0.1243  0.2828
 4362SOL    HW117446   9.323   0.709   9.514 -2.3115  0.4193  0.1350
 4362SOL    HW217447   9.347   0.559   9.516 -2.3223  0.4199  1.8295
 4362SOL     MW17448   9.322   0.632   9.473 -0.7769  0.1999  0.4618
 4363SOL     OW17449   7.635   2.125  10.020  0.5017  0.1510 -0.8063
 4363SOL    HW117450   7.542   2.104  10.029  0.1381  1.5680 -1.0479
 4363SOL    HW217451   7.680   2.045  10.046 -0.7890 -0.7690 -1.3001
 4363SOL     MW17452   7.629   2.112  10.025  0.2899  0.2146 -0.9004
 4364SOL     OW17453   7.275   1.323   1.193  0.0255  0.3898  0.1384
 4364SOL    HW117454   7.233   1.356   1.272 -1.1280  0.1999 -0.3809
 4364SOL    HW217455   7.363   1.298   1.221 -0.5664 -0.2662  1.5046
 4364SOL     MW17456   7.281   1.324   1.206 -0.1979  0.2815  0.2468
 4365SOL     OW17457   8.101   0.342   1.372 -0.3437  0.1193 -0.0926
 4365SOL    HW117458   8.145   0.396   1.437  0.3700  1.0506 -1.3034
 4365SOL    HW217459   8.163   0.273   1.352  0.0058  0.6114 -0.7525
 4365SOL     MW17460   8.114   0.340   1.378 -0.2076  0.3015 -0.3320
 4366SOL     OW17461   8.894   9.831   2.995 -0.4460  0.3685 -0.0530
 4366SOL    HW117462   8.946   9.751   3.008  1.5391  1.4518 -0.8747
 4366SOL    HW217463   8.804   9.800   2.988  0.1650 -1.7044  0.5453
 4366SOL     MW17464   8.889   9.817   2.996 -0.1137  0.2418 -0.0816
 4367SOL     OW17465  10.036   9.243   0.838 -0.4323  0.2742  0.3348
 4367SOL    HW117466  10.082   9.320   0.802  0.0074 -0.7927 -1.4984
 4367SOL    HW217467   9.946   9.273   0.852  0.0006  1.4406  0.8026
 4367SOL     MW17468  10.031   9.257   0.835 -0.3206  0.2869  0.1600
 4368SOL     OW17469   8.925   8.092   2.606 -0.1610  0.0299 -0.1446
 4368SOL    HW117470   8.987   8.054   2.669  0.0070  0.3464 -0.1155
 4368SOL    HW217471   8.928   8.186   2.623 -0.4408  0.0738 -0.3342
 4368SOL     MW17472   8.933   8.099   2.616 -0.1753  0.0761 -0.1651
 4369SOL     OW17473   8.643   1.853  10.026 -0.0478  0.4307  0.0258
 4369SOL    HW117474   8.711   1.808   9.976 -0.1846  1.4721 -1.1442
 4369SOL    HW217475   8.624   1.932   9.975 -2.0178  0.2577  0.4058
 4369SOL     MW17476   8.649   1.858  10.013 -0.3175  0.5419 -0.0754
 4370SOL     OW17477   9.068   1.965   1.433  0.8438 -0.0843 -0.3397
 4370SOL    HW117478   9.159   1.991   1.420  1.9619 -2.3055  2.0914
 4370SOL    HW217479   9.072   1.871   1.450 -1.7593 -0.0396  1.0770
 4370SOL     MW17480   9.080   1.956   1.433  0.6537 -0.3629  0.1529
 4371SOL     OW17481   6.997   7.752   1.773 -0.4364  0.3482 -0.0334
 4371SOL    HW117482   7.023   7.829   1.823  0.5667 -0.0262  0.0508
 4371SOL    HW217483   7.002   7.680   1.836 -0.8974  0.1344 -0.2329
 4371SOL     MW17484   7.001   7.752   1.788 -0.3670  0.2729 -0.0482
 4372SOL     OW17485  10.009   7.359   0.091  0.4788  0.4134 -0.0878
 4372SOL    HW117486   9.939   7.339   0.153  0.5168  0.3118 -0.0787
 4372SOL    HW217487   9.964   7.395   0.015  0.4551  0.8646  0.1301
 4372SOL     MW17488   9.995   7.361   0.089  0.4806  0.4581 -0.0587
 4373SOL     OW17489  10.139   2.498   0.977 -0.2279 -0.1440 -0.0551
 4373SOL    HW117490  10.086   2.567   1.017  0.7388  0.0817  0.8985
 4373SOL    HW217491  10.218   2.543   0.947 -0.4578 -0.5056 -1.2721
 4373SOL     MW17492  10.142   2.513   0.978 -0.1336 -0.1614 -0.0888
 4374SOL     OW17493   9.854   6.410   9.848 -0.0923 -0.1413  0.1034
 4374SOL    HW117494   9.775   6.435   9.801 -0.9115 -0.2902  1.3730
 4374SOL    HW217495   9.865   6.317   9.829  0.2122  0.0486 -0.6806
 4374SOL     MW17496   9.845   6.401   9.840 -0.1582 -0.1361  0.1656
 4375SOL     OW17497   7.238   4.970   2.305 -0.2150 -0.2402  0.1886
 4375SOL    HW117498   7.154   5.001   2.338 -1.2826 -1.1519 -1.5282
 4375SOL    HW217499   7.288   5.051   2.288 -2.1886  0.6023 -2.3186
 4375SOL     MW17500   7.233   4.985   2.307 -0.6043 -0.2491 -0.3521
 4376SOL     OW17501   9.669   6.272   9.452  0.4607 -0.1459 -0.5471
 4376SOL    HW117502   9.652   6.306   9.364  0.6648 -0.2045 -0.6091
 4376SOL    HW217503   9.629   6.185   9.453 -0.3125  0.1980 -0.2974
 4376SOL     MW17504   9.662   6.265   9.441  0.3879 -0.1094 -0.5231
 4377SOL     OW17505   8.651   9.460   9.816 -0.2963 -0.1114  0.0897
 4377SOL    HW117506   8.641   9.365   9.818  0.1288 -0.2799 -2.6951
 4377SOL    HW217507   8.588   9.490   9.751  0.9499  1.2830 -0.5173
 4377SOL     MW17508   8.642   9.452   9.808 -0.0823  0.0456 -0.3445
 4378SOL     OW17509   9.870   8.130   0.114  0.5127  0.2329 -0.3201
 4378SOL    HW117510   9.861   8.046   0.159 -0.9363 -0.9136 -2.5372
 4378SOL    HW217511   9.830   8.194   0.173  0.2430 -0.8870  0.7471
 4378SOL     MW17512   9.864   8.127   0.127  0.2927 -0.0573 -0.4673
 4379SOL     OW17513   7.513   6.564   2.021 -0.3732  0.0794 -0.2447
 4379SOL    HW117514   7.506   6.560   2.117  1.5722 -0.1380 -0.0736
 4379SOL    HW217515   7.466   6.643   1.997 -2.0017 -0.5293  0.7381
 4379SOL     MW17516   7.506   6.573   2.030 -0.3327 -0.0263 -0.0970
 4380SOL     OW17517   7.795   3.285   1.789  0.2673  0.1019 -0.3910
 4380SOL    HW117518   7.727   3.220   1.807 -1.1169  1.4157 -0.6629
 4380SOL    HW217519   7.874   3.249   1.830 -0.3822 -1.8395 -0.7313
 4380SOL     MW17520   7.796   3.272   1.797  0.0069  0.0216 -0.4694
 4381SOL     OW17521   9.602   5.740   0.294 -0.0462 -0.0889  0.2914
 4381SOL    HW117522   9.668   5.671   0.299 -0.4016 -0.3819  0.8517
 4381SOL    HW217523   9.561   5.742   0.380 -0.0259  0.8324  0.2893
 4381SOL     MW17524   9.605   5.732   0.305 -0.0891 -0.0085  0.3628
 4382SOL     OW17525   8.368   6.971   9.210 -0.1780  0.1683  0.2561
 4382SOL    HW117526   8.447   7.023   9.201 -0.5132  0.8885  1.2802
 4382SOL    HW217527   8.299   7.035   9.226 -0.9081 -0.4755 -0.2863
 4382SOL     MW17528   8.369   6.986   9.211 -0.3144  0.1780  0.3178
 4383SOL     OW17529   7.065   8.232   9.552  0.0232  0.4877 -0.2553
 4383SOL    HW117530   7.158   8.211   9.547 -0.2808 -0.8736 -0.4825
 4383SOL    HW217531   7.038   8.242   9.461 -0.3186 -0.3776 -0.2554
 4383SOL     MW17532   7.073   8.230   9.540 -0.0595  0.2027 -0.2844
 4384SOL     OW17533   6.527   8.136   0.324 -0.1817 -0.0010  0.3011
 4384SOL    HW117534   6.574   8.191   0.263 -0.8042  1.4973  1.1191
 4384SOL    HW217535   6.436   8.140   0.295 -0.3276 -0.0992  0.7272
 4384SOL     MW17536   6.521   8.143   0.313 -0.2801  0.1782  0.4603
 4385SOL     OW17537  10.065   5.526   0.520  0.5480 -0.7014  0.0691
 4385SOL    HW117538  10.086   5.526   0.614 -2.2629  3.1589  0.9301
 4385SOL    HW217539  10.107   5.605   0.486  0.3030 -1.2599 -1.6206
 4385SOL     MW17540  10.073   5.536   0.528  0.1568 -0.2788 -0.0370
 4386SOL     OW17541   9.593   7.587   1.021 -0.0010  0.0097  0.6719
 4386SOL    HW117542   9.509   7.629   1.005 -0.2670 -1.0825 -1.1052
 4386SOL    HW217543   9.651   7.658   1.050 -1.2050  0.9885  0.7561
 4386SOL     MW17544   9.590   7.601   1.023 -0.1892 -0.0048  0.4552
 4387SOL     OW17545   9.400   2.118   1.788 -0.0012 -0.5962 -0.1936
 4387SOL    HW117546   9.305   2.103   1.790 -0.0656 -0.2041  1.6291
 4387SOL    HW217547   9.435   2.045   1.737 -0.8368 -3.8564  3.4408
 4387SOL     MW17548   9.392   2.107   1.782 -0.1164 -0.9634  0.5050
 4388SOL     OW17549   8.211   9.600   1.354 -0.8005  0.4055 -0.1337
 4388SOL    HW117550   8.137   9.659   1.340  0.1563  1.6146 -0.1661
 4388SOL    HW217551   8.288   9.649   1.324  0.0531 -0.7503  0.0859
 4388SOL     MW17552   8.211   9.614   1.348 -0.5687  0.4123 -0.1097
 4389SOL     OW17553   7.905   9.993   8.924  0.5344  0.5596 -0.4457
 4389SOL    HW117554   7.849   9.922   8.956  2.5295 -0.7626  0.3732
 4389SOL    HW217555   7.899  10.060   8.992 -1.0375  1.0293 -1.0140
 4389SOL     MW17556   7.897   9.992   8.937  0.5886  0.4504 -0.4136
 4390SOL     OW17557   8.197   2.201   0.336  0.4486 -0.3837 -0.2183
 4390SOL    HW117558   8.160   2.113   0.342  0.0372 -0.1418  1.1867
 4390SOL    HW217559   8.133   2.251   0.286  1.1650 -1.1063 -1.9171
 4390SOL     MW17560   8.184   2.196   0.330  0.4876 -0.4453 -0.2559
 4391SOL     OW17561   8.577   2.536   0.528 -0.5800  0.3726 -0.0033
 4391SOL    HW117562   8.491   2.558   0.565 -0.4631 -0.2916  0.6895
 4391SOL    HW217563   8.560   2.520   0.435 -1.1103  0.7758  0.0205
 4391SOL     MW17564   8.563   2.537   0.521 -0.6329  0.3392  0.0884
 4392SOL     OW17565   7.358   4.376   2.005  0.6583 -0.1779 -0.0562
 4392SOL    HW117566   7.274   4.406   2.039  1.1902  0.6426  0.5578
 4392SOL    HW217567   7.423   4.409   2.067  1.4191 -1.0301 -0.3748
 4392SOL     MW17568   7.356   4.384   2.017  0.8238 -0.1820 -0.0184
 4393SOL     OW17569   9.903   2.038   2.494  0.5574  0.4921  0.1736
 4393SOL    HW117570   9.828   2.025   2.436  0.5981 -1.8263  0.5533
 4393SOL    HW217571   9.882   1.988   2.573  2.3806  0.0094  0.3921
 4393SOL     MW17572   9.891   2.030   2.497  0.7960  0.1335  0.2502
 4394SOL     OW17573  10.171   1.933   1.883  0.6284  0.0366  0.5212
 4394SOL    HW117574  10.104   1.865   1.885 -0.4091  0.9898 -0.2903
 4394SOL    HW217575  10.129   2.009   1.924  1.1030  0.7191 -0.2102
 4394SOL     MW17576  10.157   1.934   1.888  0.5564  0.2460  0.3237
 4395SOL     OW17577   5.883   1.080   1.283  0.2540 -0.0528 -0.4990
 4395SOL    HW117578   5.797   1.118   1.271  0.0147 -0.4316 -0.0312
 4395SOL    HW217579   5.873   0.989   1.256  0.4021 -0.2007 -0.0753
 4395SOL     MW17580   5.871   1.073   1.278  0.2423 -0.1203 -0.3849
 4396SOL     OW17581   6.362   7.728   9.740  0.3952  0.1362 -0.5129
 4396SOL    HW117582   6.274   7.754   9.712  0.2977  0.2058 -0.1394
 4396SOL    HW217583   6.358   7.726   9.835  0.2602 -1.7038 -0.5144
 4396SOL     MW17584   6.351   7.731   9.748  0.3654 -0.0904 -0.4653
 4397SOL     OW17585   0.316   9.921   0.562  0.2098  0.6963  0.0163
 4397SOL    HW117586   0.278   9.918   0.475 -1.7366  2.5239  0.7109
 4397SOL    HW217587   0.343   9.831   0.580  1.5367  0.4488 -2.7797
 4397SOL     MW17588   0.314   9.909   0.553  0.1305  0.8986 -0.2527
 4398SOL     OW17589   8.534   8.757   2.150 -0.5689  0.3400  0.2040
 4398SOL    HW117590   8.451   8.806   2.153 -1.0446 -0.4498  0.1212
 4398SOL    HW217591   8.599   8.823   2.124 -1.0105  1.1639  1.1095
 4398SOL     MW17592   8.532   8.772   2.147 -0.6863  0.3443  0.3093
 4399SOL     OW17593   7.257   3.580   9.286 -0.5469  0.1948 -0.3835
 4399SOL    HW117594   7.281   3.521   9.357 -0.6088  0.3135 -0.2635
 4399SOL    HW217595   7.336   3.588   9.233 -0.7181 -0.4879 -0.7510
 4399SOL     MW17596   7.270   3.573   9.289 -0.5767  0.1226 -0.4152
 4400SOL     OW17597   8.676   0.309   9.577  0.8848  0.5303 -0.2690
 4400SOL    HW117598   8.617   0.268   9.640 -1.1827  0.3871 -2.1888
 4400SOL    HW217599   8.717   0.380   9.626  0.9977 -0.8497  1.7983
 4400SOL     MW17600   8.674   0.313   9.592  0.6346  0.3353 -0.2501
 4401SOL     OW17601   7.959   4.727   9.383 -0.0123  0.2975  0.0674
 4401SOL    HW117602   7.872   4.764   9.370 -0.0763  0.6076  1.2459
 4401SOL    HW217603   7.983   4.752   9.473  0.8945 -0.5889  0.0933
 4401SOL     MW17604   7.951   4.735   9.393  0.0956  0.2237  0.2216
 4402SOL     OW17605   9.903   9.102   2.497 -0.0417  0.0006  0.2824
 4402SOL    HW117606   9.918   9.163   2.569 -0.3390 -0.0247  0.3684
 4402SOL    HW217607   9.822   9.133   2.456  0.5365  0.4710 -0.5225
 4402SOL     MW17608   9.894   9.114   2.501 -0.0057  0.0576  0.1903
 4403SOL     OW17609   9.450   2.825   1.157  0.0744  0.0186 -0.1953
 4403SOL    HW117610   9.476   2.889   1.223  0.2972  0.4339 -0.6741
 4403SOL    HW217611   9.355   2.821   1.163  0.0292  0.6845 -0.4154
 4403SOL     MW17612   9.441   2.833   1.166  0.0971  0.1570 -0.2848
 4404SOL     OW17613   9.684   0.906   2.780  0.3139  0.1451  0.4326
 4404SOL    HW117614   9.692   1.000   2.764  1.1101  0.0256  0.0934
 4404SOL    HW217615   9.659   0.870   2.695 -1.5162  0.2077  0.8976
 4404SOL     MW17616   9.682   0.914   2.767  0.1816  0.1378  0.4487
 4405SOL     OW17617   8.717   9.724   9.770 -0.4545 -0.2868  0.1202
 4405SOL    HW117618   8.714   9.644   9.823  0.3317 -0.8193 -0.6232
 4405SOL    HW217619   8.808   9.753   9.775 -0.7094  0.5134  0.2927
 4405SOL     MW17620   8.728   9.717   9.777 -0.3865 -0.2525  0.0471
 4406SOL     OW17621   9.467   2.244   9.311  0.0450  0.2451  0.8128
 4406SOL    HW117622   9.409   2.229   9.386 -0.4172 -1.7354  0.1178
 4406SOL    HW217623   9.410   2.283   9.245 -0.0186  0.1707  0.8238
 4406SOL     MW17624   9.452   2.247   9.312 -0.0223 -0.0179  0.7252
 4407SOL     OW17625   9.439   1.439   2.574  0.4455 -0.7120 -0.5460
 4407SOL    HW117626   9.454   1.346   2.590 -0.3553 -0.4576  2.2376
 4407SOL    HW217627   9.506   1.484   2.626 -0.3855  0.2380 -0.2587
 4407SOL     MW17628   9.449   1.433   2.583  0.2366 -0.5579 -0.1529
 4408SOL     OW17629   9.672   0.200   9.926  0.1041  0.2424  0.2826
 4408SOL    HW117630   9.603   0.199   9.992 -1.4073  0.8427 -1.2185
 4408SOL    HW217631   9.641   0.140   9.858  0.5933  1.2419 -0.8567
 4408SOL     MW17632   9.659   0.192   9.926 -0.0267  0.4472 -0.0554
 4409SOL     OW17633   7.521   9.205   9.978  0.0290  0.1525  0.1650
 4409SOL    HW117634   7.451   9.228  10.039 -1.0944  1.0217 -1.3905
 4409SOL    HW217635   7.591   9.267   9.998  0.2819 -0.5264  1.5234
 4409SOL     MW17636   7.521   9.216   9.989 -0.0824  0.1769  0.1397
 4410SOL     OW17637   9.583   4.299   1.086  0.1077  0.2698  0.3428
 4410SOL    HW117638   9.568   4.237   1.157 -0.6714  2.2371  1.9746
 4410SOL    HW217639   9.516   4.278   1.021 -0.1894 -0.5442  0.8940
 4410SOL     MW17640   9.573   4.288   1.087 -0.0301  0.4175  0.6222
 4411SOL     OW17641   8.536   6.926   2.212 -0.0984 -0.5450 -0.4749
 4411SOL    HW117642   8.557   6.910   2.304  0.6395 -1.5852 -0.8045
 4411SOL    HW217643   8.514   6.840   2.177 -1.9131  0.0601 -0.9198
 4411SOL     MW17644   8.536   6.913   2.219 -0.2363 -0.6007 -0.5740
 4412SOL     OW17645   8.141   2.561   0.805  0.4493 -0.0789  0.9840
 4412SOL    HW117646   8.151   2.514   0.723 -0.1908  0.8199  0.3652
 4412SOL    HW217647   8.128   2.493   0.871  2.7686 -0.9007  0.6693
 4412SOL     MW17648   8.140   2.546   0.803  0.6642 -0.0691  0.8645
 4413SOL     OW17649   0.383   5.828   1.208 -0.3242 -0.0057 -0.1501
 4413SOL    HW117650   0.410   5.887   1.279  0.2835 -0.4637  0.0119
 4413SOL    HW217651   0.320   5.769   1.250 -1.8796  1.2685 -0.6077
 4413SOL     MW17652   0.378   5.828   1.223 -0.4455  0.0988 -0.1880
 4414SOL     OW17653   9.571   4.745   9.518 -0.4681  0.2609  0.0211
 4414SOL    HW117654   9.533   4.699   9.592 -2.1794  2.6886  0.7900
 4414SOL    HW217655   9.497   4.789   9.477  0.9803  2.1725 -0.7215
 4414SOL     MW17656   9.557   4.745   9.522 -0.5018  0.8164  0.0245
 4415SOL     OW17657   7.967   2.657   9.079 -0.2373 -0.3246 -0.0721
 4415SOL    HW117658   7.934   2.741   9.110  1.0549  0.1694  0.0284
 4415SOL    HW217659   8.060   2.672   9.062  0.3504 -2.0903  1.2966
 4415SOL     MW17660   7.975   2.670   9.081  0.0034 -0.4874  0.1160
 4416SOL     OW17661   9.396   3.024   1.606 -0.8243 -0.3179  0.1187
 4416SOL    HW117662   9.456   3.049   1.536 -0.0768  0.4012  0.9894
 4416SOL    HW217663   9.413   2.931   1.621  0.3289 -0.0512  0.5717
 4416SOL     MW17664   9.406   3.015   1.599 -0.5810 -0.1917  0.2882
 4417SOL     OW17665   9.912   1.452   2.127  0.3819 -0.1058 -0.3299
 4417SOL    HW117666   9.947   1.506   2.197  1.9415 -0.5610 -0.7194
 4417SOL    HW217667   9.983   1.446   2.063  0.6487 -3.2732  0.0652
 4417SOL     MW17668   9.926   1.458   2.127  0.6157 -0.5695 -0.3291
 4418SOL     OW17669   9.289   7.508   9.587 -0.2248 -0.1508  0.0315
 4418SOL    HW117670   9.199   7.484   9.564 -0.0894  0.3422 -1.0659
 4418SOL    HW217671   9.294   7.602   9.569  0.9342 -0.4560 -1.3963
 4418SOL     MW17672   9.278   7.517   9.582 -0.0591 -0.1268 -0.2917
 4419SOL     OW17673   0.427   1.454   0.224  0.1810  0.3035 -0.9369
 4419SOL    HW117674   0.479   1.425   0.299 -0.3381 -0.6015 -0.9090
 4419SOL    HW217675   0.396   1.541   0.249 -0.6279 -0.2986  0.2572
 4419SOL     MW17676   0.429   1.461   0.237  0.0110  0.1105 -0.7805
 4420SOL     OW17677   5.997   0.501   0.925 -0.0086 -0.0044  0.2699
 4420SOL    HW117678   6.087   0.521   0.898  0.8233 -1.5981  1.6903
 4420SOL    HW217679   5.981   0.413   0.892 -0.4057 -0.4035  1.5005
 4420SOL     MW17680   6.006   0.493   0.917  0.0471 -0.2595  0.6092
 4421SOL     OW17681   7.981   7.085   1.196  0.4063 -0.0347  0.5584
 4421SOL    HW117682   7.973   7.126   1.110  0.4386 -0.3625  0.3980
 4421SOL    HW217683   8.075   7.074   1.208  0.4046  0.0619  0.6625
 4421SOL     MW17684   7.992   7.089   1.186  0.4102 -0.0643  0.5512
 4422SOL     OW17685   8.923   1.224   1.963 -0.0881 -0.5551 -0.0280
 4422SOL    HW117686   8.937   1.143   2.011  1.9196 -1.4104 -1.8674
 4422SOL    HW217687   8.949   1.293   2.024  3.2401 -1.6278  0.0038
 4422SOL     MW17688   8.928   1.223   1.977  0.5950 -0.8019 -0.2594
 4423SOL     OW17689   8.402   4.071   9.398 -0.3272  0.1193  0.3730
 4423SOL    HW117690   8.447   4.116   9.326 -0.5015  0.5500  0.5329
 4423SOL    HW217691   8.400   4.135   9.469 -0.6426 -0.1164  0.5797
 4423SOL     MW17692   8.408   4.085   9.398 -0.3899  0.1442  0.4199
 4424SOL     OW17693   7.192   9.495   8.917  0.1892  0.6094 -0.2769
 4424SOL    HW117694   7.203   9.527   8.828 -0.1665  1.6720  0.0375
 4424SOL    HW217695   7.175   9.574   8.969 -2.9447 -0.2588  0.2260
 4424SOL     MW17696   7.191   9.510   8.913 -0.2575  0.6343 -0.1723
 4425SOL     OW17697   0.257   1.232   1.749  0.3116  0.3280  0.0793
 4425SOL    HW117698   0.273   1.259   1.658  0.0772  0.4545  0.0738
 4425SOL    HW217699   0.335   1.260   1.796 -0.0342  1.2564  0.1210
 4425SOL     MW17700   0.269   1.239   1.743  0.2373  0.4630  0.0839
 4426SOL     OW17701   8.448   4.400   1.539 -0.0612 -0.7212 -0.5211
 4426SOL    HW117702   8.499   4.431   1.614  0.1151 -2.3115  0.0626
 4426SOL    HW217703   8.470   4.460   1.468 -1.0692  1.4921  0.9453
 4426SOL     MW17704   8.457   4.412   1.540 -0.1677 -0.6414 -0.2587
 4427SOL     OW17705   7.528   8.427  10.072  0.0109 -0.0637 -0.3620
 4427SOL    HW117706   7.440   8.410  10.107 -0.5844  0.4658 -1.5419
 4427SOL    HW217707   7.552   8.513  10.107  0.0385 -0.1891 -0.0730
 4427SOL     MW17708   7.519   8.436  10.081 -0.0618 -0.0119 -0.4760
 4428SOL     OW17709   9.724   2.637   2.811 -0.0270  0.1253  0.1557
 4428SOL    HW117710   9.694   2.636   2.902  0.9868  1.7308  0.5356
 4428SOL    HW217711   9.819   2.645   2.817  0.0892 -0.2013 -1.0508
 4428SOL     MW17712   9.732   2.638   2.824  0.1177  0.2890  0.0498
 4429SOL     OW17713   8.216   6.450   9.645 -0.8481 -1.1346 -0.0122
 4429SOL    HW117714   8.284   6.383   9.659  1.4537  0.8859 -0.8905
 4429SOL    HW217715   8.172   6.423   9.565  0.6347 -1.2039 -0.8429
 4429SOL     MW17716   8.219   6.438   9.637 -0.3636 -0.8848 -0.2310
 4430SOL     OW17717   7.291   3.135   0.171 -0.1356 -0.2519 -0.2955
 4430SOL    HW117718   7.196   3.143   0.179 -0.0879 -0.0686  0.0890
 4430SOL    HW217719   7.318   3.087   0.249  0.0920 -0.2959 -0.3997
 4430SOL     MW17720   7.282   3.130   0.182 -0.1004 -0.2341 -0.2596
 4431SOL     OW17721   8.594   7.510   1.881  0.1929 -0.8709  0.3191
 4431SOL    HW117722   8.684   7.535   1.904 -0.6381  2.0673  0.8498
 4431SOL    HW217723   8.553   7.488   1.964  0.3175 -1.9792  0.1044
 4431SOL     MW17724   8.601   7.511   1.894  0.1025 -0.6366  0.3595
 4432SOL     OW17725   9.556   1.602   9.852 -0.3654 -0.3028  0.7573
 4432SOL    HW117726   9.469   1.636   9.873  0.2729  0.4199  2.3470
 4432SOL    HW217727   9.608   1.617   9.931  1.4697  0.1266 -0.4761
 4432SOL     MW17728   9.552   1.608   9.865 -0.0488 -0.1553  0.8029
 4433SOL     OW17729   6.913   3.803   0.046  0.4284  0.3039  0.6197
 4433SOL    HW117730   6.857   3.752   0.104  2.4728 -0.2905  2.1532
 4433SOL    HW217731   6.904   3.893   0.077  0.8665  0.1054  1.3488
 4433SOL     MW17732   6.905   3.808   0.057  0.7462  0.2024  0.9093
 4434SOL     OW17733   9.118   5.055   2.214 -0.4599 -0.3391  0.0005
 4434SOL    HW117734   9.075   5.052   2.129  0.7927  0.5285 -0.6817
 4434SOL    HW217735   9.175   5.131   2.210 -0.5289 -0.1580  1.7053
 4434SOL     MW17736   9.119   5.064   2.203 -0.3084 -0.2048  0.1314
 4435SOL     OW17737   6.268   0.611   0.780  0.0118  0.1240  0.3061
 4435SOL    HW117738   6.198   0.628   0.717 -0.1248 -1.0348  0.1253
 4435SOL    HW217739   6.267   0.688   0.838 -0.1461  0.9964 -0.8204
 4435SOL     MW17740   6.259   0.623   0.780 -0.0259  0.0873  0.1388
 4436SOL     OW17741   8.694   0.117   0.297 -0.1408 -0.4636 -0.2119
 4436SOL    HW117742   8.783   0.133   0.268  1.3351 -2.6627  2.6425
 4436SOL    HW217743   8.677   0.025   0.277 -1.8480 -0.0546 -0.8331
 4436SOL     MW17744   8.703   0.108   0.291 -0.1704 -0.6928  0.0740
 4437SOL     OW17745   8.903   7.213   9.924 -0.6821  0.6155 -0.1884
 4437SOL    HW117746   8.905   7.220   9.829 -2.4764  2.2907 -0.1703
 4437SOL    HW217747   8.983   7.256   9.953 -1.5116  2.8174 -0.9140
 4437SOL     MW17748   8.913   7.220   9.916 -1.0180  1.1118 -0.2790
 4438SOL     OW17749   6.443   7.747  10.006 -0.2281  0.1223 -0.3702
 4438SOL    HW117750   6.529   7.747   9.964  1.9245  1.2629  3.5112
 4438SOL    HW217751   6.441   7.665  10.056 -1.3313  0.2097 -0.2409
 4438SOL     MW17752   6.454   7.737  10.007 -0.0938  0.2795  0.1432
 4439SOL     OW17753   0.172   5.607   1.495 -0.5267 -0.0789 -0.6675
 4439SOL    HW117754   0.219   5.523   1.491 -1.1937 -0.4498 -0.7349
 4439SOL    HW217755   0.232   5.665   1.542 -0.5416 -0.9193  0.4302
 4439SOL     MW17756   0.186   5.603   1.501 -0.6140 -0.2339 -0.5356
 4440SOL     OW17757   8.648   7.343   2.696  0.5095 -0.0087 -0.2959
 4440SOL    HW117758   8.627   7.284   2.623  0.4520 -0.7019  0.2627
 4440SOL    HW217759   8.574   7.404   2.700  0.1259 -0.4649 -0.3244
 4440SOL     MW17760   8.635   7.343   2.688  0.4530 -0.1558 -0.2280
 4441SOL     OW17761   8.549   0.117   8.783 -0.0508 -0.2624  0.0778
 4441SOL    HW117762   8.628   0.147   8.828 -0.4786 -0.4496  0.9896
 4441SOL    HW217763   8.524   0.037   8.830 -0.1317 -0.8567 -0.9457
 4441SOL     MW17764   8.556   0.111   8.795 -0.1159 -0.3625  0.0635
 4442SOL     OW17765   7.517   3.547   0.857  0.1397  0.7494 -0.1537
 4442SOL    HW117766   7.574   3.606   0.907  1.4204  1.0492 -1.8764
 4442SOL    HW217767   7.522   3.464   0.903  1.4202  0.9695  0.1339
 4442SOL     MW17768   7.525   3.544   0.869  0.4675  0.8159 -0.3374
 4443SOL     OW17769   8.858   4.323   0.800 -0.7006  0.2350  0.0843
 4443SOL    HW117770   8.789   4.278   0.751 -1.5081  1.4792  0.0547
 4443SOL    HW217771   8.866   4.408   0.758  1.2884 -0.0816 -0.2781
 4443SOL     MW17772   8.850   4.328   0.788 -0.5494  0.3537  0.0341
 4444SOL     OW17773   8.244   4.444   2.961 -0.0983 -0.1418  0.0156
 4444SOL    HW117774   8.318   4.441   3.021 -0.3507  0.2393  0.3540
 4444SOL    HW217775   8.239   4.356   2.925  1.8476  0.3548 -1.6448
 4444SOL     MW17776   8.253   4.432   2.964  0.1185 -0.0294 -0.1536
 4445SOL     OW17777   7.983   1.070   2.790 -0.1851  0.0584 -0.3640
 4445SOL    HW117778   8.079   1.065   2.788 -0.2349 -1.4323 -1.2047
 4445SOL    HW217779   7.955   1.025   2.709 -1.5891  0.1975  0.0139
 4445SOL     MW17780   7.992   1.063   2.779 -0.3712 -0.1146 -0.4233
 4446SOL     OW17781   7.584   9.297   0.613  0.1517  0.0066 -0.1838
 4446SOL    HW117782   7.493   9.321   0.629  0.1809 -0.6117  1.1176
 4446SOL    HW217783   7.594   9.212   0.657  0.9229 -0.7376 -1.7329
 4446SOL     MW17784   7.574   9.289   0.621  0.2542 -0.1678 -0.2155
 4447SOL     OW17785   7.142   5.727   9.985 -0.4965 -0.2441 -0.1778
 4447SOL    HW117786   7.189   5.776  10.053 -0.0767 -1.6065  0.5503
 4447SOL    HW217787   7.190   5.645   9.977 -0.4955 -0.1001 -2.2014
 4447SOL     MW17788   7.154   5.723   9.993 -0.4427 -0.4000 -0.3437
 4448SOL     OW17789   0.389   6.084   1.500 -0.0538 -0.4075 -0.0534
 4448SOL    HW117790   0.316   6.106   1.442  0.6514  3.6644  0.3368
 4448SOL    HW217791   0.379   6.143   1.574  2.4040 -1.3593  1.1430
 4448SOL     MW17792   0.378   6.094   1.502  0.3511 -0.0081  0.1497
 4449SOL     OW17793   8.086   2.971   2.456  0.2883 -0.3140  0.3018
 4449SOL    HW117794   8.059   3.061   2.437  0.5573 -0.1249  0.8065
 4449SOL    HW217795   8.167   2.980   2.506  0.7074 -0.8600 -0.2686
 4449SOL     MW17796   8.093   2.984   2.460  0.3764 -0.3597  0.2934
 4450SOL     OW17797   9.618   2.682   9.493  0.0957 -0.0375  0.0916
 4450SOL    HW117798   9.690   2.736   9.460  0.5967 -0.4683  0.4415
 4450SOL    HW217799   9.640   2.594   9.463  1.0532 -0.6100  2.2562
 4450SOL     MW17800   9.630   2.678   9.485  0.2824 -0.1660  0.4135
 4451SOL     OW17801   9.598   2.760   2.352  0.1500  0.3981  0.0112
 4451SOL    HW117802   9.516   2.757   2.304 -0.4784 -0.1695  1.0966
 4451SOL    HW217803   9.616   2.668   2.374  0.3137  0.6642  1.0304
 4451SOL     MW17804   9.590   2.747   2.348  0.0905  0.3595  0.2806
 4452SOL     OW17805   8.613   1.239  10.139  0.1302  0.1850 -0.2599
 4452SOL    HW117806   8.654   1.270  10.058 -0.8738  1.2010 -0.4110
 4452SOL    HW217807   8.625   1.309  10.202 -1.1745  0.4445 -0.2590
 4452SOL     MW17808   8.620   1.252  10.136 -0.1654  0.3483 -0.2791
 4453SOL     OW17809   9.195   1.636   9.303  0.3062  0.4336  0.1191
 4453SOL    HW117810   9.147   1.608   9.381 -0.8675  0.1219 -0.6914
 4453SOL    HW217811   9.287   1.621   9.325 -0.1413 -3.4967  0.0254
 4453SOL     MW17812   9.200   1.630   9.316  0.0987 -0.1094  0.0034
 4454SOL     OW17813   7.693   4.349   2.623  0.3260 -0.1298 -0.0073
 4454SOL    HW117814   7.708   4.389   2.708  1.7143 -0.5254 -0.0416
 4454SOL    HW217815   7.605   4.311   2.629 -0.1549  1.0527  0.7458
 4454SOL     MW17816   7.684   4.349   2.634  0.4422 -0.0291  0.0847
 4455SOL     OW17817   0.210   6.147   0.770  0.1067 -0.1548  0.0181
 4455SOL    HW117818   0.181   6.073   0.717  1.5351  0.0214 -1.0730
 4455SOL    HW217819   0.290   6.115   0.813  0.0591  0.3626  0.4992
 4455SOL     MW17820   0.217   6.133   0.769  0.2834 -0.0660 -0.0600
 4456SOL     OW17821   9.760   1.298   1.498  0.5625  0.1855  0.0073
 4456SOL    HW117822   9.730   1.378   1.454  0.1769 -0.9757 -1.9550
 4456SOL    HW217823   9.844   1.278   1.458  0.6329 -0.4279  0.4411
 4456SOL     MW17824   9.767   1.306   1.487  0.5221 -0.0417 -0.1884
 4457SOL     OW17825   7.673   4.674   0.501  0.0811  0.3771  0.0411
 4457SOL    HW117826   7.580   4.651   0.502 -0.1126  0.9064 -1.6391
 4457SOL    HW217827   7.701   4.655   0.411  2.3595 -2.4985  1.1957
 4457SOL     MW17828   7.664   4.669   0.490  0.3480  0.0768 -0.0262
 4458SOL     OW17829   8.395   3.453   1.394 -0.0753  0.4497  0.0556
 4458SOL    HW117830   8.361   3.373   1.355  0.6910  0.0743  0.1421
 4458SOL    HW217831   8.434   3.501   1.321  1.1868 -0.1631  0.3055
 4458SOL     MW17832   8.396   3.449   1.380  0.1844  0.3232  0.0987
 4459SOL     OW17833   7.079   0.087   2.885  0.3043  0.3044  0.2094
 4459SOL    HW117834   7.058   0.000   2.919  0.6355 -0.2827 -1.0214
 4459SOL    HW217835   7.160   0.074   2.836  2.1984  1.9577  2.6565
 4459SOL     MW17836   7.087   0.074   2.883  0.5892  0.4408  0.3651
 4460SOL     OW17837   8.469   4.143   2.252  0.1224  0.0225  0.4489
 4460SOL    HW117838   8.488   4.194   2.331  1.3009  0.1765  0.0879
 4460SOL    HW217839   8.542   4.163   2.193  0.2891 -1.6161  0.0663
 4460SOL     MW17840   8.481   4.152   2.254  0.2946 -0.1676  0.3537
 4461SOL     OW17841   8.641   5.870   2.723  0.8369 -0.4656 -0.4946
 4461SOL    HW117842   8.685   5.953   2.742  0.9938 -0.2840 -1.5668
 4461SOL    HW217843   8.711   5.805   2.728  0.5049 -0.7403  1.5095
 4461SOL     MW17844   8.656   5.872   2.726  0.8145 -0.4775 -0.3753
 4462SOL     OW17845   9.456   2.197   0.627  0.4476 -0.6029  0.0147
 4462SOL    HW117846   9.415   2.133   0.569  0.1412 -0.4589  0.0716
 4462SOL    HW217847   9.422   2.281   0.597 -0.3689 -0.5913  0.9360
 4462SOL     MW17848   9.447   2.199   0.616  0.3038 -0.5830  0.1399
 4463SOL     OW17849   9.464   6.838   0.422  0.1654 -0.2336  0.0973
 4463SOL    HW117850   9.459   6.797   0.335  0.6226 -0.8034  0.3315
 4463SOL    HW217851   9.483   6.931   0.403  1.0266 -0.4968 -0.4044
 4463SOL     MW17852   9.466   6.845   0.408  0.3342 -0.3402  0.0631
 4464SOL     OW17853   9.451   9.526   0.360 -0.0857 -0.0244 -0.0972
 4464SOL    HW117854   9.404   9.560   0.435 -0.1236 -0.9683  0.3188
 4464SOL    HW217855   9.500   9.601   0.326  0.2568  0.3183  1.1112
 4464SOL     MW17856   9.451   9.540   0.365 -0.0467 -0.1013  0.1108
 4465SOL     OW17857   7.343   1.376   0.934 -0.4882  0.0431  0.0115
 4465SOL    HW117858   7.311   1.352   1.021  1.2316  0.4560  0.8114
 4465SOL    HW217859   7.352   1.292   0.888 -5.0060  0.0004 -1.2442
 4465SOL     MW17860   7.340   1.362   0.939 -0.8464  0.0905 -0.0468
 4466SOL     OW17861   8.046   2.017   1.065  0.2189  0.0963  0.4965
 4466SOL    HW117862   8.027   1.954   1.135 -0.2443  1.4312  1.6238
 4466SOL    HW217863   8.140   2.011   1.052  0.0597 -1.5204 -0.1227
 4466SOL     MW17864   8.056   2.008   1.072  0.1392  0.0603  0.5616
 4467SOL     OW17865   7.206   2.978  10.081  0.3457  0.2736  0.0723
 4467SOL    HW117866   7.270   2.974  10.010  0.6884 -1.1714  0.4146
 4467SOL    HW217867   7.258   2.963  10.160 -0.2094  0.5783  0.4948
 4467SOL     MW17868   7.221   2.975  10.082  0.3185  0.1276  0.1702
 4468SOL     OW17869   8.127   3.810   2.000  0.2700 -0.5830  0.2217
 4468SOL    HW117870   8.085   3.864   2.067 -0.1735  0.2625 -0.7098
 4468SOL    HW217871   8.209   3.782   2.040  1.6231  2.6120  0.0134
 4468SOL     MW17872   8.132   3.814   2.014  0.3865 -0.0657  0.0758
 4469SOL     OW17873   0.188   4.012   0.927  0.2420 -0.2925  0.7320
 4469SOL    HW117874   0.106   4.040   0.887  0.4179  0.2204  0.7231
 4469SOL    HW217875   0.161   3.957   1.001 -0.1626  1.0508  1.6181
 4469SOL     MW17876   0.174   4.008   0.932  0.2127 -0.0549  0.8443
 4470SOL     OW17877   7.333   2.790   0.111 -0.1862 -0.1540 -0.6856
 4470SOL    HW117878   7.355   2.772   0.020  0.5147  1.7207 -0.9241
 4470SOL    HW217879   7.410   2.833   0.148 -1.1648  0.9419  0.2079
 4470SOL     MW17880   7.346   2.793   0.104 -0.2217  0.2263 -0.6018
 4471SOL     OW17881   6.484   7.352   1.645 -0.3699 -0.1843  0.3259
 4471SOL    HW117882   6.416   7.290   1.672 -1.6281  1.2271  0.5308
 4471SOL    HW217883   6.567   7.308   1.668 -1.2599 -0.8860  2.4910
 4471SOL     MW17884   6.486   7.338   1.651 -0.6449 -0.0934  0.6293
 4472SOL     OW17885   0.018   7.657   1.872  0.0258 -0.3525 -0.2865
 4472SOL    HW117886   0.104   7.627   1.844  0.7870  0.8997  0.6332
 4472SOL    HW217887  -0.039   7.641   1.796  1.0055 -1.3539 -0.8377
 4472SOL     MW17888   0.022   7.651   1.858  0.2487 -0.3204 -0.2393
 4473SOL     OW17889   9.245   2.158   3.082 -0.1445  0.5785  0.4632
 4473SOL    HW117890   9.172   2.113   3.125 -0.2651 -0.7726 -1.0808
 4473SOL    HW217891   9.276   2.097   3.015  1.0286  1.9835 -0.3442
 4473SOL     MW17892   9.239   2.145   3.079 -0.0098  0.5854  0.1622
 4474SOL     OW17893   9.246   2.666   1.836 -0.2978  0.2558  0.0664
 4474SOL    HW117894   9.164   2.657   1.885 -1.5997 -0.9478 -2.1789
 4474SOL    HW217895   9.274   2.576   1.820 -0.2187  0.5696 -1.7971
 4474SOL     MW17896   9.239   2.653   1.840 -0.4543  0.1419 -0.4596
 4475SOL     OW17897   8.634   8.827   8.912 -0.4241  0.1310  0.8571
 4475SOL    HW117898   8.701   8.814   8.845 -2.1244  0.0248 -0.9196
 4475SOL    HW217899   8.586   8.904   8.884 -2.9316 -1.4929  0.3473
 4475SOL     MW17900   8.636   8.835   8.900 -0.9627 -0.0905  0.5644
 4476SOL     OW17901   6.231   6.697   0.511  0.1513  0.3621 -0.2227
 4476SOL    HW117902   6.292   6.705   0.585  0.9478  1.4668 -0.9815
 4476SOL    HW217903   6.265   6.622   0.461  0.9171  0.9666 -0.6399
 4476SOL     MW17904   6.243   6.688   0.514  0.3513  0.5809 -0.3733
 4477SOL     OW17905   7.495   4.003  10.016 -0.1449  0.0932  0.5889
 4477SOL    HW117906   7.486   4.079  10.074 -2.5465  0.4284 -0.1404
 4477SOL    HW217907   7.537   3.937  10.071  0.5475  1.4005  1.7189
 4477SOL     MW17908   7.499   4.005  10.031 -0.3637  0.3034  0.6402
 4478SOL     OW17909   7.714   5.056   9.574 -0.6799  0.1850  0.2268
 4478SOL    HW117910   7.740   4.965   9.564  0.4515  0.5009  0.1133
 4478SOL    HW217911   7.622   5.058   9.548 -0.2190 -0.6022 -1.6743
 4478SOL     MW17912   7.706   5.045   9.569 -0.4761  0.1247 -0.0311
 4479SOL     OW17913   9.909   7.481  10.034  0.0167  0.0899 -0.4421
 4479SOL    HW117914   9.843   7.438   9.980 -0.0295  0.6514 -0.8384
 4479SOL    HW217915   9.860   7.545  10.086  0.1581  0.0383 -0.2414
 4479SOL     MW17916   9.895   7.484  10.034  0.0289  0.1552 -0.4671
 4480SOL     OW17917   9.901   0.130   1.052  0.1156 -0.2319  0.0183
 4480SOL    HW117918   9.894   0.040   1.086 -0.6572 -0.1451  0.1128
 4480SOL    HW217919   9.823   0.174   1.086  0.1619  0.3010 -0.5551
 4480SOL     MW17920   9.890   0.124   1.061  0.0226 -0.1526 -0.0430
 4481SOL     OW17921   8.763   9.665   1.805  0.5413  0.2246 -0.7031
 4481SOL    HW117922   8.668   9.674   1.815  0.4988 -1.4176  0.7806
 4481SOL    HW217923   8.783   9.713   1.725 -1.1010  3.2346  0.4962
 4481SOL     MW17924   8.753   9.672   1.796  0.3256  0.3997 -0.3596
 4482SOL     OW17925   7.981  10.082   2.111  0.1189 -0.3184  0.2485
 4482SOL    HW117926   8.035  10.128   2.047 -0.8685  0.0754 -0.3241
 4482SOL    HW217927   8.003  10.122   2.194  0.6424 -0.1111  0.0180
 4482SOL     MW17928   7.991  10.093   2.113  0.0595 -0.2414  0.1457
 4483SOL     OW17929   8.478   9.348   1.186  0.1953  0.1399 -0.2008
 4483SOL    HW117930   8.457   9.277   1.247  0.6358  0.1122 -0.0796
 4483SOL    HW217931   8.537   9.308   1.122 -0.2514  0.1719 -0.6419
 4483SOL     MW17932   8.483   9.334   1.186  0.1945  0.1404 -0.2418
 4484SOL     OW17933   8.930   2.993   9.562  0.1697 -0.1700  0.5266
 4484SOL    HW117934   8.919   2.952   9.475  0.1042  1.3381 -0.1992
 4484SOL    HW217935   9.018   2.968   9.589 -0.3215 -1.8592  0.7074
 4484SOL     MW17936   8.940   2.984   9.554  0.0985 -0.1932  0.4568
 4485SOL     OW17937   7.842   1.109  10.115 -0.0520 -0.2102 -0.4630
 4485SOL    HW117938   7.799   1.159  10.046  0.0215  0.5032 -0.0091
 4485SOL    HW217939   7.935   1.112  10.094  0.4702  3.2590  1.5890
 4485SOL     MW17940   7.848   1.116  10.104  0.0243  0.3252 -0.1422
 4486SOL     OW17941   6.788   4.125   2.070  0.0520 -0.1264  0.2412
 4486SOL    HW117942   6.751   4.195   2.017  1.7658  0.1195 -0.7164
 4486SOL    HW217943   6.839   4.073   2.008 -1.3317 -2.3702  0.8913
 4486SOL     MW17944   6.790   4.127   2.055  0.0942 -0.3821  0.2018
 4487SOL     OW17945   7.743   3.081   9.722 -0.5215 -0.6451 -0.3676
 4487SOL    HW117946   7.805   3.113   9.657 -0.2167  1.3929  0.8377
 4487SOL    HW217947   7.674   3.039   9.670 -0.1135  0.5737 -1.9938
 4487SOL     MW17948   7.742   3.080   9.707 -0.4303 -0.2282 -0.4215
 4488SOL     OW17949   9.030  10.059   0.352  0.0921 -0.1421 -0.2934
 4488SOL    HW117950   9.115  10.036   0.315  0.3669  1.4349 -0.7109
 4488SOL    HW217951   8.970  10.055   0.277  0.0459 -0.0274 -0.2627
 4488SOL     MW17952   9.033  10.056   0.338  0.1213  0.0744 -0.3429
 4489SOL     OW17953   8.420   7.538   1.495 -0.2992  0.4231 -0.4448
 4489SOL    HW117954   8.470   7.460   1.469 -0.9934  0.1496 -1.0057
 4489SOL    HW217955   8.384   7.572   1.413 -0.5298  0.9669 -0.1240
 4489SOL     MW17956   8.422   7.532   1.481 -0.4176  0.4577 -0.4756
 4490SOL     OW17957   8.710   0.220   1.997 -0.4260  0.6054  0.0396
 4490SOL    HW117958   8.766   0.171   2.057 -0.3635  1.6228  0.8249
 4490SOL    HW217959   8.770   0.250   1.928 -0.1745  0.8635  0.3650
 4490SOL     MW17960   8.725   0.217   1.996 -0.3858  0.7687  0.1818
 4491SOL     OW17961   8.501   6.926   0.001 -0.0087 -0.3270  0.3756
 4491SOL    HW117962   8.518   6.850  -0.054 -2.1441 -0.4481 -0.2220
 4491SOL    HW217963   8.531   6.899   0.088 -0.2520 -1.6931  0.0696
 4491SOL     MW17964   8.507   6.913   0.005 -0.3132 -0.5173  0.2599
 4492SOL     OW17965   8.117   3.267   8.926 -0.3083  0.6923  0.4620
 4492SOL    HW117966   8.055   3.203   8.890 -3.0413  2.2005  2.1565
 4492SOL    HW217967   8.062   3.341   8.953  2.3198  2.3316  1.6834
 4492SOL     MW17968   8.102   3.268   8.925 -0.3218  1.0952  0.8352
 4493SOL     OW17969   8.416   0.621   0.082 -0.5476 -0.6002 -0.1361
 4493SOL    HW117970   8.412   0.533   0.044 -0.0287 -0.1993 -1.1477
 4493SOL    HW217971   8.439   0.678   0.008  1.7090  0.0666  0.9958
 4493SOL     MW17972   8.418   0.617   0.068 -0.1923 -0.4635 -0.1207
 4494SOL     OW17973   8.177   0.736   2.504 -0.6889  0.1381 -0.4908
 4494SOL    HW117974   8.225   0.794   2.563 -1.3133 -0.0717  0.2491
 4494SOL    HW217975   8.156   0.659   2.558  2.1341 -1.9001 -2.0529
 4494SOL     MW17976   8.180   0.733   2.519 -0.4074 -0.1497 -0.5961
 4495SOL     OW17977   0.185   4.922   1.166  0.8173 -0.1344 -0.2606
 4495SOL    HW117978   0.195   4.901   1.259  1.0193 -1.5434 -0.5708
 4495SOL    HW217979   0.120   4.859   1.134  1.3534 -0.2103 -1.2444
 4495SOL     MW17980   0.178   4.911   1.174  0.9118 -0.3245 -0.4262
 4496SOL     OW17981   8.772   0.219   3.133  0.3475 -0.1247 -0.1150
 4496SOL    HW117982   8.714   0.295   3.136 -0.4544 -0.7309  0.1344
 4496SOL    HW217983   8.715   0.146   3.109  0.9111 -0.8231  0.5957
 4496SOL     MW17984   8.757   0.219   3.131  0.3170 -0.2917  0.0079
 4497SOL     OW17985   0.387   2.254   0.187  0.4151  0.0672  0.0604
 4497SOL    HW117986   0.478   2.229   0.173  0.1061 -0.6390 -0.7066
 4497SOL    HW217987   0.388   2.350   0.180  0.9488  0.0079 -0.8553
 4497SOL     MW17988   0.399   2.263   0.184  0.4438 -0.0308 -0.1550
 4498SOL     OW17989   9.472   8.363   0.490 -0.4162  0.4085  0.1456
 4498SOL    HW117990   9.492   8.429   0.424  0.7242  0.7963  0.8474
 4498SOL    HW217991   9.377   8.365   0.498 -0.5272  0.7754 -1.0426
 4498SOL     MW17992   9.463   8.371   0.483 -0.2844  0.5051  0.0833
 4499SOL     OW17993   9.017   9.856   9.126  0.3360  0.4351  0.3920
 4499SOL    HW117994   9.042   9.919   9.058  2.6682 -3.4605 -2.7935
 4499SOL    HW217995   8.928   9.830   9.103  0.7320 -0.0930 -0.5980
 4499SOL     MW17996   9.009   9.861   9.114  0.6853 -0.1312 -0.1425
 4500SOL     OW17997   9.196   2.949   1.809  0.2404 -0.1334  0.1081
 4500SOL    HW117998   9.187   2.856   1.786  1.6315 -0.1801 -0.3289
 4500SOL    HW217999   9.241   2.949   1.893  1.3192  0.1436 -0.4491
 4500SOL     MW18000   9.200   2.937   1.817  0.5566 -0.1039 -0.0192
 4501SOL     OW18001   8.596   9.898   2.067  0.4956 -0.2222  0.3437
 4501SOL    HW118002   8.571   9.952   1.992  1.4951 -0.8488 -0.4691
 4501SOL    HW218003   8.638   9.959   2.128  0.0134  0.2269  0.2311
 4501SOL     MW18004   8.598   9.913   2.065  0.5618 -0.2449  0.2252
 4502SOL     OW18005   7.819   2.247   3.027  0.1304 -0.2519 -0.5384
 4502SOL    HW118006   7.887   2.185   3.053  1.7186  1.2243 -1.0397
 4502SOL    HW218007   7.862   2.332   3.026 -2.0050  0.9103  0.1945
 4502SOL     MW18008   7.833   2.250   3.030  0.0603  0.0859 -0.5088
 4503SOL     OW18009   7.766   3.629   0.931  0.2151  0.1463 -0.1844
 4503SOL    HW118010   7.800   3.647   1.019  1.6105  0.2760 -0.7240
 4503SOL    HW218011   7.792   3.539   0.913 -2.5381 -0.8921  0.6085
 4503SOL     MW18012   7.774   3.620   0.940  0.0413  0.0299 -0.1520
 4504SOL     OW18013   0.195   3.011  10.089  0.1861  0.0304 -0.0752
 4504SOL    HW118014   0.134   3.025  10.162  1.3600 -1.8052  1.3520
 4504SOL    HW218015   0.177   2.922  10.060  1.3332 -0.0881 -0.4743
 4504SOL     MW18016   0.185   3.002  10.095  0.4832 -0.2198  0.0564
 4505SOL     OW18017   9.782   3.230   2.486 -0.4960 -0.0834 -0.4967
 4505SOL    HW118018   9.729   3.195   2.414  0.8920 -0.2269 -1.4793
 4505SOL    HW218019   9.867   3.188   2.476  0.1278  0.9113  0.4438
 4505SOL     MW18020   9.786   3.220   2.476 -0.2385  0.0255 -0.5021
 4506SOL     OW18021   8.839   8.023   2.986 -0.0229 -0.1645 -0.3858
 4506SOL    HW118022   8.745   8.015   2.973 -0.0452  1.0517 -1.2008
 4506SOL    HW218023   8.877   7.950   2.936 -0.5065 -0.2185 -0.6801
 4506SOL     MW18024   8.832   8.013   2.978 -0.0877 -0.0157 -0.5278
 4507SOL     OW18025   6.837   9.967   1.621 -0.3334 -0.5529 -0.1342
 4507SOL    HW118026   6.742   9.957   1.628 -0.0633 -2.8841  1.5162
 4507SOL    HW218027   6.867   9.883   1.586  1.2768 -0.9488  1.9763
 4507SOL     MW18028   6.829   9.955   1.618 -0.0927 -0.9020  0.3472
 4508SOL     OW18029   8.151   0.906   9.606  0.4361 -0.3879  0.2115
 4508SOL    HW118030   8.148   0.968   9.680 -1.1178  0.4322 -0.4988
 4508SOL    HW218031   8.167   0.961   9.530 -2.3596 -0.5879 -0.6268
 4508SOL     MW18032   8.153   0.921   9.606 -0.1207 -0.3085  0.0133
 4509SOL     OW18033   9.185   5.199   9.890  0.1905  1.1446 -0.1548
 4509SOL    HW118034   9.184   5.274   9.949  0.4256  1.2050 -0.2248
 4509SOL    HW218035   9.178   5.123   9.947  1.4073  1.1532  0.0470
 4509SOL     MW18036   9.184   5.199   9.905  0.3764  1.1535 -0.1379
 4510SOL     OW18037   7.941   5.677   2.738 -0.1907 -1.0686  0.0080
 4510SOL    HW118038   7.914   5.732   2.664 -1.6776  0.0769  1.3328
 4510SOL    HW218039   7.863   5.625   2.759  0.5212 -2.0859  0.1571
 4510SOL     MW18040   7.927   5.677   2.731 -0.2899 -1.0522  0.1966
 4511SOL     OW18041   8.003  10.010   9.711  0.3906 -0.1657 -0.0210
 4511SOL    HW118042   7.963   9.927   9.687  1.5691 -0.0607 -2.6907
 4511SOL    HW218043   8.087  10.011   9.664  0.5657  2.3625  0.1967
 4511SOL     MW18044   8.009   9.999   9.702  0.5639  0.1714 -0.3349
 4512SOL     OW18045   9.263   2.372   2.688  0.2750  0.0797  0.0946
 4512SOL    HW118046   9.191   2.332   2.640 -0.3484  0.7450  0.4519
 4512SOL    HW218047   9.314   2.298   2.720 -0.7127 -0.4354  0.5262
 4512SOL     MW18048   9.260   2.358   2.686  0.0687  0.0989  0.1956
 4513SOL     OW18049   7.102   8.894   9.521 -0.2877 -0.2869 -0.4092
 4513SOL    HW118050   7.163   8.879   9.593 -1.1914 -0.7131  0.2896
 4513SOL    HW218051   7.022   8.924   9.564 -0.2131  1.4261 -1.3970
 4513SOL     MW18052   7.100   8.896   9.536 -0.3939 -0.1222 -0.4462
 4514SOL     OW18053   7.673   1.945   2.362 -0.0372  0.5231  0.0246
 4514SOL    HW118054   7.739   1.899   2.415  0.4813  1.5217  0.2645
 4514SOL    HW218055   7.634   2.008   2.423 -2.2298 -0.9660  0.3003
 4514SOL     MW18056   7.676   1.947   2.377 -0.2515  0.4603  0.0906
 4515SOL     OW18057   6.084   7.626   1.366  0.0848 -0.4989  0.5099
 4515SOL    HW118058   6.103   7.612   1.458  0.3531  0.3749  0.5900
 4515SOL    HW218059   6.115   7.714   1.347  0.1498 -0.7099 -0.4482
 4515SOL     MW18060   6.090   7.635   1.375  0.1274 -0.4141  0.3975
 4516SOL     OW18061   6.312   2.922   1.434 -0.4145  0.1858 -0.2138
 4516SOL    HW118062   6.276   3.005   1.464  0.4747  0.8849 -0.9928
 4516SOL    HW218063   6.285   2.858   1.501 -1.9229  0.8999 -0.1049
 4516SOL     MW18064   6.304   2.924   1.447 -0.4937  0.3667 -0.2996
 4517SOL     OW18065   7.809   7.914   9.516  0.2811  0.7373 -0.3250
 4517SOL    HW118066   7.805   7.842   9.453 -0.9832  2.1513 -1.9553
 4517SOL    HW218067   7.902   7.923   9.536  0.7528  0.3094 -2.1369
 4517SOL     MW18068   7.821   7.906   9.511  0.1796  0.8635 -0.7656
 4518SOL     OW18069   9.067   3.016   1.174 -0.3224 -0.0117 -0.9387
 4518SOL    HW118070   9.092   2.925   1.184  0.1015  0.1642 -0.3713
 4518SOL    HW218071   9.060   3.029   1.079  0.2241 -0.4677 -1.0416
 4518SOL     MW18072   9.069   3.006   1.163 -0.1981 -0.0475 -0.8792
 4519SOL     OW18073  10.069   8.901   0.363 -0.7296  0.6594 -0.1394
 4519SOL    HW118074  10.113   8.900   0.448  0.2675  0.1342 -0.6408
 4519SOL    HW218075  10.008   8.974   0.369 -1.4737 -0.0318  1.4066
 4519SOL     MW18076  10.067   8.910   0.375 -0.6972  0.5037 -0.0057
 4520SOL     OW18077   7.867   5.742   3.038  0.4154  0.0432 -0.1512
 4520SOL    HW118078   7.913   5.768   2.958 -1.2823  0.2189 -1.1142
 4520SOL    HW218079   7.804   5.676   3.009 -0.3631  0.2511  1.0112
 4520SOL     MW18080   7.865   5.737   3.024  0.0984  0.0923 -0.1257
 4521SOL     OW18081   7.346   7.061   0.020  0.0347  0.0058 -0.1498
 4521SOL    HW118082   7.359   7.153   0.043  0.3976 -0.7001  2.9245
 4521SOL    HW218083   7.433   7.029  -0.002 -0.1063  0.3906 -1.3148
 4521SOL     MW18084   7.358   7.069   0.020  0.0631 -0.0353  0.0946
 4522SOL     OW18085   7.517   7.137   0.621  0.1280  0.1629 -0.7093
 4522SOL    HW118086   7.459   7.070   0.657  0.1494  0.8130  0.6109
 4522SOL    HW218087   7.467   7.177   0.550 -1.2897  1.0597  0.7293
 4522SOL     MW18088   7.504   7.134   0.617 -0.0508  0.3609 -0.3561
 4523SOL     OW18089   8.658   0.439   1.488  0.6111 -0.2321 -0.0694
 4523SOL    HW118090   8.655   0.517   1.543  0.3796  0.0226 -0.4436
 4523SOL    HW218091   8.583   0.448   1.429 -0.5842 -1.6640  1.1308
 4523SOL     MW18092   8.648   0.450   1.487  0.4285 -0.3828  0.0363
 4524SOL     OW18093   7.353   3.329   9.400  0.3092 -0.0431 -0.2101
 4524SOL    HW118094   7.290   3.305   9.332  0.8790  1.2049 -1.2177
 4524SOL    HW218095   7.310   3.306   9.482 -0.3944 -1.5864 -0.9648
 4524SOL     MW18096   7.340   3.323   9.402  0.2920 -0.0809 -0.4357
 4525SOL     OW18097   8.034   4.014   0.394 -0.1790 -0.8793 -0.1858
 4525SOL    HW118098   7.946   3.987   0.369 -0.7364  0.7114 -0.0629
 4525SOL    HW218099   8.041   3.994   0.487 -0.0811 -1.7848 -0.3761
 4525SOL     MW18100   8.024   4.008   0.402 -0.2378 -0.7916 -0.1944
 4526SOL     OW18101   7.826   0.288   2.095  0.0457 -0.2046 -0.4201
 4526SOL    HW118102   7.847   0.366   2.044  3.0815 -1.1180 -0.7210
 4526SOL    HW218103   7.830   0.216   2.033  1.7698 -1.0935  0.6347
 4526SOL     MW18104   7.829   0.289   2.081  0.6550 -0.4353 -0.3236
 4527SOL     OW18105   0.363   0.652   1.705  0.1827  0.2876  0.5673
 4527SOL    HW118106   0.290   0.714   1.700 -0.4730 -0.5522 -1.0993
 4527SOL    HW218107   0.351   0.608   1.789 -1.6880 -0.3155  0.0404
 4527SOL     MW18108   0.352   0.655   1.715 -0.1407  0.1029  0.2865
 4528SOL     OW18109  10.110   3.627   1.050 -0.0179  0.0880 -0.0563
 4528SOL    HW118110  10.132   3.623   0.957  1.1356  1.3433  0.1255
 4528SOL    HW218111  10.112   3.536   1.080  2.0638 -0.1312 -0.7284
 4528SOL     MW18112  10.113   3.615   1.042  0.3962  0.2207 -0.1191
 4529SOL     OW18113   9.211   1.983   2.859  0.4269 -0.4160  0.1391
 4529SOL    HW118114   9.272   2.026   2.799 -0.4987 -0.9622 -1.2519
 4529SOL    HW218115   9.139   2.045   2.868  0.7557 -0.1500  1.0712
 4529SOL     MW18116   9.210   1.997   2.852  0.3505 -0.4518  0.0804
 4530SOL     OW18117   7.864   5.793   2.487 -0.0758 -0.1403 -0.3249
 4530SOL    HW118118   7.838   5.847   2.412 -3.6426  0.9537  1.4541
 4530SOL    HW218119   7.820   5.709   2.471  0.1291 -0.3024 -0.0414
 4530SOL     MW18120   7.855   5.789   2.475 -0.5062 -0.0210 -0.0609
 4531SOL     OW18121   8.888   2.218   2.052  0.2330 -0.2441  0.4777
 4531SOL    HW118122   8.959   2.279   2.033 -0.3713  0.3164 -0.0281
 4531SOL    HW218123   8.870   2.174   1.969 -0.8528  0.5409  0.2710
 4531SOL     MW18124   8.895   2.220   2.039  0.0166 -0.0718  0.3865
 4532SOL     OW18125   7.854   4.474   2.830 -0.7867  0.0436 -0.5109
 4532SOL    HW118126   7.868   4.384   2.860 -1.8046  0.4811  1.4563
 4532SOL    HW218127   7.938   4.518   2.843 -0.9926  0.0206  1.1184
 4532SOL     MW18128   7.866   4.468   2.836 -0.9434  0.0967 -0.0505
 4533SOL     OW18129   7.485   4.570   2.427  0.2708  0.3469  0.3222
 4533SOL    HW118130   7.572   4.561   2.466 -0.4251 -0.8605  1.7032
 4533SOL    HW218131   7.454   4.656   2.455  0.2186 -0.0621  1.5648
 4533SOL     MW18132   7.492   4.580   2.436  0.1750  0.1400  0.6580
 4534SOL     OW18133   6.976   7.267   9.953  0.4057  0.0922 -0.2381
 4534SOL    HW118134   7.025   7.341   9.989  0.2556  0.0923 -0.0377
 4534SOL    HW218135   6.887   7.300   9.940  0.6416  0.3357 -1.3602
 4534SOL     MW18136   6.971   7.280   9.956  0.4167  0.1234 -0.3561
 4535SOL     OW18137   6.646   5.139   1.244 -0.0274 -0.0844 -0.1589
 4535SOL    HW118138   6.555   5.149   1.214  0.2178  0.8793 -0.5899
 4535SOL    HW218139   6.699   5.167   1.170  0.6068  0.7445  0.5855
 4535SOL     MW18140   6.641   5.144   1.231  0.0852  0.1450 -0.1188
 4536SOL     OW18141   7.985   8.381   9.950 -0.4808 -0.4818  0.5255
 4536SOL    HW118142   7.983   8.476   9.933  1.6549 -0.3965  0.4340
 4536SOL    HW218143   7.919   8.345   9.891 -1.1117  0.9317  0.3316
 4536SOL     MW18144   7.977   8.389   9.940 -0.2881 -0.2899  0.4890
 4537SOL     OW18145   0.626   9.395   0.782  0.0388  0.4083  0.3078
 4537SOL    HW118146   0.633   9.305   0.751 -0.9734 -0.2302  1.8146
 4537SOL    HW218147   0.697   9.404   0.846  0.4889  0.8792 -0.2416
 4537SOL     MW18148   0.636   9.385   0.786 -0.0331  0.3869  0.4304
 4538SOL     OW18149   6.616   1.221   1.865  0.1895 -0.1991  0.1745
 4538SOL    HW118150   6.698   1.196   1.909 -0.3285 -0.9949  0.7007
 4538SOL    HW218151   6.585   1.297   1.914  0.4558 -0.0766  0.1583
 4538SOL     MW18152   6.623   1.227   1.877  0.1573 -0.2853  0.2398
 4539SOL     OW18153   7.746   8.290   1.653 -0.2943 -0.1504 -0.5630
 4539SOL    HW118154   7.750   8.240   1.571  1.2395  0.7028 -1.0553
 4539SOL    HW218155   7.763   8.381   1.626 -1.3298  0.3834  0.5218
 4539SOL     MW18156   7.749   8.295   1.639 -0.2305  0.0271 -0.4871
 4540SOL     OW18157   6.510   6.079   1.008  0.2588 -0.4761  0.2724
 4540SOL    HW118158   6.567   6.036   1.072  0.0854 -1.0441  0.0552
 4540SOL    HW218159   6.434   6.021   1.001 -0.6571  0.5957  1.0354
 4540SOL     MW18160   6.507   6.066   1.016  0.1194 -0.4116  0.3423
 4541SOL     OW18161   8.971   9.167   1.353 -0.6190 -0.0921 -0.0307
 4541SOL    HW118162   8.960   9.261   1.340  1.9985  0.1648 -0.9594
 4541SOL    HW218163   9.006   9.160   1.442  1.6647  0.1112 -0.8596
 4541SOL     MW18164   8.974   9.178   1.363  0.0084 -0.0332 -0.2557
 4542SOL     OW18165   7.068   3.534   2.138 -0.0421 -0.1964 -0.2070
 4542SOL    HW118166   7.007   3.604   2.113 -0.2622 -0.4141 -0.2887
 4542SOL    HW218167   7.060   3.530   2.234 -1.1869 -1.1336 -0.3140
 4542SOL     MW18168   7.059   3.543   2.147 -0.2168 -0.3442 -0.2311
 4543SOL     OW18169   9.906   9.301   1.142 -0.0000 -0.0430  0.3281
 4543SOL    HW118170   9.861   9.370   1.192  0.8722  1.8306 -1.3345
 4543SOL    HW218171   9.839   9.268   1.082  0.1587  1.0180 -0.4576
 4543SOL     MW18172   9.892   9.306   1.141  0.1320  0.3327  0.0147
 4544SOL     OW18173   8.085   8.491   2.262  0.4772 -0.0055  0.2145
 4544SOL    HW118174   8.052   8.449   2.341  3.0418  0.6411  1.7294
 4544SOL    HW218175   8.178   8.506   2.279  0.8556  1.3014 -2.4433
 4544SOL     MW18176   8.092   8.487   2.274  0.8540  0.2445  0.0682
 4545SOL     OW18177  10.003   8.103   2.027  0.4620  0.3697 -0.0467
 4545SOL    HW118178   9.998   8.037   1.958  0.0027  1.0105 -0.6399
 4545SOL    HW218179   9.947   8.174   1.997  0.6907  0.8974  0.7322
 4545SOL     MW18180   9.995   8.104   2.014  0.4325  0.5193 -0.0229
 4546SOL     OW18181   8.367   8.261   1.990  0.0552  0.1347  0.0173
 4546SOL    HW118182   8.450   8.294   2.025  0.2851 -0.0079 -0.3808
 4546SOL    HW218183   8.306   8.334   2.000  0.0808  0.0508  0.8231
 4546SOL     MW18184   8.370   8.275   1.995  0.0879  0.1057  0.0695
 4547SOL     OW18185   9.986   6.680   1.523 -0.4120  0.3094 -0.4226
 4547SOL    HW118186  10.047   6.606   1.517 -2.5947 -2.1675  3.4836
 4547SOL    HW218187  10.020   6.733   1.595 -0.4101  1.5720 -1.3308
 4547SOL     MW18188   9.999   6.677   1.532 -0.6912  0.1539 -0.0388
 4548SOL     OW18189   7.914   5.239   9.487  0.7853 -0.3064 -0.7898
 4548SOL    HW118190   7.851   5.175   9.519 -1.8759  2.4869 -0.0532
 4548SOL    HW218191   7.980   5.244   9.557  1.7467 -2.9159 -1.3656
 4548SOL     MW18192   7.915   5.231   9.500  0.5677 -0.2828 -0.7692
 4549SOL     OW18193   7.679   0.459   0.115 -0.2035 -0.0094  0.2607
 4549SOL    HW118194   7.608   0.421   0.063  0.1223  0.8097 -0.8246
 4549SOL    HW218195   7.672   0.553   0.100  2.4483 -0.0140 -1.7017
 4549SOL     MW18196   7.669   0.466   0.107  0.1777  0.0949 -0.1295
 4550SOL     OW18197   8.651   9.715   2.979 -0.4568  0.1091  0.1918
 4550SOL    HW118198   8.652   9.679   2.891 -1.9841  0.1662  0.1140
 4550SOL    HW218199   8.571   9.680   3.018  0.2960 -0.0761  1.6322
 4550SOL     MW18200   8.641   9.706   2.973 -0.5560  0.0927  0.3662
 4551SOL     OW18201   8.001   6.379   9.862  0.8702 -0.2806 -0.1395
 4551SOL    HW118202   8.062   6.344   9.927  0.3929 -2.0560 -0.5828
 4551SOL    HW218203   8.039   6.357   9.778  0.2185 -0.3354 -0.4309
 4551SOL     MW18204   8.013   6.372   9.860  0.7257 -0.5149 -0.2336
 4552SOL     OW18205   8.872   8.789   8.776  0.4224  0.2176 -0.1735
 4552SOL    HW118206   8.843   8.758   8.690 -0.6989  0.7820 -0.0198
 4552SOL    HW218207   8.878   8.884   8.767  0.7469  0.2420  0.2479
 4552SOL     MW18208   8.869   8.797   8.764  0.3204  0.2930 -0.0999
 4553SOL     OW18209   7.514   1.890   1.782 -0.6544 -0.4490 -0.3810
 4553SOL    HW118210   7.596   1.842   1.791  0.0734  0.4504 -1.9359
 4553SOL    HW218211   7.447   1.828   1.811  0.4584 -1.5736 -0.1282
 4553SOL     MW18212   7.516   1.876   1.787 -0.4188 -0.4778 -0.5477
 4554SOL     OW18213   6.769   9.786   2.412  0.1227  0.3654  0.6660
 4554SOL    HW118214   6.856   9.747   2.425 -0.3798 -0.2438  2.6310
 4554SOL    HW218215   6.757   9.788   2.317  1.5748 -1.1500  0.4067
 4554SOL     MW18216   6.779   9.781   2.402  0.2443  0.0934  0.8844
 4555SOL     OW18217   9.809   4.002   0.227 -0.1956  0.0929  0.6948
 4555SOL    HW118218   9.783   3.948   0.153 -0.4540 -0.8473  1.4508
 4555SOL    HW218219   9.845   3.940   0.291  1.2458  1.0248  0.8417
 4555SOL     MW18220   9.810   3.987   0.226 -0.0442  0.0919  0.8104
 4556SOL     OW18221   6.765   9.515   2.679 -0.1379 -0.1502  0.2268
 4556SOL    HW118222   6.711   9.594   2.673 -0.7524 -0.5271  0.5696
 4556SOL    HW218223   6.735   9.460   2.607 -0.1678 -0.3313  0.3755
 4556SOL     MW18224   6.754   9.518   2.669 -0.2204 -0.2216  0.2897
 4557SOL     OW18225   8.415   4.747   2.189 -0.3181 -0.9799 -0.8162
 4557SOL    HW118226   8.495   4.745   2.136 -0.4158 -0.4691 -0.9808
 4557SOL    HW218227   8.445   4.766   2.277 -0.2246 -1.1634 -0.8061
 4557SOL     MW18228   8.429   4.749   2.193 -0.3186 -0.9380 -0.8360
 4558SOL     OW18229   7.585   7.055   2.814  0.3161  0.3336 -0.3681
 4558SOL    HW118230   7.530   6.981   2.840  0.0643  0.0586 -1.6294
 4558SOL    HW218231   7.523   7.127   2.804  0.7601  1.2747  2.6406
 4558SOL     MW18232   7.570   7.055   2.816  0.3407  0.4189 -0.1444
 4559SOL     OW18233   8.198   9.752   0.229  0.0632  0.4699 -0.1124
 4559SOL    HW118234   8.126   9.699   0.261  0.9177 -0.8265 -0.2654
 4559SOL    HW218235   8.240   9.698   0.162  2.4974  0.1888  1.4768
 4559SOL     MW18236   8.194   9.738   0.225  0.4842  0.2680  0.0715
 4560SOL     OW18237   9.614   3.204   2.060  0.0541 -0.3009 -0.6045
 4560SOL    HW118238   9.558   3.171   2.130  0.5077  1.8622  0.8812
 4560SOL    HW218239   9.556   3.260   2.008  0.0505 -0.7984 -1.1429
 4560SOL     MW18240   9.599   3.207   2.062  0.1117 -0.0877 -0.4832
 4561SOL     OW18241   9.891   5.505  10.037 -0.0785 -0.1598  0.1631
 4561SOL    HW118242   9.893   5.491  10.132 -1.9656  0.0930  0.2849
 4561SOL    HW218243   9.935   5.589  10.025  1.3844 -0.8195  0.6340
 4561SOL     MW18244   9.897   5.514  10.048 -0.1328 -0.2119  0.2390
 4562SOL     OW18245   9.811   4.714   1.482  0.1211 -0.0849  0.4461
 4562SOL    HW118246   9.887   4.681   1.531  1.2312  1.5579 -0.0667
 4562SOL    HW218247   9.771   4.636   1.444  0.7886 -1.1202  1.7862
 4562SOL     MW18248   9.816   4.700   1.483  0.3487 -0.0071  0.5520
 4563SOL     OW18249   8.916   7.950   9.000 -0.3599 -0.3321  0.2823
 4563SOL    HW118250   8.948   7.860   9.001  2.2740  0.5291  1.1663
 4563SOL    HW218251   8.989   8.001   8.966 -1.8207  1.4918 -0.2515
 4563SOL     MW18252   8.929   7.945   8.996 -0.2097  0.0116  0.3271
 4564SOL     OW18253   8.559   6.116   2.151  0.2142 -0.5880  0.1876
 4564SOL    HW118254   8.512   6.061   2.214 -0.4332 -0.5491 -0.2525
 4564SOL    HW218255   8.619   6.056   2.108 -0.0304 -0.8180  0.1640
 4564SOL     MW18256   8.561   6.101   2.154  0.1000 -0.6125  0.1283
 4565SOL     OW18257  10.093   5.049   9.797  0.5014  0.5046  0.3086
 4565SOL    HW118258  10.127   5.137   9.814 -0.5878  0.5114  3.1323
 4565SOL    HW218259  10.031   5.060   9.725 -0.2027  2.2680  1.1201
 4565SOL     MW18260  10.089   5.062   9.790  0.2719  0.7312  0.7739
 4566SOL     OW18261   7.255   1.031   9.512 -0.2763  0.0210 -0.3435
 4566SOL    HW118262   7.315   1.099   9.543 -1.3686  0.8819 -0.0862
 4566SOL    HW218263   7.206   1.005   9.590  0.2939 -1.2601 -0.3847
 4566SOL     MW18264   7.257   1.036   9.526 -0.3431 -0.0328 -0.3158
 4567SOL     OW18265  10.051   8.474   0.357 -0.0358  0.5739  0.2529
 4567SOL    HW118266  10.009   8.512   0.434 -2.3643 -0.7177 -0.2984
 4567SOL    HW218267  10.039   8.379   0.367  1.7420  0.2252 -0.5450
 4567SOL     MW18268  10.044   8.466   0.368 -0.1063  0.3640  0.0802
 4568SOL     OW18269   9.399   3.802   1.244  0.0082  0.2893 -0.2891
 4568SOL    HW118270   9.333   3.735   1.259  0.4793 -0.4661 -1.4596
 4568SOL    HW218271   9.412   3.842   1.330 -0.5804 -0.8377  0.3478
 4568SOL     MW18272   9.392   3.799   1.257 -0.0069  0.0484 -0.3574
 4569SOL     OW18273   9.175  10.132   9.714 -0.7834 -0.1037 -0.5169
 4569SOL    HW118274   9.203  10.163   9.628  0.7502 -0.7466 -0.2863
 4569SOL    HW218275   9.224  10.050   9.726  0.3136  0.8136  1.6662
 4569SOL     MW18276   9.185  10.125   9.704 -0.4466 -0.0686 -0.2079
 4570SOL     OW18277   7.688   7.517   2.101  0.1830 -0.2346 -0.1849
 4570SOL    HW118278   7.735   7.599   2.115  0.4694 -0.4610  0.2192
 4570SOL    HW218279   7.655   7.493   2.188  0.3003 -0.6642 -0.2574
 4570SOL     MW18280   7.690   7.524   2.114  0.2347 -0.3186 -0.1424
 4571SOL     OW18281   7.741   5.843   9.474 -0.2620  0.8478 -0.3334
 4571SOL    HW118282   7.654   5.807   9.492 -0.2537  0.9938  0.0068
 4571SOL    HW218283   7.724   5.931   9.440 -0.2275  1.0716  0.2291
 4571SOL     MW18284   7.728   5.849   9.472 -0.2565  0.8952 -0.2178
 4572SOL     OW18285   9.497   1.020   1.449  0.2342 -0.0125  0.0160
 4572SOL    HW118286   9.478   0.956   1.518  0.6005 -0.0681  0.0687
 4572SOL    HW218287   9.432   1.001   1.381  0.9710 -1.1349 -0.4195
 4572SOL     MW18288   9.486   1.009   1.449  0.3754 -0.1633 -0.0330
 4573SOL     OW18289   9.641   4.759  10.095 -0.3350 -0.8085 -0.0004
 4573SOL    HW118290   9.659   4.814  10.171 -0.4973 -0.6777 -0.0565
 4573SOL    HW218291   9.546   4.748  10.096 -0.1519 -2.8552  1.2479
 4573SOL     MW18292   9.631   4.765  10.105 -0.3324 -1.0537  0.1522
 4574SOL     OW18293   9.283   3.292   0.367 -0.4874 -0.2666 -0.0428
 4574SOL    HW118294   9.254   3.227   0.431  1.6425 -2.2963 -0.9892
 4574SOL    HW218295   9.234   3.271   0.288  0.9645 -1.5013 -0.6601
 4574SOL     MW18296   9.273   3.281   0.365 -0.0289 -0.6845 -0.2430
 4575SOL     OW18297   7.617   7.209   1.378  0.1386 -0.5558 -0.5306
 4575SOL    HW118298   7.713   7.208   1.384  0.1781 -0.4262 -1.0956
 4575SOL    HW218299   7.592   7.300   1.393  0.0526 -0.7196  0.3309
 4575SOL     MW18300   7.626   7.220   1.380  0.1327 -0.5602 -0.4926
 4576SOL     OW18301   0.474   1.471   1.208 -0.0686 -0.6488 -0.3414
 4576SOL    HW118302   0.483   1.518   1.126 -1.1027 -0.3836 -0.3193
 4576SOL    HW218303   0.447   1.538   1.271 -0.6581 -1.0905 -0.1090
 4576SOL     MW18304   0.472   1.485   1.206 -0.2764 -0.6714 -0.3088
 4577SOL     OW18305   7.983   0.487  10.167  0.5326  0.1014  0.1902
 4577SOL    HW118306   8.047   0.522  10.104 -0.4965  0.4679 -0.6701
 4577SOL    HW218307   7.906   0.468  10.115  0.3770 -1.6360  0.9854
 4577SOL     MW18308   7.982   0.489  10.152  0.3809 -0.0741  0.1819
 4578SOL     OW18309   6.984  10.165   9.118  0.1947  0.5499  0.7035
 4578SOL    HW118310   6.919  10.164   9.189 -2.2409  1.4333 -1.3728
 4578SOL    HW218311   6.964  10.087   9.066  3.7488 -1.7097  2.2849
 4578SOL     MW18312   6.973  10.155   9.120  0.3378  0.3737  0.6402
 4579SOL     OW18313   8.420   9.950   9.514 -0.1816  0.3947  0.0058
 4579SOL    HW118314   8.458   9.933   9.600  0.7309 -1.3735 -0.7001
 4579SOL    HW218315   8.488  10.000   9.468  0.7895 -1.5335 -0.7689
 4579SOL     MW18316   8.434   9.954   9.519  0.0595 -0.0785 -0.1838
 4580SOL     OW18317   6.915   8.329   0.336  0.1378  0.0921  0.2806
 4580SOL    HW118318   6.858   8.269   0.384  0.8342 -2.3141 -1.6372
 4580SOL    HW218319   6.859   8.367   0.268  0.5380 -1.8199 -1.2271
 4580SOL     MW18320   6.901   8.326   0.333  0.2781 -0.4607 -0.1579
 4581SOL     OW18321   7.005   8.033   2.400  0.3249  0.8431  0.6300
 4581SOL    HW118322   6.932   7.979   2.370 -0.5902  2.0157  0.6693
 4581SOL    HW218323   7.048   7.981   2.467  1.3112 -1.0855 -1.3906
 4581SOL     MW18324   7.001   8.020   2.404  0.3340  0.7463  0.3764
 4582SOL     OW18325   8.566   1.814   9.643 -0.0783  0.2833  0.1288
 4582SOL    HW118326   8.648   1.859   9.662  1.0181 -1.2715 -0.7056
 4582SOL    HW218327   8.520   1.872   9.582  0.7630  0.7959 -0.0301
 4582SOL     MW18328   8.570   1.827   9.638  0.1698  0.1499  0.0016
 4583SOL     OW18329   8.764   0.666   0.701  0.4371 -0.6458 -0.6215
 4583SOL    HW118330   8.787   0.746   0.748 -0.9053 -0.4427 -0.2629
 4583SOL    HW218331   8.688   0.631   0.749 -0.0451 -1.2254 -1.7614
 4583SOL     MW18332   8.757   0.672   0.713  0.2035 -0.6940 -0.7215
 4584SOL     OW18333  10.180   5.970   1.244 -0.0249 -0.0721 -0.3034
 4584SOL    HW118334  10.191   5.880   1.211  2.8006  0.3967 -0.9213
 4584SOL    HW218335  10.085   5.980   1.254 -0.4068 -3.5400  1.0866
 4584SOL     MW18336  10.169   5.960   1.241  0.2879 -0.4561 -0.2046
 4585SOL     OW18337   6.055   8.981   0.619  0.4309 -0.4054  0.0161
 4585SOL    HW118338   6.020   9.033   0.692  1.8879 -0.3929  0.7537
 4585SOL    HW218339   6.053   8.891   0.651 -0.1454 -0.5640 -0.4515
 4585SOL     MW18340   6.050   8.976   0.633  0.5437 -0.4241  0.0506
 4586SOL     OW18341   7.287   7.326   9.587 -0.2058  0.3752  0.4202
 4586SOL    HW118342   7.326   7.265   9.650 -1.1205 -1.1202 -0.4198
 4586SOL    HW218343   7.262   7.272   9.513 -2.1832  1.5540  0.1542
 4586SOL     MW18344   7.289   7.311   9.586 -0.5760  0.3347  0.2786
 4587SOL     OW18345   6.991   4.899   1.780 -0.2248 -0.5550 -0.2023
 4587SOL    HW118346   7.011   4.991   1.765 -1.0438 -0.3214  0.1174
 4587SOL    HW218347   6.991   4.889   1.876  1.3792 -1.2393 -0.2350
 4587SOL     MW18348   6.994   4.909   1.791 -0.1243 -0.6127 -0.1656
 4588SOL     OW18349   7.887   9.139   0.560 -1.0412 -0.3842 -0.1858
 4588SOL    HW118350   7.855   9.210   0.615  1.1881 -0.8653  1.8810
 4588SOL    HW218351   7.809   9.086   0.542 -1.9573  0.0318  2.1647
 4588SOL     MW18352   7.873   9.141   0.565 -0.8731 -0.3925  0.3797
 4589SOL     OW18353   8.467   9.115   9.075 -0.0808  0.0706 -0.3644
 4589SOL    HW118354   8.495   9.204   9.097 -0.3840  0.7135 -2.3857
 4589SOL    HW218355   8.504   9.099   8.988 -1.0641 -1.3092 -0.5613
 4589SOL     MW18356   8.475   9.124   9.067 -0.2455 -0.0237 -0.6483
 4590SOL     OW18357   9.035   7.367   9.531  0.2950 -0.6886  0.5606
 4590SOL    HW118358   9.042   7.278   9.564 -1.1346 -1.1745 -0.3645
 4590SOL    HW218359   9.024   7.357   9.436 -2.6173  0.2500  0.6835
 4590SOL     MW18360   9.034   7.355   9.523 -0.2608 -0.6306  0.4579
 4591SOL     OW18361   8.841   1.393   2.167  0.0953  0.6938 -0.2772
 4591SOL    HW118362   8.834   1.486   2.187  2.0745  0.8002  0.0889
 4591SOL    HW218363   8.864   1.352   2.250 -1.0406 -0.2010 -0.3650
 4591SOL     MW18364   8.843   1.400   2.180  0.2032  0.5929 -0.2416
 4592SOL     OW18365   7.434   6.049   2.410  0.7626  0.8023 -0.0345
 4592SOL    HW118366   7.405   6.131   2.448 -1.3221 -0.1291  0.5080
 4592SOL    HW218367   7.491   6.010   2.476  1.0709  1.4201  0.0623
 4592SOL     MW18368   7.438   6.054   2.423  0.5352  0.7622  0.0473
 4593SOL     OW18369   7.653   1.612   2.560 -0.4814  0.3394 -0.1132
 4593SOL    HW118370   7.729   1.651   2.603  0.7549 -0.6717 -1.2973
 4593SOL    HW218371   7.670   1.518   2.563 -1.3817  0.1348 -0.9577
 4593SOL     MW18372   7.665   1.605   2.566 -0.4384  0.1838 -0.3729
 4594SOL     OW18373   0.037   4.732   1.004 -0.1119  0.2795  0.4018
 4594SOL    HW118374  -0.056   4.742   1.024 -0.4020  0.5682 -0.9767
 4594SOL    HW218375   0.053   4.793   0.932  0.7928 -0.7883 -0.3522
 4594SOL     MW18376   0.027   4.741   0.997 -0.0332  0.1798  0.1288
 4595SOL     OW18377   7.887   4.546   1.373 -0.5136  0.1060  0.2947
 4595SOL    HW118378   7.848   4.459   1.381 -0.9360  0.4068  1.7681
 4595SOL    HW218379   7.839   4.600   1.436  1.2839  0.8492  1.0978
 4595SOL     MW18380   7.876   4.542   1.382 -0.3376  0.2396  0.5861
 4596SOL     OW18381   8.904   7.688  10.070 -0.0517  0.5667 -0.5449
 4596SOL    HW118382   8.834   7.727  10.018 -0.2287 -0.3785 -1.0280
 4596SOL    HW218383   8.886   7.595  10.069  0.3862  0.4498  0.5673
 4596SOL     MW18384   8.893   7.681  10.063 -0.0183  0.4308 -0.4644
 4597SOL     OW18385   7.980   3.640   0.462 -0.2421 -0.3956 -0.1107
 4597SOL    HW118386   8.054   3.644   0.524 -0.4407  0.8536  0.0758
 4597SOL    HW218387   7.905   3.672   0.513 -0.5518 -0.0307 -0.7859
 4597SOL     MW18388   7.980   3.645   0.477 -0.3072 -0.1890 -0.1733
 4598SOL     OW18389   6.599   8.875   2.305  0.2025  0.5257  0.2230
 4598SOL    HW118390   6.554   8.840   2.382  0.1863  1.1697  0.5157
 4598SOL    HW218391   6.687   8.837   2.309  0.2242  0.6140  0.5969
 4598SOL     MW18392   6.605   8.866   2.315  0.2032  0.6195  0.3084
 4599SOL     OW18393   0.013   9.772  10.021  0.4358  0.1880 -0.1516
 4599SOL    HW118394   0.028   9.738  10.110  0.4912  3.0310  1.0330
 4599SOL    HW218395   0.068   9.717   9.965  0.8934 -1.2963  1.6384
 4599SOL     MW18396   0.022   9.760  10.026  0.5015  0.3619  0.2292
 4600SOL     OW18397   9.577   8.215   2.147  0.2953  0.0396 -0.0847
 4600SOL    HW118398   9.600   8.175   2.231  1.1030 -0.2721 -0.4401
 4600SOL    HW218399   9.659   8.251   2.114  0.0511 -0.0997 -0.8743
 4600SOL     MW18400   9.591   8.214   2.153  0.3674 -0.0181 -0.2312
 4601SOL     OW18401   7.647   0.902   9.345  0.6217 -0.1261 -0.2295
 4601SOL    HW118402   7.597   0.974   9.308 -0.6473 -0.2001  1.2069
 4601SOL    HW218403   7.654   0.838   9.274 -1.6840 -0.2647 -0.3981
 4601SOL     MW18404   7.641   0.903   9.331  0.1641 -0.1533 -0.0672
 4602SOL     OW18405   6.847   1.423   1.959 -0.1814 -0.0728 -0.2557
 4602SOL    HW118406   6.800   1.419   2.043  0.3822  1.4796  0.1739
 4602SOL    HW218407   6.778   1.414   1.893 -0.5545 -2.0756  0.3340
 4602SOL     MW18408   6.832   1.421   1.962 -0.1570 -0.1304 -0.1252
 4603SOL     OW18409   8.789   8.861   0.999 -0.6148  0.2605  0.4538
 4603SOL    HW118410   8.826   8.927   0.940  0.9844  1.3446  2.5657
 4603SOL    HW218411   8.859   8.796   1.008 -2.1811 -1.8860 -1.6350
 4603SOL     MW18412   8.803   8.861   0.992 -0.6106  0.1245  0.4568
 4604SOL     OW18413   6.415   1.758   1.468 -0.0602  0.2767  0.1276
 4604SOL    HW118414   6.412   1.678   1.519 -0.7136 -1.6516 -2.7046
 4604SOL    HW218415   6.372   1.823   1.523 -1.0521 -1.7218  1.8535
 4604SOL     MW18416   6.409   1.756   1.481 -0.2709 -0.2260 -0.0141
 4605SOL     OW18417   0.134   8.069   2.033  0.0837 -0.2484  0.5585
 4605SOL    HW118418   0.181   8.008   2.090 -0.5647 -0.3020  1.0413
 4605SOL    HW218419   0.046   8.074   2.070 -0.0647  0.4648  0.1270
 4605SOL     MW18420   0.129   8.062   2.045 -0.0183 -0.1640  0.5651
 4606SOL     OW18421   6.761   7.983   1.933 -0.3715 -0.6692  0.5114
 4606SOL    HW118422   6.672   8.007   1.959  0.1806  0.2426  1.6378
 4606SOL    HW218423   6.751   7.949   1.844 -1.6314  1.0533 -0.0603
 4606SOL     MW18424   6.748   7.982   1.925 -0.4621 -0.3320  0.5824
 4607SOL     OW18425   9.899   0.988   0.201 -0.1484  0.0733 -0.0617
 4607SOL    HW118426   9.840   0.960   0.271 -1.2839 -0.3898 -1.1717
 4607SOL    HW218427   9.987   0.980   0.239 -0.7380 -0.0852  1.3222
 4607SOL     MW18428   9.903   0.983   0.215 -0.3692 -0.0063 -0.0267
 4608SOL     OW18429   9.608   6.884   1.357 -0.2118  0.2638  0.5203
 4608SOL    HW118430   9.660   6.957   1.323  1.5782 -0.5115  1.4579
 4608SOL    HW218431   9.615   6.816   1.291 -1.3603  0.6625 -0.0566
 4608SOL     MW18432   9.615   6.885   1.344 -0.1297  0.2156  0.5665
 4609SOL     OW18433   9.216   0.740   1.314 -0.0259  0.3738  0.5271
 4609SOL    HW118434   9.145   0.743   1.250 -0.1706  1.6200  0.7190
 4609SOL    HW218435   9.258   0.655   1.299 -0.3044  0.4617 -0.9593
 4609SOL     MW18436   9.212   0.730   1.304 -0.0800  0.5445  0.3614
 4610SOL     OW18437   7.538   5.342   1.595 -0.0342 -0.4135 -0.8789
 4610SOL    HW118438   7.593   5.264   1.605 -0.3377 -0.5388 -0.1855
 4610SOL    HW218439   7.485   5.323   1.517 -1.0378 -1.4669  0.0294
 4610SOL     MW18440   7.538   5.329   1.586 -0.2015 -0.5644 -0.6739
 4611SOL     OW18441   8.867   2.928   0.339  0.4277 -0.2082  0.1193
 4611SOL    HW118442   8.885   2.842   0.377 -0.7907 -0.1768  0.8356
 4611SOL    HW218443   8.783   2.917   0.295  1.2238  0.0994 -1.5394
 4611SOL     MW18444   8.858   2.915   0.338  0.3736 -0.1648 -0.0013
 4612SOL     OW18445   8.991   0.480   2.784 -0.3090  0.1185  0.1269
 4612SOL    HW118446   9.019   0.399   2.826  0.3344 -0.9728 -2.2554
 4612SOL    HW218447   9.046   0.487   2.706  0.7543  3.6784  1.0134
 4612SOL     MW18448   9.002   0.471   2.779 -0.0906  0.4345 -0.0646
 4613SOL     OW18449   8.311   8.555   9.812 -0.1583 -0.3912  0.2253
 4613SOL    HW118450   8.221   8.566   9.843 -0.1450 -1.3335  0.6440
 4613SOL    HW218451   8.356   8.513   9.885  0.3439 -0.9586 -0.4030
 4613SOL     MW18452   8.305   8.551   9.825 -0.0923 -0.5844  0.1985
 4614SOL     OW18453   7.918   1.480   0.917  0.3462  0.0663  0.5617
 4614SOL    HW118454   7.978   1.517   0.853  0.3433 -1.9420 -0.6991
 4614SOL    HW218455   7.973   1.429   0.976  0.3477  1.8969  2.2400
 4614SOL     MW18456   7.932   1.478   0.917  0.3461  0.0435  0.6152
 4615SOL     OW18457   6.560   5.133   0.161  0.1936 -0.1338  0.2720
 4615SOL    HW118458   6.516   5.077   0.225 -0.1639  2.1493  2.1609
 4615SOL    HW218459   6.497   5.202   0.142  2.1107  2.0492  1.4075
 4615SOL     MW18460   6.546   5.134   0.166  0.3933  0.4379  0.6592
 4616SOL     OW18461   9.411   5.765   0.104  0.3375  0.6346  0.2830
 4616SOL    HW118462   9.377   5.855   0.107 -1.2029  0.0522  1.2094
 4616SOL    HW218463   9.479   5.763   0.172  0.1041  0.9908  0.5296
 4616SOL     MW18464   9.415   5.776   0.113  0.1105  0.6056  0.4331
 4617SOL     OW18465   7.108   8.548   0.385 -0.4293  0.2066  0.1607
 4617SOL    HW118466   7.121   8.551   0.290 -0.1768  0.0032  0.1866
 4617SOL    HW218467   7.035   8.488   0.397  0.7608 -1.3021  0.1926
 4617SOL     MW18468   7.100   8.541   0.374 -0.2446 -0.0125  0.1681
 4618SOL     OW18469   7.265   5.147   0.826 -0.1279 -0.4712 -0.3600
 4618SOL    HW118470   7.319   5.226   0.830 -0.2693 -0.4232  1.4028
 4618SOL    HW218471   7.210   5.159   0.749 -0.1481  1.1694 -0.1196
 4618SOL     MW18472   7.265   5.159   0.817 -0.1486 -0.2550 -0.1036
 4619SOL     OW18473   7.066   5.880   0.429  0.2063 -0.4809  0.6906
 4619SOL    HW118474   6.990   5.934   0.451  0.9795  0.4757  1.0631
 4619SOL    HW218475   7.141   5.937   0.443  1.0987 -1.8596  1.7997
 4619SOL     MW18476   7.066   5.894   0.434  0.4195 -0.5350  0.8803
 4620SOL     OW18477   6.406   9.834   1.869  0.0604  0.1832 -0.5652
 4620SOL    HW118478   6.466   9.762   1.887  0.2108  0.2192 -0.9080
 4620SOL    HW218479   6.323   9.791   1.846 -0.0715  0.1352 -0.0124
 4620SOL     MW18480   6.403   9.819   1.868  0.0628  0.1816 -0.5383
 4621SOL     OW18481   8.608   9.183   9.879 -0.2509 -0.0697 -0.5517
 4621SOL    HW118482   8.636   9.141   9.961  1.1585  1.3877 -0.2308
 4621SOL    HW218483   8.514   9.170   9.876 -0.2239 -0.8157  0.9312
 4621SOL     MW18484   8.600   9.176   9.889 -0.0671  0.0213 -0.3208
 4622SOL     OW18485   9.238   2.781   2.958  0.8763  0.2794  0.3918
 4622SOL    HW118486   9.271   2.692   2.961  0.4016  0.0422 -0.9945
 4622SOL    HW218487   9.313   2.834   2.930  0.3152 -0.1759 -2.1584
 4622SOL     MW18488   9.252   2.777   2.955  0.7437  0.1907 -0.1121
 4623SOL     OW18489   6.350   4.642   1.786 -0.3338 -0.2706  0.3106
 4623SOL    HW118490   6.296   4.576   1.744  1.4286 -0.5647 -1.6704
 4623SOL    HW218491   6.328   4.724   1.741  0.0721 -0.1934  0.2473
 4623SOL     MW18492   6.341   4.644   1.775 -0.0562 -0.2984  0.0489
 4624SOL     OW18493   6.021   5.290   1.000 -0.6329  0.0603 -0.4868
 4624SOL    HW118494   6.053   5.239   0.926 -0.5509 -0.1880 -0.2814
 4624SOL    HW218495   6.056   5.378   0.986  0.6723 -0.3506  0.0679
 4624SOL     MW18496   6.029   5.294   0.989 -0.4554 -0.0241 -0.3895
 4625SOL     OW18497   7.936   6.406   0.832 -0.3189  0.1599 -0.6268
 4625SOL    HW118498   7.965   6.345   0.900  0.4644  0.3130 -0.8130
 4625SOL    HW218499   7.867   6.458   0.873 -0.2359 -0.1246 -0.1284
 4625SOL     MW18500   7.931   6.405   0.846 -0.2080  0.1431 -0.5869
 4626SOL     OW18501   6.595   0.018   0.499 -0.3113 -0.2544  0.0677
 4626SOL    HW118502   6.544   0.082   0.449 -1.5976 -1.1029  0.2431
 4626SOL    HW218503   6.620   0.064   0.579  0.8210  0.7616 -0.8331
 4626SOL     MW18504   6.591   0.032   0.503 -0.3310 -0.2330 -0.0251
 4627SOL     OW18505   8.358   0.632   0.758  0.4157  0.3540  0.2109
 4627SOL    HW118506   8.355   0.587   0.674 -0.8592 -0.6055  0.7394
 4627SOL    HW218507   8.294   0.586   0.812  2.0280  0.1902  2.0830
 4627SOL     MW18508   8.350   0.621   0.754  0.4589  0.2102  0.5182
 4628SOL     OW18509   6.381   8.677   1.514  0.3776  0.3031  0.3720
 4628SOL    HW118510   6.302   8.645   1.471  1.5512 -2.8512  0.3100
 4628SOL    HW218511   6.433   8.714   1.443 -0.0773  0.3133  0.0365
 4628SOL     MW18512   6.377   8.677   1.500  0.4696 -0.0994  0.3211
 4629SOL     OW18513  -0.013   3.634   0.771 -0.4480 -0.3935  1.1443
 4629SOL    HW118514  -0.041   3.713   0.724 -0.6263 -0.6104  0.8815
 4629SOL    HW218515   0.078   3.650   0.792  0.1100 -0.9291 -0.6643
 4629SOL     MW18516  -0.005   3.646   0.768 -0.3994 -0.4898  0.8791
 4630SOL     OW18517   8.757   8.188  10.143 -0.2363 -0.4870 -0.8093
 4630SOL    HW118518   8.759   8.105  10.190 -0.2331 -0.8563 -1.4534
 4630SOL    HW218519   8.678   8.184  10.090  0.6736 -0.8307 -2.1805
 4630SOL     MW18520   8.747   8.177  10.143 -0.1194 -0.5782 -1.0673
 4631SOL     OW18521   7.778   5.151   0.537  0.1570  0.0534 -0.5471
 4631SOL    HW118522   7.685   5.144   0.518 -0.5332 -2.0231  2.6512
 4631SOL    HW218523   7.782   5.194   0.623  1.8337 -2.2256  0.6579
 4631SOL     MW18524   7.767   5.156   0.546  0.2833 -0.5042  0.0166
 4632SOL     OW18525   9.954   9.135   9.559  0.1758  0.1787  0.8476
 4632SOL    HW118526   9.893   9.097   9.495  0.6734  0.1669  0.3782
 4632SOL    HW218527  10.007   9.061   9.588  1.4115  0.5612 -0.3620
 4632SOL     MW18528   9.953   9.121   9.554  0.3976  0.2262  0.6327
 4633SOL     OW18529   7.091   8.561   2.211  0.1286 -0.3248  0.0935
 4633SOL    HW118530   7.045   8.533   2.132 -1.0432  1.4003  0.1139
 4633SOL    HW218531   7.134   8.643   2.186 -0.5989  0.4678  1.3069
 4633SOL     MW18532   7.091   8.568   2.197 -0.1145 -0.0025  0.2514
 4634SOL     OW18533   8.506   1.089   9.762 -0.6573 -0.0766 -0.2770
 4634SOL    HW118534   8.535   1.002   9.736 -0.0853  0.4134 -1.3391
 4634SOL    HW218535   8.455   1.120   9.688 -1.5564  0.1731  0.4381
 4634SOL     MW18536   8.503   1.082   9.749 -0.6991  0.0181 -0.3214
 4635SOL     OW18537   9.192   2.265   1.175 -0.1083 -0.0580 -0.4838
 4635SOL    HW118538   9.125   2.324   1.208  1.3120  1.6398 -0.4992
 4635SOL    HW218539   9.275   2.302   1.205  0.8844 -1.8281 -0.8493
 4635SOL     MW18540   9.194   2.277   1.183  0.2006 -0.0673 -0.5326
 4636SOL     OW18541  10.082   1.837   0.425 -0.0513  1.0052  0.0371
 4636SOL    HW118542  10.152   1.888   0.385 -0.6401  0.7571 -1.3776
 4636SOL    HW218543  10.066   1.765   0.364 -0.0323 -0.2267  1.4232
 4636SOL     MW18544  10.089   1.835   0.412 -0.1242  0.8158  0.0334
 4637SOL     OW18545   8.071   4.242   1.373  0.4349  0.2985 -0.1003
 4637SOL    HW118546   8.067   4.288   1.290  0.7910  1.8052  0.6726
 4637SOL    HW218547   7.987   4.261   1.416  0.1736 -0.6229 -0.1775
 4637SOL     MW18548   8.060   4.251   1.368  0.4470  0.3734 -0.0112
 4638SOL     OW18549   7.943   9.352   1.370 -0.0643 -0.2035  0.3871
 4638SOL    HW118550   8.012   9.349   1.304 -0.5199 -0.1778 -0.0963
 4638SOL    HW218551   7.908   9.441   1.365 -0.5266 -0.3882  0.2096
 4638SOL     MW18552   7.947   9.363   1.361 -0.1818 -0.2238  0.3025
 4639SOL     OW18553   6.843   6.695   2.420 -0.2528 -0.2293  0.3928
 4639SOL    HW118554   6.850   6.618   2.477 -2.5654 -0.7062  0.1585
 4639SOL    HW218555   6.922   6.745   2.437  0.9572 -2.2605  1.1475
 4639SOL     MW18556   6.854   6.691   2.430 -0.3939 -0.5504  0.4594
 4640SOL     OW18557   9.413   4.681   2.369 -0.3027  0.6151 -0.0137
 4640SOL    HW118558   9.469   4.620   2.419 -0.0610  0.5308 -0.3826
 4640SOL    HW218559   9.331   4.683   2.418 -0.3524 -0.0940 -0.0524
 4640SOL     MW18560   9.410   4.673   2.382 -0.2781  0.5136 -0.0659
 4641SOL     OW18561   7.034   1.414   0.691 -0.1903  0.1418  0.0670
 4641SOL    HW118562   7.121   1.413   0.651 -0.7570 -0.9443 -1.1951
 4641SOL    HW218563   6.974   1.433   0.618 -1.1411 -0.6242  0.6271
 4641SOL     MW18564   7.037   1.417   0.676 -0.3845 -0.0953 -0.0228
 4642SOL     OW18565   8.230  10.045   1.299 -0.0980  0.3211 -0.1140
 4642SOL    HW118566   8.216   9.968   1.244  0.9665  0.7600 -1.0362
 4642SOL    HW218567   8.208  10.016   1.387  0.2862 -1.0413 -0.4450
 4642SOL     MW18568   8.225  10.031   1.303  0.0874  0.2029 -0.2744
 4643SOL     OW18569   8.908   3.249   0.514  0.5379 -0.6561  0.0227
 4643SOL    HW118570   8.925   3.343   0.522  0.2994 -0.4951 -1.1021
 4643SOL    HW218571   8.846   3.229   0.584 -0.1296  0.2243 -0.2998
 4643SOL     MW18572   8.902   3.259   0.524  0.4220 -0.5228 -0.1626
 4644SOL     OW18573   9.221   4.050   0.426 -0.0572 -0.4686 -0.2064
 4644SOL    HW118574   9.245   4.011   0.342 -0.9791  0.4033 -0.8992
 4644SOL    HW218575   9.283   4.121   0.439 -0.3315 -0.1680 -0.5010
 4644SOL     MW18576   9.232   4.054   0.417 -0.2104 -0.3185 -0.3328
 4645SOL     OW18577   8.476   7.474   2.108  0.3191 -0.3346 -0.1138
 4645SOL    HW118578   8.404   7.411   2.108 -0.9568  1.0656 -0.5518
 4645SOL    HW218579   8.454   7.536   2.178  1.7896 -0.6041  0.6254
 4645SOL     MW18580   8.464   7.474   2.117  0.3440 -0.1898 -0.0753
 4646SOL     OW18581   8.752   1.366   9.893 -0.1551  0.0428  0.4645
 4646SOL    HW118582   8.733   1.458   9.911  1.6797  0.8414 -1.2255
 4646SOL    HW218583   8.836   1.350   9.934  1.9934  0.6826 -3.2557
 4646SOL     MW18584   8.760   1.376   9.900  0.3549  0.2269 -0.2281
 4647SOL     OW18585   8.471   9.094   0.795 -0.1352  0.4836  0.2990
 4647SOL    HW118586   8.485   9.136   0.710  1.0248  0.2736  0.3720
 4647SOL    HW218587   8.412   9.153   0.841 -1.7116  0.0425 -1.0545
 4647SOL     MW18588   8.465   9.107   0.790 -0.1885  0.4003  0.1351
 4648SOL     OW18589   8.923   1.266   9.195 -0.3729 -0.2538 -0.5418
 4648SOL    HW118590   8.982   1.339   9.176  0.0668 -0.0685  1.3131
 4648SOL    HW218591   8.877   1.250   9.113 -0.2567  1.9115 -1.0868
 4648SOL     MW18592   8.924   1.273   9.182 -0.3018  0.0471 -0.3741
 4649SOL     OW18593   7.309   5.674   0.764 -0.4931  0.2698  0.0792
 4649SOL    HW118594   7.220   5.681   0.729 -0.3776  0.0897 -0.2516
 4649SOL    HW218595   7.341   5.764   0.769 -1.1747  0.4767  1.4629
 4649SOL     MW18596   7.301   5.686   0.760 -0.5656  0.2732  0.2140
 4650SOL     OW18597   7.067   3.105   2.348  0.0986  0.0669 -0.3966
 4650SOL    HW118598   7.001   3.099   2.280  0.3800 -0.6463 -0.6187
 4650SOL    HW218599   7.147   3.072   2.307  0.2189 -0.5819  0.3321
 4650SOL     MW18600   7.069   3.100   2.334  0.1501 -0.1074 -0.3317
 4651SOL     OW18601   9.998   2.691   2.753 -0.3083  0.7538 -0.1206
 4651SOL    HW118602  10.065   2.624   2.741 -1.0707 -0.3003  1.1185
 4651SOL    HW218603  10.024   2.763   2.696  1.5452  0.1469 -0.1017
 4651SOL     MW18604  10.010   2.692   2.744 -0.1686  0.5412  0.0404
 4652SOL     OW18605   7.399   6.776   9.489 -0.0799 -0.1932 -0.1590
 4652SOL    HW118606   7.309   6.810   9.495 -0.3372 -0.4892 -1.7857
 4652SOL    HW218607   7.389   6.681   9.485  0.2458 -0.2032 -0.9664
 4652SOL     MW18608   7.386   6.768   9.489 -0.0711 -0.2324 -0.4706
 4653SOL     OW18609   9.305   2.959   0.373 -0.1334 -0.0999 -0.3445
 4653SOL    HW118610   9.278   3.011   0.298  0.4636 -1.7352 -1.7673
 4653SOL    HW218611   9.264   3.002   0.448  1.5426  3.2606 -1.1759
 4653SOL     MW18612   9.296   2.971   0.373  0.1575  0.1209 -0.6331
 4654SOL     OW18613   9.647   3.880   2.024  0.6351 -0.2226 -0.0206
 4654SOL    HW118614   9.654   3.789   1.994  1.0840  0.2212 -1.2888
 4654SOL    HW218615   9.630   3.930   1.945  2.0755  1.0148  0.4221
 4654SOL     MW18616   9.646   3.875   2.010  0.8770 -0.0074 -0.1263
 4655SOL     OW18617   7.609   3.763   1.700  0.2190  0.7862 -0.5336
 4655SOL    HW118618   7.596   3.849   1.742 -1.0958  1.6051 -2.4987
 4655SOL    HW218619   7.659   3.783   1.621 -0.5649 -0.1647 -1.2902
 4655SOL     MW18620   7.614   3.777   1.695 -0.0497  0.7693 -0.8820
 4656SOL     OW18621   7.655   5.484  10.074  0.3125  0.3563 -0.1617
 4656SOL    HW118622   7.595   5.555  10.050  0.8494 -0.2840 -4.0401
 4656SOL    HW218623   7.732   5.528  10.109 -0.9062  1.3781  1.3855
 4656SOL     MW18624   7.657   5.499  10.076  0.2252  0.4051 -0.4601
 4657SOL     OW18625   8.167  10.005   0.198 -0.0368  0.1858  0.0482
 4657SOL    HW118626   8.175   9.910   0.188 -0.4080 -0.0302  1.6279
 4657SOL    HW218627   8.081  10.026   0.163 -0.0452 -0.0868 -0.0935
 4657SOL     MW18628   8.157   9.996   0.192 -0.0854  0.1232  0.2322
 4658SOL     OW18629   9.310   1.612   0.286 -0.6525 -0.2496 -0.4308
 4658SOL    HW118630   9.394   1.657   0.278 -1.0189  0.3372 -1.0777
 4658SOL    HW218631   9.319   1.556   0.364  0.3538 -0.2474 -0.5442
 4658SOL     MW18632   9.322   1.610   0.295 -0.5706 -0.1742 -0.5281
 4659SOL     OW18633   6.973   3.413   0.497 -0.1430  0.1508 -0.0369
 4659SOL    HW118634   7.029   3.456   0.561  2.3285 -3.0472  0.1967
 4659SOL    HW218635   6.897   3.384   0.547  0.1333  0.6260  0.6675
 4659SOL     MW18636   6.970   3.415   0.511  0.2087 -0.1978  0.0832
 4660SOL     OW18637   7.847   3.707   8.853 -0.0760  0.3180 -0.5408
 4660SOL    HW118638   7.902   3.750   8.788 -0.9148  1.6516 -0.4043
 4660SOL    HW218639   7.853   3.763   8.931 -0.9894  0.0437 -0.2612
 4660SOL     MW18640   7.855   3.720   8.855 -0.3003  0.4536 -0.4876
 4661SOL     OW18641   9.009   0.882   0.178 -0.5106 -0.7495 -0.4047
 4661SOL    HW118642   8.951   0.807   0.168 -0.6536 -0.4583 -1.9979
 4661SOL    HW218643   9.090   0.845   0.215 -0.4047 -1.7914 -1.6001
 4661SOL     MW18644   9.012   0.867   0.181 -0.5154 -0.8456 -0.7617
 4662SOL     OW18645   5.972   7.200   1.227 -0.4467 -0.1248  0.3664
 4662SOL    HW118646   6.023   7.270   1.187 -2.0951  0.7087 -0.3712
 4662SOL    HW218647   5.940   7.148   1.153  0.8956 -1.8196  0.9023
 4662SOL     MW18648   5.974   7.202   1.212 -0.4859 -0.2350  0.3406
 4663SOL     OW18649   6.531   0.617   9.670 -0.3065 -0.2090 -0.4138
 4663SOL    HW118650   6.448   0.660   9.647  0.0803  0.1869 -1.1126
 4663SOL    HW218651   6.598   0.672   9.629  0.3026 -0.5595  0.0957
 4663SOL     MW18652   6.529   0.630   9.662 -0.1790 -0.2032 -0.4380
 4664SOL     OW18653   9.150   5.048   0.729 -0.1250  0.3073  0.2008
 4664SOL    HW118654   9.235   5.067   0.769 -0.5181  0.1276  1.1390
 4664SOL    HW218655   9.095   5.019   0.802 -0.6898 -0.5885 -0.5626
 4664SOL     MW18656   9.154   5.047   0.743 -0.2476  0.1696  0.2232
 4665SOL     OW18657   7.614   7.970   1.629  0.4617  0.4198 -0.2410
 4665SOL    HW118658   7.533   7.986   1.678  0.2389 -3.6587  1.1434
 4665SOL    HW218659   7.676   7.938   1.696  2.2314  0.6025 -1.7252
 4665SOL     MW18660   7.611   7.968   1.644  0.6597 -0.0789 -0.2538
 4666SOL     OW18661   7.391   8.160   1.174 -0.3384  0.1237 -0.5032
 4666SOL    HW118662   7.450   8.231   1.199  0.3911 -0.9892  1.1202
 4666SOL    HW218663   7.449   8.086   1.156 -1.1606 -1.4355  2.5303
 4666SOL     MW18664   7.406   8.159   1.175 -0.3503 -0.2184  0.0930
 4667SOL     OW18665   9.065   4.281   0.398  0.3053 -0.2391  0.6729
 4667SOL    HW118666   8.976   4.249   0.387  0.5866 -0.8181 -0.0607
 4667SOL    HW218667   9.115   4.203   0.424  0.4926  0.2019  1.6597
 4667SOL     MW18668   9.060   4.267   0.400  0.3653 -0.2568  0.7053
 4668SOL     OW18669   7.276   7.448   2.860  0.7203  0.1050  0.1008
 4668SOL    HW118670   7.194   7.400   2.845  1.1666 -0.6951  0.1922
 4668SOL    HW218671   7.273   7.472   2.953  2.3930 -3.4618  1.2255
 4668SOL     MW18672   7.265   7.445   2.870  0.9916 -0.4541  0.2565
 4669SOL     OW18673   7.076   8.425   1.343  0.4416 -0.3981  0.3342
 4669SOL    HW118674   7.154   8.479   1.358  1.4404 -1.9256  0.8863
 4669SOL    HW218675   7.091   8.383   1.258 -0.3243  0.1408 -0.0871
 4669SOL     MW18676   7.088   8.427   1.334  0.4714 -0.5246  0.3509
 4670SOL     OW18677   9.616   1.312   1.116  0.1194 -0.4892 -0.2880
 4670SOL    HW118678   9.561   1.291   1.040 -0.1291 -0.8280 -0.0209
 4670SOL    HW218679   9.684   1.246   1.115  0.6404  0.0457 -0.7277
 4670SOL     MW18680   9.617   1.301   1.106  0.1543 -0.4641 -0.3101
 4671SOL     OW18681   9.765   2.638   9.732 -0.0433 -0.3000  0.0151
 4671SOL    HW118682   9.713   2.665   9.657  0.5750 -1.6586 -0.9486
 4671SOL    HW218683   9.701   2.606   9.796 -0.5091 -0.2079 -0.3980
 4671SOL     MW18684   9.750   2.638   9.731 -0.0238 -0.4621 -0.1611
 4672SOL     OW18685   8.633   5.417   1.297  0.2267  0.3075 -0.2467
 4672SOL    HW118686   8.661   5.327   1.278  0.4123  0.1146  0.8601
 4672SOL    HW218687   8.714   5.465   1.309  0.1185  0.4654 -0.1513
 4672SOL     MW18688   8.647   5.411   1.296  0.2366  0.3030 -0.0928
 4673SOL     OW18689   9.899   7.590   0.272 -0.1171 -0.2915 -0.4175
 4673SOL    HW118690   9.849   7.619   0.349 -0.5487  0.6993 -1.0448
 4673SOL    HW218691   9.958   7.523   0.305 -0.1865  0.2296  0.8074
 4673SOL     MW18692   9.900   7.586   0.286 -0.1812 -0.0979 -0.3410
 4674SOL     OW18693   7.890   1.662   0.537  0.0823 -0.0317 -0.2705
 4674SOL    HW118694   7.875   1.751   0.567 -1.2221 -0.3918  0.2200
 4674SOL    HW218695   7.962   1.670   0.474 -1.9522  1.8470 -2.5565
 4674SOL     MW18696   7.898   1.674   0.533 -0.3451  0.1627 -0.5004
 4675SOL     OW18697   6.234   2.499   2.046 -0.6977 -0.0254  0.2773
 4675SOL    HW118698   6.232   2.500   2.142 -2.2678 -0.5564  0.2802
 4675SOL    HW218699   6.277   2.581   2.022  0.6812 -0.3818  1.4307
 4675SOL     MW18700   6.239   2.510   2.055 -0.7222 -0.1390  0.4253
 4676SOL     OW18701   7.453   0.169   1.125  0.3302  0.1716 -0.2054
 4676SOL    HW118702   7.369   0.158   1.170  0.5278  0.9829  0.4060
 4676SOL    HW218703   7.463   0.264   1.118  0.5571  0.0585 -1.5082
 4676SOL     MW18704   7.443   0.180   1.130  0.3845  0.2609 -0.2939
 4677SOL     OW18705   7.660   9.805   1.973 -0.1660 -0.0805 -0.0056
 4677SOL    HW118706   7.590   9.809   2.038 -0.6324 -0.0086 -0.5075
 4677SOL    HW218707   7.646   9.881   1.917  0.3919  0.0071 -0.0384
 4677SOL     MW18708   7.649   9.816   1.974 -0.1543 -0.0601 -0.0741
 4678SOL     OW18709   9.963   1.773   9.797 -0.5653  0.4224 -0.5562
 4678SOL    HW118710   9.897   1.840   9.808 -0.9209 -0.1061  0.7532
 4678SOL    HW218711   9.924   1.710   9.736 -0.6340  0.8933 -1.0009
 4678SOL     MW18712   9.950   1.773   9.791 -0.6197  0.4150 -0.4455
 4679SOL     OW18713   8.456   4.981   1.833 -0.1438 -0.4170 -0.4851
 4679SOL    HW118714   8.524   4.988   1.901 -0.3748 -1.6918 -0.0911
 4679SOL    HW218715   8.382   4.940   1.878 -2.1031  2.9778 -0.2826
 4679SOL     MW18716   8.455   4.977   1.848 -0.4241 -0.1456 -0.4087
 4680SOL     OW18717   7.268   8.437   8.953  0.2422  0.3098  0.2306
 4680SOL    HW118718   7.241   8.361   8.902 -0.5546  0.1166  0.9042
 4680SOL    HW218719   7.301   8.400   9.035  2.5961  0.5415 -0.5214
 4680SOL     MW18720   7.269   8.423   8.957  0.4415  0.3147  0.2206
 4681SOL     OW18721   8.448   9.362   1.765  0.4784 -0.1886 -1.4822
 4681SOL    HW118722   8.436   9.282   1.713  1.1920 -1.7407  0.5879
 4681SOL    HW218723   8.516   9.340   1.828 -1.5931  0.8495  1.3754
 4681SOL     MW18724   8.455   9.349   1.767  0.3046 -0.2544 -0.8514
 4682SOL     OW18725   7.369   9.083   1.346 -0.0472 -0.2960 -0.2303
 4682SOL    HW118726   7.416   9.161   1.316 -1.6894  1.1621  0.7893
 4682SOL    HW218727   7.397   9.071   1.437  0.4631 -1.1267 -0.4871
 4682SOL     MW18728   7.378   9.091   1.354 -0.1921 -0.2157 -0.1327
 4683SOL     OW18729   7.168   0.069   0.947  0.0011  0.0519  0.6561
 4683SOL    HW118730   7.177   0.108   1.034  1.2265  0.5907  0.3141
 4683SOL    HW218731   7.198   0.138   0.887 -2.8387  0.4968 -0.4048
 4683SOL     MW18732   7.173   0.083   0.951 -0.2056  0.1778  0.4765
 4684SOL     OW18733   9.041   5.604   2.291 -0.2684  0.4348  0.1409
 4684SOL    HW118734   9.087   5.559   2.220 -1.2590 -3.0186  1.4978
 4684SOL    HW218735   9.110   5.623   2.355 -0.2303 -2.9601  1.3017
 4684SOL     MW18736   9.056   5.601   2.290 -0.3903 -0.4418  0.4632
 4685SOL     OW18737   6.772   9.010   1.349  0.7416 -0.1177 -0.1251
 4685SOL    HW118738   6.748   9.054   1.268  0.4176 -1.5675 -0.8372
 4685SOL    HW218739   6.757   9.076   1.417  0.2895  0.8666 -1.1451
 4685SOL     MW18740   6.767   9.024   1.348  0.6422 -0.1773 -0.3468
 4686SOL     OW18741   9.461   0.005   2.156  0.4096  0.3326 -0.2891
 4686SOL    HW118742   9.523  -0.066   2.170 -0.3171 -0.2025  0.3018
 4686SOL    HW218743   9.502   0.082   2.195  0.8882  0.0828 -0.2950
 4686SOL     MW18744   9.474   0.006   2.163  0.3778  0.2322 -0.2142
 4687SOL     OW18745   7.602   1.193   9.010 -0.5894  0.2966 -0.1560
 4687SOL    HW118746   7.663   1.223   8.942 -0.6378  1.0267  0.1166
 4687SOL    HW218747   7.659   1.173   9.085 -0.6755  1.0321  0.1175
 4687SOL     MW18748   7.617   1.194   9.011 -0.6066  0.4842 -0.0861
 4688SOL     OW18749   9.415   2.125   0.913  0.0311  0.2096  0.1393
 4688SOL    HW118750   9.488   2.163   0.864  0.0913  1.5350  1.1960
 4688SOL    HW218751   9.453   2.098   0.997 -0.1630 -1.5955 -0.3095
 4688SOL     MW18752   9.429   2.126   0.918  0.0139  0.1482  0.2171
 4689SOL     OW18753   6.824   2.801   0.898  0.2049 -0.0519 -0.2807
 4689SOL    HW118754   6.777   2.861   0.956 -0.5370 -0.1449 -0.7774
 4689SOL    HW218755   6.913   2.835   0.895 -0.3676  1.4338 -1.1205
 4689SOL     MW18756   6.829   2.813   0.905  0.0366  0.1263 -0.4518
 4690SOL     OW18757   7.895   8.442   0.770 -0.0923 -0.0827 -0.3948
 4690SOL    HW118758   7.834   8.400   0.831 -1.6133  1.2205 -0.9655
 4690SOL    HW218759   7.940   8.508   0.823 -1.8703  1.4891 -0.7603
 4690SOL     MW18760   7.893   8.445   0.784 -0.5146  0.2853 -0.5146
 4691SOL     OW18761   7.620   1.572   0.456  0.3590 -0.3160  0.0487
 4691SOL    HW118762   7.703   1.589   0.501  0.6753  0.0307 -0.6580
 4691SOL    HW218763   7.571   1.516   0.517  0.7445  0.2089  0.8623
 4691SOL     MW18764   7.624   1.567   0.470  0.4488 -0.2044  0.0624
 4692SOL     OW18765   9.549   6.248   1.837 -0.0783  0.0299 -0.9251
 4692SOL    HW118766   9.539   6.323   1.778  2.8294  0.7024 -0.7509
 4692SOL    HW218767   9.555   6.287   1.925  1.5109 -0.3374 -0.8340
 4692SOL     MW18768   9.549   6.263   1.841  0.4974  0.0690 -0.8912
 4693SOL     OW18769   7.534   0.445   1.673 -0.2874 -0.3076  0.2704
 4693SOL    HW118770   7.572   0.379   1.615 -2.2599 -0.0307 -1.4272
 4693SOL    HW218771   7.473   0.493   1.618  0.3180  2.3022  1.7220
 4693SOL     MW18772   7.531   0.443   1.659 -0.4624  0.0619  0.2389
 4694SOL     OW18773   6.593   5.405   0.839  0.2137  0.0369  0.3031
 4694SOL    HW118774   6.567   5.416   0.748 -1.3334  1.9509  0.9231
 4694SOL    HW218775   6.543   5.329   0.869  3.5083 -3.1058 -1.3131
 4694SOL     MW18776   6.584   5.396   0.832  0.4374 -0.1204  0.1756
 4695SOL     OW18777   9.315   0.081   0.650  0.3073  0.1689 -0.1621
 4695SOL    HW118778   9.358   0.130   0.720  0.9619  0.0628 -0.4813
 4695SOL    HW218779   9.352  -0.007   0.656  0.1061  0.0656 -0.4184
 4695SOL     MW18780   9.325   0.076   0.660  0.3654  0.1421 -0.2358
 4696SOL     OW18781   8.629   9.552   2.758 -0.4427  0.2073  0.1757
 4696SOL    HW118782   8.581   9.511   2.830  0.3937 -2.8782 -0.8907
 4696SOL    HW218783   8.569   9.547   2.683  0.9439 -2.6063 -0.8722
 4696SOL     MW18784   8.615   9.546   2.758 -0.1581 -0.5479 -0.0949
 4697SOL     OW18785   6.942   5.203   0.766  0.2235  0.6856  0.4926
 4697SOL    HW118786   6.969   5.131   0.709 -2.2570  1.8522 -2.4567
 4697SOL    HW218787   6.919   5.161   0.849  2.3312 -1.3346  0.1474
 4697SOL     MW18788   6.943   5.188   0.770  0.1758  0.5764  0.0709
 4698SOL     OW18789   7.872   5.776   0.653  0.2077  0.2003  0.0637
 4698SOL    HW118790   7.821   5.760   0.733  0.5211 -1.7832 -0.0830
 4698SOL    HW218791   7.901   5.867   0.661  0.6198 -0.0733  2.4552
 4698SOL     MW18792   7.870   5.786   0.664  0.3006 -0.0886  0.3511
 4699SOL     OW18793   8.552   0.318   0.197 -0.3004 -0.1069 -0.5022
 4699SOL    HW118794   8.593   0.237   0.225  1.2236  0.0357 -2.1571
 4699SOL    HW218795   8.622   0.383   0.199 -1.0680  0.7643 -0.9165
 4699SOL     MW18796   8.566   0.316   0.201 -0.2036  0.0229 -0.7671
 4700SOL     OW18797   9.081   0.163   8.901  0.6456  0.0239 -0.4511
 4700SOL    HW118798   8.994   0.153   8.863  0.8482 -2.3020 -0.4013
 4700SOL    HW218799   9.085   0.255   8.927 -0.7931  0.8524 -2.8379
 4700SOL     MW18800   9.071   0.174   8.899  0.4874 -0.1678 -0.7503
 4701SOL     OW18801   8.227   3.925   1.261 -0.0585 -0.4145  0.1797
 4701SOL    HW118802   8.249   4.018   1.264 -0.1128 -0.4212  1.0731
 4701SOL    HW218803   8.312   3.880   1.268  0.0515 -0.4470 -1.0893
 4701SOL     MW18804   8.241   3.931   1.262 -0.0513 -0.4195  0.1316
 4702SOL     OW18805   8.969   4.966   0.905  0.5627  0.0531 -0.1212
 4702SOL    HW118806   8.890   4.986   0.855  0.7864  0.8213 -0.1831
 4702SOL    HW218807   8.946   4.985   0.996  0.7122  0.4268 -0.1565
 4702SOL     MW18808   8.956   4.971   0.911  0.6105  0.1993 -0.1336
 4703SOL     OW18809   9.004   5.009  10.086 -0.2597 -0.3449 -0.7210
 4703SOL    HW118810   8.941   4.944  10.119 -0.7281  0.3023 -0.3230
 4703SOL    HW218811   8.953   5.089  10.078  0.8113  0.5370  0.8224
 4703SOL     MW18812   8.989   5.011  10.089 -0.1825 -0.1491 -0.4725
 4704SOL     OW18813   8.770   2.682   1.313 -0.0252  0.2934  0.3741
 4704SOL    HW118814   8.798   2.714   1.227  0.5173 -0.3511  0.3000
 4704SOL    HW218815   8.755   2.589   1.300 -0.8774  0.3738  0.7578
 4704SOL     MW18816   8.772   2.674   1.300 -0.0648  0.2212  0.4137
 4705SOL     OW18817   9.043   7.508   2.375  0.0218  0.2164  0.2465
 4705SOL    HW118818   8.960   7.528   2.418  0.9740  0.6283  2.0056
 4705SOL    HW218819   9.040   7.413   2.359 -0.1171 -0.0898  1.8901
 4705SOL     MW18820   9.032   7.498   2.379  0.1259  0.2299  0.6821
 4706SOL     OW18821  10.130   1.406   0.077 -0.5776  0.0878  0.9923
 4706SOL    HW118822  10.102   1.494   0.103 -0.1036  0.7221 -0.5033
 4706SOL    HW218823  10.056   1.350   0.102 -1.9012  1.2603 -0.0559
 4706SOL     MW18824  10.117   1.410   0.083 -0.6864  0.3191  0.6666
 4707SOL     OW18825   9.001   8.713   1.005 -0.0286  0.0060  0.7292
 4707SOL    HW118826   9.076   8.669   0.966 -0.9230 -0.4059 -0.6007
 4707SOL    HW218827   8.963   8.648   1.063  0.7942  0.3153  1.6318
 4707SOL     MW18828   9.006   8.699   1.007 -0.0377 -0.0071  0.6745
 4708SOL     OW18829   9.482   1.223   9.767  0.2407 -0.1326  0.5374
 4708SOL    HW118830   9.474   1.225   9.672  0.1903 -0.9063  0.5228
 4708SOL    HW218831   9.564   1.268   9.786  0.7296 -0.8021  0.0638
 4708SOL     MW18832   9.491   1.229   9.758  0.2969 -0.3173  0.4749
 4709SOL     OW18833   6.806   1.129   2.026 -0.0001  0.8933 -0.4897
 4709SOL    HW118834   6.827   1.146   2.118  0.4991 -0.8861 -0.2433
 4709SOL    HW218835   6.888   1.095   1.989 -1.0584 -1.5881 -0.7262
 4709SOL     MW18836   6.819   1.127   2.033 -0.0717  0.3479 -0.4884
 4710SOL     OW18837   8.119   8.985   1.887  0.3335 -0.1151  0.1350
 4710SOL    HW118838   8.158   9.071   1.903 -0.9122  0.3850  0.6201
 4710SOL    HW218839   8.096   8.953   1.974 -0.4983 -0.3045 -0.1413
 4710SOL     MW18840   8.121   8.992   1.900  0.0675 -0.0753  0.1617
 4711SOL     OW18841   7.078   1.791   1.418  0.2131  0.4514  0.1698
 4711SOL    HW118842   7.145   1.856   1.397 -0.5131  1.1786  0.0755
 4711SOL    HW218843   7.005   1.842   1.453 -0.0771 -0.3861  0.8171
 4711SOL     MW18844   7.077   1.806   1.420  0.0830  0.4373  0.2406
 4712SOL     OW18845   8.498   4.903   9.294  0.1567 -0.9289  0.3325
 4712SOL    HW118846   8.512   4.979   9.352 -0.1390  0.0180 -0.8031
 4712SOL    HW218847   8.414   4.921   9.252  0.0579 -1.9347  0.0806
 4712SOL     MW18848   8.489   4.915   9.296  0.1062 -0.9365  0.1549
 4713SOL     OW18849   7.826   2.535   9.283  0.2124 -0.3578 -0.7326
 4713SOL    HW118850   7.743   2.580   9.271  0.1055 -0.7069 -1.3641
 4713SOL    HW218851   7.881   2.566   9.212  0.9781  0.6441  0.2772
 4713SOL     MW18852   7.822   2.545   9.273  0.2967 -0.2742 -0.6841
 4714SOL     OW18853   9.227   4.891   0.520  0.1074 -0.4008  0.3995
 4714SOL    HW118854   9.197   4.944   0.594 -0.4354 -0.9348  0.5701
 4714SOL    HW218855   9.268   4.953   0.461 -1.1547  0.3304  0.2588
 4714SOL     MW18856   9.229   4.905   0.522 -0.1236 -0.3756  0.4034
 4715SOL     OW18857  10.003   4.724   2.405 -0.8432 -0.0371  0.4347
 4715SOL    HW118858   9.922   4.672   2.404 -0.4436 -0.8666  2.9012
 4715SOL    HW218859   9.994   4.780   2.483 -0.3386  2.1480 -0.9742
 4715SOL     MW18860   9.991   4.725   2.415 -0.7275  0.1364  0.5701
 4716SOL     OW18861   7.128   0.376   1.161 -0.1463 -0.1631 -0.0737
 4716SOL    HW118862   7.104   0.405   1.074 -3.0022 -1.2092  0.2602
 4716SOL    HW218863   7.177   0.449   1.199 -0.3831  0.9916 -1.9029
 4716SOL     MW18864   7.131   0.389   1.155 -0.5422 -0.1492 -0.2651
 4717SOL     OW18865   9.441   9.317   9.366 -0.5149 -0.3189  0.5781
 4717SOL    HW118866   9.403   9.391   9.414  0.4077 -0.4752  1.5916
 4717SOL    HW218867   9.424   9.242   9.423  0.7762 -0.4817  0.7568
 4717SOL     MW18868   9.434   9.317   9.380 -0.2315 -0.3597  0.7307
 4718SOL     OW18869   0.141   0.200   0.893  0.1620 -0.6422 -0.2730
 4718SOL    HW118870   0.084   0.224   0.967  0.6082  2.4752 -0.7760
 4718SOL    HW218871   0.082   0.185   0.820 -0.1513 -0.2746 -0.0969
 4718SOL     MW18872   0.126   0.201   0.893  0.1790 -0.1961 -0.3148
 4719SOL     OW18873   8.230   6.668   2.828 -0.6021  0.1920 -0.4325
 4719SOL    HW118874   8.312   6.631   2.795  0.8100  2.9703 -0.3186
 4719SOL    HW218875   8.197   6.723   2.757 -1.8055 -0.0080 -0.0620
 4719SOL     MW18876   8.236   6.670   2.815 -0.5754  0.5220 -0.3705
 4720SOL     OW18877   9.097   1.188   2.907 -0.1284  0.3018 -0.2576
 4720SOL    HW118878   9.163   1.224   2.966 -0.6240  0.6322  0.1067
 4720SOL    HW218879   9.138   1.111   2.869  0.2334  0.1356  0.4480
 4720SOL     MW18880   9.111   1.183   2.910 -0.1456  0.3228 -0.1206
 4721SOL     OW18881   7.750   1.045   2.979 -0.2797 -0.1618 -0.0955
 4721SOL    HW118882   7.670   1.053   2.928  0.1793  1.3547 -0.5983
 4721SOL    HW218883   7.820   1.035   2.914  0.0620 -0.5186  0.3154
 4721SOL     MW18884   7.749   1.045   2.964 -0.1772 -0.0133 -0.1073
 4722SOL     OW18885  10.093   1.282   0.846 -0.2227  0.4716  0.0437
 4722SOL    HW118886  10.169   1.340   0.850 -0.9018  1.4848 -1.0826
 4722SOL    HW218887  10.031   1.319   0.909 -0.7308  1.1135 -0.8115
 4722SOL     MW18888  10.095   1.294   0.854 -0.3747  0.6835 -0.2100
 4723SOL     OW18889   7.730   1.910   9.209  0.4163 -0.0213 -0.5812
 4723SOL    HW118890   7.746   1.940   9.298 -2.2591 -1.5135  0.5089
 4723SOL    HW218891   7.815   1.875   9.180  1.2609  0.1499  1.4991
 4723SOL     MW18892   7.743   1.910   9.217  0.1819 -0.1904 -0.1754
 4724SOL     OW18893   9.642   4.295  10.028  0.4540 -0.1566 -0.3698
 4724SOL    HW118894   9.625   4.230  10.096 -1.3701  0.8581  0.2099
 4724SOL    HW218895   9.581   4.274   9.958  0.8995  0.0384 -0.8273
 4724SOL     MW18896   9.632   4.284  10.028  0.2775 -0.0018 -0.3541
 4725SOL     OW18897   8.224   8.213   1.428  0.0844  0.0351  0.0295
 4725SOL    HW118898   8.170   8.140   1.459  0.2819  1.1294  3.3806
 4725SOL    HW218899   8.314   8.181   1.438  0.1472  0.1577 -0.1412
 4725SOL     MW18900   8.229   8.199   1.434  0.1177  0.1908  0.4366
 4726SOL     OW18901   9.132   1.897  10.133 -0.3818  0.1823 -0.0726
 4726SOL    HW118902   9.226   1.896  10.114  0.1241 -1.3049  2.1155
 4726SOL    HW218903   9.118   1.981  10.176 -0.0970  0.4796 -0.5468
 4726SOL     MW18904   9.143   1.908  10.136 -0.2806  0.0300  0.1468
 4727SOL     OW18905   9.973   8.596   2.543  0.0569 -0.0150  0.5443
 4727SOL    HW118906  10.058   8.580   2.585 -0.0912 -0.9191  0.5171
 4727SOL    HW218907   9.943   8.679   2.580 -0.8155 -1.4962  3.4947
 4727SOL     MW18908   9.980   8.605   2.553 -0.0738 -0.3203  0.9185
 4728SOL     OW18909   7.816   5.255   2.209  0.1723 -0.2864 -0.4706
 4728SOL    HW118910   7.751   5.186   2.217 -0.6698  0.6407  1.2611
 4728SOL    HW218911   7.876   5.240   2.282  1.2669 -0.4667 -1.3885
 4728SOL     MW18912   7.815   5.244   2.220  0.2046 -0.1908 -0.3664
 4729SOL     OW18913   9.333   3.728   2.433 -0.0477  0.1935  0.7371
 4729SOL    HW118914   9.319   3.635   2.450  0.7979 -0.0266  0.2678
 4729SOL    HW218915   9.407   3.731   2.373 -1.7674  1.0076 -1.5157
 4729SOL     MW18916   9.341   3.717   2.428 -0.1596  0.2695  0.3886
 4730SOL     OW18917   8.955   4.554   1.464  0.3917 -0.1481 -0.5662
 4730SOL    HW118918   9.024   4.506   1.418 -0.5292 -0.3719 -1.7971
 4730SOL    HW218919   8.999   4.596   1.538  1.4830 -1.7846 -0.2379
 4730SOL     MW18920   8.969   4.553   1.467  0.4135 -0.3862 -0.6817
 4731SOL     OW18921   8.162   0.126   2.525 -0.0348 -0.3297  0.1868
 4731SOL    HW118922   8.119   0.208   2.498  1.0304  0.3330  0.4429
 4731SOL    HW218923   8.153   0.125   2.620  0.3114 -0.3035  0.2202
 4731SOL     MW18924   8.155   0.136   2.534  0.1458 -0.2415  0.2238
 4732SOL     OW18925   7.730   2.120   2.808 -0.3175  0.8670 -0.1610
 4732SOL    HW118926   7.716   2.036   2.851 -0.6716  0.6714 -0.6380
 4732SOL    HW218927   7.739   2.183   2.879  1.5325  0.2116  0.2559
 4732SOL     MW18928   7.729   2.117   2.822 -0.1260  0.7580 -0.1687
 4733SOL     OW18929   8.339   2.732   0.697 -0.0704 -0.4176 -0.1324
 4733SOL    HW118930   8.292   2.719   0.615 -0.7260  0.1241  0.1486
 4733SOL    HW218931   8.284   2.689   0.763  0.7591 -1.4052 -0.0411
 4733SOL     MW18932   8.326   2.725   0.695 -0.0481 -0.4747 -0.0847
 4734SOL     OW18933   9.245   6.147   2.340 -0.3693  0.1363  0.1576
 4734SOL    HW118934   9.336   6.120   2.326 -0.3895  1.4218 -3.6773
 4734SOL    HW218935   9.252   6.229   2.389  0.5250  0.1959 -0.0545
 4734SOL     MW18936   9.257   6.154   2.345 -0.2574  0.3085 -0.3605
 4735SOL     OW18937   7.749   9.045   0.138  0.1786 -0.2787  0.3709
 4735SOL    HW118938   7.770   9.011   0.224 -1.1314  0.7414  1.1303
 4735SOL    HW218939   7.813   9.115   0.123  0.6251 -0.6895  0.3598
 4735SOL     MW18940   7.760   9.050   0.147  0.0680 -0.2007  0.4667
 4736SOL     OW18941   8.939   5.481   0.539 -0.2222  0.5689  0.0347
 4736SOL    HW118942   9.015   5.536   0.524 -0.6471  0.6882 -1.9026
 4736SOL    HW218943   8.973   5.405   0.586  0.8894  1.0793  0.0798
 4736SOL     MW18944   8.953   5.478   0.543 -0.1343  0.6495 -0.2075
 4737SOL     OW18945   7.678   5.328   9.866 -0.5113 -0.5350  0.0261
 4737SOL    HW118946   7.685   5.371   9.951  1.3308 -1.5459  0.4493
 4737SOL    HW218947   7.733   5.381   9.808  0.7729 -1.5497  0.2580
 4737SOL     MW18948   7.686   5.340   9.869 -0.1111 -0.7943  0.1099
 4738SOL     OW18949   9.170   1.200   9.507  0.4716  0.0058 -0.7752
 4738SOL    HW118950   9.138   1.169   9.592  0.6504  0.7713 -0.4127
 4738SOL    HW218951   9.127   1.144   9.443 -0.1121 -0.2137 -0.2057
 4738SOL     MW18952   9.160   1.189   9.510  0.4198  0.0757 -0.6559
 4739SOL     OW18953   9.533   1.679   2.138  0.3768 -0.2214 -0.3816
 4739SOL    HW118954   9.543   1.659   2.231  1.4083  2.2427  0.1432
 4739SOL    HW218955   9.609   1.638   2.096  0.4193 -0.5701  0.0343
 4739SOL     MW18956   9.544   1.671   2.144  0.5143  0.0494 -0.2612
 4740SOL     OW18957   9.426   2.393   9.687  0.2914 -0.3717 -0.3819
 4740SOL    HW118958   9.424   2.381   9.782  0.3777 -0.0151 -0.3334
 4740SOL    HW218959   9.356   2.457   9.669  0.6803  0.0302 -0.4875
 4740SOL     MW18960   9.416   2.400   9.697  0.3522 -0.2746 -0.3892
 4741SOL     OW18961   8.131   9.500   3.093  0.2224 -0.2394  0.2195
 4741SOL    HW118962   8.174   9.456   3.166 -1.0477 -1.0705  0.5046
 4741SOL    HW218963   8.063   9.555   3.133  1.1594  1.2804 -0.1990
 4741SOL     MW18964   8.128   9.501   3.107  0.1797 -0.1512  0.2024
 4742SOL     OW18965   7.029   9.109   1.604  0.6860  0.1803 -0.7864
 4742SOL    HW118966   7.024   9.154   1.519  0.3408 -0.2993 -1.0237
 4742SOL    HW218967   7.115   9.132   1.638  0.1435  1.8296 -0.4494
 4742SOL     MW18968   7.039   9.118   1.597  0.5724  0.3300 -0.7737
 4743SOL     OW18969   8.756   0.499   2.074 -0.4613 -0.0362 -0.2254
 4743SOL    HW118970   8.739   0.405   2.064  0.1584 -0.1962  0.1210
 4743SOL    HW218971   8.763   0.512   2.168  1.5166 -0.0558 -0.3259
 4743SOL     MW18972   8.755   0.489   2.084 -0.1288 -0.0592 -0.1939
 4744SOL     OW18973   6.868   3.206   1.149 -0.1601  0.0107  0.0239
 4744SOL    HW118974   6.877   3.177   1.240 -0.3878 -1.6189 -0.4462
 4744SOL    HW218975   6.958   3.215   1.117 -0.0909 -0.2441  0.1528
 4744SOL     MW18976   6.881   3.204   1.156 -0.1804 -0.2305 -0.0198
 4745SOL     OW18977   7.812   9.548   1.740  0.0992 -0.3334  0.7248
 4745SOL    HW118978   7.742   9.546   1.805 -0.8784  0.9459 -0.2253
 4745SOL    HW218979   7.787   9.481   1.676 -1.2334  1.2601 -0.5077
 4745SOL     MW18980   7.800   9.539   1.740 -0.1966  0.0343  0.4454
 4746SOL     OW18981   9.490   4.855   0.659 -0.3176  0.3959 -0.3980
 4746SOL    HW118982   9.432   4.804   0.602 -0.8121 -0.9563  1.2436
 4746SOL    HW218983   9.516   4.794   0.728  1.1698  1.6612  0.2278
 4746SOL     MW18984   9.486   4.840   0.660 -0.1905  0.3848 -0.1077
 4747SOL     OW18985   8.917   8.922   3.199 -0.1713 -0.4156  0.1448
 4747SOL    HW118986   8.959   8.898   3.117 -1.0351  1.0790 -0.7962
 4747SOL    HW218987   8.980   8.980   3.242  0.5634 -1.7239  0.8958
 4747SOL     MW18988   8.930   8.927   3.194 -0.1878 -0.3917  0.1205
 4748SOL     OW18989  10.105   4.671   0.498  0.3042  0.1504 -0.1975
 4748SOL    HW118990  10.162   4.744   0.521 -0.2333  0.1961  1.0351
 4748SOL    HW218991  10.157   4.619   0.437  1.6435  0.2333  0.8222
 4748SOL     MW18992  10.119   4.674   0.493  0.4069  0.1669  0.0908
 4749SOL     OW18993   6.655   6.380   0.605  0.0319 -0.2878 -0.1450
 4749SOL    HW118994   6.632   6.469   0.632 -0.6338 -0.6664  0.5696
 4749SOL    HW218995   6.631   6.376   0.512 -0.5542  0.0821 -0.0163
 4749SOL     MW18996   6.649   6.391   0.597 -0.1283 -0.2889 -0.0370
 4750SOL     OW18997   9.638   4.037   0.560  0.1625 -0.2071  0.3149
 4750SOL    HW118998   9.626   4.087   0.479 -0.5764 -0.2835  0.3746
 4750SOL    HW218999   9.598   4.091   0.628  0.2754 -0.4089  0.5426
 4750SOL     MW19000   9.632   4.050   0.558  0.0824 -0.2427  0.3517
 4751SOL     OW19001   6.636   3.862   2.133 -0.0492 -0.5003 -0.0917
 4751SOL    HW119002   6.621   3.955   2.117  0.3026 -0.4880 -0.3739
 4751SOL    HW219003   6.649   3.855   2.227  1.7095  0.0050 -0.2675
 4751SOL     MW19004   6.636   3.873   2.143  0.2209 -0.4340 -0.1503
 4752SOL     OW19005   8.334   4.447   0.023 -0.4453 -0.1393  0.1064
 4752SOL    HW119006   8.356   4.413   0.110 -1.5435  1.2097  0.9634
 4752SOL    HW219007   8.254   4.401  -0.002 -0.1831 -0.4573 -0.1669
 4752SOL     MW19008   8.327   4.437   0.031 -0.5523 -0.0073  0.1811
 4753SOL     OW19009   8.921   7.180   2.808 -0.4503 -0.2370  0.2047
 4753SOL    HW119010   8.827   7.177   2.790 -0.6221  0.6413  0.8947
 4753SOL    HW219011   8.947   7.269   2.786  0.6980 -1.0571 -2.1095
 4753SOL     MW19012   8.912   7.191   2.803 -0.3253 -0.2295 -0.0032
 4754SOL     OW19013   8.213   7.736   9.671 -0.0862 -0.5956 -0.1476
 4754SOL    HW119014   8.136   7.701   9.715 -1.9542  2.2430 -0.8857
 4754SOL    HW219015   8.252   7.795   9.735 -0.8264  0.9083 -1.0241
 4754SOL     MW19016   8.208   7.739   9.685 -0.4201 -0.0397 -0.3543
 4755SOL     OW19017   9.676   0.215   1.190  0.0574  0.3062 -0.3736
 4755SOL    HW119018   9.616   0.178   1.125  0.6560 -0.3396 -0.5748
 4755SOL    HW219019   9.688   0.146   1.254 -0.5430  0.9513  0.4483
 4755SOL     MW19020   9.670   0.201   1.190  0.0572  0.3061 -0.2941
 4756SOL     OW19021   6.975   1.272   9.643 -0.2188 -0.4755  0.2064
 4756SOL    HW119022   7.058   1.306   9.678 -1.0265  1.2088  0.5817
 4756SOL    HW219023   6.977   1.296   9.551  1.0206 -3.1503 -0.5450
 4756SOL     MW19024   6.986   1.280   9.636 -0.1636 -0.6023  0.1582
 4757SOL     OW19025   9.701   1.606  10.076  0.6566 -0.1951  0.4120
 4757SOL    HW119026   9.794   1.595  10.057  0.6224 -0.7136  0.5252
 4757SOL    HW219027   9.693   1.696  10.109  0.7996  0.5417 -1.4457
 4757SOL     MW19028   9.712   1.616  10.078  0.6705 -0.1672  0.1887
 4758SOL     OW19029   7.976   3.324   2.744  0.2765 -0.2603 -0.1740
 4758SOL    HW119030   7.900   3.282   2.707  0.4030 -1.0950  0.4849
 4758SOL    HW219031   7.943   3.369   2.823  0.3362 -0.0139 -0.2873
 4758SOL     MW19032   7.962   3.325   2.750  0.3004 -0.3356 -0.1042
 4759SOL     OW19033   0.499   1.366   1.692  0.1450  0.1978  0.6109
 4759SOL    HW119034   0.567   1.353   1.625 -0.2302  1.7644 -0.1268
 4759SOL    HW219035   0.440   1.431   1.654 -1.0885 -0.2106  1.7529
 4759SOL     MW19036   0.500   1.373   1.679 -0.0609  0.3461  0.6626
 4760SOL     OW19037  10.099   2.997   1.413  0.0091 -0.1440 -0.5516
 4760SOL    HW119038  10.171   2.999   1.350  0.9353  0.1161  0.4807
 4760SOL    HW219039  10.056   2.914   1.397  0.8436 -0.5278 -0.8764
 4760SOL     MW19040  10.103   2.987   1.403  0.2345 -0.1599 -0.4610
 4761SOL     OW19041   6.954  10.002   2.913  0.6350  0.3217  0.4317
 4761SOL    HW119042   6.972   9.944   2.839  0.4434  1.3023 -0.4057
 4761SOL    HW219043   6.865   9.979   2.940 -0.0772  1.3498 -0.9746
 4761SOL     MW19044   6.945   9.991   2.907  0.5193  0.5788  0.1445
 4762SOL     OW19045   7.743   6.892   0.962  0.4451  0.2802  0.1442
 4762SOL    HW119046   7.769   6.888   1.054  0.8957 -1.4085 -0.0303
 4762SOL    HW219047   7.677   6.962   0.959  0.3069  0.2546  1.7657
 4762SOL     MW19048   7.738   6.901   0.973  0.4851  0.0608  0.3294
 4763SOL     OW19049   9.016   7.339   1.975  0.7837  0.3407 -0.5631
 4763SOL    HW119050   8.974   7.256   1.953  0.9540  0.0764  0.0919
 4763SOL    HW219051   8.947   7.404   1.964  0.2867 -0.0464  0.1525
 4763SOL     MW19052   9.002   7.337   1.971  0.7419  0.2573 -0.3877
 4764SOL     OW19053   7.537   2.802   1.536 -0.2406 -0.3973 -0.1254
 4764SOL    HW119054   7.547   2.782   1.629  0.0904  0.3162 -0.0075
 4764SOL    HW219055   7.599   2.743   1.492 -0.1047 -0.4490  0.1343
 4764SOL     MW19056   7.546   2.792   1.542 -0.1808 -0.3126 -0.0771
 4765SOL     OW19057   7.482   0.395   0.752  0.1477  0.0715 -0.0177
 4765SOL    HW119058   7.537   0.438   0.687  0.3971  0.6162  0.5442
 4765SOL    HW219059   7.443   0.468   0.801  0.4454 -0.3413  0.8387
 4765SOL     MW19060   7.484   0.410   0.750  0.2177  0.0884  0.1638
 4766SOL     OW19061  10.112   0.166   2.040  0.0640 -0.1015  0.8024
 4766SOL    HW119062  10.106   0.136   1.949  0.9920  0.2682  0.6088
 4766SOL    HW219063  10.194   0.215   2.044 -0.5246  0.8786  1.5532
 4766SOL     MW19064  10.121   0.169   2.029  0.1075  0.0713  0.8737
 4767SOL     OW19065   7.703   0.572   2.149 -0.0248 -0.2562 -0.2022
 4767SOL    HW119066   7.752   0.654   2.148  1.3985 -1.0759 -1.0482
 4767SOL    HW219067   7.746   0.520   2.218  0.1167 -0.8681 -0.7413
 4767SOL     MW19068   7.715   0.576   2.158  0.1755 -0.4395 -0.3795
 4768SOL     OW19069   7.657   9.027   1.752  0.4205  0.0026  0.1083
 4768SOL    HW119070   7.743   9.069   1.759  0.7109 -0.4112 -0.8558
 4768SOL    HW219071   7.676   8.937   1.727 -0.2985 -0.0807 -0.1658
 4768SOL     MW19072   7.671   9.021   1.750  0.3657 -0.0610 -0.0502
 4769SOL     OW19073   8.356   2.130   9.226 -0.1629 -0.1188  0.0825
 4769SOL    HW119074   8.376   2.196   9.159 -1.6672  1.1468  0.8037
 4769SOL    HW219075   8.398   2.050   9.194 -1.1002  0.3449 -2.5898
 4769SOL     MW19076   8.364   2.128   9.213 -0.4755  0.1026 -0.1673
 4770SOL     OW19077   9.273   0.562   0.410 -0.2740  0.1445 -0.2661
 4770SOL    HW119078   9.292   0.490   0.350 -1.1594 -0.7647  0.5042
 4770SOL    HW219079   9.178   0.561   0.420 -0.2330  0.9203  0.3741
 4770SOL     MW19080   9.263   0.553   0.404 -0.3821  0.1274 -0.0855
 4771SOL     OW19081   8.473   2.263   0.266  0.2288 -0.2586 -0.5240
 4771SOL    HW119082   8.475   2.207   0.188 -0.8385 -0.9142 -0.0997
 4771SOL    HW219083   8.387   2.247   0.305 -0.1887  1.8537 -0.4980
 4771SOL     MW19084   8.462   2.253   0.261  0.0387 -0.0721 -0.4664
 4772SOL     OW19085   6.406   9.984   9.800  0.5128 -0.3595 -0.6621
 4772SOL    HW119086   6.339   9.928   9.839  1.4368 -1.1881 -0.2257
 4772SOL    HW219087   6.474   9.990   9.867 -0.3583  2.8757  0.1090
 4772SOL     MW19088   6.406   9.977   9.814  0.5196 -0.0514 -0.5075
 4773SOL     OW19089   0.299   7.005   1.944  0.6725 -0.0676  0.8062
 4773SOL    HW119090   0.261   6.930   1.898 -0.5184  1.0463 -0.1217
 4773SOL    HW219091   0.328   7.064   1.874  3.8210 -0.6358  1.4752
 4773SOL     MW19092   0.298   7.003   1.929  0.9231  0.0022  0.7731
 4774SOL     OW19093   9.142   4.432   1.327  0.5647 -0.6886  0.2786
 4774SOL    HW119094   9.194   4.491   1.273  2.2968 -1.9099  0.5094
 4774SOL    HW219095   9.077   4.395   1.267  2.0468 -1.5451 -0.8862
 4774SOL     MW19096   9.140   4.434   1.312  0.9761 -0.9545  0.1590
 4775SOL     OW19097   8.357   3.202   1.278  0.0502 -0.6527 -0.1825
 4775SOL    HW119098   8.377   3.236   1.190  1.6186  2.4280  1.1949
 4775SOL    HW219099   8.433   3.148   1.300 -0.0160 -0.8553 -0.4428
 4775SOL     MW19100   8.370   3.200   1.270  0.2425 -0.2843 -0.0395
 4776SOL     OW19101   7.232   7.102   0.898 -0.6189  0.0070  0.4616
 4776SOL    HW119102   7.174   7.036   0.937  0.5170 -1.2193  0.1348
 4776SOL    HW219103   7.239   7.077   0.806 -1.4420  1.5500 -0.0670
 4776SOL     MW19104   7.226   7.090   0.892 -0.5789  0.0475  0.3521
 4777SOL     OW19105   9.760   4.617   9.839  0.1501  0.2697 -0.2447
 4777SOL    HW119106   9.739   4.690   9.898 -0.0517  0.2272 -0.2621
 4777SOL    HW219107   9.793   4.548   9.897 -0.9544 -0.1268 -0.0532
 4777SOL     MW19108   9.761   4.618   9.854 -0.0171  0.2135 -0.2224
 4778SOL     OW19109   8.029   2.724   0.378  0.5846 -0.5132 -0.4919
 4778SOL    HW119110   8.033   2.802   0.433  0.9104  0.8409 -2.3201
 4778SOL    HW219111   7.942   2.688   0.393  0.5295  0.0392  0.5791
 4778SOL     MW19112   8.019   2.729   0.387  0.6192 -0.2691 -0.5889
 4779SOL     OW19113   8.054   7.344   2.315  0.3972  0.0225  0.2045
 4779SOL    HW119114   8.115   7.410   2.284  1.2282 -0.7019  0.2575
 4779SOL    HW219115   8.059   7.349   2.411  0.6340 -0.2698  0.2083
 4779SOL     MW19116   8.062   7.353   2.324  0.5339 -0.1077  0.2117
 4780SOL     OW19117   8.153   2.357   0.996 -0.4571  0.1781 -0.1517
 4780SOL    HW119118   8.091   2.345   1.068 -0.0607 -1.2643 -0.0299
 4780SOL    HW219119   8.239   2.354   1.038 -0.1476 -2.1150 -0.7933
 4780SOL     MW19120   8.156   2.355   1.011 -0.3668 -0.3001 -0.2182
 4781SOL     OW19121   9.246   3.636   2.740 -0.1806 -0.2328 -0.3312
 4781SOL    HW119122   9.246   3.731   2.756  0.7910 -0.2445 -0.1944
 4781SOL    HW219123   9.315   3.603   2.797 -1.3692 -1.2058  0.5836
 4781SOL     MW19124   9.255   3.644   2.750 -0.2083 -0.3589 -0.1966
 4782SOL     OW19125   8.385   5.316   2.894  0.5974  0.0040  0.5670
 4782SOL    HW119126   8.346   5.396   2.930  1.3760  0.5989  0.1094
 4782SOL    HW219127   8.327   5.291   2.823  0.2630  0.0803  0.8124
 4782SOL     MW19128   8.373   5.323   2.890  0.6542  0.0899  0.5399
 4783SOL     OW19129   8.539   5.310   3.143 -0.0173 -0.4839  0.0322
 4783SOL    HW119130   8.494   5.298   3.059 -1.1776  0.6682  0.4594
 4783SOL    HW219131   8.474   5.352   3.199  1.3346  0.4861  0.9337
 4783SOL     MW19132   8.525   5.314   3.139  0.0072 -0.2123  0.2023
 4784SOL     OW19133   7.125   3.462   9.747 -0.8624 -0.5182 -0.2343
 4784SOL    HW119134   7.164   3.543   9.713 -1.7502  0.3035  0.6390
 4784SOL    HW219135   7.095   3.485   9.835 -2.6411 -1.2990 -0.5883
 4784SOL     MW19136   7.126   3.475   9.754 -1.2037 -0.5130 -0.1679
 4785SOL     OW19137   8.546   3.022   1.363  0.2331  0.2379  0.9160
 4785SOL    HW119138   8.618   3.045   1.422  0.4415  2.4797 -0.1354
 4785SOL    HW219139   8.579   2.948   1.313  0.3078 -1.2961  3.0593
 4785SOL     MW19140   8.559   3.015   1.364  0.2694  0.3285  1.0558
 4786SOL     OW19141   8.122   7.300   0.128 -0.2441 -0.3236 -0.1945
 4786SOL    HW119142   8.207   7.281   0.089 -0.3251 -2.1956  0.4552
 4786SOL    HW219143   8.058   7.260   0.069 -0.6263  0.1834 -0.1398
 4786SOL     MW19144   8.125   7.292   0.115 -0.3034 -0.4984 -0.1043
 4787SOL     OW19145   7.260   7.596   9.532  0.0781 -0.6478 -0.5191
 4787SOL    HW119146   7.276   7.517   9.583 -1.2282 -0.0510  0.9035
 4787SOL    HW219147   7.240   7.565   9.444  1.6805 -1.7509 -0.5450
 4787SOL     MW19148   7.260   7.582   9.527  0.1160 -0.7126 -0.3403
 4788SOL     OW19149   8.693   1.844   1.946 -0.2602 -0.0640  0.0528
 4788SOL    HW119150   8.737   1.798   2.018 -0.5315  0.6759  0.6986
 4788SOL    HW219151   8.649   1.918   1.987  2.3216  2.3804 -1.2707
 4788SOL     MW19152   8.693   1.847   1.960  0.0356  0.3437 -0.0339
 4789SOL     OW19153  10.008   6.961   0.243  0.5342  0.3936 -0.2514
 4789SOL    HW119154  10.039   7.015   0.169  0.5223  1.9692  0.8482
 4789SOL    HW219155   9.913   6.965   0.238  0.5085 -0.8806 -1.1020
 4789SOL     MW19156  10.000   6.969   0.233  0.5294  0.4322 -0.2195
 4790SOL     OW19157   7.669   3.007  10.105 -0.0274 -0.2600  0.5049
 4790SOL    HW119158   7.735   2.968  10.048 -1.1857 -0.8311 -0.4647
 4790SOL    HW219159   7.693   3.100  10.108 -0.8005  0.1151 -2.1935
 4790SOL     MW19160   7.681   3.014  10.098 -0.2746 -0.2851  0.0354
 4791SOL     OW19161   6.208   0.610   9.890  0.7757 -0.1805 -0.2057
 4791SOL    HW119162   6.204   0.515   9.903  1.6316 -0.1027  0.6719
 4791SOL    HW219163   6.300   0.632   9.899  0.4663  0.8716  0.5925
 4791SOL     MW19164   6.219   0.600   9.893  0.8457 -0.0359  0.0089
 4792SOL     OW19165   0.148   6.324   0.597  0.0344  0.2127  0.0674
 4792SOL    HW119166   0.052   6.315   0.597 -0.1279  1.7209 -0.1457
 4792SOL    HW219167   0.177   6.268   0.669 -0.5590 -3.9632 -2.6016
 4792SOL     MW19168   0.139   6.316   0.606 -0.0624 -0.1288 -0.3016
 4793SOL     OW19169   7.664   1.250   9.730  0.2893  0.7191 -0.0938
 4793SOL    HW119170   7.727   1.180   9.748 -0.6764 -0.3845 -0.9474
 4793SOL    HW219171   7.719   1.325   9.705  1.2956 -0.0002 -0.0961
 4793SOL     MW19172   7.679   1.251   9.729  0.2945  0.4858 -0.2034
 4794SOL     OW19173   7.097   3.258   2.095  0.2514 -0.1564 -0.4813
 4794SOL    HW119174   7.120   3.254   2.003 -1.5215  1.9821 -1.1097
 4794SOL    HW219175   7.077   3.351   2.111  0.8284 -0.3793  2.1541
 4794SOL     MW19176   7.098   3.270   2.086  0.0983  0.0888 -0.2244
 4795SOL     OW19177   8.709   6.609   1.240 -0.5265  0.0653  0.1787
 4795SOL    HW119178   8.774   6.679   1.233 -0.4744 -0.0756 -1.0013
 4795SOL    HW219179   8.640   6.634   1.179 -0.9037 -0.4918  0.3724
 4795SOL     MW19180   8.709   6.621   1.231 -0.5681 -0.0241  0.0524
 4796SOL     OW19181   7.932   4.270   1.786 -0.3492 -0.3309  0.2670
 4796SOL    HW119182   7.923   4.207   1.714 -1.1807 -1.0626  0.9761
 4796SOL    HW219183   7.964   4.350   1.745  0.1249 -1.0296 -0.7611
 4796SOL     MW19184   7.935   4.272   1.771 -0.3949 -0.5140  0.2262
 4797SOL     OW19185   0.354   9.407   1.088 -0.1898  0.4806  0.3735
 4797SOL    HW119186   0.392   9.331   1.043 -2.1079  0.1054 -0.7561
 4797SOL    HW219187   0.281   9.371   1.138 -1.5995  1.6406 -0.7659
 4797SOL     MW19188   0.350   9.393   1.088 -0.6158  0.5810  0.0830
 4798SOL     OW19189   9.521   7.536  10.130 -0.5520 -0.4188  0.0650
 4798SOL    HW119190   9.487   7.452  10.098 -0.5589 -0.5393  0.3819
 4798SOL    HW219191   9.543   7.584  10.051 -0.6909 -0.6614 -0.1262
 4798SOL     MW19192   9.519   7.531  10.116 -0.5707 -0.4653  0.0811
 4799SOL     OW19193   9.112   9.419   0.544  0.3537  0.2248  0.4637
 4799SOL    HW119194   9.065   9.500   0.565 -0.5994 -0.5489  1.3960
 4799SOL    HW219195   9.049   9.349   0.562  0.7824 -0.6996 -1.3501
 4799SOL     MW19196   9.098   9.420   0.549  0.2865  0.0074  0.3509
 4800SOL     OW19197   8.752   9.063   0.817  0.1213 -0.0686 -0.7192
 4800SOL    HW119198   8.658   9.080   0.817 -0.0033 -0.6177 -2.1615
 4800SOL    HW219199   8.793   9.149   0.826 -0.5095  0.2687 -1.0566
 4800SOL     MW19200   8.745   9.076   0.818  0.0246 -0.0958 -0.9470
 4801SOL     OW19201  10.091   0.803   1.432  0.5353  0.7970  0.6475
 4801SOL    HW119202  10.113   0.874   1.372  1.5704  1.2209  1.4916
 4801SOL    HW219203  10.013   0.833   1.478 -1.6956 -0.4809 -1.9878
 4801SOL     MW19204  10.084   0.816   1.430  0.3822  0.6877  0.4182
 4802SOL     OW19205   7.993   5.687   9.814  0.6274  0.1052  0.1949
 4802SOL    HW119206   7.987   5.756   9.748 -0.0188 -1.2868 -1.2586
 4802SOL    HW219207   8.028   5.611   9.768 -2.9541 -1.9651  0.4903
 4802SOL     MW19208   7.997   5.686   9.800  0.0862 -0.3380  0.0466
 4803SOL     OW19209   7.316   6.154   0.911  0.5825  0.0765  0.3526
 4803SOL    HW119210   7.266   6.227   0.946 -0.1082 -0.2668  0.1119
 4803SOL    HW219211   7.316   6.089   0.981  0.0718 -0.2038  0.1041
 4803SOL     MW19212   7.310   6.155   0.924  0.4287 -0.0034  0.2900
 4804SOL     OW19213   9.433   2.365   3.111 -0.0084  0.2614  0.1643
 4804SOL    HW119214   9.491   2.313   3.055 -0.9316  0.3196 -0.8804
 4804SOL    HW219215   9.358   2.308   3.125 -0.3792  0.7620  0.2228
 4804SOL     MW19216   9.431   2.351   3.105 -0.1741  0.3329  0.0381
 4805SOL     OW19217   7.842   7.442   0.803  0.4106  0.0963  0.6961
 4805SOL    HW119218   7.917   7.479   0.756  0.8072 -2.3629 -0.7857
 4805SOL    HW219219   7.767   7.464   0.748  0.4516 -0.0961  0.5645
 4805SOL     MW19220   7.842   7.450   0.790  0.4666 -0.2432  0.4896
 4806SOL     OW19221   7.574   6.870   1.231 -0.1810 -0.5772 -0.2324
 4806SOL    HW119222   7.552   6.926   1.305  1.5363 -1.2855  0.8908
 4806SOL    HW219223   7.513   6.796   1.238 -0.5402 -0.2625  0.0085
 4806SOL     MW19224   7.563   6.867   1.242 -0.0072 -0.6276 -0.0578
 4807SOL     OW19225   9.703   2.104   1.653 -0.4502  0.3799  0.6144
 4807SOL    HW119226   9.730   2.080   1.742  0.4323 -2.9959 -0.3854
 4807SOL    HW219227   9.626   2.050   1.637  0.9978 -1.2691 -1.4918
 4807SOL     MW19228   9.697   2.094   1.662 -0.1519 -0.2633  0.2168
 4808SOL     OW19229   7.501   6.439   0.068 -0.0019 -0.1459 -0.1640
 4808SOL    HW119230   7.412   6.453   0.100 -0.5372 -0.8659 -1.2924
 4808SOL    HW219231   7.529   6.358   0.110 -0.0700 -0.1944 -0.2131
 4808SOL     MW19232   7.493   6.430   0.077 -0.0791 -0.2443 -0.3147
 4809SOL     OW19233   8.554   2.053   2.078  0.0518 -0.0090  0.4338
 4809SOL    HW119234   8.532   2.140   2.044  0.5400  0.0925  0.3652
 4809SOL    HW219235   8.523   2.053   2.168 -0.5237  0.0092  0.2397
 4809SOL     MW19236   8.548   2.064   2.085  0.0406  0.0063  0.4002
 4810SOL     OW19237   7.978   3.923   9.760 -0.6176  0.0986 -0.0312
 4810SOL    HW119238   7.970   3.879   9.676  1.8211  0.0065 -0.2803
 4810SOL    HW219239   7.995   4.014   9.739  2.8367 -0.3856  0.1686
 4810SOL     MW19240   7.979   3.929   9.747  0.1368  0.0248 -0.0375
 4811SOL     OW19241   0.485   9.462   1.356  0.4235  0.4385  0.2814
 4811SOL    HW119242   0.425   9.409   1.408  0.1834  0.8524  0.4317
 4811SOL    HW219243   0.469   9.436   1.265 -1.7027  2.2004  0.0616
 4811SOL     MW19244   0.475   9.452   1.351  0.1206  0.7170  0.2725
 4812SOL     OW19245   6.905   0.357   1.380 -0.6911  0.2178 -0.4357
 4812SOL    HW119246   6.973   0.424   1.389 -0.4085 -0.1769  0.4563
 4812SOL    HW219247   6.893   0.349   1.286 -1.4944  2.2791 -0.5678
 4812SOL     MW19248   6.913   0.365   1.369 -0.7578  0.4311 -0.3384
 4813SOL     OW19249   8.109   1.700   0.094  0.5758 -0.5621  0.4455
 4813SOL    HW119250   8.136   1.644   0.167  0.5865  0.1583  0.9975
 4813SOL    HW219251   8.016   1.678   0.081  0.8332 -1.4323 -0.0074
 4813SOL     MW19252   8.100   1.690   0.102  0.6101 -0.5813  0.4582
 4814SOL     OW19253   7.380   2.504   2.530  0.2837 -0.2038 -0.2614
 4814SOL    HW119254   7.453   2.565   2.521 -0.0799  0.2257 -0.3244
 4814SOL    HW219255   7.307   2.558   2.559  0.1770 -0.7533  0.5187
 4814SOL     MW19256   7.380   2.519   2.533  0.2235 -0.2191 -0.1696
 4815SOL     OW19257   9.645   3.593   0.320  0.3053 -0.3017 -0.2950
 4815SOL    HW119258   9.581   3.599   0.249 -0.1818 -1.8598 -0.0416
 4815SOL    HW219259   9.608   3.528   0.380  0.7756  0.8603  1.3317
 4815SOL     MW19260   9.632   3.585   0.318  0.3032 -0.3524 -0.0543
 4816SOL     OW19261   8.540   4.029   1.064  0.3643 -0.3488  0.0380
 4816SOL    HW119262   8.473   4.089   1.097  0.4197  1.2865 -2.5093
 4816SOL    HW219263   8.605   4.086   1.023  1.9071 -2.0471 -0.0041
 4816SOL     MW19264   8.539   4.044   1.063  0.5689 -0.3569 -0.2935
 4817SOL     OW19265  10.063   0.195   1.570  0.1305 -0.3494  0.3186
 4817SOL    HW119266  10.137   0.254   1.556  1.2575 -1.8864 -0.4613
 4817SOL    HW219267  10.074   0.163   1.659  0.2580 -0.4003  0.2840
 4817SOL     MW19268  10.074   0.199   1.579  0.2911 -0.5527  0.2144
 4818SOL     OW19269   8.255   9.808   1.877 -0.0802  0.1219  0.1333
 4818SOL    HW119270   8.180   9.830   1.821 -0.2752 -2.8679 -0.9769
 4818SOL    HW219271   8.215   9.782   1.960 -0.8453 -4.6377 -1.4235
 4818SOL     MW19272   8.240   9.808   1.881 -0.2031 -0.8701 -0.2081
 4819SOL     OW19273   9.290   0.769  10.007  0.1212 -0.1278  0.0599
 4819SOL    HW119274   9.298   0.737  10.096 -1.1671  0.8579  0.5555
 4819SOL    HW219275   9.336   0.704   9.954  0.8331 -0.7734  1.4134
 4819SOL     MW19276   9.297   0.757  10.011  0.0474 -0.0843  0.2966
 4820SOL     OW19277   9.750   6.860   2.696 -0.2398 -0.4374  0.2465
 4820SOL    HW119278   9.722   6.950   2.714 -0.2171 -0.5756  0.9947
 4820SOL    HW219279   9.713   6.841   2.610 -0.2823  0.2728  0.1012
 4820SOL     MW19280   9.741   6.869   2.687 -0.2424 -0.3642  0.3237
 4821SOL     OW19281   7.154   0.921   2.868  0.0268 -0.3825  0.6311
 4821SOL    HW119282   7.078   0.874   2.902  0.5323 -0.0568  2.2777
 4821SOL    HW219283   7.224   0.904   2.931  1.0454  0.1509 -0.3240
 4821SOL     MW19284   7.153   0.913   2.880  0.2219 -0.2725  0.7197
 4822SOL     OW19285   7.319   6.058   0.085  0.0510 -0.0842  0.4080
 4822SOL    HW119286   7.353   6.091   0.001 -0.3316  2.1181  1.0748
 4822SOL    HW219287   7.330   5.963   0.079  0.4380  0.0532 -1.9586
 4822SOL     MW19288   7.325   6.050   0.073  0.0516  0.2153  0.1904
 4823SOL     OW19289   6.216   6.288   0.193 -0.5949  0.3218  0.0268
 4823SOL    HW119290   6.262   6.285   0.110 -0.3404  1.5474  0.1158
 4823SOL    HW219291   6.239   6.205   0.236  2.5347  1.3604  0.6019
 4823SOL     MW19292   6.225   6.277   0.188 -0.1617  0.6116  0.1118
 4824SOL     OW19293   9.067   8.407   0.127 -0.1734  0.3154 -0.3988
 4824SOL    HW119294   9.030   8.375   0.044 -3.2396 -0.9708  1.2929
 4824SOL    HW219295   9.089   8.499   0.110 -1.9488  0.4549 -2.2948
 4824SOL     MW19296   9.065   8.415   0.114 -0.7932  0.1686 -0.4250
 4825SOL     OW19297   8.014   9.710   0.836 -0.1901 -0.2331  0.2950
 4825SOL    HW119298   8.028   9.659   0.756 -0.5005 -0.6921  0.5256
 4825SOL    HW219299   7.988   9.645   0.901  0.6895  0.0419  0.9461
 4825SOL     MW19300   8.012   9.695   0.834 -0.1172 -0.2567  0.4079
 4826SOL     OW19301   9.892   6.343   1.168  0.1142  0.1027 -0.0363
 4826SOL    HW119302   9.837   6.380   1.237 -1.5733 -1.1515 -0.6533
 4826SOL    HW219303   9.842   6.355   1.088  1.6020  0.6175 -0.9401
 4826SOL     MW19304   9.879   6.349   1.166  0.0886  0.0081 -0.2309
 4827SOL     OW19305   7.615   2.280   0.088  1.1316  0.3259 -0.4900
 4827SOL    HW119306   7.571   2.356   0.049  2.3923  0.4560 -1.7384
 4827SOL    HW219307   7.607   2.212   0.021 -0.2786 -0.7831  0.7540
 4827SOL     MW19308   7.608   2.281   0.074  1.1124  0.2006 -0.4906
 4828SOL     OW19309   0.161   7.131   1.420 -0.4175  0.2891  1.0288
 4828SOL    HW119310   0.091   7.117   1.483 -0.1867  0.2294  1.2737
 4828SOL    HW219311   0.230   7.070   1.447 -0.6526 -0.3642  0.2011
 4828SOL     MW19312   0.161   7.121   1.431 -0.4181  0.1979  0.9542
 4829SOL     OW19313   7.767   0.648   8.833 -0.3163  0.1084  0.0524
 4829SOL    HW119314   7.746   0.563   8.871  0.5944 -0.3544 -0.4293
 4829SOL    HW219315   7.689   0.672   8.783  0.2359 -1.6111 -1.7923
 4829SOL     MW19316   7.754   0.640   8.831 -0.1291 -0.1710 -0.2454
 4830SOL     OW19317   8.222   3.867   9.376 -0.2277 -0.1818 -0.9557
 4830SOL    HW119318   8.256   3.810   9.446  0.1883 -0.2934 -1.2452
 4830SOL    HW219319   8.278   3.945   9.380 -1.2773  0.5586 -0.0581
 4830SOL     MW19320   8.234   3.870   9.386 -0.3088 -0.1013 -0.8779
 4831SOL     OW19321   7.471   8.192   1.910 -0.1984 -0.3818 -0.1592
 4831SOL    HW119322   7.540   8.255   1.888  0.7701 -0.8885  1.2654
 4831SOL    HW219323   7.431   8.170   1.826 -0.6423  2.1752 -0.6800
 4831SOL     MW19324   7.475   8.197   1.897 -0.1313 -0.1193 -0.0435
 4832SOL     OW19325   7.445   0.365  -0.013 -0.4144  0.1656  1.0686
 4832SOL    HW119326   7.389   0.443  -0.013 -0.5692  0.2247 -2.5683
 4832SOL    HW219327   7.399   0.302   0.041 -1.6193  1.7440  1.9696
 4832SOL     MW19328   7.432   0.367  -0.006 -0.5885  0.3752  0.7184
 4833SOL     OW19329   7.328   0.555   9.850  0.1889  0.1292 -0.2718
 4833SOL    HW119330   7.359   0.559   9.759  1.7096 -0.0072  0.2183
 4833SOL    HW219331   7.408   0.561   9.903 -0.7570  1.7306  1.0962
 4833SOL     MW19332   7.342   0.557   9.845  0.2625  0.3167 -0.0339
 4834SOL     OW19333   6.513   1.850   1.828 -0.3765 -0.3560 -0.1213
 4834SOL    HW119334   6.486   1.891   1.910 -0.0120 -0.0253 -0.1608
 4834SOL    HW219335   6.466   1.898   1.760  0.6465  0.5479 -0.2266
 4834SOL     MW19336   6.504   1.861   1.830 -0.1989 -0.1980 -0.1399
 4835SOL     OW19337   8.644   1.425   2.520  0.4027  0.0345  0.3502
 4835SOL    HW119338   8.668   1.494   2.458 -1.2945  2.1319  1.9270
 4835SOL    HW219339   8.575   1.376   2.475 -2.0000  2.5431  1.0252
 4835SOL     MW19340   8.638   1.427   2.506 -0.1222  0.6241  0.6385
 4836SOL     OW19341   8.562   1.446   0.942  0.0711  0.1837  0.2016
 4836SOL    HW119342   8.569   1.535   0.907 -0.1479  0.6168  1.2341
 4836SOL    HW219343   8.499   1.453   1.014 -0.2979 -0.9011  0.0071
 4836SOL     MW19344   8.555   1.458   0.946 -0.0042  0.1003  0.3089
 4837SOL     OW19345   8.524   1.006   9.327  0.1912  0.0970 -0.6860
 4837SOL    HW119346   8.539   1.011   9.233  2.8982  2.3577 -0.2401
 4837SOL    HW219347   8.610   0.989   9.365 -0.9268 -1.3585  1.3927
 4837SOL     MW19348   8.537   1.005   9.320  0.3946  0.2001 -0.3628
 4838SOL     OW19349   7.327   0.038   2.700  0.6325  0.1764 -0.2335
 4838SOL    HW119350   7.370   0.018   2.617  0.9537  0.2145 -0.0781
 4838SOL    HW219351   7.379  -0.008   2.766  0.7568  0.6599  0.0132
 4838SOL     MW19352   7.339   0.030   2.698  0.6896  0.2432 -0.1821
 4839SOL     OW19353   9.775   1.920   2.709 -0.6981  0.5144  0.1577
 4839SOL    HW119354   9.705   1.977   2.677 -1.0017  0.1318  0.1329
 4839SOL    HW219355   9.741   1.883   2.790 -0.6238  0.1443  0.0228
 4839SOL     MW19356   9.761   1.922   2.715 -0.7275  0.4181  0.1373
 4840SOL     OW19357   8.704   5.148   3.293  0.4847  0.0050 -0.4762
 4840SOL    HW119358   8.665   5.187   3.372 -0.3088 -2.1086  0.2699
 4840SOL    HW219359   8.649   5.180   3.221 -0.2991  0.0650  0.1277
 4840SOL     MW19360   8.692   5.157   3.294  0.2828 -0.2579 -0.3034
 4841SOL     OW19361   8.350   9.576   8.946  0.5390 -0.1021 -1.1273
 4841SOL    HW119362   8.314   9.537   9.025  0.8659  1.0452 -0.3903
 4841SOL    HW219363   8.274   9.610   8.898  0.4250  0.1266 -0.7851
 4841SOL     MW19364   8.336   9.576   8.950  0.5663  0.0740 -0.9891
 4842SOL     OW19365   7.507   2.170   3.114  0.3211 -0.4045  0.5557
 4842SOL    HW119366   7.597   2.199   3.126  1.1095 -1.8972 -1.3020
 4842SOL    HW219367   7.488   2.186   3.022 -1.4432  0.1270  0.9636
 4842SOL     MW19368   7.516   2.176   3.104  0.1962 -0.5275  0.3701
 4843SOL     OW19369   8.166   2.153   0.807 -0.2306  0.5461  0.0766
 4843SOL    HW119370   8.260   2.166   0.810 -0.2132  1.6385 -2.5065
 4843SOL    HW219371   8.132   2.203   0.881  1.1471  1.0267  0.4031
 4843SOL     MW19372   8.174   2.161   0.817 -0.0520  0.7475 -0.2123
 4844SOL     OW19373   8.063   8.842   2.104 -0.1685  0.1922  0.1454
 4844SOL    HW119374   8.010   8.833   2.183 -0.8225  2.0935 -0.0284
 4844SOL    HW219375   8.153   8.842   2.136 -0.3708 -0.4064  0.7405
 4844SOL     MW19376   8.067   8.841   2.118 -0.2781  0.3589  0.1994
 4845SOL     OW19377   9.779   9.960   9.839  0.1306  0.2336 -0.4413
 4845SOL    HW119378   9.801   9.913   9.758 -0.5730 -1.1945  0.1795
 4845SOL    HW219379   9.684   9.954   9.846  0.2106  0.0206  0.6727
 4845SOL     MW19380   9.770   9.954   9.829  0.0508  0.0236 -0.2192
 4846SOL     OW19381   8.978   8.311   1.688  0.2111  0.2644 -0.1010
 4846SOL    HW119382   8.963   8.377   1.621  0.5245  0.4226 -0.0148
 4846SOL    HW219383   8.922   8.337   1.761 -0.4852 -0.1627 -0.4696
 4846SOL     MW19384   8.969   8.322   1.689  0.1621  0.2300 -0.1371
 4847SOL     OW19385   7.434   1.099   1.934  0.2244 -0.2030  0.0725
 4847SOL    HW119386   7.371   1.035   1.899  0.1618  1.2430 -2.7799
 4847SOL    HW219387   7.389   1.184   1.924  1.2177  0.5383  1.5420
 4847SOL     MW19388   7.420   1.102   1.928  0.3436  0.0770 -0.1045
 4848SOL     OW19389   7.519   7.703   0.948 -0.2635 -0.1466  0.1061
 4848SOL    HW119390   7.493   7.610   0.947 -1.7047  0.2309 -0.0756
 4848SOL    HW219391   7.614   7.702   0.933 -0.2557 -1.5894  0.1184
 4848SOL     MW19392   7.528   7.691   0.946 -0.4470 -0.2830  0.0844
 4849SOL     OW19393   0.205   3.265   0.349  0.0232 -0.2849  0.1922
 4849SOL    HW119394   0.256   3.214   0.412  0.2373 -0.6105 -0.2365
 4849SOL    HW219395   0.208   3.355   0.382  1.1675 -0.2365  0.0053
 4849SOL     MW19396   0.212   3.270   0.361  0.1971 -0.3204  0.1133
 4850SOL     OW19397   9.877   7.178   1.411 -0.3626  0.0729 -0.3732
 4850SOL    HW119398   9.833   7.159   1.328  1.0615 -1.6004 -0.7791
 4850SOL    HW219399   9.923   7.261   1.395 -0.1592 -0.1998 -1.2203
 4850SOL     MW19400   9.877   7.186   1.399 -0.1543 -0.1762 -0.5336
 4851SOL     OW19401   8.905   4.782   1.316  0.2533 -0.0771 -0.0180
 4851SOL    HW119402   8.923   4.711   1.377 -0.0059  0.7426  1.0348
 4851SOL    HW219403   8.891   4.738   1.232  1.3870 -1.1675  0.3286
 4851SOL     MW19404   8.906   4.768   1.313  0.3652 -0.1118  0.1611
 4852SOL     OW19405   7.854   7.074   2.920 -0.1251 -0.4090 -0.0190
 4852SOL    HW119406   7.869   6.983   2.893 -1.5737 -0.6927  0.0565
 4852SOL    HW219407   7.760   7.080   2.933 -0.0373  1.0814  0.1108
 4852SOL     MW19408   7.844   7.063   2.918 -0.2993 -0.2545  0.0073
 4853SOL     OW19409   9.076   9.076   9.410  0.4049  0.3146  0.0019
 4853SOL    HW119410   9.028   9.145   9.456  0.0365  0.3198 -0.3833
 4853SOL    HW219411   9.009   9.027   9.363  0.4816 -1.2648  1.4735
 4853SOL     MW19412   9.061   9.079   9.410  0.3675  0.1131  0.1410
 4854SOL     OW19413   9.220   5.429   0.831 -0.2294 -0.4098  0.2647
 4854SOL    HW119414   9.169   5.388   0.761 -0.5687 -1.0483  0.8659
 4854SOL    HW219415   9.176   5.513   0.847  0.7917  0.4721 -1.3435
 4854SOL     MW19416   9.208   5.434   0.824 -0.1421 -0.3786  0.1357
 4855SOL     OW19417   7.176   1.415   9.047  0.2228  0.0122  0.3351
 4855SOL    HW119418   7.173   1.411   8.952 -0.9729 -1.6918  0.4028
 4855SOL    HW219419   7.181   1.509   9.067 -1.5042  0.5303 -1.3621
 4855SOL     MW19420   7.176   1.427   9.038 -0.1513 -0.1396  0.1265
 4856SOL     OW19421   8.624   2.058   0.820 -0.1017 -0.3425  0.5180
 4856SOL    HW119422   8.554   2.113   0.785 -1.1744 -0.9972  1.5333
 4856SOL    HW219423   8.618   2.071   0.915  1.2705 -0.3011  0.6124
 4856SOL     MW19424   8.614   2.067   0.828 -0.0634 -0.4210  0.6600
 4857SOL     OW19425   9.203   8.573   9.069 -0.4166 -0.1202  0.8241
 4857SOL    HW119426   9.114   8.566   9.105 -1.1056 -0.2732 -0.8134
 4857SOL    HW219427   9.190   8.579   8.974  1.3618 -0.8575  0.4905
 4857SOL     MW19428   9.190   8.573   9.062 -0.2772 -0.2342  0.5718
 4858SOL     OW19429   7.860   6.608   2.282 -0.0459  0.0186  0.3278
 4858SOL    HW119430   7.814   6.530   2.250 -2.0117  0.2198  2.3659
 4858SOL    HW219431   7.792   6.675   2.289  1.0159  1.0406  1.3519
 4858SOL     MW19432   7.845   6.606   2.279 -0.1616  0.1752  0.7198
 4859SOL     OW19433   6.318   2.206   0.546  0.7185 -0.2101 -0.0909
 4859SOL    HW119434   6.296   2.140   0.612 -0.4123  0.6643  0.4336
 4859SOL    HW219435   6.388   2.165   0.494 -0.2476 -1.9973 -0.0734
 4859SOL     MW19436   6.324   2.192   0.548  0.4501 -0.3270 -0.0215
 4860SOL     OW19437   6.667   6.882   1.432 -0.2433  0.3686 -0.2495
 4860SOL    HW119438   6.688   6.972   1.410  0.9585 -0.1688 -1.4370
 4860SOL    HW219439   6.750   6.844   1.462 -0.7567 -0.3181  0.3487
 4860SOL     MW19440   6.680   6.888   1.433 -0.1552  0.2119 -0.3250
 4861SOL     OW19441   6.838   8.483   0.121  0.4869  0.1504  0.8031
 4861SOL    HW119442   6.819   8.545   0.192  0.6820  0.1527  0.8534
 4861SOL    HW219443   6.761   8.489   0.064  0.1661 -0.1093  1.1963
 4861SOL     MW19444   6.826   8.492   0.123  0.4708  0.1174  0.8599
 4862SOL     OW19445   6.488  10.114   1.991 -0.2990  0.1399  0.0119
 4862SOL    HW119446   6.449  10.180   2.049 -0.0648 -0.0162  0.3488
 4862SOL    HW219447   6.421  10.047   1.982  0.2840 -0.7077  1.5381
 4862SOL     MW19448   6.475  10.114   1.997 -0.1944  0.0114  0.2504
 4863SOL     OW19449   7.998   9.920   0.593 -0.3763  0.0395  0.1217
 4863SOL    HW119450   8.040   9.932   0.678  0.3777  0.4513 -0.2895
 4863SOL    HW219451   8.041   9.984   0.536 -0.0061 -1.0386 -0.8615
 4863SOL     MW19452   8.009   9.930   0.597 -0.2324 -0.0458 -0.0568
 4864SOL     OW19453   7.081   7.338   1.373  0.4162 -0.0571 -0.0181
 4864SOL    HW119454   7.008   7.355   1.432  0.9532 -1.2850  1.0434
 4864SOL    HW219455   7.155   7.384   1.414  0.7062 -0.5959  0.0716
 4864SOL     MW19456   7.081   7.346   1.386  0.5221 -0.2833  0.1293
 4865SOL     OW19457   7.855   3.596   1.205  0.5190 -0.4182 -0.5124
 4865SOL    HW119458   7.908   3.519   1.186  1.7795  0.4000 -0.4075
 4865SOL    HW219459   7.907   3.647   1.267 -1.6313 -0.9313  1.8727
 4865SOL     MW19460   7.868   3.593   1.210  0.4051 -0.3792 -0.1936
 4866SOL     OW19461   8.272   6.869   1.341 -0.3277  0.2886 -0.1949
 4866SOL    HW119462   8.210   6.808   1.382 -1.4051  0.8804 -0.9026
 4866SOL    HW219463   8.338   6.884   1.409 -0.3183 -1.2372  0.1826
 4866SOL     MW19464   8.273   6.863   1.355 -0.4644  0.1691 -0.2372
 4867SOL     OW19465   9.173   0.128   0.973 -0.0686  0.0896  0.2262
 4867SOL    HW119466   9.156   0.209   1.022 -1.0055  0.8577 -1.2802
 4867SOL    HW219467   9.099   0.071   0.995 -0.6824  0.5705 -0.5215
 4867SOL     MW19468   9.161   0.131   0.982 -0.2671  0.2495 -0.0624
 4868SOL     OW19469  10.046   3.410   0.407  0.4018  0.2636  0.2046
 4868SOL    HW119470  10.123   3.463   0.388 -0.5053  1.4288 -0.3485
 4868SOL    HW219471   9.980   3.439   0.343  0.2463 -2.4341 -1.0144
 4868SOL     MW19472  10.047   3.421   0.396  0.2658  0.0675 -0.0222
 4869SOL     OW19473   6.585   1.908   1.163  0.2610 -0.3936  0.0117
 4869SOL    HW119474   6.540   1.830   1.129  1.9177 -1.3206 -0.1786
 4869SOL    HW219475   6.621   1.880   1.247  1.3756 -0.0597 -0.3254
 4869SOL     MW19476   6.584   1.894   1.169  0.6157 -0.4695 -0.0558
 4870SOL     OW19477   6.272   6.885   1.018  0.0768  0.0142  0.3378
 4870SOL    HW119478   6.360   6.917   1.039 -0.6940  2.1285  0.6086
 4870SOL    HW219479   6.227   6.884   1.103 -0.1889 -1.0717  0.2020
 4870SOL     MW19480   6.278   6.889   1.032 -0.0559  0.1459  0.3551
 4871SOL     OW19481   8.273   5.430  10.070 -0.3796 -0.1864  0.0494
 4871SOL    HW119482   8.362   5.402  10.047  0.7287  1.1760  2.3153
 4871SOL    HW219483   8.243   5.479   9.993 -0.2157 -2.7128 -1.7320
 4871SOL     MW19484   8.281   5.433  10.057 -0.2168 -0.3354  0.1114
 4872SOL     OW19485   9.828  10.033   9.439  0.4974  0.5494 -0.1205
 4872SOL    HW119486   9.861   9.959   9.489  0.9762  0.4210 -0.6175
 4872SOL    HW219487   9.739  10.008   9.415  0.4656  0.3712  0.1816
 4872SOL     MW19488   9.821  10.020   9.442  0.5546  0.5102 -0.1454
 4873SOL     OW19489   7.755   4.164   2.381  0.0068  0.2011  0.1358
 4873SOL    HW119490   7.783   4.205   2.463 -0.3311 -1.6069  1.2275
 4873SOL    HW219491   7.757   4.234   2.317  1.2254  1.4764  1.4774
 4873SOL     MW19492   7.759   4.178   2.384  0.1195  0.1329  0.4473
 4874SOL     OW19493   7.444   4.704   1.968 -0.4209 -0.7772 -0.1442
 4874SOL    HW119494   7.378   4.741   2.027  0.6091 -1.4817  1.5128
 4874SOL    HW219495   7.418   4.735   1.881 -1.6063  0.8736  0.7359
 4874SOL     MW19496   7.432   4.713   1.964 -0.4408 -0.6561  0.1806
 4875SOL     OW19497   8.555   8.489   8.600  0.0556  0.4944 -0.0860
 4875SOL    HW119498   8.484   8.521   8.656  0.0095  1.6047 -0.7578
 4875SOL    HW219499   8.534   8.523   8.513  0.3524 -0.8566 -0.7089
 4875SOL     MW19500   8.543   8.497   8.596  0.0877  0.4636 -0.2518
 4876SOL     OW19501   8.906   1.399   0.684 -0.2706 -0.0722  0.1359
 4876SOL    HW119502   8.834   1.351   0.643 -0.4722  0.3338  0.0182
 4876SOL    HW219503   8.886   1.491   0.669 -0.0520  0.0623  0.6575
 4876SOL     MW19504   8.894   1.405   0.677 -0.2684 -0.0030  0.1876
 4877SOL     OW19505   7.121   6.265   1.809 -0.4567  0.0861  0.3445
 4877SOL    HW119506   7.196   6.207   1.815 -0.0176  0.4492 -1.1888
 4877SOL    HW219507   7.114   6.306   1.896  0.6859 -0.4648  0.7004
 4877SOL     MW19508   7.129   6.263   1.821 -0.2542  0.0620  0.1937
 4878SOL     OW19509   7.051   6.403   2.022 -0.7763 -0.4235 -0.5003
 4878SOL    HW119510   6.963   6.440   2.015 -1.0333 -0.4638  1.8308
 4878SOL    HW219511   7.080   6.425   2.110  1.5778 -0.4159 -1.2056
 4878SOL     MW19512   7.044   6.410   2.032 -0.5078 -0.4277 -0.2922
 4879SOL     OW19513   6.694   7.576   1.660 -0.0727 -0.1682  0.5329
 4879SOL    HW119514   6.609   7.555   1.622 -0.5046  2.2223 -0.0348
 4879SOL    HW219515   6.758   7.543   1.598 -0.7084  0.8196 -0.7077
 4879SOL     MW19516   6.691   7.569   1.647 -0.2094  0.2643  0.3014
 4880SOL     OW19517   8.146   7.422   9.657  0.0595  0.0370 -0.8615
 4880SOL    HW119518   8.098   7.476   9.594 -0.9035 -1.9740 -1.9726
 4880SOL    HW219519   8.108   7.334   9.647  2.7154 -1.2768 -0.4634
 4880SOL     MW19520   8.135   7.417   9.647  0.2762 -0.3886 -0.9528
 4881SOL     OW19521   7.509   7.730   9.744  0.1006 -0.1529  0.6812
 4881SOL    HW119522   7.516   7.708   9.651 -1.3506  0.3800  0.4207
 4881SOL    HW219523   7.497   7.645   9.787 -1.2957 -0.2667  0.1326
 4881SOL     MW19524   7.508   7.716   9.738 -0.2639 -0.0992  0.5776
 4882SOL     OW19525   6.203   0.483   9.535 -0.3797  0.2090  0.2454
 4882SOL    HW119526   6.205   0.568   9.578 -0.3667 -0.1294  0.9225
 4882SOL    HW219527   6.134   0.491   9.469  1.3887  1.6002 -1.5479
 4882SOL     MW19528   6.194   0.495   9.532 -0.1517  0.3438  0.1025
 4883SOL     OW19529   8.921   0.201   0.176  0.1292  0.0542  0.0007
 4883SOL    HW119530   8.884   0.283   0.143  2.1293  0.3637 -1.6773
 4883SOL    HW219531   8.973   0.227   0.252 -0.7686  0.0145  0.6521
 4883SOL     MW19532   8.923   0.215   0.182  0.2703  0.0887 -0.1307
 4884SOL     OW19533   8.376   9.848   9.057 -0.3892 -0.2170  0.0189
 4884SOL    HW119534   8.382   9.769   9.003 -1.1840  0.0613 -0.4903
 4884SOL    HW219535   8.307   9.900   9.016  0.9967  1.3507 -0.4299
 4884SOL     MW19536   8.368   9.845   9.045 -0.3135  0.0193 -0.1037
 4885SOL     OW19537   9.475   3.812   0.427  0.5062 -0.0884 -0.2028
 4885SOL    HW119538   9.537   3.775   0.364  0.0253 -0.5062 -0.4330
 4885SOL    HW219539   9.521   3.888   0.463  0.9483 -0.0827 -0.7556
 4885SOL     MW19540   9.489   3.817   0.423  0.5013 -0.1412 -0.3030
 4886SOL     OW19541   9.794   7.886   1.727 -0.1193 -0.0387  0.3219
 4886SOL    HW119542   9.762   7.967   1.687  2.1299  0.6912 -0.1467
 4886SOL    HW219543   9.874   7.912   1.774 -1.1431 -1.4012  3.0317
 4886SOL     MW19544   9.800   7.900   1.728  0.0376 -0.1197  0.6088
 4887SOL     OW19545   6.762   5.238   2.002  0.0393  0.3995 -0.3219
 4887SOL    HW119546   6.748   5.221   1.909 -1.1740 -1.0481  0.0798
 4887SOL    HW219547   6.837   5.183   2.026  0.3282  0.7440 -0.4267
 4887SOL     MW19548   6.770   5.229   1.993 -0.0790  0.2583 -0.2839
 4888SOL     OW19549   7.177   6.200   2.654 -0.2281 -0.2336 -0.2561
 4888SOL    HW119550   7.093   6.244   2.643 -0.6567 -1.2536 -1.3166
 4888SOL    HW219551   7.173   6.159   2.740 -0.3775  0.6142  0.1459
 4888SOL     MW19552   7.166   6.200   2.663 -0.3021 -0.2556 -0.3404
 4889SOL     OW19553   6.621   4.169   1.692  0.2743  0.7000 -0.1762
 4889SOL    HW119554   6.669   4.193   1.772 -0.1400  2.2496 -0.3746
 4889SOL    HW219555   6.662   4.219   1.623 -0.8053  1.0726 -0.5644
 4889SOL     MW19556   6.632   4.178   1.694  0.0830  0.9460 -0.2513
 4890SOL     OW19557   7.210   5.096   1.317 -0.1039  0.7321 -0.0210
 4890SOL    HW119558   7.153   5.091   1.393  0.1966  1.4817  0.2597
 4890SOL    HW219559   7.259   5.014   1.318 -0.1616  0.7052  0.5434
 4890SOL     MW19560   7.209   5.085   1.327 -0.0728  0.8246  0.0872
 4891SOL     OW19561   8.690   7.834   1.122 -0.1067  0.3584  0.2844
 4891SOL    HW119562   8.764   7.838   1.062  0.0081 -2.5403  0.0926
 4891SOL    HW219563   8.643   7.755   1.098 -2.3345  1.2035  1.5150
 4891SOL     MW19564   8.694   7.825   1.111 -0.3772  0.0955  0.4174
 4892SOL     OW19565   8.047   1.834   1.270  0.6344 -0.2171 -0.2050
 4892SOL    HW119566   7.967   1.831   1.323  0.2991 -0.6888 -0.7336
 4892SOL    HW219567   8.105   1.894   1.318 -0.1847  0.4637 -0.0356
 4892SOL     MW19568   8.044   1.842   1.283  0.4866 -0.1903 -0.2510
 4893SOL     OW19569   7.120   8.514   0.982 -0.2296 -0.0114  0.2911
 4893SOL    HW119570   7.192   8.559   1.027 -1.1205  0.1727  1.6117
 4893SOL    HW219571   7.124   8.424   1.014 -1.4786  0.3508  1.6098
 4893SOL     MW19572   7.130   8.508   0.992 -0.5036  0.0585  0.6290
 4894SOL     OW19573   0.012   7.002   1.235  0.3210  0.0361 -0.3098
 4894SOL    HW119574   0.064   7.056   1.295 -0.3698 -1.2771  1.5934
 4894SOL    HW219575   0.073   6.936   1.203  0.5827  0.4591 -0.6901
 4894SOL     MW19576   0.026   7.000   1.239  0.2661 -0.0778 -0.1148
 4895SOL     OW19577   9.743   4.877   1.027 -0.1515  0.4529 -0.2068
 4895SOL    HW119578   9.665   4.847   1.074 -1.7559  0.5464 -2.6147
 4895SOL    HW219579   9.793   4.797   1.011 -0.0522  0.3012  0.7931
 4895SOL     MW19580   9.739   4.863   1.031 -0.3442  0.4455 -0.3870
 4896SOL     OW19581   7.729   1.858   0.018 -0.3062 -0.2618 -0.1905
 4896SOL    HW119582   7.774   1.911   0.083 -0.5140  0.4434 -0.6095
 4896SOL    HW219583   7.773   1.773   0.021 -0.3682 -0.2594  0.9144
 4896SOL     MW19584   7.741   1.854   0.026 -0.3407 -0.1712 -0.1027
 4897SOL     OW19585   6.258   9.048   0.448 -0.0854 -0.7284 -0.2044
 4897SOL    HW119586   6.281   8.956   0.434 -0.7024 -1.3903  2.5557
 4897SOL    HW219587   6.183   9.045   0.507 -0.0635  1.5648  0.0176
 4897SOL     MW19588   6.251   9.036   0.454 -0.1616 -0.5196  0.1773
 4898SOL     OW19589   7.434   9.097   1.610 -0.3630 -0.2683  0.7651
 4898SOL    HW119590   7.525   9.074   1.628  0.2122 -0.8090 -2.1881
 4898SOL    HW219591   7.383   9.024   1.646  0.5879 -1.0301  0.6173
 4898SOL     MW19592   7.439   9.084   1.617 -0.1676 -0.4350  0.3681
 4899SOL     OW19593   6.799  10.004   0.698  0.1462 -0.6596  0.0509
 4899SOL    HW119594   6.730  10.055   0.739 -0.3952 -0.9305 -0.5048
 4899SOL    HW219595   6.859  10.069   0.660 -0.0996 -0.4314  0.0557
 4899SOL     MW19596   6.798  10.018   0.698  0.0454 -0.6651 -0.0196
 4900SOL     OW19597   6.548   4.464   1.190 -0.2374 -0.2174 -0.0874
 4900SOL    HW119598   6.555   4.485   1.283 -1.7663 -2.4840  0.6089
 4900SOL    HW219599   6.454   4.463   1.172 -0.0050 -0.8895 -1.3864
 4900SOL     MW19600   6.537   4.467   1.199 -0.4033 -0.5936 -0.1646
 4901SOL     OW19601   8.527   0.227   9.802 -0.0402  0.4258 -0.4166
 4901SOL    HW119602   8.487   0.314   9.800  1.0409  0.9869  0.7849
 4901SOL    HW219603   8.498   0.190   9.886  0.7501  0.2506 -0.2140
 4901SOL     MW19604   8.518   0.233   9.813  0.1994  0.4752 -0.2369
 4902SOL     OW19605   7.653   2.571   2.445 -0.2753 -0.1912  0.2365
 4902SOL    HW119606   7.684   2.536   2.529 -1.6225  0.3802  1.0006
 4902SOL    HW219607   7.629   2.662   2.464 -1.0344 -0.1896 -0.6525
 4902SOL     MW19608   7.654   2.578   2.459 -0.5450 -0.1178  0.2205
 4903SOL     OW19609   7.534   4.301   0.592  0.2086  0.0937 -0.2674
 4903SOL    HW119610   7.537   4.351   0.510 -0.7876  1.1110  0.2896
 4903SOL    HW219611   7.624   4.302   0.625  0.6670 -0.5063 -1.4260
 4903SOL     MW19612   7.546   4.307   0.585  0.1398  0.1471 -0.3444
 4904SOL     OW19613   6.666   8.608   1.394 -0.0036 -0.3837 -0.1222
 4904SOL    HW119614   6.753   8.601   1.355 -0.1523 -2.2905 -0.2089
 4904SOL    HW219615   6.679   8.662   1.472  0.6571  1.8538 -1.6959
 4904SOL     MW19616   6.678   8.614   1.399  0.0620 -0.3414 -0.3347
 4905SOL     OW19617   8.773   3.777   9.453 -0.0914 -0.2534  0.1655
 4905SOL    HW119618   8.832   3.741   9.519  0.0784  0.5426  0.4608
 4905SOL    HW219619   8.799   3.869   9.445 -1.3649  0.1502  0.4006
 4905SOL     MW19620   8.784   3.784   9.460 -0.2327 -0.0999  0.2334
 4906SOL     OW19621   6.785   7.736   0.851  0.1591  0.3722  0.1342
 4906SOL    HW119622   6.711   7.780   0.893  0.2592  0.8184 -0.1544
 4906SOL    HW219623   6.852   7.803   0.844  0.8248 -0.1770  0.9449
 4906SOL     MW19624   6.784   7.750   0.856  0.2571  0.3590  0.2010
 4907SOL     OW19625   9.092   1.401   1.357  0.4253  0.3094 -0.0923
 4907SOL    HW119626   9.159   1.376   1.293  1.4021  0.1840  0.9576
 4907SOL    HW219627   9.107   1.342   1.431  0.3269  1.4881  0.8878
 4907SOL     MW19628   9.103   1.390   1.358  0.5378  0.4442  0.1676
 4908SOL     OW19629   9.382   8.474   0.928  0.2849 -0.1938  0.4569
 4908SOL    HW119630   9.385   8.568   0.913  1.0950 -0.0193  1.5519
 4908SOL    HW219631   9.450   8.438   0.871  1.4380  0.1460  1.5705
 4908SOL     MW19632   9.391   8.481   0.919  0.5362 -0.1279  0.7396
 4909SOL     OW19633   6.917   6.708   2.057 -0.2116 -0.3829 -0.4481
 4909SOL    HW119634   6.856   6.696   1.984 -2.1263  0.1715  0.9965
 4909SOL    HW219635   6.894   6.793   2.094  0.8897 -0.5459  0.6599
 4909SOL     MW19636   6.906   6.717   2.053 -0.3158 -0.3328 -0.1213
 4910SOL     OW19637   7.755   4.996   2.647  0.1494  0.3406  0.1738
 4910SOL    HW119638   7.753   4.910   2.689  0.4985  1.6006  3.0890
 4910SOL    HW219639   7.671   5.004   2.603  0.1792 -1.5205 -0.2973
 4910SOL     MW19640   7.744   4.986   2.647  0.1979  0.2637  0.4867
 4911SOL     OW19641   6.497   7.389   0.158 -0.0111 -0.9241  0.3509
 4911SOL    HW119642   6.448   7.418   0.081  1.4582  1.3253  0.1797
 4911SOL    HW219643   6.547   7.313   0.127  1.1194  0.3777 -1.1938
 4911SOL     MW19644   6.498   7.383   0.144  0.3217 -0.4695  0.1312
 4912SOL     OW19645   6.958   7.938   0.932  0.6753  0.3081 -0.4946
 4912SOL    HW119646   6.879   7.992   0.933  0.6706  0.3146 -0.9108
 4912SOL    HW219647   6.997   7.951   1.018 -1.2560 -1.9150  0.8433
 4912SOL     MW19648   6.953   7.946   0.943  0.4275  0.0243 -0.3766
 4913SOL     OW19649   7.610   2.556   9.872 -0.2279 -0.2425  0.4478
 4913SOL    HW119650   7.646   2.497   9.939 -0.7270  0.2058  1.1182
 4913SOL    HW219651   7.636   2.516   9.789 -0.1057 -1.1238  0.8993
 4913SOL     MW19652   7.618   2.543   9.870 -0.2762 -0.2980  0.5914
 4914SOL     OW19653   9.679   9.815   2.477 -0.0004 -0.0251 -0.4555
 4914SOL    HW119654   9.615   9.817   2.547 -0.0100  1.6306 -0.4644
 4914SOL    HW219655   9.719   9.902   2.479  2.0927 -0.9259 -0.5906
 4914SOL     MW19656   9.676   9.827   2.486  0.2663  0.0716 -0.4739
 4915SOL     OW19657   9.473   0.099   1.071  0.1388  0.3064  0.3791
 4915SOL    HW119658   9.420   0.095   1.151  0.0152  0.3916  0.3022
 4915SOL    HW219659   9.432   0.168   1.019 -1.5830 -1.6610 -1.0327
 4915SOL     MW19660   9.461   0.107   1.075 -0.0974  0.0654  0.1885
 4916SOL     OW19661   9.040   8.546   8.797  0.7862 -0.3470  0.4408
 4916SOL    HW119662   8.977   8.485   8.834 -0.1347  1.1213  1.3651
 4916SOL    HW219663   8.996   8.631   8.797  2.5401  0.6263  0.5636
 4916SOL     MW19664   9.026   8.549   8.801  0.8929 -0.0344  0.5748
 4917SOL     OW19665   9.415   8.169   2.508 -0.0738 -0.5461  0.3611
 4917SOL    HW119666   9.374   8.219   2.437  0.4830 -0.9883 -0.2877
 4917SOL    HW219667   9.433   8.083   2.469 -1.1198 -1.3143  1.4834
 4917SOL     MW19668   9.412   8.164   2.494 -0.1364 -0.7010  0.4217
 4918SOL     OW19669   8.925   8.915   0.242 -0.2030  0.2713  0.1210
 4918SOL    HW119670   8.834   8.944   0.243 -0.4004 -0.2393 -0.9112
 4918SOL    HW219671   8.976   8.995   0.254 -0.7590  0.8752 -1.2653
 4918SOL     MW19672   8.920   8.929   0.244 -0.2995  0.2832 -0.1886
 4919SOL     OW19673   6.491   0.083   1.056 -0.1722 -0.8395 -0.8862
 4919SOL    HW119674   6.502   0.100   1.150  1.3376 -2.0208 -0.8071
 4919SOL    HW219675   6.437   0.004   1.052 -0.9015 -0.3336 -1.0341
 4919SOL     MW19676   6.486   0.075   1.068 -0.0723 -0.9259 -0.8950
 4920SOL     OW19677  10.026   6.070   1.757 -0.4709 -0.6726  0.0181
 4920SOL    HW119678   9.937   6.078   1.792 -1.2696 -0.8867 -1.8241
 4920SOL    HW219679  10.070   6.151   1.782 -1.6797  0.1114 -0.2964
 4920SOL     MW19680  10.020   6.081   1.764 -0.7279 -0.5996 -0.2580
 4921SOL     OW19681   8.792   7.927   9.682  0.2574  0.6059 -0.0207
 4921SOL    HW119682   8.708   7.971   9.697  0.3782  0.9352 -0.3001
 4921SOL    HW219683   8.853   7.998   9.664  0.7314  0.4100  0.7587
 4921SOL     MW19684   8.789   7.942   9.682  0.3335  0.6230  0.0433
 4922SOL     OW19685   8.359   7.883   2.089  0.0831 -0.3459  0.2318
 4922SOL    HW119686   8.355   7.927   2.004 -0.9360 -0.4121  0.2356
 4922SOL    HW219687   8.443   7.838   2.088  0.6078  0.6120 -0.2645
 4922SOL     MW19688   8.369   7.883   2.078  0.0198 -0.2317  0.1688
 4923SOL     OW19689   6.277   6.069   0.683  0.3188 -0.1887  0.0885
 4923SOL    HW119690   6.286   5.980   0.651  0.2604 -0.1727  0.0271
 4923SOL    HW219691   6.367   6.101   0.692  0.5808 -1.5369  3.8030
 4923SOL     MW19692   6.290   6.062   0.680  0.3449 -0.3593  0.5562
 4924SOL     OW19693   7.655   7.465   2.584  0.4849  0.0816  0.1593
 4924SOL    HW119694   7.646   7.523   2.508  2.1249  0.5969  0.3123
 4924SOL    HW219695   7.706   7.517   2.647 -3.0508  0.7284  2.7870
 4924SOL     MW19696   7.660   7.479   2.582  0.2422  0.2304  0.5153
 4925SOL     OW19697   7.324   8.944   1.989 -0.0284 -0.3564  0.5473
 4925SOL    HW119698   7.409   8.933   2.032  0.3045  1.1739  0.3297
 4925SOL    HW219699   7.341   8.926   1.897 -0.4199 -2.1336  0.7861
 4925SOL     MW19700   7.337   8.940   1.983 -0.0359 -0.3880  0.5500
 4926SOL     OW19701   8.363   6.833   3.030  0.0480 -0.3387  0.3361
 4926SOL    HW119702   8.303   6.906   3.046  1.4710  1.0302 -0.3713
 4926SOL    HW219703   8.333   6.795   2.948 -0.8169 -0.7086  0.8038
 4926SOL     MW19704   8.351   6.837   3.022  0.1195 -0.2108  0.3054
 4927SOL     OW19705   8.482   9.379   9.498  0.2867 -0.0641  0.1726
 4927SOL    HW119706   8.408   9.339   9.544 -0.9979  0.5810 -1.2362
 4927SOL    HW219707   8.443   9.420   9.421  1.9727  1.2648 -0.0357
 4927SOL     MW19708   8.467   9.379   9.494  0.3381  0.1886 -0.0344
 4928SOL     OW19709   9.863   3.490   0.196 -0.3448 -0.0411 -0.2923
 4928SOL    HW119710   9.784   3.535   0.225 -0.6015 -0.4300 -0.3776
 4928SOL    HW219711   9.881   3.526   0.109  0.5375  1.2699  0.3975
 4928SOL     MW19712   9.856   3.501   0.189 -0.2648  0.0770 -0.2149
 4929SOL     OW19713   9.622   5.365   0.375  0.2763 -0.2760 -0.5757
 4929SOL    HW119714   9.538   5.406   0.395  1.1051  0.5612  1.3992
 4929SOL    HW219715   9.616   5.277   0.411  0.4732  0.0202  0.2004
 4929SOL     MW19716   9.611   5.359   0.382  0.4076 -0.1309 -0.2235
 4930SOL     OW19717  10.000   2.753   1.384 -0.1449  0.0627 -0.5707
 4930SOL    HW119718  10.010   2.721   1.295 -1.5735  0.7634 -1.0113
 4930SOL    HW219719  10.032   2.682   1.439 -0.6910 -1.0093 -1.5969
 4930SOL     MW19720  10.005   2.740   1.380 -0.3977  0.0152 -0.7585
 4931SOL     OW19721   9.543   2.178   2.275 -0.6004 -0.1207  0.1152
 4931SOL    HW119722   9.453   2.150   2.256 -0.2475 -0.2361 -1.5601
 4931SOL    HW219723   9.540   2.274   2.271 -0.7765 -0.0978  0.7323
 4931SOL     MW19724   9.531   2.187   2.272 -0.5778 -0.1325 -0.0203
 4932SOL     OW19725   8.885   0.005   9.733  0.7080  0.1055  0.0770
 4932SOL    HW119726   8.860   0.046   9.650  0.1306 -2.1068 -0.9266
 4932SOL    HW219727   8.980  -0.005   9.726  0.9020  1.4663  0.4708
 4932SOL     MW19728   8.894   0.009   9.721  0.6589 -0.0035 -0.0010
 4933SOL     OW19729   6.650   9.664   0.514 -0.0324 -0.2282  0.8158
 4933SOL    HW119730   6.575   9.680   0.457  0.6614  0.3100  0.0238
 4933SOL    HW219731   6.715   9.728   0.486  0.3312  0.0646  2.2264
 4933SOL     MW19732   6.648   9.675   0.503  0.1029 -0.1218  0.8950
 4934SOL     OW19733   9.049   0.856   1.071 -0.1703 -0.0027  0.2869
 4934SOL    HW119734   8.964   0.824   1.040 -0.4563  0.8581  0.1476
 4934SOL    HW219735   9.113   0.798   1.029 -0.7170 -1.7703  1.7334
 4934SOL     MW19736   9.046   0.844   1.062 -0.2769 -0.1188  0.4542
 4935SOL     OW19737   7.516   3.437   2.537 -0.0297 -0.4640 -0.7506
 4935SOL    HW119738   7.480   3.357   2.576 -1.6539  0.3286 -0.5716
 4935SOL    HW219739   7.458   3.455   2.463  1.2541 -0.2923 -1.7507
 4935SOL     MW19740   7.504   3.429   2.532 -0.0732 -0.3405 -0.8557
 4936SOL     OW19741   9.600   9.543   1.757 -0.5241  0.0540  0.2686
 4936SOL    HW119742   9.623   9.612   1.695  0.6502 -1.0209 -0.5379
 4936SOL    HW219743   9.539   9.486   1.709 -0.4859 -0.1714  0.4829
 4936SOL     MW19744   9.595   9.544   1.743 -0.3689 -0.1124  0.1928
 4937SOL     OW19745   8.468   3.579   2.668 -0.6231 -0.3357  0.4320
 4937SOL    HW119746   8.405   3.605   2.600 -0.3819 -0.2198  0.2537
 4937SOL    HW219747   8.484   3.486   2.651  0.3357 -0.0398 -0.4035
 4937SOL     MW19748   8.462   3.571   2.657 -0.4695 -0.2830  0.3022
 4938SOL     OW19749   7.997   7.735   2.642 -0.0954  0.5597  0.2132
 4938SOL    HW119750   8.037   7.655   2.676 -1.2030 -0.4204 -0.7074
 4938SOL    HW219751   7.989   7.720   2.547 -1.5151  1.2123  0.2044
 4938SOL     MW19752   8.001   7.723   2.634 -0.4189  0.5178  0.0942
 4939SOL     OW19753   9.341   5.147   2.953 -0.3278 -0.0036  0.4450
 4939SOL    HW119754   9.252   5.181   2.958 -0.5443 -0.6295  1.0389
 4939SOL    HW219755   9.375   5.155   3.043 -0.2114 -0.8606  0.4866
 4939SOL     MW19756   9.334   5.152   2.965 -0.3406 -0.1935  0.5264
 4940SOL     OW19757   6.187   4.937   0.388 -0.4046  0.2279  0.1866
 4940SOL    HW119758   6.279   4.923   0.365  0.2933  1.6590  1.8474
 4940SOL    HW219759   6.138   4.876   0.332  1.4650  0.1052 -1.4271
 4940SOL     MW19760   6.192   4.928   0.378 -0.0759  0.3954  0.1927
 4941SOL     OW19761  10.070   1.876   2.309 -0.1042  0.0940  0.2294
 4941SOL    HW119762  10.029   1.924   2.381 -1.0772 -0.3603 -0.0011
 4941SOL    HW219763  10.015   1.895   2.233 -0.2110 -0.9538  0.0258
 4941SOL     MW19764  10.058   1.885   2.309 -0.2424 -0.0983  0.1738
 4942SOL     OW19765   6.854   4.465   1.050 -0.3912  0.0076  0.0306
 4942SOL    HW119766   6.783   4.522   1.019 -0.4271 -0.2961 -0.4459
 4942SOL    HW219767   6.898   4.436   0.970 -0.7822 -1.1654  0.2288
 4942SOL     MW19768   6.850   4.469   1.036 -0.4459 -0.1815 -0.0050
 4943SOL     OW19769  10.128   6.081  10.101 -0.4181 -0.5514  0.0050
 4943SOL    HW119770  10.223   6.074  10.099 -0.1840  0.9039  2.4368
 4943SOL    HW219771  10.100   6.053  10.014  2.3327  0.5474 -1.3481
 4943SOL     MW19772  10.136   6.076  10.090 -0.0360 -0.2244  0.1431
 4944SOL     OW19773   9.856   6.149   9.743 -0.1001  0.9325  0.7957
 4944SOL    HW119774   9.810   6.145   9.659 -0.8868 -0.2918  1.2583
 4944SOL    HW219775   9.812   6.084   9.798  0.9426  1.1158  1.8967
 4944SOL     MW19776   9.844   6.140   9.739 -0.0673  0.7992  0.9959
 4945SOL     OW19777   7.498   0.792   1.688 -0.3942 -0.3342 -0.1094
 4945SOL    HW119778   7.541   0.745   1.760  0.6902  1.1742  0.2923
 4945SOL    HW219779   7.413   0.817   1.724  0.0614  0.2396  0.6207
 4945SOL     MW19780   7.493   0.790   1.702 -0.1971 -0.0676  0.0355
 4946SOL     OW19781   8.227   9.269   1.881  0.4427  0.5531  0.4067
 4946SOL    HW119782   8.298   9.315   1.836  0.4492 -0.0781 -0.2447
 4946SOL    HW219783   8.150   9.323   1.867  0.4390  0.3482 -0.4098
 4946SOL     MW19784   8.226   9.282   1.873  0.4430  0.4460  0.2188
 4947SOL     OW19785   8.600   2.996   2.642 -0.0292 -0.2102  0.1134
 4947SOL    HW119786   8.581   2.940   2.566 -1.5256  0.6036 -0.1403
 4947SOL    HW219787   8.658   2.943   2.697  1.0629 -0.8447 -1.5516
 4947SOL     MW19788   8.605   2.982   2.639 -0.0809 -0.1873 -0.1322
 4948SOL     OW19789   6.908   0.939   9.593  0.0919 -0.0277  0.2797
 4948SOL    HW119790   6.928   0.989   9.514  2.4868 -3.3453 -1.4555
 4948SOL    HW219791   6.987   0.946   9.646 -0.6157  0.2676  1.3161
 4948SOL     MW19792   6.921   0.946   9.589  0.3079 -0.4146  0.1902
 4949SOL     OW19793   7.503   0.853   9.577 -0.4361  0.3298  0.3838
 4949SOL    HW119794   7.564   0.854   9.503  0.0939  0.4814  0.8177
 4949SOL    HW219795   7.428   0.905   9.547  0.5611  1.9691  0.6004
 4949SOL     MW19796   7.502   0.860   9.563 -0.2406  0.5590  0.4671
 4950SOL     OW19797   9.783   6.111   1.851 -0.0268 -0.8525  0.1813
 4950SOL    HW119798   9.798   6.137   1.942 -1.3421 -0.5088  0.3146
 4950SOL    HW219799   9.705   6.159   1.824 -0.1599 -1.6145 -0.8573
 4950SOL     MW19800   9.775   6.120   1.859 -0.2122 -0.9060  0.0654
 4951SOL     OW19801   7.012   5.839   0.950 -0.2127 -0.1085  0.6355
 4951SOL    HW119802   7.018   5.880   1.037 -0.0479 -0.0107  0.5782
 4951SOL    HW219803   6.963   5.758   0.965 -2.7855  1.3140  0.3323
 4951SOL     MW19804   7.007   5.834   0.963 -0.5210  0.0861  0.5893
 4952SOL     OW19805   9.279   1.138   0.192  0.1158 -0.1570  0.1607
 4952SOL    HW119806   9.270   1.229   0.162 -0.4895  0.1757  1.2879
 4952SOL    HW219807   9.290   1.088   0.112 -4.0170  0.3424 -0.9763
 4952SOL     MW19808   9.279   1.144   0.178 -0.4907 -0.0505  0.1594
 4953SOL     OW19809   6.898   0.644   0.853 -0.1347  0.1292  0.2093
 4953SOL    HW119810   6.895   0.731   0.812 -2.2519  0.2782  0.5515
 4953SOL    HW219811   6.954   0.656   0.930 -2.4022  1.9831  1.7385
 4953SOL     MW19812   6.905   0.657   0.858 -0.6960  0.3856  0.4488
 4954SOL     OW19813  -0.018   1.019   2.306 -0.1052 -0.4084  0.3763
 4954SOL    HW119814   0.063   1.066   2.322 -0.7432  0.3845  1.3857
 4954SOL    HW219815   0.005   0.927   2.315  1.2264 -0.3712 -1.9424
 4954SOL     MW19816  -0.005   1.013   2.309 -0.0164 -0.3021  0.2087
 4955SOL     OW19817   7.481   9.997   0.713  0.1654 -0.0521  0.5595
 4955SOL    HW119818   7.516  10.058   0.778 -0.5427  1.7811 -0.6868
 4955SOL    HW219819   7.391   9.982   0.740  0.7037 -1.6812  1.6035
 4955SOL     MW19820   7.474  10.003   0.725  0.1437 -0.0260  0.5336
 4956SOL     OW19821   9.418   5.136   9.778 -0.9567 -0.1777 -0.2451
 4956SOL    HW119822   9.333   5.175   9.799 -0.1094  1.0408  1.1547
 4956SOL    HW219823   9.460   5.122   9.863  0.5512  0.0061 -0.9158
 4956SOL     MW19824   9.413   5.139   9.791 -0.6552  0.0018 -0.1518
 4957SOL     OW19825   8.051   5.006   2.695 -0.5341  0.3114 -0.1841
 4957SOL    HW119826   8.056   5.096   2.728  0.2665  0.1517  0.1758
 4957SOL    HW219827   7.959   4.982   2.704 -0.6992  0.9861  0.0163
 4957SOL     MW19828   8.040   5.014   2.701 -0.4528  0.3774 -0.1124
 4958SOL     OW19829   7.528   1.195   0.114 -0.0332 -0.4610  0.2147
 4958SOL    HW119830   7.575   1.209   0.032 -1.3017  0.5197 -0.3836
 4958SOL    HW219831   7.535   1.279   0.160 -0.4478 -0.5805  0.5034
 4958SOL     MW19832   7.535   1.208   0.110 -0.2487 -0.3507  0.1750
 4959SOL     OW19833   6.668   5.956   1.203 -0.5152 -0.2081 -0.2502
 4959SOL    HW119834   6.631   5.999   1.281  1.6893  0.8683  0.2708
 4959SOL    HW219835   6.760   5.945   1.223  0.0408 -0.2908 -2.5649
 4959SOL     MW19836   6.675   5.960   1.216 -0.1618 -0.0809 -0.4798
 4960SOL     OW19837   7.358   4.821   2.512 -0.2404  0.1123 -0.3147
 4960SOL    HW119838   7.306   4.773   2.577 -0.5744 -0.3691 -0.9240
 4960SOL    HW219839   7.292   4.858   2.453  0.0900 -0.0110 -0.7583
 4960SOL     MW19840   7.343   4.820   2.513 -0.2408  0.0349 -0.4495
 4961SOL     OW19841   8.731   6.610   0.327 -0.0199  0.1284  0.3618
 4961SOL    HW119842   8.785   6.659   0.389 -0.4085 -0.4664  1.1824
 4961SOL    HW219843   8.785   6.535   0.303 -0.4279 -0.4180  1.1129
 4961SOL     MW19844   8.745   6.607   0.332 -0.1219 -0.0177  0.5630
 4962SOL     OW19845   9.527  10.131   0.276  0.0726 -0.4487 -0.0017
 4962SOL    HW119846   9.589  10.181   0.223  0.8935 -0.7620  0.6452
 4962SOL    HW219847   9.580  10.063   0.317 -0.7974 -1.0498  0.1606
 4962SOL     MW19848   9.541  10.129   0.274  0.0663 -0.5657  0.1019
 4963SOL     OW19849   7.722   7.799   0.158 -0.4058 -0.2157 -0.6958
 4963SOL    HW119850   7.659   7.793   0.230 -0.1603 -1.0315 -0.5433
 4963SOL    HW219851   7.668   7.821   0.082 -0.5067  2.0560 -0.0440
 4963SOL     MW19852   7.707   7.801   0.158 -0.3873 -0.0293 -0.5928
 4964SOL     OW19853   8.542   7.260   1.757 -0.2675 -0.1826 -0.7406
 4964SOL    HW119854   8.559   7.342   1.803  0.8906  0.0277 -1.5103
 4964SOL    HW219855   8.551   7.281   1.665 -0.2488 -1.1189 -0.9658
 4964SOL     MW19856   8.545   7.273   1.751 -0.1169 -0.2755 -0.8680
 4965SOL     OW19857   7.379   1.900   2.712  0.3038 -0.2558 -0.4023
 4965SOL    HW119858   7.426   1.973   2.674  2.3751 -1.9955 -1.4028
 4965SOL    HW219859   7.377   1.834   2.642 -1.2392 -1.2756  0.5417
 4965SOL     MW19860   7.385   1.901   2.698  0.3714 -0.6091 -0.4095
 4966SOL     OW19861   9.107   7.047   2.630  0.0918 -0.1098  0.4018
 4966SOL    HW119862   9.049   7.091   2.693  0.4592  1.6226 -0.4156
 4966SOL    HW219863   9.107   7.104   2.554  0.4734 -1.6471 -0.8074
 4966SOL     MW19864   9.099   7.060   2.628  0.1877 -0.0848  0.1424
 4967SOL     OW19865   7.583   1.776   9.012  0.0633 -0.4543 -0.5996
 4967SOL    HW119866   7.574   1.683   9.034 -0.8592 -0.3440 -0.4790
 4967SOL    HW219867   7.624   1.814   9.090 -1.9453 -0.3118  0.4408
 4967SOL     MW19868   7.587   1.769   9.025 -0.3119 -0.4220 -0.4510
 4968SOL     OW19869   7.816   1.979   0.910  0.5056  0.1211 -0.5871
 4968SOL    HW119870   7.795   1.887   0.922  0.5205  0.1486 -0.3394
 4968SOL    HW219871   7.888   1.995   0.971 -1.0709  0.8792  1.1691
 4968SOL     MW19872   7.822   1.970   0.919  0.3057  0.2217 -0.3305
 4969SOL     OW19873   6.448   2.853   1.186 -0.2042 -0.1658  0.5933
 4969SOL    HW119874   6.483   2.928   1.137 -0.9312  0.4959  1.0635
 4969SOL    HW219875   6.394   2.892   1.254  0.7002 -1.0848  1.8673
 4969SOL     MW19876   6.446   2.868   1.188 -0.1815 -0.1987  0.8166
 4970SOL     OW19877   0.218   9.760   1.937  0.2968  0.5135 -0.7054
 4970SOL    HW119878   0.243   9.839   1.889  2.6695  0.1109 -0.2251
 4970SOL    HW219879   0.243   9.777   2.028 -0.0158 -0.4474 -0.4240
 4970SOL     MW19880   0.224   9.772   1.942  0.5605  0.3390 -0.6079
 4971SOL     OW19881   8.093   9.336   2.842  0.4524  0.1965  0.6317
 4971SOL    HW119882   7.998   9.336   2.835  0.3401  1.1040  1.8680
 4971SOL    HW219883   8.112   9.391   2.918  1.9572 -0.1421  0.5383
 4971SOL     MW19884   8.084   9.343   2.851  0.6306  0.2693  0.7780
 4972SOL     OW19885   7.507   2.446   1.290 -0.1645  0.1613 -0.3248
 4972SOL    HW119886   7.580   2.426   1.349  0.4074 -0.4503 -1.2096
 4972SOL    HW219887   7.489   2.363   1.246 -0.3474  0.6880 -1.2650
 4972SOL     MW19888   7.514   2.433   1.292 -0.1147  0.1504 -0.5584
 4973SOL     OW19889   7.816   4.888   0.219 -0.1855 -0.1677  0.0405
 4973SOL    HW119890   7.736   4.941   0.213  0.8447  1.5879  1.1540
 4973SOL    HW219891   7.884   4.942   0.179  0.9769 -0.4530  1.5342
 4973SOL     MW19892   7.814   4.902   0.213  0.0952  0.0205  0.3742
 4974SOL     OW19893   6.804   0.189   1.160 -0.3059 -0.4470 -0.2752
 4974SOL    HW119894   6.723   0.174   1.208  0.6944 -0.2441  1.5706
 4974SOL    HW219895   6.872   0.149   1.214  0.9358  0.1158 -1.3550
 4974SOL     MW19896   6.802   0.182   1.173 -0.0189 -0.3490 -0.1771
 4975SOL     OW19897   0.061   6.247   0.978  0.2380 -0.5604 -0.0372
 4975SOL    HW119898   0.122   6.255   1.052  1.1838 -0.8742 -0.7670
 4975SOL    HW219899   0.115   6.214   0.906 -0.3696  0.9304 -1.2384
 4975SOL     MW19900   0.076   6.244   0.979  0.2813 -0.4097 -0.2844
 4976SOL     OW19901   7.348   8.953   0.465 -0.2664  0.4937 -0.2469
 4976SOL    HW119902   7.357   8.858   0.456 -0.7273  0.4822 -0.6530
 4976SOL    HW219903   7.407   8.988   0.398  0.1198  0.5026  0.0940
 4976SOL     MW19904   7.356   8.945   0.455 -0.2760  0.4934 -0.2553
 4977SOL     OW19905   8.709   0.966   1.673 -0.0565  0.5613 -0.0263
 4977SOL    HW119906   8.784   0.915   1.642  0.8984  1.3756  0.8511
 4977SOL    HW219907   8.692   0.932   1.761 -0.5448  0.5691 -0.1148
 4977SOL     MW19908   8.717   0.955   1.681  0.0032  0.6666  0.0747
 4978SOL     OW19909   8.596   1.796   1.134  0.7655 -0.8588  0.0075
 4978SOL    HW119910   8.689   1.776   1.144  0.3834 -2.2376  1.3238
 4978SOL    HW219911   8.569   1.744   1.058  0.3887 -3.4393  1.7435
 4978SOL     MW19912   8.604   1.787   1.126  0.6684 -1.3656  0.3983
 4979SOL     OW19913   9.584   7.448   0.421 -0.2741 -0.1203 -0.3840
 4979SOL    HW119914   9.646   7.402   0.364  0.4729  0.5072 -0.0980
 4979SOL    HW219915   9.618   7.538   0.425  0.6130 -0.4913  2.2887
 4979SOL     MW19916   9.597   7.454   0.414 -0.0649 -0.0875 -0.0053
 4980SOL     OW19917   6.408   0.285   9.563 -0.2143 -0.1046 -0.1141
 4980SOL    HW119918   6.401   0.241   9.648  0.4319  0.4384  0.2330
 4980SOL    HW219919   6.356   0.365   9.573  0.2949  0.2201 -0.0508
 4980SOL     MW19920   6.400   0.289   9.575 -0.0664  0.0065 -0.0616
 4981SOL     OW19921  10.117   9.957   0.457  0.2823  0.3325  0.0027
 4981SOL    HW119922  10.050   9.966   0.390 -0.1094 -1.6429  0.0698
 4981SOL    HW219923  10.092   9.878   0.505  2.2463 -0.0111  0.5251
 4981SOL     MW19924  10.105   9.948   0.455  0.4836  0.0356  0.0781
 4982SOL     OW19925   8.936   3.677   9.645 -0.1505 -0.0159 -0.0138
 4982SOL    HW119926   8.986   3.596   9.631  1.8808  1.0528  0.5697
 4982SOL    HW219927   8.872   3.654   9.713 -0.3899 -1.4017 -0.6744
 4982SOL     MW19928   8.934   3.664   9.652  0.0789 -0.0565 -0.0237
 4983SOL     OW19929   6.453   1.290   0.955 -0.1024  0.0148 -0.0889
 4983SOL    HW119930   6.390   1.310   0.886 -1.9158 -0.1483  1.4584
 4983SOL    HW219931   6.412   1.219   1.005  1.0516  0.2852  1.2959
 4983SOL     MW19932   6.440   1.283   0.952 -0.1868  0.0285  0.2864
 4984SOL     OW19933   7.719   2.247   9.272  0.0412  0.2863  0.2865
 4984SOL    HW119934   7.802   2.295   9.272 -0.1323  0.5944  0.0455
 4984SOL    HW219935   7.741   2.162   9.233  0.1936  0.4617 -0.0203
 4984SOL     MW19936   7.733   2.242   9.267  0.0385  0.3482  0.2164
 4985SOL     OW19937   0.229   8.231   0.839 -0.2468 -0.8444 -0.0587
 4985SOL    HW119938   0.302   8.275   0.795  0.1968 -1.7875 -0.2971
 4985SOL    HW219939   0.228   8.269   0.927 -0.8348  0.7079 -0.6997
 4985SOL     MW19940   0.239   8.242   0.845 -0.2653 -0.7664 -0.1712
 4986SOL     OW19941   8.537   0.988   2.635  0.3135 -0.5554  0.0461
 4986SOL    HW119942   8.572   0.899   2.626 -1.3735 -1.1596 -0.8746
 4986SOL    HW219943   8.540   1.023   2.546  2.7732  1.0970  0.6593
 4986SOL     MW19944   8.542   0.981   2.623  0.4124 -0.4212  0.0067
 4987SOL     OW19945   9.731   2.371   2.769  0.2210 -0.2007  0.1978
 4987SOL    HW119946   9.726   2.465   2.783  0.9988 -0.3083  1.2564
 4987SOL    HW219947   9.817   2.346   2.801 -0.0201 -1.2956  0.0287
 4987SOL     MW19948   9.741   2.380   2.775  0.2897 -0.3546  0.3117
 4988SOL     OW19949   6.788   1.719   0.491  0.3644 -0.1458 -0.2615
 4988SOL    HW119950   6.693   1.728   0.497  0.3754 -0.3957  0.4003
 4988SOL    HW219951   6.820   1.755   0.574  0.8580  0.0783 -0.5478
 4988SOL     MW19952   6.780   1.725   0.502  0.4290 -0.1491 -0.2134
 4989SOL     OW19953   0.321   1.144   1.440 -0.2402 -0.4503  0.1982
 4989SOL    HW119954   0.301   1.051   1.432  1.1137 -0.6422 -1.4308
 4989SOL    HW219955   0.299   1.182   1.356 -0.0883  0.5653  0.5965
 4989SOL     MW19956   0.316   1.137   1.428 -0.0474 -0.3448  0.0406
 4990SOL     OW19957   0.075   9.717   0.116  0.0167  0.0208  0.3745
 4990SOL    HW119958   0.121   9.793   0.151  0.6135 -0.1965  0.0794
 4990SOL    HW219959   0.145   9.658   0.087 -0.4521 -0.1062 -0.5320
 4990SOL     MW19960   0.090   9.719   0.117  0.0331 -0.0233  0.2207
 4991SOL     OW19961   8.122   5.736   2.451  0.0424 -0.1536  0.2265
 4991SOL    HW119962   8.121   5.645   2.423  0.0101  0.1314 -0.7686
 4991SOL    HW219963   8.031   5.766   2.439  0.3706  0.4350 -1.0395
 4991SOL     MW19964   8.110   5.728   2.446  0.0802 -0.0418 -0.0629
 4992SOL     OW19965   7.345   6.890   0.745 -0.0141 -0.1095  0.1970
 4992SOL    HW119966   7.364   6.867   0.836 -0.8774  0.4519  0.5281
 4992SOL    HW219967   7.289   6.819   0.713 -1.1486  0.5582  0.6506
 4992SOL     MW19968   7.341   6.878   0.752 -0.2698  0.0478  0.2974
 4993SOL     OW19969   6.459   6.162   2.087  0.0053 -0.6716 -0.5438
 4993SOL    HW119970   6.401   6.095   2.122 -1.6207  0.1837 -1.4640
 4993SOL    HW219971   6.490   6.126   2.004 -0.6426 -0.4325 -0.9007
 4993SOL     MW19972   6.456   6.149   2.081 -0.2858 -0.5315 -0.7073
 4994SOL     OW19973   8.488   3.282   1.728 -0.1583 -0.3069  0.6769
 4994SOL    HW119974   8.433   3.333   1.788  0.7009 -0.2804  1.4548
 4994SOL    HW219975   8.573   3.277   1.771 -0.0270 -1.8430  0.3105
 4994SOL     MW19976   8.492   3.288   1.741 -0.0315 -0.5001  0.7296
 4995SOL     OW19977   9.559   2.457   1.855  0.2263  0.1805  0.1935
 4995SOL    HW119978   9.641   2.462   1.903  0.6182 -0.8709 -0.3519
 4995SOL    HW219979   9.514   2.539   1.876  1.2271  0.5822  0.8172
 4995SOL     MW19980   9.563   2.468   1.864  0.4045  0.0974  0.2035
 4996SOL     OW19981   8.125  10.015   0.836  0.0335  0.2494  0.1025
 4996SOL    HW119982   8.096  10.078   0.901  0.7258 -0.1244  0.7972
 4996SOL    HW219983   8.220  10.012   0.848  0.3365  1.0735 -1.7529
 4996SOL     MW19984   8.134  10.023   0.846  0.1609  0.3070 -0.0461
 4997SOL     OW19985   9.346   3.812   2.051 -0.8236  0.3714  0.5123
 4997SOL    HW119986   9.303   3.799   1.966 -0.7155  0.6602  0.4104
 4997SOL    HW219987   9.434   3.842   2.028 -0.9889  1.0304  0.7319
 4997SOL     MW19988   9.351   3.814   2.037 -0.8309  0.4927  0.5274
 4998SOL     OW19989   8.120   8.761   0.655 -0.0664 -0.1421 -0.1488
 4998SOL    HW119990   8.083   8.714   0.581  0.7224 -1.6708  0.3777
 4998SOL    HW219991   8.213   8.773   0.633  0.6954 -2.5015  1.3979
 4998SOL     MW19992   8.127   8.756   0.643  0.1321 -0.6398  0.1166
 4999SOL     OW19993   8.787   9.145   2.836 -0.2270 -0.1813  0.2062
 4999SOL    HW119994   8.717   9.194   2.793  1.6327  2.6687  0.1138
 4999SOL    HW219995   8.855   9.137   2.769  0.7790 -0.0687  1.1818
 4999SOL     MW19996   8.787   9.150   2.822  0.1399  0.1979  0.3193
 5000SOL     OW19997   8.465   5.527   1.518  0.2059 -0.5873  0.3954
 5000SOL    HW119998   8.388   5.472   1.534 -1.8449  1.3234 -1.9958
 5000SOL    HW219999   8.516   5.478   1.454 -0.4161 -0.7129 -0.0132
 5000SOL     MW20000   8.462   5.514   1.512 -0.1362 -0.3588  0.0370
 5001SOL     OW20001   8.549   3.333   2.305  0.3683  0.7673  0.3245
 5001SOL    HW120002   8.645   3.338   2.313  0.4960 -1.6491  1.1470
 5001SOL    HW220003   8.530   3.377   2.222  2.5253 -0.9867 -1.2370
 5001SOL     MW20004   8.559   3.339   2.296  0.6608  0.2334  0.2299
 5002SOL     OW20005   8.605   8.430   2.424  0.3388  0.0500 -0.4943
 5002SOL    HW120006   8.571   8.341   2.420 -2.2140  0.8556  0.8478
 5002SOL    HW220007   8.609   8.451   2.517 -2.1362  2.2720 -0.7431
 5002SOL     MW20008   8.601   8.422   2.435 -0.3048  0.4376 -0.3544
 5003SOL     OW20009   8.697   4.246   1.010 -0.0194 -0.5562  0.1077
 5003SOL    HW120010   8.758   4.279   0.944 -0.0140 -0.2829  0.2506
 5003SOL    HW220011   8.637   4.318   1.026 -0.8612 -1.0835 -0.6006
 5003SOL     MW20012   8.697   4.259   1.003 -0.1265 -0.5887  0.0353
 5004SOL     OW20013   9.087   1.139   1.768  0.1963 -0.3876 -0.7977
 5004SOL    HW120014   9.053   1.056   1.736  0.2022 -0.6552 -0.1390
 5004SOL    HW220015   9.015   1.177   1.818  0.9516 -1.1405  0.9349
 5004SOL     MW20016   9.074   1.133   1.770  0.2938 -0.5183 -0.4916
 5005SOL     OW20017   8.267   0.396   9.030 -0.0244 -0.4297 -0.1162
 5005SOL    HW120018   8.176   0.382   9.057 -0.0336 -0.8945 -0.3777
 5005SOL    HW220019   8.280   0.336   8.957  0.0023  0.8054 -1.1569
 5005SOL     MW20020   8.257   0.387   9.024 -0.0222 -0.3311 -0.2829
 5006SOL     OW20021   9.082   0.362   1.085  0.0717 -0.4964  0.5466
 5006SOL    HW120022   9.022   0.427   1.048 -1.5909 -1.3443  1.6596
 5006SOL    HW220023   9.033   0.323   1.157  1.0479 -2.9588 -0.0553
 5006SOL     MW20024   9.068   0.366   1.089 -0.0162 -0.9202  0.6121
 5007SOL     OW20025   0.309   5.620   1.034 -0.2937 -0.1299 -0.1395
 5007SOL    HW120026   0.353   5.546   1.074 -1.2970 -0.8294 -0.2993
 5007SOL    HW220027   0.358   5.697   1.065 -0.3366 -0.7203  1.4741
 5007SOL     MW20028   0.321   5.620   1.043 -0.4276 -0.2950  0.0466
 5008SOL     OW20029   9.307   3.918   0.213  0.4440 -0.0120  0.4440
 5008SOL    HW120030   9.239   3.852   0.197  0.2006  0.0975  0.9983
 5008SOL    HW220031   9.371   3.874   0.268 -0.0361  0.3854  1.3588
 5008SOL     MW20032   9.306   3.904   0.218  0.3514  0.0529  0.6321
 5009SOL     OW20033   0.297   9.246   0.536 -0.0375 -0.5197 -0.0914
 5009SOL    HW120034   0.210   9.226   0.502 -0.3975 -0.1709  0.6008
 5009SOL    HW220035   0.355   9.182   0.495 -0.3229  0.3521 -1.9314
 5009SOL     MW20036   0.293   9.236   0.527 -0.1201 -0.3635 -0.2383
 5010SOL     OW20037   9.407   6.401   0.305  0.4341  0.4010 -0.0783
 5010SOL    HW120038   9.313   6.404   0.287  0.3194  0.5368  0.5123
 5010SOL    HW220039   9.414   6.423   0.398  1.1234  1.3996 -0.3516
 5010SOL     MW20040   9.396   6.404   0.315  0.5077  0.5463 -0.0377
 5011SOL     OW20041   9.985   2.298   2.794 -0.3179 -0.2101  0.3018
 5011SOL    HW120042  10.037   2.324   2.718  0.1821  1.4967  1.1758
 5011SOL    HW220043  10.025   2.217   2.825  0.3371 -0.1706 -0.4416
 5011SOL     MW20044   9.997   2.291   2.789 -0.1701  0.0134  0.3185
 5012SOL     OW20045   8.813   0.039   2.635  0.3005  0.3097  0.7470
 5012SOL    HW120046   8.729   0.083   2.645  0.0972 -0.0416  0.5777
 5012SOL    HW220047   8.791  -0.050   2.607  0.7536  0.4122  0.0457
 5012SOL     MW20048   8.800   0.033   2.633  0.3325  0.2778  0.6355
 5013SOL     OW20049   0.034   8.995   9.991 -0.1172  0.3673 -0.8449
 5013SOL    HW120050   0.103   8.952   9.940  0.5196  0.3929 -0.0376
 5013SOL    HW220051   0.075   9.012  10.076 -0.3461  2.5108 -1.0934
 5013SOL     MW20052   0.048   8.992   9.995 -0.0650  0.6450 -0.7734
 5014SOL     OW20053   8.790   1.154   0.878 -0.2911 -0.1112 -0.0009
 5014SOL    HW120054   8.847   1.229   0.894 -0.3126  0.1414 -1.0442
 5014SOL    HW220055   8.783   1.149   0.782 -2.1963  0.0130  0.0899
 5014SOL     MW20056   8.796   1.163   0.868 -0.5377 -0.0629 -0.1229
 5015SOL     OW20057   9.139   6.082   0.451  0.3615  0.1638 -0.5483
 5015SOL    HW120058   9.090   6.027   0.390  0.8925 -1.3577  0.3350
 5015SOL    HW220059   9.229   6.080   0.417  0.6329 -0.5839  0.1699
 5015SOL     MW20060   9.144   6.074   0.439  0.4642 -0.1267 -0.3433
 5016SOL     OW20061   7.007   5.720   0.653 -0.2064 -0.1378  0.1389
 5016SOL    HW120062   6.920   5.749   0.679 -0.2155  0.8312 -0.8816
 5016SOL    HW220063   7.029   5.776   0.579  0.9975 -0.8454 -0.0580
 5016SOL     MW20064   6.998   5.731   0.647 -0.0534 -0.1043 -0.0169
 5017SOL     OW20065   8.228   5.264   1.809 -0.7233 -0.3993 -0.1376
 5017SOL    HW120066   8.308   5.312   1.829 -1.2329  0.9700 -1.2197
 5017SOL    HW220067   8.208   5.216   1.889  0.4325  0.3146  0.6004
 5017SOL     MW20068   8.236   5.264   1.822 -0.6406 -0.1326 -0.1817
 5018SOL     OW20069   6.604   3.200   0.436  0.0625  0.8875 -0.0060
 5018SOL    HW120070   6.525   3.146   0.441  1.3403 -0.9422  2.8359
 5018SOL    HW220071   6.656   3.160   0.366  0.3136 -0.7005  1.0351
 5018SOL     MW20072   6.601   3.188   0.428  0.2582  0.4500  0.4911
 5019SOL     OW20073   6.294   2.088   1.211  0.0650  0.2691 -0.0485
 5019SOL    HW120074   6.273   1.995   1.208  1.1087  0.0473 -2.0527
 5019SOL    HW220075   6.313   2.106   1.304 -1.5662 -1.1407  0.6036
 5019SOL     MW20076   6.294   2.079   1.223 -0.0102  0.0602 -0.2216
 5020SOL     OW20077   8.074   8.341   1.206 -0.2473 -0.2179  0.6570
 5020SOL    HW120078   8.119   8.329   1.289  2.3186  1.4501 -0.3753
 5020SOL    HW220079   8.113   8.420   1.168 -2.5202  0.0635 -1.3848
 5020SOL     MW20080   8.085   8.350   1.211 -0.2098  0.0317  0.2635
 5021SOL     OW20081   7.869   6.691   1.814  0.4699  0.1588  0.1336
 5021SOL    HW120082   7.794   6.638   1.789  1.0158 -0.4961 -0.1497
 5021SOL    HW220083   7.871   6.685   1.910 -0.1797  0.6704  0.1879
 5021SOL     MW20084   7.860   6.684   1.823  0.4566  0.1405  0.1043
 5022SOL     OW20085   7.534   1.435   1.730 -0.4027  0.2735 -0.0145
 5022SOL    HW120086   7.527   1.353   1.682  2.3540 -0.1192  0.1049
 5022SOL    HW220087   7.532   1.503   1.663  0.4516 -0.1100 -0.4514
 5022SOL     MW20088   7.533   1.433   1.715  0.0596  0.1742 -0.0551
 5023SOL     OW20089   8.739   6.153   9.663  0.1679  0.1037 -0.2488
 5023SOL    HW120090   8.691   6.079   9.700  0.9010  0.7133  2.1457
 5023SOL    HW220091   8.825   6.117   9.640 -0.2955 -0.2830 -1.4521
 5023SOL     MW20092   8.744   6.139   9.665  0.2024  0.1322 -0.0963
 5024SOL     OW20093  10.031   3.628   9.722  0.0547 -0.2418 -0.4460
 5024SOL    HW120094   9.953   3.573   9.717 -1.0288  1.2363 -0.3624
 5024SOL    HW220095  10.000   3.716   9.705  1.5612  0.5310  0.5186
 5024SOL     MW20096  10.017   3.632   9.719  0.1089  0.0464 -0.3119
 5025SOL     OW20097   9.612   6.448   1.643  0.0098  0.1082 -0.3412
 5025SOL    HW120098   9.593   6.537   1.612  0.7009 -0.2664 -1.9118
 5025SOL    HW220099   9.563   6.391   1.585 -1.1781 -0.5559  1.2332
 5025SOL     MW20100   9.604   6.452   1.632 -0.0538 -0.0248 -0.3407
 5026SOL     OW20101   0.190   2.445   1.910  0.3182 -0.0533 -0.2583
 5026SOL    HW120102   0.094   2.435   1.910  0.3318 -0.1680  0.2903
 5026SOL    HW220103   0.204   2.537   1.929  0.2735  0.4783 -2.4601
 5026SOL     MW20104   0.179   2.455   1.912  0.3142  0.0001 -0.4699
 5027SOL     OW20105   9.676   3.801   9.461  0.8634  0.5370 -0.3904
 5027SOL    HW120106   9.703   3.846   9.541  0.3731  2.4801 -1.2465
 5027SOL    HW220107   9.759   3.777   9.418  1.1302  0.1200  0.3473
 5027SOL     MW20108   9.690   3.804   9.466  0.8348  0.7323 -0.4056
 5028SOL     OW20109   7.817   5.186   1.941  0.4549 -0.2672 -0.2665
 5028SOL    HW120110   7.876   5.110   1.944  0.2052 -0.4448  0.6008
 5028SOL    HW220111   7.822   5.223   2.029  0.6134  0.7681 -0.7005
 5028SOL     MW20112   7.825   5.181   1.953  0.4432 -0.1574 -0.2111
 5029SOL     OW20113   9.829   3.862   9.675  1.0048  0.2875 -0.1038
 5029SOL    HW120114   9.833   3.957   9.664  2.1187  0.4982  1.7099
 5029SOL    HW220115   9.766   3.849   9.746 -0.8201 -0.5275 -1.7849
 5029SOL     MW20116   9.822   3.873   9.683  0.9138  0.2101 -0.0868
 5030SOL     OW20117   0.221   0.020   0.161 -0.0231  0.5640 -0.5228
 5030SOL    HW120118   0.311   0.043   0.137  0.3175 -1.4574 -1.4326
 5030SOL    HW220119   0.183  -0.013   0.080 -1.1082  0.0171  0.2006
 5030SOL     MW20120   0.228   0.019   0.148 -0.1184  0.2352 -0.5467
 5031SOL     OW20121   8.200   4.310   1.613  0.2094 -0.3099  0.1511
 5031SOL    HW120122   8.272   4.362   1.578 -0.0140 -0.0565  0.0624
 5031SOL    HW220123   8.163   4.264   1.537 -1.0028  1.1187 -0.1782
 5031SOL     MW20124   8.204   4.311   1.599  0.0256 -0.0946  0.0976
 5032SOL     OW20125   0.312   1.524   1.578 -0.3431  0.2096  0.4069
 5032SOL    HW120126   0.319   1.581   1.654  1.6026 -0.5966  0.8958
 5032SOL    HW220127   0.340   1.580   1.504 -1.7330  0.8376  0.3289
 5032SOL     MW20128   0.317   1.539   1.578 -0.2720  0.1868  0.4595
 5033SOL     OW20129   7.521   5.034   2.467  0.1660  0.2008  0.5059
 5033SOL    HW120130   7.460   5.070   2.402 -0.1036 -1.8589 -0.4423
 5033SOL    HW220131   7.481   4.951   2.494  0.4209  0.8415  3.1263
 5033SOL     MW20132   7.508   5.028   2.462  0.1642  0.0191  0.7199
 5034SOL     OW20133   9.186   9.778   2.261 -0.3916  0.2868 -0.3155
 5034SOL    HW120134   9.197   9.689   2.228 -2.7107  0.1950 -0.9876
 5034SOL    HW220135   9.189   9.833   2.183 -1.8234  0.4844 -0.2519
 5034SOL     MW20136   9.188   9.774   2.247 -0.8717  0.3004 -0.3934
 5035SOL     OW20137   6.577   5.607   1.015  0.1988  0.0365  0.7223
 5035SOL    HW120138   6.659   5.601   1.064 -0.5289  0.2370  2.0019
 5035SOL    HW220139   6.583   5.536   0.950  0.7000 -1.0042  1.8584
 5035SOL     MW20140   6.588   5.597   1.013  0.1698 -0.0711  1.0316
 5036SOL     OW20141   7.591   6.196   9.427  0.4146  0.0288 -0.1367
 5036SOL    HW120142   7.514   6.188   9.483 -0.6932 -0.9516 -1.7235
 5036SOL    HW220143   7.590   6.287   9.398 -0.2245 -0.0060 -0.2430
 5036SOL     MW20144   7.581   6.207   9.431  0.1910 -0.1011 -0.3535
 5037SOL     OW20145   8.169   7.565   8.952  0.0765  0.1630 -0.1660
 5037SOL    HW120146   8.081   7.553   8.989 -0.0991  1.4638 -0.0967
 5037SOL    HW220147   8.202   7.644   8.995  1.4849 -0.5696  0.1544
 5037SOL     MW20148   8.162   7.574   8.962  0.2343  0.2357 -0.1161
 5038SOL     OW20149   8.981   3.302   0.987 -0.2948  0.3534 -0.4554
 5038SOL    HW120150   8.932   3.304   1.069  0.4357 -0.1724  0.0037
 5038SOL    HW220151   9.038   3.379   0.990  0.1606  0.0142 -0.1869
 5038SOL     MW20152   8.982   3.312   0.998 -0.1430  0.2427 -0.3623
 5039SOL     OW20153   0.364   9.090  10.100  0.0362 -0.0806 -0.6091
 5039SOL    HW120154   0.305   9.053  10.165  0.7073 -1.0889 -0.5567
 5039SOL    HW220155   0.417   9.016  10.070  1.0887  0.7399 -0.8418
 5039SOL     MW20156   0.363   9.076  10.104  0.2568 -0.1046 -0.6322
 5040SOL     OW20157   7.185   3.469   0.621 -0.3290 -0.1423 -0.3404
 5040SOL    HW120158   7.245   3.532   0.661 -2.0771  1.2130  0.2110
 5040SOL    HW220159   7.152   3.417   0.695 -0.4741 -0.3500 -0.5496
 5040SOL     MW20160   7.189   3.470   0.636 -0.5713  0.0046 -0.2965
 5041SOL     OW20161   8.564   1.620   3.028 -0.2842 -0.0295 -0.0476
 5041SOL    HW120162   8.609   1.548   2.983 -1.5026 -0.8496  0.0002
 5041SOL    HW220163   8.486   1.579   3.066 -1.4936  1.4866 -0.8133
 5041SOL     MW20164   8.560   1.605   3.027 -0.5950  0.0596 -0.1395
 5042SOL     OW20165  10.123   5.806   0.819  0.0805 -0.1154 -0.1153
 5042SOL    HW120166  10.144   5.881   0.764  0.2755  0.2274  0.4275
 5042SOL    HW220167  10.029   5.813   0.836  0.1998  0.3013  0.3768
 5042SOL     MW20168  10.113   5.816   0.814  0.1207 -0.0182  0.0172
 5043SOL     OW20169   9.229   0.047   0.042 -0.0763  0.5616  0.3099
 5043SOL    HW120170   9.246  -0.024   0.105 -1.4759  0.3080  0.4350
 5043SOL    HW220171   9.138   0.034   0.016 -0.6156  2.7646  0.8921
 5043SOL     MW20172   9.219   0.036   0.047 -0.3245  0.8111  0.4004
 5044SOL     OW20173   6.609   3.453   0.815 -0.2836  0.4016  0.6330
 5044SOL    HW120174   6.647   3.409   0.739 -1.2349  2.4766 -1.1563
 5044SOL    HW220175   6.603   3.385   0.882  0.1460 -1.6543 -1.3001
 5044SOL     MW20176   6.613   3.439   0.814 -0.3504  0.4040  0.1565
 5045SOL     OW20177   9.104   1.948   1.934 -0.0381 -0.6320  0.0098
 5045SOL    HW120178   9.080   1.860   1.963 -0.7775  0.0404  1.5732
 5045SOL    HW220179   9.020   1.989   1.914  0.2839 -0.1829 -0.4268
 5045SOL     MW20180   9.090   1.942   1.935 -0.0916 -0.4884  0.1540
 5046SOL     OW20181   8.111   5.697   1.800  0.0099 -0.4006 -0.7219
 5046SOL    HW120182   8.031   5.750   1.796 -0.1328 -0.5832 -0.3325
 5046SOL    HW220183   8.182   5.760   1.789 -0.1435 -0.0633  0.1896
 5046SOL     MW20184   8.110   5.712   1.798 -0.0280 -0.3808 -0.5554
 5047SOL     OW20185   6.560   1.021   0.599 -0.1413 -0.4706  0.5632
 5047SOL    HW120186   6.500   1.061   0.537 -0.2534  0.3615  1.1913
 5047SOL    HW220187   6.565   0.929   0.572 -0.0952 -0.1005 -0.7304
 5047SOL     MW20188   6.553   1.014   0.588 -0.1497 -0.3167  0.4780
 5048SOL     OW20189   9.251   4.124   9.523 -0.3012 -0.0022  0.0501
 5048SOL    HW120190   9.288   4.167   9.600 -0.4344  1.3535 -0.6107
 5048SOL    HW220191   9.157   4.138   9.529 -0.7415 -2.7389  1.2960
 5048SOL     MW20192   9.244   4.131   9.533 -0.3746 -0.1790  0.1250
 5049SOL     OW20193   9.519   3.380   0.420 -0.5885 -0.4299 -0.0951
 5049SOL    HW120194   9.435   3.354   0.381 -0.8009  0.0379  0.0486
 5049SOL    HW220195   9.498   3.399   0.511 -0.8327  2.1297 -0.6248
 5049SOL     MW20196   9.505   3.379   0.426 -0.6469 -0.0424 -0.1445
 5050SOL     OW20197   6.847   2.104   1.271 -0.5373  0.2960 -0.6094
 5050SOL    HW120198   6.828   2.097   1.364  0.0092  0.9818 -0.4309
 5050SOL    HW220199   6.813   2.190   1.246 -1.5602 -0.2929 -1.2737
 5050SOL     MW20200   6.840   2.114   1.280 -0.5983  0.3084 -0.6716
 5051SOL     OW20201   6.630   2.562   2.304 -0.3128 -0.3036  0.2865
 5051SOL    HW120202   6.673   2.563   2.389 -1.9202  0.1739  1.1332
 5051SOL    HW220203   6.603   2.652   2.289  1.8424  0.1067 -1.7948
 5051SOL     MW20204   6.632   2.573   2.313 -0.2427 -0.1899  0.1285
 5052SOL     OW20205   8.176   7.111   9.934  0.4537  0.4027  0.5345
 5052SOL    HW120206   8.183   7.018   9.957  2.9004  0.1574 -0.8267
 5052SOL    HW220207   8.120   7.113   9.857  1.3867 -0.1517 -0.1888
 5052SOL     MW20208   8.170   7.099   9.927  0.8864  0.3003  0.2676
 5053SOL     OW20209   6.981   7.739   0.327  0.3975  0.1865 -0.0440
 5053SOL    HW120210   7.038   7.702   0.394 -1.5719 -2.8651  0.1527
 5053SOL    HW220211   6.907   7.775   0.377 -0.8844 -1.7474 -0.4093
 5053SOL     MW20212   6.979   7.739   0.342 -0.0187 -0.4517 -0.0656
 5054SOL     OW20213   9.487   5.212   0.123  0.0126 -0.7714  0.3647
 5054SOL    HW120214   9.540   5.253   0.191 -1.5833 -1.6489  2.2500
 5054SOL    HW220215   9.523   5.124   0.113  0.3170 -0.6055 -0.0227
 5054SOL     MW20216   9.498   5.206   0.130 -0.1527 -0.8625  0.5565
 5055SOL     OW20217   6.599   1.991   0.790  0.1858  0.9009 -0.0940
 5055SOL    HW120218   6.658   1.916   0.792 -0.6854  0.1033 -1.6495
 5055SOL    HW220219   6.619   2.034   0.707 -0.2485  1.6089  0.1623
 5055SOL     MW20220   6.609   1.987   0.779  0.0186  0.8895 -0.2603
 5056SOL     OW20221   7.141   3.200   9.962  0.5962 -0.2247  0.5209
 5056SOL    HW120222   7.171   3.139  10.029 -0.1656 -1.0737  0.1166
 5056SOL    HW220223   7.048   3.178   9.950  0.3873  0.8069  0.1394
 5056SOL     MW20224   7.133   3.189   9.969  0.4720 -0.2013  0.4203
 5057SOL     OW20225  10.052   4.449   0.049  0.1217  0.5274 -0.0869
 5057SOL    HW120226  10.012   4.528   0.013  0.4596 -0.3641 -2.5696
 5057SOL    HW220227  10.053   4.464   0.144 -0.7819  3.0190 -0.4046
 5057SOL     MW20228  10.047   4.461   0.057  0.0493  0.7322 -0.4454
 5058SOL     OW20229   6.627   6.468   9.877  0.1269 -0.5408  0.3644
 5058SOL    HW120230   6.566   6.479   9.804  1.0072 -1.2303 -0.5073
 5058SOL    HW220231   6.607   6.540   9.937  0.3291  0.9038 -1.2304
 5058SOL     MW20232   6.616   6.479   9.875  0.2655 -0.4442  0.0487
 5059SOL     OW20233   7.330   8.228   9.503 -0.1144  0.2127 -0.3819
 5059SOL    HW120234   7.367   8.310   9.472  0.0935  0.7232  1.1224
 5059SOL    HW220235   7.386   8.202   9.576 -1.1694 -0.3652  0.2531
 5059SOL     MW20236   7.342   8.235   9.508 -0.2228  0.2041 -0.1081
 5060SOL     OW20237   8.725   4.296   2.163 -0.3900  0.1778 -0.1005
 5060SOL    HW120238   8.751   4.249   2.242 -0.3149  2.5844  1.4116
 5060SOL    HW220239   8.807   4.326   2.124 -0.4171 -1.1196 -1.2168
 5060SOL     MW20240   8.739   4.294   2.168 -0.3838  0.3198 -0.0498
 5061SOL     OW20241  10.188   7.304   9.835 -0.2295  0.0672  0.3091
 5061SOL    HW120242  10.113   7.253   9.805 -0.7447  0.5081  0.8331
 5061SOL    HW220243  10.155   7.394   9.842  0.7806  0.5813 -1.0537
 5061SOL     MW20244  10.174   7.309   9.832 -0.1661  0.1894  0.2017
 5062SOL     OW20245   8.406   7.689   2.617  0.4259 -0.0634  0.0099
 5062SOL    HW120246   8.365   7.773   2.596  2.1026  0.9160  0.4757
 5062SOL    HW220247   8.498   7.710   2.633  0.9586 -2.0415 -0.1368
 5062SOL     MW20248   8.413   7.703   2.616  0.7087 -0.1912  0.0508
 5063SOL     OW20249   9.402   6.499   1.354  0.3214  0.0152  0.2477
 5063SOL    HW120250   9.324   6.506   1.408  1.2612 -0.1491  1.6972
 5063SOL    HW220251   9.441   6.415   1.379  0.7134 -0.1390 -0.8107
 5063SOL     MW20252   9.397   6.489   1.364  0.4919 -0.0256  0.2978
 5064SOL     OW20253  10.113   8.823   1.570 -0.1741 -0.3297 -0.4280
 5064SOL    HW120254  10.173   8.760   1.529  0.2197 -1.5752  1.8868
 5064SOL    HW220255  10.030   8.776   1.576 -0.3271 -0.0286 -0.1579
 5064SOL     MW20256  10.110   8.809   1.566 -0.1433 -0.4506 -0.0971
 5065SOL     OW20257   9.807   6.849  10.052 -0.0208  0.7209 -0.0297
 5065SOL    HW120258   9.864   6.840  10.129 -0.5216  0.7633  0.3526
 5065SOL    HW220259   9.867   6.858   9.979  0.5025 -0.7978  0.1629
 5065SOL     MW20260   9.822   6.849  10.053 -0.0179  0.5319  0.0439
 5066SOL     OW20261   9.777   5.287   9.187  0.0859 -0.0226  0.3118
 5066SOL    HW120262   9.763   5.358   9.250  0.7311  0.1552  0.2636
 5066SOL    HW220263   9.860   5.248   9.212 -0.2275 -0.7261  0.2910
 5066SOL     MW20264   9.786   5.291   9.198  0.1284 -0.0899  0.3030
 5067SOL     OW20265   8.773   2.725   1.772  0.2706  0.7528 -0.2707
 5067SOL    HW120266   8.795   2.773   1.692 -0.9175  1.8535  0.0354
 5067SOL    HW220267   8.685   2.691   1.756  0.7916 -0.7342 -0.1794
 5067SOL     MW20268   8.764   2.726   1.760  0.1852  0.7033 -0.2198
 5068SOL     OW20269   7.951   3.607   9.943  0.1771  0.4103  0.2633
 5068SOL    HW120270   7.967   3.656  10.024  0.0830  0.4705  0.2456
 5068SOL    HW220271   7.857   3.615   9.929 -0.2167 -1.4880  1.3945
 5068SOL     MW20272   7.941   3.614   9.952  0.1147  0.1750  0.4059
 5069SOL     OW20273   0.033   8.334   1.889  0.8530 -0.0639 -0.2185
 5069SOL    HW120274  -0.016   8.381   1.957 -0.0888  0.1196 -0.9998
 5069SOL    HW220275   0.046   8.247   1.926  2.2819  0.6656  1.0850
 5069SOL     MW20276   0.028   8.329   1.903  0.9154  0.0530 -0.1517
 5070SOL     OW20277   8.481   2.050   9.784 -0.2893  0.3011 -0.2802
 5070SOL    HW120278   8.477   2.106   9.707  0.6273  0.6588 -0.0847
 5070SOL    HW220279   8.504   1.964   9.751 -0.8481  0.2289 -0.4945
 5070SOL     MW20280   8.483   2.046   9.770 -0.2435  0.3376 -0.2826
 5071SOL     OW20281   6.192   9.147   0.168  0.1503 -0.0622  0.6100
 5071SOL    HW120282   6.152   9.082   0.110  0.5940 -0.0099  0.2362
 5071SOL    HW220283   6.175   9.115   0.256  0.6767 -0.8805  0.4260
 5071SOL     MW20284   6.185   9.135   0.172  0.2745 -0.1603  0.5386
 5072SOL     OW20285   7.380   5.389   0.810  0.1531  0.2448  0.1224
 5072SOL    HW120286   7.404   5.397   0.903  0.7832  1.8019 -0.1515
 5072SOL    HW220287   7.359   5.478   0.783 -1.1367 -0.3615 -0.9618
 5072SOL     MW20288   7.380   5.402   0.819  0.0687  0.3665 -0.0515
 5073SOL     OW20289   8.872   3.625   2.265 -0.4976  0.2628  0.4926
 5073SOL    HW120290   8.875   3.565   2.339 -1.1770 -1.2352 -0.6410
 5073SOL    HW220291   8.862   3.568   2.188  1.9105  1.6095 -0.9674
 5073SOL     MW20292   8.871   3.610   2.264 -0.2763  0.2435  0.1606
 5074SOL     OW20293   9.060   0.197   9.552  0.2108 -0.3097  0.4336
 5074SOL    HW120294   9.033   0.231   9.466  1.0126 -1.7889 -0.4518
 5074SOL    HW220295   9.146   0.158   9.536 -0.3900 -2.1874  1.4911
 5074SOL     MW20296   9.068   0.197   9.539  0.2366 -0.7394  0.4556
 5075SOL     OW20297   8.208   9.194   0.913  0.1751 -0.2962  0.3205
 5075SOL    HW120298   8.184   9.104   0.934 -1.6324 -0.0842 -0.6342
 5075SOL    HW220299   8.139   9.247   0.952  1.1103  0.6707  0.6888
 5075SOL     MW20300   8.196   9.189   0.920  0.0634 -0.1453  0.2455
 5076SOL     OW20301   8.562   0.819   0.957 -0.2428  0.3532 -0.1866
 5076SOL    HW120302   8.581   0.854   0.870  1.4177  0.9835  0.3888
 5076SOL    HW220303   8.535   0.729   0.942 -3.3403  1.3939 -1.6119
 5076SOL     MW20304   8.561   0.812   0.944 -0.4267  0.5671 -0.2954
 5077SOL     OW20305   7.308   5.747   2.132 -0.3650 -0.1191  0.4516
 5077SOL    HW120306   7.322   5.692   2.055 -0.4323 -0.4073  0.6430
 5077SOL    HW220307   7.381   5.727   2.190 -0.5206 -0.1870  0.6255
 5077SOL     MW20308   7.319   5.738   2.130 -0.3935 -0.1647  0.4984
 5078SOL     OW20309   8.192   8.092   1.065  0.0183 -0.0635  0.4154
 5078SOL    HW120310   8.284   8.103   1.089  0.9862 -0.4779 -2.7475
 5078SOL    HW220311   8.154   8.180   1.076  1.4811  0.7571 -0.7969
 5078SOL     MW20312   8.199   8.105   1.070  0.3295 -0.0115 -0.1447
 5079SOL     OW20313   0.173   0.343   0.565 -0.0826  0.0676  0.9088
 5079SOL    HW120314   0.168   0.278   0.494  0.8183  1.0911 -0.1379
 5079SOL    HW220315   0.081   0.360   0.587 -0.6515  2.1097 -2.3321
 5079SOL     MW20316   0.160   0.337   0.559 -0.0401  0.4600  0.3599
 5080SOL     OW20317   8.234   5.324   9.219 -0.1924 -0.4384 -0.0010
 5080SOL    HW120318   8.223   5.396   9.156 -0.5756 -0.8885 -0.4597
 5080SOL    HW220319   8.302   5.269   9.181  0.9658  0.2935  0.9394
 5080SOL     MW20320   8.241   5.326   9.206 -0.0932 -0.4023  0.0607
 5081SOL     OW20321   8.185   2.018   2.389 -0.2559 -0.1370  0.3056
 5081SOL    HW120322   8.198   2.041   2.481 -1.3735 -0.6315  0.6020
 5081SOL    HW220323   8.104   1.967   2.388  0.5121 -1.3995 -0.7589
 5081SOL     MW20324   8.176   2.014   2.401 -0.3006 -0.3619  0.2073
 5082SOL     OW20325   7.528   9.676   1.184 -0.9364  0.2425  0.1723
 5082SOL    HW120326   7.556   9.686   1.274 -1.3842 -1.4011  0.5307
 5082SOL    HW220327   7.434   9.660   1.190 -1.0110  0.3614 -0.5983
 5082SOL     MW20328   7.520   9.675   1.196 -1.0033  0.0474  0.1195
 5083SOL     OW20329   6.956   9.126   0.167 -0.0905 -0.0003 -0.0614
 5083SOL    HW120330   6.874   9.174   0.173 -0.5237 -0.6569 -0.7185
 5083SOL    HW220331   6.976   9.102   0.257 -1.3781 -1.1016 -0.0444
 5083SOL     MW20332   6.948   9.129   0.179 -0.3108 -0.2253 -0.1433
 5084SOL     OW20333   9.351   9.508   9.554  0.0309  0.0795  0.2061
 5084SOL    HW120334   9.392   9.567   9.617  1.3855 -1.4173  0.7933
 5084SOL    HW220335   9.263   9.494   9.587  0.1257  0.7321  0.7565
 5084SOL     MW20336   9.345   9.514   9.566  0.2164 -0.0286  0.3517
 5085SOL     OW20337  10.116   6.742  10.009 -0.3267 -0.2190 -0.0716
 5085SOL    HW120338  10.093   6.765  10.099  1.1147  1.0263  0.0281
 5085SOL    HW220339  10.104   6.647  10.004 -1.3696 -0.1738  1.1325
 5085SOL     MW20340  10.112   6.733  10.019 -0.2757 -0.0538  0.0953
 5086SOL     OW20341   9.102  10.058   8.940 -0.0498  0.4322  0.4448
 5086SOL    HW120342   9.063  10.022   8.860  1.0369  1.5121 -0.6291
 5086SOL    HW220343   9.113  10.151   8.921 -0.7990  0.9438  2.3139
 5086SOL     MW20344   9.099  10.065   8.927 -0.0066  0.6359  0.5466
 5087SOL     OW20345   9.688   4.486   0.045  0.5198 -0.2425 -0.2541
 5087SOL    HW120346   9.672   4.574   0.010  1.5399 -0.0538 -0.2961
 5087SOL    HW220347   9.678   4.428  -0.031  0.0702 -0.1400 -0.2752
 5087SOL     MW20348   9.685   4.490   0.030  0.5928 -0.2052 -0.2622
 5088SOL     OW20349   8.351   7.932   0.684  0.0979  0.5224  0.0759
 5088SOL    HW120350   8.390   7.968   0.604 -1.0941  0.1697 -0.6827
 5088SOL    HW220351   8.335   8.009   0.739  0.9051  0.7670 -0.0179
 5088SOL     MW20352   8.354   7.947   0.681  0.0487  0.5086 -0.0332
 5089SOL     OW20353   8.588   1.210   1.621  0.0099  0.3766 -0.2805
 5089SOL    HW120354   8.600   1.220   1.527  0.9690  0.6557 -0.1335
 5089SOL    HW220355   8.619   1.122   1.641 -0.9885 -0.0069 -0.3402
 5089SOL     MW20356   8.593   1.200   1.612  0.0049  0.3632 -0.2693
 5090SOL     OW20357   8.804   4.942   3.064  0.2309  0.4273 -0.6973
 5090SOL    HW120358   8.898   4.960   3.071  0.5065 -1.3958  1.3805
 5090SOL    HW220359   8.767   4.976   3.145 -0.5217 -0.7611 -0.5169
 5090SOL     MW20360   8.811   4.948   3.076  0.1699  0.0418 -0.4082
 5091SOL     OW20361   7.254   2.726   1.763  0.0571  0.0458 -0.1378
 5091SOL    HW120362   7.326   2.759   1.816  0.7068  2.4869 -2.3612
 5091SOL    HW220363   7.273   2.756   1.675 -3.2627  0.0600 -0.9766
 5091SOL     MW20364   7.265   2.734   1.759 -0.2847  0.3601 -0.5298
 5092SOL     OW20365   8.386   7.294   9.912 -0.1222  0.6675  0.2119
 5092SOL    HW120366   8.301   7.251   9.900 -0.2564  0.6114  1.2291
 5092SOL    HW220367   8.388   7.317  10.005  1.2605  0.0515  0.3610
 5092SOL     MW20368   8.376   7.291   9.922  0.0376  0.5814  0.3612
 5093SOL     OW20369   0.336   6.992   1.593  0.1418 -0.0613 -0.5435
 5093SOL    HW120370   0.304   7.070   1.639 -0.3966  0.2078 -1.3447
 5093SOL    HW220371   0.287   6.920   1.632  0.3593  0.0451 -0.0660
 5093SOL     MW20372   0.325   6.993   1.604  0.1007 -0.0132 -0.5849
 5094SOL     OW20373   8.437   5.812   2.528  0.1846  0.0169 -0.2962
 5094SOL    HW120374   8.419   5.881   2.464  0.6944 -0.1572 -0.6289
 5094SOL    HW220375   8.514   5.842   2.576  1.1656 -0.8829 -1.2744
 5094SOL     MW20376   8.444   5.825   2.526  0.3755 -0.1206 -0.4640
 5095SOL     OW20377   9.642   8.479   9.871 -0.4138  0.7848 -0.2952
 5095SOL    HW120378   9.717   8.477   9.812 -0.0481  2.4231  0.0593
 5095SOL    HW220379   9.667   8.420   9.942 -0.2496 -0.0893 -1.0596
 5095SOL     MW20380   9.655   8.471   9.873 -0.3460  0.8826 -0.3477
 5096SOL     OW20381   6.670   0.292   2.224 -0.1208  0.2758 -0.2003
 5096SOL    HW120382   6.716   0.355   2.169  1.4934 -0.0596  0.7047
 5096SOL    HW220383   6.731   0.219   2.234 -0.6458  0.0057  1.4173
 5096SOL     MW20384   6.683   0.290   2.219  0.0186  0.1983  0.1226
 5097SOL     OW20385   7.891   1.327   2.726  0.0541 -0.5458  0.2617
 5097SOL    HW120386   7.972   1.366   2.692 -0.0314 -1.8085 -1.5070
 5097SOL    HW220387   7.919   1.243   2.763 -0.1963 -0.1820  1.2984
 5097SOL     MW20388   7.905   1.321   2.726  0.0111 -0.6609  0.1680
 5098SOL     OW20389   8.687   4.256   9.664  0.0527  0.0806 -0.1660
 5098SOL    HW120390   8.683   4.324   9.731 -0.5236  1.5732 -1.6580
 5098SOL    HW220391   8.604   4.262   9.618  0.1058 -1.4655 -0.5160
 5098SOL     MW20392   8.676   4.266   9.667 -0.0143  0.0737 -0.4018
 5099SOL     OW20393   9.895   2.035   0.923  0.4774 -0.9948  0.1834
 5099SOL    HW120394   9.834   2.071   0.859  2.9570  1.6224 -0.9443
 5099SOL    HW220395   9.940   1.965   0.876  0.0596 -1.2886  0.2120
 5099SOL     MW20396   9.893   2.030   0.909  0.7413 -0.6974  0.0427
 5100SOL     OW20397   6.712   4.379   0.711  0.9942 -0.4506  0.3251
 5100SOL    HW120398   6.671   4.397   0.626  0.3868 -1.5986  0.3475
 5100SOL    HW220399   6.672   4.442   0.771  0.3582 -0.5739  0.0362
 5100SOL     MW20400   6.701   4.389   0.708  0.8351 -0.6133  0.2910
 5101SOL     OW20401   0.167   1.905   2.246 -0.2341  0.2299  0.8329
 5101SOL    HW120402   0.225   1.831   2.264  0.4286  0.8123  1.1490
 5101SOL    HW220403   0.086   1.884   2.294 -0.1723 -0.4244  0.6689
 5101SOL     MW20404   0.164   1.893   2.255 -0.1413  0.2207  0.8524
 5102SOL     OW20405   7.230   9.554   0.528  0.0898  0.4155  0.0311
 5102SOL    HW120406   7.224   9.525   0.437  2.1886  0.8127 -0.2817
 5102SOL    HW220407   7.244   9.474   0.578 -1.2669  0.1734  0.0638
 5102SOL     MW20408   7.231   9.540   0.523  0.1848  0.4354 -0.0048
 5103SOL     OW20409   6.764   6.076   1.445  0.0335  0.4884  0.2036
 5103SOL    HW120410   6.844   6.124   1.468  0.8370 -0.2972 -0.7923
 5103SOL    HW220411   6.707   6.141   1.405  1.2541  0.5975 -1.4572
 5103SOL     MW20412   6.767   6.090   1.443  0.2926  0.4018 -0.1365
 5104SOL     OW20413   8.569   9.237   2.722 -0.7187 -0.2565 -0.3164
 5104SOL    HW120414   8.491   9.183   2.719 -0.8322 -0.0792 -0.6375
 5104SOL    HW220415   8.556   9.296   2.796  0.0425 -1.6194  0.9521
 5104SOL     MW20416   8.558   9.238   2.731 -0.6358 -0.4083 -0.1951
 5105SOL     OW20417   8.027   9.813   1.678 -0.1383  0.7321 -0.2285
 5105SOL    HW120418   7.946   9.803   1.729 -0.6339  1.7826 -0.7774
 5105SOL    HW220419   8.049   9.724   1.650 -0.8827  0.3829  0.2625
 5105SOL     MW20420   8.019   9.800   1.681 -0.2970  0.8219 -0.2359
 5106SOL     OW20421   7.934   9.530   8.878 -0.3287  0.1149  0.7080
 5106SOL    HW120422   7.926   9.456   8.938 -0.8510 -1.4549 -1.1629
 5106SOL    HW220423   7.890   9.602   8.923 -1.3195 -1.1731  1.9274
 5106SOL     MW20424   7.927   9.529   8.891 -0.5224 -0.2509  0.6246
 5107SOL     OW20425   7.504   1.593   0.856  0.3866 -0.1796  0.1690
 5107SOL    HW120426   7.443   1.541   0.909  0.1688  0.1234  0.2153
 5107SOL    HW220427   7.450   1.662   0.818  0.5797 -0.2793 -0.2986
 5107SOL     MW20428   7.489   1.595   0.858  0.3835 -0.1536  0.1150
 5108SOL     OW20429   9.531   0.634   0.301 -0.3850  0.3509 -0.3257
 5108SOL    HW120430   9.488   0.617   0.385 -0.5515 -0.4013 -0.5553
 5108SOL    HW220431   9.591   0.560   0.289  0.2406  0.8716 -0.4873
 5108SOL     MW20432   9.534   0.623   0.310 -0.3262  0.3213 -0.3758
 5109SOL     OW20433   7.354   3.680   0.666 -0.8437 -0.3023 -0.6186
 5109SOL    HW120434   7.407   3.688   0.586 -1.1349 -1.0457 -0.8905
 5109SOL    HW220435   7.415   3.650   0.733 -0.7600 -0.4115 -0.7449
 5109SOL     MW20436   7.369   3.677   0.664 -0.8702 -0.4114 -0.6696
 5110SOL     OW20437   7.634   6.767   2.388 -0.2556 -0.4389  0.2136
 5110SOL    HW120438   7.613   6.747   2.480  2.4774 -1.3617  0.7413
 5110SOL    HW220439   7.706   6.830   2.394 -1.1533  0.7982 -1.3765
 5110SOL     MW20440   7.640   6.772   2.401 -0.0207 -0.3987  0.0776
 5111SOL     OW20441   0.364   1.884   0.477 -0.3366  0.0779 -0.6925
 5111SOL    HW120442   0.370   1.977   0.458 -0.3737 -0.0390 -1.3183
 5111SOL    HW220443   0.406   1.873   0.562  1.0185  0.4544 -1.2872
 5111SOL     MW20444   0.370   1.894   0.485 -0.1679  0.1112 -0.8487
 5112SOL     OW20445   8.899   8.772   1.399  0.3104 -0.2504  0.2504
 5112SOL    HW120446   8.909   8.695   1.455  0.0725 -1.0601 -0.7780
 5112SOL    HW220447   8.988   8.789   1.366  0.1651 -0.8263 -0.4538
 5112SOL     MW20448   8.912   8.765   1.402  0.2614 -0.4278  0.0286
 5113SOL     OW20449   8.062   1.138   1.286 -0.3703 -0.1521 -0.0480
 5113SOL    HW120450   8.142   1.130   1.338 -1.0548 -1.6795  0.8568
 5113SOL    HW220451   8.072   1.221   1.239  2.2791 -0.8975 -0.9525
 5113SOL     MW20452   8.073   1.148   1.287 -0.1187 -0.4430 -0.0480
 5114SOL     OW20453   8.327   9.559   0.042 -0.2836  0.1735  0.6572
 5114SOL    HW120454   8.388   9.606  -0.015  1.1482 -1.3067  0.8865
 5114SOL    HW220455   8.256   9.531  -0.015  0.1967  0.3143 -0.0146
 5114SOL     MW20456   8.326   9.562   0.028 -0.0388  0.0021  0.6005
 5115SOL     OW20457   8.738   8.663   3.015 -0.1723 -0.4457  0.0668
 5115SOL    HW120458   8.829   8.640   3.037  0.0333  1.4027  1.3304
 5115SOL    HW220459   8.690   8.654   3.097 -0.6229  0.8762 -0.0225
 5115SOL     MW20460   8.744   8.659   3.028 -0.2036 -0.0398  0.2171
 5116SOL     OW20461   6.841   1.915   0.295  0.1127 -0.0263  0.1410
 5116SOL    HW120462   6.823   1.854   0.366 -0.0189  1.1994  1.2084
 5116SOL    HW220463   6.901   1.979   0.333 -1.2851  1.6366 -0.2988
 5116SOL     MW20464   6.846   1.916   0.309 -0.0831  0.3435  0.2213
 5117SOL     OW20465   9.089   6.053   9.376 -0.0644  0.3044 -0.2702
 5117SOL    HW120466   9.100   6.125   9.315 -2.9078  1.8303  0.8229
 5117SOL    HW220467   9.164   6.058   9.434  0.7937  1.1265 -1.4152
 5117SOL     MW20468   9.100   6.063   9.375 -0.3186  0.6049 -0.2769
 5118SOL     OW20469   7.421   0.866   3.056  0.3449  0.3102 -0.4931
 5118SOL    HW120470   7.460   0.943   3.013 -0.0164  0.3149 -0.8139
 5118SOL    HW220471   7.496   0.812   3.079  0.6525  1.0677  0.3302
 5118SOL     MW20472   7.436   0.869   3.053  0.3380  0.4078 -0.4288
 5119SOL     OW20473   9.185   9.969   1.201  0.6436 -0.3328 -0.2957
 5119SOL    HW120474   9.218   9.894   1.151 -1.4928 -1.0038 -0.8329
 5119SOL    HW220475   9.149   9.930   1.281  1.9836  0.4775  0.7303
 5119SOL     MW20476   9.184   9.954   1.205  0.5417 -0.3150 -0.2331
 5120SOL     OW20477   8.522   0.405   3.300  0.1044 -0.2253 -0.3057
 5120SOL    HW120478   8.446   0.425   3.245  1.0215 -0.9182 -1.9150
 5120SOL    HW220479   8.505   0.315   3.330  0.7767 -0.8158 -1.6078
 5120SOL     MW20480   8.510   0.396   3.297  0.3079 -0.3896 -0.6784
 5121SOL     OW20481   8.892   6.117   0.135  0.0052 -0.4171 -0.0655
 5121SOL    HW120482   8.866   6.065   0.060 -2.6350  1.2765 -0.4376
 5121SOL    HW220483   8.928   6.053   0.197  2.2524 -1.8657 -2.6344
 5121SOL     MW20484   8.893   6.102   0.134 -0.0451 -0.3857 -0.4420
 5122SOL     OW20485   7.899   7.262   1.364  0.6068  0.1456 -0.0796
 5122SOL    HW120486   7.911   7.219   1.449  1.3075  0.7340  0.1239
 5122SOL    HW220487   7.923   7.195   1.300 -0.0969 -0.3607  0.1632
 5122SOL     MW20488   7.903   7.248   1.367  0.6064  0.1561 -0.0224
 5123SOL     OW20489   9.707   3.439   0.787  0.5941  0.4681 -0.4380
 5123SOL    HW120490   9.729   3.346   0.784  1.6904  0.6029  1.8164
 5123SOL    HW220491   9.780   3.482   0.742  1.5731  0.4025  1.0141
 5123SOL     MW20492   9.719   3.433   0.781  0.8598  0.4770  0.0365
 5124SOL     OW20493   7.339   3.600   9.964  0.0557  1.2946  0.3614
 5124SOL    HW120494   7.402   3.657   9.921  2.2407 -1.5505 -0.4974
 5124SOL    HW220495   7.375   3.587  10.052  0.5040  0.0003  0.0085
 5124SOL     MW20496   7.352   3.606   9.970  0.3928  0.7647  0.2063
 5125SOL     OW20497   8.164   0.815   0.953 -0.6525  0.1495 -0.5869
 5125SOL    HW120498   8.230   0.882   0.931  0.1584  0.0250  1.2661
 5125SOL    HW220499   8.110   0.857   1.020 -0.3899 -0.8767  0.2945
 5125SOL     MW20500   8.166   0.829   0.959 -0.5151  0.0022 -0.2369
 5126SOL     OW20501   0.409   1.714   1.395  0.9059 -0.3288 -0.0990
 5126SOL    HW120502   0.406   1.784   1.460 -1.8936 -0.0439 -0.4129
 5126SOL    HW220503   0.376   1.754   1.314  0.5115 -1.6582 -0.6247
 5126SOL     MW20504   0.404   1.728   1.393  0.4970 -0.4625 -0.2065
 5127SOL     OW20505   8.368   1.081   8.766  0.0614 -0.6504 -0.0787
 5127SOL    HW120506   8.385   1.065   8.673  0.6353  0.0900 -0.1077
 5127SOL    HW220507   8.384   1.174   8.778 -1.5401 -0.4136  0.4501
 5127SOL     MW20508   8.372   1.091   8.756 -0.0701 -0.5253 -0.0147
 5128SOL     OW20509   0.008   8.150   1.194 -0.0754  0.1528 -0.5517
 5128SOL    HW120510   0.072   8.152   1.265 -0.3848  1.9549 -0.2967
 5128SOL    HW220511   0.025   8.230   1.144 -2.4668  0.9912 -0.1546
 5128SOL     MW20512   0.019   8.160   1.197 -0.4211  0.4908 -0.4682
 5129SOL     OW20513   7.446   2.859   2.079 -0.3109  0.1477 -0.1234
 5129SOL    HW120514   7.473   2.771   2.104 -0.5717 -0.1506 -0.8485
 5129SOL    HW220515   7.389   2.888   2.150 -0.6851 -0.5016 -0.1462
 5129SOL     MW20516   7.442   2.852   2.091 -0.3922  0.0264 -0.2191
 5130SOL     OW20517   9.961   7.237   9.466  0.3339 -0.0992  0.1337
 5130SOL    HW120518   9.954   7.331   9.481  2.2933 -0.0220  0.8957
 5130SOL    HW220519   9.882   7.214   9.417 -1.0510  1.6226  1.4232
 5130SOL     MW20520   9.950   7.246   9.462  0.4074  0.1311  0.3963
 5131SOL     OW20521   9.503   5.188   2.712  0.6024  0.4194 -0.0227
 5131SOL    HW120522   9.532   5.275   2.684 -0.0113  1.2543  1.7762
 5131SOL    HW220523   9.430   5.205   2.771 -0.3026 -1.4024 -0.5524
 5131SOL     MW20524   9.497   5.201   2.716  0.4080  0.2931  0.1397
 5132SOL     OW20525   7.825   8.345   1.321  0.4836  0.8511 -0.0550
 5132SOL    HW120526   7.911   8.356   1.280  0.1314  0.8915 -0.8214
 5132SOL    HW220527   7.822   8.253   1.346  0.1691  0.4456 -1.4590
 5132SOL     MW20528   7.835   8.335   1.319  0.3983  0.8043 -0.3328
 5133SOL     OW20529   7.226   0.585   2.459  0.2913  0.1740  0.2924
 5133SOL    HW120530   7.142   0.543   2.441 -0.5716  1.9813 -0.1410
 5133SOL    HW220531   7.208   0.642   2.534  0.9473  1.0845 -0.2365
 5133SOL     MW20532   7.213   0.587   2.467  0.2648  0.5219  0.1692
 5134SOL     OW20533   8.247   6.105   0.203 -0.1952 -0.3736  0.3941
 5134SOL    HW120534   8.255   6.032   0.264 -1.0939 -0.5721  0.2825
 5134SOL    HW220535   8.307   6.172   0.238  0.3416 -1.0077  0.7102
 5134SOL     MW20536   8.256   6.104   0.216 -0.2416 -0.4802  0.4202
 5135SOL     OW20537   6.903   7.073   2.779  0.0451  0.4499 -0.5612
 5135SOL    HW120538   6.943   6.988   2.762  0.6509  0.8599 -1.2058
 5135SOL    HW220539   6.826   7.053   2.834  1.3546 -0.3197  1.0903
 5135SOL     MW20540   6.898   7.059   2.784  0.2903  0.4039 -0.4323
 5136SOL     OW20541   9.370   9.918   9.682 -0.0462 -0.2983  0.1519
 5136SOL    HW120542   9.362   9.824   9.696 -0.7971 -0.3484 -0.5044
 5136SOL    HW220543   9.427   9.927   9.606  1.6923 -0.1329  1.4328
 5136SOL     MW20544   9.376   9.907   9.674  0.0803 -0.2836  0.2319
 5137SOL     OW20545   8.941   8.558   9.156 -0.4122  0.6597  0.4995
 5137SOL    HW120546   8.897   8.638   9.129  0.0353  0.9407  0.5982
 5137SOL    HW220547   8.869   8.499   9.180 -0.7143  1.5532  1.9125
 5137SOL     MW20548   8.926   8.560   9.156 -0.3935  0.8101  0.6930
 5138SOL     OW20549   9.365   9.371   1.916 -0.0970  0.3202  0.2623
 5138SOL    HW120550   9.274   9.378   1.947 -0.3459 -2.3062  0.3690
 5138SOL    HW220551   9.368   9.429   1.840 -0.3585  4.4353  3.0835
 5138SOL     MW20552   9.353   9.379   1.910 -0.1623  0.5108  0.6371
 5139SOL     OW20553   9.231   9.823   3.127  0.0591  0.1217 -0.3531
 5139SOL    HW120554   9.217   9.884   3.055  0.3150  0.1339 -0.3905
 5139SOL    HW220555   9.189   9.864   3.202  1.9528  1.2822  0.1061
 5139SOL     MW20556   9.224   9.836   3.127  0.3343  0.2718 -0.2991
 5140SOL     OW20557   7.707   5.045   1.335 -0.0950  0.2543  0.0271
 5140SOL    HW120558   7.795   5.018   1.311 -0.4778 -0.6516 -0.4297
 5140SOL    HW220559   7.693   5.126   1.287  0.3808  0.2473 -0.1286
 5140SOL     MW20560   7.716   5.052   1.326 -0.0831  0.1374 -0.0513
 5141SOL     OW20561   9.890  10.045   1.110  0.2946 -0.8644  0.2651
 5141SOL    HW120562   9.893  10.034   1.015  1.3508  0.2287  0.1439
 5141SOL    HW220563   9.933   9.967   1.145 -1.0039 -1.7705 -0.0768
 5141SOL     MW20564   9.896  10.034   1.103  0.2636 -0.8405  0.2058
 5142SOL     OW20565   9.429   9.631   3.046 -0.4367 -0.8375  0.3050
 5142SOL    HW120566   9.397   9.707   3.094  1.9106  1.1750 -1.0903
 5142SOL    HW220567   9.363   9.563   3.061 -1.8550  0.9666  2.8596
 5142SOL     MW20568   9.416   9.632   3.054 -0.3178 -0.3490  0.4534
 5143SOL     OW20569   7.279   8.597   1.435  0.1153 -0.1204 -0.2361
 5143SOL    HW120570   7.320   8.521   1.476 -0.9361 -1.4704 -1.5944
 5143SOL    HW220571   7.351   8.643   1.392  1.0828  0.8048  2.1884
 5143SOL     MW20572   7.294   8.593   1.435  0.1045 -0.1747 -0.0996
 5144SOL     OW20573   7.612   8.884   3.181  0.2746 -0.4286  0.4603
 5144SOL    HW120574   7.551   8.945   3.140  1.4449  0.4478 -0.0259
 5144SOL    HW220575   7.658   8.937   3.247 -0.1639 -1.3230  1.5220
 5144SOL     MW20576   7.610   8.899   3.184  0.3683 -0.4309  0.5340
 5145SOL     OW20577   6.627   9.749   0.193  0.1516  0.3662 -0.0160
 5145SOL    HW120578   6.590   9.752   0.105  1.0423  1.1405 -0.3766
 5145SOL    HW220579   6.658   9.838   0.210 -2.3050  0.9277  2.1243
 5145SOL     MW20580   6.626   9.760   0.184 -0.0489  0.5372  0.2118
 5146SOL     OW20581   8.891   1.084   9.851  0.0826 -0.5371 -0.2259
 5146SOL    HW120582   8.972   1.128   9.876 -0.2286 -0.9696  1.6464
 5146SOL    HW220583   8.825   1.154   9.852  0.1409 -0.4823 -0.2008
 5146SOL     MW20584   8.893   1.099   9.854  0.0502 -0.5854  0.0170
 5147SOL     OW20585   8.221   7.756   0.469  0.1505  0.4560  0.1985
 5147SOL    HW120586   8.134   7.780   0.437  0.0707  1.4550  1.0899
 5147SOL    HW220587   8.246   7.828   0.527  1.4457  0.0348  0.2019
 5147SOL     MW20588   8.213   7.768   0.472  0.3061  0.5299  0.3130
 5148SOL     OW20589   5.903   4.906   0.680  0.5280 -0.3388 -0.3145
 5148SOL    HW120590   5.807   4.909   0.682  0.4986 -0.9345 -0.7763
 5148SOL    HW220591   5.930   4.986   0.726 -0.1806 -0.8781  1.1032
 5148SOL     MW20592   5.894   4.917   0.686  0.4335 -0.4841 -0.1922
 5149SOL     OW20593   6.332   1.173   0.133  0.4587  0.3917  0.1340
 5149SOL    HW120594   6.392   1.200   0.064  0.7296  3.6373  1.4619
 5149SOL    HW220595   6.381   1.186   0.214 -1.1825  0.7025  1.1228
 5149SOL     MW20596   6.346   1.178   0.134  0.2833  0.8470  0.4306
 5150SOL     OW20597   7.174   7.698   1.562 -0.2207  0.2084 -0.4179
 5150SOL    HW120598   7.166   7.783   1.519 -0.2175 -0.4945 -1.8519
 5150SOL    HW220599   7.099   7.694   1.622 -0.2645  1.1771 -0.4000
 5150SOL     MW20600   7.164   7.708   1.564 -0.2259  0.2424 -0.5992
 5151SOL     OW20601   7.789   5.616   9.302  0.2371  0.7866  0.0220
 5151SOL    HW120602   7.782   5.711   9.296  1.2421  0.7853 -2.6341
 5151SOL    HW220603   7.715   5.583   9.251  0.7087  0.1984 -0.2979
 5151SOL     MW20604   7.779   5.624   9.295  0.4261  0.7111 -0.3589
 5152SOL     OW20605   8.180   7.921   2.764  0.0275 -0.2067  0.7114
 5152SOL    HW120606   8.247   7.941   2.697  1.2325 -2.1085  1.2791
 5152SOL    HW220607   8.129   7.850   2.727 -0.6549  0.1484  0.9603
 5152SOL     MW20608   8.182   7.915   2.751  0.0944 -0.4047  0.8159
 5153SOL     OW20609  10.139   0.737   2.286  0.0144 -0.1596 -0.1424
 5153SOL    HW120610  10.180   0.655   2.257  0.1609 -0.0511 -0.2437
 5153SOL    HW220611  10.105   0.776   2.205  3.3776  1.8384 -0.8060
 5153SOL     MW20612  10.140   0.731   2.272  0.4637  0.1101 -0.2403
 5154SOL     OW20613   7.919   1.162   1.723  0.1090 -0.1221 -0.2844
 5154SOL    HW120614   7.834   1.123   1.744 -1.1341  0.8559 -3.0451
 5154SOL    HW220615   7.967   1.092   1.680  0.7380 -0.6648  1.2448
 5154SOL     MW20616   7.914   1.148   1.720  0.0304 -0.0664 -0.4420
 5155SOL     OW20617   6.507   1.999   0.461 -0.5764 -0.0173 -0.2018
 5155SOL    HW120618   6.534   2.013   0.370  2.3740  1.0997  0.7087
 5155SOL    HW220619   6.500   1.904   0.470  0.5091 -0.2292 -1.2855
 5155SOL     MW20620   6.510   1.989   0.450 -0.0597  0.0986 -0.2240
 5156SOL     OW20621   7.963   4.858   1.323 -0.2518  0.0653 -0.1331
 5156SOL    HW120622   8.001   4.771   1.308  0.1279  0.1251  0.4232
 5156SOL    HW220623   8.039   4.915   1.338 -0.4846  0.5458 -0.7542
 5156SOL     MW20624   7.978   4.854   1.323 -0.2330  0.1344 -0.1414
 5157SOL     OW20625   7.522   2.134   1.901  0.2214  0.9089 -0.3198
 5157SOL    HW120626   7.526   2.061   1.840 -1.4599 -0.2211  0.8163
 5157SOL    HW220627   7.598   2.122   1.958 -0.2208 -0.2060  0.0671
 5157SOL     MW20628   7.532   2.123   1.901 -0.0504  0.6215 -0.1248
 5158SOL     OW20629   7.026   0.316   8.717  0.3766  0.3346 -0.1702
 5158SOL    HW120630   7.046   0.385   8.779 -0.3028  0.6217 -0.2604
 5158SOL    HW220631   6.953   0.350   8.666  1.0055  0.1641 -1.2222
 5158SOL     MW20632   7.019   0.329   8.718  0.3701  0.3495 -0.3164
 5159SOL     OW20633   9.938   9.376   2.029 -0.0451  0.1684  0.4219
 5159SOL    HW120634   9.964   9.291   2.064  1.2291 -0.2444 -1.3909
 5159SOL    HW220635   9.963   9.439   2.097 -1.0320 -0.8627  1.8029
 5159SOL     MW20636   9.944   9.373   2.042 -0.0083 -0.0164  0.3666
 5160SOL     OW20637   7.238   9.855   0.522 -0.0055 -0.0336 -0.0314
 5160SOL    HW120638   7.216   9.859   0.615 -0.6685 -0.0931 -0.1850
 5160SOL    HW220639   7.154   9.853   0.477  0.2851 -1.3801 -0.5766
 5160SOL     MW20640   7.225   9.855   0.528 -0.0531 -0.2136 -0.1208
 5161SOL     OW20641   6.742   2.946   1.378 -0.3262  0.2439  1.1049
 5161SOL    HW120642   6.816   2.900   1.417 -0.2196 -0.2187  0.3795
 5161SOL    HW220643   6.675   2.947   1.447 -0.2489 -0.8132  1.2083
 5161SOL     MW20644   6.743   2.940   1.392 -0.3027  0.0493  1.0253
 5162SOL     OW20645   7.913   2.435   2.796  0.1998 -0.0086 -0.0910
 5162SOL    HW120646   7.949   2.347   2.803 -0.4479 -0.4217 -1.7064
 5162SOL    HW220647   7.974   2.481   2.738 -0.7742 -0.1461 -1.2597
 5162SOL     MW20648   7.925   2.430   2.790 -0.0078 -0.0791 -0.4474
 5163SOL     OW20649   6.804   1.455   1.206  0.5016 -0.1823 -0.1412
 5163SOL    HW120650   6.868   1.526   1.214 -0.0858  0.5016 -1.2518
 5163SOL    HW220651   6.729   1.495   1.162 -0.9225 -0.8281  1.5746
 5163SOL     MW20652   6.803   1.469   1.201  0.2441 -0.1775 -0.0637
 5164SOL     OW20653   8.728   3.263   0.299  0.0530 -0.2452 -0.0258
 5164SOL    HW120654   8.807   3.258   0.352  0.8076 -2.4512 -1.2076
 5164SOL    HW220655   8.656   3.259   0.362  0.8705  0.6960  0.9945
 5164SOL     MW20656   8.729   3.262   0.314  0.2542 -0.4071 -0.0465
 5165SOL     OW20657   6.325   6.450   0.407 -0.0343 -0.5624 -0.2029
 5165SOL    HW120658   6.273   6.391   0.352 -1.4132  1.7467 -1.5270
 5165SOL    HW220659   6.413   6.446   0.371 -0.2474 -1.2885 -0.6737
 5165SOL     MW20660   6.329   6.442   0.396 -0.2381 -0.3598 -0.4327
 5166SOL     OW20661   7.740   0.216   0.697 -0.3763 -0.0595  0.3916
 5166SOL    HW120662   7.658   0.265   0.700 -1.0644 -1.1844  0.5103
 5166SOL    HW220663   7.806   0.278   0.727 -1.1639  0.8907  0.2129
 5166SOL     MW20664   7.738   0.231   0.701 -0.5652 -0.0819  0.3839
 5167SOL     OW20665   8.818   7.681   0.862  0.0749  0.1569  0.3762
 5167SOL    HW120666   8.870   7.660   0.784  1.3321  0.4277  1.1134
 5167SOL    HW220667   8.733   7.710   0.827 -0.0457 -1.4629 -0.8167
 5167SOL     MW20668   8.814   7.682   0.847  0.2204 -0.0158  0.3179
 5168SOL     OW20669   9.616   9.815  10.071  0.2685  0.6885  0.4393
 5168SOL    HW120670   9.576   9.888  10.023  1.2618  2.2035  1.7885
 5168SOL    HW220671   9.709   9.836  10.073  0.3026  0.6274  2.7872
 5168SOL     MW20672   9.623   9.827  10.065  0.4001  0.8746  0.9126
 5169SOL     OW20673   8.683   6.363   1.078 -0.1718  0.3818 -0.1115
 5169SOL    HW120674   8.592   6.342   1.102  0.0584 -1.0282 -0.3564
 5169SOL    HW220675   8.715   6.418   1.149 -0.8745 -0.0427  0.5509
 5169SOL     MW20676   8.675   6.367   1.090 -0.2323  0.1470 -0.0580
 5170SOL     OW20677   7.592   1.438   0.232 -0.0206 -0.1776 -0.1589
 5170SOL    HW120678   7.613   1.472   0.319 -0.3361 -1.3384  0.3963
 5170SOL    HW220679   7.677   1.423   0.191  0.3041 -2.8805  1.2846
 5170SOL     MW20680   7.606   1.440   0.238 -0.0194 -0.6722  0.0970
 5171SOL     OW20681   7.594   9.558   1.933 -0.4964  0.1024 -0.2466
 5171SOL    HW120682   7.609   9.652   1.941 -2.5147  0.4886 -0.4188
 5171SOL    HW220683   7.510   9.551   1.887 -0.9392 -1.7591  0.7398
 5171SOL     MW20684   7.585   9.569   1.928 -0.8115 -0.0864 -0.1424
 5172SOL     OW20685   7.967   7.010   9.278  0.4682  0.7173 -0.0624
 5172SOL    HW120686   7.977   7.075   9.208 -0.1984 -0.2333 -1.0665
 5172SOL    HW220687   7.878   6.977   9.268  0.5937  0.0895  0.8130
 5172SOL     MW20688   7.957   7.014   9.267  0.3989  0.5153 -0.0789
 5173SOL     OW20689  10.064   9.966   1.797 -0.1067 -0.2196  0.1417
 5173SOL    HW120690  10.154   9.967   1.763 -0.3007 -1.9867 -0.5305
 5173SOL    HW220691  10.060   9.886   1.850 -0.7707  0.7994  1.6891
 5173SOL     MW20692  10.075   9.956   1.800 -0.2166 -0.3153  0.2538
 5174SOL     OW20693   9.637   6.344   0.519  0.3690  0.0887  0.1209
 5174SOL    HW120694   9.583   6.422   0.507 -2.3801 -1.7983 -0.9172
 5174SOL    HW220695   9.615   6.313   0.607  2.3309  1.0349  0.9907
 5174SOL     MW20696   9.627   6.350   0.529  0.2682 -0.0317  0.0993
 5175SOL     OW20697   7.441   5.330   2.063 -0.1258  0.1431  0.4053
 5175SOL    HW120698   7.513   5.386   2.092  0.3289  0.1114 -0.6011
 5175SOL    HW220699   7.485   5.256   2.021 -0.7082 -1.0390  1.7745
 5175SOL     MW20700   7.456   5.327   2.061 -0.1422 -0.0123  0.4518
 5176SOL     OW20701   7.884   1.755   9.513 -0.2115 -0.5793  0.0124
 5176SOL    HW120702   7.962   1.744   9.569 -0.4798  0.5174  0.6340
 5176SOL    HW220703   7.818   1.700   9.554 -1.3431  2.4195  2.7014
 5176SOL     MW20704   7.886   1.747   9.526 -0.3907 -0.0550  0.4362
 5177SOL     OW20705   8.753   7.384   0.850 -0.3585  0.2116  0.6445
 5177SOL    HW120706   8.660   7.400   0.867 -0.5579  0.1372 -0.3508
 5177SOL    HW220707   8.793   7.470   0.859 -1.3807  1.5256 -4.3454
 5177SOL     MW20708   8.746   7.397   0.853 -0.5149  0.3703 -0.1217
 5178SOL     OW20709   8.842   4.116   9.214 -0.5013  0.2833  0.2768
 5178SOL    HW120710   8.747   4.117   9.203 -0.3964 -1.1393 -1.2018
 5178SOL    HW220711   8.872   4.199   9.177 -1.1411  0.6794  0.6301
 5178SOL     MW20712   8.834   4.127   9.208 -0.5698  0.1519  0.1328
 5179SOL     OW20713   6.973   9.449   1.851 -0.2338  0.0020  0.3455
 5179SOL    HW120714   6.963   9.395   1.929  1.3969 -0.2577  0.4006
 5179SOL    HW220715   6.964   9.539   1.882 -0.6063 -0.1386  0.6476
 5179SOL     MW20716   6.970   9.454   1.865 -0.0727 -0.0492  0.3912
 5180SOL     OW20717   8.976   9.901   0.827  0.5173  0.1873  0.2616
 5180SOL    HW120718   8.897   9.906   0.773  0.5847  0.2506  0.1676
 5180SOL    HW220719   8.967   9.973   0.890  0.5644  0.2821  0.1620
 5180SOL     MW20720   8.965   9.911   0.828  0.5319  0.2076  0.2368
 5181SOL     OW20721   9.688   1.478   1.982 -0.4676 -0.0483  0.2243
 5181SOL    HW120722   9.752   1.467   2.053 -0.1353  1.6002  0.2167
 5181SOL    HW220723   9.735   1.453   1.903 -0.2534 -0.1150  0.3717
 5181SOL     MW20724   9.702   1.473   1.981 -0.3976  0.1542  0.2422
 5182SOL     OW20725   6.593   7.565   0.331  0.0467  0.0803  0.0631
 5182SOL    HW120726   6.580   7.493   0.270  2.4278  0.0200 -0.4394
 5182SOL    HW220727   6.652   7.529   0.398  0.1675  1.1586  0.5524
 5182SOL     MW20728   6.599   7.551   0.332  0.3670  0.2106  0.0614
 5183SOL     OW20729   9.407   5.906   2.002 -0.1183  0.1245 -0.0213
 5183SOL    HW120730   9.392   5.934   1.912 -0.9710 -0.3652 -0.0467
 5183SOL    HW220731   9.451   5.822   1.994 -0.5746 -0.1197  0.0095
 5183SOL     MW20732   9.411   5.899   1.990 -0.2859  0.0306 -0.0206
 5184SOL     OW20733   8.061   0.046   1.049 -0.2746  0.3425 -0.3140
 5184SOL    HW120734   8.123   0.035   1.121 -0.2010 -2.2953 -0.6668
 5184SOL    HW220735   7.976   0.023   1.087 -0.3949 -0.0371 -0.7989
 5184SOL     MW20736   8.058   0.041   1.063 -0.2806 -0.0438 -0.4212
 5185SOL     OW20737   7.693   8.373   2.252  0.3266  0.0097 -0.4016
 5185SOL    HW120738   7.674   8.321   2.330  0.2506  0.8549  0.1562
 5185SOL    HW220739   7.745   8.446   2.284  0.5104  0.2297 -1.1867
 5185SOL     MW20740   7.697   8.375   2.266  0.3404  0.1461 -0.4307
 5186SOL     OW20741   7.322   3.416   0.266 -0.0304 -0.1021  0.2122
 5186SOL    HW120742   7.276   3.457   0.339 -0.6678  0.1409 -0.3115
 5186SOL    HW220743   7.252   3.376   0.213  0.1612  1.5487 -1.3978
 5186SOL     MW20744   7.307   3.416   0.268 -0.0875  0.1404 -0.0609
 5187SOL     OW20745   9.379   4.381   9.737 -0.1120 -0.8552  0.0801
 5187SOL    HW120746   9.298   4.387   9.685 -1.5320  1.5294  2.2916
 5187SOL    HW220747   9.352   4.338   9.818  0.4688  1.0059  1.3366
 5187SOL     MW20748   9.365   4.376   9.740 -0.2194 -0.3117  0.5241
 5188SOL     OW20749   7.536   0.890   2.377 -0.1923  0.4364 -0.3881
 5188SOL    HW120750   7.448   0.879   2.341 -0.2416  0.2704 -0.2189
 5188SOL    HW220751   7.592   0.893   2.300 -0.4298  1.3701 -0.5323
 5188SOL     MW20752   7.532   0.889   2.362 -0.2290  0.5347 -0.3849
 5189SOL     OW20753   7.679   9.121   9.667  0.0718 -0.0159 -0.6962
 5189SOL    HW120754   7.705   9.160   9.584  1.4317 -0.3589 -0.4521
 5189SOL    HW220755   7.597   9.165   9.689 -0.1219  0.3451 -2.0236
 5189SOL     MW20756   7.672   9.132   9.659  0.2211 -0.0136 -0.8349
 5190SOL     OW20757   7.423   7.154   9.749 -0.4655 -0.1102 -0.2234
 5190SOL    HW120758   7.449   7.065   9.727  0.6437  0.2622 -0.4523
 5190SOL    HW220759   7.386   7.147   9.837  1.1508 -0.5361  0.4421
 5190SOL     MW20760   7.421   7.142   9.757 -0.1166 -0.1171 -0.1675
 5191SOL     OW20761  10.080   2.304   9.910 -0.3251  0.4376  0.3536
 5191SOL    HW120762  10.120   2.345   9.833 -1.5203  1.2130  0.1055
 5191SOL    HW220763  10.021   2.371   9.944 -0.9818 -0.4584  1.0150
 5191SOL     MW20764  10.077   2.317   9.904 -0.5622  0.4222  0.4065
 5192SOL     OW20765   6.827   0.936   0.991 -0.8748 -0.0162  0.2618
 5192SOL    HW120766   6.886   0.942   0.916  0.8176  1.1290  1.6118
 5192SOL    HW220767   6.740   0.944   0.954 -0.0382  1.7923 -1.4791
 5192SOL     MW20768   6.824   0.938   0.977 -0.5510  0.3619  0.2117
 5193SOL     OW20769   7.025   7.444   2.567  0.1008 -0.3462  0.2258
 5193SOL    HW120770   7.018   7.387   2.490 -2.1078  0.5414 -0.3110
 5193SOL    HW220771   7.023   7.384   2.641  0.5229 -1.1199 -0.3688
 5193SOL     MW20772   7.024   7.429   2.567 -0.1279 -0.3316  0.0810
 5194SOL     OW20773   9.645   8.173   9.552  0.2135  0.1693 -0.2473
 5194SOL    HW120774   9.678   8.104   9.494  1.4233  0.8024 -0.3351
 5194SOL    HW220775   9.712   8.183   9.619 -0.2531  0.8203  0.1405
 5194SOL     MW20776   9.658   8.165   9.553  0.3086  0.3337 -0.2089
 5195SOL     OW20777   7.687   0.596   2.819 -0.8042  0.0277  0.3689
 5195SOL    HW120778   7.703   0.658   2.747 -0.5330  0.3679  0.7168
 5195SOL    HW220779   7.597   0.616   2.847 -0.9447 -0.1699  0.0655
 5195SOL     MW20780   7.677   0.607   2.813 -0.7874  0.0460  0.3746
 5196SOL     OW20781   7.615   3.563   8.888 -0.3490  0.0335  0.0671
 5196SOL    HW120782   7.690   3.619   8.867 -1.0748  2.0777  2.4209
 5196SOL    HW220783   7.654   3.484   8.924  0.6893 -0.0244 -1.1090
 5196SOL     MW20784   7.629   3.560   8.890 -0.3090  0.2878  0.2178
 5197SOL     OW20785   6.663   6.432   0.969 -0.0548 -0.2043 -0.2839
 5197SOL    HW120786   6.598   6.406   0.904  1.3736  0.1100 -1.9197
 5197SOL    HW220787   6.615   6.431   1.053 -2.2408  0.3737 -1.4398
 5197SOL     MW20788   6.648   6.429   0.972 -0.1518 -0.0901 -0.6413
 5198SOL     OW20789   7.441   7.865   0.323 -0.2758 -0.6111  0.1450
 5198SOL    HW120790   7.500   7.937   0.301 -0.3121 -0.9599 -1.1273
 5198SOL    HW220791   7.490   7.813   0.387 -1.0548  1.6529  2.7791
 5198SOL     MW20792   7.455   7.867   0.329 -0.3802 -0.3659  0.3193
 5199SOL     OW20793   7.706  10.003   9.429  0.1771  0.2983 -0.2042
 5199SOL    HW120794   7.615   9.972   9.429  1.3363 -3.6211  0.2080
 5199SOL    HW220795   7.725  10.019   9.337 -0.8064  0.8713 -0.3287
 5199SOL     MW20796   7.697  10.001   9.417  0.1996 -0.1301 -0.1673
 5200SOL     OW20797   7.478   8.915   8.680  0.2195  0.1897  0.1708
 5200SOL    HW120798   7.458   8.877   8.594  0.7818 -0.1753  0.2019
 5200SOL    HW220799   7.468   8.843   8.742  3.3497 -0.5329 -0.0026
 5200SOL     MW20800   7.474   8.901   8.677  0.6922  0.0504  0.1526
 5201SOL     OW20801   7.764   1.165   9.241 -0.1377  0.1339  0.2659
 5201SOL    HW120802   7.786   1.147   9.333 -0.1139  1.5051  0.5423
 5201SOL    HW220803   7.767   1.260   9.234 -0.8968  0.0790 -0.9766
 5201SOL     MW20804   7.767   1.175   9.252 -0.2319  0.3024  0.1423
 5202SOL     OW20805   8.958   6.953   9.972  0.0423  0.5168  0.0487
 5202SOL    HW120806   8.932   6.909  10.053 -1.0612  0.6634 -0.2100
 5202SOL    HW220807   8.926   7.043   9.982  1.1400  0.9276  0.0286
 5202SOL     MW20808   8.951   6.959   9.984  0.0415  0.5882  0.0130
 5203SOL     OW20809   0.355   5.832   1.592  0.4433 -0.3442  0.2247
 5203SOL    HW120810   0.440   5.790   1.601  0.1228 -1.3189 -1.0884
 5203SOL    HW220811   0.376   5.923   1.569  1.1308  0.2335  2.7656
 5203SOL     MW20812   0.369   5.838   1.590  0.4903 -0.3950  0.3818
 5204SOL     OW20813   8.975   6.442   2.068 -0.6160  0.1040  0.2840
 5204SOL    HW120814   8.983   6.389   1.989 -0.3440 -1.4246  1.3019
 5204SOL    HW220815   8.929   6.521   2.039 -1.1567 -0.7343 -1.2568
 5204SOL     MW20816   8.970   6.445   2.054 -0.6504 -0.1990  0.2171
 5205SOL     OW20817   0.501   0.032   0.774  0.3511  0.5479 -0.1203
 5205SOL    HW120818   0.541  -0.031   0.714 -0.2949  0.2234 -0.2157
 5205SOL    HW220819   0.459   0.097   0.718  0.8328  0.9539 -0.0203
 5205SOL     MW20820   0.501   0.032   0.759  0.3301  0.5583 -0.1197
 5206SOL     OW20821   8.308   2.057   1.113  0.5948 -0.4729  0.7446
 5206SOL    HW120822   8.267   2.065   1.199 -0.4175 -0.7727  0.3103
 5206SOL    HW220823   8.400   2.082   1.127  0.1172  0.9302  1.6178
 5206SOL     MW20824   8.315   2.061   1.126  0.4041 -0.3317  0.8008
 5207SOL     OW20825   8.471   8.640   8.897  0.1340  0.4278  0.5375
 5207SOL    HW120826   8.478   8.588   8.977  0.0757  1.0201  0.9383
 5207SOL    HW220827   8.549   8.696   8.899  1.2681 -1.0032 -0.9003
 5207SOL     MW20828   8.482   8.641   8.907  0.2717  0.3205  0.4048
 5208SOL     OW20829   7.321   9.040   0.725 -0.4537 -0.3258  0.6791
 5208SOL    HW120830   7.249   9.004   0.778 -0.0791 -0.8227  0.8526
 5208SOL    HW220831   7.325   8.982   0.649 -0.3043 -0.2338  0.6177
 5208SOL     MW20832   7.312   9.028   0.722 -0.3866 -0.3776  0.6935
 5209SOL     OW20833   9.250   8.722   3.020  0.1139  0.0782 -0.1065
 5209SOL    HW120834   9.271   8.647   2.965  0.7070  0.9237 -1.0811
 5209SOL    HW220835   9.288   8.701   3.105 -2.7540 -2.2679  0.7771
 5209SOL     MW20836   9.257   8.710   3.024 -0.1773 -0.1139 -0.1181
 5210SOL     OW20837  10.039   0.955   1.180  0.0252  0.0008  0.2687
 5210SOL    HW120838   9.950   0.986   1.192 -0.2628 -1.0723  1.0483
 5210SOL    HW220839  10.093   1.034   1.183 -0.8115  0.5676  0.6611
 5210SOL     MW20840  10.035   0.969   1.182 -0.1188 -0.0640  0.4187
 5211SOL     OW20841   8.887   4.767   9.470 -0.0795  0.3369 -0.0531
 5211SOL    HW120842   8.894   4.756   9.565 -0.5522  1.7387  0.1670
 5211SOL    HW220843   8.820   4.705   9.443  1.4856 -1.5462  0.2066
 5211SOL     MW20844   8.880   4.758   9.478  0.0604  0.2753  0.0083
 5212SOL     OW20845   7.340   3.303   2.189  0.2704  0.0506 -0.0469
 5212SOL    HW120846   7.397   3.307   2.112  0.8172 -0.4193  0.3261
 5212SOL    HW220847   7.254   3.279   2.154  0.3493  0.5171 -0.5863
 5212SOL     MW20848   7.336   3.301   2.175  0.3505  0.0502 -0.0682
 5213SOL     OW20849   6.663   7.602   1.952  0.3378  0.1477 -0.0570
 5213SOL    HW120850   6.738   7.648   1.990  0.1816  0.6602 -0.3587
 5213SOL    HW220851   6.685   7.594   1.859 -0.2342  0.8267 -0.2597
 5213SOL     MW20852   6.676   7.607   1.945  0.2446  0.3003 -0.1216
 5214SOL     OW20853   7.386   1.756   2.961 -0.0649  0.1240  0.5139
 5214SOL    HW120854   7.382   1.811   2.883  0.8782 -0.7994 -0.2074
 5214SOL    HW220855   7.416   1.815   3.030 -1.2609  1.0365  0.2944
 5214SOL     MW20856   7.389   1.771   2.960 -0.0973  0.1226  0.3935
 5215SOL     OW20857   9.373   1.398   0.106  0.7862 -0.3056  0.3683
 5215SOL    HW120858   9.370   1.474   0.164 -0.4734 -0.5348  0.6480
 5215SOL    HW220859   9.466   1.374   0.101  1.0628  0.5530  1.1914
 5215SOL     MW20860   9.385   1.404   0.113  0.6604 -0.2250  0.5095
 5216SOL     OW20861   8.511   6.317  10.182  0.1536  0.1932  0.5650
 5216SOL    HW120862   8.450   6.292  10.112  0.4773 -0.1259  0.3874
 5216SOL    HW220863   8.580   6.366  10.137  1.1187 -1.2417  0.4002
 5216SOL     MW20864   8.512   6.320  10.167  0.3186 -0.0313  0.5212
 5217SOL     OW20865   7.779   3.713   2.969 -0.4650 -0.1503 -0.0532
 5217SOL    HW120866   7.805   3.641   3.027 -0.1223 -0.1893 -0.2551
 5217SOL    HW220867   7.837   3.785   2.993  1.1938 -0.8235 -1.8327
 5217SOL     MW20868   7.790   3.713   2.980 -0.2088 -0.2415 -0.3068
 5218SOL     OW20869   9.895   2.999   0.403  0.1995  0.1460 -0.4598
 5218SOL    HW120870   9.827   3.066   0.404 -0.8308 -0.8562  1.2994
 5218SOL    HW220871   9.977   3.049   0.406 -0.4659  1.3533 -1.5974
 5218SOL     MW20872   9.897   3.014   0.404 -0.0176  0.1723 -0.3802
 5219SOL     OW20873   8.844   0.802   8.961 -0.2584 -0.5541  0.3965
 5219SOL    HW120874   8.817   0.715   8.991  1.5172 -0.2501  3.1856
 5219SOL    HW220875   8.762   0.851   8.957 -0.9637 -1.5409  1.7762
 5219SOL     MW20876   8.830   0.797   8.964 -0.1214 -0.6415  0.9302
 5220SOL     OW20877   7.220   7.902   1.398  0.0589  0.2297  0.2612
 5220SOL    HW120878   7.312   7.892   1.422  0.7659  2.1007 -1.3677
 5220SOL    HW220879   7.196   7.989   1.431 -0.8140  0.2042 -0.2621
 5220SOL     MW20880   7.228   7.912   1.406  0.0376  0.4659 -0.0143
 5221SOL     OW20881   7.055   3.467  10.012 -0.0954 -0.1589 -0.0255
 5221SOL    HW120882   7.051   3.482  10.107  3.2643 -0.0988  0.2548
 5221SOL    HW220883   7.064   3.372  10.004  2.2395 -0.0219  0.0339
 5221SOL     MW20884   7.056   3.457  10.023  0.6336 -0.1337  0.0180
 5222SOL     OW20885   8.894   2.143  10.027  0.3048 -0.1058  0.8210
 5222SOL    HW120886   8.899   2.130  10.122 -0.3584 -1.9733  0.6476
 5222SOL    HW220887   8.803   2.168  10.011  0.9579  2.4876  0.8668
 5222SOL     MW20888   8.883   2.144  10.038  0.3035 -0.0129  0.8046
 5223SOL     OW20889   0.142   7.354   0.467 -0.0396 -0.1793 -0.0622
 5223SOL    HW120890   0.163   7.263   0.448 -0.2636 -0.5242  1.2731
 5223SOL    HW220891   0.124   7.392   0.381  1.4388 -1.0201 -0.7899
 5223SOL     MW20892   0.142   7.347   0.453  0.1210 -0.3311  0.0155
 5224SOL     OW20893   8.123   2.000   0.055  0.3295  0.1564 -0.2029
 5224SOL    HW120894   8.183   2.006  -0.019  1.2223 -1.1517  0.3836
 5224SOL    HW220895   8.142   1.916   0.095  1.6502  1.8180  3.0369
 5224SOL     MW20896   8.133   1.990   0.050  0.6129  0.2016  0.2869
 5225SOL     OW20897   9.086   3.215  10.004  0.1622  0.8038 -0.3149
 5225SOL    HW120898   9.039   3.240   9.924 -1.7925  0.9511  0.8042
 5225SOL    HW220899   9.079   3.120  10.007  2.3919  0.5401 -1.5172
 5225SOL     MW20900   9.079   3.206   9.994  0.1974  0.7889 -0.3255
 5226SOL     OW20901   7.743   4.307   9.592  0.2721  0.4076  0.6304
 5226SOL    HW120902   7.651   4.281   9.600  0.1445  1.2482  2.4284
 5226SOL    HW220903   7.740   4.403   9.595  1.0616  0.5715 -1.6890
 5226SOL     MW20904   7.731   4.316   9.593  0.3569  0.5362  0.5637
 5227SOL     OW20905   7.729   1.879   2.910  0.1887  0.1707  0.2742
 5227SOL    HW120906   7.677   1.833   2.976 -0.5747  1.1439  0.3862
 5227SOL    HW220907   7.794   1.815   2.881 -0.8001 -0.9524  0.4537
 5227SOL     MW20908   7.730   1.865   2.915 -0.0356  0.1515  0.3115
 5228SOL     OW20909   7.582   0.242   9.947  0.9752 -0.3156 -0.3618
 5228SOL    HW120910   7.533   0.293  10.012  2.5908  1.1860 -0.2453
 5228SOL    HW220911   7.540   0.156   9.947 -2.4102  1.2123 -1.1809
 5228SOL     MW20912   7.571   0.238   9.955  0.7486  0.0722 -0.4518
 5229SOL     OW20913   7.260   2.745   0.402  0.5518  0.4344 -0.5718
 5229SOL    HW120914   7.307   2.799   0.466 -0.7521 -0.1613  0.9610
 5229SOL    HW220915   7.231   2.807   0.335 -0.5975  1.6488  0.9559
 5229SOL     MW20916   7.262   2.760   0.401  0.2378  0.5136 -0.1800
 5230SOL     OW20917   8.855   5.459   9.426  0.5258 -0.2891  0.0711
 5230SOL    HW120918   8.855   5.363   9.423  3.5502 -0.5513  2.7945
 5230SOL    HW220919   8.784   5.481   9.486  2.2597 -1.2399  2.6484
 5230SOL     MW20920   8.846   5.450   9.433  1.1349 -0.4444  0.7496
 5231SOL     OW20921   8.196   5.123   9.919 -0.4612 -0.0762 -0.0747
 5231SOL    HW120922   8.185   5.179   9.996 -0.5457  0.8398 -0.7350
 5231SOL    HW220923   8.278   5.076   9.935 -0.2407  0.4468  0.3668
 5231SOL     MW20924   8.205   5.124   9.931 -0.4438  0.1080 -0.1027
 5232SOL     OW20925   6.787   3.597   1.504 -0.2543 -0.1002 -0.0420
 5232SOL    HW120926   6.705   3.641   1.524  0.8759  1.8726  0.5265
 5232SOL    HW220927   6.817   3.637   1.423  0.9103  0.4144  0.6100
 5232SOL     MW20928   6.780   3.608   1.496  0.0395  0.2183  0.1143
 5233SOL     OW20929   6.192   6.929   0.767 -0.6623  0.1913  0.0216
 5233SOL    HW120930   6.143   6.850   0.743 -0.3791 -0.3863  1.2729
 5233SOL    HW220931   6.203   6.923   0.862  0.0410  1.3519  0.0353
 5233SOL     MW20932   6.187   6.918   0.776 -0.5360  0.2659  0.1836
 5234SOL     OW20933   6.832   6.941   2.126  0.7754 -0.2532 -0.1521
 5234SOL    HW120934   6.865   6.941   2.216  1.1228 -1.1308 -0.2695
 5234SOL    HW220935   6.885   7.007   2.082  0.2756  0.5331  0.3923
 5234SOL     MW20936   6.843   6.949   2.132  0.7559 -0.2649 -0.0975
 5235SOL     OW20937   8.235   2.060   2.659  0.0394 -0.0769  0.0267
 5235SOL    HW120938   8.218   1.973   2.695  0.3925 -0.1104  0.1087
 5235SOL    HW220939   8.318   2.087   2.698 -0.2564  0.4562  0.2950
 5235SOL     MW20940   8.243   2.052   2.668  0.0467 -0.0130  0.0715
 5236SOL     OW20941   7.174   8.732   2.518  0.5298 -0.0906  0.2163
 5236SOL    HW120942   7.239   8.720   2.588 -0.2488 -0.9670  0.8105
 5236SOL    HW220943   7.105   8.670   2.539 -0.0921  0.2023 -0.9084
 5236SOL     MW20944   7.174   8.723   2.530  0.3505 -0.1653  0.1484
 5237SOL     OW20945   7.228   4.217   1.457 -0.2460 -0.1619  0.3357
 5237SOL    HW120946   7.238   4.268   1.537 -0.1012  1.6456 -0.7873
 5237SOL    HW220947   7.317   4.185   1.438 -0.0384  0.4895  0.2044
 5237SOL     MW20948   7.241   4.219   1.465 -0.2009  0.1529  0.1752
 5238SOL     OW20949   8.924   3.924   0.146 -0.3653 -0.0967 -0.1852
 5238SOL    HW120950   8.849   3.949   0.092 -0.5154  0.5456  0.3016
 5238SOL    HW220951   8.967   3.854   0.097 -0.1990  0.8189 -1.4011
 5238SOL     MW20952   8.920   3.919   0.133 -0.3632  0.1027 -0.2785
 5239SOL     OW20953   9.024   2.954   2.934 -0.2294 -0.3780 -0.2034
 5239SOL    HW120954   9.019   3.006   3.014 -0.6767 -1.6004  0.5907
 5239SOL    HW220955   9.095   2.891   2.949  1.0646  0.6668 -1.5897
 5239SOL     MW20956   9.032   2.952   2.946 -0.1210 -0.4008 -0.2792
 5240SOL     OW20957   7.829   7.356   1.949 -0.4042  0.7377  0.2945
 5240SOL    HW120958   7.790   7.421   2.008 -0.2075  0.8543  0.2988
 5240SOL    HW220959   7.903   7.402   1.908  1.1015 -0.1079  1.9121
 5240SOL     MW20960   7.834   7.371   1.951 -0.1863  0.6444  0.5022
 5241SOL     OW20961   9.578   0.369   1.535  0.1189  0.6340 -0.0032
 5241SOL    HW120962   9.506   0.346   1.476  2.4521 -1.5142 -2.2653
 5241SOL    HW220963   9.596   0.288   1.583  0.7951  1.2379  0.7746
 5241SOL     MW20964   9.571   0.356   1.533  0.5042  0.4363 -0.1932
 5242SOL     OW20965   6.616   2.052   0.208  0.1652  0.0967 -0.0271
 5242SOL    HW120966   6.691   2.007   0.246  0.1428 -0.3874 -0.5342
 5242SOL    HW220967   6.647   2.141   0.189  1.6843 -0.9460 -3.2072
 5242SOL     MW20968   6.630   2.058   0.210  0.3568 -0.0988 -0.4991
 5243SOL     OW20969   6.731   0.224   9.680  0.3805 -0.2980  0.5740
 5243SOL    HW120970   6.821   0.237   9.709 -0.3488  2.8145  1.8021
 5243SOL    HW220971   6.720   0.286   9.607 -0.6252 -1.0329  0.0751
 5243SOL     MW20972   6.741   0.234   9.674  0.1584  0.0064  0.6674
 5244SOL     OW20973   6.821   8.857  10.033 -0.3761 -0.2205 -0.2298
 5244SOL    HW120974   6.888   8.873  10.099 -0.3006  0.1697 -0.4005
 5244SOL    HW220975   6.738   8.866  10.081 -0.3666  1.6075 -0.5077
 5244SOL     MW20976   6.819   8.860  10.048 -0.3652  0.0635 -0.2873
 5245SOL     OW20977   8.863   5.230  10.038  0.9800 -1.1079 -0.0072
 5245SOL    HW120978   8.897   5.319  10.033  1.7626 -1.4417 -0.9824
 5245SOL    HW220979   8.801   5.232  10.111  0.6650  0.3376 -0.2809
 5245SOL     MW20980   8.859   5.242  10.046  1.0399 -0.9656 -0.1670
 5246SOL     OW20981   9.941   8.877  10.039  0.3251  0.0036 -0.5906
 5246SOL    HW120982   9.878   8.909   9.974 -0.6753 -0.5414  0.0829
 5246SOL    HW220983  10.016   8.935  10.030 -0.0688  0.3635 -1.7655
 5246SOL     MW20984   9.942   8.888  10.029  0.1466 -0.0201 -0.6548
 5247SOL     OW20985   6.359   3.684   1.169 -0.3698 -0.2349 -0.0240
 5247SOL    HW120986   6.421   3.612   1.179  0.7352  0.8639  1.4804
 5247SOL    HW220987   6.312   3.664   1.087  2.6031 -0.6411 -1.7564
 5247SOL     MW20988   6.361   3.672   1.160  0.1522 -0.1463 -0.0532
 5248SOL     OW20989   8.799   9.302   8.610  0.0699 -0.4508 -1.0972
 5248SOL    HW120990   8.719   9.280   8.561  0.4309 -0.2825 -1.7740
 5248SOL    HW220991   8.774   9.376   8.664 -0.3553 -0.6801 -0.9698
 5248SOL     MW20992   8.785   9.308   8.611  0.0617 -0.4586 -1.1675
 5249SOL     OW20993   9.764   7.759   1.115 -0.3792  0.3829 -0.4926
 5249SOL    HW120994   9.857   7.750   1.096 -0.0875  1.9597  0.0241
 5249SOL    HW220995   9.761   7.799   1.202 -1.4551  2.0288 -1.2289
 5249SOL     MW20996   9.775   7.763   1.123 -0.4796  0.7955 -0.5207
 5250SOL     OW20997   9.637   3.880   9.857 -0.2360 -0.0983  0.1714
 5250SOL    HW120998   9.563   3.820   9.852 -0.5125  0.1163  1.3830
 5250SOL    HW220999   9.665   3.877   9.948  2.4751 -1.5981 -0.5800
 5250SOL     MW21000   9.631   3.872   9.868  0.0757 -0.2628  0.2303
 5251SOL     OW21001   7.586   0.891   0.458  0.5111  0.1898 -0.0794
 5251SOL    HW121002   7.556   0.968   0.410  0.6692  0.8588  0.8691
 5251SOL    HW221003   7.627   0.926   0.537  2.2181 -0.7905 -0.4939
 5251SOL     MW21004   7.587   0.905   0.462  0.7498  0.1499 -0.0111
 5252SOL     OW21005   8.079   2.191   2.830 -0.4336 -0.3194  0.0547
 5252SOL    HW121006   8.156   2.242   2.857 -0.6761  0.4120 -0.6042
 5252SOL    HW221007   8.112   2.133   2.761 -0.4258 -0.1381 -0.0962
 5252SOL     MW21008   8.093   2.190   2.825 -0.4636 -0.2026 -0.0490
 5253SOL     OW21009   8.036   2.807   0.130  0.1587 -0.2592 -0.9717
 5253SOL    HW121010   8.038   2.752   0.208  1.3583 -0.3608 -1.0615
 5253SOL    HW221011   8.126   2.834   0.117 -0.0268 -0.2150 -2.3078
 5253SOL     MW21012   8.048   2.803   0.138  0.2885 -0.2666 -1.1542
 5254SOL     OW21013   8.552   7.089   3.030  0.2693  0.5038  0.1208
 5254SOL    HW121014   8.526   7.066   2.941 -0.4359  1.1752  0.1453
 5254SOL    HW221015   8.541   7.009   3.081 -0.3859  0.4103 -0.1712
 5254SOL     MW21016   8.548   7.076   3.025  0.0951  0.5778  0.0866
 5255SOL     OW21017   8.800  10.032   2.233  0.2837  0.0878 -0.2401
 5255SOL    HW121018   8.737  10.069   2.294  1.5169  1.1595  0.4415
 5255SOL    HW221019   8.864   9.988   2.289  1.2828  0.8465 -0.7471
 5255SOL     MW21020   8.800  10.031   2.248  0.5694  0.3221 -0.2178
 5256SOL     OW21021   6.129   6.927   0.127  0.2305 -0.2946  0.9652
 5256SOL    HW121022   6.136   6.834   0.103 -0.6571 -0.5625  1.6746
 5256SOL    HW221023   6.181   6.935   0.207 -0.2921 -0.3574  1.3195
 5256SOL     MW21024   6.136   6.916   0.134  0.0500 -0.3369  1.1013
 5257SOL     OW21025   9.498   4.512   2.606  0.4784  0.1859 -0.2906
 5257SOL    HW121026   9.568   4.574   2.626 -0.1284  1.2775 -1.4436
 5257SOL    HW221027   9.422   4.545   2.653  0.6352 -0.8392  0.7276
 5257SOL     MW21028   9.497   4.524   2.615  0.4208  0.1944 -0.3079
 5258SOL     OW21029   9.817   9.462   9.877 -0.0618  0.2351 -0.0433
 5258SOL    HW121030   9.778   9.411   9.806 -1.2584 -0.1247  0.8204
 5258SOL    HW221031   9.815   9.402   9.952  2.3895  0.1364  0.0292
 5258SOL     MW21032   9.812   9.448   9.878  0.0988  0.1764  0.0766
 5259SOL     OW21033   8.535   7.666   9.066  0.3307 -0.0297  0.0482
 5259SOL    HW121034   8.500   7.746   9.105 -0.6176 -0.6210  0.4625
 5259SOL    HW221035   8.609   7.643   9.122  0.6487  0.5910 -0.1140
 5259SOL     MW21036   8.540   7.673   9.078  0.2500 -0.0259  0.0805
 5260SOL     OW21037   8.507   6.726   2.445  0.2731 -0.0386 -0.4575
 5260SOL    HW121038   8.568   6.660   2.413  1.6318  1.0506 -0.2006
 5260SOL    HW221039   8.556   6.774   2.512 -1.7520 -0.8315  1.7508
 5260SOL     MW21040   8.521   6.724   2.450  0.1878 -0.0007 -0.1419
 5261SOL     OW21041   7.764   9.176   3.239 -0.4926  0.2732 -0.5439
 5261SOL    HW121042   7.757   9.271   3.250  0.3866  0.2300  0.5886
 5261SOL    HW221043   7.713   9.157   3.161  0.2952  1.8316 -1.4902
 5261SOL     MW21044   7.757   9.186   3.230 -0.2792  0.4672 -0.5201
 5262SOL     OW21045   9.328   3.261   1.741 -0.4465 -0.1998  0.5104
 5262SOL    HW121046   9.363   3.181   1.701  0.2135 -0.6304  1.8847
 5262SOL    HW221047   9.242   3.273   1.699 -0.7077 -1.8165  0.5036
 5262SOL     MW21048   9.321   3.252   1.731 -0.3954 -0.4619  0.6854
 5263SOL     OW21049  10.084   6.755   2.194 -0.2234  0.0079 -0.2175
 5263SOL    HW121050  10.095   6.820   2.263  0.9336  1.1416 -1.4017
 5263SOL    HW221051  10.169   6.710   2.190 -0.4835 -0.4677 -0.4968
 5263SOL     MW21052  10.096   6.757   2.202 -0.1086  0.0922 -0.4049
 5264SOL     OW21053   7.480   5.766   9.514  0.2611 -0.9808 -0.1937
 5264SOL    HW121054   7.451   5.827   9.582  2.6062 -1.1577  1.0496
 5264SOL    HW221055   7.440   5.683   9.537  0.0394 -0.7516  0.2503
 5264SOL     MW21056   7.471   5.763   9.525  0.5330 -0.9741  0.0223
 5265SOL     OW21057   6.256   8.886   1.729 -0.1655 -0.5480 -0.5826
 5265SOL    HW121058   6.301   8.817   1.680 -0.6636 -1.2180 -0.1064
 5265SOL    HW221059   6.174   8.846   1.758 -0.0168 -0.0693  0.5599
 5265SOL     MW21060   6.251   8.872   1.726 -0.2102 -0.5725 -0.3754
 5266SOL     OW21061   6.450   8.990   0.072  0.0245 -0.2244 -0.8000
 5266SOL    HW121062   6.535   9.007   0.112  0.3959  0.1415 -1.7140
 5266SOL    HW221063   6.386   9.022   0.136  0.6334  1.6280 -1.0695
 5266SOL     MW21064   6.452   8.996   0.085  0.1500  0.0596 -0.9515
 5267SOL     OW21065   7.746   4.738   2.730  0.3705  0.2196  0.1483
 5267SOL    HW121066   7.753   4.688   2.649  0.3815  0.8116 -0.2250
 5267SOL    HW221067   7.794   4.686   2.795 -1.6436 -1.4613  0.3915
 5267SOL     MW21068   7.753   4.725   2.728  0.1141  0.0802  0.1317
 5268SOL     OW21069   8.245   6.058   1.088  0.1477  0.0049  0.1850
 5268SOL    HW121070   8.319   6.085   1.143 -1.2107  0.2676  2.0061
 5268SOL    HW221071   8.192   6.137   1.080  0.1417 -0.1297 -1.2597
 5268SOL     MW21072   8.248   6.072   1.094 -0.0269  0.0213  0.2332
 5269SOL     OW21073   8.479   0.044  10.013 -0.1404 -0.4874  0.3360
 5269SOL    HW121074   8.429  -0.037   9.999  0.2588 -0.4342 -1.5095
 5269SOL    HW221075   8.436   0.085  10.088 -1.3614 -1.6175  0.2884
 5269SOL     MW21076   8.467   0.039  10.021 -0.2456 -0.6252  0.0936
 5270SOL     OW21077   7.773   3.827   1.449  0.2468  0.0835  0.2423
 5270SOL    HW121078   7.740   3.799   1.364  0.3292  0.9542 -0.0795
 5270SOL    HW221079   7.862   3.792   1.453  0.3499  0.3035 -0.1558
 5270SOL     MW21080   7.780   3.819   1.439  0.2705  0.2231  0.1502
 5271SOL     OW21081   7.375   7.049   1.953  0.2111 -0.0617 -0.0105
 5271SOL    HW121082   7.415   7.099   1.882 -0.0868 -0.7526 -0.6815
 5271SOL    HW221083   7.441   7.049   2.023  0.9971 -0.3801 -0.7404
 5271SOL     MW21084   7.389   7.056   1.953  0.2736 -0.1909 -0.1899
 5272SOL     OW21085   8.435   6.362   1.658 -0.1913  0.5475 -0.1003
 5272SOL    HW121086   8.467   6.450   1.638 -0.1153  0.2680 -1.2721
 5272SOL    HW221087   8.501   6.326   1.718 -0.0764  1.1799  0.1572
 5272SOL     MW21088   8.448   6.369   1.663 -0.1669  0.5927 -0.2173
 5273SOL     OW21089   9.026   1.845   9.593  0.6216 -0.3756 -0.0513
 5273SOL    HW121090   9.054   1.886   9.675 -1.1388  1.8397 -0.4724
 5273SOL    HW221091   8.988   1.761   9.620  0.7459 -0.0076  1.3122
 5273SOL     MW21092   9.025   1.839   9.607  0.4122 -0.0449  0.0693
 5274SOL     OW21093   7.458  10.121  10.022 -0.3668 -0.3427  0.1041
 5274SOL    HW121094   7.551  10.111  10.003 -0.2734  1.1572 -0.3954
 5274SOL    HW221095   7.441  10.062  10.095  0.9855 -0.5936  0.2381
 5274SOL     MW21096   7.467  10.112  10.029 -0.1817 -0.1828  0.0573
 5275SOL     OW21097   7.608   2.822   2.474 -0.1761  0.2846  0.3269
 5275SOL    HW121098   7.647   2.903   2.442 -1.3494  0.8819  0.3581
 5275SOL    HW221099   7.625   2.822   2.568  0.6124  0.0326  0.1940
 5275SOL     MW21100   7.615   2.832   2.482 -0.2253  0.3288  0.3139
 5276SOL     OW21101   8.800   0.167   8.931 -0.1248  0.4948  0.3442
 5276SOL    HW121102   8.791   0.237   8.996 -0.8151  1.8894 -1.1884
 5276SOL    HW221103   8.804   0.086   8.983  0.3148  1.6130  2.1493
 5276SOL     MW21104   8.800   0.166   8.946 -0.1569  0.8165  0.3791
 5277SOL     OW21105   6.929   4.658   0.524 -0.2119 -0.3496  0.5257
 5277SOL    HW121106   6.863   4.709   0.570  1.3596 -1.1819  3.9988
 5277SOL    HW221107   6.975   4.722   0.468 -0.7816  1.2244  1.7920
 5277SOL     MW21108   6.927   4.673   0.523 -0.0837 -0.2547  1.1324
 5278SOL     OW21109   8.358   6.702   0.480  0.7397  0.0864  0.4746
 5278SOL    HW121110   8.305   6.708   0.559  0.4500 -0.7795  0.3665
 5278SOL    HW221111   8.395   6.613   0.483 -0.3780 -0.4633 -1.0287
 5278SOL     MW21112   8.356   6.691   0.490  0.5595 -0.0948  0.2683
 5279SOL     OW21113   7.384   4.752   9.602 -0.1884  0.0641  0.0757
 5279SOL    HW121114   7.349   4.684   9.543 -1.7277  0.6362  0.2636
 5279SOL    HW221115   7.394   4.708   9.686 -1.2141  0.0438  0.2052
 5279SOL     MW21116   7.381   4.738   9.605 -0.5168  0.1347  0.1163
 5280SOL     OW21117   7.962   6.048   0.356 -0.2349  0.6374  0.0258
 5280SOL    HW121118   8.033   5.983   0.364  0.2280  1.2156  0.8756
 5280SOL    HW221119   8.004   6.123   0.314 -0.2975  1.0213  0.6306
 5280SOL     MW21120   7.977   6.049   0.352 -0.1837  0.7606  0.2120
 5281SOL     OW21121   7.770   9.488   2.205  0.1050  0.4752 -0.0361
 5281SOL    HW121122   7.812   9.403   2.217 -0.3532  0.1292 -0.8585
 5281SOL    HW221123   7.685   9.468   2.166 -0.8420  1.1693  1.5956
 5281SOL     MW21124   7.764   9.475   2.202 -0.0749  0.5197  0.0675
 5282SOL     OW21125   8.504   6.492   0.468 -0.9480  0.2430 -0.7696
 5282SOL    HW121126   8.460   6.423   0.419 -0.4003 -1.7748  1.4226
 5282SOL    HW221127   8.573   6.523   0.408 -0.0636 -2.3650 -1.2439
 5282SOL     MW21128   8.507   6.487   0.454 -0.7647 -0.3491 -0.5497
 5283SOL     OW21129   9.024   1.344   2.681  0.2459  0.3008  0.5001
 5283SOL    HW121130   9.038   1.292   2.760  0.4022 -0.4966 -0.0324
 5283SOL    HW221131   8.979   1.284   2.621 -0.1196  0.9792  0.0833
 5283SOL     MW21132   9.020   1.330   2.683  0.2191  0.2856  0.3785
 5284SOL     OW21133   6.931   6.585   0.560  0.2861  0.3219  0.0763
 5284SOL    HW121134   7.011   6.533   0.569  1.2770  1.8144  0.1877
 5284SOL    HW221135   6.895   6.589   0.649 -0.0565 -0.5441 -0.0145
 5284SOL     MW21136   6.936   6.579   0.572  0.3691  0.4021  0.0790
 5285SOL     OW21137   8.649   8.313   0.182  0.1693 -0.0478 -0.2433
 5285SOL    HW121138   8.573   8.255   0.184  1.0022 -1.2090 -0.9087
 5285SOL    HW221139   8.711   8.270   0.123  0.8520  1.5075 -0.7158
 5285SOL     MW21140   8.648   8.300   0.175  0.3633  0.0027 -0.3889
 5286SOL     OW21141   7.491   8.732   9.325  0.2241  0.1418  0.5135
 5286SOL    HW121142   7.577   8.772   9.309 -0.3104  1.5518  0.9947
 5286SOL    HW221143   7.447   8.736   9.240 -0.2507  1.7034  0.8031
 5286SOL     MW21144   7.496   8.738   9.312  0.0949  0.5222  0.6122
 5287SOL     OW21145   8.525   0.911   1.473  0.6859  0.6291 -0.0661
 5287SOL    HW121146   8.575   0.920   1.554  0.0419  0.8484  0.3115
 5287SOL    HW221147   8.587   0.874   1.410  1.5704  1.7170  0.1477
 5287SOL     MW21148   8.539   0.907   1.475  0.7167  0.7964  0.0096
 5288SOL     OW21149   9.888   9.986   0.835 -0.3901 -0.2059 -0.0563
 5288SOL    HW121150   9.855   9.910   0.787 -1.3800  0.8779 -1.1381
 5288SOL    HW221151   9.978   9.997   0.804 -0.1341 -1.1059  0.3394
 5288SOL     MW21152   9.896   9.978   0.825 -0.4840 -0.1824 -0.1442
 5289SOL     OW21153   7.676   2.995   0.434 -0.1875  0.4193  0.4260
 5289SOL    HW121154   7.772   2.998   0.436  0.0605 -2.4986 -0.8533
 5289SOL    HW221155   7.651   3.053   0.362  0.9056 -0.8496 -1.0668
 5289SOL     MW21156   7.685   3.003   0.425 -0.0158 -0.1167  0.0711
 5290SOL     OW21157   8.515   0.033   3.119 -0.8888  0.4178  0.1758
 5290SOL    HW121158   8.539  -0.046   3.071  0.2393  0.0537  1.2962
 5290SOL    HW221159   8.437   0.009   3.168  0.4298 -0.6270  1.8962
 5290SOL     MW21160   8.508   0.020   3.119 -0.5756  0.2374  0.5394
 5291SOL     OW21161   8.161   7.052   2.950 -0.1639 -0.3050 -0.5925
 5291SOL    HW121162   8.074   7.040   2.987  0.0429 -0.9251 -0.2834
 5291SOL    HW221163   8.174   7.147   2.947  0.4012 -0.1953  2.3769
 5291SOL     MW21164   8.152   7.062   2.954 -0.0651 -0.3703 -0.1728
 5292SOL     OW21165   9.694   1.881   0.005  0.4059  0.0054 -0.2390
 5292SOL    HW121166   9.708   1.931   0.085 -2.2267 -0.8738  0.8731
 5292SOL    HW221167   9.607   1.908  -0.025  0.1725 -1.7247 -1.2349
 5292SOL     MW21168   9.684   1.891   0.011  0.0390 -0.3287 -0.2242
 5293SOL     OW21169   6.948   5.263   2.385 -0.2963 -0.2021 -0.2569
 5293SOL    HW121170   7.031   5.307   2.401  0.1328 -1.7901  2.3749
 5293SOL    HW221171   6.884   5.334   2.379  0.6914  0.9272  1.6745
 5293SOL     MW21172   6.950   5.278   2.386 -0.1149 -0.2608  0.3272
 5294SOL     OW21173   7.011   0.725   1.981 -0.4053  0.4627 -0.1695
 5294SOL    HW121174   6.976   0.794   1.925 -1.3399  0.0718 -0.0941
 5294SOL    HW221175   6.933   0.683   2.019 -0.0125 -1.9216 -1.7678
 5294SOL     MW21176   6.996   0.728   1.979 -0.4746  0.1075 -0.3645
 5295SOL     OW21177   8.123   2.791   9.954 -0.4175  0.4578 -0.5259
 5295SOL    HW121178   8.133   2.798   9.859  2.6623  1.2750 -0.2462
 5295SOL    HW221179   8.048   2.847   9.974  0.8108  2.9189 -2.2271
 5295SOL     MW21180   8.115   2.799   9.944  0.1340  0.8775 -0.7079
 5296SOL     OW21181   7.836   8.285   8.727 -0.2190 -0.2189  0.2681
 5296SOL    HW121182   7.889   8.208   8.707 -0.8036 -0.5331 -0.1055
 5296SOL    HW221183   7.889   8.359   8.698 -0.2970 -0.5688 -0.8410
 5296SOL     MW21184   7.849   8.285   8.720 -0.3038 -0.3039  0.0783
 5297SOL     OW21185   8.183   6.817   0.271 -0.3250 -0.5169 -0.0791
 5297SOL    HW121186   8.234   6.776   0.340  0.4819  2.7071  1.4410
 5297SOL    HW221187   8.230   6.795   0.190  2.1040  0.2273  1.0196
 5297SOL     MW21188   8.196   6.809   0.269  0.0892 -0.0089  0.2561
 5298SOL     OW21189   7.785   2.297   2.194  0.3109  0.4043 -0.2252
 5298SOL    HW121190   7.804   2.214   2.151  0.7087  0.9999 -1.2231
 5298SOL    HW221191   7.716   2.276   2.257 -0.0128 -0.5514 -0.8835
 5298SOL     MW21192   7.779   2.284   2.197  0.3204  0.3582 -0.4372
 5299SOL     OW21193   7.738   3.482   2.192  0.5491 -0.3230  0.5075
 5299SOL    HW121194   7.682   3.559   2.190 -0.6594 -1.1699 -1.1677
 5299SOL    HW221195   7.823   3.513   2.162 -0.2706  0.1651 -1.4815
 5299SOL     MW21196   7.741   3.496   2.188  0.2895 -0.3689  0.0385
 5300SOL     OW21197   8.766   9.331   0.162  0.1280  0.0061  0.0437
 5300SOL    HW121198   8.682   9.305   0.124 -0.8109  1.6597  0.8676
 5300SOL    HW221199   8.747   9.414   0.206  1.9893 -0.0623  1.0561
 5300SOL     MW21200   8.753   9.338   0.163  0.2461  0.2090  0.2788
 5301SOL     OW21201   9.051   2.914   9.888 -0.2062 -0.6364  0.1450
 5301SOL    HW121202   9.119   2.901   9.954  0.3517  3.6878  0.7368
 5301SOL    HW221203   8.970   2.890   9.932  0.3701  0.2068  1.7528
 5301SOL     MW21204   9.049   2.909   9.902 -0.0610  0.0251  0.4265
 5302SOL     OW21205   8.984   5.752   9.745  0.8897 -0.3228  0.2232
 5302SOL    HW121206   8.998   5.710   9.660 -0.8623 -3.3792  1.3090
 5302SOL    HW221207   9.062   5.730   9.796  0.8917 -0.5159  0.1376
 5302SOL     MW21208   8.996   5.744   9.741  0.6657 -0.7388  0.3512
 5303SOL     OW21209  10.063   6.004   9.860 -0.2828 -0.0341 -0.1786
 5303SOL    HW121210  10.007   6.065   9.811 -0.2657  0.7836  0.8050
 5303SOL    HW221211  10.029   5.917   9.836 -0.5938  0.3611 -1.2463
 5303SOL     MW21212  10.051   6.001   9.850 -0.3204  0.1211 -0.1893
 5304SOL     OW21213   0.294   9.548   0.534 -0.2349 -0.1038  0.0448
 5304SOL    HW121214   0.300   9.454   0.516  1.1057  0.1802 -1.1955
 5304SOL    HW221215   0.340   9.560   0.617  0.3345 -0.4479 -0.2125
 5304SOL     MW21216   0.300   9.537   0.542  0.0096 -0.1115 -0.1469
 5305SOL     OW21217   9.322   7.331   9.804  0.2463  0.2567  0.0962
 5305SOL    HW121218   9.297   7.405   9.748 -0.9412 -0.0449  0.1994
 5305SOL    HW221219   9.405   7.300   9.767  0.5760  1.3999 -0.1720
 5305SOL     MW21220   9.330   7.337   9.792  0.1365  0.3645  0.0751
 5306SOL     OW21221   7.588   4.115   2.831 -0.0221 -0.6149  0.1178
 5306SOL    HW121222   7.613   4.033   2.789 -0.3218 -1.2477  1.1246
 5306SOL    HW221223   7.501   4.134   2.797  0.2059 -0.5160 -0.4068
 5306SOL     MW21224   7.580   4.107   2.821 -0.0313 -0.6832  0.1795
 5307SOL     OW21225   0.314   2.667   1.587  0.8679  0.4197 -0.2704
 5307SOL    HW121226   0.223   2.645   1.566  0.8190  0.0191  0.3326
 5307SOL    HW221227   0.321   2.761   1.568 -0.0227  0.7278  0.8404
 5307SOL     MW21228   0.303   2.676   1.582  0.7476  0.4079 -0.0510
 5308SOL     OW21229   9.975   7.761   9.459  0.3329  0.2124  0.3418
 5308SOL    HW121230  10.067   7.788   9.467  0.3385  0.7934 -1.3127
 5308SOL    HW221231   9.976   7.669   9.485  1.3289  0.2926  0.6580
 5308SOL     MW21232   9.987   7.753   9.463  0.4611  0.2971  0.1705
 5309SOL     OW21233   7.957   9.683   9.961 -0.0438 -0.3870 -0.5060
 5309SOL    HW121234   8.024   9.751   9.956 -0.0467 -0.4245 -1.1390
 5309SOL    HW221235   7.875   9.729   9.943 -0.4942  0.0655  2.2540
 5309SOL     MW21236   7.955   9.697   9.958 -0.1018 -0.3339 -0.2337
 5310SOL     OW21237   9.081   6.687   0.811 -0.3906 -0.2076 -0.2526
 5310SOL    HW121238   9.063   6.755   0.746  0.3671 -1.0949 -1.4267
 5310SOL    HW221239   9.059   6.605   0.768  0.7873 -0.8676  0.3476
 5310SOL     MW21240   9.076   6.686   0.798 -0.1428 -0.4057 -0.3261
 5311SOL     OW21241   8.312   3.422   1.857 -0.4488 -0.5210  0.2975
 5311SOL    HW121242   8.367   3.489   1.896  0.4608 -1.8343  1.3490
 5311SOL    HW221243   8.282   3.369   1.931 -1.6783 -0.9045 -0.4362
 5311SOL     MW21244   8.315   3.423   1.872 -0.4897 -0.7382  0.3382
 5312SOL     OW21245   6.105   1.118   0.856  0.1397  0.2341 -0.1783
 5312SOL    HW121246   6.042   1.055   0.822  0.0041  0.9144 -1.2369
 5312SOL    HW221247   6.190   1.084   0.831  0.0397  0.7360 -1.2341
 5312SOL     MW21248   6.108   1.106   0.849  0.1096  0.3854 -0.4490
 5313SOL     OW21249   9.723   7.725   0.473  0.3353  0.6783  0.2309
 5313SOL    HW121250   9.738   7.741   0.566 -0.7704 -0.7582  0.6963
 5313SOL    HW221251   9.648   7.779   0.450  1.0292  1.5534 -0.0130
 5313SOL     MW21252   9.716   7.734   0.482  0.2826  0.6065  0.2593
 5314SOL     OW21253   8.352   7.668   0.232  0.5125 -0.6697 -0.5387
 5314SOL    HW121254   8.367   7.577   0.257  0.5882 -0.5361 -0.0960
 5314SOL    HW221255   8.298   7.703   0.303 -0.1495 -0.5729 -1.0736
 5314SOL     MW21256   8.347   7.661   0.244  0.4375 -0.6402 -0.5505
 5315SOL     OW21257   8.147   7.218   0.734 -0.2370 -0.4279 -0.1375
 5315SOL    HW121258   8.226   7.165   0.725 -0.3297 -0.7511  0.8016
 5315SOL    HW221259   8.095   7.197   0.657  0.7896  0.1606 -1.0288
 5315SOL     MW21260   8.151   7.209   0.723 -0.1175 -0.3939 -0.1314
 5316SOL     OW21261   8.005   7.453   0.358 -0.1532  0.0002 -0.0840
 5316SOL    HW121262   7.915   7.468   0.329  0.2165  0.0640 -1.2440
 5316SOL    HW221263   8.050   7.417   0.281  1.3199  1.8898 -0.1918
 5316SOL     MW21264   7.999   7.451   0.344  0.0827  0.2503 -0.2463
 5317SOL     OW21265   6.164   1.039   1.713 -0.3162  0.1359 -0.3030
 5317SOL    HW121266   6.235   1.101   1.699  0.3558 -0.2322  1.2881
 5317SOL    HW221267   6.084   1.093   1.716 -0.0091  0.6558 -1.0943
 5317SOL     MW21268   6.162   1.054   1.711 -0.1909  0.1553 -0.2006
 5318SOL     OW21269   9.545   0.550   1.733  0.1813 -0.1794 -0.6537
 5318SOL    HW121270   9.528   0.493   1.659 -1.4566 -0.5782 -0.0349
 5318SOL    HW221271   9.459   0.587   1.754  0.5783 -0.1385  1.0704
 5318SOL     MW21272   9.532   0.548   1.727  0.0225 -0.2252 -0.3537
 5319SOL     OW21273   0.029   8.253   1.632  0.0830  1.1042  0.4418
 5319SOL    HW121274   0.038   8.287   1.721  0.0474 -1.5143  1.5428
 5319SOL    HW221275  -0.059   8.215   1.630  0.7786 -0.5787 -0.0285
 5319SOL     MW21276   0.019   8.253   1.643  0.1675  0.5536  0.5225
 5320SOL     OW21277   9.752   8.269   0.303  0.2879  0.0687 -0.5891
 5320SOL    HW121278   9.686   8.313   0.248 -0.2539 -0.9029 -0.7362
 5320SOL    HW221279   9.704   8.199   0.346  1.3134 -0.9230 -1.0120
 5320SOL     MW21280   9.737   8.266   0.302  0.3498 -0.1826 -0.6620
 5321SOL     OW21281   6.938   1.096   9.354  0.2315 -0.2714 -0.2582
 5321SOL    HW121282   6.888   1.019   9.327  0.3478  0.4637 -2.7568
 5321SOL    HW221283   7.011   1.101   9.293 -1.0592  3.0950 -1.7599
 5321SOL     MW21284   6.941   1.087   9.343  0.0811  0.2536 -0.7703
 5322SOL     OW21285   8.520   5.660   2.919  0.1579  0.0065 -0.1419
 5322SOL    HW121286   8.559   5.586   2.871  1.6122  1.0168 -0.5838
 5322SOL    HW221287   8.530   5.734   2.860  0.3109  0.9119  0.9922
 5322SOL     MW21288   8.527   5.660   2.905  0.3637  0.2517 -0.0533
 5323SOL     OW21289   7.107   8.145   0.287 -0.0696 -0.0014 -0.2416
 5323SOL    HW121290   7.078   8.077   0.226 -0.4491  1.0215 -1.2507
 5323SOL    HW221291   7.035   8.209   0.288  0.5177  0.6739  0.2208
 5323SOL     MW21292   7.094   8.145   0.279 -0.0430  0.2160 -0.3116
 5324SOL     OW21293   6.326   4.704   0.742  0.2508  0.0606  0.1177
 5324SOL    HW121294   6.391   4.707   0.673 -2.0344 -0.5264 -2.2361
 5324SOL    HW221295   6.242   4.699   0.696 -1.5122  0.9079  2.9431
 5324SOL     MW21296   6.323   4.704   0.727 -0.2674  0.0939  0.1781
 5325SOL     OW21297   7.249   3.860   9.769  0.1414  0.2167 -0.2551
 5325SOL    HW121298   7.200   3.838   9.848  1.0578 -0.6459  0.0961
 5325SOL    HW221299   7.333   3.814   9.779  0.7392  1.0542 -1.1729
 5325SOL     MW21300   7.254   3.851   9.780  0.3353  0.2135 -0.3276
 5326SOL     OW21301   9.140   2.531   9.384 -0.1055  0.1543  0.0616
 5326SOL    HW121302   9.196   2.500   9.313  0.2647  1.8125 -0.4224
 5326SOL    HW221303   9.200   2.577   9.443 -0.6409  0.1137  0.6484
 5326SOL     MW21304   9.155   2.533   9.383 -0.1266  0.3614  0.0748
 5327SOL     OW21305   9.276   2.991   2.090 -0.1968 -0.2111  0.2874
 5327SOL    HW121306   9.325   2.913   2.117  1.3870 -0.2193 -2.2253
 5327SOL    HW221307   9.326   3.065   2.124  1.1614 -0.2440 -1.4927
 5327SOL     MW21308   9.289   2.990   2.097  0.1798 -0.2164 -0.2621
 5328SOL     OW21309   9.001   3.301   2.174 -0.0253 -0.2405 -0.7148
 5328SOL    HW121310   8.951   3.313   2.255  1.6484 -0.3642  0.3869
 5328SOL    HW221311   9.005   3.207   2.162 -0.2087 -0.2246 -0.8973
 5328SOL     MW21312   8.995   3.291   2.183  0.1655 -0.2543 -0.5971
 5329SOL     OW21313   9.722   8.804   9.624 -0.0948 -0.1327 -0.3260
 5329SOL    HW121314   9.634   8.768   9.635 -0.9402  1.7538 -0.4258
 5329SOL    HW221315   9.740   8.849   9.706  0.1330  0.7450 -0.8378
 5329SOL     MW21316   9.713   8.805   9.636 -0.1739  0.2212 -0.4043
 5330SOL     OW21317   8.314   6.027   2.013 -0.2745 -0.3673 -0.4556
 5330SOL    HW121318   8.386   6.082   2.044 -1.3480  1.1658 -0.5916
 5330SOL    HW221319   8.267   6.081   1.951 -0.9427 -1.7395 -1.1924
 5330SOL     MW21320   8.318   6.041   2.009 -0.4974 -0.3467 -0.5673
 5331SOL     OW21321   6.615   8.353   1.386  0.4700  0.2606  0.5811
 5331SOL    HW121322   6.519   8.354   1.382  0.4615 -1.7581 -1.4763
 5331SOL    HW221323   6.641   8.445   1.373 -1.1489  0.6567 -0.0413
 5331SOL     MW21324   6.606   8.365   1.384  0.2617  0.0529  0.2381
 5332SOL     OW21325   9.561   2.020   2.596  0.0744  0.3030 -0.2227
 5332SOL    HW121326   9.594   2.099   2.554  1.9184 -0.1173  0.3619
 5332SOL    HW221327   9.530   1.965   2.523 -2.8470  2.1845 -0.5384
 5332SOL     MW21328   9.561   2.023   2.581 -0.0635  0.4900 -0.1883
 5333SOL     OW21329   9.707   7.247   1.624  0.4603 -0.3115  0.5756
 5333SOL    HW121330   9.779   7.234   1.562  1.0324  0.5572  1.0447
 5333SOL    HW221331   9.634   7.196   1.588  0.6702  0.4717 -1.0011
 5333SOL     MW21332   9.707   7.238   1.612  0.5604 -0.1001  0.4338
 5334SOL     OW21333   9.728   7.085   1.213  0.3245  0.3932 -0.6017
 5334SOL    HW121334   9.642   7.100   1.173 -0.6187 -2.2955  0.2113
 5334SOL    HW221335   9.775   7.032   1.150  0.9685  0.9090 -0.5576
 5334SOL     MW21336   9.723   7.080   1.200  0.2862  0.1150 -0.4920
 5335SOL     OW21337   7.874   3.018   1.595  0.3200 -0.0781  0.4323
 5335SOL    HW121338   7.942   3.084   1.586  0.4093  0.0112  1.6047
 5335SOL    HW221339   7.852   3.018   1.688 -0.1902 -1.1931  0.3327
 5335SOL     MW21340   7.880   3.027   1.606  0.2661 -0.2094  0.5696
 5336SOL     OW21341   0.106   2.777  10.005  0.3772  0.1904  0.1049
 5336SOL    HW121342   0.090   2.792   9.912  1.0067 -2.2463 -0.4915
 5336SOL    HW221343   0.022   2.748  10.040  0.4749 -0.3356 -0.0802
 5336SOL     MW21344   0.093   2.775   9.998  0.4703 -0.1889  0.0048
 5337SOL     OW21345   0.239   6.251   1.203 -0.4169  0.3100  0.0828
 5337SOL    HW121346   0.167   6.219   1.258 -0.0825  0.6596  0.7463
 5337SOL    HW221347   0.242   6.345   1.221  0.1321  0.3145 -0.0204
 5337SOL     MW21348   0.230   6.259   1.212 -0.3038  0.3553  0.1545
 5338SOL     OW21349   8.941   5.258   0.360 -0.0505  0.0612  0.5217
 5338SOL    HW121350   8.914   5.337   0.407  0.3198 -0.1743  1.1527
 5338SOL    HW221351   8.859   5.213   0.339 -0.2277  0.1329  1.0321
 5338SOL     MW21352   8.927   5.262   0.363 -0.0258  0.0402  0.6678
 5339SOL     OW21353   9.908   5.460   0.178  0.5285  0.1746 -0.5691
 5339SOL    HW121354   9.927   5.368   0.198  1.9569  0.6112  0.2751
 5339SOL    HW221355   9.874   5.496   0.260 -0.0735  0.3966 -0.9123
 5339SOL     MW21356   9.906   5.453   0.191  0.6343  0.2589 -0.5050
 5340SOL     OW21357   8.535   1.360   9.249 -0.2793  0.4470 -0.3907
 5340SOL    HW121358   8.597   1.417   9.294  0.1362  0.1916 -0.6305
 5340SOL    HW221359   8.544   1.276   9.294 -0.2692  0.3432 -0.5861
 5340SOL     MW21360   8.544   1.356   9.261 -0.2248  0.4010 -0.4464
 5341SOL     OW21361   8.700   7.473   2.980  0.8314  0.4031  0.0133
 5341SOL    HW121362   8.686   7.401   2.919  0.8700 -0.1499  0.6476
 5341SOL    HW221363   8.632   7.537   2.958  1.4216  0.6241 -1.2143
 5341SOL     MW21364   8.689   7.472   2.969  0.9119  0.3606 -0.0627
 5342SOL     OW21365   7.366   1.787   9.352 -0.7269 -0.0967  0.1496
 5342SOL    HW121366   7.367   1.876   9.318  0.7538  0.1897  0.8514
 5342SOL    HW221367   7.302   1.789   9.423 -0.3214  0.5664  0.5075
 5342SOL     MW21368   7.358   1.799   9.357 -0.4855  0.0249  0.2852
 5343SOL     OW21369   7.981   4.836   0.797 -0.2685  0.2635 -0.5336
 5343SOL    HW121370   8.001   4.751   0.834  0.9793  1.5687  2.0402
 5343SOL    HW221371   8.004   4.827   0.704  0.9442 -1.8607 -0.0982
 5343SOL     MW21372   7.987   4.824   0.790  0.0464  0.1586 -0.1484
 5344SOL     OW21373   7.030   1.647   1.964  0.1684  0.2584  0.3117
 5344SOL    HW121374   6.980   1.568   1.983  1.2843 -0.8131 -0.9355
 5344SOL    HW221375   7.082   1.663   2.043  0.2641 -0.5417  0.4215
 5344SOL     MW21376   7.031   1.638   1.976  0.3235  0.0188  0.1661
 5345SOL     OW21377   9.479   8.708   1.518  0.3960  0.2558 -0.3912
 5345SOL    HW121378   9.535   8.779   1.548  1.0469  0.4427 -1.9407
 5345SOL    HW221379   9.508   8.691   1.428 -2.4661  0.8229 -1.5179
 5345SOL     MW21380   9.490   8.715   1.510  0.1129  0.3523 -0.7338
 5346SOL     OW21381   7.264   4.439   2.514 -0.0160 -0.9718 -0.0059
 5346SOL    HW121382   7.346   4.461   2.470  0.4823 -1.7221  0.5006
 5346SOL    HW221383   7.252   4.509   2.578 -0.1237 -0.5029 -0.5395
 5346SOL     MW21384   7.273   4.451   2.517  0.0340 -1.0078 -0.0094
 5347SOL     OW21385   6.951   6.254   1.586 -0.7579  0.1615 -0.4840
 5347SOL    HW121386   7.032   6.252   1.534 -0.7936  1.9306 -0.6905
 5347SOL    HW221387   6.981   6.266   1.676 -0.7587  0.2382 -0.4930
 5347SOL     MW21388   6.965   6.255   1.591 -0.7626  0.3978 -0.5116
 5348SOL     OW21389   7.774   2.677   0.627 -0.1630  0.6358 -0.3669
 5348SOL    HW121390   7.757   2.583   0.630  0.3826  0.5639  0.9253
 5348SOL    HW221391   7.760   2.700   0.535 -2.2131 -0.3286 -0.3548
 5348SOL     MW21392   7.770   2.668   0.615 -0.3556  0.5032 -0.1999
 5349SOL     OW21393   0.203   5.178   0.262  0.2225 -0.2780 -0.0340
 5349SOL    HW121394   0.280   5.164   0.207 -1.0749 -0.0756 -2.0213
 5349SOL    HW221395   0.187   5.272   0.257 -1.8230 -0.6472 -2.1531
 5349SOL     MW21396   0.211   5.188   0.254 -0.2054 -0.2994 -0.5597
 5350SOL     OW21397   7.688   4.171   1.216 -0.1959 -0.1172 -0.1028
 5350SOL    HW121398   7.710   4.081   1.189 -0.9231 -0.3672  0.1132
 5350SOL    HW221399   7.608   4.191   1.169  0.4132  0.7486 -0.8094
 5350SOL     MW21400   7.681   4.162   1.207 -0.2110 -0.0383 -0.1656
 5351SOL     OW21401   6.227   9.859   9.942  0.5207 -0.0309  0.0595
 5351SOL    HW121402   6.281   9.819  10.010 -1.0252 -1.1438  0.6952
 5351SOL    HW221403   6.152   9.799   9.932  0.3416  0.4747 -2.1250
 5351SOL     MW21404   6.224   9.846   9.950  0.2999 -0.1086 -0.1388
 5352SOL     OW21405   7.466   7.833   1.437  0.1870  0.3353  0.8487
 5352SOL    HW121406   7.515   7.868   1.511 -0.3193 -1.9009  2.3551
 5352SOL    HW221407   7.508   7.748   1.419 -0.1366  0.5219 -1.0238
 5352SOL     MW21408   7.478   7.827   1.444  0.0808  0.0729  0.8019
 5353SOL     OW21409   6.268   7.143   1.727  0.5255  0.4348  0.5309
 5353SOL    HW121410   6.239   7.101   1.808  1.1706 -0.8300  0.1410
 5353SOL    HW221411   6.324   7.077   1.685 -0.8484  0.5315 -1.5995
 5353SOL     MW21412   6.272   7.129   1.732  0.4322  0.2853  0.2083
 5354SOL     OW21413   7.890  10.005   2.593  0.0875  0.2805  0.4143
 5354SOL    HW121414   7.903  10.085   2.542  0.3653 -0.0479 -0.0304
 5354SOL    HW221415   7.845   9.945   2.533 -1.0182  0.4356  1.0554
 5354SOL     MW21416   7.886  10.008   2.579 -0.0185  0.2583  0.4395
 5355SOL     OW21417   9.250   5.922   0.887 -0.0287  0.1762 -0.1672
 5355SOL    HW121418   9.168   5.898   0.930 -0.2840  0.7975 -0.2983
 5355SOL    HW221419   9.245   6.017   0.876  0.4913  0.1574 -0.6290
 5355SOL     MW21420   9.239   5.931   0.891  0.0052  0.2533 -0.2431
 5356SOL     OW21421   8.084   6.285   2.368  0.2131 -0.0095 -0.5140
 5356SOL    HW121422   8.099   6.380   2.361  1.3949 -0.0362  1.1752
 5356SOL    HW221423   8.162   6.252   2.413 -1.4587 -1.3625  1.5325
 5356SOL     MW21424   8.096   6.293   2.373  0.1504 -0.1861 -0.0358
 5357SOL     OW21425   7.048   6.390   9.548 -0.5929 -0.5860  0.2803
 5357SOL    HW121426   7.135   6.412   9.583  0.1933 -1.1206 -1.2712
 5357SOL    HW221427   7.005   6.344   9.620  0.9204 -1.5101  0.6543
 5357SOL     MW21428   7.054   6.387   9.562 -0.2985 -0.7727  0.1295
 5358SOL     OW21429   6.413   8.762   0.708  0.1909  0.2082 -0.3086
 5358SOL    HW121430   6.359   8.762   0.630  0.0773 -0.0163 -0.2293
 5358SOL    HW221431   6.496   8.802   0.680 -0.0109  0.5382 -0.4299
 5358SOL     MW21432   6.417   8.767   0.695  0.1505  0.2217 -0.3140
 5359SOL     OW21433   8.655   7.212   1.246 -0.4563 -0.1399 -0.4929
 5359SOL    HW121434   8.585   7.198   1.182 -1.1967 -1.1283  0.5148
 5359SOL    HW221435   8.671   7.126   1.283  0.4558  0.3015  0.1649
 5359SOL     MW21436   8.648   7.199   1.242 -0.4343 -0.2099 -0.2797
 5360SOL     OW21437   9.861   3.487   1.975  0.2268 -0.0426  0.3733
 5360SOL    HW121438   9.861   3.438   2.057 -0.2329 -0.0346  0.3798
 5360SOL    HW221439   9.939   3.457   1.928  1.0284  0.6496  1.2293
 5360SOL     MW21440   9.871   3.477   1.979  0.2705  0.0471  0.4837
 5361SOL     OW21441   8.439   6.375   2.086 -0.4962 -0.4400  0.6105
 5361SOL    HW121442   8.524   6.415   2.070 -0.4231  0.0428  2.0654
 5361SOL    HW221443   8.457   6.281   2.094 -0.1458 -0.3677  0.6605
 5361SOL     MW21444   8.452   6.368   2.085 -0.4420 -0.3690  0.8031
 5362SOL     OW21445   7.386   0.602   9.586  0.6004 -0.3993  0.0848
 5362SOL    HW121446   7.432   0.684   9.601  0.7745 -0.3206 -0.7894
 5362SOL    HW221447   7.454   0.542   9.555  0.2112 -0.4207 -0.7528
 5362SOL     MW21448   7.401   0.605   9.584  0.5728 -0.3920 -0.1343
 5363SOL     OW21449   6.943   9.395   0.809 -0.1514  0.2532 -0.6931
 5363SOL    HW121450   6.931   9.481   0.769 -0.4304  0.6567  0.2443
 5363SOL    HW221451   7.030   9.397   0.847 -0.4810  0.4208  0.0570
 5363SOL     MW21452   6.953   9.406   0.809 -0.2293  0.3263 -0.4771
 5364SOL     OW21453   7.484   4.373   0.862  0.1717  0.2787 -0.5829
 5364SOL    HW121454   7.484   4.355   0.768  2.0295  0.2517 -0.6075
 5364SOL    HW221455   7.540   4.449   0.873  1.1877 -0.5898  0.6315
 5364SOL     MW21456   7.491   4.380   0.852  0.5396  0.1641 -0.4306
 5365SOL     OW21457   7.634   8.453   1.975  0.7530 -0.3886  0.2715
 5365SOL    HW121458   7.606   8.544   1.974  0.5477 -0.4400 -1.0389
 5365SOL    HW221459   7.606   8.420   2.060 -3.3668 -0.4624 -0.8626
 5365SOL     MW21460   7.626   8.460   1.986  0.1994 -0.4047 -0.0414
 5366SOL     OW21461   9.627   8.521   2.276  0.3966 -0.4901 -0.6930
 5366SOL    HW121462   9.705   8.484   2.316 -1.6791 -2.8806  1.5347
 5366SOL    HW221463   9.612   8.467   2.198 -1.5606 -3.5165  1.5253
 5366SOL     MW21464   9.635   8.509   2.271 -0.1197 -1.1835 -0.1239
 5367SOL     OW21465   6.865   1.142   1.634 -0.1365  0.5882 -0.2655
 5367SOL    HW121466   6.932   1.090   1.590 -0.6791 -0.5510  0.1999
 5367SOL    HW221467   6.809   1.174   1.564  0.4602  0.9293 -0.5946
 5367SOL     MW21468   6.866   1.139   1.620 -0.1296  0.4861 -0.2480
 5368SOL     OW21469   8.350   8.573   2.364 -0.5560 -0.3327  0.0759
 5368SOL    HW121470   8.428   8.519   2.377 -0.4885 -0.0255  1.0625
 5368SOL    HW221471   8.384   8.662   2.355 -0.8529  0.0636  2.2983
 5368SOL     MW21472   8.364   8.578   2.365 -0.5853 -0.2426  0.4867
 5369SOL     OW21473   6.864   3.185   1.471 -0.1379 -0.3995 -0.1165
 5369SOL    HW121474   6.827   3.107   1.430  0.3606 -1.1503  0.8262
 5369SOL    HW221475   6.788   3.228   1.512 -0.6962  0.5258 -2.0005
 5369SOL     MW21476   6.849   3.180   1.471 -0.1455 -0.3771 -0.2370
 5370SOL     OW21477   6.454   7.631   1.365 -0.4846  0.1242  0.2909
 5370SOL    HW121478   6.503   7.678   1.298  1.5872 -0.1958  1.4768
 5370SOL    HW221479   6.451   7.540   1.333  1.3346 -0.2287  0.9880
 5370SOL     MW21480   6.460   7.625   1.352  0.0135  0.0381  0.5319
 5371SOL     OW21481   8.671   3.749   2.595  0.2010 -0.1839  0.3702
 5371SOL    HW121482   8.611   3.690   2.640  0.8361 -0.7482  0.4912
 5371SOL    HW221483   8.735   3.773   2.661 -1.0292  2.0932  0.8440
 5371SOL     MW21484   8.671   3.745   2.609  0.1248  0.0354  0.4463
 5372SOL     OW21485   8.821   0.504   9.705  0.0965  0.1849  0.0201
 5372SOL    HW121486   8.852   0.577   9.652  0.1622  0.0071 -0.1869
 5372SOL    HW221487   8.886   0.495   9.775 -0.2953  0.7987  0.4781
 5372SOL     MW21488   8.833   0.512   9.708  0.0548  0.2407  0.0522
 5373SOL     OW21489   9.196   6.544   2.283 -0.0517 -0.0446  0.3912
 5373SOL    HW121490   9.285   6.577   2.275 -0.7732  1.7371 -0.6474
 5373SOL    HW221491   9.194   6.465   2.229  0.8097  0.0966  0.1516
 5373SOL     MW21492   9.207   6.538   2.275 -0.0338  0.2016  0.2276
 5374SOL     OW21493   6.549   0.820   1.246 -0.1174  0.5528 -0.0269
 5374SOL    HW121494   6.591   0.808   1.331 -0.2130 -0.0167 -0.0600
 5374SOL    HW221495   6.461   0.851   1.267  0.1061  1.1631  0.0560
 5374SOL     MW21496   6.544   0.823   1.259 -0.1010  0.5580 -0.0205
 5375SOL     OW21497   9.022   6.309   1.794 -0.2038  0.0246 -0.1975
 5375SOL    HW121498   9.054   6.228   1.832  0.1950  0.4952  0.4762
 5375SOL    HW221499   8.933   6.288   1.764 -1.6891  0.3284  3.4698
 5375SOL     MW21500   9.014   6.296   1.795 -0.3429  0.1238  0.3582
 5376SOL     OW21501   8.697   6.813   3.075 -0.2332 -0.8076  0.8379
 5376SOL    HW121502   8.704   6.724   3.110  1.2570 -0.8615  0.4669
 5376SOL    HW221503   8.662   6.801   2.986  1.2774 -1.1883  0.2534
 5376SOL     MW21504   8.693   6.800   3.068  0.1510 -0.8633  0.7156
 5377SOL     OW21505   0.231   1.638   2.306  0.2904 -0.2766  0.3519
 5377SOL    HW121506   0.231   1.582   2.228 -1.0193  0.9758 -0.5984
 5377SOL    HW221507   0.209   1.579   2.378 -3.0840 -0.7277 -0.8843
 5377SOL     MW21508   0.229   1.623   2.305 -0.3092 -0.1740  0.0720
 5378SOL     OW21509   7.710  10.141   2.085 -0.2103  0.2894  0.1021
 5378SOL    HW121510   7.698  10.212   2.147  0.5917  1.3901 -0.9538
 5378SOL    HW221511   7.799  10.110   2.101  0.7603  1.9173 -1.7666
 5378SOL     MW21512   7.720  10.146   2.095  0.0166  0.6387 -0.2723
 5379SOL     OW21513   9.298   7.839   0.441  0.2798  0.4504  0.0397
 5379SOL    HW121514   9.230   7.778   0.468 -0.0181  0.3222 -0.9735
 5379SOL    HW221515   9.256   7.895   0.376  0.8025  1.1677  0.3010
 5379SOL     MW21516   9.284   7.838   0.436  0.3086  0.5258 -0.0566
 5380SOL     OW21517   7.837   2.465   1.189  0.0830 -0.0161 -0.2439
 5380SOL    HW121518   7.884   2.382   1.199 -0.6258 -0.4178 -0.1992
 5380SOL    HW221519   7.906   2.531   1.184  0.6628 -0.6279 -0.4829
 5380SOL     MW21520   7.852   2.463   1.189  0.0665 -0.1458 -0.2688
 5381SOL     OW21521   0.275   1.279   1.195 -0.5068  0.2504  0.0569
 5381SOL    HW121522   0.309   1.203   1.147 -2.2445  0.4498 -1.6430
 5381SOL    HW221523   0.346   1.343   1.191  0.6535 -0.9402  0.7341
 5381SOL     MW21524   0.288   1.277   1.188 -0.5807  0.1235 -0.0740
 5382SOL     OW21525   6.458   1.586   9.823  0.1218  0.6624  0.1969
 5382SOL    HW121526   6.389   1.645   9.790  0.4967  0.1288 -1.6768
 5382SOL    HW221527   6.465   1.519   9.756  1.2443 -0.2963  1.2380
 5382SOL     MW21528   6.450   1.585   9.810  0.3135  0.4714  0.0903
 5383SOL     OW21529   8.804   2.732   9.008 -0.0176  0.2840 -0.5028
 5383SOL    HW121530   8.897   2.711   9.018  0.0199  0.7420  0.2728
 5383SOL    HW221531   8.788   2.729   8.914  1.2558  2.0691 -0.8354
 5383SOL     MW21532   8.814   2.729   8.997  0.1502  0.5711 -0.4461
 5384SOL     OW21533   6.289   8.557   0.146 -0.1300 -0.5950 -0.0721
 5384SOL    HW121534   6.208   8.595   0.111  0.3225 -0.0876 -0.5947
 5384SOL    HW221535   6.358   8.616   0.115  0.5457 -1.5840 -0.5021
 5384SOL     MW21536   6.288   8.570   0.138  0.0144 -0.6567 -0.1941
 5385SOL     OW21537   9.454   2.975   2.481 -0.1074 -0.0944  0.2531
 5385SOL    HW121538   9.466   3.016   2.567 -0.3682  0.8520 -0.1510
 5385SOL    HW221539   9.517   2.903   2.481  0.1076  0.0751  1.1223
 5385SOL     MW21540   9.464   2.971   2.492 -0.1133  0.0484  0.3126
 5386SOL     OW21541   7.774   6.719   9.479  0.0505  0.2234  0.0281
 5386SOL    HW121542   7.718   6.673   9.542  0.7073  0.7270  1.0058
 5386SOL    HW221543   7.862   6.711   9.516  0.4835  0.3304 -0.9572
 5386SOL     MW21544   7.778   6.712   9.492  0.1900  0.3016  0.0271
 5387SOL     OW21545   7.424   1.000   2.611 -0.8132  0.3458  0.4676
 5387SOL    HW121546   7.364   0.925   2.611 -1.2308  0.6792  0.3291
 5387SOL    HW221547   7.495   0.973   2.553 -0.6132 -0.2154  0.9610
 5387SOL     MW21548   7.425   0.987   2.603 -0.8411  0.3166  0.5131
 5388SOL     OW21549   7.577   0.890   9.823  0.1178 -0.9384 -0.3120
 5388SOL    HW121550   7.508   0.938   9.869  0.3376  0.3945 -1.3040
 5388SOL    HW221551   7.551   0.894   9.731  1.9398  0.3392 -0.8149
 5388SOL     MW21552   7.565   0.897   9.817  0.3792 -0.6042 -0.5034
 5389SOL     OW21553   7.353   0.325   9.452  0.3645  0.0355 -0.2127
 5389SOL    HW121554   7.259   0.324   9.469  0.3491  0.1966 -0.2970
 5389SOL    HW221555   7.392   0.302   9.536  0.2882  0.8764  0.0570
 5389SOL     MW21556   7.346   0.322   9.465  0.3527  0.1638 -0.1889
 5390SOL     OW21557   7.228   0.064   1.629  0.3264  0.2468  0.7979
 5390SOL    HW121558   7.143   0.104   1.610  0.9139  0.2113 -2.6446
 5390SOL    HW221559   7.217  -0.028   1.606  0.9591 -0.0421  1.6104
 5390SOL     MW21560   7.215   0.058   1.624  0.4826  0.2053  0.4612
 5391SOL     OW21561   8.787   2.851   9.971  0.6420 -0.3137 -0.0527
 5391SOL    HW121562   8.775   2.809  10.056 -0.2630 -0.4332 -0.2207
 5391SOL    HW221563   8.717   2.917   9.967  1.1619  0.2242 -0.3827
 5391SOL     MW21564   8.776   2.854   9.981  0.5927 -0.2602 -0.1165
 5392SOL     OW21565  -0.018   2.225   1.958  0.5888  0.7792  0.0544
 5392SOL    HW121566   0.077   2.216   1.949  0.5063 -0.3159  0.1632
 5392SOL    HW221567  -0.034   2.213   2.052  0.2591  0.0291 -0.0901
 5392SOL     MW21568  -0.008   2.222   1.969  0.5360  0.5430  0.0498
 5393SOL     OW21569   7.968   7.251   0.947  0.2228 -0.1138 -0.2435
 5393SOL    HW121570   7.919   7.305   0.884 -1.1976 -2.0510 -0.9150
 5393SOL    HW221571   8.038   7.212   0.895 -0.6611 -1.3362 -0.5706
 5393SOL     MW21572   7.971   7.253   0.932 -0.0722 -0.5183 -0.3714
 5394SOL     OW21573   6.818   5.491   0.404 -0.6761 -0.3162 -0.4195
 5394SOL    HW121574   6.867   5.448   0.474  0.5055 -0.2658 -1.1995
 5394SOL    HW221575   6.884   5.533   0.350 -1.7412  2.1171  0.0305
 5394SOL     MW21576   6.833   5.491   0.406 -0.6612  0.0018 -0.4618
 5395SOL     OW21577   8.120   5.915   2.694  0.5637  0.1892  0.3908
 5395SOL    HW121578   8.097   5.934   2.603 -0.4626  0.0154  0.6026
 5395SOL    HW221579   8.153   5.825   2.693  0.5641  0.1924  0.1913
 5395SOL     MW21580   8.121   5.906   2.683  0.4324  0.1673  0.3924
 5396SOL     OW21581   6.627   6.236   1.283 -0.3296  0.1872  0.2498
 5396SOL    HW121582   6.544   6.241   1.237 -1.1399 -1.1525  1.4710
 5396SOL    HW221583   6.654   6.327   1.295  0.0512  0.6375 -2.9565
 5396SOL     MW21584   6.620   6.248   1.279 -0.3846  0.0733 -0.0043
 5397SOL     OW21585   8.281   7.993   8.845 -0.4543 -0.1336 -0.3665
 5397SOL    HW121586   8.211   7.959   8.900 -0.8584 -0.2542 -0.9451
 5397SOL    HW221587   8.329   7.915   8.815 -0.1451 -0.0597 -0.0738
 5397SOL     MW21588   8.278   7.978   8.848 -0.4665 -0.1396 -0.4031
 5398SOL     OW21589   9.515   0.605   9.865  0.5182  0.1681  0.1772
 5398SOL    HW121590   9.547   0.694   9.850  0.4022  0.2694  0.5256
 5398SOL    HW221591   9.584   0.563   9.915  0.7221 -0.0437 -0.2788
 5398SOL     MW21592   9.528   0.611   9.869  0.5294  0.1539  0.1635
 5399SOL     OW21593   7.034   1.023   1.923 -0.8609  0.3783  0.1444
 5399SOL    HW121594   7.090   1.018   2.001 -0.9170 -0.6804  0.1317
 5399SOL    HW221595   7.052   1.109   1.886 -1.2741  1.1603  1.6649
 5399SOL     MW21596   7.043   1.033   1.929 -0.9210  0.3429  0.3374
 5400SOL     OW21597   8.121   1.740   1.697 -0.3020  0.3230  0.1634
 5400SOL    HW121598   8.053   1.801   1.670 -0.1132  0.4786  0.0363
 5400SOL    HW221599   8.081   1.688   1.767 -0.2316  1.0837  0.7825
 5400SOL     MW21600   8.107   1.741   1.702 -0.2689  0.4403  0.2264
 5401SOL     OW21601   7.714   7.243   9.934  0.3716  0.1693  0.4553
 5401SOL    HW121602   7.781   7.301   9.899  1.1725 -0.5746  0.7060
 5401SOL    HW221603   7.654   7.301   9.982 -0.0288  1.0338 -1.0370
 5401SOL     MW21604   7.715   7.258   9.936  0.4229  0.1848  0.2964
 5402SOL     OW21605   6.855   0.103   2.240 -0.2120  0.0372  0.0916
 5402SOL    HW121606   6.842   0.055   2.158  0.5481  0.9405 -0.5775
 5402SOL    HW221607   6.858   0.035   2.307 -1.7541 -0.6645 -0.4998
 5402SOL     MW21608   6.854   0.088   2.238 -0.3121  0.0630 -0.0697
 5403SOL     OW21609   8.016   6.507   2.669  0.0273 -0.0813 -0.0063
 5403SOL    HW121610   8.096   6.548   2.701 -0.3989  0.7069  0.0773
 5403SOL    HW221611   8.015   6.420   2.709  1.2834 -0.4364 -0.7064
 5403SOL     MW21612   8.026   6.501   2.678  0.1336 -0.0258 -0.0852
 5404SOL     OW21613   8.915   6.750   0.472  0.4387 -0.1416 -0.2390
 5404SOL    HW121614   8.939   6.801   0.550  1.4511 -0.0511 -0.5937
 5404SOL    HW221615   8.937   6.808   0.399 -1.4154  0.1726 -0.6064
 5404SOL     MW21616   8.921   6.764   0.473  0.3309 -0.0898 -0.3314
 5405SOL     OW21617   7.244   4.500   9.955 -0.0666  0.4056  0.0941
 5405SOL    HW121618   7.331   4.539   9.944  0.8580 -1.5827 -0.1250
 5405SOL    HW221619   7.248   4.419   9.904 -0.5984 -1.8039  3.2688
 5405SOL     MW21620   7.256   4.495   9.947 -0.0163 -0.1318  0.4724
 5406SOL     OW21621   7.799   3.047   2.455  0.2042  0.2748 -0.0966
 5406SOL    HW121622   7.873   2.992   2.481 -0.5913 -1.1045 -0.6310
 5406SOL    HW221623   7.826   3.085   2.371  0.4664  0.1064 -0.0913
 5406SOL     MW21624   7.812   3.045   2.447  0.1359  0.0767 -0.1643
 5407SOL     OW21625   7.814   6.417   2.993  0.0370 -0.6571 -1.0599
 5407SOL    HW121626   7.846   6.333   2.960 -0.1123 -0.7136 -1.0623
 5407SOL    HW221627   7.892   6.470   3.003  0.1368 -0.8108 -1.0190
 5407SOL     MW21628   7.828   6.413   2.990  0.0306 -0.6840 -1.0550
 5408SOL     OW21629   8.082   4.622   2.832 -0.0815  0.5930 -0.3921
 5408SOL    HW121630   8.118   4.626   2.744 -1.5373 -1.3828 -1.1373
 5408SOL    HW221631   8.136   4.558   2.878  0.6952  1.6411  0.1941
 5408SOL     MW21632   8.093   4.615   2.827 -0.1684  0.4742 -0.4124
 5409SOL     OW21633   0.188   1.768   1.999  0.0916  0.4656 -0.4092
 5409SOL    HW121634   0.172   1.825   2.074 -0.8670  2.1662 -1.8424
 5409SOL    HW221635   0.117   1.787   1.938  1.5090  0.0407 -2.2756
 5409SOL     MW21636   0.177   1.777   2.001  0.1504  0.6289 -0.8316
 5410SOL     OW21637   8.700   5.084   0.350 -0.1556  0.4367 -0.0259
 5410SOL    HW121638   8.747   5.030   0.414  1.6234  0.2459 -1.4098
 5410SOL    HW221639   8.630   5.027   0.318  0.9847 -0.6842 -0.6266
 5410SOL     MW21640   8.697   5.070   0.354  0.2181  0.2688 -0.2800
 5411SOL     OW21641   8.047   8.769   3.110 -0.0345  0.4337  0.6026
 5411SOL    HW121642   8.066   8.862   3.095 -0.4777  0.3841 -0.3673
 5411SOL    HW221643   7.964   8.754   3.065 -0.4029 -0.2449  1.4749
 5411SOL     MW21644   8.039   8.779   3.102 -0.1384  0.3405  0.5901
 5412SOL     OW21645   8.460   2.447   1.611  0.2963 -0.0973 -0.1422
 5412SOL    HW121646   8.463   2.524   1.668  2.6448  0.6656 -1.1764
 5412SOL    HW221647   8.434   2.375   1.669  0.8390  0.9715  1.4945
 5412SOL     MW21648   8.457   2.447   1.626  0.6664  0.1371 -0.0651
 5413SOL     OW21649   0.184   6.787   1.769 -0.8984  0.2919 -0.0869
 5413SOL    HW121650   0.090   6.805   1.778 -0.8881 -0.2476  1.3684
 5413SOL    HW221651   0.190   6.692   1.768 -0.4229  0.3280 -0.9906
 5413SOL     MW21652   0.173   6.777   1.770 -0.8362  0.2275 -0.0163
 5414SOL     OW21653   7.804   8.925   0.375  0.1288  0.5547  0.2978
 5414SOL    HW121654   7.776   8.834   0.388 -0.6054  0.8332  0.7297
 5414SOL    HW221655   7.889   8.918   0.333 -1.1236 -0.3537 -2.3441
 5414SOL     MW21656   7.811   8.913   0.371 -0.1255  0.4741  0.0149
 5415SOL     OW21657   8.543   1.797   1.400  0.1458  0.1923  0.4811
 5415SOL    HW121658   8.540   1.816   1.306 -0.9471  2.3710  0.8801
 5415SOL    HW221659   8.495   1.715   1.410 -1.3146  0.8612 -0.6888
 5415SOL     MW21660   8.537   1.789   1.389 -0.1810  0.5568  0.3824
 5416SOL     OW21661   6.530   7.851   0.984  0.2908  0.0159 -0.3537
 5416SOL    HW121662   6.438   7.877   0.975  0.1451 -0.8807 -1.7683
 5416SOL    HW221663   6.580   7.926   0.953  0.0171  0.2843 -0.1486
 5416SOL     MW21664   6.525   7.864   0.979  0.2371 -0.0645 -0.5085
 5417SOL     OW21665  10.112   1.517   1.443 -0.3474 -0.2360  0.1242
 5417SOL    HW121666  10.027   1.561   1.453 -0.5375 -0.5385 -0.1204
 5417SOL    HW221667  10.138   1.536   1.353  0.0763  0.2564  0.3472
 5417SOL     MW21668  10.104   1.525   1.433 -0.3175 -0.2117  0.1214
 5418SOL     OW21669   9.084   0.470  -0.007  0.7131  0.6985  0.0878
 5418SOL    HW121670   9.095   0.383   0.032  0.7119  0.6734  0.0319
 5418SOL    HW221671   9.149   0.524   0.038 -0.4726  1.0947  1.3912
 5418SOL     MW21672   9.094   0.466   0.004  0.5612  0.7460  0.2475
 5419SOL     OW21673   8.578   2.305   9.161 -0.2532 -0.0087 -0.6227
 5419SOL    HW121674   8.605   2.259   9.241 -0.3186 -0.5840 -0.9309
 5419SOL    HW221675   8.635   2.381   9.157 -0.0314 -0.1465 -0.1996
 5419SOL     MW21676   8.589   2.309   9.171 -0.2332 -0.1000 -0.6080
 5420SOL     OW21677   8.151   9.389   1.163 -0.2673 -0.0065  0.1143
 5420SOL    HW121678   8.175   9.460   1.222 -1.1544  1.0713 -0.7960
 5420SOL    HW221679   8.224   9.326   1.170  0.4000  0.8591  1.1182
 5420SOL     MW21680   8.164   9.390   1.171 -0.2954  0.2423  0.1263
 5421SOL     OW21681   6.848   4.535   2.208 -0.2855  0.6244 -0.2118
 5421SOL    HW121682   6.878   4.477   2.278  0.4328  1.1648 -0.0620
 5421SOL    HW221683   6.815   4.476   2.140  0.7083  0.0133 -0.1899
 5421SOL     MW21684   6.848   4.520   2.208 -0.0663  0.6154 -0.1899
 5422SOL     OW21685   9.121  10.002   2.593 -0.0517 -0.2548  0.6266
 5422SOL    HW121686   9.204   9.960   2.570 -0.8721 -2.3529  1.3360
 5422SOL    HW221687   9.146  10.074   2.650  1.5377  1.4543 -2.0039
 5422SOL     MW21688   9.135  10.006   2.597  0.0467 -0.3046  0.3807
 5423SOL     OW21689   7.346   0.347   1.844  0.1891 -0.2710 -0.3167
 5423SOL    HW121690   7.277   0.405   1.810 -0.2113  0.1927  1.2045
 5423SOL    HW221691   7.423   0.367   1.790 -0.4648  0.2990 -1.0565
 5423SOL     MW21692   7.347   0.357   1.833  0.0542 -0.1387 -0.2167
 5424SOL     OW21693  10.018   6.963   1.983 -0.5252 -0.1649 -0.4165
 5424SOL    HW121694  10.087   7.030   1.988 -0.4718 -0.2665  0.3064
 5424SOL    HW221695  10.040   6.901   2.052 -1.3269 -0.2159 -0.1965
 5424SOL     MW21696  10.030   6.964   1.992 -0.6210 -0.1845 -0.2958
 5425SOL     OW21697   0.386   6.083   0.972  0.0445 -0.0720  0.3922
 5425SOL    HW121698   0.342   6.141   1.034 -2.4000 -0.7523 -0.5806
 5425SOL    HW221699   0.416   6.009   1.025 -0.2367  0.2786  1.0572
 5425SOL     MW21700   0.384   6.081   0.987 -0.3044 -0.1142  0.3528
 5426SOL     OW21701   8.397   7.603   0.596 -0.1121 -0.0484  0.3389
 5426SOL    HW121702   8.352   7.556   0.665  0.4501  2.0073  2.2154
 5426SOL    HW221703   8.334   7.669   0.566 -0.1111 -0.4834 -0.6815
 5426SOL     MW21704   8.383   7.605   0.601 -0.0400  0.1591  0.4485
 5427SOL     OW21705   9.642   9.953   2.196 -0.5182 -0.3276  0.0410
 5427SOL    HW121706   9.710   9.988   2.254 -1.4206  1.0475  0.3069
 5427SOL    HW221707   9.609   9.875   2.242  0.1403 -0.3878  0.4157
 5427SOL     MW21708   9.646   9.947   2.209 -0.5494 -0.1593  0.1230
 5428SOL     OW21709  10.088   9.545   1.550  0.3326  0.0421  0.5685
 5428SOL    HW121710  10.061   9.549   1.642  0.9742  0.1044  0.7650
 5428SOL    HW221711  10.091   9.451   1.531 -1.2666  0.0557  0.1463
 5428SOL     MW21712  10.085   9.533   1.560  0.2100  0.0518  0.5396
 5429SOL     OW21713   8.550   8.728   0.225 -0.1545 -1.0957 -0.0750
 5429SOL    HW121714   8.517   8.688   0.306 -1.4282 -1.5288 -0.7797
 5429SOL    HW221715   8.558   8.656   0.164 -2.0835 -0.4010 -1.2392
 5429SOL     MW21716   8.547   8.714   0.228 -0.5645 -1.0622 -0.3142
 5430SOL     OW21717   6.770   7.845   2.356  0.1061  0.1343 -0.0058
 5430SOL    HW121718   6.777   7.753   2.383  0.6716 -0.0175 -0.6396
 5430SOL    HW221719   6.679   7.855   2.330  0.2265 -0.4731 -0.6911
 5430SOL     MW21720   6.759   7.834   2.356  0.1939  0.0371 -0.1747
 5431SOL     OW21721   7.184   2.999   9.373 -0.2880  0.0302  0.5146
 5431SOL    HW121722   7.154   3.072   9.319  0.3857 -1.4544 -2.0666
 5431SOL    HW221723   7.274   3.023   9.397  0.7796 -0.8018 -2.2529
 5431SOL     MW21724   7.192   3.011   9.369 -0.0651 -0.2664 -0.1701
 5432SOL     OW21725   9.941   7.367   0.780  0.1296 -0.0114 -0.3883
 5432SOL    HW121726   9.908   7.298   0.723 -0.8736 -0.5316  0.7770
 5432SOL    HW221727  10.036   7.354   0.781  0.0993 -0.4071 -1.3706
 5432SOL     MW21728   9.949   7.357   0.773 -0.0027 -0.1287 -0.3649
 5433SOL     OW21729   7.981   7.158   9.032  0.1003  0.2251  0.1726
 5433SOL    HW121730   7.996   7.106   8.953  0.9638 -1.3603  1.3094
 5433SOL    HW221731   8.068   7.175   9.066 -0.2818  0.0188  1.3014
 5433SOL     MW21732   7.994   7.153   9.026  0.1619 -0.0043  0.4626
 5434SOL     OW21733   9.540   5.690   1.929  0.6520 -0.1601 -0.0939
 5434SOL    HW121734   9.563   5.612   1.979  0.5815  0.6597  1.2500
 5434SOL    HW221735   9.455   5.670   1.891  0.7709 -0.8488 -0.0168
 5434SOL     MW21736   9.532   5.678   1.930  0.6582 -0.1433  0.0880
 5435SOL     OW21737   7.053   3.725   0.880 -0.1454  0.4555  0.1015
 5435SOL    HW121738   7.018   3.653   0.932 -0.3295  0.3944 -0.1040
 5435SOL    HW221739   7.016   3.712   0.793 -0.1925  0.8076  0.0675
 5435SOL     MW21740   7.044   3.714   0.875 -0.1750  0.4928  0.0709
 5436SOL     OW21741   7.394   4.518   9.422 -0.2768  0.4628  0.2602
 5436SOL    HW121742   7.312   4.482   9.389  0.0386 -0.9394  0.9157
 5436SOL    HW221743   7.445   4.441   9.447  1.1249  1.3261  0.1269
 5436SOL     MW21744   7.390   4.503   9.421 -0.0570  0.3938  0.3271
 5437SOL     OW21745   9.637   8.416   0.101  0.2043 -0.0767  0.3381
 5437SOL    HW121746   9.604   8.346   0.044 -1.5580  0.1965  0.9464
 5437SOL    HW221747   9.578   8.490   0.084  1.3543  0.9059  0.5285
 5437SOL     MW21748   9.625   8.416   0.091  0.1259  0.0841  0.4404
 5438SOL     OW21749   7.369   5.209   2.312 -0.4234  0.4515  0.1965
 5438SOL    HW121750   7.331   5.275   2.369 -0.8717  0.8460 -0.5507
 5438SOL    HW221751   7.418   5.258   2.246  0.2317 -0.0037  0.3287
 5438SOL     MW21752   7.371   5.223   2.310 -0.3969  0.4437  0.1178
 5439SOL     OW21753   7.611   0.329   3.047  0.2765 -0.0558 -0.1884
 5439SOL    HW121754   7.531   0.378   3.027  0.2310  0.5418  1.3213
 5439SOL    HW221755   7.582   0.238   3.054 -0.0009 -0.0425 -1.0440
 5439SOL     MW21756   7.597   0.323   3.045  0.2352  0.0224 -0.1047
 5440SOL     OW21757   8.403   5.006   2.968 -0.0320  0.0324 -0.2787
 5440SOL    HW121758   8.459   4.995   3.045  1.1969  0.3171 -1.0985
 5440SOL    HW221759   8.387   5.100   2.964 -1.1833 -0.1145  0.3408
 5440SOL     MW21760   8.408   5.017   2.978 -0.0221  0.0500 -0.3044
 5441SOL     OW21761   6.407   4.122   1.387 -0.2061 -0.4681  0.4511
 5441SOL    HW121762   6.400   4.087   1.298 -2.4150  0.2670  0.2684
 5441SOL    HW221763   6.382   4.048   1.443  1.5603 -1.0464  0.5348
 5441SOL     MW21764   6.403   4.108   1.383 -0.2628 -0.4480  0.4384
 5442SOL     OW21765   7.429   0.350   9.076 -0.1478  0.5034  0.0826
 5442SOL    HW121766   7.385   0.321   8.996 -0.1629 -0.8261  0.5452
 5442SOL    HW221767   7.434   0.271   9.131  1.8944  0.8458  0.4647
 5442SOL     MW21768   7.424   0.336   9.073  0.1117  0.3771  0.1907
 5443SOL     OW21769   7.757   5.562   2.471 -0.3164 -0.4216  0.3557
 5443SOL    HW121770   7.761   5.482   2.523 -1.2273 -0.7841 -0.1055
 5443SOL    HW221771   7.735   5.532   2.382 -0.2689  0.3026  0.0934
 5443SOL     MW21772   7.755   5.548   2.466 -0.4270 -0.3753  0.2631
 5444SOL     OW21773   9.230   1.336   0.822 -0.2201 -0.0795 -0.2587
 5444SOL    HW121774   9.194   1.285   0.749 -0.1893  1.2666 -1.2663
 5444SOL    HW221775   9.163   1.329   0.891 -0.4108 -1.0942 -0.5265
 5444SOL     MW21776   9.217   1.329   0.821 -0.2405 -0.0370 -0.4220
 5445SOL     OW21777   7.422   5.776   0.483 -0.5836  0.2190 -0.2810
 5445SOL    HW121778   7.393   5.867   0.476  3.0598  1.5008 -1.2577
 5445SOL    HW221779   7.432   5.761   0.577 -0.1834  1.2591 -0.1420
 5445SOL     MW21780   7.420   5.785   0.494 -0.0660  0.5163 -0.3883
 5446SOL     OW21781   7.224   0.793   2.650 -0.3545  0.2282 -0.2045
 5446SOL    HW121782   7.200   0.865   2.708 -0.1087 -0.0841  0.2859
 5446SOL    HW221783   7.292   0.745   2.698  1.4281  1.1975 -1.5980
 5446SOL     MW21784   7.230   0.796   2.663 -0.0948  0.3123 -0.3201
 5447SOL     OW21785   7.147   0.938   0.557  0.2195 -0.0252  0.2524
 5447SOL    HW121786   7.126   0.922   0.465 -0.1499 -1.9459  0.6230
 5447SOL    HW221787   7.175   1.029   0.559  0.4748  0.0058 -1.8008
 5447SOL     MW21788   7.148   0.948   0.545  0.2049 -0.2671  0.0370
 5448SOL     OW21789   9.950   8.527   1.034  0.0627 -0.1344  0.0204
 5448SOL    HW121790   9.861   8.556   1.014  0.3811  2.1312  1.5325
 5448SOL    HW221791   9.944   8.486   1.120  0.4878  0.1335  0.1840
 5448SOL     MW21792   9.938   8.525   1.043  0.1578  0.1899  0.2349
 5449SOL     OW21793   5.989   9.819   1.037  0.1949  0.2240  0.7066
 5449SOL    HW121794   5.927   9.749   1.057  0.3824 -0.2292 -0.2391
 5449SOL    HW221795   5.936   9.887   0.995  0.2302  0.0890  0.4397
 5449SOL     MW21796   5.974   9.818   1.034  0.2234  0.1487  0.5514
 5450SOL     OW21797   8.023   6.750   9.195  0.2138 -0.6110 -0.4215
 5450SOL    HW121798   8.116   6.737   9.216 -0.1426 -1.8941  0.4483
 5450SOL    HW221799   8.007   6.842   9.215  0.6416 -1.0334  2.2051
 5450SOL     MW21800   8.033   6.760   9.200  0.2230 -0.8293  0.0261
 5451SOL     OW21801   9.742   2.532   1.508  0.0071 -0.2322 -0.1854
 5451SOL    HW121802   9.741   2.590   1.584 -2.0908  0.5089 -0.6877
 5451SOL    HW221803   9.679   2.463   1.530 -0.6826  0.0365 -1.2398
 5451SOL     MW21804   9.733   2.531   1.520 -0.3497 -0.1029 -0.3847
 5452SOL     OW21805   7.529   5.105   1.913 -0.2328 -0.8951 -0.0219
 5452SOL    HW121806   7.619   5.135   1.902 -0.4735 -0.3001 -0.4425
 5452SOL    HW221807   7.533   5.010   1.902  0.4596 -0.9667  0.7700
 5452SOL     MW21808   7.541   5.097   1.910 -0.1750 -0.8281  0.0257
 5453SOL     OW21809   8.327   8.837   9.750 -0.5460  0.0980  0.1299
 5453SOL    HW121810   8.327   8.754   9.797 -0.9308  0.1657  0.2479
 5453SOL    HW221811   8.418   8.848   9.722 -0.0991  0.5019  1.6521
 5453SOL     MW21812   8.339   8.828   9.752 -0.5380  0.1583  0.3399
 5454SOL     OW21813   8.032   8.277   2.648  0.5463  0.4495 -0.6290
 5454SOL    HW121814   7.941   8.270   2.678  0.2657  1.3702 -1.2164
 5454SOL    HW221815   8.036   8.226   2.567  0.9416 -0.8212  0.1562
 5454SOL     MW21816   8.021   8.270   2.642  0.5610  0.4047 -0.6037
 5455SOL     OW21817   7.099   2.159   1.345  0.0130 -0.4463 -0.3198
 5455SOL    HW121818   7.011   2.123   1.331 -0.0086 -0.3200 -0.5070
 5455SOL    HW221819   7.084   2.238   1.397  0.0155 -0.4188 -0.3612
 5455SOL     MW21820   7.086   2.164   1.350  0.0105 -0.4266 -0.3491
 5456SOL     OW21821   9.438   6.641   2.218 -0.1564  0.7091 -0.5378
 5456SOL    HW121822   9.460   6.732   2.238  1.1575  0.3702 -0.3585
 5456SOL    HW221823   9.476   6.591   2.290  0.5409 -0.1096 -1.4484
 5456SOL     MW21824   9.446   6.646   2.230  0.1011  0.5609 -0.6314
 5457SOL     OW21825   9.838   2.138   1.435  0.0456 -0.1647  0.0851
 5457SOL    HW121826   9.920   2.183   1.458 -0.0380  0.3637 -0.6301
 5457SOL    HW221827   9.795   2.122   1.519  0.1038  1.0400  0.3617
 5457SOL     MW21828   9.843   2.141   1.448  0.0423  0.0572  0.0289
 5458SOL     OW21829   9.542   0.328   0.074 -0.1051 -0.1929  0.4245
 5458SOL    HW121830   9.585   0.242   0.073 -2.1246 -1.2549 -0.5554
 5458SOL    HW221831   9.454   0.310   0.105 -0.9028  1.3576 -0.8357
 5458SOL     MW21832   9.536   0.315   0.078 -0.4657 -0.1304  0.1378
 5459SOL     OW21833   9.482   3.444   1.582 -0.2592  0.2655  0.6321
 5459SOL    HW121834   9.570   3.430   1.618  0.7085 -0.4897 -1.8170
 5459SOL    HW221835   9.427   3.381   1.628  0.4568  0.6902  2.1532
 5459SOL     MW21836   9.486   3.434   1.593 -0.0436  0.2232  0.5133
 5460SOL     OW21837   9.903   3.611  10.128  0.4664 -0.8266 -0.5954
 5460SOL    HW121838   9.850   3.565  10.063  0.8108 -0.9359 -0.7995
 5460SOL    HW221839   9.993   3.602  10.097  0.4657  0.8068 -1.1612
 5460SOL     MW21840   9.908   3.604  10.116  0.5104 -0.6315 -0.6939
 5461SOL     OW21841  10.040   3.163   2.234  0.4946 -0.3594 -0.2321
 5461SOL    HW121842  10.012   3.112   2.309  0.1986  0.1632  0.0172
 5461SOL    HW221843   9.975   3.232   2.225  1.9899  1.2588  0.7518
 5461SOL     MW21844  10.028   3.165   2.242  0.6481 -0.0854 -0.0742
 5462SOL     OW21845   9.013   4.676   2.826 -0.4608  0.1483  0.5564
 5462SOL    HW121846   9.008   4.771   2.813 -2.7753 -0.0887 -0.6460
 5462SOL    HW221847   8.980   4.638   2.745 -1.2310 -1.6769  1.6523
 5462SOL     MW21848   9.008   4.683   2.814 -0.8556 -0.1157  0.5428
 5463SOL     OW21849   7.455   6.505   2.295 -0.2767 -0.0567  0.4372
 5463SOL    HW121850   7.461   6.484   2.388  1.5488 -0.4501  0.2608
 5463SOL    HW221851   7.495   6.431   2.250  0.7426  1.0306 -0.5314
 5463SOL     MW21852   7.461   6.493   2.301  0.0875  0.0321  0.2907
 5464SOL     OW21853   8.961   7.804   1.056  0.0981 -0.2892  0.0010
 5464SOL    HW121854   8.926   7.775   0.972 -0.1109  0.2124 -0.0873
 5464SOL    HW221855   8.972   7.723   1.106  0.3061 -0.6005 -0.5345
 5464SOL     MW21856   8.958   7.790   1.052  0.0980 -0.2649 -0.0789
 5465SOL     OW21857   8.982   7.432   2.706 -0.1532  0.4666  0.3417
 5465SOL    HW121858   8.941   7.456   2.623 -0.8457  1.0362  0.8304
 5465SOL    HW221859   8.953   7.500   2.767 -0.8514 -0.7369  1.4027
 5465SOL     MW21860   8.973   7.444   2.703 -0.3312  0.3854  0.5401
 5466SOL     OW21861   0.171   5.157   0.556  0.4614 -0.0498 -0.1750
 5466SOL    HW121862   0.201   5.180   0.468 -0.0253  1.0499 -0.0714
 5466SOL    HW221863   0.082   5.190   0.560 -0.3357 -2.0842 -0.0160
 5466SOL     MW21864   0.164   5.164   0.545  0.2971 -0.1695 -0.1414
 5467SOL     OW21865   0.085   9.587   0.372  0.3456  0.4447  0.5354
 5467SOL    HW121866   0.169   9.583   0.417  0.4421  1.6522  0.4878
 5467SOL    HW221867   0.103   9.635   0.291 -0.2669  0.1866  0.2410
 5467SOL     MW21868   0.098   9.593   0.367  0.2795  0.5662  0.4916
 5468SOL     OW21869   9.396   1.996   0.473  0.1306 -0.0890  0.4026
 5468SOL    HW121870   9.392   1.924   0.537  0.7284 -1.6259 -1.2200
 5468SOL    HW221871   9.329   1.975   0.409 -0.3175  1.3271  0.3814
 5468SOL     MW21872   9.387   1.984   0.473  0.1497 -0.1045  0.1921
 5469SOL     OW21873   7.470   3.410   1.550  0.3776  0.0539  0.0642
 5469SOL    HW121874   7.565   3.399   1.561  0.2850 -0.4159  0.4421
 5469SOL    HW221875   7.440   3.441   1.635  0.5876  3.1521 -0.8816
 5469SOL     MW21876   7.478   3.413   1.563  0.3927  0.3904 -0.0085
 5470SOL     OW21877   9.408   3.459   0.071  0.1369  0.1764  0.3084
 5470SOL    HW121878   9.350   3.440  -0.003  0.7503 -1.4382  0.2077
 5470SOL    HW221879   9.379   3.399   0.140 -0.1590  1.3756  1.2524
 5470SOL     MW21880   9.397   3.449   0.070  0.1775  0.1232  0.4163
 5471SOL     OW21881   8.624   8.300   1.583 -0.2536 -0.2291  0.4897
 5471SOL    HW121882   8.699   8.320   1.527  0.4826 -0.5599  1.3248
 5471SOL    HW221883   8.555   8.360   1.553  0.4462  0.3182 -0.0727
 5471SOL     MW21884   8.625   8.311   1.572 -0.0698 -0.2014  0.5246
 5472SOL     OW21885   6.061  10.154   1.335  0.0720 -0.0531 -0.0611
 5472SOL    HW121886   6.045  10.060   1.341 -0.0941 -0.0538 -0.4805
 5472SOL    HW221887   6.118  10.173   1.409  0.3166 -0.5298 -0.1188
 5472SOL     MW21888   6.066  10.144   1.345  0.0821 -0.1142 -0.1222
 5473SOL     OW21889   7.429   3.085   9.442  0.1946 -0.2431  0.2644
 5473SOL    HW121890   7.417   3.085   9.537 -1.0152 -0.3946  0.1308
 5473SOL    HW221891   7.404   3.173   9.414  0.5465 -0.1996  0.0872
 5473SOL     MW21892   7.424   3.096   9.450  0.0848 -0.2569  0.2246
 5474SOL     OW21893   9.096   5.774   2.681 -0.7064  0.2617  0.4068
 5474SOL    HW121894   9.095   5.836   2.608 -0.2596 -0.6677 -0.4077
 5474SOL    HW221895   9.162   5.709   2.656  0.7386  0.8557  2.4207
 5474SOL     MW21896   9.104   5.774   2.668 -0.4642  0.2188  0.5603
 5475SOL     OW21897   8.313   3.554   0.148  0.5013  0.4423  0.1382
 5475SOL    HW121898   8.223   3.530   0.168  0.5080  0.2290 -0.0918
 5475SOL    HW221899   8.357   3.554   0.232  0.6284 -0.8572  0.0833
 5475SOL     MW21900   8.307   3.551   0.161  0.5184  0.2487  0.1017
 5476SOL     OW21901   7.217   2.805   9.836 -0.0928  0.1340 -0.1377
 5476SOL    HW121902   7.257   2.769   9.757  2.1310  0.8977  0.5488
 5476SOL    HW221903   7.140   2.750   9.852 -2.0053  1.3539 -4.0277
 5476SOL     MW21904   7.212   2.793   9.828 -0.0530  0.3880 -0.5478
 5477SOL     OW21905   7.762   0.049   0.432 -0.4289  0.5891  0.2046
 5477SOL    HW121906   7.768   0.116   0.500 -0.2595  0.5797  0.2006
 5477SOL    HW221907   7.810   0.085   0.358 -0.6503  0.6166  0.0753
 5477SOL     MW21908   7.769   0.062   0.431 -0.4356  0.5914  0.1876
 5478SOL     OW21909   7.265   8.406  10.141  0.0080  0.8237 -0.6884
 5478SOL    HW121910   7.265   8.422  10.047 -0.7078  2.8637 -0.3834
 5478SOL    HW221911   7.225   8.484  10.179 -0.3193 -0.2337  1.2741
 5478SOL     MW21912   7.260   8.418  10.134 -0.1255  0.9494 -0.3982
 5479SOL     OW21913   8.677   3.606   1.840  0.5019 -0.7851  0.3082
 5479SOL    HW121914   8.746   3.622   1.905  0.0167 -0.1217  0.6661
 5479SOL    HW221915   8.670   3.689   1.792 -0.1406 -0.8087  0.3599
 5479SOL     MW21916   8.685   3.619   1.842  0.3575 -0.7032  0.3606
 5480SOL     OW21917  10.029   3.172   0.662  0.6289  0.4951 -0.4962
 5480SOL    HW121918  10.062   3.171   0.572  0.3937  1.3107 -0.6029
 5480SOL    HW221919  10.003   3.263   0.677  0.2535  0.2768  0.2485
 5480SOL     MW21920  10.030   3.184   0.653  0.5507  0.5716 -0.4146
 5481SOL     OW21921   9.981   1.116   9.970 -0.2925  0.0242  0.1287
 5481SOL    HW121922  10.065   1.161   9.981 -1.0792  1.1189  2.5647
 5481SOL    HW221923   9.990   1.035  10.020 -0.3367 -0.3958 -0.5338
 5481SOL     MW21924   9.993   1.112   9.978 -0.3989  0.1105  0.3557
 5482SOL     OW21925   7.778   7.376   2.338 -0.4772  0.6438  0.2680
 5482SOL    HW121926   7.871   7.363   2.320 -0.5755 -1.5668  0.9702
 5482SOL    HW221927   7.776   7.411   2.427 -0.3027  0.5708  0.3025
 5482SOL     MW21928   7.790   7.379   2.347 -0.4675  0.3515  0.3623
 5483SOL     OW21929   9.950   9.644   2.152  0.3105 -0.4771  0.4173
 5483SOL    HW121930   9.983   9.709   2.089 -0.1310 -2.0484 -1.5417
 5483SOL    HW221931   9.857   9.638   2.132  0.1490 -0.9728  1.2896
 5483SOL     MW21932   9.942   9.652   2.141  0.2333 -0.7417  0.2782
 5484SOL     OW21933   7.795   7.644   2.785  0.2371  0.0199 -0.6328
 5484SOL    HW121934   7.857   7.689   2.727 -0.5292 -0.6077 -2.0066
 5484SOL    HW221935   7.718   7.700   2.786 -0.3480 -0.7312 -1.5506
 5484SOL     MW21936   7.793   7.657   2.777  0.0641 -0.1566 -0.9261
 5485SOL     OW21937   7.511   6.901   9.722  0.0717  0.0893  0.3331
 5485SOL    HW121938   7.480   6.847   9.650  0.0480 -0.7207  0.9409
 5485SOL    HW221939   7.454   6.879   9.795 -0.4225  1.4929  0.4056
 5485SOL     MW21940   7.500   6.891   9.722  0.0054  0.1653  0.4202
 5486SOL     OW21941   0.429   0.270   1.023 -0.0998  0.3064 -0.0181
 5486SOL    HW121942   0.366   0.228   0.964  0.1539  0.1117 -0.1505
 5486SOL    HW221943   0.512   0.227   1.004 -0.1357 -0.2151  0.9268
 5486SOL     MW21944   0.431   0.259   1.013 -0.0719  0.2147  0.0859
 5487SOL     OW21945  10.029   0.836   2.013  0.1094 -0.3680 -0.2616
 5487SOL    HW121946  10.099   0.900   2.028 -0.7041 -0.0183  2.6991
 5487SOL    HW221947   9.949   0.887   2.024 -0.5527 -1.6554  1.2388
 5487SOL     MW21948  10.028   0.851   2.017 -0.0795 -0.4881  0.3095
 5488SOL     OW21949   8.414   6.848   9.778  0.9789  0.0756  0.2275
 5488SOL    HW121950   8.379   6.788   9.713  2.7628 -0.1267 -0.5921
 5488SOL    HW221951   8.416   6.933   9.734  0.8700  0.2258  0.5103
 5488SOL     MW21952   8.410   6.851   9.764  1.1933  0.0689  0.1588
 5489SOL     OW21953   8.988   9.729   1.056 -0.4558 -0.1971 -0.0626
 5489SOL    HW121954   8.897   9.750   1.076 -0.3861  0.0676 -0.0175
 5489SOL    HW221955   9.016   9.798   0.996  0.0063  0.2867  0.6948
 5489SOL     MW21956   8.980   9.741   1.051 -0.3877 -0.1013  0.0401
 5490SOL     OW21957   7.945   7.406   9.923 -0.0478  0.6442  0.2555
 5490SOL    HW121958   7.988   7.407  10.008 -0.6737  1.1058  0.5716
 5490SOL    HW221959   8.012   7.373   9.863 -0.8080 -3.7727  1.5157
 5490SOL     MW21960   7.959   7.402   9.926 -0.2252  0.1379  0.4573
 5491SOL     OW21961   8.838   1.719   2.164  0.4075  0.2280 -0.1150
 5491SOL    HW121962   8.762   1.687   2.214  1.6282 -0.3045  1.4807
 5491SOL    HW221963   8.854   1.807   2.198  1.1460 -0.0731  0.3334
 5491SOL     MW21964   8.830   1.726   2.175  0.6583  0.1213  0.1467
 5492SOL     OW21965   8.995   8.540   2.466 -0.2007  0.0687 -0.1883
 5492SOL    HW121966   8.979   8.471   2.531  1.0112 -0.3954 -0.3697
 5492SOL    HW221967   9.022   8.492   2.387 -0.6440  0.6894 -0.7296
 5492SOL     MW21968   8.996   8.525   2.464 -0.1023  0.0888 -0.2808
 5493SOL     OW21969   9.377   9.021   0.389 -0.3656 -0.0603 -0.1012
 5493SOL    HW121970   9.388   9.116   0.386 -0.9694 -0.0063 -1.1652
 5493SOL    HW221971   9.342   9.004   0.476  0.8171  0.5639  0.5165
 5493SOL     MW21972   9.374   9.031   0.399 -0.2915  0.0265 -0.1583
 5494SOL     OW21973   8.238   7.331   1.522  0.4272  0.2760 -0.0397
 5494SOL    HW121974   8.268   7.283   1.599 -0.3592  3.3672  2.3876
 5494SOL    HW221975   8.295   7.408   1.518 -0.5111  0.9460 -1.6975
 5494SOL     MW21976   8.249   7.335   1.531  0.2065  0.7575  0.0588
 5495SOL     OW21977   7.968   0.697   0.783 -0.4076 -0.3147 -0.4850
 5495SOL    HW121978   8.035   0.741   0.835  0.1105 -0.3842 -1.0789
 5495SOL    HW221979   7.991   0.604   0.787 -1.2456 -0.4973  0.4057
 5495SOL     MW21980   7.979   0.690   0.790 -0.4486 -0.3470 -0.4470
 5496SOL     OW21981   7.502   5.727   9.936 -0.1016  0.0082  0.2959
 5496SOL    HW121982   7.560   5.693   9.868 -1.1742  1.4232 -1.4265
 5496SOL    HW221983   7.554   5.794   9.981  1.0218 -1.7597  1.7614
 5496SOL     MW21984   7.516   5.731   9.933 -0.0951 -0.0370  0.2630
 5497SOL     OW21985   0.187   8.187   1.408 -0.4607 -0.1733 -0.3944
 5497SOL    HW121986   0.140   8.209   1.488 -0.2544 -0.0814 -0.2975
 5497SOL    HW221987   0.198   8.270   1.363 -2.8932 -0.5291 -1.8184
 5497SOL     MW21988   0.182   8.200   1.413 -0.7457 -0.2071 -0.5643
 5498SOL     OW21989   9.053   6.832   9.522  0.0872 -0.0668 -0.3343
 5498SOL    HW121990   9.014   6.793   9.444 -0.0053 -1.1347  0.2197
 5498SOL    HW221991   9.118   6.768   9.551  1.3930  1.1251 -0.5432
 5498SOL     MW21992   9.056   6.819   9.516  0.2425 -0.0509 -0.2901
 5499SOL     OW21993   8.693   7.351   9.344 -0.1583 -0.5352 -0.0377
 5499SOL    HW121994   8.695   7.421   9.410 -1.6227  0.3654 -0.9001
 5499SOL    HW221995   8.691   7.398   9.260  0.1221 -1.6490 -0.6830
 5499SOL     MW21996   8.693   7.366   9.342 -0.3098 -0.5625 -0.2307
 5500SOL     OW21997   9.114   9.913   9.386 -0.0036 -0.6312  0.7222
 5500SOL    HW121998   9.067   9.898   9.304 -0.4824 -2.4190  1.2735
 5500SOL    HW221999   9.057   9.875   9.453  0.7446  0.0841  1.7965
 5500SOL     MW22000   9.100   9.906   9.384  0.0309 -0.7685  0.9303
  10.16400  10.16400  10.16400
