Single water molecule with virtual site
22000
    1HO4     OW    1   5.076   5.047   5.076
    1HO4    HW1    2   5.152   5.106   5.076
    1HO4    HW2    3   5.000   5.106   5.076
    1HO4     MW    4   5.076   5.047   5.076
    2HO4     OW    5   1.731   7.940   6.161
    2HO4    HW1    6   1.734   8.025   6.206
    2HO4    HW2    7   1.743   7.876   6.231
    2HO4     MW    8   1.731   7.940   6.161
    3HO4     OW    9   6.378   4.963   1.811
    3HO4    HW1   10   6.443   4.940   1.878
    3HO4    HW2   11   6.383   5.059   1.805
    3HO4     MW   12   6.378   4.963   1.811
    4HO4     OW   13   1.899   3.430   9.061
    4HO4    HW1   14   1.876   3.392   8.976
    4HO4    HW2   15   1.910   3.354   9.119
    4HO4     MW   16   1.899   3.430   9.061
    5HO4     OW   17   4.467   0.095   9.183
    5HO4    HW1   18   4.378   0.129   9.165
    5HO4    HW2   19   4.477   0.022   9.122
    5HO4     MW   20   4.467   0.095   9.183
    6HO4     OW   21   4.323   6.958   6.511
    6HO4    HW1   22   4.351   6.927   6.425
    6HO4    HW2   23   4.250   7.018   6.492
    6HO4     MW   24   4.323   6.958   6.511
    7HO4     OW   25   9.948   8.988   7.959
    7HO4    HW1   26   9.870   9.003   8.014
    7HO4    HW2   27   9.986   8.907   7.993
    7HO4     MW   28   9.948   8.988   7.959
    8HO4     OW   29   1.938   0.251   2.566
    8HO4    HW1   30   1.943   0.286   2.477
    8HO4    HW2   31   1.973   0.321   2.621
    8HO4     MW   32   1.938   0.251   2.566
    9HO4     OW   33   6.271   9.889   5.653
    9HO4    HW1   34   6.326   9.852   5.583
    9HO4    HW2   35   6.325   9.882   5.732
    9HO4     MW   36   6.271   9.889   5.653
   10HO4     OW   37   6.979   0.720   6.780
   10HO4    HW1   38   7.053   0.675   6.822
   10HO4    HW2   39   6.984   0.694   6.688
   10HO4     MW   40   6.979   0.720   6.780
   11HO4     OW   41   3.276   6.761   9.113
   11HO4    HW1   42   3.275   6.791   9.204
   11HO4    HW2   43   3.335   6.823   9.068
   11HO4     MW   44   3.276   6.761   9.113
   12HO4     OW   45   1.091   5.378   6.666
   12HO4    HW1   46   1.159   5.423   6.717
   12HO4    HW2   47   1.102   5.413   6.577
   12HO4     MW   48   1.091   5.378   6.666
   13HO4     OW   49   5.385   5.770   2.555
   13HO4    HW1   50   5.441   5.778   2.632
   13HO4    HW2   51   5.445   5.781   2.480
   13HO4     MW   52   5.385   5.770   2.555
   14HO4     OW   53   3.386   8.876   0.697
   14HO4    HW1   54   3.338   8.792   0.694
   14HO4    HW2   55   3.420   8.880   0.786
   14HO4     MW   56   3.386   8.876   0.697
   15HO4     OW   57   8.760   8.523   7.519
   15HO4    HW1   58   8.770   8.542   7.426
   15HO4    HW2   59   8.850   8.516   7.552
   15HO4     MW   60   8.760   8.523   7.519
   16HO4     OW   61   8.109   2.115   6.322
   16HO4    HW1   62   8.085   2.055   6.251
   16HO4    HW2   63   8.085   2.069   6.403
   16HO4     MW   64   8.109   2.115   6.322
   17HO4     OW   65   0.300   8.904   1.156
   17HO4    HW1   66   0.349   8.893   1.237
   17HO4    HW2   67   0.367   8.915   1.088
   17HO4     MW   68   0.300   8.904   1.156
   18HO4     OW   69   0.614   5.179   8.493
   18HO4    HW1   70   0.590   5.271   8.506
   18HO4    HW2   71   0.551   5.147   8.427
   18HO4     MW   72   0.614   5.179   8.493
   19HO4     OW   73   1.677   1.706   3.883
   19HO4    HW1   74   1.584   1.716   3.906
   19HO4    HW2   75   1.676   1.659   3.800
   19HO4     MW   76   1.677   1.706   3.883
   20HO4     OW   77   4.598   7.173   9.849
   20HO4    HW1   78   4.657   7.228   9.901
   20HO4    HW2   79   4.574   7.101   9.909
   20HO4     MW   80   4.598   7.173   9.849
   21HO4     OW   81   9.548   5.325   6.149
   21HO4    HW1   82   9.595   5.364   6.223
   21HO4    HW2   83   9.464   5.373   6.145
   21HO4     MW   84   9.548   5.325   6.149
   22HO4     OW   85   2.274   3.844   9.332
   22HO4    HW1   86   2.321   3.888   9.260
   22HO4    HW2   87   2.285   3.903   9.407
   22HO4     MW   88   2.274   3.844   9.332
   23HO4     OW   89   4.727   3.241   0.372
   23HO4    HW1   90   4.735   3.336   0.385
   23HO4    HW2   91   4.641   3.219   0.409
   23HO4     MW   92   4.727   3.241   0.372
   24HO4     OW   93   3.191   9.697   1.042
   24HO4    HW1   94   3.284   9.687   1.063
   24HO4    HW2   95   3.180   9.791   1.027
   24HO4     MW   96   3.191   9.697   1.042
   25HO4     OW   97   4.105   1.454   8.200
   25HO4    HW1   98   4.161   1.530   8.183
   25HO4    HW2   99   4.077   1.464   8.292
   25HO4     MW  100   4.105   1.454   8.200
   26HO4     OW  101   9.319   6.022   0.360
   26HO4    HW1  102   9.235   6.050   0.322
   26HO4    HW2  103   9.384   6.040   0.291
   26HO4     MW  104   9.319   6.022   0.360
   27HO4     OW  105   6.217   0.460   4.502
   27HO4    HW1  106   6.164   0.384   4.475
   27HO4    HW2  107   6.301   0.447   4.456
   27HO4     MW  108   6.217   0.460   4.502
   28HO4     OW  109   4.715   3.326   6.653
   28HO4    HW1  110   4.764   3.294   6.577
   28HO4    HW2  111   4.708   3.250   6.712
   28HO4     MW  112   4.715   3.326   6.653
   29HO4     OW  113   0.691   0.727   7.747
   29HO4    HW1  114   0.661   0.641   7.776
   29HO4    HW2  115   0.746   0.759   7.819
   29HO4     MW  116   0.691   0.727   7.747
   30HO4     OW  117   4.579   8.716   2.847
   30HO4    HW1  118   4.630   8.682   2.773
   30HO4    HW2  119   4.634   8.700   2.924
   30HO4     MW  120   4.579   8.716   2.847
   31HO4     OW  121   3.076   9.803   2.689
   31HO4    HW1  122   3.063   9.830   2.781
   31HO4    HW2  123   2.986   9.795   2.654
   31HO4     MW  124   3.076   9.803   2.689
   32HO4     OW  125   6.361   4.477   2.703
   32HO4    HW1  126   6.443   4.427   2.702
   32HO4    HW2  127   6.357   4.519   2.617
   32HO4     MW  128   6.361   4.477   2.703
   33HO4     OW  129   0.808   6.038   9.449
   33HO4    HW1  130   0.819   6.091   9.369
   33HO4    HW2  131   0.881   6.063   9.505
   33HO4     MW  132   0.808   6.038   9.449
   34HO4     OW  133   9.323   7.162   1.682
   34HO4    HW1  134   9.379   7.175   1.605
   34HO4    HW2  135   9.266   7.089   1.657
   34HO4     MW  136   9.323   7.162   1.682
   35HO4     OW  137   1.632   1.371   8.959
   35HO4    HW1  138   1.684   1.315   8.902
   35HO4    HW2  139   1.647   1.460   8.926
   35HO4     MW  140   1.632   1.371   8.959
   36HO4     OW  141   6.142   1.381   5.528
   36HO4    HW1  142   6.097   1.332   5.597
   36HO4    HW2  143   6.132   1.326   5.449
   36HO4     MW  144   6.142   1.381   5.528
   37HO4     OW  145   8.159   7.470   6.049
   37HO4    HW1  146   8.250   7.498   6.060
   37HO4    HW2  147   8.141   7.485   5.956
   37HO4     MW  148   8.159   7.470   6.049
   38HO4     OW  149   1.475   0.763   8.397
   38HO4    HW1  150   1.436   0.847   8.424
   38HO4    HW2  151   1.473   0.766   8.301
   38HO4     MW  152   1.475   0.763   8.397
   39HO4     OW  153   9.014   9.889   5.319
   39HO4    HW1  154   9.029   9.980   5.348
   39HO4    HW2  155   9.056   9.886   5.232
   39HO4     MW  156   9.014   9.889   5.319
   40HO4     OW  157   6.659   1.306   3.649
   40HO4    HW1  158   6.670   1.363   3.725
   40HO4    HW2  159   6.661   1.366   3.574
   40HO4     MW  160   6.659   1.306   3.649
   41HO4     OW  161   0.836   5.096   7.701
   41HO4    HW1  162   0.876   5.090   7.789
   41HO4    HW2  163   0.911   5.100   7.641
   41HO4     MW  164   0.836   5.096   7.701
   42HO4     OW  165   7.758   1.526  10.140
   42HO4    HW1  166   7.810   1.482  10.208
   42HO4    HW2  167   7.765   1.467  10.064
   42HO4     MW  168   7.758   1.526  10.140
   43HO4     OW  169   7.743   1.892   5.837
   43HO4    HW1  170   7.758   1.984   5.862
   43HO4    HW2  171   7.769   1.842   5.915
   43HO4     MW  172   7.743   1.892   5.837
   44HO4     OW  173   9.670   7.619   0.492
   44HO4    HW1  174   9.693   7.698   0.543
   44HO4    HW2  175   9.695   7.640   0.402
   44HO4     MW  176   9.670   7.619   0.492
   45HO4     OW  177   4.108   9.219   8.287
   45HO4    HW1  178   4.183   9.200   8.229
   45HO4    HW2  179   4.126   9.169   8.366
   45HO4     MW  180   4.108   9.219   8.287
   46HO4     OW  181   1.203   2.321   3.132
   46HO4    HW1  182   1.280   2.330   3.189
   46HO4    HW2  183   1.235   2.270   3.057
   46HO4     MW  184   1.203   2.321   3.132
   47HO4     OW  185   9.908   0.658   1.779
   47HO4    HW1  186   9.940   0.654   1.688
   47HO4    HW2  187   9.958   0.731   1.818
   47HO4     MW  188   9.908   0.658   1.779
   48HO4     OW  189   9.837   2.176   4.450
   48HO4    HW1  190   9.903   2.245   4.449
   48HO4    HW2  191   9.870   2.111   4.512
   48HO4     MW  192   9.837   2.176   4.450
   49HO4     OW  193   7.867   7.596   0.598
   49HO4    HW1  194   7.827   7.679   0.626
   49HO4    HW2  195   7.961   7.607   0.616
   49HO4     MW  196   7.867   7.596   0.598
   50HO4     OW  197   5.526   0.583   4.040
   50HO4    HW1  198   5.584   0.608   3.968
   50HO4    HW2  199   5.484   0.666   4.066
   50HO4     MW  200   5.526   0.583   4.040
   51HO4     OW  201   2.528   9.300   6.027
   51HO4    HW1  202   2.451   9.334   5.981
   51HO4    HW2  203   2.514   9.322   6.119
   51HO4     MW  204   2.528   9.300   6.027
   52HO4     OW  205   0.306   2.360   4.465
   52HO4    HW1  206   0.343   2.446   4.446
   52HO4    HW2  207   0.272   2.367   4.555
   52HO4     MW  208   0.306   2.360   4.465
   53HO4     OW  209   5.208   5.998   0.657
   53HO4    HW1  210   5.234   5.978   0.747
   53HO4    HW2  211   5.215   6.094   0.651
   53HO4     MW  212   5.208   5.998   0.657
   54HO4     OW  213  10.109   0.506   8.876
   54HO4    HW1  214  10.131   0.439   8.810
   54HO4    HW2  215  10.031   0.470   8.920
   54HO4     MW  216  10.109   0.506   8.876
   55HO4     OW  217   0.900   0.222   8.831
   55HO4    HW1  218   0.925   0.176   8.912
   55HO4    HW2  219   0.923   0.160   8.760
   55HO4     MW  220   0.900   0.222   8.831
   56HO4     OW  221   2.204   8.232   1.876
   56HO4    HW1  222   2.194   8.326   1.863
   56HO4    HW2  223   2.298   8.216   1.865
   56HO4     MW  224   2.204   8.232   1.876
   57HO4     OW  225   4.802   1.804   9.724
   57HO4    HW1  226   4.708   1.816   9.744
   57HO4    HW2  227   4.847   1.838   9.802
   57HO4     MW  228   4.802   1.804   9.724
   58HO4     OW  229   7.742   2.867   7.503
   58HO4    HW1  230   7.648   2.850   7.517
   58HO4    HW2  231   7.762   2.939   7.564
   58HO4     MW  232   7.742   2.867   7.503
   59HO4     OW  233   8.622   7.238   8.744
   59HO4    HW1  234   8.614   7.232   8.649
   59HO4    HW2  235   8.618   7.146   8.774
   59HO4     MW  236   8.622   7.238   8.744
   60HO4     OW  237   9.354   1.255   5.803
   60HO4    HW1  238   9.309   1.173   5.784
   60HO4    HW2  239   9.322   1.281   5.890
   60HO4     MW  240   9.354   1.255   5.803
   61HO4     OW  241   7.116   9.894   9.912
   61HO4    HW1  242   7.168   9.815   9.894
   61HO4    HW2  243   7.180   9.958   9.944
   61HO4     MW  244   7.116   9.894   9.912
   62HO4     OW  245   6.245   9.964   8.255
   62HO4    HW1  246   6.285   9.920   8.180
   62HO4    HW2  247   6.199  10.040   8.217
   62HO4     MW  248   6.245   9.964   8.255
   63HO4     OW  249   3.603   4.442   0.785
   63HO4    HW1  250   3.633   4.518   0.836
   63HO4    HW2  251   3.669   4.374   0.803
   63HO4     MW  252   3.603   4.442   0.785
   64HO4     OW  253   6.551   6.612   1.930
   64HO4    HW1  254   6.579   6.704   1.928
   64HO4    HW2  255   6.524   6.593   1.840
   64HO4     MW  256   6.551   6.612   1.930
   65HO4     OW  257   4.760   8.003   2.027
   65HO4    HW1  258   4.694   7.934   2.016
   65HO4    HW2  259   4.812   7.974   2.103
   65HO4     MW  260   4.760   8.003   2.027
   66HO4     OW  261   5.207   7.327   8.612
   66HO4    HW1  262   5.189   7.410   8.657
   66HO4    HW2  263   5.251   7.273   8.679
   66HO4     MW  264   5.207   7.327   8.612
   67HO4     OW  265   1.853   7.780   3.325
   67HO4    HW1  266   1.769   7.741   3.298
   67HO4    HW2  267   1.831   7.832   3.402
   67HO4     MW  268   1.853   7.780   3.325
   68HO4     OW  269   5.029   5.676   6.530
   68HO4    HW1  270   5.024   5.771   6.515
   68HO4    HW2  271   5.028   5.668   6.626
   68HO4     MW  272   5.029   5.676   6.530
   69HO4     OW  273   8.880   9.986   1.158
   69HO4    HW1  274   8.912   9.947   1.077
   69HO4    HW2  275   8.933   9.945   1.227
   69HO4     MW  276   8.880   9.986   1.158
   70HO4     OW  277   0.726   2.117   1.010
   70HO4    HW1  278   0.765   2.126   1.098
   70HO4    HW2  279   0.644   2.167   1.015
   70HO4     MW  280   0.726   2.117   1.010
   71HO4     OW  281   9.636   6.813   9.053
   71HO4    HW1  282   9.614   6.776   8.967
   71HO4    HW2  283   9.731   6.827   9.049
   71HO4     MW  284   9.636   6.813   9.053
   72HO4     OW  285   8.776   0.587   5.053
   72HO4    HW1  286   8.752   0.607   5.144
   72HO4    HW2  287   8.868   0.613   5.046
   72HO4     MW  288   8.776   0.587   5.053
   73HO4     OW  289   7.957   4.613   2.922
   73HO4    HW1  290   7.923   4.696   2.886
   73HO4    HW2  291   8.046   4.607   2.887
   73HO4     MW  292   7.957   4.613   2.922
   74HO4     OW  293   2.216   8.830   6.274
   74HO4    HW1  294   2.251   8.805   6.188
   74HO4    HW2  295   2.183   8.747   6.311
   74HO4     MW  296   2.216   8.830   6.274
   75HO4     OW  297   6.158   9.366   8.258
   75HO4    HW1  298   6.162   9.450   8.211
   75HO4    HW2  299   6.179   9.301   8.191
   75HO4     MW  300   6.158   9.366   8.258
   76HO4     OW  301   5.695   9.858   7.462
   76HO4    HW1  302   5.744   9.862   7.544
   76HO4    HW2  303   5.760   9.877   7.393
   76HO4     MW  304   5.695   9.858   7.462
   77HO4     OW  305   9.997   5.540   2.020
   77HO4    HW1  306  10.021   5.556   1.928
   77HO4    HW2  307   9.975   5.627   2.055
   77HO4     MW  308   9.997   5.540   2.020
   78HO4     OW  309   6.736   2.880   3.200
   78HO4    HW1  310   6.681   2.843   3.130
   78HO4    HW2  311   6.687   2.861   3.280
   78HO4     MW  312   6.736   2.880   3.200
   79HO4     OW  313   9.185   8.298   2.148
   79HO4    HW1  314   9.210   8.328   2.061
   79HO4    HW2  315   9.165   8.378   2.197
   79HO4     MW  316   9.185   8.298   2.148
   80HO4     OW  317   4.309   9.443   8.710
   80HO4    HW1  318   4.364   9.521   8.702
   80HO4    HW2  319   4.266   9.452   8.795
   80HO4     MW  320   4.309   9.443   8.710
   81HO4     OW  321   2.110   7.415   8.205
   81HO4    HW1  322   2.033   7.421   8.148
   81HO4    HW2  323   2.095   7.480   8.274
   81HO4     MW  324   2.110   7.415   8.205
   82HO4     OW  325   7.838   3.491   6.382
   82HO4    HW1  326   7.909   3.540   6.425
   82HO4    HW2  327   7.870   3.478   6.292
   82HO4     MW  328   7.838   3.491   6.382
   83HO4     OW  329   5.679   0.257   1.978
   83HO4    HW1  330   5.624   0.184   1.948
   83HO4    HW2  331   5.643   0.334   1.933
   83HO4     MW  332   5.679   0.257   1.978
   84HO4     OW  333   8.937   5.437   2.929
   84HO4    HW1  334   8.901   5.487   3.003
   84HO4    HW2  335   8.947   5.348   2.963
   84HO4     MW  336   8.937   5.437   2.929
   85HO4     OW  337   8.216   0.656   4.589
   85HO4    HW1  338   8.175   0.732   4.547
   85HO4    HW2  339   8.266   0.693   4.663
   85HO4     MW  340   8.216   0.656   4.589
   86HO4     OW  341   2.001   9.917   1.800
   86HO4    HW1  342   2.087   9.954   1.823
   86HO4    HW2  343   2.020   9.827   1.771
   86HO4     MW  344   2.001   9.917   1.800
   87HO4     OW  345   1.798   9.774   3.866
   87HO4    HW1  346   1.809   9.821   3.949
   87HO4    HW2  347   1.886   9.742   3.845
   87HO4     MW  348   1.798   9.774   3.866
   88HO4     OW  349   6.129   0.968   6.162
   88HO4    HW1  350   6.212   0.936   6.198
   88HO4    HW2  351   6.141   0.964   6.066
   88HO4     MW  352   6.129   0.968   6.162
   89HO4     OW  353   1.158   0.081   7.116
   89HO4    HW1  354   1.141   0.138   7.041
   89HO4    HW2  355   1.154   0.139   7.193
   89HO4     MW  356   1.158   0.081   7.116
   90HO4     OW  357   0.238   6.873   0.897
   90HO4    HW1  358   0.259   6.966   0.887
   90HO4    HW2  359   0.270   6.833   0.816
   90HO4     MW  360   0.238   6.873   0.897
   91HO4     OW  361   7.633   7.554   7.861
   91HO4    HW1  362   7.580   7.479   7.832
   91HO4    HW2  363   7.613   7.623   7.796
   91HO4     MW  364   7.633   7.554   7.861
   92HO4     OW  365   2.484   0.261   5.976
   92HO4    HW1  366   2.465   0.347   5.937
   92HO4    HW2  367   2.397   0.228   6.003
   92HO4     MW  368   2.484   0.261   5.976
   93HO4     OW  369   0.807   2.316   3.461
   93HO4    HW1  370   0.787   2.242   3.519
   93HO4    HW2  371   0.869   2.280   3.397
   93HO4     MW  372   0.807   2.316   3.461
   94HO4     OW  373   0.974   5.049   6.216
   94HO4    HW1  374   1.034   5.115   6.178
   94HO4    HW2  375   0.984   5.060   6.311
   94HO4     MW  376   0.974   5.049   6.216
   95HO4     OW  377   5.345   1.929   2.637
   95HO4    HW1  378   5.397   1.999   2.596
   95HO4    HW2  379   5.297   1.974   2.708
   95HO4     MW  380   5.345   1.929   2.637
   96HO4     OW  381   5.456   9.982   5.110
   96HO4    HW1  382   5.493  10.031   5.036
   96HO4    HW2  383   5.493  10.025   5.187
   96HO4     MW  384   5.456   9.982   5.110
   97HO4     OW  385   8.244   9.591   8.257
   97HO4    HW1  386   8.315   9.578   8.194
   97HO4    HW2  387   8.288   9.604   8.342
   97HO4     MW  388   8.244   9.591   8.257
   98HO4     OW  389   3.563   6.972   4.931
   98HO4    HW1  390   3.643   6.956   4.880
   98HO4    HW2  391   3.493   6.932   4.879
   98HO4     MW  392   3.563   6.972   4.931
   99HO4     OW  393   5.374   8.671   4.089
   99HO4    HW1  394   5.291   8.657   4.135
   99HO4    HW2  395   5.363   8.625   4.005
   99HO4     MW  396   5.374   8.671   4.089
  100HO4     OW  397   7.453   4.543   6.233
  100HO4    HW1  398   7.483   4.633   6.246
  100HO4    HW2  399   7.515   4.507   6.168
  100HO4     MW  400   7.453   4.543   6.233
  101HO4     OW  401   7.494   7.556   4.554
  101HO4    HW1  402   7.564   7.604   4.509
  101HO4    HW2  403   7.447   7.510   4.483
  101HO4     MW  404   7.494   7.556   4.554
  102HO4     OW  405   3.837   0.876   9.990
  102HO4    HW1  406   3.828   0.831  10.074
  102HO4    HW2  407   3.782   0.824   9.929
  102HO4     MW  408   3.837   0.876   9.990
  103HO4     OW  409   7.545   9.796   6.389
  103HO4    HW1  410   7.527   9.833   6.476
  103HO4    HW2  411   7.465   9.812   6.339
  103HO4     MW  412   7.545   9.796   6.389
  104HO4     OW  413   4.981   9.066   0.990
  104HO4    HW1  414   4.948   8.998   1.050
  104HO4    HW2  415   4.944   9.043   0.905
  104HO4     MW  416   4.981   9.066   0.990
  105HO4     OW  417   8.106   9.942   0.635
  105HO4    HW1  418   8.127   9.990   0.716
  105HO4    HW2  419   8.124  10.005   0.564
  105HO4     MW  420   8.106   9.942   0.635
  106HO4     OW  421   8.273   2.650   4.757
  106HO4    HW1  422   8.320   2.644   4.841
  106HO4    HW2  423   8.182   2.667   4.782
  106HO4     MW  424   8.273   2.650   4.757
  107HO4     OW  425   2.481   2.780   5.637
  107HO4    HW1  426   2.540   2.770   5.562
  107HO4    HW2  427   2.538   2.767   5.714
  107HO4     MW  428   2.481   2.780   5.637
  108HO4     OW  429   3.960   3.641   3.376
  108HO4    HW1  430   4.006   3.694   3.441
  108HO4    HW2  431   4.007   3.557   3.375
  108HO4     MW  432   3.960   3.641   3.376
  109HO4     OW  433   3.150   2.955   5.460
  109HO4    HW1  434   3.122   2.923   5.374
  109HO4    HW2  435   3.098   2.904   5.523
  109HO4     MW  436   3.150   2.955   5.460
  110HO4     OW  437   2.987   1.868   7.976
  110HO4    HW1  438   2.953   1.939   8.031
  110HO4    HW2  439   2.908   1.827   7.939
  110HO4     MW  440   2.987   1.868   7.976
  111HO4     OW  441   9.253   7.575   5.477
  111HO4    HW1  442   9.179   7.568   5.539
  111HO4    HW2  443   9.230   7.650   5.421
  111HO4     MW  444   9.253   7.575   5.477
  112HO4     OW  445   4.047   7.081   3.206
  112HO4    HW1  446   3.983   7.010   3.193
  112HO4    HW2  447   4.068   7.077   3.300
  112HO4     MW  448   4.047   7.081   3.206
  113HO4     OW  449   1.337   8.355   1.105
  113HO4    HW1  450   1.283   8.382   1.030
  113HO4    HW2  451   1.317   8.420   1.173
  113HO4     MW  452   1.337   8.355   1.105
  114HO4     OW  453   8.085   4.172   8.152
  114HO4    HW1  454   8.169   4.219   8.159
  114HO4    HW2  455   8.089   4.130   8.066
  114HO4     MW  456   8.085   4.172   8.152
  115HO4     OW  457   8.593   0.715   7.911
  115HO4    HW1  458   8.614   0.775   7.840
  115HO4    HW2  459   8.500   0.693   7.897
  115HO4     MW  460   8.593   0.715   7.911
  116HO4     OW  461   9.899   2.293   6.655
  116HO4    HW1  462   9.806   2.287   6.678
  116HO4    HW2  463   9.932   2.367   6.707
  116HO4     MW  464   9.899   2.293   6.655
  117HO4     OW  465   4.899   0.891   0.201
  117HO4    HW1  466   4.830   0.860   0.260
  117HO4    HW2  467   4.873   0.858   0.114
  117HO4     MW  468   4.899   0.891   0.201
  118HO4     OW  469   4.106   6.823   5.995
  118HO4    HW1  470   4.054   6.768   6.054
  118HO4    HW2  471   4.179   6.767   5.967
  118HO4     MW  472   4.106   6.823   5.995
  119HO4     OW  473   7.577   7.380   2.785
  119HO4    HW1  474   7.609   7.416   2.869
  119HO4    HW2  475   7.657   7.368   2.733
  119HO4     MW  476   7.577   7.380   2.785
  120HO4     OW  477   9.956   9.185   5.071
  120HO4    HW1  478   9.903   9.217   5.145
  120HO4    HW2  479   9.910   9.218   4.993
  120HO4     MW  480   9.956   9.185   5.071
  121HO4     OW  481   8.360   1.096   4.281
  121HO4    HW1  482   8.433   1.092   4.218
  121HO4    HW2  483   8.293   1.037   4.245
  121HO4     MW  484   8.360   1.096   4.281
  122HO4     OW  485   7.715   0.876   5.852
  122HO4    HW1  486   7.716   0.907   5.943
  122HO4    HW2  487   7.759   0.946   5.803
  122HO4     MW  488   7.715   0.876   5.852
  123HO4     OW  489   1.283   8.014   4.950
  123HO4    HW1  490   1.241   7.931   4.978
  123HO4    HW2  491   1.232   8.041   4.873
  123HO4     MW  492   1.283   8.014   4.950
  124HO4     OW  493   4.703   8.401   0.709
  124HO4    HW1  494   4.708   8.338   0.782
  124HO4    HW2  495   4.697   8.346   0.631
  124HO4     MW  496   4.703   8.401   0.709
  125HO4     OW  497   8.917   6.162   6.305
  125HO4    HW1  498   8.891   6.238   6.252
  125HO4    HW2  499   8.869   6.088   6.267
  125HO4     MW  500   8.917   6.162   6.305
  126HO4     OW  501   1.713   9.356   8.280
  126HO4    HW1  502   1.741   9.305   8.356
  126HO4    HW2  503   1.743   9.305   8.204
  126HO4     MW  504   1.713   9.356   8.280
  127HO4     OW  505   8.435   4.356   3.583
  127HO4    HW1  506   8.482   4.313   3.510
  127HO4    HW2  507   8.367   4.409   3.539
  127HO4     MW  508   8.435   4.356   3.583
  128HO4     OW  509   6.430   0.439   5.592
  128HO4    HW1  510   6.508   0.494   5.606
  128HO4    HW2  511   6.387   0.478   5.515
  128HO4     MW  512   6.430   0.439   5.592
  129HO4     OW  513   0.580   8.939   5.114
  129HO4    HW1  514   0.574   8.893   5.030
  129HO4    HW2  515   0.510   9.004   5.111
  129HO4     MW  516   0.580   8.939   5.114
  130HO4     OW  517   4.062   6.394   6.802
  130HO4    HW1  518   4.043   6.464   6.739
  130HO4    HW2  519   4.158   6.391   6.808
  130HO4     MW  520   4.062   6.394   6.802
  131HO4     OW  521   0.305   0.562   4.374
  131HO4    HW1  522   0.332   0.511   4.297
  131HO4    HW2  523   0.383   0.567   4.429
  131HO4     MW  524   0.305   0.562   4.374
  132HO4     OW  525   3.246   1.229   1.064
  132HO4    HW1  526   3.280   1.212   0.975
  132HO4    HW2  527   3.323   1.218   1.121
  132HO4     MW  528   3.246   1.229   1.064
  133HO4     OW  529   0.023   5.058   7.508
  133HO4    HW1  530   0.061   5.029   7.592
  133HO4    HW2  531  -0.001   4.976   7.464
  133HO4     MW  532   0.023   5.058   7.508
  134HO4     OW  533   9.847   1.459   1.954
  134HO4    HW1  534   9.881   1.479   1.866
  134HO4    HW2  535   9.917   1.406   1.994
  134HO4     MW  536   9.847   1.459   1.954
  135HO4     OW  537   0.395   4.766   0.228
  135HO4    HW1  538   0.412   4.856   0.199
  135HO4    HW2  539   0.477   4.719   0.213
  135HO4     MW  540   0.395   4.766   0.228
  136HO4     OW  541   1.050   5.697   2.968
  136HO4    HW1  542   1.055   5.710   3.064
  136HO4    HW2  543   1.064   5.785   2.932
  136HO4     MW  544   1.050   5.697   2.968
  137HO4     OW  545   3.718   4.285   3.721
  137HO4    HW1  546   3.699   4.299   3.628
  137HO4    HW2  547   3.811   4.308   3.730
  137HO4     MW  548   3.718   4.285   3.721
  138HO4     OW  549   2.278   8.333   5.066
  138HO4    HW1  550   2.216   8.272   5.026
  138HO4    HW2  551   2.333   8.278   5.122
  138HO4     MW  552   2.278   8.333   5.066
  139HO4     OW  553   9.329   5.694   9.776
  139HO4    HW1  554   9.374   5.622   9.731
  139HO4    HW2  555   9.359   5.773   9.732
  139HO4     MW  556   9.329   5.694   9.776
  140HO4     OW  557   4.290   2.804   4.554
  140HO4    HW1  558   4.287   2.864   4.628
  140HO4    HW2  559   4.378   2.764   4.560
  140HO4     MW  560   4.290   2.804   4.554
  141HO4     OW  561   2.785   3.290   9.650
  141HO4    HW1  562   2.813   3.249   9.568
  141HO4    HW2  563   2.778   3.217   9.712
  141HO4     MW  564   2.785   3.290   9.650
  142HO4     OW  565   6.241   7.236   1.865
  142HO4    HW1  566   6.161   7.245   1.918
  142HO4    HW2  567   6.309   7.281   1.915
  142HO4     MW  568   6.241   7.236   1.865
  143HO4     OW  569   6.627   9.502   7.198
  143HO4    HW1  570   6.567   9.518   7.124
  143HO4    HW2  571   6.575   9.525   7.276
  143HO4     MW  572   6.627   9.502   7.198
  144HO4     OW  573   2.156   1.509   7.397
  144HO4    HW1  574   2.168   1.596   7.359
  144HO4    HW2  575   2.119   1.525   7.484
  144HO4     MW  576   2.156   1.509   7.397
  145HO4     OW  577   4.603   6.905   1.108
  145HO4    HW1  578   4.637   6.942   1.190
  145HO4    HW2  579   4.671   6.924   1.043
  145HO4     MW  580   4.603   6.905   1.108
  146HO4     OW  581   2.179   4.267   4.025
  146HO4    HW1  582   2.083   4.280   4.028
  146HO4    HW2  583   2.199   4.256   3.932
  146HO4     MW  584   2.179   4.267   4.025
  147HO4     OW  585   2.378   9.926   4.203
  147HO4    HW1  586   2.401  10.013   4.168
  147HO4    HW2  587   2.299   9.901   4.153
  147HO4     MW  588   2.378   9.926   4.203
  148HO4     OW  589   1.162   7.829   9.149
  148HO4    HW1  590   1.225   7.767   9.187
  148HO4    HW2  591   1.165   7.905   9.208
  148HO4     MW  592   1.162   7.829   9.149
  149HO4     OW  593   5.857   7.122   3.282
  149HO4    HW1  594   5.814   7.133   3.368
  149HO4    HW2  595   5.851   7.209   3.242
  149HO4     MW  596   5.857   7.122   3.282
  150HO4     OW  597   7.823   1.382   5.233
  150HO4    HW1  598   7.827   1.468   5.191
  150HO4    HW2  599   7.730   1.358   5.230
  150HO4     MW  600   7.823   1.382   5.233
  151HO4     OW  601   1.512   9.491   1.645
  151HO4    HW1  602   1.586   9.546   1.673
  151HO4    HW2  603   1.508   9.504   1.550
  151HO4     MW  604   1.512   9.491   1.645
  152HO4     OW  605   3.416   9.693   5.586
  152HO4    HW1  606   3.500   9.652   5.609
  152HO4    HW2  607   3.404   9.673   5.493
  152HO4     MW  608   3.416   9.693   5.586
  153HO4     OW  609   7.387   1.337   9.285
  153HO4    HW1  610   7.394   1.430   9.262
  153HO4    HW2  611   7.402   1.335   9.380
  153HO4     MW  612   7.387   1.337   9.285
  154HO4     OW  613   3.207   2.793   2.187
  154HO4    HW1  614   3.245   2.836   2.264
  154HO4    HW2  615   3.239   2.844   2.113
  154HO4     MW  616   3.207   2.793   2.187
  155HO4     OW  617   0.090   1.819   2.223
  155HO4    HW1  618   0.072   1.891   2.161
  155HO4    HW2  619   0.171   1.846   2.268
  155HO4     MW  620   0.090   1.819   2.223
  156HO4     OW  621   4.944   3.226   3.263
  156HO4    HW1  622   4.885   3.213   3.189
  156HO4    HW2  623   4.886   3.235   3.339
  156HO4     MW  624   4.944   3.226   3.263
  157HO4     OW  625   8.597   4.644   7.559
  157HO4    HW1  626   8.513   4.635   7.513
  157HO4    HW2  627   8.649   4.702   7.504
  157HO4     MW  628   8.597   4.644   7.559
  158HO4     OW  629   5.573   1.015   2.020
  158HO4    HW1  630   5.642   0.963   1.978
  158HO4    HW2  631   5.619   1.087   2.062
  158HO4     MW  632   5.573   1.015   2.020
  159HO4     OW  633   5.708   9.146   5.306
  159HO4    HW1  634   5.782   9.207   5.306
  159HO4    HW2  635   5.698   9.120   5.398
  159HO4     MW  636   5.708   9.146   5.306
  160HO4     OW  637   1.794   0.186   9.634
  160HO4    HW1  638   1.866   0.241   9.602
  160HO4    HW2  639   1.837   0.118   9.687
  160HO4     MW  640   1.794   0.186   9.634
  161HO4     OW  641   5.166   0.640   8.119
  161HO4    HW1  642   5.228   0.709   8.146
  161HO4    HW2  643   5.082   0.686   8.109
  161HO4     MW  644   5.166   0.640   8.119
  162HO4     OW  645   8.222   1.382   6.699
  162HO4    HW1  646   8.298   1.333   6.666
  162HO4    HW2  647   8.258   1.467   6.726
  162HO4     MW  648   8.222   1.382   6.699
  163HO4     OW  649   8.569   2.116  10.047
  163HO4    HW1  650   8.632   2.128   9.975
  163HO4    HW2  651   8.621   2.130  10.127
  163HO4     MW  652   8.569   2.116  10.047
  164HO4     OW  653   4.774   8.519   0.255
  164HO4    HW1  654   4.835   8.554   0.189
  164HO4    HW2  655   4.757   8.429   0.226
  164HO4     MW  656   4.774   8.519   0.255
  165HO4     OW  657   6.276   2.875   2.060
  165HO4    HW1  658   6.297   2.941   2.127
  165HO4    HW2  659   6.207   2.917   2.007
  165HO4     MW  660   6.276   2.875   2.060
  166HO4     OW  661   5.539   0.292   0.838
  166HO4    HW1  662   5.507   0.241   0.913
  166HO4    HW2  663   5.576   0.226   0.779
  166HO4     MW  664   5.539   0.292   0.838
  167HO4     OW  665   6.228   5.109   3.255
  167HO4    HW1  666   6.194   5.074   3.339
  167HO4    HW2  667   6.150   5.145   3.211
  167HO4     MW  668   6.228   5.109   3.255
  168HO4     OW  669   1.404   0.686   5.008
  168HO4    HW1  670   1.369   0.747   4.943
  168HO4    HW2  671   1.327   0.636   5.037
  168HO4     MW  672   1.404   0.686   5.008
  169HO4     OW  673   8.134   0.228   2.320
  169HO4    HW1  674   8.057   0.284   2.308
  169HO4    HW2  675   8.121   0.185   2.405
  169HO4     MW  676   8.134   0.228   2.320
  170HO4     OW  677   6.712   7.703   0.953
  170HO4    HW1  678   6.792   7.649   0.944
  170HO4    HW2  679   6.708   7.752   0.871
  170HO4     MW  680   6.712   7.703   0.953
  171HO4     OW  681   8.602   2.560   7.604
  171HO4    HW1  682   8.642   2.603   7.681
  171HO4    HW2  683   8.642   2.604   7.529
  171HO4     MW  684   8.602   2.560   7.604
  172HO4     OW  685   6.817   9.298   4.027
  172HO4    HW1  686   6.763   9.331   4.098
  172HO4    HW2  687   6.755   9.276   3.957
  172HO4     MW  688   6.817   9.298   4.027
  173HO4     OW  689   8.262   5.998   4.211
  173HO4    HW1  690   8.312   6.080   4.222
  173HO4    HW2  691   8.188   6.008   4.272
  173HO4     MW  692   8.262   5.998   4.211
  174HO4     OW  693   8.755   5.092   4.972
  174HO4    HW1  694   8.850   5.077   4.971
  174HO4    HW2  695   8.742   5.161   5.039
  174HO4     MW  696   8.755   5.092   4.972
  175HO4     OW  697  10.073   6.916   8.117
  175HO4    HW1  698  10.008   6.924   8.188
  175HO4    HW2  699  10.156   6.943   8.157
  175HO4     MW  700  10.073   6.916   8.117
  176HO4     OW  701   7.709   3.021   9.061
  176HO4    HW1  702   7.664   2.989   9.140
  176HO4    HW2  703   7.668   2.973   8.989
  176HO4     MW  704   7.709   3.021   9.061
  177HO4     OW  705   7.348   1.356   5.935
  177HO4    HW1  706   7.320   1.448   5.937
  177HO4    HW2  707   7.385   1.340   6.023
  177HO4     MW  708   7.348   1.356   5.935
  178HO4     OW  709   4.987   4.567   0.380
  178HO4    HW1  710   4.904   4.586   0.425
  178HO4    HW2  711   4.997   4.472   0.387
  178HO4     MW  712   4.987   4.567   0.380
  179HO4     OW  713   3.199   7.475   6.968
  179HO4    HW1  714   3.239   7.561   6.951
  179HO4    HW2  715   3.110   7.483   6.935
  179HO4     MW  716   3.199   7.475   6.968
  180HO4     OW  717   5.741   6.215   1.345
  180HO4    HW1  718   5.706   6.303   1.358
  180HO4    HW2  719   5.754   6.181   1.434
  180HO4     MW  720   5.741   6.215   1.345
  181HO4     OW  721   6.835   7.335   8.743
  181HO4    HW1  722   6.870   7.371   8.826
  181HO4    HW2  723   6.887   7.379   8.675
  181HO4     MW  724   6.835   7.335   8.743
  182HO4     OW  725   2.402   4.174   2.095
  182HO4    HW1  726   2.332   4.144   2.036
  182HO4    HW2  727   2.378   4.139   2.181
  182HO4     MW  728   2.402   4.174   2.095
  183HO4     OW  729   3.109   2.034   2.948
  183HO4    HW1  730   3.021   2.023   2.911
  183HO4    HW2  731   3.094   2.046   3.042
  183HO4     MW  732   3.109   2.034   2.948
  184HO4     OW  733   7.706   4.572   4.610
  184HO4    HW1  734   7.626   4.598   4.563
  184HO4    HW2  735   7.766   4.543   4.541
  184HO4     MW  736   7.706   4.572   4.610
  185HO4     OW  737   6.525   3.802   3.778
  185HO4    HW1  738   6.584   3.877   3.768
  185HO4    HW2  739   6.510   3.771   3.688
  185HO4     MW  740   6.525   3.802   3.778
  186HO4     OW  741   6.435   3.781   6.283
  186HO4    HW1  742   6.405   3.720   6.350
  186HO4    HW2  743   6.364   3.782   6.217
  186HO4     MW  744   6.435   3.781   6.283
  187HO4     OW  745   0.973   7.636   6.161
  187HO4    HW1  746   1.006   7.583   6.089
  187HO4    HW2  747   0.963   7.724   6.124
  187HO4     MW  748   0.973   7.636   6.161
  188HO4     OW  749   2.865   6.022   7.560
  188HO4    HW1  750   2.889   5.974   7.640
  188HO4    HW2  751   2.884   6.114   7.581
  188HO4     MW  752   2.865   6.022   7.560
  189HO4     OW  753   9.896   7.619   6.282
  189HO4    HW1  754   9.947   7.562   6.223
  189HO4    HW2  755   9.804   7.594   6.265
  189HO4     MW  756   9.896   7.619   6.282
  190HO4     OW  757   1.629   4.023   2.679
  190HO4    HW1  758   1.597   3.934   2.698
  190HO4    HW2  759   1.715   4.008   2.638
  190HO4     MW  760   1.629   4.023   2.679
  191HO4     OW  761   4.239   2.645   2.825
  191HO4    HW1  762   4.174   2.627   2.894
  191HO4    HW2  763   4.194   2.622   2.743
  191HO4     MW  764   4.239   2.645   2.825
  192HO4     OW  765   7.259   9.704   0.554
  192HO4    HW1  766   7.307   9.678   0.634
  192HO4    HW2  767   7.227   9.621   0.517
  192HO4     MW  768   7.259   9.704   0.554
  193HO4     OW  769   0.363   9.345   0.407
  193HO4    HW1  770   0.294   9.368   0.470
  193HO4    HW2  771   0.445   9.368   0.452
  193HO4     MW  772   0.363   9.345   0.407
  194HO4     OW  773   4.052   8.580   2.992
  194HO4    HW1  774   4.016   8.518   3.056
  194HO4    HW2  775   4.023   8.666   3.024
  194HO4     MW  776   4.052   8.580   2.992
  195HO4     OW  777   6.301   5.570   4.165
  195HO4    HW1  778   6.332   5.620   4.241
  195HO4    HW2  779   6.329   5.622   4.089
  195HO4     MW  780   6.301   5.570   4.165
  196HO4     OW  781   7.613   2.716   2.753
  196HO4    HW1  782   7.568   2.637   2.786
  196HO4    HW2  783   7.695   2.681   2.715
  196HO4     MW  784   7.613   2.716   2.753
  197HO4     OW  785   0.216   5.584   7.515
  197HO4    HW1  786   0.227   5.534   7.434
  197HO4    HW2  787   0.189   5.519   7.580
  197HO4     MW  788   0.216   5.584   7.515
  198HO4     OW  789   1.284   1.800   1.975
  198HO4    HW1  790   1.297   1.723   1.919
  198HO4    HW2  791   1.192   1.793   2.003
  198HO4     MW  792   1.284   1.800   1.975
  199HO4     OW  793   8.634   0.811   0.017
  199HO4    HW1  794   8.663   0.844   0.103
  199HO4    HW2  795   8.680   0.728   0.007
  199HO4     MW  796   8.634   0.811   0.017
  200HO4     OW  797   1.232   6.550   2.981
  200HO4    HW1  798   1.248   6.548   3.076
  200HO4    HW2  799   1.231   6.457   2.955
  200HO4     MW  800   1.232   6.550   2.981
  201HO4     OW  801   4.480   1.164   3.889
  201HO4    HW1  802   4.398   1.170   3.940
  201HO4    HW2  803   4.452   1.175   3.798
  201HO4     MW  804   4.480   1.164   3.889
  202HO4     OW  805   0.223   5.920   9.953
  202HO4    HW1  806   0.194   5.938   9.863
  202HO4    HW2  807   0.275   5.840   9.946
  202HO4     MW  808   0.223   5.920   9.953
  203HO4     OW  809   7.495   3.833   4.743
  203HO4    HW1  810   7.551   3.817   4.667
  203HO4    HW2  811   7.538   3.906   4.789
  203HO4     MW  812   7.495   3.833   4.743
  204HO4     OW  813   9.021   4.053   7.846
  204HO4    HW1  814   8.977   4.069   7.931
  204HO4    HW2  815   8.948   4.031   7.787
  204HO4     MW  816   9.021   4.053   7.846
  205HO4     OW  817   6.623   0.723   1.180
  205HO4    HW1  818   6.606   0.636   1.217
  205HO4    HW2  819   6.584   0.720   1.092
  205HO4     MW  820   6.623   0.723   1.180
  206HO4     OW  821   9.815   2.670   9.794
  206HO4    HW1  822   9.811   2.574   9.791
  206HO4    HW2  823   9.803   2.692   9.887
  206HO4     MW  824   9.815   2.670   9.794
  207HO4     OW  825   2.684   3.744   5.929
  207HO4    HW1  826   2.741   3.697   5.991
  207HO4    HW2  827   2.731   3.826   5.911
  207HO4     MW  828   2.684   3.744   5.929
  208HO4     OW  829   6.258   5.939   2.025
  208HO4    HW1  830   6.232   5.869   2.086
  208HO4    HW2  831   6.277   5.893   1.943
  208HO4     MW  832   6.258   5.939   2.025
  209HO4     OW  833   9.843   9.697   2.533
  209HO4    HW1  834   9.927   9.734   2.564
  209HO4    HW2  835   9.797   9.773   2.496
  209HO4     MW  836   9.843   9.697   2.533
  210HO4     OW  837   8.453   1.004   5.772
  210HO4    HW1  838   8.387   1.036   5.710
  210HO4    HW2  839   8.530   1.058   5.754
  210HO4     MW  840   8.453   1.004   5.772
  211HO4     OW  841   7.295   3.583   4.423
  211HO4    HW1  842   7.249   3.620   4.499
  211HO4    HW2  843   7.249   3.620   4.347
  211HO4     MW  844   7.295   3.583   4.423
  212HO4     OW  845   1.578   0.421   6.590
  212HO4    HW1  846   1.535   0.505   6.606
  212HO4    HW2  847   1.563   0.403   6.497
  212HO4     MW  848   1.578   0.421   6.590
  213HO4     OW  849   4.218   5.736   5.171
  213HO4    HW1  850   4.271   5.786   5.108
  213HO4    HW2  851   4.206   5.796   5.245
  213HO4     MW  852   4.218   5.736   5.171
  214HO4     OW  853   5.542   9.612   5.783
  214HO4    HW1  854   5.462   9.659   5.810
  214HO4    HW2  855   5.511   9.549   5.718
  214HO4     MW  856   5.542   9.612   5.783
  215HO4     OW  857   1.754   8.799   4.361
  215HO4    HW1  858   1.765   8.828   4.452
  215HO4    HW2  859   1.823   8.734   4.348
  215HO4     MW  860   1.754   8.799   4.361
  216HO4     OW  861   5.238   5.067   0.863
  216HO4    HW1  862   5.197   5.055   0.949
  216HO4    HW2  863   5.164   5.080   0.803
  216HO4     MW  864   5.238   5.067   0.863
  217HO4     OW  865   6.616   5.925   0.335
  217HO4    HW1  866   6.672   5.881   0.270
  217HO4    HW2  867   6.637   6.018   0.326
  217HO4     MW  868   6.616   5.925   0.335
  218HO4     OW  869   2.182   0.997   9.636
  218HO4    HW1  870   2.114   0.930   9.648
  218HO4    HW2  871   2.140   1.078   9.667
  218HO4     MW  872   2.182   0.997   9.636
  219HO4     OW  873   1.056   7.521   1.174
  219HO4    HW1  874   1.077   7.479   1.258
  219HO4    HW2  875   1.081   7.456   1.108
  219HO4     MW  876   1.056   7.521   1.174
  220HO4     OW  877   0.383   2.369   3.760
  220HO4    HW1  878   0.437   2.375   3.839
  220HO4    HW2  879   0.370   2.274   3.747
  220HO4     MW  880   0.383   2.369   3.760
  221HO4     OW  881   8.430   8.869   5.676
  221HO4    HW1  882   8.506   8.889   5.621
  221HO4    HW2  883   8.462   8.878   5.766
  221HO4     MW  884   8.430   8.869   5.676
  222HO4     OW  885   9.552   6.010   9.239
  222HO4    HW1  886   9.546   6.043   9.329
  222HO4    HW2  887   9.527   6.086   9.184
  222HO4     MW  888   9.552   6.010   9.239
  223HO4     OW  889   8.185   0.235   5.808
  223HO4    HW1  890   8.206   0.329   5.815
  223HO4    HW2  891   8.125   0.230   5.734
  223HO4     MW  892   8.185   0.235   5.808
  224HO4     OW  893   4.494   2.144   2.462
  224HO4    HW1  894   4.504   2.051   2.483
  224HO4    HW2  895   4.566   2.163   2.402
  224HO4     MW  896   4.494   2.144   2.462
  225HO4     OW  897   6.091   5.500   0.249
  225HO4    HW1  898   6.073   5.554   0.171
  225HO4    HW2  899   6.063   5.554   0.323
  225HO4     MW  900   6.091   5.500   0.249
  226HO4     OW  901   3.238   2.428   6.744
  226HO4    HW1  902   3.175   2.378   6.689
  226HO4    HW2  903   3.255   2.369   6.818
  226HO4     MW  904   3.238   2.428   6.744
  227HO4     OW  905   4.576   0.076   3.946
  227HO4    HW1  906   4.528  -0.006   3.939
  227HO4    HW2  907   4.527   0.137   3.890
  227HO4     MW  908   4.576   0.076   3.946
  228HO4     OW  909   2.713   9.325   2.522
  228HO4    HW1  910   2.699   9.373   2.440
  228HO4    HW2  911   2.689   9.388   2.591
  228HO4     MW  912   2.713   9.325   2.522
  229HO4     OW  913   3.080   9.667   9.599
  229HO4    HW1  914   3.067   9.607   9.672
  229HO4    HW2  915   3.045   9.620   9.523
  229HO4     MW  916   3.080   9.667   9.599
  230HO4     OW  917   2.166   3.162   0.019
  230HO4    HW1  918   2.128   3.109   0.089
  230HO4    HW2  919   2.146   3.114  -0.062
  230HO4     MW  920   2.166   3.162   0.019
  231HO4     OW  921   8.723   4.755   2.296
  231HO4    HW1  922   8.700   4.837   2.340
  231HO4    HW2  923   8.703   4.772   2.203
  231HO4     MW  924   8.723   4.755   2.296
  232HO4     OW  925   2.069   3.689   6.178
  232HO4    HW1  926   2.109   3.634   6.110
  232HO4    HW2  927   2.046   3.771   6.133
  232HO4     MW  928   2.069   3.689   6.178
  233HO4     OW  929   5.549   2.542   5.391
  233HO4    HW1  930   5.566   2.541   5.296
  233HO4    HW2  931   5.496   2.622   5.404
  233HO4     MW  932   5.549   2.542   5.391
  234HO4     OW  933   3.775   1.323   3.620
  234HO4    HW1  934   3.724   1.359   3.692
  234HO4    HW2  935   3.725   1.346   3.541
  234HO4     MW  936   3.775   1.323   3.620
  235HO4     OW  937   9.511   5.819   4.464
  235HO4    HW1  938   9.571   5.868   4.520
  235HO4    HW2  939   9.564   5.796   4.387
  235HO4     MW  940   9.511   5.819   4.464
  236HO4     OW  941   5.887   9.328   8.541
  236HO4    HW1  942   5.861   9.310   8.632
  236HO4    HW2  943   5.804   9.342   8.495
  236HO4     MW  944   5.887   9.328   8.541
  237HO4     OW  945   1.891   2.326   6.834
  237HO4    HW1  946   1.879   2.266   6.759
  237HO4    HW2  947   1.972   2.297   6.876
  237HO4     MW  948   1.891   2.326   6.834
  238HO4     OW  949   6.011   7.243   8.031
  238HO4    HW1  950   5.974   7.289   7.956
  238HO4    HW2  951   5.980   7.293   8.107
  238HO4     MW  952   6.011   7.243   8.031
  239HO4     OW  953   5.943   0.912   3.978
  239HO4    HW1  954   5.910   0.959   4.055
  239HO4    HW2  955   5.933   0.974   3.906
  239HO4     MW  956   5.943   0.912   3.978
  240HO4     OW  957   4.801   8.032   3.671
  240HO4    HW1  958   4.775   7.970   3.603
  240HO4    HW2  959   4.857   7.981   3.731
  240HO4     MW  960   4.801   8.032   3.671
  241HO4     OW  961   5.989   2.737   9.610
  241HO4    HW1  962   5.917   2.673   9.600
  241HO4    HW2  963   5.967   2.784   9.690
  241HO4     MW  964   5.989   2.737   9.610
  242HO4     OW  965   7.301   5.832   2.216
  242HO4    HW1  966   7.248   5.835   2.137
  242HO4    HW2  967   7.241   5.860   2.286
  242HO4     MW  968   7.301   5.832   2.216
  243HO4     OW  969   9.801   7.269   0.319
  243HO4    HW1  970   9.776   7.233   0.233
  243HO4    HW2  971   9.826   7.192   0.371
  243HO4     MW  972   9.801   7.269   0.319
  244HO4     OW  973   1.934   8.164   2.777
  244HO4    HW1  974   1.842   8.145   2.760
  244HO4    HW2  975   1.976   8.156   2.690
  244HO4     MW  976   1.934   8.164   2.777
  245HO4     OW  977   7.436   5.237   8.205
  245HO4    HW1  978   7.406   5.187   8.282
  245HO4    HW2  979   7.397   5.190   8.130
  245HO4     MW  980   7.436   5.237   8.205
  246HO4     OW  981   9.405   9.981   1.152
  246HO4    HW1  982   9.441  10.021   1.072
  246HO4    HW2  983   9.464  10.010   1.222
  246HO4     MW  984   9.405   9.981   1.152
  247HO4     OW  985   0.430  10.050   9.798
  247HO4    HW1  986   0.489  10.038   9.874
  247HO4    HW2  987   0.350  10.088   9.836
  247HO4     MW  988   0.430  10.050   9.798
  248HO4     OW  989   6.083   2.749   9.126
  248HO4    HW1  990   6.080   2.811   9.052
  248HO4    HW2  991   6.082   2.804   9.204
  248HO4     MW  992   6.083   2.749   9.126
  249HO4     OW  993   4.170   5.103   4.848
  249HO4    HW1  994   4.090   5.148   4.818
  249HO4    HW2  995   4.242   5.152   4.807
  249HO4     MW  996   4.170   5.103   4.848
  250HO4     OW  997   8.103   5.610   8.750
  250HO4    HW1  998   8.017   5.588   8.714
  250HO4    HW2  999   8.083   5.650   8.836
  250HO4     MW 1000   8.103   5.610   8.750
  251HO4     OW 1001   9.957   8.248   8.086
  251HO4    HW1 1002   9.887   8.307   8.116
  251HO4    HW2 1003   9.973   8.190   8.161
  251HO4     MW 1004   9.957   8.248   8.086
  252HO4     OW 1005   7.311   6.278   9.738
  252HO4    HW1 1006   7.334   6.186   9.754
  252HO4    HW2 1007   7.392   6.317   9.703
  252HO4     MW 1008   7.311   6.278   9.738
  253HO4     OW 1009   9.086   1.880   3.277
  253HO4    HW1 1010   9.174   1.845   3.258
  253HO4    HW2 1011   9.050   1.901   3.190
  253HO4     MW 1012   9.086   1.880   3.277
  254HO4     OW 1013   5.455   7.922   9.996
  254HO4    HW1 1014   5.480   8.015   9.984
  254HO4    HW2 1015   5.396   7.903   9.923
  254HO4     MW 1016   5.455   7.922   9.996
  255HO4     OW 1017   9.068   6.912   2.527
  255HO4    HW1 1018   9.100   6.982   2.585
  255HO4    HW2 1019   8.973   6.927   2.521
  255HO4     MW 1020   9.068   6.912   2.527
  256HO4     OW 1021   5.189   6.619   1.290
  256HO4    HW1 1022   5.153   6.556   1.353
  256HO4    HW2 1023   5.220   6.692   1.345
  256HO4     MW 1024   5.189   6.619   1.290
  257HO4     OW 1025   1.419   7.996   6.189
  257HO4    HW1 1026   1.415   7.902   6.172
  257HO4    HW2 1027   1.369   8.008   6.270
  257HO4     MW 1028   1.419   7.996   6.189
  258HO4     OW 1029   4.573   5.388   6.803
  258HO4    HW1 1030   4.487   5.370   6.842
  258HO4    HW2 1031   4.635   5.345   6.863
  258HO4     MW 1032   4.573   5.388   6.803
  259HO4     OW 1033   2.775   6.387   1.518
  259HO4    HW1 1034   2.855   6.439   1.513
  259HO4    HW2 1035   2.776   6.350   1.607
  259HO4     MW 1036   2.775   6.387   1.518
  260HO4     OW 1037   1.827   7.168   3.114
  260HO4    HW1 1038   1.875   7.224   3.053
  260HO4    HW2 1039   1.880   7.169   3.194
  260HO4     MW 1040   1.827   7.168   3.114
  261HO4     OW 1041   1.720   5.860  10.080
  261HO4    HW1 1042   1.790   5.926  10.089
  261HO4    HW2 1043   1.666   5.893  10.008
  261HO4     MW 1044   1.720   5.860  10.080
  262HO4     OW 1045   7.045   1.090   1.515
  262HO4    HW1 1046   6.952   1.071   1.502
  262HO4    HW2 1047   7.083   1.007   1.545
  262HO4     MW 1048   7.045   1.090   1.515
  263HO4     OW 1049   7.807   4.402   1.764
  263HO4    HW1 1050   7.864   4.479   1.775
  263HO4    HW2 1051   7.777   4.382   1.853
  263HO4     MW 1052   7.807   4.402   1.764
  264HO4     OW 1053   9.627   0.105   5.659
  264HO4    HW1 1054   9.601   0.097   5.752
  264HO4    HW2 1055   9.718   0.134   5.663
  264HO4     MW 1056   9.627   0.105   5.659
  265HO4     OW 1057   9.780   3.895   3.794
  265HO4    HW1 1058   9.845   3.952   3.836
  265HO4    HW2 1059   9.829   3.852   3.722
  265HO4     MW 1060   9.780   3.895   3.794
  266HO4     OW 1061  10.136   8.647   2.831
  266HO4    HW1 1062  10.160   8.618   2.920
  266HO4    HW2 1063  10.046   8.679   2.840
  266HO4     MW 1064  10.136   8.647   2.831
  267HO4     OW 1065   1.507   1.541   3.999
  267HO4    HW1 1066   1.556   1.589   4.068
  267HO4    HW2 1067   1.572   1.528   3.929
  267HO4     MW 1068   1.507   1.541   3.999
  268HO4     OW 1069   5.426   7.283   2.322
  268HO4    HW1 1070   5.498   7.231   2.285
  268HO4    HW2 1071   5.357   7.279   2.255
  268HO4     MW 1072   5.426   7.283   2.322
  269HO4     OW 1073   4.545   3.134   0.698
  269HO4    HW1 1074   4.628   3.183   0.691
  269HO4    HW2 1075   4.526   3.132   0.793
  269HO4     MW 1076   4.545   3.134   0.698
  270HO4     OW 1077   4.206   8.137   3.462
  270HO4    HW1 1078   4.167   8.167   3.380
  270HO4    HW2 1079   4.266   8.208   3.488
  270HO4     MW 1080   4.206   8.137   3.462
  271HO4     OW 1081   2.265   4.167   7.608
  271HO4    HW1 1082   2.257   4.083   7.562
  271HO4    HW2 1083   2.326   4.149   7.681
  271HO4     MW 1084   2.265   4.167   7.608
  272HO4     OW 1085   2.682   0.755   0.919
  272HO4    HW1 1086   2.667   0.696   0.994
  272HO4    HW2 1087   2.668   0.699   0.842
  272HO4     MW 1088   2.682   0.755   0.919
  273HO4     OW 1089   3.547   8.795   7.581
  273HO4    HW1 1090   3.488   8.835   7.516
  273HO4    HW2 1091   3.523   8.836   7.664
  273HO4     MW 1092   3.547   8.795   7.581
  274HO4     OW 1093   2.714   0.352   9.307
  274HO4    HW1 1094   2.698   0.297   9.229
  274HO4    HW2 1095   2.769   0.424   9.274
  274HO4     MW 1096   2.714   0.352   9.307
  275HO4     OW 1097   8.553   7.504   9.480
  275HO4    HW1 1098   8.587   7.468   9.563
  275HO4    HW2 1099   8.626   7.496   9.418
  275HO4     MW 1100   8.553   7.504   9.480
  276HO4     OW 1101   4.202   5.743   8.108
  276HO4    HW1 1102   4.275   5.759   8.169
  276HO4    HW2 1103   4.136   5.699   8.162
  276HO4     MW 1104   4.202   5.743   8.108
  277HO4     OW 1105   7.236   1.439   8.443
  277HO4    HW1 1106   7.296   1.503   8.404
  277HO4    HW2 1107   7.209   1.479   8.526
  277HO4     MW 1108   7.236   1.439   8.443
  278HO4     OW 1109   4.059   9.082   5.645
  278HO4    HW1 1110   4.154   9.091   5.658
  278HO4    HW2 1111   4.048   9.084   5.549
  278HO4     MW 1112   4.059   9.082   5.645
  279HO4     OW 1113   7.273   6.263   6.246
  279HO4    HW1 1114   7.324   6.238   6.168
  279HO4    HW2 1115   7.321   6.225   6.320
  279HO4     MW 1116   7.273   6.263   6.246
  280HO4     OW 1117   0.640   4.641   9.952
  280HO4    HW1 1118   0.576   4.648  10.025
  280HO4    HW2 1119   0.586   4.650   9.873
  280HO4     MW 1120   0.640   4.641   9.952
  281HO4     OW 1121   3.530   3.060   2.913
  281HO4    HW1 1122   3.486   2.987   2.868
  281HO4    HW2 1123   3.621   3.030   2.922
  281HO4     MW 1124   3.530   3.060   2.913
  282HO4     OW 1125   5.349   2.182   9.973
  282HO4    HW1 1126   5.346   2.265   9.925
  282HO4    HW2 1127   5.304   2.120   9.915
  282HO4     MW 1128   5.349   2.182   9.973
  283HO4     OW 1129   5.213   7.729   0.723
  283HO4    HW1 1130   5.204   7.701   0.632
  283HO4    HW2 1131   5.184   7.653   0.774
  283HO4     MW 1132   5.213   7.729   0.723
  284HO4     OW 1133   4.838   3.621   1.608
  284HO4    HW1 1134   4.904   3.608   1.677
  284HO4    HW2 1135   4.796   3.705   1.631
  284HO4     MW 1136   4.838   3.621   1.608
  285HO4     OW 1137   3.735   7.849   0.182
  285HO4    HW1 1138   3.815   7.868   0.133
  285HO4    HW2 1139   3.737   7.911   0.256
  285HO4     MW 1140   3.735   7.849   0.182
  286HO4     OW 1141   6.139   8.679   5.265
  286HO4    HW1 1142   6.148   8.740   5.339
  286HO4    HW2 1143   6.045   8.662   5.260
  286HO4     MW 1144   6.139   8.679   5.265
  287HO4     OW 1145   5.260   0.863   7.610
  287HO4    HW1 1146   5.218   0.899   7.688
  287HO4    HW2 1147   5.208   0.896   7.536
  287HO4     MW 1148   5.260   0.863   7.610
  288HO4     OW 1149   2.358   7.072   7.630
  288HO4    HW1 1150   2.306   7.035   7.559
  288HO4    HW2 1151   2.397   6.996   7.674
  288HO4     MW 1152   2.358   7.072   7.630
  289HO4     OW 1153   7.685   6.734   4.318
  289HO4    HW1 1154   7.657   6.811   4.268
  289HO4    HW2 1155   7.680   6.662   4.255
  289HO4     MW 1156   7.685   6.734   4.318
  290HO4     OW 1157   2.692   6.425   1.191
  290HO4    HW1 1158   2.674   6.384   1.106
  290HO4    HW2 1159   2.615   6.480   1.207
  290HO4     MW 1160   2.692   6.425   1.191
  291HO4     OW 1161   7.347   3.043   1.616
  291HO4    HW1 1162   7.307   3.120   1.657
  291HO4    HW2 1163   7.430   3.031   1.664
  291HO4     MW 1164   7.347   3.043   1.616
  292HO4     OW 1165   6.506   7.979   8.993
  292HO4    HW1 1166   6.513   7.966   8.898
  292HO4    HW2 1167   6.470   8.068   9.002
  292HO4     MW 1168   6.506   7.979   8.993
  293HO4     OW 1169   8.198   4.717   8.112
  293HO4    HW1 1170   8.248   4.637   8.093
  293HO4    HW2 1171   8.231   4.782   8.049
  293HO4     MW 1172   8.198   4.717   8.112
  294HO4     OW 1173   1.182   3.730   8.879
  294HO4    HW1 1174   1.254   3.725   8.942
  294HO4    HW2 1175   1.224   3.723   8.793
  294HO4     MW 1176   1.182   3.730   8.879
  295HO4     OW 1177  10.071   6.854   1.362
  295HO4    HW1 1178  10.126   6.865   1.440
  295HO4    HW2 1179  10.133   6.859   1.288
  295HO4     MW 1180  10.071   6.854   1.362
  296HO4     OW 1181   9.598  10.174   4.194
  296HO4    HW1 1182   9.641  10.122   4.262
  296HO4    HW2 1183   9.523  10.121   4.167
  296HO4     MW 1184   9.598  10.174   4.194
  297HO4     OW 1185   4.572   8.732   4.516
  297HO4    HW1 1186   4.659   8.731   4.475
  297HO4    HW2 1187   4.554   8.825   4.532
  297HO4     MW 1188   4.572   8.732   4.516
  298HO4     OW 1189   2.639   2.044   1.216
  298HO4    HW1 1190   2.565   2.103   1.197
  298HO4    HW2 1191   2.668   2.071   1.304
  298HO4     MW 1192   2.639   2.044   1.216
  299HO4     OW 1193   9.071   1.424   1.914
  299HO4    HW1 1194   8.990   1.447   1.868
  299HO4    HW2 1195   9.088   1.332   1.889
  299HO4     MW 1196   9.071   1.424   1.914
  300HO4     OW 1197   5.866   1.199   1.517
  300HO4    HW1 1198   5.827   1.125   1.470
  300HO4    HW2 1199   5.790   1.255   1.538
  300HO4     MW 1200   5.866   1.199   1.517
  301HO4     OW 1201   2.882   7.345   1.082
  301HO4    HW1 1202   2.798   7.336   1.127
  301HO4    HW2 1203   2.898   7.440   1.078
  301HO4     MW 1204   2.882   7.345   1.082
  302HO4     OW 1205   4.495   3.024   8.833
  302HO4    HW1 1206   4.493   2.959   8.905
  302HO4    HW2 1207   4.551   2.983   8.766
  302HO4     MW 1208   4.495   3.024   8.833
  303HO4     OW 1209   2.738   4.208   3.316
  303HO4    HW1 1210   2.790   4.280   3.279
  303HO4    HW2 1211   2.698   4.166   3.239
  303HO4     MW 1212   2.738   4.208   3.316
  304HO4     OW 1213   6.814   9.411   5.575
  304HO4    HW1 1214   6.806   9.421   5.479
  304HO4    HW2 1215   6.897   9.364   5.587
  304HO4     MW 1216   6.814   9.411   5.575
  305HO4     OW 1217   3.083   6.224   7.958
  305HO4    HW1 1218   3.085   6.241   7.863
  305HO4    HW2 1219   3.097   6.310   7.998
  305HO4     MW 1220   3.083   6.224   7.958
  306HO4     OW 1221   4.463   1.253   5.171
  306HO4    HW1 1222   4.508   1.337   5.180
  306HO4    HW2 1223   4.521   1.190   5.214
  306HO4     MW 1224   4.463   1.253   5.171
  307HO4     OW 1225   0.110   1.233   5.927
  307HO4    HW1 1226   0.110   1.201   6.018
  307HO4    HW2 1227   0.027   1.202   5.890
  307HO4     MW 1228   0.110   1.233   5.927
  308HO4     OW 1229   2.029   4.173   1.368
  308HO4    HW1 1230   1.959   4.175   1.303
  308HO4    HW2 1231   2.105   4.211   1.322
  308HO4     MW 1232   2.029   4.173   1.368
  309HO4     OW 1233   9.488   2.306   0.027
  309HO4    HW1 1234   9.430   2.281   0.099
  309HO4    HW2 1235   9.463   2.247  -0.045
  309HO4     MW 1236   9.488   2.306   0.027
  310HO4     OW 1237   9.126   3.943   6.439
  310HO4    HW1 1238   9.112   4.007   6.510
  310HO4    HW2 1239   9.195   3.885   6.474
  310HO4     MW 1240   9.126   3.943   6.439
  311HO4     OW 1241   7.375   6.456   0.122
  311HO4    HW1 1242   7.358   6.431   0.213
  311HO4    HW2 1243   7.376   6.552   0.123
  311HO4     MW 1244   7.375   6.456   0.122
  312HO4     OW 1245   3.618   6.769   2.079
  312HO4    HW1 1246   3.674   6.845   2.060
  312HO4    HW2 1247   3.550   6.804   2.137
  312HO4     MW 1248   3.618   6.769   2.079
  313HO4     OW 1249   6.951   4.056   0.416
  313HO4    HW1 1250   6.938   3.961   0.404
  313HO4    HW2 1251   6.908   4.096   0.340
  313HO4     MW 1252   6.951   4.056   0.416
  314HO4     OW 1253   8.349   0.188   9.554
  314HO4    HW1 1254   8.286   0.170   9.624
  314HO4    HW2 1255   8.297   0.184   9.473
  314HO4     MW 1256   8.349   0.188   9.554
  315HO4     OW 1257   4.263   5.045   7.296
  315HO4    HW1 1258   4.216   4.997   7.226
  315HO4    HW2 1259   4.245   4.994   7.375
  315HO4     MW 1260   4.263   5.045   7.296
  316HO4     OW 1261   1.518   9.710   7.467
  316HO4    HW1 1262   1.495   9.641   7.530
  316HO4    HW2 1263   1.454   9.780   7.485
  316HO4     MW 1264   1.518   9.710   7.467
  317HO4     OW 1265   9.693   5.962   8.607
  317HO4    HW1 1266   9.638   6.001   8.676
  317HO4    HW2 1267   9.675   6.015   8.529
  317HO4     MW 1268   9.693   5.962   8.607
  318HO4     OW 1269   3.343   2.552   0.211
  318HO4    HW1 1270   3.391   2.560   0.129
  318HO4    HW2 1271   3.299   2.636   0.222
  318HO4     MW 1272   3.343   2.552   0.211
  319HO4     OW 1273   6.457   7.842   8.273
  319HO4    HW1 1274   6.519   7.890   8.328
  319HO4    HW2 1275   6.487   7.860   8.183
  319HO4     MW 1276   6.457   7.842   8.273
  320HO4     OW 1277   9.689   2.436   1.714
  320HO4    HW1 1278   9.636   2.462   1.791
  320HO4    HW2 1279   9.648   2.355   1.684
  320HO4     MW 1280   9.689   2.436   1.714
  321HO4     OW 1281   8.344   1.898   9.020
  321HO4    HW1 1282   8.375   1.933   9.103
  321HO4    HW2 1283   8.396   1.944   8.953
  321HO4     MW 1284   8.344   1.898   9.020
  322HO4     OW 1285   8.575   3.670   4.050
  322HO4    HW1 1286   8.647   3.695   4.109
  322HO4    HW2 1287   8.517   3.747   4.050
  322HO4     MW 1288   8.575   3.670   4.050
  323HO4     OW 1289   3.208   1.517   2.751
  323HO4    HW1 1290   3.241   1.573   2.821
  323HO4    HW2 1291   3.267   1.534   2.677
  323HO4     MW 1292   3.208   1.517   2.751
  324HO4     OW 1293   2.111   4.591   5.577
  324HO4    HW1 1294   2.190   4.598   5.522
  324HO4    HW2 1295   2.083   4.682   5.590
  324HO4     MW 1296   2.111   4.591   5.577
  325HO4     OW 1297   2.623   6.349   5.500
  325HO4    HW1 1298   2.647   6.417   5.436
  325HO4    HW2 1299   2.689   6.358   5.569
  325HO4     MW 1300   2.623   6.349   5.500
  326HO4     OW 1301   4.379   2.734   7.191
  326HO4    HW1 1302   4.447   2.786   7.147
  326HO4    HW2 1303   4.425   2.654   7.219
  326HO4     MW 1304   4.379   2.734   7.191
  327HO4     OW 1305   1.418  10.075   7.162
  327HO4    HW1 1306   1.340  10.057   7.215
  327HO4    HW2 1307   1.409  10.018   7.085
  327HO4     MW 1308   1.418  10.075   7.162
  328HO4     OW 1309   6.201   1.471   2.268
  328HO4    HW1 1310   6.152   1.501   2.345
  328HO4    HW2 1311   6.159   1.517   2.194
  328HO4     MW 1312   6.201   1.471   2.268
  329HO4     OW 1313   0.923   0.387   2.405
  329HO4    HW1 1314   0.866   0.440   2.348
  329HO4    HW2 1315   1.005   0.378   2.355
  329HO4     MW 1316   0.923   0.387   2.405
  330HO4     OW 1317   2.685   1.748   0.257
  330HO4    HW1 1318   2.749   1.764   0.326
  330HO4    HW2 1319   2.605   1.721   0.304
  330HO4     MW 1320   2.685   1.748   0.257
  331HO4     OW 1321   3.920   0.511   6.692
  331HO4    HW1 1322   3.921   0.487   6.599
  331HO4    HW2 1323   3.899   0.430   6.738
  331HO4     MW 1324   3.920   0.511   6.692
  332HO4     OW 1325   0.377   3.491   3.546
  332HO4    HW1 1326   0.360   3.459   3.636
  332HO4    HW2 1327   0.292   3.480   3.502
  332HO4     MW 1328   0.377   3.491   3.546
  333HO4     OW 1329   8.064   2.616   7.537
  333HO4    HW1 1330   8.115   2.548   7.491
  333HO4    HW2 1331   7.981   2.572   7.559
  333HO4     MW 1332   8.064   2.616   7.537
  334HO4     OW 1333   4.417   2.926   1.328
  334HO4    HW1 1334   4.438   2.952   1.419
  334HO4    HW2 1335   4.494   2.954   1.277
  334HO4     MW 1336   4.417   2.926   1.328
  335HO4     OW 1337   0.616   5.175   9.551
  335HO4    HW1 1338   0.627   5.129   9.467
  335HO4    HW2 1339   0.694   5.152   9.602
  335HO4     MW 1340   0.616   5.175   9.551
  336HO4     OW 1341   6.539   8.973   2.697
  336HO4    HW1 1342   6.512   9.065   2.708
  336HO4    HW2 1343   6.635   8.976   2.700
  336HO4     MW 1344   6.539   8.973   2.697
  337HO4     OW 1345   7.333   3.001   4.174
  337HO4    HW1 1346   7.342   3.091   4.208
  337HO4    HW2 1347   7.240   2.981   4.185
  337HO4     MW 1348   7.333   3.001   4.174
  338HO4     OW 1349   5.128   7.997   0.107
  338HO4    HW1 1350   5.166   8.024   0.191
  338HO4    HW2 1351   5.148   7.903   0.100
  338HO4     MW 1352   5.128   7.997   0.107
  339HO4     OW 1353   6.974   0.398   7.649
  339HO4    HW1 1354   6.965   0.440   7.735
  339HO4    HW2 1355   7.003   0.470   7.591
  339HO4     MW 1356   6.974   0.398   7.649
  340HO4     OW 1357   4.719   8.290   8.879
  340HO4    HW1 1358   4.700   8.357   8.813
  340HO4    HW2 1359   4.773   8.335   8.944
  340HO4     MW 1360   4.719   8.290   8.879
  341HO4     OW 1361   7.938   8.469   3.889
  341HO4    HW1 1362   7.968   8.414   3.817
  341HO4    HW2 1363   7.956   8.417   3.968
  341HO4     MW 1364   7.938   8.469   3.889
  342HO4     OW 1365   3.100   6.326   6.877
  342HO4    HW1 1366   3.006   6.329   6.897
  342HO4    HW2 1367   3.137   6.402   6.923
  342HO4     MW 1368   3.100   6.326   6.877
  343HO4     OW 1369   2.974   1.065   9.055
  343HO4    HW1 1370   2.893   1.107   9.024
  343HO4    HW2 1371   2.996   1.002   8.985
  343HO4     MW 1372   2.974   1.065   9.055
  344HO4     OW 1373   3.793   4.408   6.898
  344HO4    HW1 1374   3.788   4.504   6.899
  344HO4    HW2 1375   3.705   4.379   6.925
  344HO4     MW 1376   3.793   4.408   6.898
  345HO4     OW 1377   8.215   9.694   5.876
  345HO4    HW1 1378   8.259   9.746   5.808
  345HO4    HW2 1379   8.188   9.759   5.941
  345HO4     MW 1380   8.215   9.694   5.876
  346HO4     OW 1381   9.138   7.321   4.307
  346HO4    HW1 1382   9.128   7.331   4.212
  346HO4    HW2 1383   9.140   7.411   4.341
  346HO4     MW 1384   9.138   7.321   4.307
  347HO4     OW 1385   2.762   0.452  10.018
  347HO4    HW1 1386   2.831   0.386  10.024
  347HO4    HW2 1387   2.682   0.402  10.003
  347HO4     MW 1388   2.762   0.452  10.018
  348HO4     OW 1389   9.280   6.879   5.524
  348HO4    HW1 1390   9.242   6.812   5.583
  348HO4    HW2 1391   9.355   6.835   5.484
  348HO4     MW 1392   9.280   6.879   5.524
  349HO4     OW 1393   8.289   9.025   7.307
  349HO4    HW1 1394   8.243   9.087   7.250
  349HO4    HW2 1395   8.220   8.990   7.364
  349HO4     MW 1396   8.289   9.025   7.307
  350HO4     OW 1397   9.704   3.271   9.928
  350HO4    HW1 1398   9.643   3.340   9.899
  350HO4    HW2 1399   9.787   3.292   9.883
  350HO4     MW 1400   9.704   3.271   9.928
  351HO4     OW 1401   7.750   0.018   4.441
  351HO4    HW1 1402   7.771  -0.020   4.527
  351HO4    HW2 1403   7.835   0.021   4.395
  351HO4     MW 1404   7.750   0.018   4.441
  352HO4     OW 1405   6.173   8.094   0.059
  352HO4    HW1 1406   6.139   8.173   0.015
  352HO4    HW2 1407   6.242   8.063  -0.000
  352HO4     MW 1408   6.173   8.094   0.059
  353HO4     OW 1409   6.271   9.835   5.031
  353HO4    HW1 1410   6.284   9.887   4.951
  353HO4    HW2 1411   6.177   9.813   5.031
  353HO4     MW 1412   6.271   9.835   5.031
  354HO4     OW 1413   0.370   8.090   0.080
  354HO4    HW1 1414   0.418   8.062   0.002
  354HO4    HW2 1415   0.435   8.092   0.150
  354HO4     MW 1416   0.370   8.090   0.080
  355HO4     OW 1417   4.806   8.204   2.705
  355HO4    HW1 1418   4.776   8.291   2.733
  355HO4    HW2 1419   4.815   8.155   2.788
  355HO4     MW 1420   4.806   8.204   2.705
  356HO4     OW 1421   6.634   1.839   4.700
  356HO4    HW1 1422   6.697   1.856   4.771
  356HO4    HW2 1423   6.670   1.886   4.624
  356HO4     MW 1424   6.634   1.839   4.700
  357HO4     OW 1425   7.750   4.739   9.117
  357HO4    HW1 1426   7.686   4.806   9.142
  357HO4    HW2 1427   7.747   4.676   9.190
  357HO4     MW 1428   7.750   4.739   9.117
  358HO4     OW 1429   0.145   0.076   7.205
  358HO4    HW1 1430   0.214   0.017   7.174
  358HO4    HW2 1431   0.192   0.147   7.250
  358HO4     MW 1432   0.145   0.076   7.205
  359HO4     OW 1433   3.374   5.535   6.490
  359HO4    HW1 1434   3.368   5.440   6.497
  359HO4    HW2 1435   3.313   5.568   6.557
  359HO4     MW 1436   3.374   5.535   6.490
  360HO4     OW 1437   8.384   7.260   5.115
  360HO4    HW1 1438   8.410   7.305   5.196
  360HO4    HW2 1439   8.447   7.290   5.049
  360HO4     MW 1440   8.384   7.260   5.115
  361HO4     OW 1441   8.294   4.637   2.570
  361HO4    HW1 1442   8.239   4.632   2.649
  361HO4    HW2 1443   8.333   4.549   2.564
  361HO4     MW 1444   8.294   4.637   2.570
  362HO4     OW 1445   8.660   9.027   4.808
  362HO4    HW1 1446   8.732   9.083   4.841
  362HO4    HW2 1447   8.631   8.978   4.886
  362HO4     MW 1448   8.660   9.027   4.808
  363HO4     OW 1449   9.469   7.828   4.973
  363HO4    HW1 1450   9.479   7.864   4.884
  363HO4    HW2 1451   9.388   7.868   5.006
  363HO4     MW 1452   9.469   7.828   4.973
  364HO4     OW 1453   5.140   5.206   9.824
  364HO4    HW1 1454   5.132   5.114   9.849
  364HO4    HW2 1455   5.103   5.254   9.899
  364HO4     MW 1456   5.140   5.206   9.824
  365HO4     OW 1457   8.413   7.881   7.130
  365HO4    HW1 1458   8.487   7.821   7.114
  365HO4    HW2 1459   8.443   7.938   7.200
  365HO4     MW 1460   8.413   7.881   7.130
  366HO4     OW 1461   5.308   2.262   2.714
  366HO4    HW1 1462   5.399   2.291   2.703
  366HO4    HW2 1463   5.261   2.343   2.737
  366HO4     MW 1464   5.308   2.262   2.714
  367HO4     OW 1465   5.517   7.124   8.143
  367HO4    HW1 1466   5.491   7.040   8.106
  367HO4    HW2 1467   5.447   7.148   8.204
  367HO4     MW 1468   5.517   7.124   8.143
  368HO4     OW 1469   1.138   1.074   3.509
  368HO4    HW1 1470   1.083   1.063   3.431
  368HO4    HW2 1471   1.227   1.057   3.477
  368HO4     MW 1472   1.138   1.074   3.509
  369HO4     OW 1473   6.071   1.833   0.380
  369HO4    HW1 1474   6.093   1.764   0.444
  369HO4    HW2 1475   6.055   1.784   0.299
  369HO4     MW 1476   6.071   1.833   0.380
  370HO4     OW 1477   0.750   8.570   1.631
  370HO4    HW1 1478   0.696   8.649   1.625
  370HO4    HW2 1479   0.789   8.561   1.543
  370HO4     MW 1480   0.750   8.570   1.631
  371HO4     OW 1481   9.228   3.795   9.699
  371HO4    HW1 1482   9.187   3.722   9.746
  371HO4    HW2 1483   9.279   3.841   9.766
  371HO4     MW 1484   9.228   3.795   9.699
  372HO4     OW 1485   6.786   8.353   5.001
  372HO4    HW1 1486   6.754   8.309   4.921
  372HO4    HW2 1487   6.754   8.297   5.072
  372HO4     MW 1488   6.786   8.353   5.001
  373HO4     OW 1489   9.136   1.417   2.981
  373HO4    HW1 1490   9.172   1.422   3.070
  373HO4    HW2 1491   9.050   1.376   2.992
  373HO4     MW 1492   9.136   1.417   2.981
  374HO4     OW 1493   7.417   7.581   7.614
  374HO4    HW1 1494   7.462   7.509   7.660
  374HO4    HW2 1495   7.488   7.635   7.579
  374HO4     MW 1496   7.417   7.581   7.614
  375HO4     OW 1497   7.228   9.965   0.455
  375HO4    HW1 1498   7.218  10.012   0.372
  375HO4    HW2 1499   7.157   9.999   0.510
  375HO4     MW 1500   7.228   9.965   0.455
  376HO4     OW 1501   6.340   7.162   7.465
  376HO4    HW1 1502   6.283   7.178   7.540
  376HO4    HW2 1503   6.304   7.083   7.424
  376HO4     MW 1504   6.340   7.162   7.465
  377HO4     OW 1505   5.919   2.178   3.182
  377HO4    HW1 1506   5.932   2.094   3.137
  377HO4    HW2 1507   5.971   2.241   3.131
  377HO4     MW 1508   5.919   2.178   3.182
  378HO4     OW 1509  10.050   9.011   5.920
  378HO4    HW1 1510  10.087   8.964   5.845
  378HO4    HW2 1511  10.073   8.956   5.996
  378HO4     MW 1512  10.050   9.011   5.920
  379HO4     OW 1513   9.333   2.938   6.191
  379HO4    HW1 1514   9.258   2.937   6.130
  379HO4    HW2 1515   9.330   3.026   6.231
  379HO4     MW 1516   9.333   2.938   6.191
  380HO4     OW 1517   6.694   0.504   9.621
  380HO4    HW1 1518   6.710   0.442   9.548
  380HO4    HW2 1519   6.707   0.451   9.700
  380HO4     MW 1520   6.694   0.504   9.621
  381HO4     OW 1521   1.287   6.580   5.119
  381HO4    HW1 1522   1.379   6.584   5.145
  381HO4    HW2 1523   1.261   6.489   5.138
  381HO4     MW 1524   1.287   6.580   5.119
  382HO4     OW 1525   8.369   8.642   0.200
  382HO4    HW1 1526   8.322   8.696   0.265
  382HO4    HW2 1527   8.300   8.588   0.160
  382HO4     MW 1528   8.369   8.642   0.200
  383HO4     OW 1529   9.761   4.629   0.356
  383HO4    HW1 1530   9.843   4.595   0.391
  383HO4    HW2 1531   9.705   4.551   0.346
  383HO4     MW 1532   9.761   4.629   0.356
  384HO4     OW 1533   4.495   8.485   2.845
  384HO4    HW1 1534   4.407   8.445   2.848
  384HO4    HW2 1535   4.495   8.538   2.765
  384HO4     MW 1536   4.495   8.485   2.845
  385HO4     OW 1537   4.451   2.470   0.063
  385HO4    HW1 1538   4.477   2.387   0.105
  385HO4    HW2 1539   4.398   2.442  -0.012
  385HO4     MW 1540   4.451   2.470   0.063
  386HO4     OW 1541   8.219   1.395   4.520
  386HO4    HW1 1542   8.152   1.327   4.532
  386HO4    HW2 1543   8.277   1.361   4.451
  386HO4     MW 1544   8.219   1.395   4.520
  387HO4     OW 1545   3.593   6.700   0.622
  387HO4    HW1 1546   3.589   6.626   0.561
  387HO4    HW2 1547   3.536   6.766   0.583
  387HO4     MW 1548   3.593   6.700   0.622
  388HO4     OW 1549   8.517   7.808   7.902
  388HO4    HW1 1550   8.448   7.847   7.849
  388HO4    HW2 1551   8.476   7.729   7.941
  388HO4     MW 1552   8.517   7.808   7.902
  389HO4     OW 1553   1.961   7.258   6.076
  389HO4    HW1 1554   1.963   7.308   5.994
  389HO4    HW2 1555   2.017   7.182   6.058
  389HO4     MW 1556   1.961   7.258   6.076
  390HO4     OW 1557   4.726   8.659   7.105
  390HO4    HW1 1558   4.769   8.743   7.085
  390HO4    HW2 1559   4.798   8.595   7.106
  390HO4     MW 1560   4.726   8.659   7.105
  391HO4     OW 1561   5.442   7.079   8.749
  391HO4    HW1 1562   5.451   7.087   8.654
  391HO4    HW2 1563   5.524   7.037   8.777
  391HO4     MW 1564   5.442   7.079   8.749
  392HO4     OW 1565   4.946   8.053   7.545
  392HO4    HW1 1566   4.995   7.996   7.485
  392HO4    HW2 1567   4.926   7.996   7.620
  392HO4     MW 1568   4.946   8.053   7.545
  393HO4     OW 1569   7.265   1.285   0.726
  393HO4    HW1 1570   7.295   1.194   0.731
  393HO4    HW2 1571   7.263   1.305   0.632
  393HO4     MW 1572   7.265   1.285   0.726
  394HO4     OW 1573   3.643   0.835   8.055
  394HO4    HW1 1574   3.715   0.885   8.095
  394HO4    HW2 1575   3.673   0.744   8.060
  394HO4     MW 1576   3.643   0.835   8.055
  395HO4     OW 1577   4.403   0.107   1.252
  395HO4    HW1 1578   4.334   0.046   1.277
  395HO4    HW2 1579   4.393   0.117   1.157
  395HO4     MW 1580   4.403   0.107   1.252
  396HO4     OW 1581  -0.012   3.970   7.183
  396HO4    HW1 1582   0.045   3.902   7.221
  396HO4    HW2 1583   0.042   4.008   7.112
  396HO4     MW 1584  -0.012   3.970   7.183
  397HO4     OW 1585   7.962   0.652   3.295
  397HO4    HW1 1586   7.964   0.592   3.370
  397HO4    HW2 1587   7.872   0.644   3.261
  397HO4     MW 1588   7.962   0.652   3.295
  398HO4     OW 1589   8.577   6.402   4.026
  398HO4    HW1 1590   8.620   6.430   3.945
  398HO4    HW2 1591   8.597   6.472   4.090
  398HO4     MW 1592   8.577   6.402   4.026
  399HO4     OW 1593   4.466   1.769   6.344
  399HO4    HW1 1594   4.447   1.747   6.436
  399HO4    HW2 1595   4.393   1.730   6.294
  399HO4     MW 1596   4.466   1.769   6.344
  400HO4     OW 1597   6.338   8.782   1.064
  400HO4    HW1 1598   6.402   8.851   1.084
  400HO4    HW2 1599   6.260   8.806   1.115
  400HO4     MW 1600   6.338   8.782   1.064
  401HO4     OW 1601   6.124   6.210   7.602
  401HO4    HW1 1602   6.120   6.153   7.524
  401HO4    HW2 1603   6.088   6.156   7.673
  401HO4     MW 1604   6.124   6.210   7.602
  402HO4     OW 1605   2.385   7.661   9.277
  402HO4    HW1 1606   2.339   7.691   9.355
  402HO4    HW2 1607   2.328   7.687   9.204
  402HO4     MW 1608   2.385   7.661   9.277
  403HO4     OW 1609   7.112   4.697   4.116
  403HO4    HW1 1610   7.155   4.781   4.136
  403HO4    HW2 1611   7.128   4.683   4.022
  403HO4     MW 1612   7.112   4.697   4.116
  404HO4     OW 1613   7.256   4.634   9.168
  404HO4    HW1 1614   7.213   4.683   9.239
  404HO4    HW2 1615   7.184   4.588   9.124
  404HO4     MW 1616   7.256   4.634   9.168
  405HO4     OW 1617   8.385   3.275   5.095
  405HO4    HW1 1618   8.330   3.214   5.044
  405HO4    HW2 1619   8.344   3.278   5.182
  405HO4     MW 1620   8.385   3.275   5.095
  406HO4     OW 1621  10.123   5.204   4.884
  406HO4    HW1 1622  10.077   5.159   4.813
  406HO4    HW2 1623  10.077   5.177   4.964
  406HO4     MW 1624  10.123   5.204   4.884
  407HO4     OW 1625   0.274   3.342   2.009
  407HO4    HW1 1626   0.244   3.293   1.932
  407HO4    HW2 1627   0.204   3.330   2.074
  407HO4     MW 1628   0.274   3.342   2.009
  408HO4     OW 1629   0.442   2.778   8.816
  408HO4    HW1 1630   0.448   2.731   8.900
  408HO4    HW2 1631   0.350   2.768   8.790
  408HO4     MW 1632   0.442   2.778   8.816
  409HO4     OW 1633   0.700   2.035   5.835
  409HO4    HW1 1634   0.664   1.948   5.855
  409HO4    HW2 1635   0.683   2.086   5.915
  409HO4     MW 1636   0.700   2.035   5.835
  410HO4     OW 1637   3.321   5.887   0.646
  410HO4    HW1 1638   3.334   5.799   0.611
  410HO4    HW2 1639   3.334   5.878   0.741
  410HO4     MW 1640   3.321   5.887   0.646
  411HO4     OW 1641   9.498   6.073   1.711
  411HO4    HW1 1642   9.413   6.074   1.757
  411HO4    HW2 1643   9.492   5.998   1.651
  411HO4     MW 1644   9.498   6.073   1.711
  412HO4     OW 1645   1.047   5.956   0.966
  412HO4    HW1 1646   1.068   6.006   0.886
  412HO4    HW2 1647   1.077   6.012   1.038
  412HO4     MW 1648   1.047   5.956   0.966
  413HO4     OW 1649   0.052   8.759   4.906
  413HO4    HW1 1650   0.108   8.836   4.914
  413HO4    HW2 1651   0.110   8.685   4.926
  413HO4     MW 1652   0.052   8.759   4.906
  414HO4     OW 1653   6.742   1.044   9.340
  414HO4    HW1 1654   6.804   0.981   9.301
  414HO4    HW2 1655   6.675   0.989   9.381
  414HO4     MW 1656   6.742   1.044   9.340
  415HO4     OW 1657   0.152   9.066   0.385
  415HO4    HW1 1658   0.200   9.076   0.302
  415HO4    HW2 1659   0.218   9.086   0.453
  415HO4     MW 1660   0.152   9.066   0.385
  416HO4     OW 1661   7.523   6.612   1.131
  416HO4    HW1 1662   7.588   6.572   1.191
  416HO4    HW2 1663   7.510   6.545   1.063
  416HO4     MW 1664   7.523   6.612   1.131
  417HO4     OW 1665   5.041   5.378   1.987
  417HO4    HW1 1666   5.004   5.306   2.040
  417HO4    HW2 1667   5.121   5.341   1.949
  417HO4     MW 1668   5.041   5.378   1.987
  418HO4     OW 1669   7.089   9.337   6.092
  418HO4    HW1 1670   7.109   9.388   6.014
  418HO4    HW2 1671   6.997   9.359   6.113
  418HO4     MW 1672   7.089   9.337   6.092
  419HO4     OW 1673   5.020   0.144   4.566
  419HO4    HW1 1674   4.978   0.187   4.641
  419HO4    HW2 1675   5.102   0.192   4.553
  419HO4     MW 1676   5.020   0.144   4.566
  420HO4     OW 1677   9.388   7.264   2.343
  420HO4    HW1 1678   9.380   7.202   2.417
  420HO4    HW2 1679   9.423   7.210   2.271
  420HO4     MW 1680   9.388   7.264   2.343
  421HO4     OW 1681   4.855   9.855   2.401
  421HO4    HW1 1682   4.932   9.801   2.422
  421HO4    HW2 1683   4.781   9.795   2.407
  421HO4     MW 1684   4.855   9.855   2.401
  422HO4     OW 1685   0.320   9.728   3.007
  422HO4    HW1 1686   0.351   9.795   3.068
  422HO4    HW2 1687   0.351   9.758   2.921
  422HO4     MW 1688   0.320   9.728   3.007
  423HO4     OW 1689   6.325   2.132   0.670
  423HO4    HW1 1690   6.256   2.079   0.711
  423HO4    HW2 1691   6.352   2.194   0.738
  423HO4     MW 1692   6.325   2.132   0.670
  424HO4     OW 1693   3.990   9.426   5.406
  424HO4    HW1 1694   3.900   9.397   5.425
  424HO4    HW2 1695   4.011   9.486   5.479
  424HO4     MW 1696   3.990   9.426   5.406
  425HO4     OW 1697   9.390   0.301   7.694
  425HO4    HW1 1698   9.398   0.207   7.673
  425HO4    HW2 1699   9.297   0.312   7.716
  425HO4     MW 1700   9.390   0.301   7.694
  426HO4     OW 1701   3.620   0.435   2.775
  426HO4    HW1 1702   3.553   0.470   2.834
  426HO4    HW2 1703   3.584   0.448   2.687
  426HO4     MW 1704   3.620   0.435   2.775
  427HO4     OW 1705   3.286   2.447   4.822
  427HO4    HW1 1706   3.288   2.402   4.907
  427HO4    HW2 1707   3.363   2.504   4.823
  427HO4     MW 1708   3.286   2.447   4.822
  428HO4     OW 1709   9.703   1.223   0.793
  428HO4    HW1 1710   9.649   1.198   0.868
  428HO4    HW2 1711   9.728   1.139   0.752
  428HO4     MW 1712   9.703   1.223   0.793
  429HO4     OW 1713   1.434   4.894   2.590
  429HO4    HW1 1714   1.467   4.942   2.514
  429HO4    HW2 1715   1.382   4.958   2.639
  429HO4     MW 1716   1.434   4.894   2.590
  430HO4     OW 1717   5.478   9.961   9.004
  430HO4    HW1 1718   5.382   9.965   9.003
  430HO4    HW2 1719   5.499   9.918   9.087
  430HO4     MW 1720   5.478   9.961   9.004
  431HO4     OW 1721   7.464   1.011   6.683
  431HO4    HW1 1722   7.449   0.930   6.732
  431HO4    HW2 1723   7.392   1.014   6.619
  431HO4     MW 1724   7.464   1.011   6.683
  432HO4     OW 1725   9.095   4.849   8.276
  432HO4    HW1 1726   9.176   4.816   8.236
  432HO4    HW2 1727   9.084   4.937   8.239
  432HO4     MW 1728   9.095   4.849   8.276
  433HO4     OW 1729   3.236   5.532   5.297
  433HO4    HW1 1730   3.321   5.548   5.254
  433HO4    HW2 1731   3.224   5.437   5.292
  433HO4     MW 1732   3.236   5.532   5.297
  434HO4     OW 1733   5.400   8.535   2.978
  434HO4    HW1 1734   5.312   8.496   2.973
  434HO4    HW2 1735   5.415   8.549   3.072
  434HO4     MW 1736   5.400   8.535   2.978
  435HO4     OW 1737   1.269   0.657   5.750
  435HO4    HW1 1738   1.179   0.665   5.719
  435HO4    HW2 1739   1.267   0.582   5.810
  435HO4     MW 1740   1.269   0.657   5.750
  436HO4     OW 1741   7.058   7.147   4.585
  436HO4    HW1 1742   6.988   7.155   4.519
  436HO4    HW2 1743   7.015   7.107   4.661
  436HO4     MW 1744   7.058   7.147   4.585
  437HO4     OW 1745   2.805   1.839   5.666
  437HO4    HW1 1746   2.745   1.818   5.594
  437HO4    HW2 1747   2.768   1.795   5.743
  437HO4     MW 1748   2.805   1.839   5.666
  438HO4     OW 1749   1.253   0.603   9.651
  438HO4    HW1 1750   1.235   0.565   9.738
  438HO4    HW2 1751   1.166   0.614   9.611
  438HO4     MW 1752   1.253   0.603   9.651
  439HO4     OW 1753   5.308   7.366   0.503
  439HO4    HW1 1754   5.374   7.434   0.491
  439HO4    HW2 1755   5.346   7.308   0.570
  439HO4     MW 1756   5.308   7.366   0.503
  440HO4     OW 1757   7.313   4.481   0.899
  440HO4    HW1 1758   7.338   4.479   0.806
  440HO4    HW2 1759   7.227   4.440   0.902
  440HO4     MW 1760   7.313   4.481   0.899
  441HO4     OW 1761   7.547   3.068   7.648
  441HO4    HW1 1762   7.473   3.070   7.710
  441HO4    HW2 1763   7.518   3.007   7.579
  441HO4     MW 1764   7.547   3.068   7.648
  442HO4     OW 1765   8.588   9.430   0.065
  442HO4    HW1 1766   8.507   9.477   0.088
  442HO4    HW2 1767   8.570   9.392  -0.021
  442HO4     MW 1768   8.588   9.430   0.065
  443HO4     OW 1769   0.416   2.589   0.464
  443HO4    HW1 1770   0.447   2.560   0.377
  443HO4    HW2 1771   0.380   2.677   0.448
  443HO4     MW 1772   0.416   2.589   0.464
  444HO4     OW 1773   4.881   7.416   7.631
  444HO4    HW1 1774   4.961   7.452   7.591
  444HO4    HW2 1775   4.906   7.327   7.658
  444HO4     MW 1776   4.881   7.416   7.631
  445HO4     OW 1777   8.636   2.405   6.435
  445HO4    HW1 1778   8.603   2.457   6.508
  445HO4    HW2 1779   8.702   2.347   6.473
  445HO4     MW 1780   8.636   2.405   6.435
  446HO4     OW 1781   2.245   5.918   8.206
  446HO4    HW1 1782   2.196   5.953   8.131
  446HO4    HW2 1783   2.201   5.954   8.283
  446HO4     MW 1784   2.245   5.918   8.206
  447HO4     OW 1785   2.966   2.388   5.415
  447HO4    HW1 1786   2.913   2.335   5.354
  447HO4    HW2 1787   2.980   2.330   5.490
  447HO4     MW 1788   2.966   2.388   5.415
  448HO4     OW 1789   4.205   5.505   6.276
  448HO4    HW1 1790   4.284   5.491   6.330
  448HO4    HW2 1791   4.168   5.588   6.309
  448HO4     MW 1792   4.205   5.505   6.276
  449HO4     OW 1793   8.380   9.989   5.052
  449HO4    HW1 1794   8.371  10.043   5.131
  449HO4    HW2 1795   8.299  10.005   5.003
  449HO4     MW 1796   8.380   9.989   5.052
  450HO4     OW 1797   0.230   9.398   8.677
  450HO4    HW1 1798   0.223   9.427   8.768
  450HO4    HW2 1799   0.318   9.360   8.671
  450HO4     MW 1800   0.230   9.398   8.677
  451HO4     OW 1801   7.059   3.095   1.891
  451HO4    HW1 1802   7.046   3.048   1.974
  451HO4    HW2 1803   7.043   3.028   1.823
  451HO4     MW 1804   7.059   3.095   1.891
  452HO4     OW 1805   5.713   6.683   5.144
  452HO4    HW1 1806   5.626   6.645   5.129
  452HO4    HW2 1807   5.720   6.754   5.080
  452HO4     MW 1808   5.713   6.683   5.144
  453HO4     OW 1809   7.507   4.504   8.678
  453HO4    HW1 1810   7.576   4.494   8.611
  453HO4    HW2 1811   7.478   4.595   8.669
  453HO4     MW 1812   7.507   4.504   8.678
  454HO4     OW 1813   0.573   7.582   3.597
  454HO4    HW1 1814   0.509   7.579   3.668
  454HO4    HW2 1815   0.526   7.547   3.521
  454HO4     MW 1816   0.573   7.582   3.597
  455HO4     OW 1817   9.983   9.862   2.104
  455HO4    HW1 1818   9.958   9.948   2.141
  455HO4    HW2 1819  10.079   9.861   2.109
  455HO4     MW 1820   9.983   9.862   2.104
  456HO4     OW 1821   2.110   0.186   4.815
  456HO4    HW1 1822   2.145   0.137   4.889
  456HO4    HW2 1823   2.144   0.141   4.738
  456HO4     MW 1824   2.110   0.186   4.815
  457HO4     OW 1825   5.163   3.533   7.134
  457HO4    HW1 1826   5.081   3.543   7.086
  457HO4    HW2 1827   5.224   3.593   7.091
  457HO4     MW 1828   5.163   3.533   7.134
  458HO4     OW 1829   0.788   1.733   8.853
  458HO4    HW1 1830   0.726   1.803   8.829
  458HO4    HW2 1831   0.860   1.742   8.789
  458HO4     MW 1832   0.788   1.733   8.853
  459HO4     OW 1833   2.117   5.023   3.208
  459HO4    HW1 1834   2.127   4.981   3.294
  459HO4    HW2 1835   2.036   5.074   3.215
  459HO4     MW 1836   2.117   5.023   3.208
  460HO4     OW 1837   7.426   6.114   3.752
  460HO4    HW1 1838   7.451   6.109   3.659
  460HO4    HW2 1839   7.506   6.142   3.797
  460HO4     MW 1840   7.426   6.114   3.752
  461HO4     OW 1841   4.265   7.509   5.384
  461HO4    HW1 1842   4.229   7.526   5.471
  461HO4    HW2 1843   4.294   7.418   5.387
  461HO4     MW 1844   4.265   7.509   5.384
  462HO4     OW 1845   5.098   8.228   4.028
  462HO4    HW1 1846   5.062   8.139   4.037
  462HO4    HW2 1847   5.072   8.256   3.940
  462HO4     MW 1848   5.098   8.228   4.028
  463HO4     OW 1849   0.155   4.755   6.728
  463HO4    HW1 1850   0.216   4.734   6.657
  463HO4    HW2 1851   0.212   4.764   6.805
  463HO4     MW 1852   0.155   4.755   6.728
  464HO4     OW 1853   4.729   8.746   6.102
  464HO4    HW1 1854   4.696   8.788   6.022
  464HO4    HW2 1855   4.667   8.774   6.170
  464HO4     MW 1856   4.729   8.746   6.102
  465HO4     OW 1857   0.303   2.395   0.091
  465HO4    HW1 1858   0.330   2.452   0.164
  465HO4    HW2 1859   0.334   2.440   0.012
  465HO4     MW 1860   0.303   2.395   0.091
  466HO4     OW 1861   7.371   0.011   6.477
  466HO4    HW1 1862   7.312   0.018   6.401
  466HO4    HW2 1863   7.448  -0.035   6.443
  466HO4     MW 1864   7.371   0.011   6.477
  467HO4     OW 1865   0.528   6.686   2.456
  467HO4    HW1 1866   0.539   6.657   2.547
  467HO4    HW2 1867   0.609   6.735   2.436
  467HO4     MW 1868   0.528   6.686   2.456
  468HO4     OW 1869   1.599   9.667   7.755
  468HO4    HW1 1870   1.561   9.645   7.670
  468HO4    HW2 1871   1.586   9.588   7.808
  468HO4     MW 1872   1.599   9.667   7.755
  469HO4     OW 1873   8.285   3.278   2.953
  469HO4    HW1 1874   8.371   3.257   2.992
  469HO4    HW2 1875   8.226   3.286   3.029
  469HO4     MW 1876   8.285   3.278   2.953
  470HO4     OW 1877   5.983   6.901   0.437
  470HO4    HW1 1878   5.958   6.811   0.461
  470HO4    HW2 1879   5.925   6.957   0.490
  470HO4     MW 1880   5.983   6.901   0.437
  471HO4     OW 1881   6.461   8.553   9.757
  471HO4    HW1 1882   6.450   8.608   9.835
  471HO4    HW2 1883   6.446   8.613   9.684
  471HO4     MW 1884   6.461   8.553   9.757
  472HO4     OW 1885   5.908   1.496   7.574
  472HO4    HW1 1886   5.862   1.460   7.651
  472HO4    HW2 1887   5.845   1.487   7.502
  472HO4     MW 1888   5.908   1.496   7.574
  473HO4     OW 1889   4.680  10.094   1.687
  473HO4    HW1 1890   4.633  10.077   1.605
  473HO4    HW2 1891   4.773  10.094   1.662
  473HO4     MW 1892   4.680  10.094   1.687
  474HO4     OW 1893   8.191   4.691   7.169
  474HO4    HW1 1894   8.213   4.643   7.250
  474HO4    HW2 1895   8.121   4.751   7.195
  474HO4     MW 1896   8.191   4.691   7.169
  475HO4     OW 1897   0.540   2.617   7.818
  475HO4    HW1 1898   0.518   2.621   7.912
  475HO4    HW2 1899   0.511   2.530   7.790
  475HO4     MW 1900   0.540   2.617   7.818
  476HO4     OW 1901   9.513   2.291   2.454
  476HO4    HW1 1902   9.589   2.316   2.508
  476HO4    HW2 1903   9.535   2.323   2.366
  476HO4     MW 1904   9.513   2.291   2.454
  477HO4     OW 1905   3.566   7.055   3.969
  477HO4    HW1 1906   3.584   7.148   3.952
  477HO4    HW2 1907   3.646   7.010   3.941
  477HO4     MW 1908   3.566   7.055   3.969
  478HO4     OW 1909   2.621   2.992   6.810
  478HO4    HW1 1910   2.661   2.982   6.723
  478HO4    HW2 1911   2.690   2.964   6.871
  478HO4     MW 1912   2.621   2.992   6.810
  479HO4     OW 1913   4.220   0.733   9.838
  479HO4    HW1 1914   4.224   0.716   9.932
  479HO4    HW2 1915   4.217   0.829   9.830
  479HO4     MW 1916   4.220   0.733   9.838
  480HO4     OW 1917  10.033   2.964   7.213
  480HO4    HW1 1918  10.066   2.874   7.216
  480HO4    HW2 1919   9.942   2.957   7.244
  480HO4     MW 1920  10.033   2.964   7.213
  481HO4     OW 1921   1.531   4.213   7.578
  481HO4    HW1 1922   1.478   4.237   7.655
  481HO4    HW2 1923   1.474   4.232   7.503
  481HO4     MW 1924   1.531   4.213   7.578
  482HO4     OW 1925   3.485   6.258   5.593
  482HO4    HW1 1926   3.399   6.268   5.551
  482HO4    HW2 1927   3.464   6.224   5.681
  482HO4     MW 1928   3.485   6.258   5.593
  483HO4     OW 1929   0.662   9.318   0.289
  483HO4    HW1 1930   0.717   9.242   0.309
  483HO4    HW2 1931   0.667   9.372   0.369
  483HO4     MW 1932   0.662   9.318   0.289
  484HO4     OW 1933   7.882   8.729   3.070
  484HO4    HW1 1934   7.934   8.763   2.997
  484HO4    HW2 1935   7.791   8.737   3.039
  484HO4     MW 1936   7.882   8.729   3.070
  485HO4     OW 1937   3.269   4.090   1.280
  485HO4    HW1 1938   3.329   4.018   1.259
  485HO4    HW2 1939   3.235   4.068   1.367
  485HO4     MW 1940   3.269   4.090   1.280
  486HO4     OW 1941   1.973   3.075   5.062
  486HO4    HW1 1942   1.889   3.034   5.037
  486HO4    HW2 1943   2.037   3.035   5.002
  486HO4     MW 1944   1.973   3.075   5.062
  487HO4     OW 1945   3.160   8.700   8.493
  487HO4    HW1 1946   3.241   8.681   8.446
  487HO4    HW2 1947   3.178   8.782   8.540
  487HO4     MW 1948   3.160   8.700   8.493
  488HO4     OW 1949   4.335   1.822   8.521
  488HO4    HW1 1950   4.283   1.903   8.519
  488HO4    HW2 1951   4.275   1.755   8.488
  488HO4     MW 1952   4.335   1.822   8.521
  489HO4     OW 1953   2.815   0.257   5.706
  489HO4    HW1 1954   2.852   0.334   5.750
  489HO4    HW2 1955   2.848   0.183   5.758
  489HO4     MW 1956   2.815   0.257   5.706
  490HO4     OW 1957   6.655   6.265   4.800
  490HO4    HW1 1958   6.648   6.310   4.885
  490HO4    HW2 1959   6.577   6.293   4.751
  490HO4     MW 1960   6.655   6.265   4.800
  491HO4     OW 1961   6.807   6.732   3.610
  491HO4    HW1 1962   6.871   6.672   3.651
  491HO4    HW2 1963   6.729   6.726   3.665
  491HO4     MW 1964   6.807   6.732   3.610
  492HO4     OW 1965   0.152   0.618   1.518
  492HO4    HW1 1966   0.213   0.581   1.453
  492HO4    HW2 1967   0.093   0.673   1.466
  492HO4     MW 1968   0.152   0.618   1.518
  493HO4     OW 1969   9.180   7.522   8.765
  493HO4    HW1 1970   9.270   7.521   8.800
  493HO4    HW2 1971   9.191   7.509   8.670
  493HO4     MW 1972   9.180   7.522   8.765
  494HO4     OW 1973   6.043   1.032   2.011
  494HO4    HW1 1974   6.029   1.088   1.934
  494HO4    HW2 1975   6.035   1.093   2.086
  494HO4     MW 1976   6.043   1.032   2.011
  495HO4     OW 1977   1.770   5.148   3.636
  495HO4    HW1 1978   1.735   5.085   3.700
  495HO4    HW2 1979   1.757   5.234   3.678
  495HO4     MW 1980   1.770   5.148   3.636
  496HO4     OW 1981   3.019   0.374   6.525
  496HO4    HW1 1982   2.938   0.326   6.549
  496HO4    HW2 1983   3.089   0.327   6.572
  496HO4     MW 1984   3.019   0.374   6.525
  497HO4     OW 1985   2.282   3.906   0.738
  497HO4    HW1 1986   2.221   3.875   0.671
  497HO4    HW2 1987   2.325   3.827   0.770
  497HO4     MW 1988   2.282   3.906   0.738
  498HO4     OW 1989   5.792   3.414   8.912
  498HO4    HW1 1990   5.714   3.471   8.920
  498HO4    HW2 1991   5.843   3.431   8.991
  498HO4     MW 1992   5.792   3.414   8.912
  499HO4     OW 1993   3.929   1.716   5.298
  499HO4    HW1 1994   3.833   1.713   5.303
  499HO4    HW2 1995   3.948   1.796   5.247
  499HO4     MW 1996   3.929   1.716   5.298
  500HO4     OW 1997   0.691   6.093   8.779
  500HO4    HW1 1998   0.775   6.108   8.733
  500HO4    HW2 1999   0.642   6.034   8.721
  500HO4     MW 2000   0.691   6.093   8.779
  501HO4     OW 2001   4.687   9.626   8.203
  501HO4    HW1 2002   4.618   9.668   8.254
  501HO4    HW2 2003   4.756   9.693   8.197
  501HO4     MW 2004   4.687   9.626   8.203
  502HO4     OW 2005   8.745   5.765   1.718
  502HO4    HW1 2006   8.825   5.733   1.761
  502HO4    HW2 2007   8.743   5.719   1.634
  502HO4     MW 2008   8.745   5.765   1.718
  503HO4     OW 2009   0.934   2.723   4.615
  503HO4    HW1 2010   0.987   2.673   4.553
  503HO4    HW2 2011   0.952   2.682   4.701
  503HO4     MW 2012   0.934   2.723   4.615
  504HO4     OW 2013   0.074   6.518   0.219
  504HO4    HW1 2014   0.089   6.524   0.124
  504HO4    HW2 2015   0.122   6.593   0.256
  504HO4     MW 2016   0.074   6.518   0.219
  505HO4     OW 2017   4.419   6.338   6.977
  505HO4    HW1 2018   4.345   6.393   6.948
  505HO4    HW2 2019   4.461   6.388   7.046
  505HO4     MW 2020   4.419   6.338   6.977
  506HO4     OW 2021   1.423   0.879   4.388
  506HO4    HW1 2022   1.354   0.846   4.446
  506HO4    HW2 2023   1.389   0.863   4.299
  506HO4     MW 2024   1.423   0.879   4.388
  507HO4     OW 2025   2.305   7.535   5.602
  507HO4    HW1 2026   2.366   7.537   5.528
  507HO4    HW2 2027   2.363   7.533   5.680
  507HO4     MW 2028   2.305   7.535   5.602
  508HO4     OW 2029   8.169   0.523   9.865
  508HO4    HW1 2030   8.121   0.550   9.944
  508HO4    HW2 2031   8.122   0.564   9.793
  508HO4     MW 2032   8.169   0.523   9.865
  509HO4     OW 2033   4.582   8.613   0.689
  509HO4    HW1 2034   4.668   8.621   0.730
  509HO4    HW2 2035   4.581   8.682   0.622
  509HO4     MW 2036   4.582   8.613   0.689
  510HO4     OW 2037   2.728   2.308   7.738
  510HO4    HW1 2038   2.770   2.366   7.673
  510HO4    HW2 2039   2.765   2.337   7.822
  510HO4     MW 2040   2.728   2.308   7.738
  511HO4     OW 2041   7.021   9.022   2.874
  511HO4    HW1 2042   7.040   9.051   2.964
  511HO4    HW2 2043   6.980   9.099   2.833
  511HO4     MW 2044   7.021   9.022   2.874
  512HO4     OW 2045   3.505   9.000   5.330
  512HO4    HW1 2046   3.594   9.006   5.364
  512HO4    HW2 2047   3.515   8.967   5.240
  512HO4     MW 2048   3.505   9.000   5.330
  513HO4     OW 2049   8.329   7.073   2.704
  513HO4    HW1 2050   8.354   7.111   2.789
  513HO4    HW2 2051   8.392   7.001   2.691
  513HO4     MW 2052   8.329   7.073   2.704
  514HO4     OW 2053   9.812   4.936   9.901
  514HO4    HW1 2054   9.886   4.889   9.939
  514HO4    HW2 2055   9.765   4.869   9.850
  514HO4     MW 2056   9.812   4.936   9.901
  515HO4     OW 2057   3.391   8.461   7.455
  515HO4    HW1 2058   3.332   8.514   7.510
  515HO4    HW2 2059   3.393   8.376   7.499
  515HO4     MW 2060   3.391   8.461   7.455
  516HO4     OW 2061   7.761   3.648   4.285
  516HO4    HW1 2062   7.732   3.607   4.367
  516HO4    HW2 2063   7.722   3.594   4.216
  516HO4     MW 2064   7.761   3.648   4.285
  517HO4     OW 2065   1.419   2.856   6.253
  517HO4    HW1 2066   1.376   2.774   6.227
  517HO4    HW2 2067   1.449   2.840   6.343
  517HO4     MW 2068   1.419   2.856   6.253
  518HO4     OW 2069   9.113   6.935   7.626
  518HO4    HW1 2070   9.048   6.890   7.681
  518HO4    HW2 2071   9.196   6.927   7.675
  518HO4     MW 2072   9.113   6.935   7.626
  519HO4     OW 2073   6.307   3.645   2.717
  519HO4    HW1 2074   6.285   3.599   2.636
  519HO4    HW2 2075   6.383   3.597   2.752
  519HO4     MW 2076   6.307   3.645   2.717
  520HO4     OW 2077   2.273   2.148   7.706
  520HO4    HW1 2078   2.317   2.176   7.625
  520HO4    HW2 2079   2.208   2.083   7.676
  520HO4     MW 2080   2.273   2.148   7.706
  521HO4     OW 2081   0.984   2.280   6.228
  521HO4    HW1 2082   1.078   2.278   6.206
  521HO4    HW2 2083   0.981   2.310   6.319
  521HO4     MW 2084   0.984   2.280   6.228
  522HO4     OW 2085   4.555   8.013   5.205
  522HO4    HW1 2086   4.589   7.985   5.120
  522HO4    HW2 2087   4.622   7.985   5.268
  522HO4     MW 2088   4.555   8.013   5.205
  523HO4     OW 2089   5.444   3.660   5.580
  523HO4    HW1 2090   5.376   3.715   5.539
  523HO4    HW2 2091   5.526   3.688   5.539
  523HO4     MW 2092   5.444   3.660   5.580
  524HO4     OW 2093   0.789   7.718   2.496
  524HO4    HW1 2094   0.757   7.747   2.582
  524HO4    HW2 2095   0.884   7.714   2.506
  524HO4     MW 2096   0.789   7.718   2.496
  525HO4     OW 2097   9.311   1.560   0.326
  525HO4    HW1 2098   9.326   1.605   0.243
  525HO4    HW2 2099   9.393   1.573   0.375
  525HO4     MW 2100   9.311   1.560   0.326
  526HO4     OW 2101   4.028   4.232   9.475
  526HO4    HW1 2102   4.099   4.238   9.410
  526HO4    HW2 2103   4.070   4.254   9.558
  526HO4     MW 2104   4.028   4.232   9.475
  527HO4     OW 2105   3.462   0.581   5.624
  527HO4    HW1 2106   3.407   0.547   5.695
  527HO4    HW2 2107   3.466   0.508   5.561
  527HO4     MW 2108   3.462   0.581   5.624
  528HO4     OW 2109   9.529   0.263   1.825
  528HO4    HW1 2110   9.519   0.245   1.731
  528HO4    HW2 2111   9.444   0.300   1.851
  528HO4     MW 2112   9.529   0.263   1.825
  529HO4     OW 2113   2.638   9.186   7.717
  529HO4    HW1 2114   2.574   9.255   7.696
  529HO4    HW2 2115   2.669   9.154   7.632
  529HO4     MW 2116   2.638   9.186   7.717
  530HO4     OW 2117   5.408   8.761   2.599
  530HO4    HW1 2118   5.345   8.784   2.668
  530HO4    HW2 2119   5.395   8.667   2.585
  530HO4     MW 2120   5.408   8.761   2.599
  531HO4     OW 2121   0.629   3.885   3.310
  531HO4    HW1 2122   0.668   3.843   3.233
  531HO4    HW2 2123   0.671   3.841   3.385
  531HO4     MW 2124   0.629   3.885   3.310
  532HO4     OW 2125   5.217   0.424   0.416
  532HO4    HW1 2126   5.281   0.361   0.382
  532HO4    HW2 2127   5.265   0.474   0.483
  532HO4     MW 2128   5.217   0.424   0.416
  533HO4     OW 2129   2.579   9.073   3.209
  533HO4    HW1 2130   2.644   9.054   3.142
  533HO4    HW2 2131   2.496   9.040   3.172
  533HO4     MW 2132   2.579   9.073   3.209
  534HO4     OW 2133   5.491   7.855   1.894
  534HO4    HW1 2134   5.552   7.897   1.956
  534HO4    HW2 2135   5.540   7.853   1.811
  534HO4     MW 2136   5.491   7.855   1.894
  535HO4     OW 2137   9.212   4.988   6.309
  535HO4    HW1 2138   9.121   4.998   6.278
  535HO4    HW2 2139   9.243   4.908   6.266
  535HO4     MW 2140   9.212   4.988   6.309
  536HO4     OW 2141   3.888   6.772   7.915
  536HO4    HW1 2142   3.930   6.806   7.835
  536HO4    HW2 2143   3.859   6.684   7.891
  536HO4     MW 2144   3.888   6.772   7.915
  537HO4     OW 2145   9.846   7.436   5.574
  537HO4    HW1 2146   9.930   7.439   5.621
  537HO4    HW2 2147   9.783   7.476   5.635
  537HO4     MW 2148   9.846   7.436   5.574
  538HO4     OW 2149   1.128   8.040   6.730
  538HO4    HW1 2150   1.106   8.133   6.740
  538HO4    HW2 2151   1.065   8.007   6.665
  538HO4     MW 2152   1.128   8.040   6.730
  539HO4     OW 2153   5.076   3.604   7.462
  539HO4    HW1 2154   5.138   3.603   7.388
  539HO4    HW2 2155   5.132   3.605   7.540
  539HO4     MW 2156   5.076   3.604   7.462
  540HO4     OW 2157   9.211   7.387   2.350
  540HO4    HW1 2158   9.147   7.400   2.421
  540HO4    HW2 2159   9.200   7.294   2.325
  540HO4     MW 2160   9.211   7.387   2.350
  541HO4     OW 2161   0.672   8.251   3.897
  541HO4    HW1 2162   0.707   8.259   3.808
  541HO4    HW2 2163   0.579   8.230   3.884
  541HO4     MW 2164   0.672   8.251   3.897
  542HO4     OW 2165   4.209   0.170   5.971
  542HO4    HW1 2166   4.272   0.236   6.003
  542HO4    HW2 2167   4.198   0.191   5.877
  542HO4     MW 2168   4.209   0.170   5.971
  543HO4     OW 2169   6.976   3.282   3.682
  543HO4    HW1 2170   6.926   3.206   3.713
  543HO4    HW2 2171   7.038   3.246   3.618
  543HO4     MW 2172   6.976   3.282   3.682
  544HO4     OW 2173   0.483   2.182   7.889
  544HO4    HW1 2174   0.519   2.225   7.811
  544HO4    HW2 2175   0.423   2.247   7.928
  544HO4     MW 2176   0.483   2.182   7.889
  545HO4     OW 2177   8.980  10.119   1.890
  545HO4    HW1 2178   8.968  10.203   1.935
  545HO4    HW2 2179   8.910  10.117   1.824
  545HO4     MW 2180   8.980  10.119   1.890
  546HO4     OW 2181   5.282   3.279   6.987
  546HO4    HW1 2182   5.304   3.341   7.057
  546HO4    HW2 2183   5.348   3.210   6.995
  546HO4     MW 2184   5.282   3.279   6.987
  547HO4     OW 2185   8.993   8.442   5.995
  547HO4    HW1 2186   9.060   8.433   5.926
  547HO4    HW2 2187   8.990   8.536   6.013
  547HO4     MW 2188   8.993   8.442   5.995
  548HO4     OW 2189   2.116   4.848   8.009
  548HO4    HW1 2190   2.102   4.797   7.929
  548HO4    HW2 2191   2.060   4.806   8.075
  548HO4     MW 2192   2.116   4.848   8.009
  549HO4     OW 2193  10.076   7.473   5.426
  549HO4    HW1 2194  10.065   7.436   5.514
  549HO4    HW2 2195  10.084   7.397   5.369
  549HO4     MW 2196  10.076   7.473   5.426
  550HO4     OW 2197   9.472   0.802   6.400
  550HO4    HW1 2198   9.466   0.724   6.344
  550HO4    HW2 2199   9.421   0.869   6.353
  550HO4     MW 2200   9.472   0.802   6.400
  551HO4     OW 2201   2.075   1.912   6.596
  551HO4    HW1 2202   2.039   1.944   6.679
  551HO4    HW2 2203   2.046   1.976   6.531
  551HO4     MW 2204   2.075   1.912   6.596
  552HO4     OW 2205   5.471   3.252   7.869
  552HO4    HW1 2206   5.438   3.220   7.785
  552HO4    HW2 2207   5.399   3.304   7.905
  552HO4     MW 2208   5.471   3.252   7.869
  553HO4     OW 2209   5.439   5.953   9.634
  553HO4    HW1 2210   5.450   6.022   9.567
  553HO4    HW2 2211   5.478   5.991   9.713
  553HO4     MW 2212   5.439   5.953   9.634
  554HO4     OW 2213   4.668   5.793   3.732
  554HO4    HW1 2214   4.753   5.834   3.750
  554HO4    HW2 2215   4.605   5.844   3.785
  554HO4     MW 2216   4.668   5.793   3.732
  555HO4     OW 2217   8.175   2.230   5.559
  555HO4    HW1 2218   8.229   2.154   5.534
  555HO4    HW2 2219   8.216   2.263   5.640
  555HO4     MW 2220   8.175   2.230   5.559
  556HO4     OW 2221   6.217   2.896   1.236
  556HO4    HW1 2222   6.209   2.984   1.273
  556HO4    HW2 2223   6.184   2.838   1.305
  556HO4     MW 2224   6.217   2.896   1.236
  557HO4     OW 2225   8.436   1.463   5.398
  557HO4    HW1 2226   8.453   1.457   5.303
  557HO4    HW2 2227   8.502   1.407   5.438
  557HO4     MW 2228   8.436   1.463   5.398
  558HO4     OW 2229   1.778   2.688   8.939
  558HO4    HW1 2230   1.751   2.596   8.934
  558HO4    HW2 2231   1.809   2.708   8.850
  558HO4     MW 2232   1.778   2.688   8.939
  559HO4     OW 2233   4.624   2.012   6.416
  559HO4    HW1 2234   4.718   2.004   6.432
  559HO4    HW2 2235   4.594   2.082   6.475
  559HO4     MW 2236   4.624   2.012   6.416
  560HO4     OW 2237   0.472   0.816   2.952
  560HO4    HW1 2238   0.397   0.817   2.892
  560HO4    HW2 2239   0.470   0.727   2.990
  560HO4     MW 2240   0.472   0.816   2.952
  561HO4     OW 2241   9.816   6.103   1.655
  561HO4    HW1 2242   9.767   6.037   1.705
  561HO4    HW2 2243   9.780   6.097   1.566
  561HO4     MW 2244   9.816   6.103   1.655
  562HO4     OW 2245   3.702   6.211   7.820
  562HO4    HW1 2246   3.616   6.252   7.827
  562HO4    HW2 2247   3.761   6.282   7.794
  562HO4     MW 2248   3.702   6.211   7.820
  563HO4     OW 2249   0.432   9.355   9.705
  563HO4    HW1 2250   0.410   9.413   9.778
  563HO4    HW2 2251   0.365   9.373   9.638
  563HO4     MW 2252   0.432   9.355   9.705
  564HO4     OW 2253   3.379   2.449  10.063
  564HO4    HW1 2254   3.324   2.392  10.008
  564HO4    HW2 2255   3.347   2.432  10.152
  564HO4     MW 2256   3.379   2.449  10.063
  565HO4     OW 2257   8.333   8.107  10.032
  565HO4    HW1 2258   8.385   8.055   9.970
  565HO4    HW2 2259   8.286   8.041  10.085
  565HO4     MW 2260   8.333   8.107  10.032
  566HO4     OW 2261   2.134   1.913   0.151
  566HO4    HW1 2262   2.093   1.987   0.196
  566HO4    HW2 2263   2.228   1.923   0.169
  566HO4     MW 2264   2.134   1.913   0.151
  567HO4     OW 2265   9.456   1.619   2.176
  567HO4    HW1 2266   9.501   1.557   2.117
  567HO4    HW2 2267   9.505   1.615   2.258
  567HO4     MW 2268   9.456   1.619   2.176
  568HO4     OW 2269   3.653   3.270   1.077
  568HO4    HW1 2270   3.744   3.253   1.052
  568HO4    HW2 2271   3.658   3.351   1.129
  568HO4     MW 2272   3.653   3.270   1.077
  569HO4     OW 2273   7.711   6.993   8.778
  569HO4    HW1 2274   7.643   6.937   8.816
  569HO4    HW2 2275   7.687   6.998   8.685
  569HO4     MW 2276   7.711   6.993   8.778
  570HO4     OW 2277   2.721   7.673   3.073
  570HO4    HW1 2278   2.776   7.702   3.147
  570HO4    HW2 2279   2.656   7.615   3.113
  570HO4     MW 2280   2.721   7.673   3.073
  571HO4     OW 2281   7.324   8.986   8.722
  571HO4    HW1 2282   7.267   9.052   8.683
  571HO4    HW2 2283   7.383   9.035   8.779
  571HO4     MW 2284   7.324   8.986   8.722
  572HO4     OW 2285   9.361   9.725   3.553
  572HO4    HW1 2286   9.271   9.730   3.585
  572HO4    HW2 2287   9.357   9.762   3.465
  572HO4     MW 2288   9.361   9.725   3.553
  573HO4     OW 2289   1.296   6.695   1.972
  573HO4    HW1 2290   1.250   6.665   2.052
  573HO4    HW2 2291   1.307   6.615   1.920
  573HO4     MW 2292   1.296   6.695   1.972
  574HO4     OW 2293   9.014   0.499   7.540
  574HO4    HW1 2294   9.035   0.434   7.473
  574HO4    HW2 2295   9.054   0.581   7.507
  574HO4     MW 2296   9.014   0.499   7.540
  575HO4     OW 2297   9.687   5.144   9.104
  575HO4    HW1 2298   9.714   5.154   9.012
  575HO4    HW2 2299   9.691   5.049   9.120
  575HO4     MW 2300   9.687   5.144   9.104
  576HO4     OW 2301   1.146   5.339   3.380
  576HO4    HW1 2302   1.137   5.387   3.462
  576HO4    HW2 2303   1.223   5.378   3.337
  576HO4     MW 2304   1.146   5.339   3.380
  577HO4     OW 2305   8.063   5.944   6.844
  577HO4    HW1 2306   8.155   5.919   6.833
  577HO4    HW2 2307   8.044   5.923   6.936
  577HO4     MW 2308   8.063   5.944   6.844
  578HO4     OW 2309   9.094   7.931   1.049
  578HO4    HW1 2310   9.094   8.012   0.998
  578HO4    HW2 2311   9.113   7.960   1.139
  578HO4     MW 2312   9.094   7.931   1.049
  579HO4     OW 2313   5.045   8.760   4.627
  579HO4    HW1 2314   5.073   8.850   4.607
  579HO4    HW2 2315   5.013   8.726   4.543
  579HO4     MW 2316   5.045   8.760   4.627
  580HO4     OW 2317   1.343   4.955   5.021
  580HO4    HW1 2318   1.271   4.902   5.057
  580HO4    HW2 2319   1.299   5.022   4.967
  580HO4     MW 2320   1.343   4.955   5.021
  581HO4     OW 2321   5.830   7.822   5.214
  581HO4    HW1 2322   5.871   7.825   5.301
  581HO4    HW2 2323   5.735   7.827   5.232
  581HO4     MW 2324   5.830   7.822   5.214
  582HO4     OW 2325   6.710   2.327   3.841
  582HO4    HW1 2326   6.702   2.375   3.924
  582HO4    HW2 2327   6.787   2.365   3.798
  582HO4     MW 2328   6.710   2.327   3.841
  583HO4     OW 2329   8.867   8.003   7.328
  583HO4    HW1 2330   8.930   7.954   7.380
  583HO4    HW2 2331   8.919   8.042   7.257
  583HO4     MW 2332   8.867   8.003   7.328
  584HO4     OW 2333   7.668   0.773   9.668
  584HO4    HW1 2334   7.671   0.712   9.593
  584HO4    HW2 2335   7.671   0.716   9.745
  584HO4     MW 2336   7.668   0.773   9.668
  585HO4     OW 2337   8.594   2.222   4.368
  585HO4    HW1 2338   8.638   2.299   4.406
  585HO4    HW2 2339   8.544   2.258   4.294
  585HO4     MW 2340   8.594   2.222   4.368
  586HO4     OW 2341   8.115   6.549   0.756
  586HO4    HW1 2342   8.130   6.478   0.819
  586HO4    HW2 2343   8.103   6.505   0.672
  586HO4     MW 2344   8.115   6.549   0.756
  587HO4     OW 2345   0.829   8.833   5.217
  587HO4    HW1 2346   0.739   8.804   5.233
  587HO4    HW2 2347   0.876   8.812   5.299
  587HO4     MW 2348   0.829   8.833   5.217
  588HO4     OW 2349   9.229   7.410   1.025
  588HO4    HW1 2350   9.218   7.317   1.001
  588HO4    HW2 2351   9.312   7.435   0.982
  588HO4     MW 2352   9.229   7.410   1.025
  589HO4     OW 2353   9.065   5.923   1.186
  589HO4    HW1 2354   9.106   5.973   1.257
  589HO4    HW2 2355   9.034   5.990   1.124
  589HO4     MW 2356   9.065   5.923   1.186
  590HO4     OW 2357   9.326   2.716   5.451
  590HO4    HW1 2358   9.306   2.649   5.518
  590HO4    HW2 2359   9.261   2.700   5.382
  590HO4     MW 2360   9.326   2.716   5.451
  591HO4     OW 2361   7.052   6.722   3.958
  591HO4    HW1 2362   7.009   6.752   4.039
  591HO4    HW2 2363   7.006   6.769   3.888
  591HO4     MW 2364   7.052   6.722   3.958
  592HO4     OW 2365   3.777   3.489   5.210
  592HO4    HW1 2366   3.731   3.535   5.140
  592HO4    HW2 2367   3.741   3.400   5.209
  592HO4     MW 2368   3.777   3.489   5.210
  593HO4     OW 2369   3.410   9.825   2.608
  593HO4    HW1 2370   3.391   9.789   2.521
  593HO4    HW2 2371   3.351   9.900   2.617
  593HO4     MW 2372   3.410   9.825   2.608
  594HO4     OW 2373   8.004   0.981   3.551
  594HO4    HW1 2374   7.972   0.990   3.461
  594HO4    HW2 2375   8.085   0.930   3.543
  594HO4     MW 2376   8.004   0.981   3.551
  595HO4     OW 2377   8.252   1.115   6.683
  595HO4    HW1 2378   8.171   1.087   6.641
  595HO4    HW2 2379   8.294   1.034   6.712
  595HO4     MW 2380   8.252   1.115   6.683
  596HO4     OW 2381   6.643   5.618   8.267
  596HO4    HW1 2382   6.694   5.559   8.324
  596HO4    HW2 2383   6.634   5.569   8.185
  596HO4     MW 2384   6.643   5.618   8.267
  597HO4     OW 2385   7.714   4.634   9.649
  597HO4    HW1 2386   7.721   4.726   9.621
  597HO4    HW2 2387   7.677   4.589   9.573
  597HO4     MW 2388   7.714   4.634   9.649
  598HO4     OW 2389   8.961   0.258   4.783
  598HO4    HW1 2390   8.912   0.263   4.700
  598HO4    HW2 2391   8.905   0.204   4.841
  598HO4     MW 2392   8.961   0.258   4.783
  599HO4     OW 2393   5.835   4.685   6.220
  599HO4    HW1 2394   5.818   4.683   6.315
  599HO4    HW2 2395   5.831   4.593   6.193
  599HO4     MW 2396   5.835   4.685   6.220
  600HO4     OW 2397   5.613   1.621   0.770
  600HO4    HW1 2398   5.584   1.683   0.703
  600HO4    HW2 2399   5.569   1.652   0.851
  600HO4     MW 2400   5.613   1.621   0.770
  601HO4     OW 2401   7.847   5.215   1.286
  601HO4    HW1 2402   7.882   5.213   1.196
  601HO4    HW2 2403   7.768   5.269   1.280
  601HO4     MW 2404   7.847   5.215   1.286
  602HO4     OW 2405   1.682   4.505   9.794
  602HO4    HW1 2406   1.611   4.570   9.793
  602HO4    HW2 2407   1.683   4.470   9.705
  602HO4     MW 2408   1.682   4.505   9.794
  603HO4     OW 2409   8.489   3.545   1.210
  603HO4    HW1 2410   8.462   3.549   1.118
  603HO4    HW2 2411   8.436   3.613   1.253
  603HO4     MW 2412   8.489   3.545   1.210
  604HO4     OW 2413   9.126   0.802   4.748
  604HO4    HW1 2414   9.137   0.725   4.691
  604HO4    HW2 2415   9.138   0.768   4.837
  604HO4     MW 2416   9.126   0.802   4.748
  605HO4     OW 2417   1.047   9.620   7.124
  605HO4    HW1 2418   1.137   9.645   7.101
  605HO4    HW2 2419   0.998   9.630   7.042
  605HO4     MW 2420   1.047   9.620   7.124
  606HO4     OW 2421   3.391   8.992   8.255
  606HO4    HW1 2422   3.396   8.917   8.195
  606HO4    HW2 2423   3.319   8.969   8.315
  606HO4     MW 2424   3.391   8.992   8.255
  607HO4     OW 2425   7.969   4.878   1.730
  607HO4    HW1 2426   8.007   4.922   1.806
  607HO4    HW2 2427   8.017   4.915   1.655
  607HO4     MW 2428   7.969   4.878   1.730
  608HO4     OW 2429   9.913   0.381   0.403
  608HO4    HW1 2430   9.844   0.367   0.469
  608HO4    HW2 2431   9.875   0.350   0.321
  608HO4     MW 2432   9.913   0.381   0.403
  609HO4     OW 2433   3.295   7.076   4.600
  609HO4    HW1 2434   3.368   7.099   4.542
  609HO4    HW2 2435   3.325   7.101   4.688
  609HO4     MW 2436   3.295   7.076   4.600
  610HO4     OW 2437   1.293   0.532   1.313
  610HO4    HW1 2438   1.315   0.480   1.234
  610HO4    HW2 2439   1.314   0.473   1.386
  610HO4     MW 2440   1.293   0.532   1.313
  611HO4     OW 2441   0.044   7.531   3.470
  611HO4    HW1 2442   0.044   7.560   3.378
  611HO4    HW2 2443   0.006   7.606   3.518
  611HO4     MW 2444   0.044   7.531   3.470
  612HO4     OW 2445   1.314   1.603   4.188
  612HO4    HW1 2446   1.385   1.608   4.123
  612HO4    HW2 2447   1.357   1.625   4.272
  612HO4     MW 2448   1.314   1.603   4.188
  613HO4     OW 2449   8.964   0.326   3.590
  613HO4    HW1 2450   8.985   0.409   3.546
  613HO4    HW2 2451   8.889   0.292   3.540
  613HO4     MW 2452   8.964   0.326   3.590
  614HO4     OW 2453   6.954   2.576   8.775
  614HO4    HW1 2454   6.970   2.630   8.697
  614HO4    HW2 2455   6.937   2.640   8.845
  614HO4     MW 2456   6.954   2.576   8.775
  615HO4     OW 2457   5.625  10.160   2.654
  615HO4    HW1 2458   5.627  10.066   2.673
  615HO4    HW2 2459   5.533  10.186   2.669
  615HO4     MW 2460   5.625  10.160   2.654
  616HO4     OW 2461   3.720   5.075   4.670
  616HO4    HW1 2462   3.759   5.094   4.584
  616HO4    HW2 2463   3.795   5.078   4.731
  616HO4     MW 2464   3.720   5.075   4.670
  617HO4     OW 2465  10.040   8.817   8.220
  617HO4    HW1 2466  10.096   8.860   8.154
  617HO4    HW2 2467   9.958   8.800   8.173
  617HO4     MW 2468  10.040   8.817   8.220
  618HO4     OW 2469   8.202   5.183   5.672
  618HO4    HW1 2470   8.125   5.237   5.694
  618HO4    HW2 2471   8.184   5.151   5.583
  618HO4     MW 2472   8.202   5.183   5.672
  619HO4     OW 2473   7.062   3.557   8.353
  619HO4    HW1 2474   7.114   3.499   8.297
  619HO4    HW2 2475   7.081   3.527   8.443
  619HO4     MW 2476   7.062   3.557   8.353
  620HO4     OW 2477  10.075   9.910   5.309
  620HO4    HW1 2478  10.019   9.892   5.386
  620HO4    HW2 2479  10.036   9.988   5.268
  620HO4     MW 2480  10.075   9.910   5.309
  621HO4     OW 2481   3.275   9.998   7.460
  621HO4    HW1 2482   3.283   9.948   7.542
  621HO4    HW2 2483   3.366  10.007   7.428
  621HO4     MW 2484   3.275   9.998   7.460
  622HO4     OW 2485   2.047   1.703   2.320
  622HO4    HW1 2486   2.039   1.760   2.397
  622HO4    HW2 2487   2.025   1.761   2.246
  622HO4     MW 2488   2.047   1.703   2.320
  623HO4     OW 2489   8.492  10.048   7.584
  623HO4    HW1 2490   8.401  10.078   7.593
  623HO4    HW2 2491   8.540  10.095   7.653
  623HO4     MW 2492   8.492  10.048   7.584
  624HO4     OW 2493   7.911   5.014   8.952
  624HO4    HW1 2494   7.990   5.066   8.934
  624HO4    HW2 2495   7.844   5.078   8.977
  624HO4     MW 2496   7.911   5.014   8.952
  625HO4     OW 2497   0.129   7.283   4.254
  625HO4    HW1 2498   0.211   7.275   4.204
  625HO4    HW2 2499   0.106   7.193   4.277
  625HO4     MW 2500   0.129   7.283   4.254
  626HO4     OW 2501   8.462   4.505   1.051
  626HO4    HW1 2502   8.461   4.411   1.072
  626HO4    HW2 2503   8.530   4.514   0.984
  626HO4     MW 2504   8.462   4.505   1.051
  627HO4     OW 2505   5.862   0.675   7.257
  627HO4    HW1 2506   5.888   0.733   7.185
  627HO4    HW2 2507   5.901   0.716   7.335
  627HO4     MW 2508   5.862   0.675   7.257
  628HO4     OW 2509   0.608   1.300   5.224
  628HO4    HW1 2510   0.656   1.261   5.297
  628HO4    HW2 2511   0.669   1.297   5.150
  628HO4     MW 2512   0.608   1.300   5.224
  629HO4     OW 2513   6.066   5.711   6.834
  629HO4    HW1 2514   6.041   5.785   6.777
  629HO4    HW2 2515   6.101   5.752   6.913
  629HO4     MW 2516   6.066   5.711   6.834
  630HO4     OW 2517   1.858   0.162   4.551
  630HO4    HW1 2518   1.845   0.224   4.625
  630HO4    HW2 2519   1.889   0.218   4.479
  630HO4     MW 2520   1.858   0.162   4.551
  631HO4     OW 2521   2.462   3.499   9.750
  631HO4    HW1 2522   2.450   3.556   9.826
  631HO4    HW2 2523   2.534   3.540   9.700
  631HO4     MW 2524   2.462   3.499   9.750
  632HO4     OW 2525   6.758   2.706   0.729
  632HO4    HW1 2526   6.772   2.746   0.643
  632HO4    HW2 2527   6.798   2.619   0.723
  632HO4     MW 2528   6.758   2.706   0.729
  633HO4     OW 2529   6.686   1.050   8.360
  633HO4    HW1 2530   6.712   0.958   8.369
  633HO4    HW2 2531   6.769   1.099   8.361
  633HO4     MW 2532   6.686   1.050   8.360
  634HO4     OW 2533   4.477   8.371   6.524
  634HO4    HW1 2534   4.515   8.420   6.598
  634HO4    HW2 2535   4.509   8.418   6.446
  634HO4     MW 2536   4.477   8.371   6.524
  635HO4     OW 2537   5.464   4.655   6.461
  635HO4    HW1 2538   5.500   4.696   6.382
  635HO4    HW2 2539   5.476   4.721   6.530
  635HO4     MW 2540   5.464   4.655   6.461
  636HO4     OW 2541   5.212   8.746   2.069
  636HO4    HW1 2542   5.226   8.773   1.978
  636HO4    HW2 2543   5.236   8.823   2.121
  636HO4     MW 2544   5.212   8.746   2.069
  637HO4     OW 2545   2.484   1.770   3.490
  637HO4    HW1 2546   2.485   1.737   3.581
  637HO4    HW2 2547   2.575   1.760   3.460
  637HO4     MW 2548   2.484   1.770   3.490
  638HO4     OW 2549   4.999   0.849   2.120
  638HO4    HW1 2550   5.093   0.864   2.105
  638HO4    HW2 2551   4.958   0.868   2.035
  638HO4     MW 2552   4.999   0.849   2.120
  639HO4     OW 2553   0.089   7.435   0.024
  639HO4    HW1 2554   0.018   7.450  -0.039
  639HO4    HW2 2555   0.121   7.524   0.046
  639HO4     MW 2556   0.089   7.435   0.024
  640HO4     OW 2557   4.100   9.654   6.015
  640HO4    HW1 2558   4.191   9.682   6.025
  640HO4    HW2 2559   4.077   9.617   6.101
  640HO4     MW 2560   4.100   9.654   6.015
  641HO4     OW 2561   7.507   0.953   4.467
  641HO4    HW1 2562   7.580   0.968   4.407
  641HO4    HW2 2563   7.454   0.886   4.423
  641HO4     MW 2564   7.507   0.953   4.467
  642HO4     OW 2565   3.387   4.947   0.796
  642HO4    HW1 2566   3.426   4.960   0.883
  642HO4    HW2 2567   3.309   5.003   0.796
  642HO4     MW 2568   3.387   4.947   0.796
  643HO4     OW 2569   4.917   5.608   3.340
  643HO4    HW1 2570   4.851   5.673   3.311
  643HO4    HW2 2571   5.001   5.648   3.316
  643HO4     MW 2572   4.917   5.608   3.340
  644HO4     OW 2573   6.578   5.751   5.812
  644HO4    HW1 2574   6.635   5.789   5.880
  644HO4    HW2 2575   6.614   5.662   5.799
  644HO4     MW 2576   6.578   5.751   5.812
  645HO4     OW 2577   6.985   7.621  10.129
  645HO4    HW1 2578   6.983   7.635  10.224
  645HO4    HW2 2579   7.079   7.617  10.107
  645HO4     MW 2580   6.985   7.621  10.129
  646HO4     OW 2581   8.463   6.624   0.106
  646HO4    HW1 2582   8.513   6.591   0.182
  646HO4    HW2 2583   8.510   6.590   0.030
  646HO4     MW 2584   8.463   6.624   0.106
  647HO4     OW 2585   8.349   0.112   5.207
  647HO4    HW1 2586   8.271   0.062   5.180
  647HO4    HW2 2587   8.378   0.157   5.127
  647HO4     MW 2588   8.349   0.112   5.207
  648HO4     OW 2589   1.911   6.801   2.222
  648HO4    HW1 2590   1.972   6.855   2.274
  648HO4    HW2 2591   1.850   6.864   2.184
  648HO4     MW 2592   1.911   6.801   2.222
  649HO4     OW 2593   5.519   8.066   2.058
  649HO4    HW1 2594   5.502   8.149   2.012
  649HO4    HW2 2595   5.439   8.014   2.042
  649HO4     MW 2596   5.519   8.066   2.058
  650HO4     OW 2597   8.624   7.905   8.539
  650HO4    HW1 2598   8.580   7.976   8.492
  650HO4    HW2 2599   8.552   7.858   8.583
  650HO4     MW 2600   8.624   7.905   8.539
  651HO4     OW 2601   3.548   8.513   8.855
  651HO4    HW1 2602   3.579   8.493   8.944
  651HO4    HW2 2603   3.629   8.515   8.802
  651HO4     MW 2604   3.548   8.513   8.855
  652HO4     OW 2605   4.070   7.508   5.015
  652HO4    HW1 2606   4.052   7.449   5.089
  652HO4    HW2 2607   4.014   7.476   4.944
  652HO4     MW 2608   4.070   7.508   5.015
  653HO4     OW 2609   2.081  10.113   6.849
  653HO4    HW1 2610   2.055  10.041   6.791
  653HO4    HW2 2611   2.073  10.076   6.938
  653HO4     MW 2612   2.081  10.113   6.849
  654HO4     OW 2613   5.222   0.254   8.222
  654HO4    HW1 2614   5.187   0.273   8.309
  654HO4    HW2 2615   5.152   0.281   8.162
  654HO4     MW 2616   5.222   0.254   8.222
  655HO4     OW 2617   9.457   9.145   1.733
  655HO4    HW1 2618   9.392   9.158   1.664
  655HO4    HW2 2619   9.420   9.190   1.809
  655HO4     MW 2620   9.457   9.145   1.733
  656HO4     OW 2621   7.688   2.147   9.415
  656HO4    HW1 2622   7.744   2.225   9.415
  656HO4    HW2 2623   7.709   2.102   9.332
  656HO4     MW 2624   7.688   2.147   9.415
  657HO4     OW 2625   9.127   6.212   8.499
  657HO4    HW1 2626   9.199   6.154   8.524
  657HO4    HW2 2627   9.147   6.295   8.544
  657HO4     MW 2628   9.127   6.212   8.499
  658HO4     OW 2629   0.554  10.104   7.041
  658HO4    HW1 2630   0.471  10.068   7.007
  658HO4    HW2 2631   0.587  10.035   7.100
  658HO4     MW 2632   0.554  10.104   7.041
  659HO4     OW 2633   3.509   2.500   6.514
  659HO4    HW1 2634   3.529   2.587   6.549
  659HO4    HW2 2635   3.567   2.490   6.439
  659HO4     MW 2636   3.509   2.500   6.514
  660HO4     OW 2637   0.903   2.641   7.122
  660HO4    HW1 2638   0.947   2.676   7.200
  660HO4    HW2 2639   0.974   2.628   7.058
  660HO4     MW 2640   0.903   2.641   7.122
  661HO4     OW 2641   9.321   5.278   3.141
  661HO4    HW1 2642   9.324   5.342   3.212
  661HO4    HW2 2643   9.387   5.310   3.078
  661HO4     MW 2644   9.321   5.278   3.141
  662HO4     OW 2645   3.086   1.978   8.653
  662HO4    HW1 2646   3.133   1.931   8.583
  662HO4    HW2 2647   3.153   2.033   8.694
  662HO4     MW 2648   3.086   1.978   8.653
  663HO4     OW 2649   7.878   4.933   0.583
  663HO4    HW1 2650   7.918   4.995   0.522
  663HO4    HW2 2651   7.851   4.986   0.658
  663HO4     MW 2652   7.878   4.933   0.583
  664HO4     OW 2653   5.646   2.669   2.518
  664HO4    HW1 2654   5.696   2.668   2.601
  664HO4    HW2 2655   5.691   2.604   2.463
  664HO4     MW 2656   5.646   2.669   2.518
  665HO4     OW 2657   1.925   3.721  10.050
  665HO4    HW1 2658   1.940   3.704   9.957
  665HO4    HW2 2659   1.943   3.637  10.093
  665HO4     MW 2660   1.925   3.721  10.050
  666HO4     OW 2661   2.623   7.639  10.050
  666HO4    HW1 2662   2.531   7.658  10.066
  666HO4    HW2 2663   2.625   7.601   9.962
  666HO4     MW 2664   2.623   7.639  10.050
  667HO4     OW 2665   4.155   9.785   5.783
  667HO4    HW1 2666   4.126   9.765   5.872
  667HO4    HW2 2667   4.132   9.877   5.770
  667HO4     MW 2668   4.155   9.785   5.783
  668HO4     OW 2669   6.586   9.397   5.987
  668HO4    HW1 2670   6.550   9.355   6.066
  668HO4    HW2 2671   6.545   9.484   5.986
  668HO4     MW 2672   6.586   9.397   5.987
  669HO4     OW 2673   2.896   2.172   1.661
  669HO4    HW1 2674   2.833   2.100   1.664
  669HO4    HW2 2675   2.845   2.249   1.687
  669HO4     MW 2676   2.896   2.172   1.661
  670HO4     OW 2677   7.319   9.651   9.538
  670HO4    HW1 2678   7.264   9.667   9.615
  670HO4    HW2 2679   7.283   9.709   9.470
  670HO4     MW 2680   7.319   9.651   9.538
  671HO4     OW 2681   8.221   0.362   7.651
  671HO4    HW1 2682   8.292   0.398   7.705
  671HO4    HW2 2683   8.147   0.353   7.712
  671HO4     MW 2684   8.221   0.362   7.651
  672HO4     OW 2685   3.691   0.090   9.268
  672HO4    HW1 2686   3.694   0.077   9.173
  672HO4    HW2 2687   3.774   0.133   9.289
  672HO4     MW 2688   3.691   0.090   9.268
  673HO4     OW 2689   9.237   8.591   7.735
  673HO4    HW1 2690   9.271   8.542   7.660
  673HO4    HW2 2691   9.283   8.553   7.811
  673HO4     MW 2692   9.237   8.591   7.735
  674HO4     OW 2693   3.240   9.313   0.061
  674HO4    HW1 2694   3.297   9.293  -0.014
  674HO4    HW2 2695   3.295   9.295   0.138
  674HO4     MW 2696   3.240   9.313   0.061
  675HO4     OW 2697   6.609   3.036   1.750
  675HO4    HW1 2698   6.672   3.032   1.823
  675HO4    HW2 2699   6.637   3.111   1.698
  675HO4     MW 2700   6.609   3.036   1.750
  676HO4     OW 2701   2.463   4.583   0.935
  676HO4    HW1 2702   2.416   4.666   0.925
  676HO4    HW2 2703   2.393   4.517   0.944
  676HO4     MW 2704   2.463   4.583   0.935
  677HO4     OW 2705   3.312   1.459   6.957
  677HO4    HW1 2706   3.322   1.477   6.863
  677HO4    HW2 2707   3.252   1.527   6.988
  677HO4     MW 2708   3.312   1.459   6.957
  678HO4     OW 2709   0.269   4.975   5.713
  678HO4    HW1 2710   0.248   5.063   5.745
  678HO4    HW2 2711   0.228   4.916   5.776
  678HO4     MW 2712   0.269   4.975   5.713
  679HO4     OW 2713   2.738   5.631   4.882
  679HO4    HW1 2714   2.695   5.674   4.957
  679HO4    HW2 2715   2.761   5.703   4.823
  679HO4     MW 2716   2.738   5.631   4.882
  680HO4     OW 2717   6.280   4.478   1.905
  680HO4    HW1 2718   6.294   4.392   1.946
  680HO4    HW2 2719   6.301   4.463   1.812
  680HO4     MW 2720   6.280   4.478   1.905
  681HO4     OW 2721   1.995   0.165   8.813
  681HO4    HW1 2722   1.975   0.236   8.875
  681HO4    HW2 2723   1.980   0.204   8.726
  681HO4     MW 2724   1.995   0.165   8.813
  682HO4     OW 2725   8.399   4.780   2.892
  682HO4    HW1 2726   8.357   4.825   2.966
  682HO4    HW2 2727   8.369   4.828   2.814
  682HO4     MW 2728   8.399   4.780   2.892
  683HO4     OW 2729   3.772   7.186   4.091
  683HO4    HW1 2730   3.703   7.253   4.086
  683HO4    HW2 2731   3.765   7.140   4.006
  683HO4     MW 2732   3.772   7.186   4.091
  684HO4     OW 2733   8.439   7.930   3.402
  684HO4    HW1 2734   8.474   8.001   3.347
  684HO4    HW2 2735   8.516   7.897   3.449
  684HO4     MW 2736   8.439   7.930   3.402
  685HO4     OW 2737   5.581   1.388   4.501
  685HO4    HW1 2738   5.664   1.341   4.485
  685HO4    HW2 2739   5.519   1.319   4.526
  685HO4     MW 2740   5.581   1.388   4.501
  686HO4     OW 2741   4.511   7.344   5.085
  686HO4    HW1 2742   4.491   7.365   4.993
  686HO4    HW2 2743   4.606   7.351   5.090
  686HO4     MW 2744   4.511   7.344   5.085
  687HO4     OW 2745   2.701   6.994   5.016
  687HO4    HW1 2746   2.782   6.943   5.005
  687HO4    HW2 2747   2.655   6.950   5.088
  687HO4     MW 2748   2.701   6.994   5.016
  688HO4     OW 2749   1.661   5.924   8.826
  688HO4    HW1 2750   1.643   5.959   8.738
  688HO4    HW2 2751   1.628   5.991   8.886
  688HO4     MW 2752   1.661   5.924   8.826
  689HO4     OW 2753   7.699   5.664   0.700
  689HO4    HW1 2754   7.670   5.736   0.756
  689HO4    HW2 2755   7.739   5.707   0.624
  689HO4     MW 2756   7.699   5.664   0.700
  690HO4     OW 2757   7.497   5.748   8.191
  690HO4    HW1 2758   7.507   5.669   8.136
  690HO4    HW2 2759   7.507   5.715   8.281
  690HO4     MW 2760   7.497   5.748   8.191
  691HO4     OW 2761  10.129   8.171   6.939
  691HO4    HW1 2762  10.065   8.104   6.964
  691HO4    HW2 2763  10.076   8.245   6.908
  691HO4     MW 2764  10.129   8.171   6.939
  692HO4     OW 2765   9.441   9.863   8.078
  692HO4    HW1 2766   9.474   9.840   7.990
  692HO4    HW2 2767   9.408   9.953   8.068
  692HO4     MW 2768   9.441   9.863   8.078
  693HO4     OW 2769   3.179   9.284   9.055
  693HO4    HW1 2770   3.215   9.344   8.989
  693HO4    HW2 2771   3.231   9.300   9.134
  693HO4     MW 2772   3.179   9.284   9.055
  694HO4     OW 2773   1.461   2.045   3.207
  694HO4    HW1 2774   1.489   1.994   3.283
  694HO4    HW2 2775   1.381   2.001   3.176
  694HO4     MW 2776   1.461   2.045   3.207
  695HO4     OW 2777   2.738   1.489   4.054
  695HO4    HW1 2778   2.734   1.426   4.126
  695HO4    HW2 2779   2.722   1.435   3.975
  695HO4     MW 2780   2.738   1.489   4.054
  696HO4     OW 2781   3.178   0.631   0.687
  696HO4    HW1 2782   3.121   0.628   0.610
  696HO4    HW2 2783   3.118   0.625   0.762
  696HO4     MW 2784   3.178   0.631   0.687
  697HO4     OW 2785   9.788   9.787   4.206
  697HO4    HW1 2786   9.832   9.782   4.121
  697HO4    HW2 2787   9.860   9.788   4.270
  697HO4     MW 2788   9.788   9.787   4.206
  698HO4     OW 2789   0.115   7.604   8.298
  698HO4    HW1 2790   0.146   7.646   8.217
  698HO4    HW2 2791   0.102   7.512   8.274
  698HO4     MW 2792   0.115   7.604   8.298
  699HO4     OW 2793   9.360   2.044   7.752
  699HO4    HW1 2794   9.438   2.040   7.696
  699HO4    HW2 2795   9.357   1.958   7.795
  699HO4     MW 2796   9.360   2.044   7.752
  700HO4     OW 2797   7.990   6.141   6.255
  700HO4    HW1 2798   8.049   6.164   6.327
  700HO4    HW2 2799   8.046   6.142   6.177
  700HO4     MW 2800   7.990   6.141   6.255
  701HO4     OW 2801   2.886   7.701   8.438
  701HO4    HW1 2802   2.898   7.687   8.343
  701HO4    HW2 2803   2.947   7.639   8.479
  701HO4     MW 2804   2.886   7.701   8.438
  702HO4     OW 2805   9.224   6.137   0.635
  702HO4    HW1 2806   9.297   6.105   0.581
  702HO4    HW2 2807   9.254   6.123   0.726
  702HO4     MW 2808   9.224   6.137   0.635
  703HO4     OW 2809   6.063   5.938   7.763
  703HO4    HW1 2810   6.042   5.945   7.669
  703HO4    HW2 2811   6.152   5.903   7.764
  703HO4     MW 2812   6.063   5.938   7.763
  704HO4     OW 2813   2.962   7.260   9.002
  704HO4    HW1 2814   3.041   7.207   8.987
  704HO4    HW2 2815   2.946   7.304   8.918
  704HO4     MW 2816   2.962   7.260   9.002
  705HO4     OW 2817   3.537   4.185   6.854
  705HO4    HW1 2818   3.491   4.151   6.931
  705HO4    HW2 2819   3.630   4.172   6.875
  705HO4     MW 2820   3.537   4.185   6.854
  706HO4     OW 2821   8.674   4.371   8.113
  706HO4    HW1 2822   8.690   4.321   8.194
  706HO4    HW2 2823   8.579   4.383   8.111
  706HO4     MW 2824   8.674   4.371   8.113
  707HO4     OW 2825   5.562   1.800   5.695
  707HO4    HW1 2826   5.541   1.894   5.700
  707HO4    HW2 2827   5.649   1.798   5.655
  707HO4     MW 2828   5.562   1.800   5.695
  708HO4     OW 2829   3.204   4.131   7.887
  708HO4    HW1 2830   3.299   4.115   7.888
  708HO4    HW2 2831   3.179   4.131   7.981
  708HO4     MW 2832   3.204   4.131   7.887
  709HO4     OW 2833   9.698   8.261   1.191
  709HO4    HW1 2834   9.675   8.175   1.154
  709HO4    HW2 2835   9.794   8.266   1.180
  709HO4     MW 2836   9.698   8.261   1.191
  710HO4     OW 2837   4.131   8.004   7.269
  710HO4    HW1 2838   4.194   7.935   7.245
  710HO4    HW2 2839   4.052   7.982   7.218
  710HO4     MW 2840   4.131   8.004   7.269
  711HO4     OW 2841   7.864   8.832   5.388
  711HO4    HW1 2842   7.797   8.809   5.321
  711HO4    HW2 2843   7.871   8.753   5.442
  711HO4     MW 2844   7.864   8.832   5.388
  712HO4     OW 2845   0.811   9.532   2.951
  712HO4    HW1 2846   0.822   9.604   3.014
  712HO4    HW2 2847   0.734   9.557   2.899
  712HO4     MW 2848   0.811   9.532   2.951
  713HO4     OW 2849   1.277   6.045   9.895
  713HO4    HW1 2850   1.267   5.971   9.835
  713HO4    HW2 2851   1.251   6.010   9.981
  713HO4     MW 2852   1.277   6.045   9.895
  714HO4     OW 2853   9.936   7.871   7.512
  714HO4    HW1 2854   9.974   7.908   7.592
  714HO4    HW2 2855   9.925   7.777   7.531
  714HO4     MW 2856   9.936   7.871   7.512
  715HO4     OW 2857   0.225   8.768   8.356
  715HO4    HW1 2858   0.239   8.684   8.400
  715HO4    HW2 2859   0.206   8.744   8.264
  715HO4     MW 2860   0.225   8.768   8.356
  716HO4     OW 2861   0.631   7.731   0.198
  716HO4    HW1 2862   0.646   7.669   0.126
  716HO4    HW2 2863   0.649   7.680   0.277
  716HO4     MW 2864   0.631   7.731   0.198
  717HO4     OW 2865   5.685   5.174   3.220
  717HO4    HW1 2866   5.589   5.175   3.225
  717HO4    HW2 2867   5.708   5.261   3.188
  717HO4     MW 2868   5.685   5.174   3.220
  718HO4     OW 2869   4.159   7.318   4.658
  718HO4    HW1 2870   4.106   7.345   4.582
  718HO4    HW2 2871   4.102   7.333   4.734
  718HO4     MW 2872   4.159   7.318   4.658
  719HO4     OW 2873   8.892   1.038   9.407
  719HO4    HW1 2874   8.953   1.012   9.476
  719HO4    HW2 2875   8.922   0.990   9.329
  719HO4     MW 2876   8.892   1.038   9.407
  720HO4     OW 2877   5.476   1.877   9.485
  720HO4    HW1 2878   5.508   1.820   9.415
  720HO4    HW2 2879   5.488   1.966   9.451
  720HO4     MW 2880   5.476   1.877   9.485
  721HO4     OW 2881   3.716   2.670   6.016
  721HO4    HW1 2882   3.750   2.601   5.959
  721HO4    HW2 2883   3.794   2.718   6.046
  721HO4     MW 2884   3.716   2.670   6.016
  722HO4     OW 2885   9.116   8.146   6.955
  722HO4    HW1 2886   9.171   8.172   6.880
  722HO4    HW2 2887   9.126   8.051   6.960
  722HO4     MW 2888   9.116   8.146   6.955
  723HO4     OW 2889   0.315   0.417   3.541
  723HO4    HW1 2890   0.311   0.511   3.563
  723HO4    HW2 2891   0.395   0.386   3.584
  723HO4     MW 2892   0.315   0.417   3.541
  724HO4     OW 2893   1.400   3.296   7.557
  724HO4    HW1 2894   1.431   3.247   7.480
  724HO4    HW2 2895   1.328   3.243   7.592
  724HO4     MW 2896   1.400   3.296   7.557
  725HO4     OW 2897   4.459   9.278   4.872
  725HO4    HW1 2898   4.468   9.195   4.825
  725HO4    HW2 2899   4.455   9.253   4.965
  725HO4     MW 2900   4.459   9.278   4.872
  726HO4     OW 2901   3.316   3.079   6.788
  726HO4    HW1 2902   3.407   3.102   6.808
  726HO4    HW2 2903   3.313   2.983   6.794
  726HO4     MW 2904   3.316   3.079   6.788
  727HO4     OW 2905   9.908   5.811   6.958
  727HO4    HW1 2906   9.957   5.762   6.891
  727HO4    HW2 2907   9.977   5.846   7.016
  727HO4     MW 2908   9.908   5.811   6.958
  728HO4     OW 2909   7.168   3.838   0.853
  728HO4    HW1 2910   7.225   3.914   0.862
  728HO4    HW2 2911   7.164   3.822   0.758
  728HO4     MW 2912   7.168   3.838   0.853
  729HO4     OW 2913   3.765   2.366   8.380
  729HO4    HW1 2914   3.781   2.459   8.400
  729HO4    HW2 2915   3.688   2.344   8.434
  729HO4     MW 2916   3.765   2.366   8.380
  730HO4     OW 2917   2.292   9.951   7.815
  730HO4    HW1 2918   2.357   9.880   7.811
  730HO4    HW2 2919   2.323  10.008   7.885
  730HO4     MW 2920   2.292   9.951   7.815
  731HO4     OW 2921   8.988   3.372   9.733
  731HO4    HW1 2922   8.971   3.424   9.654
  731HO4    HW2 2923   9.014   3.437   9.799
  731HO4     MW 2924   8.988   3.372   9.733
  732HO4     OW 2925   2.280   8.645   1.642
  732HO4    HW1 2926   2.218   8.714   1.670
  732HO4    HW2 2927   2.257   8.629   1.550
  732HO4     MW 2928   2.280   8.645   1.642
  733HO4     OW 2929   5.109   3.913   2.342
  733HO4    HW1 2930   5.157   3.876   2.417
  733HO4    HW2 2931   5.084   3.836   2.290
  733HO4     MW 2932   5.109   3.913   2.342
  734HO4     OW 2933   7.814   3.629   9.101
  734HO4    HW1 2934   7.786   3.540   9.124
  734HO4    HW2 2935   7.897   3.617   9.053
  734HO4     MW 2936   7.814   3.629   9.101
  735HO4     OW 2937   2.183   6.860   1.124
  735HO4    HW1 2938   2.244   6.878   1.195
  735HO4    HW2 2939   2.239   6.842   1.047
  735HO4     MW 2940   2.183   6.860   1.124
  736HO4     OW 2941   9.572   1.075   2.582
  736HO4    HW1 2942   9.604   0.985   2.590
  736HO4    HW2 2943   9.477   1.065   2.567
  736HO4     MW 2944   9.572   1.075   2.582
  737HO4     OW 2945   9.811   2.763   9.562
  737HO4    HW1 2946   9.880   2.777   9.496
  737HO4    HW2 2947   9.811   2.668   9.576
  737HO4     MW 2948   9.811   2.763   9.562
  738HO4     OW 2949   4.337   6.810   0.608
  738HO4    HW1 2950   4.427   6.801   0.640
  738HO4    HW2 2951   4.286   6.834   0.686
  738HO4     MW 2952   4.337   6.810   0.608
  739HO4     OW 2953   5.190   6.214   2.826
  739HO4    HW1 2954   5.265   6.226   2.885
  739HO4    HW2 2955   5.224   6.237   2.739
  739HO4     MW 2956   5.190   6.214   2.826
  740HO4     OW 2957   6.212   5.081   5.241
  740HO4    HW1 2958   6.303   5.066   5.269
  740HO4    HW2 2959   6.169   5.120   5.318
  740HO4     MW 2960   6.212   5.081   5.241
  741HO4     OW 2961   5.866   2.693   8.594
  741HO4    HW1 2962   5.927   2.620   8.577
  741HO4    HW2 2963   5.919   2.772   8.580
  741HO4     MW 2964   5.866   2.693   8.594
  742HO4     OW 2965   9.243   9.841   8.779
  742HO4    HW1 2966   9.201   9.874   8.859
  742HO4    HW2 2967   9.169   9.817   8.722
  742HO4     MW 2968   9.243   9.841   8.779
  743HO4     OW 2969   9.292   0.499   6.132
  743HO4    HW1 2970   9.329   0.481   6.045
  743HO4    HW2 2971   9.252   0.587   6.123
  743HO4     MW 2972   9.292   0.499   6.132
  744HO4     OW 2973   8.275   3.878   2.284
  744HO4    HW1 2974   8.260   3.965   2.322
  744HO4    HW2 2975   8.270   3.818   2.358
  744HO4     MW 2976   8.275   3.878   2.284
  745HO4     OW 2977   1.854   5.720   9.575
  745HO4    HW1 2978   1.849   5.625   9.587
  745HO4    HW2 2979   1.888   5.730   9.485
  745HO4     MW 2980   1.854   5.720   9.575
  746HO4     OW 2981   5.885   1.737   2.596
  746HO4    HW1 2982   5.808   1.782   2.558
  746HO4    HW2 2983   5.951   1.807   2.604
  746HO4     MW 2984   5.885   1.737   2.596
  747HO4     OW 2985   6.927   8.523   8.853
  747HO4    HW1 2986   6.856   8.521   8.918
  747HO4    HW2 2987   6.922   8.436   8.810
  747HO4     MW 2988   6.927   8.523   8.853
  748HO4     OW 2989   9.123   7.133   8.426
  748HO4    HW1 2990   9.082   7.128   8.339
  748HO4    HW2 2991   9.212   7.165   8.408
  748HO4     MW 2992   9.123   7.133   8.426
  749HO4     OW 2993   0.711   0.310   6.975
  749HO4    HW1 2994   0.702   0.369   6.899
  749HO4    HW2 2995   0.696   0.366   7.051
  749HO4     MW 2996   0.711   0.310   6.975
  750HO4     OW 2997   4.381   0.916   1.370
  750HO4    HW1 2998   4.384   0.876   1.457
  750HO4    HW2 2999   4.288   0.937   1.357
  750HO4     MW 3000   4.381   0.916   1.370
  751HO4     OW 3001   0.364   3.133   9.722
  751HO4    HW1 3002   0.439   3.102   9.671
  751HO4    HW2 3003   0.377   3.094   9.809
  751HO4     MW 3004   0.364   3.133   9.722
  752HO4     OW 3005   2.881   7.273   8.561
  752HO4    HW1 3006   2.817   7.214   8.600
  752HO4    HW2 3007   2.828   7.343   8.522
  752HO4     MW 3008   2.881   7.273   8.561
  753HO4     OW 3009   0.934   4.706   6.716
  753HO4    HW1 3010   0.961   4.690   6.624
  753HO4    HW2 3011   0.903   4.797   6.716
  753HO4     MW 3012   0.934   4.706   6.716
  754HO4     OW 3013   2.930   8.078   5.531
  754HO4    HW1 3014   2.849   8.126   5.551
  754HO4    HW2 3015   2.902   8.008   5.472
  754HO4     MW 3016   2.930   8.078   5.531
  755HO4     OW 3017   6.099   9.541   7.995
  755HO4    HW1 3018   6.111   9.512   8.086
  755HO4    HW2 3019   6.163   9.490   7.945
  755HO4     MW 3020   6.099   9.541   7.995
  756HO4     OW 3021   5.107   5.355   5.874
  756HO4    HW1 3022   5.044   5.283   5.887
  756HO4    HW2 3023   5.189   5.311   5.852
  756HO4     MW 3024   5.107   5.355   5.874
  757HO4     OW 3025   3.646   9.166   3.686
  757HO4    HW1 3026   3.694   9.113   3.750
  757HO4    HW2 3027   3.643   9.254   3.725
  757HO4     MW 3028   3.646   9.166   3.686
  758HO4     OW 3029   2.081   1.131   6.381
  758HO4    HW1 3030   1.998   1.173   6.406
  758HO4    HW2 3031   2.119   1.102   6.464
  758HO4     MW 3032   2.081   1.131   6.381
  759HO4     OW 3033   0.077   6.085   9.254
  759HO4    HW1 3034   0.138   6.016   9.228
  759HO4    HW2 3035   0.030   6.048   9.329
  759HO4     MW 3036   0.077   6.085   9.254
  760HO4     OW 3037   2.593   6.220   1.082
  760HO4    HW1 3038   2.553   6.273   1.152
  760HO4    HW2 3039   2.586   6.274   1.003
  760HO4     MW 3040   2.593   6.220   1.082
  761HO4     OW 3041   6.041   4.718   8.619
  761HO4    HW1 3042   6.131   4.703   8.589
  761HO4    HW2 3043   5.998   4.633   8.612
  761HO4     MW 3044   6.041   4.718   8.619
  762HO4     OW 3045   3.428   6.036   0.894
  762HO4    HW1 3046   3.351   5.988   0.863
  762HO4    HW2 3047   3.460   6.083   0.816
  762HO4     MW 3048   3.428   6.036   0.894
  763HO4     OW 3049   3.349   0.999   2.789
  763HO4    HW1 3050   3.322   0.919   2.743
  763HO4    HW2 3051   3.283   1.010   2.858
  763HO4     MW 3052   3.349   0.999   2.789
  764HO4     OW 3053   0.563   4.018   5.271
  764HO4    HW1 3054   0.501   3.957   5.230
  764HO4    HW2 3055   0.649   3.977   5.258
  764HO4     MW 3056   0.563   4.018   5.271
  765HO4     OW 3057   5.513   5.033   8.115
  765HO4    HW1 3058   5.500   4.959   8.055
  765HO4    HW2 3059   5.522   4.993   8.202
  765HO4     MW 3060   5.513   5.033   8.115
  766HO4     OW 3061   5.178   7.487   5.746
  766HO4    HW1 3062   5.244   7.548   5.711
  766HO4    HW2 3063   5.210   7.466   5.834
  766HO4     MW 3064   5.178   7.487   5.746
  767HO4     OW 3065   6.650   8.431   8.033
  767HO4    HW1 3066   6.724   8.370   8.030
  767HO4    HW2 3067   6.619   8.436   7.942
  767HO4     MW 3068   6.650   8.431   8.033
  768HO4     OW 3069   1.092   9.338   0.518
  768HO4    HW1 3070   1.016   9.384   0.482
  768HO4    HW2 3071   1.151   9.408   0.548
  768HO4     MW 3072   1.092   9.338   0.518
  769HO4     OW 3073   1.779   3.637   2.666
  769HO4    HW1 3074   1.832   3.593   2.733
  769HO4    HW2 3075   1.760   3.723   2.704
  769HO4     MW 3076   1.779   3.637   2.666
  770HO4     OW 3077   1.090   3.307   9.499
  770HO4    HW1 3078   1.175   3.292   9.541
  770HO4    HW2 3079   1.092   3.253   9.420
  770HO4     MW 3080   1.090   3.307   9.499
  771HO4     OW 3081   3.378   9.424   3.149
  771HO4    HW1 3082   3.352   9.489   3.083
  771HO4    HW2 3083   3.403   9.477   3.226
  771HO4     MW 3084   3.378   9.424   3.149
  772HO4     OW 3085   6.064   2.038   8.397
  772HO4    HW1 3086   6.143   2.066   8.348
  772HO4    HW2 3087   6.079   1.945   8.415
  772HO4     MW 3088   6.064   2.038   8.397
  773HO4     OW 3089   4.494   3.591   7.801
  773HO4    HW1 3090   4.458   3.557   7.719
  773HO4    HW2 3091   4.421   3.587   7.863
  773HO4     MW 3092   4.494   3.591   7.801
  774HO4     OW 3093   7.606   1.846   4.374
  774HO4    HW1 3094   7.589   1.936   4.402
  774HO4    HW2 3095   7.571   1.842   4.285
  774HO4     MW 3096   7.606   1.846   4.374
  775HO4     OW 3097   4.922   2.978   2.707
  775HO4    HW1 3098   4.876   2.894   2.699
  775HO4    HW2 3099   5.001   2.958   2.758
  775HO4     MW 3100   4.922   2.978   2.707
  776HO4     OW 3101   7.433  10.065   1.072
  776HO4    HW1 3102   7.462  10.080   0.982
  776HO4    HW2 3103   7.509  10.026   1.116
  776HO4     MW 3104   7.433  10.065   1.072
  777HO4     OW 3105   0.763   5.498   0.554
  777HO4    HW1 3106   0.822   5.453   0.492
  777HO4    HW2 3107   0.797   5.476   0.641
  777HO4     MW 3108   0.763   5.498   0.554
  778HO4     OW 3109   9.715   8.731   9.403
  778HO4    HW1 3110   9.789   8.720   9.462
  778HO4    HW2 3111   9.755   8.758   9.319
  778HO4     MW 3112   9.715   8.731   9.403
  779HO4     OW 3113   4.187   0.565   4.877
  779HO4    HW1 3114   4.247   0.496   4.906
  779HO4    HW2 3115   4.112   0.518   4.839
  779HO4     MW 3116   4.187   0.565   4.877
  780HO4     OW 3117   1.536   0.203   7.723
  780HO4    HW1 3118   1.523   0.248   7.639
  780HO4    HW2 3119   1.478   0.249   7.784
  780HO4     MW 3120   1.536   0.203   7.723
  781HO4     OW 3121   9.464   8.732   1.547
  781HO4    HW1 3122   9.519   8.749   1.470
  781HO4    HW2 3123   9.470   8.814   1.598
  781HO4     MW 3124   9.464   8.732   1.547
  782HO4     OW 3125   6.021   4.605   2.022
  782HO4    HW1 3126   6.079   4.681   2.018
  782HO4    HW2 3127   6.065   4.545   2.083
  782HO4     MW 3128   6.021   4.605   2.022
  783HO4     OW 3129   6.362   1.485   8.668
  783HO4    HW1 3130   6.389   1.536   8.746
  783HO4    HW2 3131   6.430   1.505   8.603
  783HO4     MW 3132   6.362   1.485   8.668
  784HO4     OW 3133   6.101   1.079   4.790
  784HO4    HW1 3134   6.131   1.123   4.709
  784HO4    HW2 3135   6.123   1.141   4.860
  784HO4     MW 3136   6.101   1.079   4.790
  785HO4     OW 3137   9.467   6.464   1.679
  785HO4    HW1 3138   9.461   6.403   1.605
  785HO4    HW2 3139   9.543   6.520   1.658
  785HO4     MW 3140   9.467   6.464   1.679
  786HO4     OW 3141   1.784   9.268   4.375
  786HO4    HW1 3142   1.779   9.294   4.283
  786HO4    HW2 3143   1.795   9.351   4.423
  786HO4     MW 3144   1.784   9.268   4.375
  787HO4     OW 3145   9.603   4.314   9.268
  787HO4    HW1 3146   9.595   4.220   9.286
  787HO4    HW2 3147   9.695   4.335   9.287
  787HO4     MW 3148   9.603   4.314   9.268
  788HO4     OW 3149   1.350   8.061   9.664
  788HO4    HW1 3150   1.353   8.024   9.575
  788HO4    HW2 3151   1.370   8.154   9.652
  788HO4     MW 3152   1.350   8.061   9.664
  789HO4     OW 3153   1.712   0.503   9.576
  789HO4    HW1 3154   1.766   0.445   9.630
  789HO4    HW2 3155   1.748   0.591   9.591
  789HO4     MW 3156   1.712   0.503   9.576
  790HO4     OW 3157   6.723   9.578   4.424
  790HO4    HW1 3158   6.810   9.616   4.416
  790HO4    HW2 3159   6.733   9.487   4.393
  790HO4     MW 3160   6.723   9.578   4.424
  791HO4     OW 3161   3.356   2.029   8.643
  791HO4    HW1 3162   3.442   2.053   8.605
  791HO4    HW2 3163   3.353   2.078   8.725
  791HO4     MW 3164   3.356   2.029   8.643
  792HO4     OW 3165   2.486   1.456   2.940
  792HO4    HW1 3166   2.425   1.381   2.941
  792HO4    HW2 3167   2.553   1.431   2.876
  792HO4     MW 3168   2.486   1.456   2.940
  793HO4     OW 3169   7.093   3.048   6.964
  793HO4    HW1 3170   7.169   3.089   6.921
  793HO4    HW2 3171   7.114   2.954   6.964
  793HO4     MW 3172   7.093   3.048   6.964
  794HO4     OW 3173   1.303   8.452   0.654
  794HO4    HW1 3174   1.378   8.469   0.711
  794HO4    HW2 3175   1.336   8.469   0.565
  794HO4     MW 3176   1.303   8.452   0.654
  795HO4     OW 3177   3.906  10.050   3.388
  795HO4    HW1 3178   3.912  10.107   3.310
  795HO4    HW2 3179   3.842  10.095   3.445
  795HO4     MW 3180   3.906  10.050   3.388
  796HO4     OW 3181   2.489   2.673   5.307
  796HO4    HW1 3182   2.453   2.653   5.394
  796HO4    HW2 3183   2.412   2.677   5.250
  796HO4     MW 3184   2.489   2.673   5.307
  797HO4     OW 3185   3.826   3.434   9.588
  797HO4    HW1 3186   3.922   3.428   9.591
  797HO4    HW2 3187   3.797   3.376   9.659
  797HO4     MW 3188   3.826   3.434   9.588
  798HO4     OW 3189   3.178   4.617   0.566
  798HO4    HW1 3190   3.129   4.575   0.495
  798HO4    HW2 3191   3.118   4.613   0.641
  798HO4     MW 3192   3.178   4.617   0.566
  799HO4     OW 3193   1.114   2.457   6.938
  799HO4    HW1 3194   1.091   2.417   7.022
  799HO4    HW2 3195   1.112   2.552   6.954
  799HO4     MW 3196   1.114   2.457   6.938
  800HO4     OW 3197   0.133   2.785   8.577
  800HO4    HW1 3198   0.177   2.786   8.492
  800HO4    HW2 3199   0.203   2.805   8.641
  800HO4     MW 3200   0.133   2.785   8.577
  801HO4     OW 3201   2.627   3.205   2.462
  801HO4    HW1 3202   2.688   3.152   2.514
  801HO4    HW2 3203   2.558   3.231   2.524
  801HO4     MW 3204   2.627   3.205   2.462
  802HO4     OW 3205   1.265   3.961   6.598
  802HO4    HW1 3206   1.289   3.908   6.522
  802HO4    HW2 3207   1.214   3.902   6.653
  802HO4     MW 3208   1.265   3.961   6.598
  803HO4     OW 3209   5.600   5.140   1.662
  803HO4    HW1 3210   5.566   5.050   1.671
  803HO4    HW2 3211   5.649   5.139   1.580
  803HO4     MW 3212   5.600   5.140   1.662
  804HO4     OW 3213   9.437   0.918  10.095
  804HO4    HW1 3214   9.515   0.943  10.145
  804HO4    HW2 3215   9.422   0.826  10.118
  804HO4     MW 3216   9.437   0.918  10.095
  805HO4     OW 3217   1.209   7.789   4.851
  805HO4    HW1 3218   1.140   7.828   4.906
  805HO4    HW2 3219   1.170   7.786   4.763
  805HO4     MW 3220   1.209   7.789   4.851
  806HO4     OW 3221   9.760   1.012   6.960
  806HO4    HW1 3222   9.782   1.052   7.044
  806HO4    HW2 3223   9.845   1.003   6.915
  806HO4     MW 3224   9.760   1.012   6.960
  807HO4     OW 3225   2.678   4.612   1.501
  807HO4    HW1 3226   2.682   4.662   1.582
  807HO4    HW2 3227   2.659   4.678   1.433
  807HO4     MW 3228   2.678   4.612   1.501
  808HO4     OW 3229   5.987   9.913   2.663
  808HO4    HW1 3230   6.013   9.854   2.591
  808HO4    HW2 3231   5.938   9.857   2.724
  808HO4     MW 3232   5.987   9.913   2.663
  809HO4     OW 3233   7.666   4.208   7.277
  809HO4    HW1 3234   7.655   4.126   7.326
  809HO4    HW2 3235   7.643   4.186   7.186
  809HO4     MW 3236   7.666   4.208   7.277
  810HO4     OW 3237   3.560  10.023   7.305
  810HO4    HW1 3238   3.592  10.018   7.395
  810HO4    HW2 3239   3.521  10.111   7.298
  810HO4     MW 3240   3.560  10.023   7.305
  811HO4     OW 3241   7.217   3.964   7.658
  811HO4    HW1 3242   7.310   3.970   7.680
  811HO4    HW2 3243   7.198   4.046   7.612
  811HO4     MW 3244   7.217   3.964   7.658
  812HO4     OW 3245   4.824   6.380   5.137
  812HO4    HW1 3246   4.891   6.370   5.069
  812HO4    HW2 3247   4.785   6.292   5.146
  812HO4     MW 3248   4.824   6.380   5.137
  813HO4     OW 3249   1.188   2.259   9.358
  813HO4    HW1 3250   1.101   2.286   9.326
  813HO4    HW2 3251   1.247   2.330   9.333
  813HO4     MW 3252   1.188   2.259   9.358
  814HO4     OW 3253   5.651   1.416   5.463
  814HO4    HW1 3254   5.731   1.400   5.515
  814HO4    HW2 3255   5.682   1.430   5.374
  814HO4     MW 3256   5.651   1.416   5.463
  815HO4     OW 3257   1.380   8.422   6.458
  815HO4    HW1 3258   1.373   8.426   6.362
  815HO4    HW2 3259   1.317   8.487   6.489
  815HO4     MW 3260   1.380   8.422   6.458
  816HO4     OW 3261   2.866   5.737   1.247
  816HO4    HW1 3262   2.839   5.664   1.303
  816HO4    HW2 3263   2.897   5.696   1.166
  816HO4     MW 3264   2.866   5.737   1.247
  817HO4     OW 3265   7.154   1.228   4.940
  817HO4    HW1 3266   7.203   1.279   5.006
  817HO4    HW2 3267   7.117   1.294   4.881
  817HO4     MW 3268   7.154   1.228   4.940
  818HO4     OW 3269   5.026   9.833   5.081
  818HO4    HW1 3270   4.975   9.915   5.090
  818HO4    HW2 3271   5.024   9.814   4.987
  818HO4     MW 3272   5.026   9.833   5.081
  819HO4     OW 3273   5.150   5.587   7.659
  819HO4    HW1 3274   5.157   5.644   7.736
  819HO4    HW2 3275   5.142   5.648   7.585
  819HO4     MW 3276   5.150   5.587   7.659
  820HO4     OW 3277   8.233   7.238   9.865
  820HO4    HW1 3278   8.176   7.203   9.797
  820HO4    HW2 3279   8.262   7.161   9.915
  820HO4     MW 3280   8.233   7.238   9.865
  821HO4     OW 3281   6.352   4.544   1.373
  821HO4    HW1 3282   6.294   4.546   1.449
  821HO4    HW2 3283   6.391   4.456   1.376
  821HO4     MW 3284   6.352   4.544   1.373
  822HO4     OW 3285   1.980   4.378   9.556
  822HO4    HW1 3286   2.049   4.333   9.606
  822HO4    HW2 3287   1.980   4.335   9.470
  822HO4     MW 3288   1.980   4.378   9.556
  823HO4     OW 3289   8.820   7.396   6.006
  823HO4    HW1 3290   8.810   7.484   5.970
  823HO4    HW2 3291   8.915   7.386   6.019
  823HO4     MW 3292   8.820   7.396   6.006
  824HO4     OW 3293   8.713   6.164   4.942
  824HO4    HW1 3294   8.702   6.230   5.011
  824HO4    HW2 3295   8.662   6.199   4.868
  824HO4     MW 3296   8.713   6.164   4.942
  825HO4     OW 3297   8.063   5.549   5.016
  825HO4    HW1 3298   8.110   5.632   5.015
  825HO4    HW2 3299   8.132   5.482   5.014
  825HO4     MW 3300   8.063   5.549   5.016
  826HO4     OW 3301   4.418   1.344   2.049
  826HO4    HW1 3302   4.391   1.436   2.062
  826HO4    HW2 3303   4.473   1.325   2.125
  826HO4     MW 3304   4.418   1.344   2.049
  827HO4     OW 3305   6.988   4.550   6.373
  827HO4    HW1 3306   6.976   4.471   6.426
  827HO4    HW2 3307   7.075   4.583   6.399
  827HO4     MW 3308   6.988   4.550   6.373
  828HO4     OW 3309   6.984   7.519   5.031
  828HO4    HW1 3310   6.941   7.536   5.116
  828HO4    HW2 3311   6.921   7.466   4.982
  828HO4     MW 3312   6.984   7.519   5.031
  829HO4     OW 3313   1.737   3.567   1.191
  829HO4    HW1 3314   1.761   3.474   1.190
  829HO4    HW2 3315   1.686   3.580   1.110
  829HO4     MW 3316   1.737   3.567   1.191
  830HO4     OW 3317   1.086   3.415   0.008
  830HO4    HW1 3318   1.015   3.480   0.011
  830HO4    HW2 3319   1.044   3.332   0.030
  830HO4     MW 3320   1.086   3.415   0.008
  831HO4     OW 3321   5.718   7.056   1.795
  831HO4    HW1 3322   5.681   7.001   1.725
  831HO4    HW2 3323   5.781   6.998   1.839
  831HO4     MW 3324   5.718   7.056   1.795
  832HO4     OW 3325   8.889   3.761   1.715
  832HO4    HW1 3326   8.867   3.671   1.741
  832HO4    HW2 3327   8.806   3.808   1.720
  832HO4     MW 3328   8.889   3.761   1.715
  833HO4     OW 3329   9.746   0.087   3.150
  833HO4    HW1 3330   9.810   0.108   3.218
  833HO4    HW2 3331   9.721  -0.004   3.168
  833HO4     MW 3332   9.746   0.087   3.150
  834HO4     OW 3333   0.999   4.594   9.698
  834HO4    HW1 3334   0.977   4.688   9.698
  834HO4    HW2 3335   0.935   4.554   9.758
  834HO4     MW 3336   0.999   4.594   9.698
  835HO4     OW 3337   2.100   4.366   2.949
  835HO4    HW1 3338   2.059   4.322   3.025
  835HO4    HW2 3339   2.088   4.304   2.877
  835HO4     MW 3340   2.100   4.366   2.949
  836HO4     OW 3341   3.083   9.414   1.938
  836HO4    HW1 3342   3.104   9.357   1.864
  836HO4    HW2 3343   3.105   9.362   2.015
  836HO4     MW 3344   3.083   9.414   1.938
  837HO4     OW 3345   9.253   8.970   4.918
  837HO4    HW1 3346   9.219   9.021   4.844
  837HO4    HW2 3347   9.180   8.913   4.944
  837HO4     MW 3348   9.253   8.970   4.918
  838HO4     OW 3349   7.811   7.384   0.090
  838HO4    HW1 3350   7.768   7.337   0.018
  838HO4    HW2 3351   7.770   7.349   0.170
  838HO4     MW 3352   7.811   7.384   0.090
  839HO4     OW 3353   1.836   6.582   4.477
  839HO4    HW1 3354   1.889   6.586   4.557
  839HO4    HW2 3355   1.901   6.573   4.406
  839HO4     MW 3356   1.836   6.582   4.477
  840HO4     OW 3357   6.320   5.267   2.494
  840HO4    HW1 3358   6.234   5.264   2.451
  840HO4    HW2 3359   6.321   5.351   2.540
  840HO4     MW 3360   6.320   5.267   2.494
  841HO4     OW 3361   8.973   6.974   6.354
  841HO4    HW1 3362   9.033   6.935   6.418
  841HO4    HW2 3363   9.031   7.020   6.292
  841HO4     MW 3364   8.973   6.974   6.354
  842HO4     OW 3365   6.298   4.285   0.499
  842HO4    HW1 3366   6.309   4.208   0.443
  842HO4    HW2 3367   6.209   4.316   0.479
  842HO4     MW 3368   6.298   4.285   0.499
  843HO4     OW 3369   7.680   5.349   7.261
  843HO4    HW1 3370   7.628   5.387   7.190
  843HO4    HW2 3371   7.756   5.408   7.269
  843HO4     MW 3372   7.680   5.349   7.261
  844HO4     OW 3373   6.757   3.197   4.510
  844HO4    HW1 3374   6.687   3.199   4.443
  844HO4    HW2 3375   6.727   3.258   4.578
  844HO4     MW 3376   6.757   3.197   4.510
  845HO4     OW 3377   2.395   0.648   9.495
  845HO4    HW1 3378   2.430   0.646   9.405
  845HO4    HW2 3379   2.440   0.722   9.536
  845HO4     MW 3380   2.395   0.648   9.495
  846HO4     OW 3381   3.579   1.464   6.845
  846HO4    HW1 3382   3.611   1.506   6.926
  846HO4    HW2 3383   3.552   1.538   6.790
  846HO4     MW 3384   3.579   1.464   6.845
  847HO4     OW 3385   9.490   2.648   6.658
  847HO4    HW1 3386   9.575   2.612   6.684
  847HO4    HW2 3387   9.426   2.593   6.705
  847HO4     MW 3388   9.490   2.648   6.658
  848HO4     OW 3389   1.493   6.932   2.146
  848HO4    HW1 3390   1.507   7.023   2.118
  848HO4    HW2 3391   1.492   6.883   2.063
  848HO4     MW 3392   1.493   6.932   2.146
  849HO4     OW 3393   3.546   6.798   9.381
  849HO4    HW1 3394   3.622   6.745   9.356
  849HO4    HW2 3395   3.581   6.888   9.387
  849HO4     MW 3396   3.546   6.798   9.381
  850HO4     OW 3397   5.648   0.440   8.840
  850HO4    HW1 3398   5.584   0.504   8.808
  850HO4    HW2 3399   5.731   0.466   8.798
  850HO4     MW 3400   5.648   0.440   8.840
  851HO4     OW 3401   7.043   5.651   0.436
  851HO4    HW1 3402   6.995   5.576   0.400
  851HO4    HW2 3403   6.982   5.725   0.429
  851HO4     MW 3404   7.043   5.651   0.436
  852HO4     OW 3405   8.264   5.250   1.121
  852HO4    HW1 3406   8.222   5.235   1.036
  852HO4    HW2 3407   8.246   5.342   1.141
  852HO4     MW 3408   8.264   5.250   1.121
  853HO4     OW 3409   7.726   7.472   7.190
  853HO4    HW1 3410   7.738   7.433   7.278
  853HO4    HW2 3411   7.696   7.398   7.136
  853HO4     MW 3412   7.726   7.472   7.190
  854HO4     OW 3413   0.138   4.030   1.411
  854HO4    HW1 3414   0.056   4.030   1.461
  854HO4    HW2 3415   0.113   3.999   1.323
  854HO4     MW 3416   0.138   4.030   1.411
  855HO4     OW 3417   4.691   4.125   4.143
  855HO4    HW1 3418   4.647   4.079   4.216
  855HO4    HW2 3419   4.623   4.133   4.076
  855HO4     MW 3420   4.691   4.125   4.143
  856HO4     OW 3421  10.097   7.061   8.927
  856HO4    HW1 3422  10.112   7.046   8.833
  856HO4    HW2 3423  10.105   6.974   8.966
  856HO4     MW 3424  10.097   7.061   8.927
  857HO4     OW 3425   1.879   3.418   5.517
  857HO4    HW1 3426   1.900   3.403   5.425
  857HO4    HW2 3427   1.963   3.406   5.563
  857HO4     MW 3428   1.879   3.418   5.517
  858HO4     OW 3429   8.856  -0.007   6.072
  858HO4    HW1 3430   8.909   0.056   6.022
  858HO4    HW2 3431   8.873   0.016   6.164
  858HO4     MW 3432   8.856  -0.007   6.072
  859HO4     OW 3433   6.343   3.876   5.859
  859HO4    HW1 3434   6.308   3.964   5.843
  859HO4    HW2 3435   6.409   3.888   5.928
  859HO4     MW 3436   6.343   3.876   5.859
  860HO4     OW 3437   6.268   1.500   4.148
  860HO4    HW1 3438   6.263   1.580   4.094
  860HO4    HW2 3439   6.193   1.506   4.207
  860HO4     MW 3440   6.268   1.500   4.148
  861HO4     OW 3441   5.264   9.215   1.249
  861HO4    HW1 3442   5.280   9.309   1.263
  861HO4    HW2 3443   5.175   9.201   1.282
  861HO4     MW 3444   5.264   9.215   1.249
  862HO4     OW 3445   4.737   1.934   9.414
  862HO4    HW1 3446   4.810   1.887   9.455
  862HO4    HW2 3447   4.698   1.984   9.486
  862HO4     MW 3448   4.737   1.934   9.414
  863HO4     OW 3449   5.152  10.036   2.247
  863HO4    HW1 3450   5.244  10.010   2.252
  863HO4    HW2 3451   5.151  10.126   2.283
  863HO4     MW 3452   5.152  10.036   2.247
  864HO4     OW 3453   5.791   4.777   2.571
  864HO4    HW1 3454   5.709   4.827   2.577
  864HO4    HW2 3455   5.777   4.702   2.630
  864HO4     MW 3456   5.791   4.777   2.571
  865HO4     OW 3457   1.818   6.080   8.839
  865HO4    HW1 3458   1.812   6.016   8.767
  865HO4    HW2 3459   1.817   6.025   8.918
  865HO4     MW 3460   1.818   6.080   8.839
  866HO4     OW 3461   7.459   6.581   9.576
  866HO4    HW1 3462   7.470   6.491   9.608
  866HO4    HW2 3463   7.511   6.584   9.495
  866HO4     MW 3464   7.459   6.581   9.576
  867HO4     OW 3465   8.628   3.076   0.547
  867HO4    HW1 3466   8.695   3.092   0.614
  867HO4    HW2 3467   8.614   3.162   0.506
  867HO4     MW 3468   8.628   3.076   0.547
  868HO4     OW 3469   1.649   6.753   4.970
  868HO4    HW1 3470   1.683   6.830   5.017
  868HO4    HW2 3471   1.587   6.789   4.906
  868HO4     MW 3472   1.649   6.753   4.970
  869HO4     OW 3473   7.134   0.068   3.239
  869HO4    HW1 3474   7.097  -0.003   3.291
  869HO4    HW2 3475   7.187   0.024   3.172
  869HO4     MW 3476   7.134   0.068   3.239
  870HO4     OW 3477   7.033   2.552   5.273
  870HO4    HW1 3478   6.983   2.534   5.193
  870HO4    HW2 3479   6.966   2.558   5.342
  870HO4     MW 3480   7.033   2.552   5.273
  871HO4     OW 3481   9.910   0.614   2.849
  871HO4    HW1 3482   9.977   0.588   2.913
  871HO4    HW2 3483   9.924   0.708   2.836
  871HO4     MW 3484   9.910   0.614   2.849
  872HO4     OW 3485   0.828   5.060   9.072
  872HO4    HW1 3486   0.775   5.060   9.152
  872HO4    HW2 3487   0.794   5.134   9.020
  872HO4     MW 3488   0.828   5.060   9.072
  873HO4     OW 3489   3.517   3.825   0.461
  873HO4    HW1 3490   3.529   3.852   0.552
  873HO4    HW2 3491   3.423   3.806   0.453
  873HO4     MW 3492   3.517   3.825   0.461
  874HO4     OW 3493   4.366   3.085   9.697
  874HO4    HW1 3494   4.303   3.016   9.674
  874HO4    HW2 3495   4.409   3.052   9.777
  874HO4     MW 3496   4.366   3.085   9.697
  875HO4     OW 3497   0.076   8.008   3.840
  875HO4    HW1 3498   0.053   7.922   3.803
  875HO4    HW2 3499   0.081   8.066   3.763
  875HO4     MW 3500   0.076   8.008   3.840
  876HO4     OW 3501   7.930   8.249   2.487
  876HO4    HW1 3502   7.926   8.308   2.411
  876HO4    HW2 3503   7.962   8.166   2.451
  876HO4     MW 3504   7.930   8.249   2.487
  877HO4     OW 3505   4.004   1.933   4.671
  877HO4    HW1 3506   4.031   1.931   4.763
  877HO4    HW2 3507   4.051   1.860   4.629
  877HO4     MW 3508   4.004   1.933   4.671
  878HO4     OW 3509   9.497   1.852   2.166
  878HO4    HW1 3510   9.495   1.935   2.117
  878HO4    HW2 3511   9.586   1.849   2.203
  878HO4     MW 3512   9.497   1.852   2.166
  879HO4     OW 3513   6.268   1.743   0.584
  879HO4    HW1 3514   6.217   1.819   0.615
  879HO4    HW2 3515   6.347   1.744   0.638
  879HO4     MW 3516   6.268   1.743   0.584
  880HO4     OW 3517   0.290   2.665   5.012
  880HO4    HW1 3518   0.313   2.733   5.076
  880HO4    HW2 3519   0.356   2.674   4.943
  880HO4     MW 3520   0.290   2.665   5.012
  881HO4     OW 3521   7.024   2.600   4.732
  881HO4    HW1 3522   7.105   2.548   4.728
  881HO4    HW2 3523   7.034   2.653   4.812
  881HO4     MW 3524   7.024   2.600   4.732
  882HO4     OW 3525   7.695   1.424   6.888
  882HO4    HW1 3526   7.658   1.513   6.882
  882HO4    HW2 3527   7.619   1.366   6.884
  882HO4     MW 3528   7.695   1.424   6.888
  883HO4     OW 3529   7.721   4.617   8.728
  883HO4    HW1 3530   7.765   4.627   8.643
  883HO4    HW2 3531   7.736   4.701   8.772
  883HO4     MW 3532   7.721   4.617   8.728
  884HO4     OW 3533   2.978   7.395   6.703
  884HO4    HW1 3534   2.904   7.346   6.665
  884HO4    HW2 3535   2.975   7.372   6.796
  884HO4     MW 3536   2.978   7.395   6.703
  885HO4     OW 3537   6.014   7.384   6.645
  885HO4    HW1 3538   5.963   7.340   6.714
  885HO4    HW2 3539   6.027   7.315   6.579
  885HO4     MW 3540   6.014   7.384   6.645
  886HO4     OW 3541   9.202   4.371   2.299
  886HO4    HW1 3542   9.259   4.390   2.374
  886HO4    HW2 3543   9.256   4.392   2.222
  886HO4     MW 3544   9.202   4.371   2.299
  887HO4     OW 3545   8.783   8.366   6.373
  887HO4    HW1 3546   8.808   8.280   6.337
  887HO4    HW2 3547   8.710   8.395   6.318
  887HO4     MW 3548   8.783   8.366   6.373
  888HO4     OW 3549   8.217   3.189   3.981
  888HO4    HW1 3550   8.141   3.131   3.971
  888HO4    HW2 3551   8.255   3.165   4.066
  888HO4     MW 3552   8.217   3.189   3.981
  889HO4     OW 3553   0.273   2.449   6.367
  889HO4    HW1 3554   0.195   2.393   6.374
  889HO4    HW2 3555   0.293   2.473   6.458
  889HO4     MW 3556   0.273   2.449   6.367
  890HO4     OW 3557   8.201   8.572   2.989
  890HO4    HW1 3558   8.192   8.483   3.025
  890HO4    HW2 3559   8.273   8.565   2.925
  890HO4     MW 3560   8.201   8.572   2.989
  891HO4     OW 3561   1.036   4.113   1.561
  891HO4    HW1 3562   1.075   4.037   1.606
  891HO4    HW2 3563   1.007   4.078   1.476
  891HO4     MW 3564   1.036   4.113   1.561
  892HO4     OW 3565   7.218   8.354   2.047
  892HO4    HW1 3566   7.172   8.272   2.067
  892HO4    HW2 3567   7.288   8.327   1.986
  892HO4     MW 3568   7.218   8.354   2.047
  893HO4     OW 3569   5.817   4.042   8.879
  893HO4    HW1 3570   5.768   3.994   8.946
  893HO4    HW2 3571   5.857   3.974   8.825
  893HO4     MW 3572   5.817   4.042   8.879
  894HO4     OW 3573   0.034   3.935   5.228
  894HO4    HW1 3574   0.105   3.964   5.285
  894HO4    HW2 3575   0.071   3.941   5.139
  894HO4     MW 3576   0.034   3.935   5.228
  895HO4     OW 3577   3.689   9.525   8.407
  895HO4    HW1 3578   3.703   9.491   8.318
  895HO4    HW2 3579   3.772   9.569   8.429
  895HO4     MW 3580   3.689   9.525   8.407
  896HO4     OW 3581   4.076   9.340   9.704
  896HO4    HW1 3582   4.105   9.345   9.795
  896HO4    HW2 3583   4.018   9.263   9.701
  896HO4     MW 3584   4.076   9.340   9.704
  897HO4     OW 3585   7.368   0.252   6.198
  897HO4    HW1 3586   7.375   0.158   6.182
  897HO4    HW2 3587   7.378   0.261   6.294
  897HO4     MW 3588   7.368   0.252   6.198
  898HO4     OW 3589   4.500   2.178   5.890
  898HO4    HW1 3590   4.522   2.215   5.976
  898HO4    HW2 3591   4.561   2.220   5.829
  898HO4     MW 3592   4.500   2.178   5.890
  899HO4     OW 3593   3.301   7.817   1.455
  899HO4    HW1 3594   3.282   7.815   1.549
  899HO4    HW2 3595   3.397   7.825   1.450
  899HO4     MW 3596   3.301   7.817   1.455
  900HO4     OW 3597   6.279   2.278   4.133
  900HO4    HW1 3598   6.214   2.321   4.077
  900HO4    HW2 3599   6.264   2.316   4.221
  900HO4     MW 3600   6.279   2.278   4.133
  901HO4     OW 3601   4.716   5.625   5.312
  901HO4    HW1 3602   4.736   5.540   5.354
  901HO4    HW2 3603   4.692   5.682   5.385
  901HO4     MW 3604   4.716   5.625   5.312
  902HO4     OW 3605   3.918   0.757   4.482
  902HO4    HW1 3606   3.931   0.772   4.576
  902HO4    HW2 3607   3.982   0.815   4.440
  902HO4     MW 3608   3.918   0.757   4.482
  903HO4     OW 3609   0.457   7.776   3.553
  903HO4    HW1 3610   0.493   7.750   3.639
  903HO4    HW2 3611   0.364   7.794   3.571
  903HO4     MW 3612   0.457   7.776   3.553
  904HO4     OW 3613   7.510   0.619   1.194
  904HO4    HW1 3614   7.423   0.599   1.157
  904HO4    HW2 3615   7.524   0.712   1.172
  904HO4     MW 3616   7.510   0.619   1.194
  905HO4     OW 3617   6.357   2.096   3.558
  905HO4    HW1 3618   6.362   2.170   3.497
  905HO4    HW2 3619   6.280   2.114   3.612
  905HO4     MW 3620   6.357   2.096   3.558
  906HO4     OW 3621   4.945   8.340   8.711
  906HO4    HW1 3622   4.896   8.275   8.762
  906HO4    HW2 3623   5.038   8.316   8.724
  906HO4     MW 3624   4.945   8.340   8.711
  907HO4     OW 3625   5.549   8.075   1.825
  907HO4    HW1 3626   5.488   8.054   1.754
  907HO4    HW2 3627   5.507   8.146   1.873
  907HO4     MW 3628   5.549   8.075   1.825
  908HO4     OW 3629   8.230   0.090   7.352
  908HO4    HW1 3630   8.168   0.059   7.418
  908HO4    HW2 3631   8.182   0.082   7.269
  908HO4     MW 3632   8.230   0.090   7.352
  909HO4     OW 3633   7.999   2.054   5.397
  909HO4    HW1 3634   8.049   2.005   5.463
  909HO4    HW2 3635   8.032   2.022   5.313
  909HO4     MW 3636   7.999   2.054   5.397
  910HO4     OW 3637   0.410   4.576   4.735
  910HO4    HW1 3638   0.448   4.544   4.818
  910HO4    HW2 3639   0.437   4.510   4.670
  910HO4     MW 3640   0.410   4.576   4.735
  911HO4     OW 3641   4.286   0.664   3.834
  911HO4    HW1 3642   4.226   0.739   3.820
  911HO4    HW2 3643   4.369   0.705   3.860
  911HO4     MW 3644   4.286   0.664   3.834
  912HO4     OW 3645   8.102   3.295   8.314
  912HO4    HW1 3646   8.161   3.305   8.239
  912HO4    HW2 3647   8.072   3.384   8.333
  912HO4     MW 3648   8.102   3.295   8.314
  913HO4     OW 3649   0.822   8.820   8.308
  913HO4    HW1 3650   0.885   8.853   8.373
  913HO4    HW2 3651   0.855   8.734   8.283
  913HO4     MW 3652   0.822   8.820   8.308
  914HO4     OW 3653   8.101   4.848   6.442
  914HO4    HW1 3654   8.020   4.869   6.395
  914HO4    HW2 3655   8.152   4.929   6.440
  914HO4     MW 3656   8.101   4.848   6.442
  915HO4     OW 3657   2.462   4.604   8.189
  915HO4    HW1 3658   2.504   4.598   8.275
  915HO4    HW2 3659   2.432   4.514   8.172
  915HO4     MW 3660   2.462   4.604   8.189
  916HO4     OW 3661   9.394   2.146   7.137
  916HO4    HW1 3662   9.465   2.203   7.169
  916HO4    HW2 3663   9.346   2.122   7.216
  916HO4     MW 3664   9.394   2.146   7.137
  917HO4     OW 3665   7.225   5.533   9.776
  917HO4    HW1 3666   7.244   5.482   9.856
  917HO4    HW2 3667   7.240   5.471   9.704
  917HO4     MW 3668   7.225   5.533   9.776
  918HO4     OW 3669  10.059   2.561   5.343
  918HO4    HW1 3670  10.056   2.492   5.410
  918HO4    HW2 3671  10.059   2.514   5.259
  918HO4     MW 3672  10.059   2.561   5.343
  919HO4     OW 3673   1.709   5.139   6.972
  919HO4    HW1 3674   1.639   5.092   7.017
  919HO4    HW2 3675   1.726   5.087   6.893
  919HO4     MW 3676   1.709   5.139   6.972
  920HO4     OW 3677   9.823   9.359   0.660
  920HO4    HW1 3678   9.877   9.298   0.610
  920HO4    HW2 3679   9.752   9.384   0.600
  920HO4     MW 3680   9.823   9.359   0.660
  921HO4     OW 3681   7.542   0.919   7.479
  921HO4    HW1 3682   7.455   0.882   7.497
  921HO4    HW2 3683   7.597   0.888   7.552
  921HO4     MW 3684   7.542   0.919   7.479
  922HO4     OW 3685   6.312   9.108   8.119
  922HO4    HW1 3686   6.401   9.102   8.085
  922HO4    HW2 3687   6.305   9.034   8.180
  922HO4     MW 3688   6.312   9.108   8.119
  923HO4     OW 3689   2.551   1.184   4.756
  923HO4    HW1 3690   2.594   1.141   4.830
  923HO4    HW2 3691   2.588   1.142   4.678
  923HO4     MW 3692   2.551   1.184   4.756
  924HO4     OW 3693   2.996   0.468   4.593
  924HO4    HW1 3694   2.997   0.411   4.671
  924HO4    HW2 3695   2.908   0.508   4.594
  924HO4     MW 3696   2.996   0.468   4.593
  925HO4     OW 3697   8.599   0.003   4.899
  925HO4    HW1 3698   8.523  -0.020   4.845
  925HO4    HW2 3699   8.562   0.026   4.985
  925HO4     MW 3700   8.599   0.003   4.899
  926HO4     OW 3701   5.106   2.237   0.624
  926HO4    HW1 3702   5.128   2.249   0.717
  926HO4    HW2 3703   5.010   2.234   0.622
  926HO4     MW 3704   5.106   2.237   0.624
  927HO4     OW 3705   1.971   3.468   7.187
  927HO4    HW1 3706   1.970   3.548   7.240
  927HO4    HW2 3707   1.925   3.492   7.106
  927HO4     MW 3708   1.971   3.468   7.187
  928HO4     OW 3709   4.368   3.839   1.683
  928HO4    HW1 3710   4.421   3.806   1.610
  928HO4    HW2 3711   4.428   3.842   1.758
  928HO4     MW 3712   4.368   3.839   1.683
  929HO4     OW 3713   2.402   0.022   3.778
  929HO4    HW1 3714   2.425   0.029   3.685
  929HO4    HW2 3715   2.368  -0.068   3.786
  929HO4     MW 3716   2.402   0.022   3.778
  930HO4     OW 3717   5.487   5.146   6.001
  930HO4    HW1 3718   5.503   5.132   6.094
  930HO4    HW2 3719   5.442   5.066   5.972
  930HO4     MW 3720   5.487   5.146   6.001
  931HO4     OW 3721   1.747   8.641   1.007
  931HO4    HW1 3722   1.666   8.610   1.049
  931HO4    HW2 3723   1.725   8.729   0.975
  931HO4     MW 3724   1.747   8.641   1.007
  932HO4     OW 3725   2.791   3.069   8.541
  932HO4    HW1 3726   2.817   3.082   8.449
  932HO4    HW2 3727   2.841   3.135   8.589
  932HO4     MW 3728   2.791   3.069   8.541
  933HO4     OW 3729   4.772   1.176   5.382
  933HO4    HW1 3730   4.821   1.245   5.337
  933HO4    HW2 3731   4.762   1.107   5.316
  933HO4     MW 3732   4.772   1.176   5.382
  934HO4     OW 3733   6.978   5.144   3.385
  934HO4    HW1 3734   7.048   5.093   3.343
  934HO4    HW2 3735   7.001   5.142   3.479
  934HO4     MW 3736   6.978   5.144   3.385
  935HO4     OW 3737   0.301   3.263   3.377
  935HO4    HW1 3738   0.236   3.295   3.314
  935HO4    HW2 3739   0.324   3.341   3.429
  935HO4     MW 3740   0.301   3.263   3.377
  936HO4     OW 3741   2.890   5.002   4.344
  936HO4    HW1 3742   2.936   5.050   4.413
  936HO4    HW2 3743   2.918   5.045   4.262
  936HO4     MW 3744   2.890   5.002   4.344
  937HO4     OW 3745   2.565   0.119   6.869
  937HO4    HW1 3746   2.630   0.078   6.811
  937HO4    HW2 3747   2.597   0.209   6.882
  937HO4     MW 3748   2.565   0.119   6.869
  938HO4     OW 3749   6.828   5.035   6.742
  938HO4    HW1 3750   6.912   4.988   6.740
  938HO4    HW2 3751   6.762   4.967   6.727
  938HO4     MW 3752   6.828   5.035   6.742
  939HO4     OW 3753   5.089   0.290   5.736
  939HO4    HW1 3754   5.151   0.326   5.799
  939HO4    HW2 3755   5.014   0.262   5.790
  939HO4     MW 3756   5.089   0.290   5.736
  940HO4     OW 3757   1.962   8.818   4.755
  940HO4    HW1 3758   1.992   8.879   4.687
  940HO4    HW2 3759   2.003   8.851   4.835
  940HO4     MW 3760   1.962   8.818   4.755
  941HO4     OW 3761   0.983   1.842   5.651
  941HO4    HW1 3762   0.967   1.775   5.718
  941HO4    HW2 3763   0.972   1.795   5.568
  941HO4     MW 3764   0.983   1.842   5.651
  942HO4     OW 3765   0.299   5.796   0.739
  942HO4    HW1 3766   0.256   5.751   0.665
  942HO4    HW2 3767   0.233   5.796   0.809
  942HO4     MW 3768   0.299   5.796   0.739
  943HO4     OW 3769   2.277   7.394   6.194
  943HO4    HW1 3770   2.342   7.392   6.265
  943HO4    HW2 3771   2.323   7.357   6.119
  943HO4     MW 3772   2.277   7.394   6.194
  944HO4     OW 3773   3.240   4.697   0.184
  944HO4    HW1 3774   3.251   4.662   0.095
  944HO4    HW2 3775   3.277   4.628   0.241
  944HO4     MW 3776   3.240   4.697   0.184
  945HO4     OW 3777   3.369   7.997   8.141
  945HO4    HW1 3778   3.300   8.049   8.098
  945HO4    HW2 3779   3.324   7.952   8.213
  945HO4     MW 3780   3.369   7.997   8.141
  946HO4     OW 3781   6.341   0.557   3.781
  946HO4    HW1 3782   6.297   0.642   3.769
  946HO4    HW2 3783   6.359   0.553   3.875
  946HO4     MW 3784   6.341   0.557   3.781
  947HO4     OW 3785   2.682   0.118   8.596
  947HO4    HW1 3786   2.630   0.096   8.674
  947HO4    HW2 3787   2.626   0.093   8.522
  947HO4     MW 3788   2.682   0.118   8.596
  948HO4     OW 3789   5.018   1.432   5.095
  948HO4    HW1 3790   5.062   1.348   5.111
  948HO4    HW2 3791   4.938   1.427   5.148
  948HO4     MW 3792   5.018   1.432   5.095
  949HO4     OW 3793   1.397   8.870   3.235
  949HO4    HW1 3794   1.346   8.894   3.313
  949HO4    HW2 3795   1.331   8.852   3.167
  949HO4     MW 3796   1.397   8.870   3.235
  950HO4     OW 3797   1.789   9.534   4.035
  950HO4    HW1 3798   1.821   9.444   4.049
  950HO4    HW2 3799   1.759   9.563   4.121
  950HO4     MW 3800   1.789   9.534   4.035
  951HO4     OW 3801   0.219   1.437   4.766
  951HO4    HW1 3802   0.156   1.450   4.695
  951HO4    HW2 3803   0.278   1.513   4.761
  951HO4     MW 3804   0.219   1.437   4.766
  952HO4     OW 3805   0.197   2.661   2.315
  952HO4    HW1 3806   0.180   2.710   2.395
  952HO4    HW2 3807   0.131   2.693   2.253
  952HO4     MW 3808   0.197   2.661   2.315
  953HO4     OW 3809   5.815   6.153   2.866
  953HO4    HW1 3810   5.779   6.189   2.948
  953HO4    HW2 3811   5.759   6.190   2.798
  953HO4     MW 3812   5.815   6.153   2.866
  954HO4     OW 3813   1.229   8.245   6.811
  954HO4    HW1 3814   1.278   8.303   6.869
  954HO4    HW2 3815   1.136   8.264   6.831
  954HO4     MW 3816   1.229   8.245   6.811
  955HO4     OW 3817   1.599   1.255   5.331
  955HO4    HW1 3818   1.651   1.335   5.344
  955HO4    HW2 3819   1.650   1.185   5.373
  955HO4     MW 3820   1.599   1.255   5.331
  956HO4     OW 3821   5.231   5.367   0.108
  956HO4    HW1 3822   5.310   5.339   0.155
  956HO4    HW2 3823   5.235   5.321   0.024
  956HO4     MW 3824   5.231   5.367   0.108
  957HO4     OW 3825   2.964   3.076   0.115
  957HO4    HW1 3826   3.029   3.139   0.082
  957HO4    HW2 3827   3.015   2.997   0.134
  957HO4     MW 3828   2.964   3.076   0.115
  958HO4     OW 3829   5.622   0.791   5.662
  958HO4    HW1 3830   5.538   0.767   5.622
  958HO4    HW2 3831   5.607   0.782   5.757
  958HO4     MW 3832   5.622   0.791   5.662
  959HO4     OW 3833   2.571   8.400   3.460
  959HO4    HW1 3834   2.592   8.445   3.378
  959HO4    HW2 3835   2.574   8.470   3.526
  959HO4     MW 3836   2.571   8.400   3.460
  960HO4     OW 3837   6.662  10.084   5.032
  960HO4    HW1 3838   6.694  10.096   4.942
  960HO4    HW2 3839   6.662  10.173   5.069
  960HO4     MW 3840   6.662  10.084   5.032
  961HO4     OW 3841   9.865   3.087   4.302
  961HO4    HW1 3842   9.952   3.123   4.323
  961HO4    HW2 3843   9.815   3.099   4.383
  961HO4     MW 3844   9.865   3.087   4.302
  962HO4     OW 3845   2.045   0.111   0.813
  962HO4    HW1 3846   2.012   0.081   0.899
  962HO4    HW2 3847   2.098   0.037   0.782
  962HO4     MW 3848   2.045   0.111   0.813
  963HO4     OW 3849   0.751   0.594   5.258
  963HO4    HW1 3850   0.845   0.572   5.253
  963HO4    HW2 3851   0.718   0.574   5.170
  963HO4     MW 3852   0.751   0.594   5.258
  964HO4     OW 3853   7.368   5.211   4.215
  964HO4    HW1 3854   7.276   5.240   4.222
  964HO4    HW2 3855   7.363   5.116   4.229
  964HO4     MW 3856   7.368   5.211   4.215
  965HO4     OW 3857   9.020   7.549   2.462
  965HO4    HW1 3858   9.052   7.512   2.545
  965HO4    HW2 3859   9.088   7.612   2.436
  965HO4     MW 3860   9.020   7.549   2.462
  966HO4     OW 3861   5.421   4.168   5.789
  966HO4    HW1 3862   5.432   4.189   5.696
  966HO4    HW2 3863   5.458   4.245   5.835
  966HO4     MW 3864   5.421   4.168   5.789
  967HO4     OW 3865   8.295   7.903   2.869
  967HO4    HW1 3866   8.323   7.961   2.940
  967HO4    HW2 3867   8.305   7.814   2.904
  967HO4     MW 3868   8.295   7.903   2.869
  968HO4     OW 3869   7.526   3.190   7.053
  968HO4    HW1 3870   7.607   3.217   7.007
  968HO4    HW2 3871   7.553   3.180   7.144
  968HO4     MW 3872   7.526   3.190   7.053
  969HO4     OW 3873   3.529   1.985   0.767
  969HO4    HW1 3874   3.509   1.997   0.860
  969HO4    HW2 3875   3.529   2.074   0.730
  969HO4     MW 3876   3.529   1.985   0.767
  970HO4     OW 3877   4.735   9.719   8.498
  970HO4    HW1 3878   4.745   9.777   8.574
  970HO4    HW2 3879   4.751   9.776   8.423
  970HO4     MW 3880   4.735   9.719   8.498
  971HO4     OW 3881   0.311   8.574   6.583
  971HO4    HW1 3882   0.275   8.659   6.556
  971HO4    HW2 3883   0.310   8.578   6.679
  971HO4     MW 3884   0.311   8.574   6.583
  972HO4     OW 3885   7.821   1.781   5.192
  972HO4    HW1 3886   7.761   1.828   5.133
  972HO4    HW2 3887   7.830   1.839   5.268
  972HO4     MW 3888   7.821   1.781   5.192
  973HO4     OW 3889   4.135   7.882   2.321
  973HO4    HW1 3890   4.198   7.947   2.351
  973HO4    HW2 3891   4.175   7.844   2.242
  973HO4     MW 3892   4.135   7.882   2.321
  974HO4     OW 3893   0.662   4.051   5.764
  974HO4    HW1 3894   0.687   3.975   5.711
  974HO4    HW2 3895   0.685   4.127   5.709
  974HO4     MW 3896   0.662   4.051   5.764
  975HO4     OW 3897   2.284   5.811   3.457
  975HO4    HW1 3898   2.310   5.870   3.386
  975HO4    HW2 3899   2.234   5.865   3.518
  975HO4     MW 3900   2.284   5.811   3.457
  976HO4     OW 3901   8.004   0.701   0.894
  976HO4    HW1 3902   7.994   0.642   0.969
  976HO4    HW2 3903   7.928   0.681   0.838
  976HO4     MW 3904   8.004   0.701   0.894
  977HO4     OW 3905   3.339   8.511   4.148
  977HO4    HW1 3906   3.394   8.590   4.143
  977HO4    HW2 3907   3.386   8.446   4.093
  977HO4     MW 3908   3.339   8.511   4.148
  978HO4     OW 3909   3.347   0.484   3.746
  978HO4    HW1 3910   3.337   0.533   3.663
  978HO4    HW2 3911   3.442   0.484   3.762
  978HO4     MW 3912   3.347   0.484   3.746
  979HO4     OW 3913   4.784   7.687   3.676
  979HO4    HW1 3914   4.691   7.705   3.657
  979HO4    HW2 3915   4.782   7.605   3.727
  979HO4     MW 3916   4.784   7.687   3.676
  980HO4     OW 3917   1.155   7.503   5.763
  980HO4    HW1 3918   1.213   7.549   5.702
  980HO4    HW2 3919   1.160   7.555   5.844
  980HO4     MW 3920   1.155   7.503   5.763
  981HO4     OW 3921   4.115   3.818   8.811
  981HO4    HW1 3922   4.058   3.748   8.845
  981HO4    HW2 3923   4.059   3.866   8.750
  981HO4     MW 3924   4.115   3.818   8.811
  982HO4     OW 3925   7.607   9.149   1.160
  982HO4    HW1 3926   7.652   9.122   1.240
  982HO4    HW2 3927   7.595   9.244   1.170
  982HO4     MW 3928   7.607   9.149   1.160
  983HO4     OW 3929   3.281   1.370   9.595
  983HO4    HW1 3930   3.372   1.375   9.566
  983HO4    HW2 3931   3.239   1.446   9.555
  983HO4     MW 3932   3.281   1.370   9.595
  984HO4     OW 3933   7.137   7.650   5.244
  984HO4    HW1 3934   7.214   7.678   5.296
  984HO4    HW2 3935   7.153   7.557   5.228
  984HO4     MW 3936   7.137   7.650   5.244
  985HO4     OW 3937   4.820   9.415   1.580
  985HO4    HW1 3938   4.877   9.358   1.527
  985HO4    HW2 3939   4.845   9.397   1.671
  985HO4     MW 3940   4.820   9.415   1.580
  986HO4     OW 3941   3.852   3.361   1.622
  986HO4    HW1 3942   3.881   3.316   1.541
  986HO4    HW2 3943   3.882   3.303   1.693
  986HO4     MW 3944   3.852   3.361   1.622
  987HO4     OW 3945   5.824   0.745   6.505
  987HO4    HW1 3946   5.896   0.719   6.446
  987HO4    HW2 3947   5.868   0.767   6.588
  987HO4     MW 3948   5.824   0.745   6.505
  988HO4     OW 3949   5.741   6.428   0.194
  988HO4    HW1 3950   5.671   6.478   0.237
  988HO4    HW2 3951   5.822   6.462   0.234
  988HO4     MW 3952   5.741   6.428   0.194
  989HO4     OW 3953   3.292   5.561   4.773
  989HO4    HW1 3954   3.352   5.550   4.847
  989HO4    HW2 3955   3.316   5.490   4.712
  989HO4     MW 3956   3.292   5.561   4.773
  990HO4     OW 3957   7.194   9.443   0.743
  990HO4    HW1 3958   7.133   9.432   0.816
  990HO4    HW2 3959   7.267   9.383   0.764
  990HO4     MW 3960   7.194   9.443   0.743
  991HO4     OW 3961   1.278   8.065   3.339
  991HO4    HW1 3962   1.265   8.040   3.431
  991HO4    HW2 3963   1.228   8.146   3.329
  991HO4     MW 3964   1.278   8.065   3.339
  992HO4     OW 3965   4.423   7.443   6.461
  992HO4    HW1 3966   4.377   7.378   6.406
  992HO4    HW2 3967   4.454   7.392   6.536
  992HO4     MW 3968   4.423   7.443   6.461
  993HO4     OW 3969   5.889   5.846   4.177
  993HO4    HW1 3970   5.907   5.893   4.259
  993HO4    HW2 3971   5.921   5.757   4.192
  993HO4     MW 3972   5.889   5.846   4.177
  994HO4     OW 3973   1.759   7.893   3.954
  994HO4    HW1 3974   1.723   7.847   4.031
  994HO4    HW2 3975   1.761   7.827   3.885
  994HO4     MW 3976   1.759   7.893   3.954
  995HO4     OW 3977   3.481   0.007   5.558
  995HO4    HW1 3978   3.543  -0.042   5.613
  995HO4    HW2 3979   3.419   0.046   5.620
  995HO4     MW 3980   3.481   0.007   5.558
  996HO4     OW 3981   8.095   8.738   0.950
  996HO4    HW1 3982   8.120   8.693   1.032
  996HO4    HW2 3983   8.047   8.816   0.979
  996HO4     MW 3984   8.095   8.738   0.950
  997HO4     OW 3985   7.920   3.851   7.904
  997HO4    HW1 3986   7.939   3.910   7.830
  997HO4    HW2 3987   7.948   3.901   7.982
  997HO4     MW 3988   7.920   3.851   7.904
  998HO4     OW 3989   6.440   0.560   7.968
  998HO4    HW1 3990   6.445   0.517   7.882
  998HO4    HW2 3991   6.437   0.488   8.031
  998HO4     MW 3992   6.440   0.560   7.968
  999HO4     OW 3993   4.269   2.625   2.428
  999HO4    HW1 3994   4.231   2.592   2.346
  999HO4    HW2 3995   4.319   2.704   2.402
  999HO4     MW 3996   4.269   2.625   2.428
 1000HO4     OW 3997   6.344   9.524  10.054
 1000HO4    HW1 3998   6.384   9.595  10.103
 1000HO4    HW2 3999   6.418   9.478  10.013
 1000HO4     MW 4000   6.344   9.524  10.054
 1001HO4     OW 4001   2.151   4.245   7.098
 1001HO4    HW1 4002   2.104   4.244   7.182
 1001HO4    HW2 4003   2.103   4.309   7.044
 1001HO4     MW 4004   2.151   4.245   7.098
 1002HO4     OW 4005   6.706   9.656   3.278
 1002HO4    HW1 4006   6.746   9.683   3.195
 1002HO4    HW2 4007   6.780   9.650   3.339
 1002HO4     MW 4008   6.706   9.656   3.278
 1003HO4     OW 4009   2.973  10.104   2.490
 1003HO4    HW1 4010   3.007  10.064   2.570
 1003HO4    HW2 4011   3.037  10.081   2.422
 1003HO4     MW 4012   2.973  10.104   2.490
 1004HO4     OW 4013   8.442   8.156   3.555
 1004HO4    HW1 4014   8.397   8.211   3.620
 1004HO4    HW2 4015   8.518   8.209   3.528
 1004HO4     MW 4016   8.442   8.156   3.555
 1005HO4     OW 4017   8.988   5.580   3.815
 1005HO4    HW1 4018   9.016   5.642   3.746
 1005HO4    HW2 4019   9.025   5.617   3.896
 1005HO4     MW 4020   8.988   5.580   3.815
 1006HO4     OW 4021   2.399   4.736   6.902
 1006HO4    HW1 4022   2.426   4.827   6.917
 1006HO4    HW2 4023   2.313   4.730   6.944
 1006HO4     MW 4024   2.399   4.736   6.902
 1007HO4     OW 4025   8.083   9.891   8.941
 1007HO4    HW1 4026   8.019   9.820   8.928
 1007HO4    HW2 4027   8.108   9.883   9.034
 1007HO4     MW 4028   8.083   9.891   8.941
 1008HO4     OW 4029   0.483   5.217   5.933
 1008HO4    HW1 4030   0.391   5.216   5.905
 1008HO4    HW2 4031   0.526   5.276   5.871
 1008HO4     MW 4032   0.483   5.217   5.933
 1009HO4     OW 4033   4.420   1.755   4.881
 1009HO4    HW1 4034   4.388   1.667   4.902
 1009HO4    HW2 4035   4.516   1.747   4.889
 1009HO4     MW 4036   4.420   1.755   4.881
 1010HO4     OW 4037   8.253   0.821   0.188
 1010HO4    HW1 4038   8.239   0.751   0.252
 1010HO4    HW2 4039   8.330   0.793   0.139
 1010HO4     MW 4040   8.253   0.821   0.188
 1011HO4     OW 4041   7.647   2.789   0.071
 1011HO4    HW1 4042   7.614   2.708   0.112
 1011HO4    HW2 4043   7.702   2.829   0.139
 1011HO4     MW 4044   7.647   2.789   0.071
 1012HO4     OW 4045   4.893   0.568   1.177
 1012HO4    HW1 4046   4.891   0.661   1.197
 1012HO4    HW2 4047   4.927   0.563   1.087
 1012HO4     MW 4048   4.893   0.568   1.177
 1013HO4     OW 4049   0.118   3.617   6.560
 1013HO4    HW1 4050   0.188   3.670   6.600
 1013HO4    HW2 4051   0.134   3.528   6.594
 1013HO4     MW 4052   0.118   3.617   6.560
 1014HO4     OW 4053  10.011   6.209   4.123
 1014HO4    HW1 4054   9.928   6.161   4.122
 1014HO4    HW2 4055   9.986   6.301   4.110
 1014HO4     MW 4056  10.011   6.209   4.123
 1015HO4     OW 4057   9.183   8.374   6.198
 1015HO4    HW1 4058   9.125   8.325   6.258
 1015HO4    HW2 4059   9.160   8.339   6.111
 1015HO4     MW 4060   9.183   8.374   6.198
 1016HO4     OW 4061   4.318   0.696   3.107
 1016HO4    HW1 4062   4.270   0.620   3.072
 1016HO4    HW2 4063   4.407   0.662   3.124
 1016HO4     MW 4064   4.318   0.696   3.107
 1017HO4     OW 4065   5.403   6.614   3.564
 1017HO4    HW1 4066   5.310   6.595   3.546
 1017HO4    HW2 4067   5.451   6.544   3.519
 1017HO4     MW 4068   5.403   6.614   3.564
 1018HO4     OW 4069   8.960   2.243   1.230
 1018HO4    HW1 4070   9.029   2.298   1.191
 1018HO4    HW2 4071   8.901   2.306   1.273
 1018HO4     MW 4072   8.960   2.243   1.230
 1019HO4     OW 4073   8.008   1.751   5.804
 1019HO4    HW1 4074   7.931   1.697   5.783
 1019HO4    HW2 4075   7.998   1.773   5.897
 1019HO4     MW 4076   8.008   1.751   5.804
 1020HO4     OW 4077   5.172   0.096   7.702
 1020HO4    HW1 4078   5.153   0.019   7.647
 1020HO4    HW2 4079   5.251   0.135   7.663
 1020HO4     MW 4080   5.172   0.096   7.702
 1021HO4     OW 4081   4.888   2.613   9.097
 1021HO4    HW1 4082   4.840   2.685   9.056
 1021HO4    HW2 4083   4.833   2.587   9.171
 1021HO4     MW 4084   4.888   2.613   9.097
 1022HO4     OW 4085   6.736   8.539   0.816
 1022HO4    HW1 4086   6.773   8.574   0.735
 1022HO4    HW2 4087   6.798   8.567   0.884
 1022HO4     MW 4088   6.736   8.539   0.816
 1023HO4     OW 4089   0.218   0.350   9.700
 1023HO4    HW1 4090   0.171   0.267   9.688
 1023HO4    HW2 4091   0.153   0.418   9.678
 1023HO4     MW 4092   0.218   0.350   9.700
 1024HO4     OW 4093   0.815   8.365   8.710
 1024HO4    HW1 4094   0.875   8.342   8.638
 1024HO4    HW2 4095   0.732   8.386   8.666
 1024HO4     MW 4096   0.815   8.365   8.710
 1025HO4     OW 4097   1.320   1.086   9.382
 1025HO4    HW1 4098   1.304   1.002   9.426
 1025HO4    HW2 4099   1.384   1.131   9.438
 1025HO4     MW 4100   1.320   1.086   9.382
 1026HO4     OW 4101   2.941   6.461   5.226
 1026HO4    HW1 4102   2.989   6.467   5.309
 1026HO4    HW2 4103   3.010   6.450   5.160
 1026HO4     MW 4104   2.941   6.461   5.226
 1027HO4     OW 4105   9.098   0.206   7.187
 1027HO4    HW1 4106   9.056   0.241   7.107
 1027HO4    HW2 4107   9.036   0.228   7.257
 1027HO4     MW 4108   9.098   0.206   7.187
 1028HO4     OW 4109   7.014   9.526   6.321
 1028HO4    HW1 4110   7.048   9.476   6.395
 1028HO4    HW2 4111   6.961   9.463   6.271
 1028HO4     MW 4112   7.014   9.526   6.321
 1029HO4     OW 4113   7.554   1.349   3.868
 1029HO4    HW1 4114   7.529   1.394   3.786
 1029HO4    HW2 4115   7.567   1.257   3.842
 1029HO4     MW 4116   7.554   1.349   3.868
 1030HO4     OW 4117   9.891   3.760   1.518
 1030HO4    HW1 4118   9.970   3.749   1.465
 1030HO4    HW2 4119   9.923   3.784   1.605
 1030HO4     MW 4120   9.891   3.760   1.518
 1031HO4     OW 4121   9.109   2.147   1.488
 1031HO4    HW1 4122   9.090   2.109   1.402
 1031HO4    HW2 4123   9.089   2.077   1.550
 1031HO4     MW 4124   9.109   2.147   1.488
 1032HO4     OW 4125   3.068   0.352   1.863
 1032HO4    HW1 4126   3.083   0.345   1.768
 1032HO4    HW2 4127   3.122   0.282   1.901
 1032HO4     MW 4128   3.068   0.352   1.863
 1033HO4     OW 4129  10.023   4.464   5.354
 1033HO4    HW1 4130   9.968   4.544   5.351
 1033HO4    HW2 4131  10.001   4.424   5.438
 1033HO4     MW 4132  10.023   4.464   5.354
 1034HO4     OW 4133   4.606   2.674   1.325
 1034HO4    HW1 4134   4.567   2.672   1.413
 1034HO4    HW2 4135   4.533   2.652   1.266
 1034HO4     MW 4136   4.606   2.674   1.325
 1035HO4     OW 4137   9.394   7.084   4.567
 1035HO4    HW1 4138   9.346   7.055   4.489
 1035HO4    HW2 4139   9.329   7.084   4.638
 1035HO4     MW 4140   9.394   7.084   4.567
 1036HO4     OW 4141   9.431   1.683   4.850
 1036HO4    HW1 4142   9.482   1.607   4.820
 1036HO4    HW2 4143   9.345   1.672   4.808
 1036HO4     MW 4144   9.431   1.683   4.850
 1037HO4     OW 4145   1.793   6.701   2.786
 1037HO4    HW1 4146   1.746   6.768   2.837
 1037HO4    HW2 4147   1.876   6.743   2.762
 1037HO4     MW 4148   1.793   6.701   2.786
 1038HO4     OW 4149   8.342   5.390   7.460
 1038HO4    HW1 4150   8.289   5.395   7.380
 1038HO4    HW2 4151   8.285   5.426   7.529
 1038HO4     MW 4152   8.342   5.390   7.460
 1039HO4     OW 4153   6.469   1.863   5.982
 1039HO4    HW1 4154   6.481   1.798   6.051
 1039HO4    HW2 4155   6.521   1.939   6.011
 1039HO4     MW 4156   6.469   1.863   5.982
 1040HO4     OW 4157   6.459   9.843   6.825
 1040HO4    HW1 4158   6.451   9.877   6.914
 1040HO4    HW2 4159   6.494   9.755   6.836
 1040HO4     MW 4160   6.459   9.843   6.825
 1041HO4     OW 4161   6.015   3.711   9.810
 1041HO4    HW1 4162   5.976   3.796   9.789
 1041HO4    HW2 4163   6.089   3.704   9.750
 1041HO4     MW 4164   6.015   3.711   9.810
 1042HO4     OW 4165   7.699   8.472   0.690
 1042HO4    HW1 4166   7.623   8.502   0.739
 1042HO4    HW2 4167   7.671   8.475   0.598
 1042HO4     MW 4168   7.699   8.472   0.690
 1043HO4     OW 4169   2.587   0.029   3.455
 1043HO4    HW1 4170   2.628   0.024   3.368
 1043HO4    HW2 4171   2.654  -0.007   3.515
 1043HO4     MW 4172   2.587   0.029   3.455
 1044HO4     OW 4173   0.108   6.621   5.457
 1044HO4    HW1 4174   0.078   6.641   5.546
 1044HO4    HW2 4175   0.043   6.558   5.423
 1044HO4     MW 4176   0.108   6.621   5.457
 1045HO4     OW 4177   0.515   9.164   4.761
 1045HO4    HW1 4178   0.454   9.223   4.716
 1045HO4    HW2 4179   0.498   9.179   4.854
 1045HO4     MW 4180   0.515   9.164   4.761
 1046HO4     OW 4181   9.458   7.782   2.398
 1046HO4    HW1 4182   9.491   7.851   2.457
 1046HO4    HW2 4183   9.442   7.707   2.456
 1046HO4     MW 4184   9.458   7.782   2.398
 1047HO4     OW 4185   3.085   3.783  10.001
 1047HO4    HW1 4186   3.020   3.769  10.070
 1047HO4    HW2 4187   3.061   3.867   9.961
 1047HO4     MW 4188   3.085   3.783  10.001
 1048HO4     OW 4189   6.883   7.321   5.161
 1048HO4    HW1 4190   6.868   7.229   5.186
 1048HO4    HW2 4191   6.978   7.333   5.170
 1048HO4     MW 4192   6.883   7.321   5.161
 1049HO4     OW 4193   7.278   5.807   6.636
 1049HO4    HW1 4194   7.284   5.759   6.719
 1049HO4    HW2 4195   7.313   5.745   6.570
 1049HO4     MW 4196   7.278   5.807   6.636
 1050HO4     OW 4197   7.293   2.820   2.071
 1050HO4    HW1 4198   7.243   2.766   2.133
 1050HO4    HW2 4199   7.226   2.857   2.012
 1050HO4     MW 4200   7.293   2.820   2.071
 1051HO4     OW 4201   9.648   1.542   6.602
 1051HO4    HW1 4202   9.598   1.517   6.523
 1051HO4    HW2 4203   9.586   1.528   6.674
 1051HO4     MW 4204   9.648   1.542   6.602
 1052HO4     OW 4205   4.357   7.272   0.197
 1052HO4    HW1 4206   4.290   7.229   0.144
 1052HO4    HW2 4207   4.403   7.200   0.241
 1052HO4     MW 4208   4.357   7.272   0.197
 1053HO4     OW 4209   3.686   8.473   3.545
 1053HO4    HW1 4210   3.743   8.459   3.621
 1053HO4    HW2 4211   3.734   8.436   3.471
 1053HO4     MW 4212   3.686   8.473   3.545
 1054HO4     OW 4213   4.602   8.884   6.681
 1054HO4    HW1 4214   4.629   8.931   6.601
 1054HO4    HW2 4215   4.581   8.954   6.744
 1054HO4     MW 4216   4.602   8.884   6.681
 1055HO4     OW 4217   2.910   9.301   1.293
 1055HO4    HW1 4218   2.920   9.265   1.382
 1055HO4    HW2 4219   2.815   9.309   1.280
 1055HO4     MW 4220   2.910   9.301   1.293
 1056HO4     OW 4221   4.720   0.293   8.020
 1056HO4    HW1 4222   4.648   0.355   8.030
 1056HO4    HW2 4223   4.696   0.219   8.077
 1056HO4     MW 4224   4.720   0.293   8.020
 1057HO4     OW 4225   4.930   1.355   3.213
 1057HO4    HW1 4226   5.010   1.341   3.161
 1057HO4    HW2 4227   4.953   1.323   3.301
 1057HO4     MW 4228   4.930   1.355   3.213
 1058HO4     OW 4229   2.151   5.076   9.208
 1058HO4    HW1 4230   2.162   5.148   9.144
 1058HO4    HW2 4231   2.072   5.100   9.256
 1058HO4     MW 4232   2.151   5.076   9.208
 1059HO4     OW 4233   9.033   6.843   7.011
 1059HO4    HW1 4234   9.084   6.885   7.081
 1059HO4    HW2 4235   9.095   6.840   6.937
 1059HO4     MW 4236   9.033   6.843   7.011
 1060HO4     OW 4237   7.971   1.480   2.439
 1060HO4    HW1 4238   8.033   1.407   2.446
 1060HO4    HW2 4239   7.994   1.539   2.511
 1060HO4     MW 4240   7.971   1.480   2.439
 1061HO4     OW 4241   8.738   0.728   8.345
 1061HO4    HW1 4242   8.693   0.727   8.260
 1061HO4    HW2 4243   8.737   0.636   8.374
 1061HO4     MW 4244   8.738   0.728   8.345
 1062HO4     OW 4245   5.969   1.302   9.423
 1062HO4    HW1 4246   6.026   1.321   9.498
 1062HO4    HW2 4247   6.028   1.309   9.347
 1062HO4     MW 4248   5.969   1.302   9.423
 1063HO4     OW 4249   1.202   9.347   4.716
 1063HO4    HW1 4250   1.218   9.254   4.738
 1063HO4    HW2 4251   1.107   9.350   4.697
 1063HO4     MW 4252   1.202   9.347   4.716
 1064HO4     OW 4253   9.843   5.353   2.208
 1064HO4    HW1 4254   9.832   5.409   2.130
 1064HO4    HW2 4255   9.831   5.414   2.282
 1064HO4     MW 4256   9.843   5.353   2.208
 1065HO4     OW 4257   8.944   9.278   6.618
 1065HO4    HW1 4258   8.947   9.314   6.529
 1065HO4    HW2 4259   8.888   9.338   6.666
 1065HO4     MW 4260   8.944   9.278   6.618
 1066HO4     OW 4261   7.057   9.787   6.564
 1066HO4    HW1 4262   7.104   9.753   6.641
 1066HO4    HW2 4263   7.107   9.752   6.489
 1066HO4     MW 4264   7.057   9.787   6.564
 1067HO4     OW 4265   9.990   0.681   8.289
 1067HO4    HW1 4266   9.992   0.772   8.260
 1067HO4    HW2 4267  10.017   0.684   8.381
 1067HO4     MW 4268   9.990   0.681   8.289
 1068HO4     OW 4269   8.885   0.894   5.048
 1068HO4    HW1 4270   8.929   0.837   5.113
 1068HO4    HW2 4271   8.800   0.913   5.087
 1068HO4     MW 4272   8.885   0.894   5.048
 1069HO4     OW 4273   1.966   4.498   1.502
 1069HO4    HW1 4274   2.028   4.426   1.516
 1069HO4    HW2 4275   1.970   4.549   1.583
 1069HO4     MW 4276   1.966   4.498   1.502
 1070HO4     OW 4277   1.423   5.801   4.077
 1070HO4    HW1 4278   1.330   5.814   4.056
 1070HO4    HW2 4279   1.436   5.706   4.067
 1070HO4     MW 4280   1.423   5.801   4.077
 1071HO4     OW 4281   3.614   9.592  10.024
 1071HO4    HW1 4282   3.597   9.680   9.989
 1071HO4    HW2 4283   3.677   9.607  10.095
 1071HO4     MW 4284   3.614   9.592  10.024
 1072HO4     OW 4285   8.295   3.398   0.974
 1072HO4    HW1 4286   8.253   3.391   1.061
 1072HO4    HW2 4287   8.323   3.490   0.970
 1072HO4     MW 4288   8.295   3.398   0.974
 1073HO4     OW 4289   3.635   2.786   5.561
 1073HO4    HW1 4290   3.663   2.732   5.634
 1073HO4    HW2 4291   3.714   2.833   5.533
 1073HO4     MW 4292   3.635   2.786   5.561
 1074HO4     OW 4293   1.718   2.828   1.293
 1074HO4    HW1 4294   1.724   2.919   1.265
 1074HO4    HW2 4295   1.749   2.829   1.385
 1074HO4     MW 4296   1.718   2.828   1.293
 1075HO4     OW 4297   9.637   4.444   2.714
 1075HO4    HW1 4298   9.722   4.431   2.672
 1075HO4    HW2 4299   9.658   4.453   2.808
 1075HO4     MW 4300   9.637   4.444   2.714
 1076HO4     OW 4301   9.285   9.762   6.953
 1076HO4    HW1 4302   9.273   9.812   7.035
 1076HO4    HW2 4303   9.379   9.743   6.951
 1076HO4     MW 4304   9.285   9.762   6.953
 1077HO4     OW 4305   0.387   9.106   3.492
 1077HO4    HW1 4306   0.358   9.055   3.416
 1077HO4    HW2 4307   0.305   9.134   3.535
 1077HO4     MW 4308   0.387   9.106   3.492
 1078HO4     OW 4309   6.976  10.087   5.297
 1078HO4    HW1 4310   7.034  10.145   5.348
 1078HO4    HW2 4311   6.968  10.008   5.352
 1078HO4     MW 4312   6.976  10.087   5.297
 1079HO4     OW 4313   0.857   0.562   0.471
 1079HO4    HW1 4314   0.905   0.621   0.529
 1079HO4    HW2 4315   0.779   0.536   0.521
 1079HO4     MW 4316   0.857   0.562   0.471
 1080HO4     OW 4317   1.678   0.737   4.247
 1080HO4    HW1 4318   1.709   0.777   4.165
 1080HO4    HW2 4319   1.694   0.642   4.235
 1080HO4     MW 4320   1.678   0.737   4.247
 1081HO4     OW 4321   7.378   1.183   2.376
 1081HO4    HW1 4322   7.313   1.244   2.412
 1081HO4    HW2 4323   7.461   1.232   2.379
 1081HO4     MW 4324   7.378   1.183   2.376
 1082HO4     OW 4325   1.152   6.439   6.247
 1082HO4    HW1 4326   1.164   6.422   6.153
 1082HO4    HW2 4327   1.095   6.368   6.277
 1082HO4     MW 4328   1.152   6.439   6.247
 1083HO4     OW 4329   9.799   9.573   7.694
 1083HO4    HW1 4330   9.815   9.543   7.784
 1083HO4    HW2 4331   9.821   9.498   7.639
 1083HO4     MW 4332   9.799   9.573   7.694
 1084HO4     OW 4333   4.540   0.337   1.945
 1084HO4    HW1 4334   4.463   0.316   1.891
 1084HO4    HW2 4335   4.517   0.306   2.033
 1084HO4     MW 4336   4.540   0.337   1.945
 1085HO4     OW 4337   5.163   4.887   9.070
 1085HO4    HW1 4338   5.101   4.874   9.143
 1085HO4    HW2 4339   5.108   4.881   8.991
 1085HO4     MW 4340   5.163   4.887   9.070
 1086HO4     OW 4341   2.009   9.131   3.554
 1086HO4    HW1 4342   2.051   9.213   3.583
 1086HO4    HW2 4343   1.928   9.160   3.512
 1086HO4     MW 4344   2.009   9.131   3.554
 1087HO4     OW 4345   0.510   0.382   7.767
 1087HO4    HW1 4346   0.534   0.473   7.747
 1087HO4    HW2 4347   0.589   0.345   7.808
 1087HO4     MW 4348   0.510   0.382   7.767
 1088HO4     OW 4349   7.890   4.643   3.920
 1088HO4    HW1 4350   7.937   4.636   4.003
 1088HO4    HW2 4351   7.954   4.616   3.853
 1088HO4     MW 4352   7.890   4.643   3.920
 1089HO4     OW 4353   1.690   9.842   6.741
 1089HO4    HW1 4354   1.694   9.794   6.658
 1089HO4    HW2 4355   1.728   9.781   6.806
 1089HO4     MW 4356   1.690   9.842   6.741
 1090HO4     OW 4357   6.586   7.002   5.013
 1090HO4    HW1 4358   6.638   6.972   5.088
 1090HO4    HW2 4359   6.636   6.975   4.936
 1090HO4     MW 4360   6.586   7.002   5.013
 1091HO4     OW 4361   1.843   7.057   6.034
 1091HO4    HW1 4362   1.840   7.142   5.988
 1091HO4    HW2 4363   1.787   7.069   6.111
 1091HO4     MW 4364   1.843   7.057   6.034
 1092HO4     OW 4365   2.975   4.625   6.145
 1092HO4    HW1 4366   2.936   4.560   6.086
 1092HO4    HW2 4367   3.040   4.576   6.195
 1092HO4     MW 4368   2.975   4.625   6.145
 1093HO4     OW 4369   8.537   2.589   8.559
 1093HO4    HW1 4370   8.444   2.608   8.573
 1093HO4    HW2 4371   8.576   2.600   8.646
 1093HO4     MW 4372   8.537   2.589   8.559
 1094HO4     OW 4373   4.169   8.664   1.767
 1094HO4    HW1 4374   4.098   8.603   1.745
 1094HO4    HW2 4375   4.232   8.610   1.815
 1094HO4     MW 4376   4.169   8.664   1.767
 1095HO4     OW 4377   7.812   3.569   7.235
 1095HO4    HW1 4378   7.771   3.501   7.290
 1095HO4    HW2 4379   7.791   3.544   7.145
 1095HO4     MW 4380   7.812   3.569   7.235
 1096HO4     OW 4381   9.237   2.781   3.418
 1096HO4    HW1 4382   9.150   2.775   3.458
 1096HO4    HW2 4383   9.239   2.868   3.377
 1096HO4     MW 4384   9.237   2.781   3.418
 1097HO4     OW 4385   8.491   2.739   1.607
 1097HO4    HW1 4386   8.575   2.699   1.582
 1097HO4    HW2 4387   8.458   2.778   1.525
 1097HO4     MW 4388   8.491   2.739   1.607
 1098HO4     OW 4389   4.424   3.359   0.517
 1098HO4    HW1 4390   4.336   3.394   0.504
 1098HO4    HW2 4391   4.483   3.427   0.482
 1098HO4     MW 4392   4.424   3.359   0.517
 1099HO4     OW 4393   9.032   7.341   9.979
 1099HO4    HW1 4394   9.084   7.368   9.903
 1099HO4    HW2 4395   8.980   7.267   9.948
 1099HO4     MW 4396   9.032   7.341   9.979
 1100HO4     OW 4397   9.922   6.351   9.969
 1100HO4    HW1 4398   9.982   6.300   9.914
 1100HO4    HW2 4399   9.905   6.431   9.919
 1100HO4     MW 4400   9.922   6.351   9.969
 1101HO4     OW 4401   2.846   5.853   0.347
 1101HO4    HW1 4402   2.866   5.869   0.440
 1101HO4    HW2 4403   2.893   5.923   0.300
 1101HO4     MW 4404   2.846   5.853   0.347
 1102HO4     OW 4405   8.520   8.169   7.572
 1102HO4    HW1 4406   8.526   8.160   7.667
 1102HO4    HW2 4407   8.429   8.146   7.551
 1102HO4     MW 4408   8.520   8.169   7.572
 1103HO4     OW 4409   8.810   7.765   9.845
 1103HO4    HW1 4410   8.800   7.773   9.749
 1103HO4    HW2 4411   8.728   7.725   9.874
 1103HO4     MW 4412   8.810   7.765   9.845
 1104HO4     OW 4413   3.285   3.960   9.628
 1104HO4    HW1 4414   3.206   3.907   9.610
 1104HO4    HW2 4415   3.312   3.932   9.716
 1104HO4     MW 4416   3.285   3.960   9.628
 1105HO4     OW 4417   9.815   7.453   6.140
 1105HO4    HW1 4418   9.812   7.395   6.063
 1105HO4    HW2 4419   9.753   7.413   6.202
 1105HO4     MW 4420   9.815   7.453   6.140
 1106HO4     OW 4421   0.378   0.768   7.912
 1106HO4    HW1 4422   0.344   0.848   7.953
 1106HO4    HW2 4423   0.305   0.735   7.858
 1106HO4     MW 4424   0.378   0.768   7.912
 1107HO4     OW 4425   2.545   5.515   0.992
 1107HO4    HW1 4426   2.573   5.471   0.911
 1107HO4    HW2 4427   2.548   5.446   1.059
 1107HO4     MW 4428   2.545   5.515   0.992
 1108HO4     OW 4429   5.452   9.925   6.341
 1108HO4    HW1 4430   5.380   9.910   6.403
 1108HO4    HW2 4431   5.464  10.021   6.341
 1108HO4     MW 4432   5.452   9.925   6.341
 1109HO4     OW 4433   1.953   4.120   8.345
 1109HO4    HW1 4434   1.905   4.056   8.290
 1109HO4    HW2 4435   1.921   4.205   8.315
 1109HO4     MW 4436   1.953   4.120   8.345
 1110HO4     OW 4437   2.775   3.251   0.746
 1110HO4    HW1 4438   2.867   3.259   0.771
 1110HO4    HW2 4439   2.778   3.231   0.652
 1110HO4     MW 4440   2.775   3.251   0.746
 1111HO4     OW 4441   0.594   7.769   5.499
 1111HO4    HW1 4442   0.593   7.816   5.415
 1111HO4    HW2 4443   0.587   7.838   5.565
 1111HO4     MW 4444   0.594   7.769   5.499
 1112HO4     OW 4445   4.271   6.868   8.838
 1112HO4    HW1 4446   4.235   6.928   8.905
 1112HO4    HW2 4447   4.224   6.786   8.852
 1112HO4     MW 4448   4.271   6.868   8.838
 1113HO4     OW 4449   6.099   7.656   4.756
 1113HO4    HW1 4450   6.157   7.664   4.832
 1113HO4    HW2 4451   6.159   7.656   4.680
 1113HO4     MW 4452   6.099   7.656   4.756
 1114HO4     OW 4453   7.902   3.799   2.019
 1114HO4    HW1 4454   7.859   3.779   1.935
 1114HO4    HW2 4455   7.841   3.765   2.085
 1114HO4     MW 4456   7.902   3.799   2.019
 1115HO4     OW 4457   4.733   5.416   3.546
 1115HO4    HW1 4458   4.787   5.403   3.467
 1115HO4    HW2 4459   4.702   5.327   3.568
 1115HO4     MW 4460   4.733   5.416   3.546
 1116HO4     OW 4461   4.931   4.368   6.017
 1116HO4    HW1 4462   5.015   4.322   6.021
 1116HO4    HW2 4463   4.945   4.437   5.952
 1116HO4     MW 4464   4.931   4.368   6.017
 1117HO4     OW 4465   2.695   2.143   0.459
 1117HO4    HW1 4466   2.767   2.147   0.523
 1117HO4    HW2 4467   2.672   2.235   0.443
 1117HO4     MW 4468   2.695   2.143   0.459
 1118HO4     OW 4469   6.369   3.021   0.498
 1118HO4    HW1 4470   6.416   3.012   0.582
 1118HO4    HW2 4471   6.406   3.101   0.459
 1118HO4     MW 4472   6.369   3.021   0.498
 1119HO4     OW 4473   9.241   6.872   0.420
 1119HO4    HW1 4474   9.252   6.823   0.337
 1119HO4    HW2 4475   9.237   6.804   0.487
 1119HO4     MW 4476   9.241   6.872   0.420
 1120HO4     OW 4477   4.394   2.755   1.674
 1120HO4    HW1 4478   4.437   2.836   1.647
 1120HO4    HW2 4479   4.461   2.708   1.725
 1120HO4     MW 4480   4.394   2.755   1.674
 1121HO4     OW 4481   2.892   2.479   1.245
 1121HO4    HW1 4482   2.979   2.473   1.204
 1121HO4    HW2 4483   2.905   2.538   1.320
 1121HO4     MW 4484   2.892   2.479   1.245
 1122HO4     OW 4485   9.666   2.203   2.894
 1122HO4    HW1 4486   9.681   2.127   2.951
 1122HO4    HW2 4487   9.687   2.171   2.805
 1122HO4     MW 4488   9.666   2.203   2.894
 1123HO4     OW 4489   2.119   5.312   0.675
 1123HO4    HW1 4490   2.047   5.368   0.645
 1123HO4    HW2 4491   2.100   5.297   0.768
 1123HO4     MW 4492   2.119   5.312   0.675
 1124HO4     OW 4493   2.680   7.813   6.855
 1124HO4    HW1 4494   2.701   7.775   6.941
 1124HO4    HW2 4495   2.740   7.769   6.795
 1124HO4     MW 4496   2.680   7.813   6.855
 1125HO4     OW 4497   6.039   5.856   0.615
 1125HO4    HW1 4498   6.072   5.810   0.693
 1125HO4    HW2 4499   6.079   5.810   0.541
 1125HO4     MW 4500   6.039   5.856   0.615
 1126HO4     OW 4501   2.071   1.431   7.797
 1126HO4    HW1 4502   2.050   1.426   7.703
 1126HO4    HW2 4503   2.070   1.526   7.816
 1126HO4     MW 4504   2.071   1.431   7.797
 1127HO4     OW 4505   7.967   9.231   6.134
 1127HO4    HW1 4506   7.877   9.259   6.152
 1127HO4    HW2 4507   7.995   9.287   6.061
 1127HO4     MW 4508   7.967   9.231   6.134
 1128HO4     OW 4509   6.797   2.175   0.830
 1128HO4    HW1 4510   6.861   2.222   0.775
 1128HO4    HW2 4511   6.849   2.143   0.904
 1128HO4     MW 4512   6.797   2.175   0.830
 1129HO4     OW 4513   0.525   3.250   6.102
 1129HO4    HW1 4514   0.618   3.248   6.078
 1129HO4    HW2 4515   0.515   3.333   6.150
 1129HO4     MW 4516   0.525   3.250   6.102
 1130HO4     OW 4517   4.119   4.416   6.517
 1130HO4    HW1 4518   4.140   4.390   6.608
 1130HO4    HW2 4519   4.067   4.496   6.526
 1130HO4     MW 4520   4.119   4.416   6.517
 1131HO4     OW 4521  10.075   4.731   7.799
 1131HO4    HW1 4522  10.166   4.759   7.812
 1131HO4    HW2 4523  10.055   4.677   7.876
 1131HO4     MW 4524  10.075   4.731   7.799
 1132HO4     OW 4525   7.537   2.001   7.346
 1132HO4    HW1 4526   7.525   1.914   7.308
 1132HO4    HW2 4527   7.553   1.984   7.439
 1132HO4     MW 4528   7.537   2.001   7.346
 1133HO4     OW 4529   4.099   2.597   5.345
 1133HO4    HW1 4530   4.190   2.564   5.351
 1133HO4    HW2 4531   4.109   2.690   5.322
 1133HO4     MW 4532   4.099   2.597   5.345
 1134HO4     OW 4533   9.475   8.434   7.495
 1134HO4    HW1 4534   9.487   8.418   7.589
 1134HO4    HW2 4535   9.417   8.363   7.465
 1134HO4     MW 4536   9.475   8.434   7.495
 1135HO4     OW 4537   8.715   4.354   6.534
 1135HO4    HW1 4538   8.676   4.284   6.481
 1135HO4    HW2 4539   8.768   4.308   6.600
 1135HO4     MW 4540   8.715   4.354   6.534
 1136HO4     OW 4541   1.554   6.501   9.895
 1136HO4    HW1 4542   1.614   6.567   9.930
 1136HO4    HW2 4543   1.496   6.479   9.968
 1136HO4     MW 4544   1.554   6.501   9.895
 1137HO4     OW 4545   0.893   4.712   3.924
 1137HO4    HW1 4546   0.964   4.735   3.863
 1137HO4    HW2 4547   0.924   4.630   3.965
 1137HO4     MW 4548   0.893   4.712   3.924
 1138HO4     OW 4549   5.144   9.750   4.678
 1138HO4    HW1 4550   5.053   9.761   4.650
 1138HO4    HW2 4551   5.138   9.727   4.771
 1138HO4     MW 4552   5.144   9.750   4.678
 1139HO4     OW 4553   5.501   0.764   1.166
 1139HO4    HW1 4554   5.436   0.794   1.231
 1139HO4    HW2 4555   5.463   0.789   1.081
 1139HO4     MW 4556   5.501   0.764   1.166
 1140HO4     OW 4557   8.356   4.801   1.905
 1140HO4    HW1 4558   8.432   4.860   1.911
 1140HO4    HW2 4559   8.310   4.813   1.989
 1140HO4     MW 4560   8.356   4.801   1.905
 1141HO4     OW 4561   6.228   6.880   8.153
 1141HO4    HW1 4562   6.234   6.867   8.248
 1141HO4    HW2 4563   6.282   6.809   8.116
 1141HO4     MW 4564   6.228   6.880   8.153
 1142HO4     OW 4565   8.135   1.283   0.035
 1142HO4    HW1 4566   8.088   1.316   0.113
 1142HO4    HW2 4567   8.084   1.317  -0.039
 1142HO4     MW 4568   8.135   1.283   0.035
 1143HO4     OW 4569   8.861   4.326   7.324
 1143HO4    HW1 4570   8.798   4.309   7.253
 1143HO4    HW2 4571   8.811   4.377   7.388
 1143HO4     MW 4572   8.861   4.326   7.324
 1144HO4     OW 4573   0.234   8.249   1.624
 1144HO4    HW1 4574   0.180   8.272   1.700
 1144HO4    HW2 4575   0.180   8.274   1.548
 1144HO4     MW 4576   0.234   8.249   1.624
 1145HO4     OW 4577   4.501   6.913   8.149
 1145HO4    HW1 4578   4.512   6.867   8.065
 1145HO4    HW2 4579   4.534   7.002   8.131
 1145HO4     MW 4580   4.501   6.913   8.149
 1146HO4     OW 4581   0.482   7.040   8.793
 1146HO4    HW1 4582   0.508   6.951   8.769
 1146HO4    HW2 4583   0.408   7.060   8.735
 1146HO4     MW 4584   0.482   7.040   8.793
 1147HO4     OW 4585   3.361   2.903   2.505
 1147HO4    HW1 4586   3.349   2.991   2.466
 1147HO4    HW2 4587   3.289   2.852   2.468
 1147HO4     MW 4588   3.361   2.903   2.505
 1148HO4     OW 4589   7.853   8.071   4.003
 1148HO4    HW1 4590   7.838   8.030   4.089
 1148HO4    HW2 4591   7.912   8.010   3.958
 1148HO4     MW 4592   7.853   8.071   4.003
 1149HO4     OW 4593   2.220   5.003   5.166
 1149HO4    HW1 4594   2.233   5.021   5.260
 1149HO4    HW2 4595   2.161   5.073   5.136
 1149HO4     MW 4596   2.220   5.003   5.166
 1150HO4     OW 4597   6.339   3.583   4.966
 1150HO4    HW1 4598   6.332   3.626   4.880
 1150HO4    HW2 4599   6.292   3.642   5.026
 1150HO4     MW 4600   6.339   3.583   4.966
 1151HO4     OW 4601   0.994   3.323   5.678
 1151HO4    HW1 4602   1.014   3.402   5.626
 1151HO4    HW2 4603   1.035   3.339   5.763
 1151HO4     MW 4604   0.994   3.323   5.678
 1152HO4     OW 4605   1.580   3.462   8.806
 1152HO4    HW1 4606   1.598   3.537   8.748
 1152HO4    HW2 4607   1.577   3.500   8.894
 1152HO4     MW 4608   1.580   3.462   8.806
 1153HO4     OW 4609   2.041   4.310   7.791
 1153HO4    HW1 4610   2.057   4.349   7.705
 1153HO4    HW2 4611   1.999   4.380   7.841
 1153HO4     MW 4612   2.041   4.310   7.791
 1154HO4     OW 4613   4.265   7.799   1.454
 1154HO4    HW1 4614   4.332   7.856   1.417
 1154HO4    HW2 4615   4.312   7.743   1.516
 1154HO4     MW 4616   4.265   7.799   1.454
 1155HO4     OW 4617   5.212   2.929   3.882
 1155HO4    HW1 4618   5.299   2.892   3.900
 1155HO4    HW2 4619   5.191   2.899   3.793
 1155HO4     MW 4620   5.212   2.929   3.882
 1156HO4     OW 4621   6.643   5.912   2.231
 1156HO4    HW1 4622   6.709   5.912   2.301
 1156HO4    HW2 4623   6.693   5.898   2.150
 1156HO4     MW 4624   6.643   5.912   2.231
 1157HO4     OW 4625   8.794   3.040   1.218
 1157HO4    HW1 4626   8.791   2.981   1.294
 1157HO4    HW2 4627   8.741   2.997   1.151
 1157HO4     MW 4628   8.794   3.040   1.218
 1158HO4     OW 4629   8.399   6.973   5.384
 1158HO4    HW1 4630   8.327   6.975   5.319
 1158HO4    HW2 4631   8.478   6.956   5.331
 1158HO4     MW 4632   8.399   6.973   5.384
 1159HO4     OW 4633   7.137   6.141   1.283
 1159HO4    HW1 4634   7.142   6.097   1.198
 1159HO4    HW2 4635   7.224   6.126   1.323
 1159HO4     MW 4636   7.137   6.141   1.283
 1160HO4     OW 4637   4.586   3.204   9.755
 1160HO4    HW1 4638   4.550   3.146   9.687
 1160HO4    HW2 4639   4.515   3.212   9.819
 1160HO4     MW 4640   4.586   3.204   9.755
 1161HO4     OW 4641   9.275   4.310   6.516
 1161HO4    HW1 4642   9.363   4.330   6.482
 1161HO4    HW2 4643   9.266   4.367   6.593
 1161HO4     MW 4644   9.275   4.310   6.516
 1162HO4     OW 4645   0.158   2.829   0.822
 1162HO4    HW1 4646   0.077   2.798   0.864
 1162HO4    HW2 4647   0.216   2.753   0.822
 1162HO4     MW 4648   0.158   2.829   0.822
 1163HO4     OW 4649   5.832   8.819   3.060
 1163HO4    HW1 4650   5.890   8.832   3.135
 1163HO4    HW2 4651   5.869   8.875   2.991
 1163HO4     MW 4652   5.832   8.819   3.060
 1164HO4     OW 4653   5.752   3.706   6.453
 1164HO4    HW1 4654   5.733   3.690   6.546
 1164HO4    HW2 4655   5.750   3.618   6.413
 1164HO4     MW 4656   5.752   3.706   6.453
 1165HO4     OW 4657  10.124   5.187   6.754
 1165HO4    HW1 4658  10.057   5.151   6.695
 1165HO4    HW2 4659  10.074   5.220   6.829
 1165HO4     MW 4660  10.124   5.187   6.754
 1166HO4     OW 4661   3.488   4.869   7.638
 1166HO4    HW1 4662   3.554   4.900   7.576
 1166HO4    HW2 4663   3.493   4.930   7.712
 1166HO4     MW 4664   3.488   4.869   7.638
 1167HO4     OW 4665   8.169   7.835   1.736
 1167HO4    HW1 4666   8.169   7.750   1.692
 1167HO4    HW2 4667   8.171   7.813   1.830
 1167HO4     MW 4668   8.169   7.835   1.736
 1168HO4     OW 4669   3.117   1.100   3.124
 1168HO4    HW1 4670   3.146   1.052   3.202
 1168HO4    HW2 4671   3.136   1.192   3.144
 1168HO4     MW 4672   3.117   1.100   3.124
 1169HO4     OW 4673   7.564   9.410   3.649
 1169HO4    HW1 4674   7.577   9.468   3.724
 1169HO4    HW2 4675   7.596   9.460   3.574
 1169HO4     MW 4676   7.564   9.410   3.649
 1170HO4     OW 4677   0.773   6.209   7.360
 1170HO4    HW1 4678   0.816   6.205   7.445
 1170HO4    HW2 4679   0.813   6.137   7.309
 1170HO4     MW 4680   0.773   6.209   7.360
 1171HO4     OW 4681   9.601   7.862   7.061
 1171HO4    HW1 4682   9.584   7.769   7.040
 1171HO4    HW2 4683   9.559   7.874   7.147
 1171HO4     MW 4684   9.601   7.862   7.061
 1172HO4     OW 4685   4.357   8.111   2.724
 1172HO4    HW1 4686   4.318   8.023   2.724
 1172HO4    HW2 4687   4.281   8.170   2.722
 1172HO4     MW 4688   4.357   8.111   2.724
 1173HO4     OW 4689   0.942   9.633   5.150
 1173HO4    HW1 4690   0.968   9.669   5.235
 1173HO4    HW2 4691   0.958   9.704   5.087
 1173HO4     MW 4692   0.942   9.633   5.150
 1174HO4     OW 4693   4.971   7.694   0.342
 1174HO4    HW1 4694   4.987   7.678   0.249
 1174HO4    HW2 4695   5.025   7.627   0.387
 1174HO4     MW 4696   4.971   7.694   0.342
 1175HO4     OW 4697   5.351   8.393   9.806
 1175HO4    HW1 4698   5.346   8.451   9.882
 1175HO4    HW2 4699   5.359   8.452   9.731
 1175HO4     MW 4700   5.351   8.393   9.806
 1176HO4     OW 4701   8.332   5.430   4.373
 1176HO4    HW1 4702   8.250   5.408   4.419
 1176HO4    HW2 4703   8.337   5.526   4.377
 1176HO4     MW 4704   8.332   5.430   4.373
 1177HO4     OW 4705   0.477   8.545   3.212
 1177HO4    HW1 4706   0.482   8.600   3.133
 1177HO4    HW2 4707   0.562   8.500   3.216
 1177HO4     MW 4708   0.477   8.545   3.212
 1178HO4     OW 4709   3.923   4.274   3.336
 1178HO4    HW1 4710   3.893   4.241   3.251
 1178HO4    HW2 4711   3.953   4.196   3.383
 1178HO4     MW 4712   3.923   4.274   3.336
 1179HO4     OW 4713   0.954   3.439   3.335
 1179HO4    HW1 4714   0.898   3.492   3.392
 1179HO4    HW2 4715   0.969   3.358   3.386
 1179HO4     MW 4716   0.954   3.439   3.335
 1180HO4     OW 4717   9.800   9.433   0.215
 1180HO4    HW1 4718   9.712   9.469   0.230
 1180HO4    HW2 4719   9.785   9.355   0.162
 1180HO4     MW 4720   9.800   9.433   0.215
 1181HO4     OW 4721  10.117   6.460   6.784
 1181HO4    HW1 4722  10.065   6.540   6.774
 1181HO4    HW2 4723  10.085   6.402   6.714
 1181HO4     MW 4724  10.117   6.460   6.784
 1182HO4     OW 4725   9.862   0.491   5.898
 1182HO4    HW1 4726   9.855   0.478   5.993
 1182HO4    HW2 4727   9.811   0.419   5.860
 1182HO4     MW 4728   9.862   0.491   5.898
 1183HO4     OW 4729   5.201   0.055   0.926
 1183HO4    HW1 4730   5.143   0.049   1.003
 1183HO4    HW2 4731   5.141   0.052   0.851
 1183HO4     MW 4732   5.201   0.055   0.926
 1184HO4     OW 4733   6.074   0.669   9.536
 1184HO4    HW1 4734   6.037   0.685   9.623
 1184HO4    HW2 4735   6.100   0.756   9.505
 1184HO4     MW 4736   6.074   0.669   9.536
 1185HO4     OW 4737   4.125   6.330   6.527
 1185HO4    HW1 4738   4.077   6.347   6.608
 1185HO4    HW2 4739   4.091   6.394   6.464
 1185HO4     MW 4740   4.125   6.330   6.527
 1186HO4     OW 4741   4.561   4.355   5.735
 1186HO4    HW1 4742   4.574   4.349   5.830
 1186HO4    HW2 4743   4.487   4.296   5.717
 1186HO4     MW 4744   4.561   4.355   5.735
 1187HO4     OW 4745   3.829   5.830   8.670
 1187HO4    HW1 4746   3.880   5.897   8.718
 1187HO4    HW2 4747   3.845   5.850   8.577
 1187HO4     MW 4748   3.829   5.830   8.670
 1188HO4     OW 4749   5.952   5.946   3.110
 1188HO4    HW1 4750   5.998   5.984   3.034
 1188HO4    HW2 4751   6.010   5.875   3.139
 1188HO4     MW 4752   5.952   5.946   3.110
 1189HO4     OW 4753   1.634   3.718   7.243
 1189HO4    HW1 4754   1.676   3.693   7.326
 1189HO4    HW2 4755   1.550   3.755   7.269
 1189HO4     MW 4756   1.634   3.718   7.243
 1190HO4     OW 4757   3.847   6.784   7.201
 1190HO4    HW1 4758   3.783   6.787   7.273
 1190HO4    HW2 4759   3.793   6.789   7.121
 1190HO4     MW 4760   3.847   6.784   7.201
 1191HO4     OW 4761   0.102   4.940   4.151
 1191HO4    HW1 4762   0.163   4.936   4.226
 1191HO4    HW2 4763   0.015   4.950   4.191
 1191HO4     MW 4764   0.102   4.940   4.151
 1192HO4     OW 4765   7.451   6.648   2.307
 1192HO4    HW1 4766   7.499   6.726   2.336
 1192HO4    HW2 4767   7.447   6.593   2.386
 1192HO4     MW 4768   7.451   6.648   2.307
 1193HO4     OW 4769   6.763   2.754   7.863
 1193HO4    HW1 4770   6.854   2.732   7.885
 1193HO4    HW2 4771   6.710   2.710   7.930
 1193HO4     MW 4772   6.763   2.754   7.863
 1194HO4     OW 4773   2.966   5.976   9.713
 1194HO4    HW1 4774   3.027   5.959   9.786
 1194HO4    HW2 4775   3.023   5.984   9.636
 1194HO4     MW 4776   2.966   5.976   9.713
 1195HO4     OW 4777   0.639   7.408   3.080
 1195HO4    HW1 4778   0.696   7.378   3.008
 1195HO4    HW2 4779   0.586   7.331   3.103
 1195HO4     MW 4780   0.639   7.408   3.080
 1196HO4     OW 4781   4.113   4.098   7.769
 1196HO4    HW1 4782   4.149   4.068   7.685
 1196HO4    HW2 4783   4.028   4.136   7.747
 1196HO4     MW 4784   4.113   4.098   7.769
 1197HO4     OW 4785   1.834   0.861   5.117
 1197HO4    HW1 4786   1.835   0.910   5.200
 1197HO4    HW2 4787   1.747   0.878   5.081
 1197HO4     MW 4788   1.834   0.861   5.117
 1198HO4     OW 4789   2.101   6.444   2.606
 1198HO4    HW1 4790   2.047   6.515   2.570
 1198HO4    HW2 4791   2.115   6.384   2.532
 1198HO4     MW 4792   2.101   6.444   2.606
 1199HO4     OW 4793   1.877   5.334   5.629
 1199HO4    HW1 4794   1.930   5.322   5.708
 1199HO4    HW2 4795   1.935   5.306   5.557
 1199HO4     MW 4796   1.877   5.334   5.629
 1200HO4     OW 4797   7.490   8.246   3.811
 1200HO4    HW1 4798   7.456   8.288   3.890
 1200HO4    HW2 4799   7.462   8.304   3.739
 1200HO4     MW 4800   7.490   8.246   3.811
 1201HO4     OW 4801   5.233   0.886   4.736
 1201HO4    HW1 4802   5.307   0.947   4.741
 1201HO4    HW2 4803   5.272   0.800   4.751
 1201HO4     MW 4804   5.233   0.886   4.736
 1202HO4     OW 4805  10.081   0.858   7.460
 1202HO4    HW1 4806  10.136   0.858   7.382
 1202HO4    HW2 4807  10.142   0.863   7.533
 1202HO4     MW 4808  10.081   0.858   7.460
 1203HO4     OW 4809   2.541   4.128   8.747
 1203HO4    HW1 4810   2.553   4.104   8.655
 1203HO4    HW2 4811   2.599   4.204   8.760
 1203HO4     MW 4812   2.541   4.128   8.747
 1204HO4     OW 4813   8.296   5.779   9.714
 1204HO4    HW1 4814   8.328   5.861   9.752
 1204HO4    HW2 4815   8.268   5.727   9.790
 1204HO4     MW 4816   8.296   5.779   9.714
 1205HO4     OW 4817   2.101   6.203   3.492
 1205HO4    HW1 4818   2.145   6.249   3.564
 1205HO4    HW2 4819   2.135   6.245   3.412
 1205HO4     MW 4820   2.101   6.203   3.492
 1206HO4     OW 4821   1.492   4.490   6.348
 1206HO4    HW1 4822   1.420   4.548   6.321
 1206HO4    HW2 4823   1.461   4.401   6.326
 1206HO4     MW 4824   1.492   4.490   6.348
 1207HO4     OW 4825   3.835   5.874   7.312
 1207HO4    HW1 4826   3.839   5.791   7.360
 1207HO4    HW2 4827   3.925   5.907   7.312
 1207HO4     MW 4828   3.835   5.874   7.312
 1208HO4     OW 4829   1.317   0.076   3.671
 1208HO4    HW1 4830   1.344   0.029   3.751
 1208HO4    HW2 4831   1.281   0.007   3.614
 1208HO4     MW 4832   1.317   0.076   3.671
 1209HO4     OW 4833   2.016   9.618   3.588
 1209HO4    HW1 4834   2.079   9.603   3.517
 1209HO4    HW2 4835   1.931   9.622   3.544
 1209HO4     MW 4836   2.016   9.618   3.588
 1210HO4     OW 4837   4.667   4.227   7.801
 1210HO4    HW1 4838   4.653   4.147   7.853
 1210HO4    HW2 4839   4.611   4.215   7.724
 1210HO4     MW 4840   4.667   4.227   7.801
 1211HO4     OW 4841   4.283   4.405   7.517
 1211HO4    HW1 4842   4.272   4.318   7.555
 1211HO4    HW2 4843   4.323   4.389   7.431
 1211HO4     MW 4844   4.283   4.405   7.517
 1212HO4     OW 4845   3.240   1.179   5.896
 1212HO4    HW1 4846   3.157   1.140   5.866
 1212HO4    HW2 4847   3.301   1.105   5.903
 1212HO4     MW 4848   3.240   1.179   5.896
 1213HO4     OW 4849   6.149   3.878   8.287
 1213HO4    HW1 4850   6.220   3.825   8.322
 1213HO4    HW2 4851   6.193   3.944   8.231
 1213HO4     MW 4852   6.149   3.878   8.287
 1214HO4     OW 4853   0.788   0.364   1.599
 1214HO4    HW1 4854   0.818   0.375   1.508
 1214HO4    HW2 4855   0.846   0.422   1.650
 1214HO4     MW 4856   0.788   0.364   1.599
 1215HO4     OW 4857   9.460   8.880  10.127
 1215HO4    HW1 4858   9.532   8.881  10.191
 1215HO4    HW2 4859   9.501   8.910  10.045
 1215HO4     MW 4860   9.460   8.880  10.127
 1216HO4     OW 4861   0.603   6.494   0.771
 1216HO4    HW1 4862   0.680   6.455   0.727
 1216HO4    HW2 4863   0.623   6.486   0.865
 1216HO4     MW 4864   0.603   6.494   0.771
 1217HO4     OW 4865   7.772   0.728   4.606
 1217HO4    HW1 4866   7.765   0.641   4.646
 1217HO4    HW2 4867   7.697   0.734   4.547
 1217HO4     MW 4868   7.772   0.728   4.606
 1218HO4     OW 4869   7.647   7.152   3.995
 1218HO4    HW1 4870   7.604   7.181   4.076
 1218HO4    HW2 4871   7.738   7.183   4.003
 1218HO4     MW 4872   7.647   7.152   3.995
 1219HO4     OW 4873   4.386   5.255   3.696
 1219HO4    HW1 4874   4.366   5.284   3.785
 1219HO4    HW2 4875   4.400   5.337   3.647
 1219HO4     MW 4876   4.386   5.255   3.696
 1220HO4     OW 4877   1.059   4.942   7.424
 1220HO4    HW1 4878   1.052   4.896   7.340
 1220HO4    HW2 4879   1.005   4.890   7.484
 1220HO4     MW 4880   1.059   4.942   7.424
 1221HO4     OW 4881   7.391  10.081   8.973
 1221HO4    HW1 4882   7.448  10.124   8.908
 1221HO4    HW2 4883   7.433  10.102   9.058
 1221HO4     MW 4884   7.391  10.081   8.973
 1222HO4     OW 4885   0.714   7.644   3.811
 1222HO4    HW1 4886   0.733   7.694   3.731
 1222HO4    HW2 4887   0.642   7.692   3.854
 1222HO4     MW 4888   0.714   7.644   3.811
 1223HO4     OW 4889   3.532   7.413   4.669
 1223HO4    HW1 4890   3.452   7.400   4.618
 1223HO4    HW2 4891   3.544   7.331   4.718
 1223HO4     MW 4892   3.532   7.413   4.669
 1224HO4     OW 4893   4.939   6.066   1.153
 1224HO4    HW1 4894   4.947   6.123   1.230
 1224HO4    HW2 4895   4.944   6.126   1.078
 1224HO4     MW 4896   4.939   6.066   1.153
 1225HO4     OW 4897   0.400   0.706   8.405
 1225HO4    HW1 4898   0.378   0.638   8.469
 1225HO4    HW2 4899   0.359   0.676   8.323
 1225HO4     MW 4900   0.400   0.706   8.405
 1226HO4     OW 4901   3.911   7.224   6.233
 1226HO4    HW1 4902   3.883   7.289   6.298
 1226HO4    HW2 4903   4.005   7.215   6.249
 1226HO4     MW 4904   3.911   7.224   6.233
 1227HO4     OW 4905   8.389   6.152   1.851
 1227HO4    HW1 4906   8.375   6.148   1.946
 1227HO4    HW2 4907   8.307   6.119   1.813
 1227HO4     MW 4908   8.389   6.152   1.851
 1228HO4     OW 4909   0.682   7.811   1.165
 1228HO4    HW1 4910   0.693   7.771   1.078
 1228HO4    HW2 4911   0.663   7.737   1.223
 1228HO4     MW 4912   0.682   7.811   1.165
 1229HO4     OW 4913   3.890   7.005   5.762
 1229HO4    HW1 4914   3.939   7.030   5.683
 1229HO4    HW2 4915   3.942   7.040   5.834
 1229HO4     MW 4916   3.890   7.005   5.762
 1230HO4     OW 4917   0.987   0.265   7.031
 1230HO4    HW1 4918   0.940   0.247   7.113
 1230HO4    HW2 4919   0.944   0.209   6.966
 1230HO4     MW 4920   0.987   0.265   7.031
 1231HO4     OW 4921   6.183   4.948   3.077
 1231HO4    HW1 4922   6.106   4.911   3.034
 1231HO4    HW2 4923   6.152   4.970   3.166
 1231HO4     MW 4924   6.183   4.948   3.077
 1232HO4     OW 4925   1.271   4.696   8.266
 1232HO4    HW1 4926   1.317   4.734   8.342
 1232HO4    HW2 4927   1.315   4.735   8.190
 1232HO4     MW 4928   1.271   4.696   8.266
 1233HO4     OW 4929   3.079   2.618   3.205
 1233HO4    HW1 4930   3.173   2.621   3.187
 1233HO4    HW2 4931   3.058   2.704   3.242
 1233HO4     MW 4932   3.079   2.618   3.205
 1234HO4     OW 4933   0.641   5.865   7.446
 1234HO4    HW1 4934   0.569   5.833   7.390
 1234HO4    HW2 4935   0.654   5.795   7.510
 1234HO4     MW 4936   0.641   5.865   7.446
 1235HO4     OW 4937   4.980   1.767   4.691
 1235HO4    HW1 4938   4.999   1.775   4.597
 1235HO4    HW2 4939   4.977   1.858   4.722
 1235HO4     MW 4940   4.980   1.767   4.691
 1236HO4     OW 4941   4.926   3.041   1.573
 1236HO4    HW1 4942   4.888   3.062   1.659
 1236HO4    HW2 4943   4.968   2.956   1.586
 1236HO4     MW 4944   4.926   3.041   1.573
 1237HO4     OW 4945   4.312   4.798   9.305
 1237HO4    HW1 4946   4.376   4.831   9.241
 1237HO4    HW2 4947   4.340   4.837   9.388
 1237HO4     MW 4948   4.312   4.798   9.305
 1238HO4     OW 4949   7.867   3.645   8.409
 1238HO4    HW1 4950   7.927   3.711   8.445
 1238HO4    HW2 4951   7.812   3.620   8.484
 1238HO4     MW 4952   7.867   3.645   8.409
 1239HO4     OW 4953   5.873   2.228   5.853
 1239HO4    HW1 4954   5.880   2.293   5.923
 1239HO4    HW2 4955   5.885   2.279   5.772
 1239HO4     MW 4956   5.873   2.228   5.853
 1240HO4     OW 4957   2.227   0.173   2.788
 1240HO4    HW1 4958   2.194   0.134   2.706
 1240HO4    HW2 4959   2.191   0.116   2.857
 1240HO4     MW 4960   2.227   0.173   2.788
 1241HO4     OW 4961   6.445   9.000   2.459
 1241HO4    HW1 4962   6.418   9.033   2.546
 1241HO4    HW2 4963   6.383   9.042   2.398
 1241HO4     MW 4964   6.445   9.000   2.459
 1242HO4     OW 4965   2.588   7.616   5.756
 1242HO4    HW1 4966   2.526   7.672   5.708
 1242HO4    HW2 4967   2.541   7.593   5.837
 1242HO4     MW 4968   2.588   7.616   5.756
 1243HO4     OW 4969   4.845   1.136   3.210
 1243HO4    HW1 4970   4.763   1.132   3.260
 1243HO4    HW2 4971   4.817   1.144   3.118
 1243HO4     MW 4972   4.845   1.136   3.210
 1244HO4     OW 4973   4.731   6.580   7.150
 1244HO4    HW1 4974   4.809   6.530   7.173
 1244HO4    HW2 4975   4.659   6.516   7.156
 1244HO4     MW 4976   4.731   6.580   7.150
 1245HO4     OW 4977   0.281   0.944   0.331
 1245HO4    HW1 4978   0.257   0.850   0.333
 1245HO4    HW2 4979   0.352   0.949   0.266
 1245HO4     MW 4980   0.281   0.944   0.331
 1246HO4     OW 4981   6.406   4.891   6.507
 1246HO4    HW1 4982   6.344   4.892   6.580
 1246HO4    HW2 4983   6.352   4.870   6.430
 1246HO4     MW 4984   6.406   4.891   6.507
 1247HO4     OW 4985   8.363   8.174   2.789
 1247HO4    HW1 4986   8.387   8.220   2.707
 1247HO4    HW2 4987   8.394   8.232   2.859
 1247HO4     MW 4988   8.363   8.174   2.789
 1248HO4     OW 4989   5.029   5.037   3.796
 1248HO4    HW1 4990   5.100   5.073   3.742
 1248HO4    HW2 4991   4.954   5.096   3.778
 1248HO4     MW 4992   5.029   5.037   3.796
 1249HO4     OW 4993   6.819   4.549   8.783
 1249HO4    HW1 4994   6.867   4.522   8.704
 1249HO4    HW2 4995   6.804   4.643   8.769
 1249HO4     MW 4996   6.819   4.549   8.783
 1250HO4     OW 4997   2.385   3.545   9.067
 1250HO4    HW1 4998   2.318   3.534   9.136
 1250HO4    HW2 4999   2.420   3.633   9.082
 1250HO4     MW 5000   2.385   3.545   9.067
 1251HO4     OW 5001   0.650   7.055   0.036
 1251HO4    HW1 5002   0.635   6.995  -0.038
 1251HO4    HW2 5003   0.629   7.003   0.114
 1251HO4     MW 5004   0.650   7.055   0.036
 1252HO4     OW 5005   4.663   9.136   8.211
 1252HO4    HW1 5006   4.712   9.062   8.249
 1252HO4    HW2 5007   4.696   9.143   8.121
 1252HO4     MW 5008   4.663   9.136   8.211
 1253HO4     OW 5009   4.290   0.355   7.581
 1253HO4    HW1 5010   4.346   0.283   7.613
 1253HO4    HW2 5011   4.203   0.336   7.618
 1253HO4     MW 5012   4.290   0.355   7.581
 1254HO4     OW 5013   1.953   9.998   2.474
 1254HO4    HW1 5014   1.916   9.953   2.397
 1254HO4    HW2 5015   2.009   9.932   2.516
 1254HO4     MW 5016   1.953   9.998   2.474
 1255HO4     OW 5017   9.480   7.724   1.768
 1255HO4    HW1 5018   9.516   7.666   1.836
 1255HO4    HW2 5019   9.459   7.806   1.814
 1255HO4     MW 5020   9.480   7.724   1.768
 1256HO4     OW 5021   4.950   6.001   9.001
 1256HO4    HW1 5022   4.981   6.000   8.909
 1256HO4    HW2 5023   4.984   6.084   9.036
 1256HO4     MW 5024   4.950   6.001   9.001
 1257HO4     OW 5025   0.723   7.194   1.437
 1257HO4    HW1 5026   0.695   7.197   1.345
 1257HO4    HW2 5027   0.660   7.251   1.483
 1257HO4     MW 5028   0.723   7.194   1.437
 1258HO4     OW 5029   6.019   4.943   2.440
 1258HO4    HW1 5030   6.005   4.890   2.361
 1258HO4    HW2 5031   5.978   4.891   2.510
 1258HO4     MW 5032   6.019   4.943   2.440
 1259HO4     OW 5033   6.495   2.753   3.150
 1259HO4    HW1 5034   6.462   2.695   3.080
 1259HO4    HW2 5035   6.434   2.828   3.150
 1259HO4     MW 5036   6.495   2.753   3.150
 1260HO4     OW 5037   9.968   5.955   4.201
 1260HO4    HW1 5038   9.912   5.959   4.279
 1260HO4    HW2 5039   9.908   5.925   4.131
 1260HO4     MW 5040   9.968   5.955   4.201
 1261HO4     OW 5041   7.720   0.049   7.070
 1261HO4    HW1 5042   7.746  -0.041   7.095
 1261HO4    HW2 5043   7.743   0.055   6.977
 1261HO4     MW 5044   7.720   0.049   7.070
 1262HO4     OW 5045   2.508   7.253   3.072
 1262HO4    HW1 5046   2.589   7.297   3.043
 1262HO4    HW2 5047   2.465   7.227   2.991
 1262HO4     MW 5048   2.508   7.253   3.072
 1263HO4     OW 5049   6.885   5.028   8.950
 1263HO4    HW1 5050   6.911   4.984   9.032
 1263HO4    HW2 5051   6.812   5.085   8.976
 1263HO4     MW 5052   6.885   5.028   8.950
 1264HO4     OW 5053   3.249   7.869   8.889
 1264HO4    HW1 5054   3.300   7.946   8.866
 1264HO4    HW2 5055   3.222   7.885   8.980
 1264HO4     MW 5056   3.249   7.869   8.889
 1265HO4     OW 5057   3.195   8.279   6.197
 1265HO4    HW1 5058   3.130   8.291   6.127
 1265HO4    HW2 5059   3.266   8.340   6.174
 1265HO4     MW 5060   3.195   8.279   6.197
 1266HO4     OW 5061   3.490   4.766   0.343
 1266HO4    HW1 5062   3.574   4.758   0.389
 1266HO4    HW2 5063   3.507   4.728   0.256
 1266HO4     MW 5064   3.490   4.766   0.343
 1267HO4     OW 5065   2.187   6.440   8.507
 1267HO4    HW1 5066   2.220   6.353   8.529
 1267HO4    HW2 5067   2.239   6.467   8.431
 1267HO4     MW 5068   2.187   6.440   8.507
 1268HO4     OW 5069   9.702   2.440   0.555
 1268HO4    HW1 5070   9.772   2.375   0.569
 1268HO4    HW2 5071   9.723   2.480   0.469
 1268HO4     MW 5072   9.702   2.440   0.555
 1269HO4     OW 5073   1.987   9.868   6.461
 1269HO4    HW1 5074   1.960   9.796   6.518
 1269HO4    HW2 5075   1.986   9.830   6.372
 1269HO4     MW 5076   1.987   9.868   6.461
 1270HO4     OW 5077   3.408   4.696   9.728
 1270HO4    HW1 5078   3.372   4.631   9.666
 1270HO4    HW2 5079   3.379   4.665   9.814
 1270HO4     MW 5080   3.408   4.696   9.728
 1271HO4     OW 5081   5.397   9.623   4.925
 1271HO4    HW1 5082   5.342   9.646   5.000
 1271HO4    HW2 5083   5.352   9.662   4.849
 1271HO4     MW 5084   5.397   9.623   4.925
 1272HO4     OW 5085   6.029   0.109   8.622
 1272HO4    HW1 5086   6.091   0.055   8.672
 1272HO4    HW2 5087   6.028   0.069   8.534
 1272HO4     MW 5088   6.029   0.109   8.622
 1273HO4     OW 5089   9.835   3.276   0.868
 1273HO4    HW1 5090   9.819   3.354   0.813
 1273HO4    HW2 5091   9.931   3.274   0.878
 1273HO4     MW 5092   9.835   3.276   0.868
 1274HO4     OW 5093   7.230   4.198   4.529
 1274HO4    HW1 5094   7.261   4.142   4.600
 1274HO4    HW2 5095   7.143   4.228   4.559
 1274HO4     MW 5096   7.230   4.198   4.529
 1275HO4     OW 5097   1.425   9.782   4.729
 1275HO4    HW1 5098   1.424   9.829   4.812
 1275HO4    HW2 5099   1.376   9.840   4.669
 1275HO4     MW 5100   1.425   9.782   4.729
 1276HO4     OW 5101   0.931   9.751   0.798
 1276HO4    HW1 5102   0.958   9.802   0.875
 1276HO4    HW2 5103   0.956   9.806   0.723
 1276HO4     MW 5104   0.931   9.751   0.798
 1277HO4     OW 5105   6.327   0.648   0.764
 1277HO4    HW1 5106   6.290   0.559   0.763
 1277HO4    HW2 5107   6.411   0.639   0.717
 1277HO4     MW 5108   6.327   0.648   0.764
 1278HO4     OW 5109   3.609   5.367   8.474
 1278HO4    HW1 5110   3.561   5.407   8.548
 1278HO4    HW2 5111   3.694   5.411   8.474
 1278HO4     MW 5112   3.609   5.367   8.474
 1279HO4     OW 5113   7.884   2.190  10.059
 1279HO4    HW1 5114   7.889   2.247  10.136
 1279HO4    HW2 5115   7.908   2.103  10.092
 1279HO4     MW 5116   7.884   2.190  10.059
 1280HO4     OW 5117   9.430   8.976   2.166
 1280HO4    HW1 5118   9.464   8.899   2.212
 1280HO4    HW2 5119   9.464   8.967   2.076
 1280HO4     MW 5120   9.430   8.976   2.166
 1281HO4     OW 5121   8.792   1.017   1.386
 1281HO4    HW1 5122   8.850   1.003   1.311
 1281HO4    HW2 5123   8.849   1.056   1.453
 1281HO4     MW 5124   8.792   1.017   1.386
 1282HO4     OW 5125   0.417   5.922   7.131
 1282HO4    HW1 5126   0.472   5.885   7.200
 1282HO4    HW2 5127   0.466   5.906   7.050
 1282HO4     MW 5128   0.417   5.922   7.131
 1283HO4     OW 5129   9.565   1.248   1.302
 1283HO4    HW1 5130   9.618   1.229   1.224
 1283HO4    HW2 5131   9.628   1.273   1.369
 1283HO4     MW 5132   9.565   1.248   1.302
 1284HO4     OW 5133   1.360   9.158   9.710
 1284HO4    HW1 5134   1.285   9.191   9.760
 1284HO4    HW2 5135   1.399   9.236   9.670
 1284HO4     MW 5136   1.360   9.158   9.710
 1285HO4     OW 5137   4.832   4.259   7.195
 1285HO4    HW1 5138   4.772   4.311   7.141
 1285HO4    HW2 5139   4.792   4.259   7.283
 1285HO4     MW 5140   4.832   4.259   7.195
 1286HO4     OW 5141   1.929   5.681   2.248
 1286HO4    HW1 5142   1.869   5.682   2.173
 1286HO4    HW2 5143   1.891   5.745   2.309
 1286HO4     MW 5144   1.929   5.681   2.248
 1287HO4     OW 5145   1.191   9.665   9.602
 1287HO4    HW1 5146   1.278   9.665   9.560
 1287HO4    HW2 5147   1.209   9.641   9.694
 1287HO4     MW 5148   1.191   9.665   9.602
 1288HO4     OW 5149   8.851   7.887   0.121
 1288HO4    HW1 5150   8.887   7.903   0.033
 1288HO4    HW2 5151   8.877   7.965   0.172
 1288HO4     MW 5152   8.851   7.887   0.121
 1289HO4     OW 5153   9.280   1.716   8.204
 1289HO4    HW1 5154   9.275   1.657   8.280
 1289HO4    HW2 5155   9.260   1.660   8.129
 1289HO4     MW 5156   9.280   1.716   8.204
 1290HO4     OW 5157   3.485   2.696   0.881
 1290HO4    HW1 5158   3.577   2.711   0.860
 1290HO4    HW2 5159   3.479   2.602   0.898
 1290HO4     MW 5160   3.485   2.696   0.881
 1291HO4     OW 5161   8.427   6.755   0.559
 1291HO4    HW1 5162   8.453   6.718   0.474
 1291HO4    HW2 5163   8.341   6.794   0.543
 1291HO4     MW 5164   8.427   6.755   0.559
 1292HO4     OW 5165   4.252   5.329   6.538
 1292HO4    HW1 5166   4.253   5.275   6.459
 1292HO4    HW2 5167   4.335   5.377   6.535
 1292HO4     MW 5168   4.252   5.329   6.538
 1293HO4     OW 5169   8.524   9.743   1.931
 1293HO4    HW1 5170   8.493   9.800   2.002
 1293HO4    HW2 5171   8.494   9.787   1.851
 1293HO4     MW 5172   8.524   9.743   1.931
 1294HO4     OW 5173   6.573   0.662   2.506
 1294HO4    HW1 5174   6.530   0.675   2.591
 1294HO4    HW2 5175   6.650   0.608   2.525
 1294HO4     MW 5176   6.573   0.662   2.506
 1295HO4     OW 5177   5.658   3.499   1.223
 1295HO4    HW1 5178   5.626   3.454   1.145
 1295HO4    HW2 5179   5.620   3.450   1.296
 1295HO4     MW 5180   5.658   3.499   1.223
 1296HO4     OW 5181   3.975   6.128   6.192
 1296HO4    HW1 5182   3.940   6.054   6.242
 1296HO4    HW2 5183   3.904   6.192   6.191
 1296HO4     MW 5184   3.975   6.128   6.192
 1297HO4     OW 5185   0.765   5.592   4.303
 1297HO4    HW1 5186   0.794   5.613   4.392
 1297HO4    HW2 5187   0.846   5.569   4.256
 1297HO4     MW 5188   0.765   5.592   4.303
 1298HO4     OW 5189   5.197   9.498   1.431
 1298HO4    HW1 5190   5.260   9.432   1.402
 1298HO4    HW2 5191   5.141   9.514   1.354
 1298HO4     MW 5192   5.197   9.498   1.431
 1299HO4     OW 5193   1.144   8.387   8.611
 1299HO4    HW1 5194   1.182   8.414   8.695
 1299HO4    HW2 5195   1.116   8.469   8.570
 1299HO4     MW 5196   1.144   8.387   8.611
 1300HO4     OW 5197   9.551   2.785   7.600
 1300HO4    HW1 5198   9.551   2.699   7.642
 1300HO4    HW2 5199   9.644   2.809   7.598
 1300HO4     MW 5200   9.551   2.785   7.600
 1301HO4     OW 5201   1.305   1.466   3.502
 1301HO4    HW1 5202   1.211   1.481   3.511
 1301HO4    HW2 5203   1.322   1.385   3.550
 1301HO4     MW 5204   1.305   1.466   3.502
 1302HO4     OW 5205   6.134   0.182   7.924
 1302HO4    HW1 5206   6.174   0.257   7.971
 1302HO4    HW2 5207   6.209   0.132   7.891
 1302HO4     MW 5208   6.134   0.182   7.924
 1303HO4     OW 5209   2.576   9.734   9.129
 1303HO4    HW1 5210   2.643   9.709   9.193
 1303HO4    HW2 5211   2.586   9.670   9.058
 1303HO4     MW 5212   2.576   9.734   9.129
 1304HO4     OW 5213   3.833   1.497   6.791
 1304HO4    HW1 5214   3.873   1.465   6.710
 1304HO4    HW2 5215   3.903   1.545   6.836
 1304HO4     MW 5216   3.833   1.497   6.791
 1305HO4     OW 5217   6.842   7.237   6.859
 1305HO4    HW1 5218   6.910   7.169   6.857
 1305HO4    HW2 5219   6.802   7.232   6.771
 1305HO4     MW 5220   6.842   7.237   6.859
 1306HO4     OW 5221   5.196   7.526   1.715
 1306HO4    HW1 5222   5.209   7.488   1.802
 1306HO4    HW2 5223   5.197   7.621   1.730
 1306HO4     MW 5224   5.196   7.526   1.715
 1307HO4     OW 5225   2.086   9.985   7.224
 1307HO4    HW1 5226   2.061  10.008   7.315
 1307HO4    HW2 5227   2.002   9.986   7.176
 1307HO4     MW 5228   2.086   9.985   7.224
 1308HO4     OW 5229   6.982   3.470   7.084
 1308HO4    HW1 5230   7.019   3.407   7.021
 1308HO4    HW2 5231   7.053   3.488   7.145
 1308HO4     MW 5232   6.982   3.470   7.084
 1309HO4     OW 5233   8.582   6.064   3.903
 1309HO4    HW1 5234   8.568   6.135   3.839
 1309HO4    HW2 5235   8.649   6.098   3.962
 1309HO4     MW 5236   8.582   6.064   3.903
 1310HO4     OW 5237   9.150   5.540   4.838
 1310HO4    HW1 5238   9.095   5.523   4.761
 1310HO4    HW2 5239   9.095   5.594   4.895
 1310HO4     MW 5240   9.150   5.540   4.838
 1311HO4     OW 5241   8.467   2.418   5.211
 1311HO4    HW1 5242   8.521   2.435   5.133
 1311HO4    HW2 5243   8.436   2.505   5.237
 1311HO4     MW 5244   8.467   2.418   5.211
 1312HO4     OW 5245   2.849   6.040   3.399
 1312HO4    HW1 5246   2.911   6.084   3.457
 1312HO4    HW2 5247   2.904   5.983   3.344
 1312HO4     MW 5248   2.849   6.040   3.399
 1313HO4     OW 5249   3.662   3.224   3.261
 1313HO4    HW1 5250   3.577   3.180   3.267
 1313HO4    HW2 5251   3.642   3.316   3.283
 1313HO4     MW 5252   3.662   3.224   3.261
 1314HO4     OW 5253   0.014   9.367   3.251
 1314HO4    HW1 5254  -0.072   9.369   3.293
 1314HO4    HW2 5255   0.075   9.390   3.321
 1314HO4     MW 5256   0.014   9.367   3.251
 1315HO4     OW 5257   9.720   5.676   9.402
 1315HO4    HW1 5258   9.724   5.715   9.315
 1315HO4    HW2 5259   9.684   5.588   9.387
 1315HO4     MW 5260   9.720   5.676   9.402
 1316HO4     OW 5261  10.026   1.568   8.846
 1316HO4    HW1 5262   9.996   1.611   8.765
 1316HO4    HW2 5263   9.996   1.625   8.917
 1316HO4     MW 5264  10.026   1.568   8.846
 1317HO4     OW 5265   5.818   2.265   3.614
 1317HO4    HW1 5266   5.752   2.329   3.642
 1317HO4    HW2 5267   5.822   2.202   3.686
 1317HO4     MW 5268   5.818   2.265   3.614
 1318HO4     OW 5269   8.014   5.728   0.260
 1318HO4    HW1 5270   8.061   5.705   0.180
 1318HO4    HW2 5271   8.066   5.688   0.331
 1318HO4     MW 5272   8.014   5.728   0.260
 1319HO4     OW 5273   6.588   1.824   9.278
 1319HO4    HW1 5274   6.536   1.774   9.215
 1319HO4    HW2 5275   6.546   1.805   9.363
 1319HO4     MW 5276   6.588   1.824   9.278
 1320HO4     OW 5277   1.739   2.627   2.170
 1320HO4    HW1 5278   1.705   2.668   2.089
 1320HO4    HW2 5279   1.690   2.671   2.241
 1320HO4     MW 5280   1.739   2.627   2.170
 1321HO4     OW 5281  10.134   6.475   4.163
 1321HO4    HW1 5282  10.120   6.536   4.089
 1321HO4    HW2 5283  10.214   6.428   4.139
 1321HO4     MW 5284  10.134   6.475   4.163
 1322HO4     OW 5285   7.362   9.396   9.688
 1322HO4    HW1 5286   7.339   9.308   9.656
 1322HO4    HW2 5287   7.282   9.428   9.731
 1322HO4     MW 5288   7.362   9.396   9.688
 1323HO4     OW 5289   4.968   4.708   5.356
 1323HO4    HW1 5290   5.004   4.795   5.372
 1323HO4    HW2 5291   4.873   4.719   5.362
 1323HO4     MW 5292   4.968   4.708   5.356
 1324HO4     OW 5293   6.863   8.581   4.780
 1324HO4    HW1 5294   6.814   8.663   4.789
 1324HO4    HW2 5295   6.845   8.551   4.691
 1324HO4     MW 5296   6.863   8.581   4.780
 1325HO4     OW 5297   7.600   5.095   4.948
 1325HO4    HW1 5298   7.631   5.119   5.036
 1325HO4    HW2 5299   7.679   5.100   4.894
 1325HO4     MW 5300   7.600   5.095   4.948
 1326HO4     OW 5301   2.151   8.616   8.089
 1326HO4    HW1 5302   2.144   8.691   8.149
 1326HO4    HW2 5303   2.128   8.653   8.003
 1326HO4     MW 5304   2.151   8.616   8.089
 1327HO4     OW 5305   9.847   1.234   5.356
 1327HO4    HW1 5306   9.920   1.180   5.327
 1327HO4    HW2 5307   9.853   1.233   5.452
 1327HO4     MW 5308   9.847   1.234   5.356
 1328HO4     OW 5309   2.623   7.592   3.523
 1328HO4    HW1 5310   2.634   7.541   3.443
 1328HO4    HW2 5311   2.680   7.549   3.588
 1328HO4     MW 5312   2.623   7.592   3.523
 1329HO4     OW 5313   1.415   6.765   7.142
 1329HO4    HW1 5314   1.448   6.679   7.118
 1329HO4    HW2 5315   1.492   6.823   7.137
 1329HO4     MW 5316   1.415   6.765   7.142
 1330HO4     OW 5317   7.594   7.682   0.402
 1330HO4    HW1 5318   7.631   7.635   0.477
 1330HO4    HW2 5319   7.626   7.634   0.325
 1330HO4     MW 5320   7.594   7.682   0.402
 1331HO4     OW 5321   6.473   7.780   5.625
 1331HO4    HW1 5322   6.486   7.843   5.697
 1331HO4    HW2 5323   6.489   7.831   5.545
 1331HO4     MW 5324   6.473   7.780   5.625
 1332HO4     OW 5325   1.819   1.228   9.472
 1332HO4    HW1 5326   1.834   1.238   9.567
 1332HO4    HW2 5327   1.742   1.170   9.466
 1332HO4     MW 5328   1.819   1.228   9.472
 1333HO4     OW 5329   3.662   4.398   4.216
 1333HO4    HW1 5330   3.586   4.372   4.164
 1333HO4    HW2 5331   3.628   4.466   4.275
 1333HO4     MW 5332   3.662   4.398   4.216
 1334HO4     OW 5333   4.229   4.559   3.279
 1334HO4    HW1 5334   4.199   4.591   3.364
 1334HO4    HW2 5335   4.175   4.606   3.215
 1334HO4     MW 5336   4.229   4.559   3.279
 1335HO4     OW 5337   2.586   4.090   6.185
 1335HO4    HW1 5338   2.556   4.054   6.101
 1335HO4    HW2 5339   2.566   4.021   6.249
 1335HO4     MW 5340   2.586   4.090   6.185
 1336HO4     OW 5341   3.676   4.912   8.455
 1336HO4    HW1 5342   3.760   4.868   8.471
 1336HO4    HW2 5343   3.610   4.846   8.478
 1336HO4     MW 5344   3.676   4.912   8.455
 1337HO4     OW 5345   0.573   1.090   5.017
 1337HO4    HW1 5346   0.606   1.169   5.061
 1337HO4    HW2 5347   0.587   1.108   4.923
 1337HO4     MW 5348   0.573   1.090   5.017
 1338HO4     OW 5349   4.444   5.667   1.110
 1338HO4    HW1 5350   4.452   5.603   1.182
 1338HO4    HW2 5351   4.372   5.633   1.056
 1338HO4     MW 5352   4.444   5.667   1.110
 1339HO4     OW 5353   9.925   6.868   3.556
 1339HO4    HW1 5354   9.931   6.959   3.586
 1339HO4    HW2 5355  10.013   6.847   3.524
 1339HO4     MW 5356   9.925   6.868   3.556
 1340HO4     OW 5357   5.550   5.240   8.985
 1340HO4    HW1 5358   5.641   5.209   8.980
 1340HO4    HW2 5359   5.514   5.195   9.062
 1340HO4     MW 5360   5.550   5.240   8.985
 1341HO4     OW 5361   8.908   3.617   0.371
 1341HO4    HW1 5362   8.937   3.621   0.279
 1341HO4    HW2 5363   8.955   3.690   0.413
 1341HO4     MW 5364   8.908   3.617   0.371
 1342HO4     OW 5365   5.224   6.949   1.170
 1342HO4    HW1 5366   5.169   6.918   1.243
 1342HO4    HW2 5367   5.255   7.035   1.198
 1342HO4     MW 5368   5.224   6.949   1.170
 1343HO4     OW 5369   3.852   4.281   0.578
 1343HO4    HW1 5370   3.781   4.345   0.572
 1343HO4    HW2 5371   3.861   4.263   0.672
 1343HO4     MW 5372   3.852   4.281   0.578
 1344HO4     OW 5373   9.990   1.487   6.554
 1344HO4    HW1 5374   9.945   1.524   6.478
 1344HO4    HW2 5375   9.945   1.524   6.630
 1344HO4     MW 5376   9.990   1.487   6.554
 1345HO4     OW 5377   2.632   9.278   3.404
 1345HO4    HW1 5378   2.614   9.296   3.497
 1345HO4    HW2 5379   2.675   9.192   3.404
 1345HO4     MW 5380   2.632   9.278   3.404
 1346HO4     OW 5381   4.394   5.241   7.606
 1346HO4    HW1 5382   4.352   5.178   7.666
 1346HO4    HW2 5383   4.440   5.186   7.543
 1346HO4     MW 5384   4.394   5.241   7.606
 1347HO4     OW 5385   3.847   4.179   0.138
 1347HO4    HW1 5386   3.781   4.115   0.166
 1347HO4    HW2 5387   3.907   4.128   0.082
 1347HO4     MW 5388   3.847   4.179   0.138
 1348HO4     OW 5389   1.436   3.524   4.839
 1348HO4    HW1 5390   1.429   3.506   4.744
 1348HO4    HW2 5391   1.354   3.490   4.876
 1348HO4     MW 5392   1.436   3.524   4.839
 1349HO4     OW 5393   8.799   7.634   1.217
 1349HO4    HW1 5394   8.794   7.704   1.151
 1349HO4    HW2 5395   8.730   7.572   1.190
 1349HO4     MW 5396   8.799   7.634   1.217
 1350HO4     OW 5397   5.072   0.037   1.748
 1350HO4    HW1 5398   5.046   0.037   1.841
 1350HO4    HW2 5399   4.991   0.059   1.702
 1350HO4     MW 5400   5.072   0.037   1.748
 1351HO4     OW 5401   2.426   3.947  10.082
 1351HO4    HW1 5402   2.451   3.967  10.173
 1351HO4    HW2 5403   2.478   4.008  10.029
 1351HO4     MW 5404   2.426   3.947  10.082
 1352HO4     OW 5405   3.911   0.502   0.865
 1352HO4    HW1 5406   3.978   0.504   0.935
 1352HO4    HW2 5407   3.843   0.444   0.899
 1352HO4     MW 5408   3.911   0.502   0.865
 1353HO4     OW 5409   1.018   4.118   5.307
 1353HO4    HW1 5410   1.072   4.090   5.382
 1353HO4    HW2 5411   1.072   4.099   5.230
 1353HO4     MW 5412   1.018   4.118   5.307
 1354HO4     OW 5413   6.392   8.260   9.514
 1354HO4    HW1 5414   6.360   8.317   9.443
 1354HO4    HW2 5415   6.456   8.314   9.561
 1354HO4     MW 5416   6.392   8.260   9.514
 1355HO4     OW 5417   2.330   8.884   2.355
 1355HO4    HW1 5418   2.245   8.905   2.315
 1355HO4    HW2 5419   2.380   8.840   2.285
 1355HO4     MW 5420   2.330   8.884   2.355
 1356HO4     OW 5421   4.872   9.972   6.303
 1356HO4    HW1 5422   4.857  10.051   6.250
 1356HO4    HW2 5423   4.808   9.978   6.374
 1356HO4     MW 5424   4.872   9.972   6.303
 1357HO4     OW 5425   4.754   2.930   5.747
 1357HO4    HW1 5426   4.819   2.859   5.752
 1357HO4    HW2 5427   4.681   2.900   5.802
 1357HO4     MW 5428   4.754   2.930   5.747
 1358HO4     OW 5429   8.221   3.329   1.812
 1358HO4    HW1 5430   8.185   3.244   1.839
 1358HO4    HW2 5431   8.169   3.352   1.734
 1358HO4     MW 5432   8.221   3.329   1.812
 1359HO4     OW 5433   7.836   1.199   9.543
 1359HO4    HW1 5434   7.745   1.228   9.544
 1359HO4    HW2 5435   7.861   1.195   9.636
 1359HO4     MW 5436   7.836   1.199   9.543
 1360HO4     OW 5437   5.938   0.158   5.955
 1360HO4    HW1 5438   5.983   0.195   5.879
 1360HO4    HW2 5439   5.850   0.196   5.952
 1360HO4     MW 5440   5.938   0.158   5.955
 1361HO4     OW 5441   2.109   6.154   6.395
 1361HO4    HW1 5442   2.055   6.075   6.383
 1361HO4    HW2 5443   2.070   6.198   6.471
 1361HO4     MW 5444   2.109   6.154   6.395
 1362HO4     OW 5445   2.713   6.179   4.760
 1362HO4    HW1 5446   2.621   6.203   4.774
 1362HO4    HW2 5447   2.751   6.255   4.714
 1362HO4     MW 5448   2.713   6.179   4.760
 1363HO4     OW 5449   0.482   2.789   9.184
 1363HO4    HW1 5450   0.481   2.806   9.278
 1363HO4    HW2 5451   0.421   2.855   9.147
 1363HO4     MW 5452   0.482   2.789   9.184
 1364HO4     OW 5453   3.027   2.382   0.292
 1364HO4    HW1 5454   3.012   2.292   0.321
 1364HO4    HW2 5455   3.077   2.373   0.210
 1364HO4     MW 5456   3.027   2.382   0.292
 1365HO4     OW 5457   0.801   7.521   8.642
 1365HO4    HW1 5458   0.859   7.495   8.714
 1365HO4    HW2 5459   0.713   7.506   8.676
 1365HO4     MW 5460   0.801   7.521   8.642
 1366HO4     OW 5461   2.045   7.198   5.758
 1366HO4    HW1 5462   2.107   7.255   5.804
 1366HO4    HW2 5463   2.090   7.174   5.676
 1366HO4     MW 5464   2.045   7.198   5.758
 1367HO4     OW 5465   0.270   6.838   0.307
 1367HO4    HW1 5466   0.182   6.874   0.322
 1367HO4    HW2 5467   0.290   6.792   0.389
 1367HO4     MW 5468   0.270   6.838   0.307
 1368HO4     OW 5469   8.959   7.018   6.096
 1368HO4    HW1 5470   8.876   6.990   6.135
 1368HO4    HW2 5471   8.956   6.983   6.006
 1368HO4     MW 5472   8.959   7.018   6.096
 1369HO4     OW 5473   5.315   9.716   5.426
 1369HO4    HW1 5474   5.374   9.755   5.360
 1369HO4    HW2 5475   5.295   9.629   5.392
 1369HO4     MW 5476   5.315   9.716   5.426
 1370HO4     OW 5477   2.661   5.262   7.161
 1370HO4    HW1 5478   2.610   5.289   7.238
 1370HO4    HW2 5479   2.613   5.299   7.086
 1370HO4     MW 5480   2.661   5.262   7.161
 1371HO4     OW 5481   4.588   2.616   6.072
 1371HO4    HW1 5482   4.574   2.702   6.031
 1371HO4    HW2 5483   4.612   2.637   6.163
 1371HO4     MW 5484   4.588   2.616   6.072
 1372HO4     OW 5485   3.115   2.873   6.360
 1372HO4    HW1 5486   3.190   2.897   6.415
 1372HO4    HW2 5487   3.151   2.869   6.271
 1372HO4     MW 5488   3.115   2.873   6.360
 1373HO4     OW 5489   4.736   8.022   3.247
 1373HO4    HW1 5490   4.812   8.054   3.198
 1373HO4    HW2 5491   4.754   8.049   3.338
 1373HO4     MW 5492   4.736   8.022   3.247
 1374HO4     OW 5493   8.031   6.817   8.110
 1374HO4    HW1 5494   7.941   6.849   8.122
 1374HO4    HW2 5495   8.067   6.873   8.040
 1374HO4     MW 5496   8.031   6.817   8.110
 1375HO4     OW 5497   9.785   2.028   4.816
 1375HO4    HW1 5498   9.762   1.973   4.740
 1375HO4    HW2 5499   9.741   2.112   4.797
 1375HO4     MW 5500   9.785   2.028   4.816
 1376HO4     OW 5501   2.451   9.978   7.041
 1376HO4    HW1 5502   2.359   9.957   7.060
 1376HO4    HW2 5503   2.495   9.893   7.037
 1376HO4     MW 5504   2.451   9.978   7.041
 1377HO4     OW 5505   5.375   1.309   1.545
 1377HO4    HW1 5506   5.439   1.281   1.479
 1377HO4    HW2 5507   5.428   1.343   1.617
 1377HO4     MW 5508   5.375   1.309   1.545
 1378HO4     OW 5509   9.276   0.911   7.553
 1378HO4    HW1 5510   9.309   0.835   7.603
 1378HO4    HW2 5511   9.206   0.874   7.499
 1378HO4     MW 5512   9.276   0.911   7.553
 1379HO4     OW 5513   6.831   1.069   7.372
 1379HO4    HW1 5514   6.883   1.058   7.453
 1379HO4    HW2 5515   6.892   1.042   7.302
 1379HO4     MW 5516   6.831   1.069   7.372
 1380HO4     OW 5517   1.360   8.794   1.532
 1380HO4    HW1 5518   1.374   8.844   1.451
 1380HO4    HW2 5519   1.446   8.755   1.551
 1380HO4     MW 5520   1.360   8.794   1.532
 1381HO4     OW 5521   1.978   9.982   1.065
 1381HO4    HW1 5522   2.023  10.019   1.142
 1381HO4    HW2 5523   2.033  10.007   0.991
 1381HO4     MW 5524   1.978   9.982   1.065
 1382HO4     OW 5525   6.540   8.699   7.478
 1382HO4    HW1 5526   6.484   8.674   7.405
 1382HO4    HW2 5527   6.607   8.630   7.482
 1382HO4     MW 5528   6.540   8.699   7.478
 1383HO4     OW 5529   2.467   7.704   7.228
 1383HO4    HW1 5530   2.427   7.670   7.147
 1383HO4    HW2 5531   2.561   7.710   7.208
 1383HO4     MW 5532   2.467   7.704   7.228
 1384HO4     OW 5533   3.030   7.118   7.334
 1384HO4    HW1 5534   3.122   7.134   7.309
 1384HO4    HW2 5535   3.027   7.139   7.428
 1384HO4     MW 5536   3.030   7.118   7.334
 1385HO4     OW 5537   2.479   7.175   4.607
 1385HO4    HW1 5538   2.480   7.267   4.634
 1385HO4    HW2 5539   2.506   7.177   4.514
 1385HO4     MW 5540   2.479   7.175   4.607
 1386HO4     OW 5541  10.078   7.875   2.748
 1386HO4    HW1 5542  10.051   7.833   2.666
 1386HO4    HW2 5543  10.066   7.807   2.815
 1386HO4     MW 5544  10.078   7.875   2.748
 1387HO4     OW 5545   4.712   8.826   9.624
 1387HO4    HW1 5546   4.740   8.866   9.542
 1387HO4    HW2 5547   4.633   8.776   9.601
 1387HO4     MW 5548   4.712   8.826   9.624
 1388HO4     OW 5549   2.249   6.861   2.323
 1388HO4    HW1 5550   2.285   6.811   2.249
 1388HO4    HW2 5551   2.297   6.828   2.399
 1388HO4     MW 5552   2.249   6.861   2.323
 1389HO4     OW 5553   7.969   3.733   7.123
 1389HO4    HW1 5554   7.946   3.815   7.079
 1389HO4    HW2 5555   8.026   3.761   7.196
 1389HO4     MW 5556   7.969   3.733   7.123
 1390HO4     OW 5557   4.854   8.360   3.700
 1390HO4    HW1 5558   4.815   8.419   3.634
 1390HO4    HW2 5559   4.926   8.411   3.737
 1390HO4     MW 5560   4.854   8.360   3.700
 1391HO4     OW 5561   3.962   5.072   2.381
 1391HO4    HW1 5562   3.947   5.163   2.410
 1391HO4    HW2 5563   4.044   5.077   2.330
 1391HO4     MW 5564   3.962   5.072   2.381
 1392HO4     OW 5565   1.240   6.806   4.734
 1392HO4    HW1 5566   1.149   6.818   4.706
 1392HO4    HW2 5567   1.269   6.894   4.760
 1392HO4     MW 5568   1.240   6.806   4.734
 1393HO4     OW 5569   4.568   7.966   8.290
 1393HO4    HW1 5570   4.587   8.035   8.227
 1393HO4    HW2 5571   4.545   8.013   8.371
 1393HO4     MW 5572   4.568   7.966   8.290
 1394HO4     OW 5573   3.817   7.779   2.654
 1394HO4    HW1 5574   3.845   7.831   2.578
 1394HO4    HW2 5575   3.854   7.826   2.729
 1394HO4     MW 5576   3.817   7.779   2.654
 1395HO4     OW 5577   7.774   1.756   8.106
 1395HO4    HW1 5578   7.812   1.765   8.018
 1395HO4    HW2 5579   7.843   1.713   8.158
 1395HO4     MW 5580   7.774   1.756   8.106
 1396HO4     OW 5581   7.794   5.820   5.334
 1396HO4    HW1 5582   7.828   5.772   5.258
 1396HO4    HW2 5583   7.828   5.772   5.410
 1396HO4     MW 5584   7.794   5.820   5.334
 1397HO4     OW 5585   4.167   2.916   3.756
 1397HO4    HW1 5586   4.120   2.883   3.833
 1397HO4    HW2 5587   4.104   2.904   3.683
 1397HO4     MW 5588   4.167   2.916   3.756
 1398HO4     OW 5589   4.460   1.332   4.728
 1398HO4    HW1 5590   4.438   1.387   4.652
 1398HO4    HW2 5591   4.440   1.388   4.804
 1398HO4     MW 5592   4.460   1.332   4.728
 1399HO4     OW 5593   7.735   1.595   4.064
 1399HO4    HW1 5594   7.807   1.612   4.126
 1399HO4    HW2 5595   7.746   1.661   3.996
 1399HO4     MW 5596   7.735   1.595   4.064
 1400HO4     OW 5597   0.163   1.116   8.468
 1400HO4    HW1 5598   0.075   1.153   8.483
 1400HO4    HW2 5599   0.186   1.073   8.551
 1400HO4     MW 5600   0.163   1.116   8.468
 1401HO4     OW 5601   2.494   9.961   0.655
 1401HO4    HW1 5602   2.549   9.887   0.626
 1401HO4    HW2 5603   2.480   9.944   0.748
 1401HO4     MW 5604   2.494   9.961   0.655
 1402HO4     OW 5605   9.848   2.993   9.889
 1402HO4    HW1 5606   9.825   2.914   9.940
 1402HO4    HW2 5607   9.813   2.975   9.801
 1402HO4     MW 5608   9.848   2.993   9.889
 1403HO4     OW 5609   9.988   1.896   9.897
 1403HO4    HW1 5610  10.053   1.950   9.850
 1403HO4    HW2 5611   9.999   1.922   9.989
 1403HO4     MW 5612   9.988   1.896   9.897
 1404HO4     OW 5613   6.131   9.467   1.532
 1404HO4    HW1 5614   6.104   9.532   1.466
 1404HO4    HW2 5615   6.156   9.520   1.609
 1404HO4     MW 5616   6.131   9.467   1.532
 1405HO4     OW 5617   2.033   3.942   8.129
 1405HO4    HW1 5618   1.977   3.935   8.052
 1405HO4    HW2 5619   1.973   3.936   8.204
 1405HO4     MW 5620   2.033   3.942   8.129
 1406HO4     OW 5621   1.187   2.731   7.704
 1406HO4    HW1 5622   1.273   2.699   7.735
 1406HO4    HW2 5623   1.208   2.809   7.652
 1406HO4     MW 5624   1.187   2.731   7.704
 1407HO4     OW 5625   0.799   4.352   1.771
 1407HO4    HW1 5626   0.830   4.425   1.826
 1407HO4    HW2 5627   0.713   4.381   1.740
 1407HO4     MW 5628   0.799   4.352   1.771
 1408HO4     OW 5629   9.740   7.777   0.139
 1408HO4    HW1 5630   9.826   7.747   0.170
 1408HO4    HW2 5631   9.677   7.721   0.184
 1408HO4     MW 5632   9.740   7.777   0.139
 1409HO4     OW 5633   8.161   9.632   7.807
 1409HO4    HW1 5634   8.163   9.574   7.730
 1409HO4    HW2 5635   8.173   9.572   7.881
 1409HO4     MW 5636   8.161   9.632   7.807
 1410HO4     OW 5637   2.383   8.108   2.857
 1410HO4    HW1 5638   2.364   8.055   2.778
 1410HO4    HW2 5639   2.382   8.045   2.929
 1410HO4     MW 5640   2.383   8.108   2.857
 1411HO4     OW 5641   8.841   7.247   3.169
 1411HO4    HW1 5642   8.819   7.216   3.080
 1411HO4    HW2 5643   8.811   7.338   3.170
 1411HO4     MW 5644   8.841   7.247   3.169
 1412HO4     OW 5645   3.976   8.786   2.381
 1412HO4    HW1 5646   3.975   8.807   2.475
 1412HO4    HW2 5647   3.961   8.871   2.338
 1412HO4     MW 5648   3.976   8.786   2.381
 1413HO4     OW 5649   8.884   5.964   3.051
 1413HO4    HW1 5650   8.811   5.916   3.091
 1413HO4    HW2 5651   8.952   5.897   3.039
 1413HO4     MW 5652   8.884   5.964   3.051
 1414HO4     OW 5653   0.543   7.242   5.074
 1414HO4    HW1 5654   0.468   7.227   5.132
 1414HO4    HW2 5655   0.505   7.283   4.996
 1414HO4     MW 5656   0.543   7.242   5.074
 1415HO4     OW 5657   4.798   0.629   7.396
 1415HO4    HW1 5658   4.750   0.660   7.318
 1415HO4    HW2 5659   4.781   0.696   7.463
 1415HO4     MW 5660   4.798   0.629   7.396
 1416HO4     OW 5661   0.426   3.306   7.623
 1416HO4    HW1 5662   0.510   3.339   7.658
 1416HO4    HW2 5663   0.451   3.233   7.566
 1416HO4     MW 5664   0.426   3.306   7.623
 1417HO4     OW 5665   9.825   7.867   4.075
 1417HO4    HW1 5666   9.747   7.908   4.114
 1417HO4    HW2 5667   9.829   7.903   3.986
 1417HO4     MW 5668   9.825   7.867   4.075
 1418HO4     OW 5669   4.831   0.649   9.189
 1418HO4    HW1 5670   4.851   0.587   9.119
 1418HO4    HW2 5671   4.735   0.642   9.200
 1418HO4     MW 5672   4.831   0.649   9.189
 1419HO4     OW 5673   4.801   8.626   5.657
 1419HO4    HW1 5674   4.719   8.575   5.657
 1419HO4    HW2 5675   4.860   8.577   5.714
 1419HO4     MW 5676   4.801   8.626   5.657
 1420HO4     OW 5677   3.448   6.931   1.567
 1420HO4    HW1 5678   3.365   6.903   1.528
 1420HO4    HW2 5679   3.450   6.887   1.653
 1420HO4     MW 5680   3.448   6.931   1.567
 1421HO4     OW 5681   3.850   5.776   0.160
 1421HO4    HW1 5682   3.902   5.833   0.101
 1421HO4    HW2 5683   3.915   5.726   0.209
 1421HO4     MW 5684   3.850   5.776   0.160
 1422HO4     OW 5685   1.909   8.862   9.427
 1422HO4    HW1 5686   1.916   8.888   9.335
 1422HO4    HW2 5687   1.990   8.813   9.444
 1422HO4     MW 5688   1.909   8.862   9.427
 1423HO4     OW 5689   7.574   3.239   8.376
 1423HO4    HW1 5690   7.505   3.279   8.322
 1423HO4    HW2 5691   7.571   3.146   8.355
 1423HO4     MW 5692   7.574   3.239   8.376
 1424HO4     OW 5693   2.797   8.792   3.241
 1424HO4    HW1 5694   2.771   8.835   3.323
 1424HO4    HW2 5695   2.743   8.834   3.173
 1424HO4     MW 5696   2.797   8.792   3.241
 1425HO4     OW 5697  10.039   5.171   9.332
 1425HO4    HW1 5698   9.993   5.104   9.385
 1425HO4    HW2 5699  10.026   5.142   9.241
 1425HO4     MW 5700  10.039   5.171   9.332
 1426HO4     OW 5701   6.059  10.132   7.972
 1426HO4    HW1 5702   6.033  10.076   7.898
 1426HO4    HW2 5703   6.039  10.080   8.050
 1426HO4     MW 5704   6.059  10.132   7.972
 1427HO4     OW 5705   6.219   0.259   3.427
 1427HO4    HW1 5706   6.283   0.188   3.429
 1427HO4    HW2 5707   6.220   0.290   3.336
 1427HO4     MW 5708   6.219   0.259   3.427
 1428HO4     OW 5709   4.641   7.605   0.638
 1428HO4    HW1 5710   4.645   7.591   0.733
 1428HO4    HW2 5711   4.731   7.587   0.608
 1428HO4     MW 5712   4.641   7.605   0.638
 1429HO4     OW 5713   5.517   4.563   7.056
 1429HO4    HW1 5714   5.587   4.539   7.116
 1429HO4    HW2 5715   5.549   4.535   6.969
 1429HO4     MW 5716   5.517   4.563   7.056
 1430HO4     OW 5717   2.838   4.293   9.997
 1430HO4    HW1 5718   2.836   4.333  10.084
 1430HO4    HW2 5719   2.805   4.362   9.938
 1430HO4     MW 5720   2.838   4.293   9.997
 1431HO4     OW 5721   8.752   0.173   1.911
 1431HO4    HW1 5722   8.808   0.178   1.989
 1431HO4    HW2 5723   8.813   0.179   1.837
 1431HO4     MW 5724   8.752   0.173   1.911
 1432HO4     OW 5725   9.178   3.820   3.644
 1432HO4    HW1 5726   9.254   3.785   3.692
 1432HO4    HW2 5727   9.206   3.818   3.551
 1432HO4     MW 5728   9.178   3.820   3.644
 1433HO4     OW 5729   1.834   0.697   4.442
 1433HO4    HW1 5730   1.756   0.753   4.435
 1433HO4    HW2 5731   1.799   0.610   4.463
 1433HO4     MW 5732   1.834   0.697   4.442
 1434HO4     OW 5733   7.144   9.890   7.574
 1434HO4    HW1 5734   7.150   9.871   7.480
 1434HO4    HW2 5735   7.110   9.980   7.579
 1434HO4     MW 5736   7.144   9.890   7.574
 1435HO4     OW 5737   4.488   0.093   5.309
 1435HO4    HW1 5738   4.575   0.097   5.349
 1435HO4    HW2 5739   4.482   0.172   5.255
 1435HO4     MW 5740   4.488   0.093   5.309
 1436HO4     OW 5741   0.736   5.675   1.254
 1436HO4    HW1 5742   0.668   5.607   1.253
 1436HO4    HW2 5743   0.773   5.673   1.166
 1436HO4     MW 5744   0.736   5.675   1.254
 1437HO4     OW 5745   6.685   4.549   9.527
 1437HO4    HW1 5746   6.707   4.569   9.619
 1437HO4    HW2 5747   6.622   4.617   9.502
 1437HO4     MW 5748   6.685   4.549   9.527
 1438HO4     OW 5749   5.844   5.544   1.344
 1438HO4    HW1 5750   5.857   5.476   1.411
 1438HO4    HW2 5751   5.750   5.541   1.326
 1438HO4     MW 5752   5.844   5.544   1.344
 1439HO4     OW 5753   4.233   9.449   5.093
 1439HO4    HW1 5754   4.164   9.490   5.146
 1439HO4    HW2 5755   4.267   9.521   5.039
 1439HO4     MW 5756   4.233   9.449   5.093
 1440HO4     OW 5757   9.226   1.366   6.762
 1440HO4    HW1 5758   9.313   1.328   6.747
 1440HO4    HW2 5759   9.180   1.302   6.817
 1440HO4     MW 5760   9.226   1.366   6.762
 1441HO4     OW 5761   5.118   9.476   4.862
 1441HO4    HW1 5762   5.047   9.521   4.814
 1441HO4    HW2 5763   5.088   9.475   4.953
 1441HO4     MW 5764   5.118   9.476   4.862
 1442HO4     OW 5765   5.376   8.153   9.930
 1442HO4    HW1 5766   5.456   8.163   9.983
 1442HO4    HW2 5767   5.371   8.058   9.913
 1442HO4     MW 5768   5.376   8.153   9.930
 1443HO4     OW 5769   6.230   2.610   5.116
 1443HO4    HW1 5770   6.312   2.632   5.162
 1443HO4    HW2 5771   6.253   2.619   5.023
 1443HO4     MW 5772   6.230   2.610   5.116
 1444HO4     OW 5773   0.502   0.450   2.929
 1444HO4    HW1 5774   0.544   0.491   2.854
 1444HO4    HW2 5775   0.421   0.411   2.893
 1444HO4     MW 5776   0.502   0.450   2.929
 1445HO4     OW 5777   9.621   4.652  10.026
 1445HO4    HW1 5778   9.704   4.696  10.047
 1445HO4    HW2 5779   9.575   4.714   9.969
 1445HO4     MW 5780   9.621   4.652  10.026
 1446HO4     OW 5781   9.184   4.765   1.521
 1446HO4    HW1 5782   9.159   4.752   1.429
 1446HO4    HW2 5783   9.141   4.693   1.568
 1446HO4     MW 5784   9.184   4.765   1.521
 1447HO4     OW 5785   9.198   4.938   8.970
 1447HO4    HW1 5786   9.237   4.940   9.058
 1447HO4    HW2 5787   9.273   4.945   8.910
 1447HO4     MW 5788   9.198   4.938   8.970
 1448HO4     OW 5789   9.410   2.704  10.070
 1448HO4    HW1 5790   9.405   2.799  10.051
 1448HO4    HW2 5791   9.465   2.699  10.149
 1448HO4     MW 5792   9.410   2.704  10.070
 1449HO4     OW 5793   1.758  10.056   5.689
 1449HO4    HW1 5794   1.802  10.130   5.646
 1449HO4    HW2 5795   1.709  10.013   5.619
 1449HO4     MW 5796   1.758  10.056   5.689
 1450HO4     OW 5797   9.981   4.419   6.640
 1450HO4    HW1 5798  10.067   4.463   6.639
 1450HO4    HW2 5799   9.942   4.442   6.555
 1450HO4     MW 5800   9.981   4.419   6.640
 1451HO4     OW 5801   5.976   7.000   7.275
 1451HO4    HW1 5802   6.026   6.941   7.218
 1451HO4    HW2 5803   6.044   7.055   7.317
 1451HO4     MW 5804   5.976   7.000   7.275
 1452HO4     OW 5805   9.987   8.385   9.386
 1452HO4    HW1 5806  10.043   8.399   9.462
 1452HO4    HW2 5807   9.906   8.347   9.422
 1452HO4     MW 5808   9.987   8.385   9.386
 1453HO4     OW 5809   8.994   9.652   3.076
 1453HO4    HW1 5810   9.021   9.566   3.042
 1453HO4    HW2 5811   8.921   9.679   3.019
 1453HO4     MW 5812   8.994   9.652   3.076
 1454HO4     OW 5813   7.129   0.695   7.618
 1454HO4    HW1 5814   7.178   0.672   7.538
 1454HO4    HW2 5815   7.116   0.611   7.662
 1454HO4     MW 5816   7.129   0.695   7.618
 1455HO4     OW 5817   7.899   3.438   0.300
 1455HO4    HW1 5818   7.819   3.489   0.317
 1455HO4    HW2 5819   7.876   3.382   0.225
 1455HO4     MW 5820   7.899   3.438   0.300
 1456HO4     OW 5821   6.297   3.926   2.378
 1456HO4    HW1 5822   6.276   4.016   2.403
 1456HO4    HW2 5823   6.368   3.935   2.314
 1456HO4     MW 5824   6.297   3.926   2.378
 1457HO4     OW 5825   1.559   0.690   0.412
 1457HO4    HW1 5826   1.513   0.696   0.328
 1457HO4    HW2 5827   1.514   0.753   0.469
 1457HO4     MW 5828   1.559   0.690   0.412
 1458HO4     OW 5829   2.631   6.946   2.820
 1458HO4    HW1 5830   2.572   6.891   2.767
 1458HO4    HW2 5831   2.630   6.905   2.907
 1458HO4     MW 5832   2.631   6.946   2.820
 1459HO4     OW 5833   5.731   4.757   0.918
 1459HO4    HW1 5834   5.776   4.767   1.002
 1459HO4    HW2 5835   5.803   4.755   0.853
 1459HO4     MW 5836   5.731   4.757   0.918
 1460HO4     OW 5837   2.923   5.904   6.615
 1460HO4    HW1 5838   2.829   5.908   6.596
 1460HO4    HW2 5839   2.937   5.815   6.646
 1460HO4     MW 5840   2.923   5.904   6.615
 1461HO4     OW 5841   7.440   2.567   6.047
 1461HO4    HW1 5842   7.518   2.532   6.090
 1461HO4    HW2 5843   7.468   2.654   6.016
 1461HO4     MW 5844   7.440   2.567   6.047
 1462HO4     OW 5845   0.545   9.991   4.832
 1462HO4    HW1 5846   0.629  10.037   4.823
 1462HO4    HW2 5847   0.553   9.943   4.915
 1462HO4     MW 5848   0.545   9.991   4.832
 1463HO4     OW 5849   1.419  10.060   9.979
 1463HO4    HW1 5850   1.416  10.133  10.042
 1463HO4    HW2 5851   1.458  10.099   9.900
 1463HO4     MW 5852   1.419  10.060   9.979
 1464HO4     OW 5853   9.112   8.148   3.860
 1464HO4    HW1 5854   9.178   8.080   3.845
 1464HO4    HW2 5855   9.116   8.165   3.954
 1464HO4     MW 5856   9.112   8.148   3.860
 1465HO4     OW 5857   1.203   0.975   0.845
 1465HO4    HW1 5858   1.135   0.928   0.796
 1465HO4    HW2 5859   1.189   0.951   0.937
 1465HO4     MW 5860   1.203   0.975   0.845
 1466HO4     OW 5861   8.836   7.214   4.003
 1466HO4    HW1 5862   8.785   7.293   3.986
 1466HO4    HW2 5863   8.790   7.171   4.076
 1466HO4     MW 5864   8.836   7.214   4.003
 1467HO4     OW 5865   7.891   6.473   8.703
 1467HO4    HW1 5866   7.801   6.456   8.732
 1467HO4    HW2 5867   7.911   6.560   8.739
 1467HO4     MW 5868   7.891   6.473   8.703
 1468HO4     OW 5869   4.515   4.487   6.800
 1468HO4    HW1 5870   4.421   4.496   6.782
 1468HO4    HW2 5871   4.521   4.409   6.856
 1468HO4     MW 5872   4.515   4.487   6.800
 1469HO4     OW 5873   3.607   9.468   2.658
 1469HO4    HW1 5874   3.563   9.386   2.635
 1469HO4    HW2 5875   3.700   9.452   2.641
 1469HO4     MW 5876   3.607   9.468   2.658
 1470HO4     OW 5877   1.558   1.114   6.089
 1470HO4    HW1 5878   1.611   1.036   6.108
 1470HO4    HW2 5879   1.592   1.146   6.005
 1470HO4     MW 5880   1.558   1.114   6.089
 1471HO4     OW 5881   2.195   0.746   0.080
 1471HO4    HW1 5882   2.289   0.732   0.067
 1471HO4    HW2 5883   2.154   0.670   0.037
 1471HO4     MW 5884   2.195   0.746   0.080
 1472HO4     OW 5885   8.885   1.770   0.197
 1472HO4    HW1 5886   8.926   1.838   0.143
 1472HO4    HW2 5887   8.919   1.786   0.286
 1472HO4     MW 5888   8.885   1.770   0.197
 1473HO4     OW 5889   9.050   0.821   9.121
 1473HO4    HW1 5890   9.089   0.875   9.190
 1473HO4    HW2 5891   9.074   0.865   9.039
 1473HO4     MW 5892   9.050   0.821   9.121
 1474HO4     OW 5893   1.098   2.038   3.203
 1474HO4    HW1 5894   1.092   1.976   3.129
 1474HO4    HW2 5895   1.015   2.025   3.251
 1474HO4     MW 5896   1.098   2.038   3.203
 1475HO4     OW 5897   4.215   2.265   6.469
 1475HO4    HW1 5898   4.152   2.212   6.419
 1475HO4    HW2 5899   4.164   2.341   6.499
 1475HO4     MW 5900   4.215   2.265   6.469
 1476HO4     OW 5901   2.298   4.247   0.412
 1476HO4    HW1 5902   2.344   4.228   0.330
 1476HO4    HW2 5903   2.339   4.188   0.476
 1476HO4     MW 5904   2.298   4.247   0.412
 1477HO4     OW 5905   7.034   9.722   9.167
 1477HO4    HW1 5906   7.076   9.727   9.253
 1477HO4    HW2 5907   7.097   9.674   9.112
 1477HO4     MW 5908   7.034   9.722   9.167
 1478HO4     OW 5909   6.048   2.336   6.914
 1478HO4    HW1 5910   6.080   2.293   6.834
 1478HO4    HW2 5911   6.047   2.267   6.980
 1478HO4     MW 5912   6.048   2.336   6.914
 1479HO4     OW 5913   7.099   9.982   3.038
 1479HO4    HW1 5914   7.057  10.015   3.118
 1479HO4    HW2 5915   7.050  10.024   2.967
 1479HO4     MW 5916   7.099   9.982   3.038
 1480HO4     OW 5917   1.096   2.835   6.237
 1480HO4    HW1 5918   1.132   2.827   6.148
 1480HO4    HW2 5919   1.021   2.894   6.227
 1480HO4     MW 5920   1.096   2.835   6.237
 1481HO4     OW 5921   2.836   8.598   2.623
 1481HO4    HW1 5922   2.879   8.684   2.626
 1481HO4    HW2 5923   2.840   8.572   2.531
 1481HO4     MW 5924   2.836   8.598   2.623
 1482HO4     OW 5925   6.481   4.492   6.392
 1482HO4    HW1 5926   6.500   4.525   6.304
 1482HO4    HW2 5927   6.386   4.506   6.403
 1482HO4     MW 5928   6.481   4.492   6.392
 1483HO4     OW 5929   1.329   8.998   7.367
 1483HO4    HW1 5930   1.274   9.011   7.445
 1483HO4    HW2 5931   1.271   9.017   7.294
 1483HO4     MW 5932   1.329   8.998   7.367
 1484HO4     OW 5933   2.856   5.572   1.611
 1484HO4    HW1 5934   2.908   5.604   1.686
 1484HO4    HW2 5935   2.883   5.629   1.539
 1484HO4     MW 5936   2.856   5.572   1.611
 1485HO4     OW 5937   8.070   5.201   7.709
 1485HO4    HW1 5938   8.106   5.198   7.798
 1485HO4    HW2 5939   8.147   5.214   7.652
 1485HO4     MW 5940   8.070   5.201   7.709
 1486HO4     OW 5941   7.758   5.606   1.969
 1486HO4    HW1 5942   7.778   5.701   1.966
 1486HO4    HW2 5943   7.758   5.585   2.062
 1486HO4     MW 5944   7.758   5.606   1.969
 1487HO4     OW 5945   6.989   6.928   0.449
 1487HO4    HW1 5946   7.031   6.907   0.365
 1487HO4    HW2 5947   6.898   6.946   0.426
 1487HO4     MW 5948   6.989   6.928   0.449
 1488HO4     OW 5949   4.355   1.563   5.732
 1488HO4    HW1 5950   4.393   1.571   5.644
 1488HO4    HW2 5951   4.355   1.653   5.767
 1488HO4     MW 5952   4.355   1.563   5.732
 1489HO4     OW 5953   1.033   9.900   5.277
 1489HO4    HW1 5954   1.059   9.889   5.185
 1489HO4    HW2 5955   1.113   9.932   5.321
 1489HO4     MW 5956   1.033   9.900   5.277
 1490HO4     OW 5957   4.856   9.737   1.529
 1490HO4    HW1 5958   4.940   9.756   1.484
 1490HO4    HW2 5959   4.789   9.763   1.465
 1490HO4     MW 5960   4.856   9.737   1.529
 1491HO4     OW 5961   7.515   1.284   1.638
 1491HO4    HW1 5962   7.436   1.232   1.652
 1491HO4    HW2 5963   7.587   1.222   1.652
 1491HO4     MW 5964   7.515   1.284   1.638
 1492HO4     OW 5965   9.837   2.957   0.870
 1492HO4    HW1 5966   9.750   2.994   0.888
 1492HO4    HW2 5967   9.842   2.953   0.774
 1492HO4     MW 5968   9.837   2.957   0.870
 1493HO4     OW 5969   3.913   1.806   0.843
 1493HO4    HW1 5970   3.943   1.779   0.755
 1493HO4    HW2 5971   3.975   1.765   0.903
 1493HO4     MW 5972   3.913   1.806   0.843
 1494HO4     OW 5973   5.263   9.914   6.608
 1494HO4    HW1 5974   5.280   9.936   6.516
 1494HO4    HW2 5975   5.168   9.902   6.613
 1494HO4     MW 5976   5.263   9.914   6.608
 1495HO4     OW 5977   0.963   5.408   2.390
 1495HO4    HW1 5978   1.050   5.438   2.361
 1495HO4    HW2 5979   0.919   5.380   2.309
 1495HO4     MW 5980   0.963   5.408   2.390
 1496HO4     OW 5981   1.070   0.593   3.204
 1496HO4    HW1 5982   1.128   0.618   3.131
 1496HO4    HW2 5983   1.070   0.496   3.203
 1496HO4     MW 5984   1.070   0.593   3.204
 1497HO4     OW 5985   1.472   3.825   1.011
 1497HO4    HW1 5986   1.408   3.777   0.958
 1497HO4    HW2 5987   1.440   3.916   1.012
 1497HO4     MW 5988   1.472   3.825   1.011
 1498HO4     OW 5989   6.246   1.203   0.194
 1498HO4    HW1 5990   6.271   1.112   0.212
 1498HO4    HW2 5991   6.229   1.205   0.099
 1498HO4     MW 5992   6.246   1.203   0.194
 1499HO4     OW 5993   6.245   1.914   5.477
 1499HO4    HW1 5994   6.166   1.875   5.514
 1499HO4    HW2 5995   6.317   1.881   5.532
 1499HO4     MW 5996   6.245   1.914   5.477
 1500HO4     OW 5997   7.928   7.454   0.822
 1500HO4    HW1 5998   7.930   7.542   0.860
 1500HO4    HW2 5999   7.970   7.465   0.736
 1500HO4     MW 6000   7.928   7.454   0.822
 1501HO4     OW 6001   8.095   5.989   1.904
 1501HO4    HW1 6002   8.110   6.080   1.931
 1501HO4    HW2 6003   8.170   5.969   1.847
 1501HO4     MW 6004   8.095   5.989   1.904
 1502HO4     OW 6005   8.478   0.131   0.492
 1502HO4    HW1 6006   8.564   0.088   0.481
 1502HO4    HW2 6007   8.433   0.115   0.408
 1502HO4     MW 6008   8.478   0.131   0.492
 1503HO4     OW 6009   8.232   9.918   2.240
 1503HO4    HW1 6010   8.281   9.852   2.290
 1503HO4    HW2 6011   8.257   9.902   2.148
 1503HO4     MW 6012   8.232   9.918   2.240
 1504HO4     OW 6013   7.130   0.078   3.855
 1504HO4    HW1 6014   7.049   0.126   3.878
 1504HO4    HW2 6015   7.177   0.138   3.797
 1504HO4     MW 6016   7.130   0.078   3.855
 1505HO4     OW 6017   1.742   4.571   2.805
 1505HO4    HW1 6018   1.684   4.632   2.852
 1505HO4    HW2 6019   1.822   4.568   2.859
 1505HO4     MW 6020   1.742   4.571   2.805
 1506HO4     OW 6021   3.697   2.109   1.197
 1506HO4    HW1 6022   3.715   2.200   1.173
 1506HO4    HW2 6023   3.783   2.073   1.221
 1506HO4     MW 6024   3.697   2.109   1.197
 1507HO4     OW 6025   5.985   1.109   0.558
 1507HO4    HW1 6026   5.985   1.121   0.463
 1507HO4    HW2 6027   6.024   1.022   0.571
 1507HO4     MW 6028   5.985   1.109   0.558
 1508HO4     OW 6029   4.175   7.844   3.342
 1508HO4    HW1 6030   4.225   7.800   3.273
 1508HO4    HW2 6031   4.234   7.846   3.418
 1508HO4     MW 6032   4.175   7.844   3.342
 1509HO4     OW 6033   7.004   2.192   7.273
 1509HO4    HW1 6034   6.975   2.101   7.279
 1509HO4    HW2 6035   6.957   2.227   7.197
 1509HO4     MW 6036   7.004   2.192   7.273
 1510HO4     OW 6037   1.072   0.402   7.633
 1510HO4    HW1 6038   1.055   0.364   7.547
 1510HO4    HW2 6039   0.990   0.447   7.656
 1510HO4     MW 6040   1.072   0.402   7.633
 1511HO4     OW 6041   8.265   5.568   7.728
 1511HO4    HW1 6042   8.192   5.592   7.785
 1511HO4    HW2 6043   8.238   5.598   7.640
 1511HO4     MW 6044   8.265   5.568   7.728
 1512HO4     OW 6045   5.539   9.297   4.464
 1512HO4    HW1 6046   5.498   9.326   4.546
 1512HO4    HW2 6047   5.473   9.240   4.423
 1512HO4     MW 6048   5.539   9.297   4.464
 1513HO4     OW 6049   1.823   2.858   7.971
 1513HO4    HW1 6050   1.814   2.899   8.057
 1513HO4    HW2 6051   1.907   2.892   7.937
 1513HO4     MW 6052   1.823   2.858   7.971
 1514HO4     OW 6053   9.697   9.301   3.520
 1514HO4    HW1 6054   9.692   9.360   3.444
 1514HO4    HW2 6055   9.712   9.360   3.595
 1514HO4     MW 6056   9.697   9.301   3.520
 1515HO4     OW 6057   3.069   3.169   1.544
 1515HO4    HW1 6058   3.004   3.220   1.594
 1515HO4    HW2 6059   3.143   3.159   1.605
 1515HO4     MW 6060   3.069   3.169   1.544
 1516HO4     OW 6061   7.122   2.217   8.826
 1516HO4    HW1 6062   7.181   2.154   8.869
 1516HO4    HW2 6063   7.124   2.190   8.733
 1516HO4     MW 6064   7.122   2.217   8.826
 1517HO4     OW 6065   2.966   6.721   9.617
 1517HO4    HW1 6066   2.991   6.766   9.699
 1517HO4    HW2 6067   3.047   6.719   9.566
 1517HO4     MW 6068   2.966   6.721   9.617
 1518HO4     OW 6069   7.146   2.597   1.448
 1518HO4    HW1 6070   7.095   2.586   1.366
 1518HO4    HW2 6071   7.084   2.639   1.508
 1518HO4     MW 6072   7.146   2.597   1.448
 1519HO4     OW 6073   8.360   9.454   9.760
 1519HO4    HW1 6074   8.424   9.525   9.772
 1519HO4    HW2 6075   8.281   9.499   9.729
 1519HO4     MW 6076   8.360   9.454   9.760
 1520HO4     OW 6077   4.937   1.957   3.283
 1520HO4    HW1 6078   4.920   1.904   3.362
 1520HO4    HW2 6079   4.980   2.036   3.316
 1520HO4     MW 6080   4.937   1.957   3.283
 1521HO4     OW 6081   3.260   6.409   0.474
 1521HO4    HW1 6082   3.213   6.367   0.547
 1521HO4    HW2 6083   3.207   6.386   0.396
 1521HO4     MW 6084   3.260   6.409   0.474
 1522HO4     OW 6085   9.266   2.687   1.113
 1522HO4    HW1 6086   9.264   2.635   1.194
 1522HO4    HW2 6087   9.213   2.636   1.051
 1522HO4     MW 6088   9.266   2.687   1.113
 1523HO4     OW 6089   8.723   9.006   5.947
 1523HO4    HW1 6090   8.677   9.045   5.873
 1523HO4    HW2 6091   8.684   9.047   6.025
 1523HO4     MW 6092   8.723   9.006   5.947
 1524HO4     OW 6093   7.164   6.880   3.485
 1524HO4    HW1 6094   7.214   6.832   3.552
 1524HO4    HW2 6095   7.149   6.815   3.416
 1524HO4     MW 6096   7.164   6.880   3.485
 1525HO4     OW 6097   7.518   2.996  10.096
 1525HO4    HW1 6098   7.612   2.999  10.075
 1525HO4    HW2 6099   7.513   2.941  10.175
 1525HO4     MW 6100   7.518   2.996  10.096
 1526HO4     OW 6101   9.439   1.023   6.913
 1526HO4    HW1 6102   9.476   1.010   7.001
 1526HO4    HW2 6103   9.355   0.976   6.916
 1526HO4     MW 6104   9.439   1.023   6.913
 1527HO4     OW 6105   4.853   7.500   9.992
 1527HO4    HW1 6106   4.872   7.405   9.994
 1527HO4    HW2 6107   4.848   7.525  10.084
 1527HO4     MW 6108   4.853   7.500   9.992
 1528HO4     OW 6109   3.496   3.688   2.766
 1528HO4    HW1 6110   3.479   3.746   2.841
 1528HO4    HW2 6111   3.495   3.747   2.689
 1528HO4     MW 6112   3.496   3.688   2.766
 1529HO4     OW 6113   1.285   4.267   1.089
 1529HO4    HW1 6114   1.319   4.261   1.179
 1529HO4    HW2 6115   1.315   4.186   1.047
 1529HO4     MW 6116   1.285   4.267   1.089
 1530HO4     OW 6117   2.928   9.687   1.641
 1530HO4    HW1 6118   2.998   9.747   1.670
 1530HO4    HW2 6119   2.887   9.732   1.566
 1530HO4     MW 6120   2.928   9.687   1.641
 1531HO4     OW 6121   5.747   0.652   4.705
 1531HO4    HW1 6122   5.822   0.699   4.743
 1531HO4    HW2 6123   5.676   0.665   4.768
 1531HO4     MW 6124   5.747   0.652   4.705
 1532HO4     OW 6125   8.431   8.292   2.423
 1532HO4    HW1 6126   8.447   8.325   2.512
 1532HO4    HW2 6127   8.519   8.277   2.387
 1532HO4     MW 6128   8.431   8.292   2.423
 1533HO4     OW 6129   6.036   1.660   1.348
 1533HO4    HW1 6130   6.000   1.689   1.432
 1533HO4    HW2 6131   6.043   1.740   1.296
 1533HO4     MW 6132   6.036   1.660   1.348
 1534HO4     OW 6133   5.221   4.747   6.022
 1534HO4    HW1 6134   5.243   4.729   6.114
 1534HO4    HW2 6135   5.135   4.790   6.026
 1534HO4     MW 6136   5.221   4.747   6.022
 1535HO4     OW 6137   6.038   2.281   0.037
 1535HO4    HW1 6138   6.109   2.304  -0.024
 1535HO4    HW2 6139   6.015   2.364   0.079
 1535HO4     MW 6140   6.038   2.281   0.037
 1536HO4     OW 6141   3.256   8.572   3.005
 1536HO4    HW1 6142   3.267   8.483   2.970
 1536HO4    HW2 6143   3.188   8.611   2.949
 1536HO4     MW 6144   3.256   8.572   3.005
 1537HO4     OW 6145   9.660   1.169   8.580
 1537HO4    HW1 6146   9.665   1.097   8.643
 1537HO4    HW2 6147   9.646   1.126   8.495
 1537HO4     MW 6148   9.660   1.169   8.580
 1538HO4     OW 6149   8.569   4.318   4.547
 1538HO4    HW1 6150   8.567   4.391   4.484
 1538HO4    HW2 6151   8.560   4.360   4.633
 1538HO4     MW 6152   8.569   4.318   4.547
 1539HO4     OW 6153   7.007   8.932   5.408
 1539HO4    HW1 6154   7.010   8.903   5.316
 1539HO4    HW2 6155   7.098   8.926   5.437
 1539HO4     MW 6156   7.007   8.932   5.408
 1540HO4     OW 6157   7.054   9.563   2.518
 1540HO4    HW1 6158   7.034   9.649   2.480
 1540HO4    HW2 6159   7.100   9.584   2.600
 1540HO4     MW 6160   7.054   9.563   2.518
 1541HO4     OW 6161   3.165   9.852   5.391
 1541HO4    HW1 6162   3.188   9.901   5.311
 1541HO4    HW2 6163   3.249   9.840   5.436
 1541HO4     MW 6164   3.165   9.852   5.391
 1542HO4     OW 6165   9.244   1.962   5.224
 1542HO4    HW1 6166   9.252   1.903   5.300
 1542HO4    HW2 6167   9.333   1.969   5.189
 1542HO4     MW 6168   9.244   1.962   5.224
 1543HO4     OW 6169   0.913   7.244   8.875
 1543HO4    HW1 6170   0.862   7.176   8.920
 1543HO4    HW2 6171   0.863   7.261   8.794
 1543HO4     MW 6172   0.913   7.244   8.875
 1544HO4     OW 6173   3.698   9.895   9.702
 1544HO4    HW1 6174   3.621   9.874   9.648
 1544HO4    HW2 6175   3.762   9.827   9.679
 1544HO4     MW 6176   3.698   9.895   9.702
 1545HO4     OW 6177   8.416   5.013   4.000
 1545HO4    HW1 6178   8.390   5.091   3.950
 1545HO4    HW2 6179   8.499   4.985   3.960
 1545HO4     MW 6180   8.416   5.013   4.000
 1546HO4     OW 6181   3.048   7.306   0.723
 1546HO4    HW1 6182   3.123   7.250   0.745
 1546HO4    HW2 6183   2.996   7.309   0.803
 1546HO4     MW 6184   3.048   7.306   0.723
 1547HO4     OW 6185   1.972   1.753   1.786
 1547HO4    HW1 6186   1.910   1.819   1.819
 1547HO4    HW2 6187   2.055   1.773   1.829
 1547HO4     MW 6188   1.972   1.753   1.786
 1548HO4     OW 6189   7.218   9.997   3.671
 1548HO4    HW1 6190   7.220   9.923   3.731
 1548HO4    HW2 6191   7.290  10.054   3.700
 1548HO4     MW 6192   7.218   9.997   3.671
 1549HO4     OW 6193   9.138   5.705   9.237
 1549HO4    HW1 6194   9.096   5.621   9.257
 1549HO4    HW2 6195   9.230   5.683   9.220
 1549HO4     MW 6196   9.138   5.705   9.237
 1550HO4     OW 6197   4.116   8.898   9.418
 1550HO4    HW1 6198   4.081   8.910   9.329
 1550HO4    HW2 6199   4.211   8.910   9.408
 1550HO4     MW 6200   4.116   8.898   9.418
 1551HO4     OW 6201   3.481   9.575   5.192
 1551HO4    HW1 6202   3.515   9.628   5.266
 1551HO4    HW2 6203   3.485   9.635   5.117
 1551HO4     MW 6204   3.481   9.575   5.192
 1552HO4     OW 6205   1.521   0.071   9.410
 1552HO4    HW1 6206   1.461  -0.003   9.403
 1552HO4    HW2 6207   1.568   0.073   9.326
 1552HO4     MW 6208   1.521   0.071   9.410
 1553HO4     OW 6209   4.905  10.079   4.219
 1553HO4    HW1 6210   4.916  10.022   4.296
 1553HO4    HW2 6211   4.833  10.138   4.243
 1553HO4     MW 6212   4.905  10.079   4.219
 1554HO4     OW 6213   4.799   2.703   3.698
 1554HO4    HW1 6214   4.734   2.658   3.644
 1554HO4    HW2 6215   4.786   2.796   3.678
 1554HO4     MW 6216   4.799   2.703   3.698
 1555HO4     OW 6217   9.427   6.508  10.072
 1555HO4    HW1 6218   9.354   6.497  10.135
 1555HO4    HW2 6219   9.386   6.497   9.986
 1555HO4     MW 6220   9.427   6.508  10.072
 1556HO4     OW 6221   6.644  10.026   7.114
 1556HO4    HW1 6222   6.606  10.114   7.122
 1556HO4    HW2 6223   6.731  10.040   7.076
 1556HO4     MW 6224   6.644  10.026   7.114
 1557HO4     OW 6225   1.335   0.291   1.344
 1557HO4    HW1 6226   1.252   0.314   1.302
 1557HO4    HW2 6227   1.310   0.257   1.430
 1557HO4     MW 6228   1.335   0.291   1.344
 1558HO4     OW 6229   6.925   9.598   6.897
 1558HO4    HW1 6230   6.848   9.544   6.874
 1558HO4    HW2 6231   6.940   9.579   6.990
 1558HO4     MW 6232   6.925   9.598   6.897
 1559HO4     OW 6233   9.643   1.273   9.326
 1559HO4    HW1 6234   9.734   1.262   9.355
 1559HO4    HW2 6235   9.639   1.364   9.293
 1559HO4     MW 6236   9.643   1.273   9.326
 1560HO4     OW 6237   0.770   7.869   5.871
 1560HO4    HW1 6238   0.835   7.886   5.940
 1560HO4    HW2 6239   0.780   7.944   5.811
 1560HO4     MW 6240   0.770   7.869   5.871
 1561HO4     OW 6241   9.683   3.022   8.616
 1561HO4    HW1 6242   9.657   2.968   8.541
 1561HO4    HW2 6243   9.649   2.975   8.693
 1561HO4     MW 6244   9.683   3.022   8.616
 1562HO4     OW 6245   8.830   0.722   7.106
 1562HO4    HW1 6246   8.892   0.658   7.070
 1562HO4    HW2 6247   8.875   0.759   7.183
 1562HO4     MW 6248   8.830   0.722   7.106
 1563HO4     OW 6249   0.199   8.308   9.209
 1563HO4    HW1 6250   0.196   8.266   9.122
 1563HO4    HW2 6251   0.226   8.398   9.190
 1563HO4     MW 6252   0.199   8.308   9.209
 1564HO4     OW 6253   3.429   1.937   5.757
 1564HO4    HW1 6254   3.457   1.997   5.688
 1564HO4    HW2 6255   3.342   1.970   5.783
 1564HO4     MW 6256   3.429   1.937   5.757
 1565HO4     OW 6257   5.724   6.815   8.078
 1565HO4    HW1 6258   5.679   6.791   7.996
 1565HO4    HW2 6259   5.659   6.800   8.147
 1565HO4     MW 6260   5.724   6.815   8.078
 1566HO4     OW 6261   5.083   0.945   1.439
 1566HO4    HW1 6262   5.063   0.993   1.520
 1566HO4    HW2 6263   5.031   0.865   1.446
 1566HO4     MW 6264   5.083   0.945   1.439
 1567HO4     OW 6265   0.052   0.383   1.586
 1567HO4    HW1 6266   0.104   0.459   1.612
 1567HO4    HW2 6267   0.023   0.403   1.496
 1567HO4     MW 6268   0.052   0.383   1.586
 1568HO4     OW 6269   9.444   3.200   4.381
 1568HO4    HW1 6270   9.397   3.278   4.414
 1568HO4    HW2 6271   9.519   3.236   4.333
 1568HO4     MW 6272   9.444   3.200   4.381
 1569HO4     OW 6273   2.453   7.736   7.891
 1569HO4    HW1 6274   2.540   7.749   7.929
 1569HO4    HW2 6275   2.469   7.722   7.797
 1569HO4     MW 6276   2.453   7.736   7.891
 1570HO4     OW 6277   5.413   1.720   6.355
 1570HO4    HW1 6278   5.489   1.745   6.408
 1570HO4    HW2 6279   5.351   1.793   6.366
 1570HO4     MW 6280   5.413   1.720   6.355
 1571HO4     OW 6281   8.867   9.918   9.899
 1571HO4    HW1 6282   8.825   9.854   9.956
 1571HO4    HW2 6283   8.793   9.971   9.866
 1571HO4     MW 6284   8.867   9.918   9.899
 1572HO4     OW 6285   3.535   8.419   2.515
 1572HO4    HW1 6286   3.471   8.401   2.445
 1572HO4    HW2 6287   3.483   8.414   2.596
 1572HO4     MW 6288   3.535   8.419   2.515
 1573HO4     OW 6289   4.731   7.533   3.285
 1573HO4    HW1 6290   4.793   7.545   3.213
 1573HO4    HW2 6291   4.660   7.481   3.247
 1573HO4     MW 6292   4.731   7.533   3.285
 1574HO4     OW 6293   2.983   6.964   6.099
 1574HO4    HW1 6294   2.962   6.872   6.080
 1574HO4    HW2 6295   3.050   6.958   6.169
 1574HO4     MW 6296   2.983   6.964   6.099
 1575HO4     OW 6297   0.144   7.741   9.165
 1575HO4    HW1 6298   0.108   7.786   9.242
 1575HO4    HW2 6299   0.214   7.800   9.133
 1575HO4     MW 6300   0.144   7.741   9.165
 1576HO4     OW 6301   3.436   3.910   4.670
 1576HO4    HW1 6302   3.412   4.000   4.649
 1576HO4    HW2 6303   3.470   3.873   4.588
 1576HO4     MW 6304   3.436   3.910   4.670
 1577HO4     OW 6305   4.201   5.368   3.391
 1577HO4    HW1 6306   4.163   5.314   3.461
 1577HO4    HW2 6307   4.214   5.307   3.318
 1577HO4     MW 6308   4.201   5.368   3.391
 1578HO4     OW 6309   5.062   2.676   3.800
 1578HO4    HW1 6310   5.017   2.761   3.790
 1578HO4    HW2 6311   4.999   2.622   3.849
 1578HO4     MW 6312   5.062   2.676   3.800
 1579HO4     OW 6313   5.211   0.902   5.459
 1579HO4    HW1 6314   5.276   0.932   5.394
 1579HO4    HW2 6315   5.206   0.975   5.522
 1579HO4     MW 6316   5.211   0.902   5.459
 1580HO4     OW 6317   7.771   8.465   4.111
 1580HO4    HW1 6318   7.823   8.389   4.084
 1580HO4    HW2 6319   7.808   8.490   4.197
 1580HO4     MW 6320   7.771   8.465   4.111
 1581HO4     OW 6321   9.200   9.095   1.244
 1581HO4    HW1 6322   9.166   9.164   1.186
 1581HO4    HW2 6323   9.217   9.141   1.327
 1581HO4     MW 6324   9.200   9.095   1.244
 1582HO4     OW 6325   6.963   5.810   3.142
 1582HO4    HW1 6326   7.015   5.743   3.096
 1582HO4    HW2 6327   7.018   5.834   3.218
 1582HO4     MW 6328   6.963   5.810   3.142
 1583HO4     OW 6329   5.298   8.457   8.582
 1583HO4    HW1 6330   5.367   8.433   8.519
 1583HO4    HW2 6331   5.294   8.382   8.642
 1583HO4     MW 6332   5.298   8.457   8.582
 1584HO4     OW 6333   0.608   4.853   3.066
 1584HO4    HW1 6334   0.588   4.910   2.991
 1584HO4    HW2 6335   0.585   4.905   3.143
 1584HO4     MW 6336   0.608   4.853   3.066
 1585HO4     OW 6337   0.255   5.345   7.856
 1585HO4    HW1 6338   0.196   5.365   7.783
 1585HO4    HW2 6339   0.197   5.337   7.933
 1585HO4     MW 6340   0.255   5.345   7.856
 1586HO4     OW 6341   1.370   9.442   0.952
 1586HO4    HW1 6342   1.450   9.488   0.979
 1586HO4    HW2 6343   1.311   9.512   0.923
 1586HO4     MW 6344   1.370   9.442   0.952
 1587HO4     OW 6345   0.154   2.967   5.505
 1587HO4    HW1 6346   0.207   2.957   5.426
 1587HO4    HW2 6347   0.190   2.902   5.566
 1587HO4     MW 6348   0.154   2.967   5.505
 1588HO4     OW 6349   5.131   1.338   2.569
 1588HO4    HW1 6350   5.196   1.343   2.640
 1588HO4    HW2 6351   5.168   1.274   2.508
 1588HO4     MW 6352   5.131   1.338   2.569
 1589HO4     OW 6353   8.559   8.036   0.813
 1589HO4    HW1 6354   8.497   8.080   0.872
 1589HO4    HW2 6355   8.582   7.954   0.859
 1589HO4     MW 6356   8.559   8.036   0.813
 1590HO4     OW 6357   1.239   8.751   9.772
 1590HO4    HW1 6358   1.180   8.786   9.840
 1590HO4    HW2 6359   1.249   8.658   9.795
 1590HO4     MW 6360   1.239   8.751   9.772
 1591HO4     OW 6361   3.506   2.059   8.050
 1591HO4    HW1 6362   3.524   2.017   8.135
 1591HO4    HW2 6363   3.411   2.055   8.041
 1591HO4     MW 6364   3.506   2.059   8.050
 1592HO4     OW 6365   0.473   0.691   8.653
 1592HO4    HW1 6366   0.461   0.607   8.606
 1592HO4    HW2 6367   0.406   0.749   8.615
 1592HO4     MW 6368   0.473   0.691   8.653
 1593HO4     OW 6369   4.724   9.627   2.672
 1593HO4    HW1 6370   4.756   9.574   2.746
 1593HO4    HW2 6371   4.656   9.572   2.632
 1593HO4     MW 6372   4.724   9.627   2.672
 1594HO4     OW 6373   2.946   0.980   8.732
 1594HO4    HW1 6374   3.018   0.918   8.742
 1594HO4    HW2 6375   2.987   1.059   8.695
 1594HO4     MW 6376   2.946   0.980   8.732
 1595HO4     OW 6377   6.687   0.603   5.754
 1595HO4    HW1 6378   6.739   0.621   5.834
 1595HO4    HW2 6379   6.642   0.686   5.736
 1595HO4     MW 6380   6.687   0.603   5.754
 1596HO4     OW 6381   9.211   8.249   4.261
 1596HO4    HW1 6382   9.237   8.195   4.185
 1596HO4    HW2 6383   9.236   8.196   4.337
 1596HO4     MW 6384   9.211   8.249   4.261
 1597HO4     OW 6385   6.420   6.979   5.999
 1597HO4    HW1 6386   6.440   7.048   6.064
 1597HO4    HW2 6387   6.376   7.026   5.928
 1597HO4     MW 6388   6.420   6.979   5.999
 1598HO4     OW 6389   7.150   5.893   7.353
 1598HO4    HW1 6390   7.213   5.822   7.339
 1598HO4    HW2 6391   7.064   5.849   7.350
 1598HO4     MW 6392   7.150   5.893   7.353
 1599HO4     OW 6393   1.916   9.021   3.035
 1599HO4    HW1 6394   1.936   8.941   3.085
 1599HO4    HW2 6395   1.856   8.991   2.966
 1599HO4     MW 6396   1.916   9.021   3.035
 1600HO4     OW 6397   1.153  10.037   9.639
 1600HO4    HW1 6398   1.113   9.980   9.572
 1600HO4    HW2 6399   1.095  10.029   9.715
 1600HO4     MW 6400   1.153  10.037   9.639
 1601HO4     OW 6401   1.283   8.993   0.310
 1601HO4    HW1 6402   1.280   8.898   0.321
 1601HO4    HW2 6403   1.228   9.010   0.233
 1601HO4     MW 6404   1.283   8.993   0.310
 1602HO4     OW 6405   6.938   3.066   4.457
 1602HO4    HW1 6406   6.866   3.084   4.395
 1602HO4    HW2 6407   6.900   3.086   4.543
 1602HO4     MW 6408   6.938   3.066   4.457
 1603HO4     OW 6409   6.064   8.036   5.258
 1603HO4    HW1 6410   6.157   8.026   5.280
 1603HO4    HW2 6411   6.021   8.054   5.342
 1603HO4     MW 6412   6.064   8.036   5.258
 1604HO4     OW 6413   9.158   9.075   8.756
 1604HO4    HW1 6414   9.163   9.002   8.818
 1604HO4    HW2 6415   9.085   9.052   8.698
 1604HO4     MW 6416   9.158   9.075   8.756
 1605HO4     OW 6417   7.052   4.814   0.047
 1605HO4    HW1 6418   7.067   4.755   0.121
 1605HO4    HW2 6419   7.037   4.756  -0.028
 1605HO4     MW 6420   7.052   4.814   0.047
 1606HO4     OW 6421   1.905   2.659   1.354
 1606HO4    HW1 6422   1.937   2.737   1.401
 1606HO4    HW2 6423   1.811   2.656   1.373
 1606HO4     MW 6424   1.905   2.659   1.354
 1607HO4     OW 6425   1.237   6.504   8.219
 1607HO4    HW1 6426   1.307   6.439   8.208
 1607HO4    HW2 6427   1.266   6.558   8.292
 1607HO4     MW 6428   1.237   6.504   8.219
 1608HO4     OW 6429   6.871   3.290   9.549
 1608HO4    HW1 6430   6.787   3.253   9.521
 1608HO4    HW2 6431   6.848   3.351   9.620
 1608HO4     MW 6432   6.871   3.290   9.549
 1609HO4     OW 6433   8.107   5.899   3.464
 1609HO4    HW1 6434   8.022   5.937   3.440
 1609HO4    HW2 6435   8.163   5.915   3.387
 1609HO4     MW 6436   8.107   5.899   3.464
 1610HO4     OW 6437   7.860   6.044   2.460
 1610HO4    HW1 6438   7.779   6.027   2.412
 1610HO4    HW2 6439   7.831   6.074   2.547
 1610HO4     MW 6440   7.860   6.044   2.460
 1611HO4     OW 6441   6.227   5.298   4.021
 1611HO4    HW1 6442   6.266   5.256   4.098
 1611HO4    HW2 6443   6.146   5.338   4.053
 1611HO4     MW 6444   6.227   5.298   4.021
 1612HO4     OW 6445   8.121   9.659   1.332
 1612HO4    HW1 6446   8.107   9.615   1.248
 1612HO4    HW2 6447   8.041   9.640   1.382
 1612HO4     MW 6448   8.121   9.659   1.332
 1613HO4     OW 6449   4.482   6.731   2.671
 1613HO4    HW1 6450   4.450   6.679   2.596
 1613HO4    HW2 6451   4.462   6.676   2.748
 1613HO4     MW 6452   4.482   6.731   2.671
 1614HO4     OW 6453   7.720   5.288   8.887
 1614HO4    HW1 6454   7.792   5.278   8.824
 1614HO4    HW2 6455   7.660   5.216   8.865
 1614HO4     MW 6456   7.720   5.288   8.887
 1615HO4     OW 6457   6.395   5.847   0.510
 1615HO4    HW1 6458   6.406   5.812   0.421
 1615HO4    HW2 6459   6.323   5.910   0.502
 1615HO4     MW 6460   6.395   5.847   0.510
 1616HO4     OW 6461   8.737   2.749   8.250
 1616HO4    HW1 6462   8.756   2.740   8.156
 1616HO4    HW2 6463   8.661   2.808   8.253
 1616HO4     MW 6464   8.737   2.749   8.250
 1617HO4     OW 6465   0.376   1.292   8.885
 1617HO4    HW1 6466   0.371   1.242   8.803
 1617HO4    HW2 6467   0.470   1.299   8.903
 1617HO4     MW 6468   0.376   1.292   8.885
 1618HO4     OW 6469   5.363   6.613   3.867
 1618HO4    HW1 6470   5.334   6.556   3.796
 1618HO4    HW2 6471   5.322   6.576   3.946
 1618HO4     MW 6472   5.363   6.613   3.867
 1619HO4     OW 6473   0.353   1.273   1.588
 1619HO4    HW1 6474   0.320   1.258   1.499
 1619HO4    HW2 6475   0.328   1.194   1.636
 1619HO4     MW 6476   0.353   1.273   1.588
 1620HO4     OW 6477   4.674   8.840   3.468
 1620HO4    HW1 6478   4.641   8.753   3.491
 1620HO4    HW2 6479   4.728   8.865   3.544
 1620HO4     MW 6480   4.674   8.840   3.468
 1621HO4     OW 6481   4.462   4.076   0.873
 1621HO4    HW1 6482   4.553   4.094   0.851
 1621HO4    HW2 6483   4.465   4.041   0.963
 1621HO4     MW 6484   4.462   4.076   0.873
 1622HO4     OW 6485   8.869   5.501   5.600
 1622HO4    HW1 6486   8.939   5.478   5.539
 1622HO4    HW2 6487   8.897   5.464   5.684
 1622HO4     MW 6488   8.869   5.501   5.600
 1623HO4     OW 6489   7.115   2.154   8.108
 1623HO4    HW1 6490   7.169   2.077   8.088
 1623HO4    HW2 6491   7.037   2.117   8.150
 1623HO4     MW 6492   7.115   2.154   8.108
 1624HO4     OW 6493   8.141   3.620   7.783
 1624HO4    HW1 6494   8.089   3.692   7.819
 1624HO4    HW2 6495   8.182   3.658   7.704
 1624HO4     MW 6496   8.141   3.620   7.783
 1625HO4     OW 6497   0.565   0.822   7.211
 1625HO4    HW1 6498   0.575   0.881   7.136
 1625HO4    HW2 6499   0.574   0.880   7.288
 1625HO4     MW 6500   0.565   0.822   7.211
 1626HO4     OW 6501   5.817  10.080   9.511
 1626HO4    HW1 6502   5.873  10.047   9.581
 1626HO4    HW2 6503   5.875  10.086   9.434
 1626HO4     MW 6504   5.817  10.080   9.511
 1627HO4     OW 6505   5.833   1.669   7.318
 1627HO4    HW1 6506   5.882   1.596   7.357
 1627HO4    HW2 6507   5.811   1.638   7.230
 1627HO4     MW 6508   5.833   1.669   7.318
 1628HO4     OW 6509   1.543   9.582   6.949
 1628HO4    HW1 6510   1.616   9.528   6.916
 1628HO4    HW2 6511   1.465   9.531   6.927
 1628HO4     MW 6512   1.543   9.582   6.949
 1629HO4     OW 6513   3.316   8.205   8.626
 1629HO4    HW1 6514   3.238   8.215   8.681
 1629HO4    HW2 6515   3.316   8.283   8.569
 1629HO4     MW 6516   3.316   8.205   8.626
 1630HO4     OW 6517   9.401   3.652   1.634
 1630HO4    HW1 6518   9.459   3.642   1.711
 1630HO4    HW2 6519   9.460   3.643   1.559
 1630HO4     MW 6520   9.401   3.652   1.634
 1631HO4     OW 6521   0.665   8.558   8.746
 1631HO4    HW1 6522   0.757   8.534   8.731
 1631HO4    HW2 6523   0.618   8.474   8.746
 1631HO4     MW 6524   0.665   8.558   8.746
 1632HO4     OW 6525   2.389   3.183   4.267
 1632HO4    HW1 6526   2.453   3.169   4.337
 1632HO4    HW2 6527   2.441   3.210   4.191
 1632HO4     MW 6528   2.389   3.183   4.267
 1633HO4     OW 6529   7.318   0.576   7.083
 1633HO4    HW1 6530   7.389   0.515   7.061
 1633HO4    HW2 6531   7.299   0.621   7.001
 1633HO4     MW 6532   7.318   0.576   7.083
 1634HO4     OW 6533   5.668   4.129   0.424
 1634HO4    HW1 6534   5.647   4.168   0.338
 1634HO4    HW2 6535   5.623   4.044   0.423
 1634HO4     MW 6536   5.668   4.129   0.424
 1635HO4     OW 6537   1.834   2.714   9.219
 1635HO4    HW1 6538   1.793   2.632   9.189
 1635HO4    HW2 6539   1.877   2.690   9.302
 1635HO4     MW 6540   1.834   2.714   9.219
 1636HO4     OW 6541   9.151   0.619   8.120
 1636HO4    HW1 6542   9.108   0.565   8.188
 1636HO4    HW2 6543   9.115   0.587   8.037
 1636HO4     MW 6544   9.151   0.619   8.120
 1637HO4     OW 6545   3.476   7.585   0.492
 1637HO4    HW1 6546   3.547   7.520   0.497
 1637HO4    HW2 6547   3.418   7.552   0.423
 1637HO4     MW 6548   3.476   7.585   0.492
 1638HO4     OW 6549   3.911   8.528   4.246
 1638HO4    HW1 6550   3.875   8.542   4.158
 1638HO4    HW2 6551   3.985   8.469   4.232
 1638HO4     MW 6552   3.911   8.528   4.246
 1639HO4     OW 6553   9.912   6.656   0.088
 1639HO4    HW1 6554   9.933   6.570   0.127
 1639HO4    HW2 6555   9.995   6.704   0.091
 1639HO4     MW 6556   9.912   6.656   0.088
 1640HO4     OW 6557   7.609   6.100   9.009
 1640HO4    HW1 6558   7.688   6.069   9.055
 1640HO4    HW2 6559   7.615   6.196   9.014
 1640HO4     MW 6560   7.609   6.100   9.009
 1641HO4     OW 6561   4.142   3.065   1.736
 1641HO4    HW1 6562   4.177   3.134   1.678
 1641HO4    HW2 6563   4.118   3.112   1.816
 1641HO4     MW 6564   4.142   3.065   1.736
 1642HO4     OW 6565   6.318   5.619   0.805
 1642HO4    HW1 6566   6.374   5.684   0.763
 1642HO4    HW2 6567   6.310   5.548   0.741
 1642HO4     MW 6568   6.318   5.619   0.805
 1643HO4     OW 6569   6.906   3.991   4.864
 1643HO4    HW1 6570   6.831   3.948   4.906
 1643HO4    HW2 6571   6.911   3.950   4.777
 1643HO4     MW 6572   6.906   3.991   4.864
 1644HO4     OW 6573   7.416   1.486   8.018
 1644HO4    HW1 6574   7.433   1.541   7.941
 1644HO4    HW2 6575   7.476   1.520   8.086
 1644HO4     MW 6576   7.416   1.486   8.018
 1645HO4     OW 6577   0.214   0.671   0.362
 1645HO4    HW1 6578   0.191   0.579   0.344
 1645HO4    HW2 6579   0.179   0.719   0.287
 1645HO4     MW 6580   0.214   0.671   0.362
 1646HO4     OW 6581   9.921   7.154   9.981
 1646HO4    HW1 6582   9.921   7.099  10.060
 1646HO4    HW2 6583   9.937   7.092   9.909
 1646HO4     MW 6584   9.921   7.154   9.981
 1647HO4     OW 6585   8.322   9.622   4.669
 1647HO4    HW1 6586   8.250   9.582   4.719
 1647HO4    HW2 6587   8.313   9.717   4.686
 1647HO4     MW 6588   8.322   9.622   4.669
 1648HO4     OW 6589   8.494   5.713   6.893
 1648HO4    HW1 6590   8.467   5.639   6.949
 1648HO4    HW2 6591   8.441   5.787   6.925
 1648HO4     MW 6592   8.494   5.713   6.893
 1649HO4     OW 6593   1.074   1.675   6.687
 1649HO4    HW1 6594   1.110   1.723   6.611
 1649HO4    HW2 6595   1.099   1.729   6.762
 1649HO4     MW 6596   1.074   1.675   6.687
 1650HO4     OW 6597   4.387   0.308   2.917
 1650HO4    HW1 6598   4.298   0.322   2.885
 1650HO4    HW2 6599   4.430   0.394   2.907
 1650HO4     MW 6600   4.387   0.308   2.917
 1651HO4     OW 6601  10.004   6.415   9.647
 1651HO4    HW1 6602  10.040   6.382   9.564
 1651HO4    HW2 6603  10.082   6.428   9.703
 1651HO4     MW 6604  10.004   6.415   9.647
 1652HO4     OW 6605   2.143   6.862   3.467
 1652HO4    HW1 6606   2.160   6.785   3.412
 1652HO4    HW2 6607   2.200   6.849   3.544
 1652HO4     MW 6608   2.143   6.862   3.467
 1653HO4     OW 6609   6.925   6.833   7.060
 1653HO4    HW1 6610   6.871   6.907   7.090
 1653HO4    HW2 6611   6.942   6.781   7.140
 1653HO4     MW 6612   6.925   6.833   7.060
 1654HO4     OW 6613   3.766   8.927   7.443
 1654HO4    HW1 6614   3.789   8.912   7.350
 1654HO4    HW2 6615   3.743   8.839   7.475
 1654HO4     MW 6616   3.766   8.927   7.443
 1655HO4     OW 6617  10.110   8.963   3.564
 1655HO4    HW1 6618  10.120   8.925   3.653
 1655HO4    HW2 6619  10.147   8.895   3.506
 1655HO4     MW 6620  10.110   8.963   3.564
 1656HO4     OW 6621   5.730   9.328   5.586
 1656HO4    HW1 6622   5.694   9.281   5.510
 1656HO4    HW2 6623   5.725   9.263   5.658
 1656HO4     MW 6624   5.730   9.328   5.586
 1657HO4     OW 6625   0.621   3.870   5.552
 1657HO4    HW1 6626   0.639   3.841   5.462
 1657HO4    HW2 6627   0.708   3.883   5.591
 1657HO4     MW 6628   0.621   3.870   5.552
 1658HO4     OW 6629   7.097   2.912   8.882
 1658HO4    HW1 6630   7.123   2.943   8.795
 1658HO4    HW2 6631   7.062   2.991   8.925
 1658HO4     MW 6632   7.097   2.912   8.882
 1659HO4     OW 6633   0.963   9.556   0.069
 1659HO4    HW1 6634   0.980   9.592   0.156
 1659HO4    HW2 6635   1.049   9.559   0.025
 1659HO4     MW 6636   0.963   9.556   0.069
 1660HO4     OW 6637   5.200   8.801   6.927
 1660HO4    HW1 6638   5.259   8.850   6.984
 1660HO4    HW2 6639   5.203   8.711   6.960
 1660HO4     MW 6640   5.200   8.801   6.927
 1661HO4     OW 6641   5.616   4.048   3.725
 1661HO4    HW1 6642   5.667   3.978   3.682
 1661HO4    HW2 6643   5.659   4.059   3.810
 1661HO4     MW 6644   5.616   4.048   3.725
 1662HO4     OW 6645   0.372   4.808   9.572
 1662HO4    HW1 6646   0.290   4.833   9.527
 1662HO4    HW2 6647   0.353   4.821   9.665
 1662HO4     MW 6648   0.372   4.808   9.572
 1663HO4     OW 6649   4.693   2.234   6.557
 1663HO4    HW1 6650   4.678   2.241   6.462
 1663HO4    HW2 6651   4.672   2.142   6.578
 1663HO4     MW 6652   4.693   2.234   6.557
 1664HO4     OW 6653   0.917   5.324   5.693
 1664HO4    HW1 6654   0.877   5.297   5.777
 1664HO4    HW2 6655   0.842   5.352   5.639
 1664HO4     MW 6656   0.917   5.324   5.693
 1665HO4     OW 6657   5.125   8.380   7.532
 1665HO4    HW1 6658   5.156   8.442   7.465
 1665HO4    HW2 6659   5.044   8.344   7.495
 1665HO4     MW 6660   5.125   8.380   7.532
 1666HO4     OW 6661   1.645   7.302   1.846
 1666HO4    HW1 6662   1.727   7.352   1.853
 1666HO4    HW2 6663   1.674   7.212   1.828
 1666HO4     MW 6664   1.645   7.302   1.846
 1667HO4     OW 6665   2.083   5.951   7.807
 1667HO4    HW1 6666   2.048   5.953   7.897
 1667HO4    HW2 6667   2.006   5.947   7.751
 1667HO4     MW 6668   2.083   5.951   7.807
 1668HO4     OW 6669   3.668   2.841   6.831
 1668HO4    HW1 6670   3.580   2.804   6.844
 1668HO4    HW2 6671   3.727   2.765   6.836
 1668HO4     MW 6672   3.668   2.841   6.831
 1669HO4     OW 6673   3.820   8.320   6.492
 1669HO4    HW1 6674   3.729   8.288   6.481
 1669HO4    HW2 6675   3.852   8.330   6.402
 1669HO4     MW 6676   3.820   8.320   6.492
 1670HO4     OW 6677   3.920   6.534   4.399
 1670HO4    HW1 6678   3.825   6.532   4.408
 1670HO4    HW2 6679   3.937   6.486   4.317
 1670HO4     MW 6680   3.920   6.534   4.399
 1671HO4     OW 6681   1.566   9.173   2.544
 1671HO4    HW1 6682   1.570   9.157   2.449
 1671HO4    HW2 6683   1.474   9.158   2.567
 1671HO4     MW 6684   1.566   9.173   2.544
 1672HO4     OW 6685   4.797   7.224   6.296
 1672HO4    HW1 6686   4.816   7.164   6.223
 1672HO4    HW2 6687   4.798   7.167   6.374
 1672HO4     MW 6688   4.797   7.224   6.296
 1673HO4     OW 6689   5.343   8.942   3.075
 1673HO4    HW1 6690   5.436   8.946   3.097
 1673HO4    HW2 6691   5.301   8.907   3.155
 1673HO4     MW 6692   5.343   8.942   3.075
 1674HO4     OW 6693   2.123   8.722   6.821
 1674HO4    HW1 6694   2.057   8.771   6.771
 1674HO4    HW2 6695   2.080   8.700   6.904
 1674HO4     MW 6696   2.123   8.722   6.821
 1675HO4     OW 6697   9.120   5.096   2.998
 1675HO4    HW1 6698   9.026   5.113   2.995
 1675HO4    HW2 6699   9.140   5.056   2.913
 1675HO4     MW 6700   9.120   5.096   2.998
 1676HO4     OW 6701   2.933   6.870   7.676
 1676HO4    HW1 6702   2.938   6.903   7.766
 1676HO4    HW2 6703   2.981   6.935   7.624
 1676HO4     MW 6704   2.933   6.870   7.676
 1677HO4     OW 6705   6.119   9.346   2.441
 1677HO4    HW1 6706   6.164   9.268   2.474
 1677HO4    HW2 6707   6.030   9.315   2.419
 1677HO4     MW 6708   6.119   9.346   2.441
 1678HO4     OW 6709   4.102   7.147  10.081
 1678HO4    HW1 6710   4.106   7.173   9.988
 1678HO4    HW2 6711   4.169   7.201  10.124
 1678HO4     MW 6712   4.102   7.147  10.081
 1679HO4     OW 6713   0.248   4.067   8.093
 1679HO4    HW1 6714   0.341   4.043   8.081
 1679HO4    HW2 6715   0.250   4.141   8.154
 1679HO4     MW 6716   0.248   4.067   8.093
 1680HO4     OW 6717   1.288   2.992   9.182
 1680HO4    HW1 6718   1.221   3.038   9.234
 1680HO4    HW2 6719   1.247   2.908   9.159
 1680HO4     MW 6720   1.288   2.992   9.182
 1681HO4     OW 6721   5.068   1.153   4.367
 1681HO4    HW1 6722   5.112   1.079   4.411
 1681HO4    HW2 6723   4.975   1.142   4.389
 1681HO4     MW 6724   5.068   1.153   4.367
 1682HO4     OW 6725   5.847   9.355   7.653
 1682HO4    HW1 6726   5.793   9.282   7.621
 1682HO4    HW2 6727   5.827   9.359   7.747
 1682HO4     MW 6728   5.847   9.355   7.653
 1683HO4     OW 6729   1.046   8.469   0.103
 1683HO4    HW1 6730   1.061   8.492   0.011
 1683HO4    HW2 6731   0.950   8.472   0.114
 1683HO4     MW 6732   1.046   8.469   0.103
 1684HO4     OW 6733   3.741   7.016   3.056
 1684HO4    HW1 6734   3.732   7.084   3.123
 1684HO4    HW2 6735   3.835   7.014   3.036
 1684HO4     MW 6736   3.741   7.016   3.056
 1685HO4     OW 6737   6.632   7.258   2.974
 1685HO4    HW1 6738   6.600   7.252   2.883
 1685HO4    HW2 6739   6.614   7.171   3.011
 1685HO4     MW 6740   6.632   7.258   2.974
 1686HO4     OW 6741   2.695   7.276   9.592
 1686HO4    HW1 6742   2.692   7.232   9.677
 1686HO4    HW2 6743   2.698   7.203   9.528
 1686HO4     MW 6744   2.695   7.276   9.592
 1687HO4     OW 6745   7.978   8.227   9.029
 1687HO4    HW1 6746   7.906   8.211   8.966
 1687HO4    HW2 6747   7.933   8.246   9.112
 1687HO4     MW 6748   7.978   8.227   9.029
 1688HO4     OW 6749   0.705   5.400   7.833
 1688HO4    HW1 6750   0.614   5.406   7.864
 1688HO4    HW2 6751   0.737   5.490   7.835
 1688HO4     MW 6752   0.705   5.400   7.833
 1689HO4     OW 6753   3.570   8.670   5.891
 1689HO4    HW1 6754   3.485   8.669   5.936
 1689HO4    HW2 6755   3.554   8.623   5.809
 1689HO4     MW 6756   3.570   8.670   5.891
 1690HO4     OW 6757   9.295   6.189   6.389
 1690HO4    HW1 6758   9.222   6.152   6.339
 1690HO4    HW2 6759   9.353   6.114   6.406
 1690HO4     MW 6760   9.295   6.189   6.389
 1691HO4     OW 6761   5.444   7.638   8.590
 1691HO4    HW1 6762   5.411   7.565   8.536
 1691HO4    HW2 6763   5.443   7.603   8.680
 1691HO4     MW 6764   5.444   7.638   8.590
 1692HO4     OW 6765   5.810   9.122   4.485
 1692HO4    HW1 6766   5.775   9.165   4.406
 1692HO4    HW2 6767   5.856   9.193   4.532
 1692HO4     MW 6768   5.810   9.122   4.485
 1693HO4     OW 6769   3.356   9.424   0.653
 1693HO4    HW1 6770   3.379   9.393   0.741
 1693HO4    HW2 6771   3.412   9.374   0.594
 1693HO4     MW 6772   3.356   9.424   0.653
 1694HO4     OW 6773   3.692   9.703   3.981
 1694HO4    HW1 6774   3.738   9.747   4.053
 1694HO4    HW2 6775   3.762   9.666   3.927
 1694HO4     MW 6776   3.692   9.703   3.981
 1695HO4     OW 6777   7.633   4.143   0.851
 1695HO4    HW1 6778   7.563   4.126   0.915
 1695HO4    HW2 6779   7.590   4.137   0.766
 1695HO4     MW 6780   7.633   4.143   0.851
 1696HO4     OW 6781   4.223   5.443   5.089
 1696HO4    HW1 6782   4.314   5.475   5.093
 1696HO4    HW2 6783   4.231   5.348   5.088
 1696HO4     MW 6784   4.223   5.443   5.089
 1697HO4     OW 6785   2.879  10.065   1.933
 1697HO4    HW1 6786   2.823  10.092   2.006
 1697HO4    HW2 6787   2.966  10.101   1.954
 1697HO4     MW 6788   2.879  10.065   1.933
 1698HO4     OW 6789   4.075   0.205   8.470
 1698HO4    HW1 6790   4.002   0.235   8.525
 1698HO4    HW2 6791   4.056   0.240   8.383
 1698HO4     MW 6792   4.075   0.205   8.470
 1699HO4     OW 6793   1.170   8.189   5.204
 1699HO4    HW1 6794   1.099   8.202   5.267
 1699HO4    HW2 6795   1.138   8.233   5.124
 1699HO4     MW 6796   1.170   8.189   5.204
 1700HO4     OW 6797   1.872   9.835   8.635
 1700HO4    HW1 6798   1.963   9.843   8.665
 1700HO4    HW2 6799   1.821   9.828   8.716
 1700HO4     MW 6800   1.872   9.835   8.635
 1701HO4     OW 6801   5.626   4.366   5.736
 1701HO4    HW1 6802   5.627   4.368   5.833
 1701HO4    HW2 6803   5.536   4.343   5.713
 1701HO4     MW 6804   5.626   4.366   5.736
 1702HO4     OW 6805   3.913   3.362   8.693
 1702HO4    HW1 6806   3.888   3.308   8.618
 1702HO4    HW2 6807   3.875   3.317   8.769
 1702HO4     MW 6808   3.913   3.362   8.693
 1703HO4     OW 6809   5.457   6.194   4.150
 1703HO4    HW1 6810   5.434   6.253   4.222
 1703HO4    HW2 6811   5.547   6.219   4.126
 1703HO4     MW 6812   5.457   6.194   4.150
 1704HO4     OW 6813   6.928   1.526   0.502
 1704HO4    HW1 6814   6.977   1.500   0.423
 1704HO4    HW2 6815   6.992   1.517   0.573
 1704HO4     MW 6816   6.928   1.526   0.502
 1705HO4     OW 6817   3.977   8.322   5.630
 1705HO4    HW1 6818   4.004   8.314   5.722
 1705HO4    HW2 6819   3.896   8.374   5.634
 1705HO4     MW 6820   3.977   8.322   5.630
 1706HO4     OW 6821   0.442   3.201   1.185
 1706HO4    HW1 6822   0.384   3.169   1.116
 1706HO4    HW2 6823   0.387   3.260   1.238
 1706HO4     MW 6824   0.442   3.201   1.185
 1707HO4     OW 6825   3.307   2.666   6.367
 1707HO4    HW1 6826   3.299   2.571   6.385
 1707HO4    HW2 6827   3.401   2.680   6.357
 1707HO4     MW 6828   3.307   2.666   6.367
 1708HO4     OW 6829   1.584   3.827   4.781
 1708HO4    HW1 6830   1.495   3.788   4.780
 1708HO4    HW2 6831   1.573   3.913   4.740
 1708HO4     MW 6832   1.584   3.827   4.781
 1709HO4     OW 6833   9.656   6.255   5.103
 1709HO4    HW1 6834   9.711   6.229   5.178
 1709HO4    HW2 6835   9.578   6.294   5.144
 1709HO4     MW 6836   9.656   6.255   5.103
 1710HO4     OW 6837   9.010   7.243   7.959
 1710HO4    HW1 6838   9.047   7.326   7.927
 1710HO4    HW2 6839   9.010   7.253   8.055
 1710HO4     MW 6840   9.010   7.243   7.959
 1711HO4     OW 6841   8.313   2.253   9.136
 1711HO4    HW1 6842   8.370   2.215   9.202
 1711HO4    HW2 6843   8.286   2.179   9.081
 1711HO4     MW 6844   8.313   2.253   9.136
 1712HO4     OW 6845   5.848   5.282   5.313
 1712HO4    HW1 6846   5.864   5.255   5.222
 1712HO4    HW2 6847   5.935   5.281   5.354
 1712HO4     MW 6848   5.848   5.282   5.313
 1713HO4     OW 6849   2.230   5.551   3.995
 1713HO4    HW1 6850   2.228   5.575   4.088
 1713HO4    HW2 6851   2.300   5.486   3.989
 1713HO4     MW 6852   2.230   5.551   3.995
 1714HO4     OW 6853   8.830   6.674   6.758
 1714HO4    HW1 6854   8.891   6.611   6.719
 1714HO4    HW2 6855   8.879   6.713   6.831
 1714HO4     MW 6856   8.830   6.674   6.758
 1715HO4     OW 6857   4.373   9.043   4.004
 1715HO4    HW1 6858   4.381   9.017   3.911
 1715HO4    HW2 6859   4.304   8.985   4.039
 1715HO4     MW 6860   4.373   9.043   4.004
 1716HO4     OW 6861   5.657   7.338   7.021
 1716HO4    HW1 6862   5.566   7.321   6.994
 1716HO4    HW2 6863   5.648   7.380   7.107
 1716HO4     MW 6864   5.657   7.338   7.021
 1717HO4     OW 6865   6.862   8.822   5.855
 1717HO4    HW1 6866   6.804   8.755   5.817
 1717HO4    HW2 6867   6.874   8.886   5.785
 1717HO4     MW 6868   6.862   8.822   5.855
 1718HO4     OW 6869   0.677   7.950   1.898
 1718HO4    HW1 6870   0.742   7.987   1.958
 1718HO4    HW2 6871   0.605   8.014   1.898
 1718HO4     MW 6872   0.677   7.950   1.898
 1719HO4     OW 6873   7.585   9.736   1.949
 1719HO4    HW1 6874   7.635   9.719   2.029
 1719HO4    HW2 6875   7.602   9.660   1.893
 1719HO4     MW 6876   7.585   9.736   1.949
 1720HO4     OW 6877   0.865   2.214   8.722
 1720HO4    HW1 6878   0.826   2.297   8.752
 1720HO4    HW2 6879   0.879   2.228   8.628
 1720HO4     MW 6880   0.865   2.214   8.722
 1721HO4     OW 6881   4.618   2.911   3.109
 1721HO4    HW1 6882   4.594   2.987   3.055
 1721HO4    HW2 6883   4.551   2.909   3.178
 1721HO4     MW 6884   4.618   2.911   3.109
 1722HO4     OW 6885   4.626   1.006   9.680
 1722HO4    HW1 6886   4.721   1.006   9.670
 1722HO4    HW2 6887   4.593   1.021   9.591
 1722HO4     MW 6888   4.626   1.006   9.680
 1723HO4     OW 6889   5.952   3.094   3.649
 1723HO4    HW1 6890   5.928   3.001   3.647
 1723HO4    HW2 6891   5.935   3.125   3.560
 1723HO4     MW 6892   5.952   3.094   3.649
 1724HO4     OW 6893   1.460   1.176   4.179
 1724HO4    HW1 6894   1.474   1.104   4.117
 1724HO4    HW2 6895   1.471   1.135   4.266
 1724HO4     MW 6896   1.460   1.176   4.179
 1725HO4     OW 6897   4.049   5.074   5.319
 1725HO4    HW1 6898   4.066   5.159   5.361
 1725HO4    HW2 6899   4.040   5.013   5.393
 1725HO4     MW 6900   4.049   5.074   5.319
 1726HO4     OW 6901   5.176   7.707   9.865
 1726HO4    HW1 6902   5.204   7.723   9.956
 1726HO4    HW2 6903   5.259   7.701   9.815
 1726HO4     MW 6904   5.176   7.707   9.865
 1727HO4     OW 6905   5.167   7.809   3.884
 1727HO4    HW1 6906   5.072   7.795   3.880
 1727HO4    HW2 6907   5.197   7.752   3.955
 1727HO4     MW 6908   5.167   7.809   3.884
 1728HO4     OW 6909   3.885   0.167   4.767
 1728HO4    HW1 6910   3.973   0.206   4.767
 1728HO4    HW2 6911   3.829   0.231   4.811
 1728HO4     MW 6912   3.885   0.167   4.767
 1729HO4     OW 6913   3.470   1.537   0.061
 1729HO4    HW1 6914   3.507   1.497  -0.019
 1729HO4    HW2 6915   3.498   1.477   0.131
 1729HO4     MW 6916   3.470   1.537   0.061
 1730HO4     OW 6917   3.355   9.831  10.019
 1730HO4    HW1 6918   3.406   9.820   9.938
 1730HO4    HW2 6919   3.360   9.745  10.062
 1730HO4     MW 6920   3.355   9.831  10.019
 1731HO4     OW 6921   2.701   9.787   3.546
 1731HO4    HW1 6922   2.708   9.730   3.469
 1731HO4    HW2 6923   2.694   9.726   3.620
 1731HO4     MW 6924   2.701   9.787   3.546
 1732HO4     OW 6925   1.707   3.992   8.122
 1732HO4    HW1 6926   1.770   3.963   8.189
 1732HO4    HW2 6927   1.760   4.037   8.056
 1732HO4     MW 6928   1.707   3.992   8.122
 1733HO4     OW 6929   7.495   9.325   4.679
 1733HO4    HW1 6930   7.521   9.384   4.751
 1733HO4    HW2 6931   7.516   9.375   4.599
 1733HO4     MW 6932   7.495   9.325   4.679
 1734HO4     OW 6933   7.046   1.793   5.365
 1734HO4    HW1 6934   7.097   1.712   5.360
 1734HO4    HW2 6935   7.112   1.862   5.382
 1734HO4     MW 6936   7.046   1.793   5.365
 1735HO4     OW 6937   6.218   7.434   9.595
 1735HO4    HW1 6938   6.267   7.389   9.526
 1735HO4    HW2 6939   6.232   7.380   9.673
 1735HO4     MW 6940   6.218   7.434   9.595
 1736HO4     OW 6941   8.345   9.722   1.615
 1736HO4    HW1 6942   8.329   9.635   1.653
 1736HO4    HW2 6943   8.269   9.774   1.642
 1736HO4     MW 6944   8.345   9.722   1.615
 1737HO4     OW 6945   0.611   4.856   7.887
 1737HO4    HW1 6946   0.595   4.949   7.865
 1737HO4    HW2 6947   0.593   4.851   7.981
 1737HO4     MW 6948   0.611   4.856   7.887
 1738HO4     OW 6949   9.046   7.941   9.414
 1738HO4    HW1 6950   9.024   7.995   9.491
 1738HO4    HW2 6951   9.025   7.997   9.339
 1738HO4     MW 6952   9.046   7.941   9.414
 1739HO4     OW 6953   8.710   0.228   2.427
 1739HO4    HW1 6954   8.721   0.168   2.501
 1739HO4    HW2 6955   8.716   0.171   2.349
 1739HO4     MW 6956   8.710   0.228   2.427
 1740HO4     OW 6957   5.965   8.304   2.231
 1740HO4    HW1 6958   5.936   8.244   2.300
 1740HO4    HW2 6959   6.030   8.254   2.181
 1740HO4     MW 6960   5.965   8.304   2.231
 1741HO4     OW 6961   7.830   7.294   6.354
 1741HO4    HW1 6962   7.757   7.268   6.412
 1741HO4    HW2 6963   7.853   7.214   6.308
 1741HO4     MW 6964   7.830   7.294   6.354
 1742HO4     OW 6965   0.653   2.111   4.570
 1742HO4    HW1 6966   0.662   2.173   4.643
 1742HO4    HW2 6967   0.719   2.141   4.506
 1742HO4     MW 6968   0.653   2.111   4.570
 1743HO4     OW 6969   3.975   8.812   7.681
 1743HO4    HW1 6970   3.965   8.779   7.771
 1743HO4    HW2 6971   3.943   8.739   7.626
 1743HO4     MW 6972   3.975   8.812   7.681
 1744HO4     OW 6973   4.699   9.246   9.400
 1744HO4    HW1 6974   4.703   9.150   9.408
 1744HO4    HW2 6975   4.625   9.263   9.342
 1744HO4     MW 6976   4.699   9.246   9.400
 1745HO4     OW 6977   5.896   8.663   6.354
 1745HO4    HW1 6978   5.867   8.668   6.262
 1745HO4    HW2 6979   5.860   8.579   6.386
 1745HO4     MW 6980   5.896   8.663   6.354
 1746HO4     OW 6981   7.632   9.051   7.626
 1746HO4    HW1 6982   7.581   9.063   7.546
 1746HO4    HW2 6983   7.635   9.139   7.666
 1746HO4     MW 6984   7.632   9.051   7.626
 1747HO4     OW 6985   0.380   8.227   0.960
 1747HO4    HW1 6986   0.445   8.294   0.938
 1747HO4    HW2 6987   0.402   8.153   0.902
 1747HO4     MW 6988   0.380   8.227   0.960
 1748HO4     OW 6989   9.062   4.640   9.939
 1748HO4    HW1 6990   9.073   4.699   9.864
 1748HO4    HW2 6991   9.068   4.699  10.016
 1748HO4     MW 6992   9.062   4.640   9.939
 1749HO4     OW 6993   6.396   0.945   6.724
 1749HO4    HW1 6994   6.453   0.868   6.713
 1749HO4    HW2 6995   6.307   0.911   6.712
 1749HO4     MW 6996   6.396   0.945   6.724
 1750HO4     OW 6997   7.080   6.421   5.750
 1750HO4    HW1 6998   7.062   6.330   5.724
 1750HO4    HW2 6999   7.014   6.473   5.704
 1750HO4     MW 7000   7.080   6.421   5.750
 1751HO4     OW 7001   3.447   7.542   9.038
 1751HO4    HW1 7002   3.436   7.590   9.120
 1751HO4    HW2 7003   3.358   7.537   9.000
 1751HO4     MW 7004   3.447   7.542   9.038
 1752HO4     OW 7005   1.517   8.812   9.391
 1752HO4    HW1 7006   1.456   8.766   9.332
 1752HO4    HW2 7007   1.575   8.743   9.423
 1752HO4     MW 7008   1.517   8.812   9.391
 1753HO4     OW 7009   1.889   0.989   3.893
 1753HO4    HW1 7010   1.876   1.052   3.822
 1753HO4    HW2 7011   1.983   0.972   3.894
 1753HO4     MW 7012   1.889   0.989   3.893
 1754HO4     OW 7013   4.108   3.163   9.950
 1754HO4    HW1 7014   4.082   3.106   9.878
 1754HO4    HW2 7015   4.112   3.105  10.027
 1754HO4     MW 7016   4.108   3.163   9.950
 1755HO4     OW 7017   7.794   8.087   8.620
 1755HO4    HW1 7018   7.755   8.062   8.536
 1755HO4    HW2 7019   7.861   8.152   8.597
 1755HO4     MW 7020   7.794   8.087   8.620
 1756HO4     OW 7021   5.220   9.526   9.553
 1756HO4    HW1 7022   5.173   9.443   9.541
 1756HO4    HW2 7023   5.156   9.594   9.531
 1756HO4     MW 7024   5.220   9.526   9.553
 1757HO4     OW 7025   0.165   5.898   5.744
 1757HO4    HW1 7026   0.108   5.889   5.821
 1757HO4    HW2 7027   0.104   5.893   5.669
 1757HO4     MW 7028   0.165   5.898   5.744
 1758HO4     OW 7029   6.062   5.627   2.613
 1758HO4    HW1 7030   5.980   5.590   2.578
 1758HO4    HW2 7031   6.125   5.615   2.541
 1758HO4     MW 7032   6.062   5.627   2.613
 1759HO4     OW 7033   2.405   3.195   5.321
 1759HO4    HW1 7034   2.407   3.145   5.403
 1759HO4    HW2 7035   2.460   3.272   5.339
 1759HO4     MW 7036   2.405   3.195   5.321
 1760HO4     OW 7037   1.542   7.949   3.983
 1760HO4    HW1 7038   1.506   7.899   4.057
 1760HO4    HW2 7039   1.514   7.899   3.905
 1760HO4     MW 7040   1.542   7.949   3.983
 1761HO4     OW 7041   4.171   9.776   2.509
 1761HO4    HW1 7042   4.109   9.773   2.435
 1761HO4    HW2 7043   4.148   9.698   2.561
 1761HO4     MW 7044   4.171   9.776   2.509
 1762HO4     OW 7045   9.885   7.234   0.919
 1762HO4    HW1 7046   9.858   7.185   0.840
 1762HO4    HW2 7047   9.980   7.220   0.924
 1762HO4     MW 7048   9.885   7.234   0.919
 1763HO4     OW 7049   4.205   0.766   2.027
 1763HO4    HW1 7050   4.195   0.670   2.031
 1763HO4    HW2 7051   4.138   0.794   1.964
 1763HO4     MW 7052   4.205   0.766   2.027
 1764HO4     OW 7053   3.965   8.239   0.337
 1764HO4    HW1 7054   4.017   8.220   0.258
 1764HO4    HW2 7055   4.004   8.319   0.373
 1764HO4     MW 7056   3.965   8.239   0.337
 1765HO4     OW 7057   3.097   4.166   8.157
 1765HO4    HW1 7058   3.048   4.196   8.079
 1765HO4    HW2 7059   3.029   4.127   8.214
 1765HO4     MW 7060   3.097   4.166   8.157
 1766HO4     OW 7061   7.546   6.936   3.873
 1766HO4    HW1 7062   7.499   6.964   3.795
 1766HO4    HW2 7063   7.490   6.963   3.946
 1766HO4     MW 7064   7.546   6.936   3.873
 1767HO4     OW 7065   4.905   9.325   4.715
 1767HO4    HW1 7066   4.873   9.408   4.751
 1767HO4    HW2 7067   4.868   9.257   4.772
 1767HO4     MW 7068   4.905   9.325   4.715
 1768HO4     OW 7069   3.660   0.844   3.473
 1768HO4    HW1 7070   3.739   0.857   3.525
 1768HO4    HW2 7071   3.588   0.852   3.536
 1768HO4     MW 7072   3.660   0.844   3.473
 1769HO4     OW 7073   7.359   2.610   6.590
 1769HO4    HW1 7074   7.389   2.595   6.680
 1769HO4    HW2 7075   7.339   2.704   6.587
 1769HO4     MW 7076   7.359   2.610   6.590
 1770HO4     OW 7077   6.181   0.265   7.010
 1770HO4    HW1 7078   6.231   0.289   7.088
 1770HO4    HW2 7079   6.238   0.290   6.937
 1770HO4     MW 7080   6.181   0.265   7.010
 1771HO4     OW 7081   3.371   0.106   9.043
 1771HO4    HW1 7082   3.331   0.130   8.960
 1771HO4    HW2 7083   3.307   0.133   9.110
 1771HO4     MW 7084   3.371   0.106   9.043
 1772HO4     OW 7085   7.694   2.496   1.107
 1772HO4    HW1 7086   7.725   2.498   1.198
 1772HO4    HW2 7087   7.643   2.577   1.098
 1772HO4     MW 7088   7.694   2.496   1.107
 1773HO4     OW 7089   2.553   9.678   5.785
 1773HO4    HW1 7090   2.480   9.637   5.737
 1773HO4    HW2 7091   2.560   9.627   5.866
 1773HO4     MW 7092   2.553   9.678   5.785
 1774HO4     OW 7093   3.517   4.043   3.859
 1774HO4    HW1 7094   3.593   3.987   3.844
 1774HO4    HW2 7095   3.445   3.999   3.813
 1774HO4     MW 7096   3.517   4.043   3.859
 1775HO4     OW 7097   0.294   6.854   4.308
 1775HO4    HW1 7098   0.225   6.796   4.340
 1775HO4    HW2 7099   0.326   6.811   4.228
 1775HO4     MW 7100   0.294   6.854   4.308
 1776HO4     OW 7101   4.438   1.444   0.576
 1776HO4    HW1 7102   4.415   1.451   0.482
 1776HO4    HW2 7103   4.358   1.413   0.618
 1776HO4     MW 7104   4.438   1.444   0.576
 1777HO4     OW 7105   6.721   6.544   1.748
 1777HO4    HW1 7106   6.740   6.479   1.816
 1777HO4    HW2 7107   6.628   6.530   1.728
 1777HO4     MW 7108   6.721   6.544   1.748
 1778HO4     OW 7109   0.216   8.280   1.973
 1778HO4    HW1 7110   0.250   8.362   1.934
 1778HO4    HW2 7111   0.291   8.220   1.970
 1778HO4     MW 7112   0.216   8.280   1.973
 1779HO4     OW 7113   5.078   9.628   6.097
 1779HO4    HW1 7114   5.131   9.554   6.129
 1779HO4    HW2 7115   5.002   9.630   6.156
 1779HO4     MW 7116   5.078   9.628   6.097
 1780HO4     OW 7117   9.344   1.328   8.161
 1780HO4    HW1 7118   9.280   1.289   8.223
 1780HO4    HW2 7119   9.373   1.254   8.107
 1780HO4     MW 7120   9.344   1.328   8.161
 1781HO4     OW 7121   7.787   1.056   6.427
 1781HO4    HW1 7122   7.831   0.990   6.480
 1781HO4    HW2 7123   7.793   1.022   6.337
 1781HO4     MW 7124   7.787   1.056   6.427
 1782HO4     OW 7125   4.340   7.268   0.999
 1782HO4    HW1 7126   4.424   7.289   0.957
 1782HO4    HW2 7127   4.359   7.271   1.093
 1782HO4     MW 7128   4.340   7.268   0.999
 1783HO4     OW 7129   7.787   9.078   7.305
 1783HO4    HW1 7130   7.704   9.080   7.256
 1783HO4    HW2 7131   7.773   9.011   7.373
 1783HO4     MW 7132   7.787   9.078   7.305
 1784HO4     OW 7133   9.505   2.253   1.261
 1784HO4    HW1 7134   9.534   2.302   1.339
 1784HO4    HW2 7135   9.582   2.254   1.203
 1784HO4     MW 7136   9.505   2.253   1.261
 1785HO4     OW 7137   3.839   8.838   5.545
 1785HO4    HW1 7138   3.859   8.874   5.632
 1785HO4    HW2 7139   3.812   8.914   5.493
 1785HO4     MW 7140   3.839   8.838   5.545
 1786HO4     OW 7141   8.755   1.416   9.951
 1786HO4    HW1 7142   8.844   1.429   9.984
 1786HO4    HW2 7143   8.724   1.504   9.930
 1786HO4     MW 7144   8.755   1.416   9.951
 1787HO4     OW 7145   9.021   8.612   9.365
 1787HO4    HW1 7146   9.026   8.688   9.423
 1787HO4    HW2 7147   9.048   8.646   9.279
 1787HO4     MW 7148   9.021   8.612   9.365
 1788HO4     OW 7149   0.328   6.458   9.200
 1788HO4    HW1 7150   0.309   6.365   9.187
 1788HO4    HW2 7151   0.423   6.461   9.212
 1788HO4     MW 7152   0.328   6.458   9.200
 1789HO4     OW 7153   0.799   6.617   0.084
 1789HO4    HW1 7154   0.744   6.545   0.117
 1789HO4    HW2 7155   0.868   6.627   0.150
 1789HO4     MW 7156   0.799   6.617   0.084
 1790HO4     OW 7157   9.927   3.281   1.873
 1790HO4    HW1 7158   9.908   3.232   1.793
 1790HO4    HW2 7159   9.882   3.232   1.942
 1790HO4     MW 7160   9.927   3.281   1.873
 1791HO4     OW 7161   8.497   4.837   9.631
 1791HO4    HW1 7162   8.403   4.851   9.640
 1791HO4    HW2 7163   8.531   4.847   9.720
 1791HO4     MW 7164   8.497   4.837   9.631
 1792HO4     OW 7165   3.614   4.966   5.467
 1792HO4    HW1 7166   3.685   5.021   5.502
 1792HO4    HW2 7167   3.556   5.028   5.422
 1792HO4     MW 7168   3.614   4.966   5.467
 1793HO4     OW 7169   6.231   4.835   1.368
 1793HO4    HW1 7170   6.309   4.852   1.314
 1793HO4    HW2 7171   6.264   4.783   1.442
 1793HO4     MW 7172   6.231   4.835   1.368
 1794HO4     OW 7173   7.247   0.382   9.910
 1794HO4    HW1 7174   7.170   0.328   9.889
 1794HO4    HW2 7175   7.299   0.328   9.970
 1794HO4     MW 7176   7.247   0.382   9.910
 1795HO4     OW 7177   1.499   7.375   4.737
 1795HO4    HW1 7178   1.530   7.364   4.828
 1795HO4    HW2 7179   1.577   7.356   4.684
 1795HO4     MW 7180   1.499   7.375   4.737
 1796HO4     OW 7181   0.064   4.266   3.930
 1796HO4    HW1 7182   0.045   4.300   3.843
 1796HO4    HW2 7183   0.127   4.195   3.915
 1796HO4     MW 7184   0.064   4.266   3.930
 1797HO4     OW 7185   9.090   3.177   9.170
 1797HO4    HW1 7186   9.024   3.182   9.240
 1797HO4    HW2 7187   9.041   3.145   9.094
 1797HO4     MW 7188   9.090   3.177   9.170
 1798HO4     OW 7189   1.213   4.774   7.551
 1798HO4    HW1 7190   1.159   4.740   7.623
 1798HO4    HW2 7191   1.229   4.697   7.495
 1798HO4     MW 7192   1.213   4.774   7.551
 1799HO4     OW 7193   4.654   5.824   9.749
 1799HO4    HW1 7194   4.693   5.780   9.826
 1799HO4    HW2 7195   4.691   5.777   9.674
 1799HO4     MW 7196   4.654   5.824   9.749
 1800HO4     OW 7197   6.621   7.368   2.144
 1800HO4    HW1 7198   6.539   7.334   2.182
 1800HO4    HW2 7199   6.592   7.434   2.080
 1800HO4     MW 7200   6.621   7.368   2.144
 1801HO4     OW 7201   4.184   0.833   5.755
 1801HO4    HW1 7202   4.143   0.855   5.671
 1801HO4    HW2 7203   4.114   0.788   5.804
 1801HO4     MW 7204   4.184   0.833   5.755
 1802HO4     OW 7205   1.409   8.682  10.035
 1802HO4    HW1 7206   1.432   8.608  10.093
 1802HO4    HW2 7207   1.411   8.645   9.947
 1802HO4     MW 7208   1.409   8.682  10.035
 1803HO4     OW 7209   7.514   2.869   3.195
 1803HO4    HW1 7210   7.444   2.840   3.136
 1803HO4    HW2 7211   7.468   2.917   3.265
 1803HO4     MW 7212   7.514   2.869   3.195
 1804HO4     OW 7213   9.386   8.515   8.306
 1804HO4    HW1 7214   9.335   8.505   8.387
 1804HO4    HW2 7215   9.320   8.509   8.236
 1804HO4     MW 7216   9.386   8.515   8.306
 1805HO4     OW 7217   8.226   9.215   9.477
 1805HO4    HW1 7218   8.139   9.247   9.505
 1805HO4    HW2 7219   8.274   9.202   9.559
 1805HO4     MW 7220   8.226   9.215   9.477
 1806HO4     OW 7221   3.876   1.063   0.398
 1806HO4    HW1 7222   3.784   1.048   0.424
 1806HO4    HW2 7223   3.927   1.036   0.476
 1806HO4     MW 7224   3.876   1.063   0.398
 1807HO4     OW 7225   9.443   3.105   2.528
 1807HO4    HW1 7226   9.516   3.042   2.535
 1807HO4    HW2 7227   9.430   3.115   2.433
 1807HO4     MW 7228   9.443   3.105   2.528
 1808HO4     OW 7229   8.293   7.323   8.205
 1808HO4    HW1 7230   8.279   7.258   8.135
 1808HO4    HW2 7231   8.249   7.285   8.282
 1808HO4     MW 7232   8.293   7.323   8.205
 1809HO4     OW 7233   5.680   3.483   3.179
 1809HO4    HW1 7234   5.596   3.436   3.175
 1809HO4    HW2 7235   5.688   3.523   3.092
 1809HO4     MW 7236   5.680   3.483   3.179
 1810HO4     OW 7237   8.605   9.756   8.575
 1810HO4    HW1 7238   8.607   9.853   8.575
 1810HO4    HW2 7239   8.520   9.734   8.615
 1810HO4     MW 7240   8.605   9.756   8.575
 1811HO4     OW 7241   9.103   6.642   9.800
 1811HO4    HW1 7242   9.120   6.577   9.730
 1811HO4    HW2 7243   9.131   6.598   9.880
 1811HO4     MW 7244   9.103   6.642   9.800
 1812HO4     OW 7245   7.494   1.774   8.794
 1812HO4    HW1 7246   7.432   1.706   8.765
 1812HO4    HW2 7247   7.461   1.800   8.881
 1812HO4     MW 7248   7.494   1.774   8.794
 1813HO4     OW 7249   3.649   4.567   0.395
 1813HO4    HW1 7250   3.677   4.493   0.341
 1813HO4    HW2 7251   3.628   4.637   0.332
 1813HO4     MW 7252   3.649   4.567   0.395
 1814HO4     OW 7253   3.979   4.529   2.692
 1814HO4    HW1 7254   3.904   4.520   2.633
 1814HO4    HW2 7255   3.945   4.505   2.778
 1814HO4     MW 7256   3.979   4.529   2.692
 1815HO4     OW 7257   6.873   8.316   2.452
 1815HO4    HW1 7258   6.891   8.358   2.536
 1815HO4    HW2 7259   6.954   8.270   2.429
 1815HO4     MW 7260   6.873   8.316   2.452
 1816HO4     OW 7261   3.275   5.112   1.129
 1816HO4    HW1 7262   3.185   5.134   1.154
 1816HO4    HW2 7263   3.326   5.123   1.210
 1816HO4     MW 7264   3.275   5.112   1.129
 1817HO4     OW 7265   1.249   2.791   7.153
 1817HO4    HW1 7266   1.235   2.846   7.232
 1817HO4    HW2 7267   1.253   2.855   7.081
 1817HO4     MW 7268   1.249   2.791   7.153
 1818HO4     OW 7269   2.688   2.983   5.439
 1818HO4    HW1 7270   2.694   3.038   5.518
 1818HO4    HW2 7271   2.596   2.992   5.410
 1818HO4     MW 7272   2.688   2.983   5.439
 1819HO4     OW 7273   5.975   2.318   4.913
 1819HO4    HW1 7274   5.991   2.332   5.007
 1819HO4    HW2 7275   5.994   2.403   4.873
 1819HO4     MW 7276   5.975   2.318   4.913
 1820HO4     OW 7277   7.100   4.107   2.336
 1820HO4    HW1 7278   7.157   4.093   2.412
 1820HO4    HW2 7279   7.157   4.093   2.260
 1820HO4     MW 7280   7.100   4.107   2.336
 1821HO4     OW 7281   0.148   5.479   4.072
 1821HO4    HW1 7282   0.200   5.412   4.118
 1821HO4    HW2 7283   0.101   5.525   4.142
 1821HO4     MW 7284   0.148   5.479   4.072
 1822HO4     OW 7285   4.318   2.737   0.114
 1822HO4    HW1 7286   4.235   2.743   0.163
 1822HO4    HW2 7287   4.303   2.791   0.035
 1822HO4     MW 7288   4.318   2.737   0.114
 1823HO4     OW 7289   3.174   3.975   6.105
 1823HO4    HW1 7290   3.179   3.937   6.017
 1823HO4    HW2 7291   3.106   3.924   6.149
 1823HO4     MW 7292   3.174   3.975   6.105
 1824HO4     OW 7293   3.575   9.296   4.786
 1824HO4    HW1 7294   3.500   9.346   4.752
 1824HO4    HW2 7295   3.535   9.218   4.827
 1824HO4     MW 7296   3.575   9.296   4.786
 1825HO4     OW 7297   1.745   1.891   5.044
 1825HO4    HW1 7298   1.702   1.921   5.125
 1825HO4    HW2 7299   1.672   1.875   4.983
 1825HO4     MW 7300   1.745   1.891   5.044
 1826HO4     OW 7301   9.584   8.505   1.680
 1826HO4    HW1 7302   9.589   8.425   1.627
 1826HO4    HW2 7303   9.492   8.508   1.710
 1826HO4     MW 7304   9.584   8.505   1.680
 1827HO4     OW 7305   1.134   4.124   7.786
 1827HO4    HW1 7306   1.158   4.216   7.795
 1827HO4    HW2 7307   1.163   4.100   7.697
 1827HO4     MW 7308   1.134   4.124   7.786
 1828HO4     OW 7309   0.199   7.811   5.316
 1828HO4    HW1 7310   0.248   7.743   5.362
 1828HO4    HW2 7311   0.232   7.808   5.226
 1828HO4     MW 7312   0.199   7.811   5.316
 1829HO4     OW 7313   1.692   7.811   8.316
 1829HO4    HW1 7314   1.767   7.844   8.365
 1829HO4    HW2 7315   1.697   7.715   8.327
 1829HO4     MW 7316   1.692   7.811   8.316
 1830HO4     OW 7317   4.375   4.133   1.456
 1830HO4    HW1 7318   4.429   4.151   1.534
 1830HO4    HW2 7319   4.288   4.113   1.492
 1830HO4     MW 7320   4.375   4.133   1.456
 1831HO4     OW 7321   3.028   2.672   2.643
 1831HO4    HW1 7322   3.009   2.673   2.549
 1831HO4    HW2 7323   3.108   2.725   2.652
 1831HO4     MW 7324   3.028   2.672   2.643
 1832HO4     OW 7325   3.905   5.266   4.329
 1832HO4    HW1 7326   3.942   5.270   4.240
 1832HO4    HW2 7327   3.893   5.359   4.353
 1832HO4     MW 7328   3.905   5.266   4.329
 1833HO4     OW 7329   0.918   4.124   8.428
 1833HO4    HW1 7330   0.907   4.182   8.353
 1833HO4    HW2 7331   0.910   4.182   8.505
 1833HO4     MW 7332   0.918   4.124   8.428
 1834HO4     OW 7333   5.317   3.081   9.756
 1834HO4    HW1 7334   5.295   3.152   9.695
 1834HO4    HW2 7335   5.310   3.121   9.843
 1834HO4     MW 7336   5.317   3.081   9.756
 1835HO4     OW 7337   9.361   5.985   2.911
 1835HO4    HW1 7338   9.426   5.947   2.851
 1835HO4    HW2 7339   9.316   5.908   2.948
 1835HO4     MW 7340   9.361   5.985   2.911
 1836HO4     OW 7341   3.271   9.888   1.651
 1836HO4    HW1 7342   3.302   9.966   1.698
 1836HO4    HW2 7343   3.345   9.862   1.597
 1836HO4     MW 7344   3.271   9.888   1.651
 1837HO4     OW 7345   2.004   0.291   5.653
 1837HO4    HW1 7346   2.037   0.220   5.598
 1837HO4    HW2 7347   2.066   0.364   5.637
 1837HO4     MW 7348   2.004   0.291   5.653
 1838HO4     OW 7349   2.864   9.787   2.441
 1838HO4    HW1 7350   2.822   9.727   2.504
 1838HO4    HW2 7351   2.958   9.784   2.465
 1838HO4     MW 7352   2.864   9.787   2.441
 1839HO4     OW 7353   7.388   5.626   0.602
 1839HO4    HW1 7354   7.400   5.685   0.677
 1839HO4    HW2 7355   7.399   5.683   0.525
 1839HO4     MW 7356   7.388   5.626   0.602
 1840HO4     OW 7357   4.282   9.484   4.571
 1840HO4    HW1 7358   4.351   9.430   4.531
 1840HO4    HW2 7359   4.200   9.444   4.540
 1840HO4     MW 7360   4.282   9.484   4.571
 1841HO4     OW 7361   4.094   0.054   4.517
 1841HO4    HW1 7362   4.166   0.114   4.500
 1841HO4    HW2 7363   4.114  -0.024   4.464
 1841HO4     MW 7364   4.094   0.054   4.517
 1842HO4     OW 7365   6.238   3.859   0.753
 1842HO4    HW1 7366   6.288   3.874   0.834
 1842HO4    HW2 7367   6.305   3.858   0.684
 1842HO4     MW 7368   6.238   3.859   0.753
 1843HO4     OW 7369   7.162   2.626   0.740
 1843HO4    HW1 7370   7.187   2.666   0.824
 1843HO4    HW2 7371   7.112   2.548   0.765
 1843HO4     MW 7372   7.162   2.626   0.740
 1844HO4     OW 7373   5.968   6.506   5.818
 1844HO4    HW1 7374   5.926   6.440   5.762
 1844HO4    HW2 7375   5.961   6.470   5.907
 1844HO4     MW 7376   5.968   6.506   5.818
 1845HO4     OW 7377   4.210   2.188   4.795
 1845HO4    HW1 7378   4.202   2.095   4.816
 1845HO4    HW2 7379   4.252   2.227   4.873
 1845HO4     MW 7380   4.210   2.188   4.795
 1846HO4     OW 7381   4.193   7.762   7.875
 1846HO4    HW1 7382   4.137   7.746   7.952
 1846HO4    HW2 7383   4.135   7.747   7.800
 1846HO4     MW 7384   4.193   7.762   7.875
 1847HO4     OW 7385   6.727   0.847   4.438
 1847HO4    HW1 7386   6.688   0.861   4.525
 1847HO4    HW2 7387   6.680   0.770   4.403
 1847HO4     MW 7388   6.727   0.847   4.438
 1848HO4     OW 7389   9.938   7.786   5.429
 1848HO4    HW1 7390   9.975   7.870   5.400
 1848HO4    HW2 7391   9.993   7.720   5.386
 1848HO4     MW 7392   9.938   7.786   5.429
 1849HO4     OW 7393   0.601   9.937   5.149
 1849HO4    HW1 7394   0.661   9.991   5.202
 1849HO4    HW2 7395   0.553   9.884   5.214
 1849HO4     MW 7396   0.601   9.937   5.149
 1850HO4     OW 7397   3.151   1.022   1.333
 1850HO4    HW1 7398   3.187   0.966   1.264
 1850HO4    HW2 7399   3.104   0.962   1.391
 1850HO4     MW 7400   3.151   1.022   1.333
 1851HO4     OW 7401   5.695   7.955   0.700
 1851HO4    HW1 7402   5.637   8.031   0.704
 1851HO4    HW2 7403   5.783   7.990   0.719
 1851HO4     MW 7404   5.695   7.955   0.700
 1852HO4     OW 7405   2.287   6.140   7.743
 1852HO4    HW1 7406   2.245   6.121   7.828
 1852HO4    HW2 7407   2.217   6.128   7.678
 1852HO4     MW 7408   2.287   6.140   7.743
 1853HO4     OW 7409   3.509   9.855   3.568
 1853HO4    HW1 7410   3.443   9.812   3.623
 1853HO4    HW2 7411   3.561   9.908   3.629
 1853HO4     MW 7412   3.509   9.855   3.568
 1854HO4     OW 7413   3.947   1.227   1.785
 1854HO4    HW1 7414   3.875   1.285   1.757
 1854HO4    HW2 7415   3.926   1.142   1.745
 1854HO4     MW 7416   3.947   1.227   1.785
 1855HO4     OW 7417   1.593   2.259   7.553
 1855HO4    HW1 7418   1.529   2.262   7.624
 1855HO4    HW2 7419   1.543   2.228   7.477
 1855HO4     MW 7420   1.593   2.259   7.553
 1856HO4     OW 7421   3.123  10.042   5.981
 1856HO4    HW1 7422   3.199  10.101   5.974
 1856HO4    HW2 7423   3.114  10.026   6.076
 1856HO4     MW 7424   3.123  10.042   5.981
 1857HO4     OW 7425   1.437   1.913   0.830
 1857HO4    HW1 7426   1.425   1.995   0.880
 1857HO4    HW2 7427   1.347   1.884   0.810
 1857HO4     MW 7428   1.437   1.913   0.830
 1858HO4     OW 7429   2.215   0.052   3.301
 1858HO4    HW1 7430   2.163   0.038   3.381
 1858HO4    HW2 7431   2.175  -0.006   3.236
 1858HO4     MW 7432   2.215   0.052   3.301
 1859HO4     OW 7433   8.235   5.357   9.746
 1859HO4    HW1 7434   8.166   5.408   9.790
 1859HO4    HW2 7435   8.231   5.387   9.654
 1859HO4     MW 7436   8.235   5.357   9.746
 1860HO4     OW 7437   2.243   2.036   5.623
 1860HO4    HW1 7438   2.191   2.103   5.668
 1860HO4    HW2 7439   2.310   2.086   5.575
 1860HO4     MW 7440   2.243   2.036   5.623
 1861HO4     OW 7441   3.874   4.632   0.522
 1861HO4    HW1 7442   3.950   4.613   0.465
 1861HO4    HW2 7443   3.818   4.688   0.468
 1861HO4     MW 7444   3.874   4.632   0.522
 1862HO4     OW 7445   8.949   3.551   0.894
 1862HO4    HW1 7446   8.883   3.583   0.957
 1862HO4    HW2 7447   8.911   3.569   0.808
 1862HO4     MW 7448   8.949   3.551   0.894
 1863HO4     OW 7449   4.120   6.241   3.545
 1863HO4    HW1 7450   4.178   6.188   3.490
 1863HO4    HW2 7451   4.165   6.244   3.630
 1863HO4     MW 7452   4.120   6.241   3.545
 1864HO4     OW 7453   5.750   5.797   1.414
 1864HO4    HW1 7454   5.752   5.728   1.347
 1864HO4    HW2 7455   5.740   5.749   1.497
 1864HO4     MW 7456   5.750   5.797   1.414
 1865HO4     OW 7457   8.459   0.920   8.094
 1865HO4    HW1 7458   8.389   0.873   8.141
 1865HO4    HW2 7459   8.499   0.852   8.038
 1865HO4     MW 7460   8.459   0.920   8.094
 1866HO4     OW 7461   4.698   4.276   9.557
 1866HO4    HW1 7462   4.785   4.262   9.596
 1866HO4    HW2 7463   4.638   4.280   9.632
 1866HO4     MW 7464   4.698   4.276   9.557
 1867HO4     OW 7465   7.511   8.347   6.329
 1867HO4    HW1 7466   7.580   8.293   6.368
 1867HO4    HW2 7467   7.558   8.416   6.281
 1867HO4     MW 7468   7.511   8.347   6.329
 1868HO4     OW 7469   9.643   8.332   9.552
 1868HO4    HW1 7470   9.649   8.239   9.530
 1868HO4    HW2 7471   9.685   8.339   9.638
 1868HO4     MW 7472   9.643   8.332   9.552
 1869HO4     OW 7473   0.667   2.797   3.455
 1869HO4    HW1 7474   0.608   2.796   3.531
 1869HO4    HW2 7475   0.609   2.798   3.379
 1869HO4     MW 7476   0.667   2.797   3.455
 1870HO4     OW 7477   4.374   2.919   3.623
 1870HO4    HW1 7478   4.387   2.976   3.700
 1870HO4    HW2 7479   4.388   2.977   3.548
 1870HO4     MW 7480   4.374   2.919   3.623
 1871HO4     OW 7481   2.643   8.663   0.912
 1871HO4    HW1 7482   2.552   8.644   0.889
 1871HO4    HW2 7483   2.638   8.732   0.978
 1871HO4     MW 7484   2.643   8.663   0.912
 1872HO4     OW 7485   0.594   8.799   5.592
 1872HO4    HW1 7486   0.511   8.831   5.554
 1872HO4    HW2 7487   0.633   8.878   5.632
 1872HO4     MW 7488   0.594   8.799   5.592
 1873HO4     OW 7489   1.991   5.148   0.161
 1873HO4    HW1 7490   2.006   5.147   0.256
 1873HO4    HW2 7491   2.043   5.074   0.128
 1873HO4     MW 7492   1.991   5.148   0.161
 1874HO4     OW 7493   9.560   5.093   6.905
 1874HO4    HW1 7494   9.519   5.119   6.821
 1874HO4    HW2 7495   9.653   5.085   6.884
 1874HO4     MW 7496   9.560   5.093   6.905
 1875HO4     OW 7497   1.845   5.620   0.884
 1875HO4    HW1 7498   1.887   5.584   0.805
 1875HO4    HW2 7499   1.893   5.580   0.957
 1875HO4     MW 7500   1.845   5.620   0.884
 1876HO4     OW 7501   1.158   6.261   0.912
 1876HO4    HW1 7502   1.226   6.235   0.974
 1876HO4    HW2 7503   1.176   6.208   0.833
 1876HO4     MW 7504   1.158   6.261   0.912
 1877HO4     OW 7505   0.484   4.223   2.894
 1877HO4    HW1 7506   0.457   4.180   2.812
 1877HO4    HW2 7507   0.401   4.252   2.934
 1877HO4     MW 7508   0.484   4.223   2.894
 1878HO4     OW 7509   1.767   9.712   6.382
 1878HO4    HW1 7510   1.797   9.762   6.306
 1878HO4    HW2 7511   1.787   9.770   6.457
 1878HO4     MW 7512   1.767   9.712   6.382
 1879HO4     OW 7513   6.686   2.776   8.810
 1879HO4    HW1 7514   6.664   2.702   8.869
 1879HO4    HW2 7515   6.713   2.734   8.728
 1879HO4     MW 7516   6.686   2.776   8.810
 1880HO4     OW 7517   3.891   8.253   5.865
 1880HO4    HW1 7518   3.821   8.231   5.803
 1880HO4    HW2 7519   3.960   8.189   5.846
 1880HO4     MW 7520   3.891   8.253   5.865
 1881HO4     OW 7521   5.332   4.531   5.224
 1881HO4    HW1 7522   5.317   4.623   5.198
 1881HO4    HW2 7523   5.350   4.535   5.318
 1881HO4     MW 7524   5.332   4.531   5.224
 1882HO4     OW 7525   1.967   3.740   3.950
 1882HO4    HW1 7526   1.891   3.749   3.893
 1882HO4    HW2 7527   1.932   3.748   4.039
 1882HO4     MW 7528   1.967   3.740   3.950
 1883HO4     OW 7529   9.609   5.067  10.082
 1883HO4    HW1 7530   9.658   5.031  10.156
 1883HO4    HW2 7531   9.649   5.026  10.005
 1883HO4     MW 7532   9.609   5.067  10.082
 1884HO4     OW 7533   2.971   0.444   9.484
 1884HO4    HW1 7534   3.005   0.476   9.568
 1884HO4    HW2 7535   2.965   0.522   9.428
 1884HO4     MW 7536   2.971   0.444   9.484
 1885HO4     OW 7537   0.014   3.592   3.176
 1885HO4    HW1 7538  -0.044   3.585   3.100
 1885HO4    HW2 7539   0.025   3.501   3.206
 1885HO4     MW 7540   0.014   3.592   3.176
 1886HO4     OW 7541   3.673   8.035   0.441
 1886HO4    HW1 7542   3.737   7.975   0.480
 1886HO4    HW2 7543   3.664   8.003   0.350
 1886HO4     MW 7544   3.673   8.035   0.441
 1887HO4     OW 7545   9.393   8.219   3.394
 1887HO4    HW1 7546   9.344   8.162   3.453
 1887HO4    HW2 7547   9.327   8.256   3.335
 1887HO4     MW 7548   9.393   8.219   3.394
 1888HO4     OW 7549   3.122   9.365   6.313
 1888HO4    HW1 7550   3.184   9.317   6.369
 1888HO4    HW2 7551   3.147   9.457   6.325
 1888HO4     MW 7552   3.122   9.365   6.313
 1889HO4     OW 7553   0.734   7.103   9.377
 1889HO4    HW1 7554   0.786   7.086   9.298
 1889HO4    HW2 7555   0.780   7.055   9.447
 1889HO4     MW 7556   0.734   7.103   9.377
 1890HO4     OW 7557   5.040   6.479   8.655
 1890HO4    HW1 7558   4.947   6.458   8.642
 1890HO4    HW2 7559   5.083   6.393   8.667
 1890HO4     MW 7560   5.040   6.479   8.655
 1891HO4     OW 7561   1.074   7.066   5.215
 1891HO4    HW1 7562   1.043   7.103   5.132
 1891HO4    HW2 7563   1.044   7.128   5.282
 1891HO4     MW 7564   1.074   7.066   5.215
 1892HO4     OW 7565   0.604   7.990   0.718
 1892HO4    HW1 7566   0.555   7.960   0.795
 1892HO4    HW2 7567   0.679   8.039   0.754
 1892HO4     MW 7568   0.604   7.990   0.718
 1893HO4     OW 7569   0.464   7.890   1.521
 1893HO4    HW1 7570   0.560   7.892   1.527
 1893HO4    HW2 7571   0.434   7.949   1.591
 1893HO4     MW 7572   0.464   7.890   1.521
 1894HO4     OW 7573   1.939   0.081   2.036
 1894HO4    HW1 7574   1.972   0.018   2.100
 1894HO4    HW2 7575   1.952   0.039   1.951
 1894HO4     MW 7576   1.939   0.081   2.036
 1895HO4     OW 7577   9.586   9.780   8.327
 1895HO4    HW1 7578   9.595   9.829   8.410
 1895HO4    HW2 7579   9.623   9.693   8.347
 1895HO4     MW 7580   9.586   9.780   8.327
 1896HO4     OW 7581   9.282   7.211   3.177
 1896HO4    HW1 7582   9.321   7.299   3.170
 1896HO4    HW2 7583   9.207   7.214   3.117
 1896HO4     MW 7584   9.282   7.211   3.177
 1897HO4     OW 7585   5.596   0.504   0.246
 1897HO4    HW1 7586   5.521   0.461   0.287
 1897HO4    HW2 7587   5.559   0.551   0.170
 1897HO4     MW 7588   5.596   0.504   0.246
 1898HO4     OW 7589   9.012   1.386   4.404
 1898HO4    HW1 7590   8.965   1.321   4.458
 1898HO4    HW2 7591   9.096   1.344   4.385
 1898HO4     MW 7592   9.012   1.386   4.404
 1899HO4     OW 7593   8.419   3.501   2.599
 1899HO4    HW1 7594   8.437   3.553   2.519
 1899HO4    HW2 7595   8.430   3.564   2.671
 1899HO4     MW 7596   8.419   3.501   2.599
 1900HO4     OW 7597   4.984   7.185   6.897
 1900HO4    HW1 7598   4.966   7.128   6.973
 1900HO4    HW2 7599   4.961   7.132   6.821
 1900HO4     MW 7600   4.984   7.185   6.897
 1901HO4     OW 7601   7.020   7.282   6.155
 1901HO4    HW1 7602   7.015   7.304   6.061
 1901HO4    HW2 7603   7.080   7.348   6.192
 1901HO4     MW 7604   7.020   7.282   6.155
 1902HO4     OW 7605   4.534   4.670   8.279
 1902HO4    HW1 7606   4.536   4.644   8.186
 1902HO4    HW2 7607   4.453   4.632   8.313
 1902HO4     MW 7608   4.534   4.670   8.279
 1903HO4     OW 7609   4.031   7.873   7.741
 1903HO4    HW1 7610   3.945   7.830   7.735
 1903HO4    HW2 7611   4.012   7.966   7.724
 1903HO4     MW 7612   4.031   7.873   7.741
 1904HO4     OW 7613   3.991   9.799   7.089
 1904HO4    HW1 7614   4.065   9.810   7.029
 1904HO4    HW2 7615   4.031   9.782   7.174
 1904HO4     MW 7616   3.991   9.799   7.089
 1905HO4     OW 7617   4.230   3.545   5.373
 1905HO4    HW1 7618   4.200   3.563   5.284
 1905HO4    HW2 7619   4.194   3.618   5.425
 1905HO4     MW 7620   4.230   3.545   5.373
 1906HO4     OW 7621   2.931   8.913   3.354
 1906HO4    HW1 7622   3.006   8.973   3.342
 1906HO4    HW2 7623   2.968   8.825   3.343
 1906HO4     MW 7624   2.931   8.913   3.354
 1907HO4     OW 7625   7.819   5.567  10.153
 1907HO4    HW1 7626   7.860   5.546  10.068
 1907HO4    HW2 7627   7.893   5.574  10.214
 1907HO4     MW 7628   7.819   5.567  10.153
 1908HO4     OW 7629   6.331   4.849   3.857
 1908HO4    HW1 7630   6.284   4.812   3.782
 1908HO4    HW2 7631   6.289   4.809   3.933
 1908HO4     MW 7632   6.331   4.849   3.857
 1909HO4     OW 7633   0.688   9.839   7.651
 1909HO4    HW1 7634   0.645   9.850   7.565
 1909HO4    HW2 7635   0.616   9.818   7.711
 1909HO4     MW 7636   0.688   9.839   7.651
 1910HO4     OW 7637   6.941   9.112   5.893
 1910HO4    HW1 7638   6.982   9.146   5.813
 1910HO4    HW2 7639   6.846   9.115   5.873
 1910HO4     MW 7640   6.941   9.112   5.893
 1911HO4     OW 7641   2.285   6.682   1.870
 1911HO4    HW1 7642   2.236   6.600   1.863
 1911HO4    HW2 7643   2.315   6.701   1.781
 1911HO4     MW 7644   2.285   6.682   1.870
 1912HO4     OW 7645   9.387   8.364   4.207
 1912HO4    HW1 7646   9.297   8.387   4.182
 1912HO4    HW2 7647   9.390   8.268   4.197
 1912HO4     MW 7648   9.387   8.364   4.207
 1913HO4     OW 7649   7.228   4.569   1.207
 1913HO4    HW1 7650   7.203   4.621   1.283
 1913HO4    HW2 7651   7.218   4.630   1.132
 1913HO4     MW 7652   7.228   4.569   1.207
 1914HO4     OW 7653   3.996  10.046   5.996
 1914HO4    HW1 7654   4.072  10.082   5.950
 1914HO4    HW2 7655   4.024  10.037   6.088
 1914HO4     MW 7656   3.996  10.046   5.996
 1915HO4     OW 7657   0.420   7.083   7.863
 1915HO4    HW1 7658   0.377   7.046   7.785
 1915HO4    HW2 7659   0.353   7.141   7.901
 1915HO4     MW 7660   0.420   7.083   7.863
 1916HO4     OW 7661   1.885   9.846   2.660
 1916HO4    HW1 7662   1.890   9.942   2.671
 1916HO4    HW2 7663   1.920   9.830   2.573
 1916HO4     MW 7664   1.885   9.846   2.660
 1917HO4     OW 7665   4.176   3.577   2.139
 1917HO4    HW1 7666   4.114   3.503   2.138
 1917HO4    HW2 7667   4.121   3.655   2.144
 1917HO4     MW 7668   4.176   3.577   2.139
 1918HO4     OW 7669   5.396  10.074   9.344
 1918HO4    HW1 7670   5.302  10.055   9.332
 1918HO4    HW2 7671   5.424  10.105   9.257
 1918HO4     MW 7672   5.396  10.074   9.344
 1919HO4     OW 7673   1.021   2.187   3.537
 1919HO4    HW1 7674   1.114   2.166   3.542
 1919HO4    HW2 7675   1.001   2.187   3.443
 1919HO4     MW 7676   1.021   2.187   3.537
 1920HO4     OW 7677   7.626   9.503   1.295
 1920HO4    HW1 7678   7.644   9.489   1.201
 1920HO4    HW2 7679   7.643   9.596   1.309
 1920HO4     MW 7680   7.626   9.503   1.295
 1921HO4     OW 7681   1.384   5.727   7.258
 1921HO4    HW1 7682   1.431   5.802   7.221
 1921HO4    HW2 7683   1.400   5.733   7.353
 1921HO4     MW 7684   1.384   5.727   7.258
 1922HO4     OW 7685   8.924   2.290   6.134
 1922HO4    HW1 7686   9.009   2.268   6.173
 1922HO4    HW2 7687   8.905   2.216   6.076
 1922HO4     MW 7688   8.924   2.290   6.134
 1923HO4     OW 7689   2.698   4.441   5.071
 1923HO4    HW1 7690   2.680   4.409   4.982
 1923HO4    HW2 7691   2.696   4.537   5.062
 1923HO4     MW 7692   2.698   4.441   5.071
 1924HO4     OW 7693   4.800   2.728   8.690
 1924HO4    HW1 7694   4.825   2.806   8.640
 1924HO4    HW2 7695   4.748   2.762   8.763
 1924HO4     MW 7696   4.800   2.728   8.690
 1925HO4     OW 7697   2.516   9.696   3.800
 1925HO4    HW1 7698   2.468   9.750   3.737
 1925HO4    HW2 7699   2.451   9.677   3.869
 1925HO4     MW 7700   2.516   9.696   3.800
 1926HO4     OW 7701   4.929   1.700   5.967
 1926HO4    HW1 7702   4.944   1.638   6.039
 1926HO4    HW2 7703   4.955   1.652   5.888
 1926HO4     MW 7704   4.929   1.700   5.967
 1927HO4     OW 7705   9.240   7.291   7.102
 1927HO4    HW1 7706   9.240   7.313   7.195
 1927HO4    HW2 7707   9.230   7.196   7.100
 1927HO4     MW 7708   9.240   7.291   7.102
 1928HO4     OW 7709   1.692  10.162   2.873
 1928HO4    HW1 7710   1.780  10.198   2.891
 1928HO4    HW2 7711   1.705  10.067   2.875
 1928HO4     MW 7712   1.692  10.162   2.873
 1929HO4     OW 7713   6.515   0.755   4.179
 1929HO4    HW1 7714   6.526   0.830   4.239
 1929HO4    HW2 7715   6.531   0.792   4.092
 1929HO4     MW 7716   6.515   0.755   4.179
 1930HO4     OW 7717   6.857   7.093   7.749
 1930HO4    HW1 7718   6.863   7.034   7.673
 1930HO4    HW2 7719   6.836   7.035   7.823
 1930HO4     MW 7720   6.857   7.093   7.749
 1931HO4     OW 7721   3.231   7.975   7.716
 1931HO4    HW1 7722   3.195   7.897   7.761
 1931HO4    HW2 7723   3.288   7.939   7.648
 1931HO4     MW 7724   3.231   7.975   7.716
 1932HO4     OW 7725   8.936   5.224   9.358
 1932HO4    HW1 7726   9.015   5.229   9.412
 1932HO4    HW2 7727   8.879   5.293   9.395
 1932HO4     MW 7728   8.936   5.224   9.358
 1933HO4     OW 7729   3.935   1.996   5.359
 1933HO4    HW1 7730   3.883   1.963   5.286
 1933HO4    HW2 7731   3.892   2.078   5.385
 1933HO4     MW 7732   3.935   1.996   5.359
 1934HO4     OW 7733   9.513   2.625   8.450
 1934HO4    HW1 7734   9.499   2.657   8.360
 1934HO4    HW2 7735   9.455   2.679   8.503
 1934HO4     MW 7736   9.513   2.625   8.450
 1935HO4     OW 7737   5.334   6.808   3.739
 1935HO4    HW1 7738   5.412   6.799   3.794
 1935HO4    HW2 7739   5.261   6.784   3.797
 1935HO4     MW 7740   5.334   6.808   3.739
 1936HO4     OW 7741   0.383   7.095   6.285
 1936HO4    HW1 7742   0.430   7.132   6.361
 1936HO4    HW2 7743   0.422   7.138   6.209
 1936HO4     MW 7744   0.383   7.095   6.285
 1937HO4     OW 7745   9.964   4.727   8.717
 1937HO4    HW1 7746   9.957   4.679   8.800
 1937HO4    HW2 7747   9.926   4.813   8.736
 1937HO4     MW 7748   9.964   4.727   8.717
 1938HO4     OW 7749   6.080   1.518   5.201
 1938HO4    HW1 7750   6.160   1.465   5.211
 1938HO4    HW2 7751   6.082   1.545   5.109
 1938HO4     MW 7752   6.080   1.518   5.201
 1939HO4     OW 7753   0.142   7.020   4.166
 1939HO4    HW1 7754   0.158   7.060   4.080
 1939HO4    HW2 7755   0.081   6.948   4.147
 1939HO4     MW 7756   0.142   7.020   4.166
 1940HO4     OW 7757   2.022   0.351   1.157
 1940HO4    HW1 7758   1.962   0.304   1.099
 1940HO4    HW2 7759   2.001   0.318   1.245
 1940HO4     MW 7760   2.022   0.351   1.157
 1941HO4     OW 7761   2.792   5.607   3.797
 1941HO4    HW1 7762   2.878   5.581   3.833
 1941HO4    HW2 7763   2.768   5.535   3.738
 1941HO4     MW 7764   2.792   5.607   3.797
 1942HO4     OW 7765   3.974   2.469   9.602
 1942HO4    HW1 7766   4.017   2.512   9.677
 1942HO4    HW2 7767   4.016   2.383   9.596
 1942HO4     MW 7768   3.974   2.469   9.602
 1943HO4     OW 7769   7.353   8.991   8.106
 1943HO4    HW1 7770   7.278   8.971   8.049
 1943HO4    HW2 7771   7.327   8.956   8.192
 1943HO4     MW 7772   7.353   8.991   8.106
 1944HO4     OW 7773   3.145   2.651   5.177
 1944HO4    HW1 7774   3.215   2.640   5.111
 1944HO4    HW2 7775   3.192   2.650   5.261
 1944HO4     MW 7776   3.145   2.651   5.177
 1945HO4     OW 7777   5.329   8.105   9.513
 1945HO4    HW1 7778   5.301   8.164   9.442
 1945HO4    HW2 7779   5.404   8.058   9.476
 1945HO4     MW 7780   5.329   8.105   9.513
 1946HO4     OW 7781   2.252   0.761   0.751
 1946HO4    HW1 7782   2.215   0.726   0.669
 1946HO4    HW2 7783   2.179   0.808   0.792
 1946HO4     MW 7784   2.252   0.761   0.751
 1947HO4     OW 7785   7.594   9.835   6.654
 1947HO4    HW1 7786   7.635   9.770   6.597
 1947HO4    HW2 7787   7.659   9.906   6.661
 1947HO4     MW 7788   7.594   9.835   6.654
 1948HO4     OW 7789   1.867   4.031   0.380
 1948HO4    HW1 7790   1.811   4.025   0.458
 1948HO4    HW2 7791   1.824   3.975   0.315
 1948HO4     MW 7792   1.867   4.031   0.380
 1949HO4     OW 7793   9.740   9.726   1.302
 1949HO4    HW1 7794   9.728   9.658   1.368
 1949HO4    HW2 7795   9.835   9.740   1.299
 1949HO4     MW 7796   9.740   9.726   1.302
 1950HO4     OW 7797   9.554   9.298   9.847
 1950HO4    HW1 7798   9.553   9.223   9.787
 1950HO4    HW2 7799   9.486   9.278   9.912
 1950HO4     MW 7800   9.554   9.298   9.847
 1951HO4     OW 7801   9.845   7.182   8.516
 1951HO4    HW1 7802   9.856   7.190   8.611
 1951HO4    HW2 7803   9.780   7.249   8.493
 1951HO4     MW 7804   9.845   7.182   8.516
 1952HO4     OW 7805   6.609   1.469   6.951
 1952HO4    HW1 7806   6.662   1.455   6.872
 1952HO4    HW2 7807   6.667   1.519   7.010
 1952HO4     MW 7808   6.609   1.469   6.951
 1953HO4     OW 7809   3.421   1.544   8.826
 1953HO4    HW1 7810   3.443   1.465   8.876
 1953HO4    HW2 7811   3.503   1.595   8.825
 1953HO4     MW 7812   3.421   1.544   8.826
 1954HO4     OW 7813   0.318   1.747   0.536
 1954HO4    HW1 7814   0.389   1.765   0.599
 1954HO4    HW2 7815   0.248   1.709   0.590
 1954HO4     MW 7816   0.318   1.747   0.536
 1955HO4     OW 7817   6.903   7.433   8.038
 1955HO4    HW1 7818   6.875   7.397   7.953
 1955HO4    HW2 7819   6.855   7.381   8.103
 1955HO4     MW 7820   6.903   7.433   8.038
 1956HO4     OW 7821   5.960   9.334   0.573
 1956HO4    HW1 7822   6.021   9.402   0.542
 1956HO4    HW2 7823   6.002   9.251   0.547
 1956HO4     MW 7824   5.960   9.334   0.573
 1957HO4     OW 7825   2.768   9.899   1.336
 1957HO4    HW1 7826   2.768   9.987   1.376
 1957HO4    HW2 7827   2.808   9.842   1.403
 1957HO4     MW 7828   2.768   9.899   1.336
 1958HO4     OW 7829   9.596   8.997   7.515
 1958HO4    HW1 7830   9.608   9.022   7.607
 1958HO4    HW2 7831   9.639   9.067   7.465
 1958HO4     MW 7832   9.596   8.997   7.515
 1959HO4     OW 7833   2.734   0.126   9.338
 1959HO4    HW1 7834   2.759   0.120   9.245
 1959HO4    HW2 7835   2.642   0.157   9.336
 1959HO4     MW 7836   2.734   0.126   9.338
 1960HO4     OW 7837   0.739   1.937   8.544
 1960HO4    HW1 7838   0.704   1.849   8.532
 1960HO4    HW2 7839   0.668   1.986   8.587
 1960HO4     MW 7840   0.739   1.937   8.544
 1961HO4     OW 7841   8.511   8.734   9.297
 1961HO4    HW1 7842   8.444   8.666   9.287
 1961HO4    HW2 7843   8.555   8.712   9.380
 1961HO4     MW 7844   8.511   8.734   9.297
 1962HO4     OW 7845   1.413   6.373   4.302
 1962HO4    HW1 7846   1.450   6.365   4.390
 1962HO4    HW2 7847   1.392   6.282   4.277
 1962HO4     MW 7848   1.413   6.373   4.302
 1963HO4     OW 7849   0.800   9.396   3.935
 1963HO4    HW1 7850   0.848   9.314   3.922
 1963HO4    HW2 7851   0.866   9.464   3.920
 1963HO4     MW 7852   0.800   9.396   3.935
 1964HO4     OW 7853   6.504   9.738   8.286
 1964HO4    HW1 7854   6.448   9.728   8.364
 1964HO4    HW2 7855   6.442   9.744   8.213
 1964HO4     MW 7856   6.504   9.738   8.286
 1965HO4     OW 7857   8.920   1.367   0.114
 1965HO4    HW1 7858   8.828   1.380   0.137
 1965HO4    HW2 7859   8.922   1.286   0.062
 1965HO4     MW 7860   8.920   1.367   0.114
 1966HO4     OW 7861   1.380   8.813   0.983
 1966HO4    HW1 7862   1.346   8.835   0.896
 1966HO4    HW2 7863   1.446   8.881   1.001
 1966HO4     MW 7864   1.380   8.813   0.983
 1967HO4     OW 7865   6.001   6.666   6.334
 1967HO4    HW1 7866   5.936   6.734   6.353
 1967HO4    HW2 7867   5.958   6.584   6.360
 1967HO4     MW 7868   6.001   6.666   6.334
 1968HO4     OW 7869   8.762   7.439   3.628
 1968HO4    HW1 7870   8.699   7.369   3.647
 1968HO4    HW2 7871   8.784   7.476   3.714
 1968HO4     MW 7872   8.762   7.439   3.628
 1969HO4     OW 7873   9.002   1.607   5.602
 1969HO4    HW1 7874   8.929   1.601   5.539
 1969HO4    HW2 7875   9.060   1.534   5.579
 1969HO4     MW 7876   9.002   1.607   5.602
 1970HO4     OW 7877   5.150   8.121   6.853
 1970HO4    HW1 7878   5.176   8.193   6.911
 1970HO4    HW2 7879   5.139   8.162   6.767
 1970HO4     MW 7880   5.150   8.121   6.853
 1971HO4     OW 7881   2.933   0.503   8.348
 1971HO4    HW1 7882   2.978   0.483   8.431
 1971HO4    HW2 7883   2.870   0.432   8.338
 1971HO4     MW 7884   2.933   0.503   8.348
 1972HO4     OW 7885   4.676   0.407   7.367
 1972HO4    HW1 7886   4.736   0.458   7.423
 1972HO4    HW2 7887   4.589   0.427   7.403
 1972HO4     MW 7888   4.676   0.407   7.367
 1973HO4     OW 7889   3.903   4.093   1.924
 1973HO4    HW1 7890   3.865   4.168   1.971
 1973HO4    HW2 7891   3.842   4.077   1.852
 1973HO4     MW 7892   3.903   4.093   1.924
 1974HO4     OW 7893   4.137   8.133   0.750
 1974HO4    HW1 7894   4.155   8.111   0.659
 1974HO4    HW2 7895   4.058   8.082   0.773
 1974HO4     MW 7896   4.137   8.133   0.750
 1975HO4     OW 7897   0.414   9.798   0.522
 1975HO4    HW1 7898   0.491   9.792   0.465
 1975HO4    HW2 7899   0.447   9.838   0.603
 1975HO4     MW 7900   0.414   9.798   0.522
 1976HO4     OW 7901   0.498   0.514   1.214
 1976HO4    HW1 7902   0.499   0.595   1.267
 1976HO4    HW2 7903   0.443   0.536   1.138
 1976HO4     MW 7904   0.498   0.514   1.214
 1977HO4     OW 7905   1.272   0.634   0.046
 1977HO4    HW1 7906   1.267   0.687  -0.034
 1977HO4    HW2 7907   1.282   0.698   0.117
 1977HO4     MW 7908   1.272   0.634   0.046
 1978HO4     OW 7909   9.558   3.398   9.667
 1978HO4    HW1 7910   9.556   3.453   9.588
 1978HO4    HW2 7911   9.651   3.396   9.692
 1978HO4     MW 7912   9.558   3.398   9.667
 1979HO4     OW 7913   3.576   0.361   1.519
 1979HO4    HW1 7914   3.484   0.390   1.523
 1979HO4    HW2 7915   3.587   0.331   1.428
 1979HO4     MW 7916   3.576   0.361   1.519
 1980HO4     OW 7917   0.987   4.237   2.770
 1980HO4    HW1 7918   0.985   4.196   2.683
 1980HO4    HW2 7919   0.994   4.163   2.832
 1980HO4     MW 7920   0.987   4.237   2.770
 1981HO4     OW 7921   0.556   8.388   5.084
 1981HO4    HW1 7922   0.522   8.470   5.121
 1981HO4    HW2 7923   0.629   8.416   5.028
 1981HO4     MW 7924   0.556   8.388   5.084
 1982HO4     OW 7925   7.514   1.754   1.220
 1982HO4    HW1 7926   7.562   1.710   1.291
 1982HO4    HW2 7927   7.549   1.714   1.140
 1982HO4     MW 7928   7.514   1.754   1.220
 1983HO4     OW 7929   6.563   2.162   0.442
 1983HO4    HW1 7930   6.559   2.070   0.414
 1983HO4    HW2 7931   6.490   2.171   0.504
 1983HO4     MW 7932   6.563   2.162   0.442
 1984HO4     OW 7933   3.692   2.108   7.758
 1984HO4    HW1 7934   3.725   2.157   7.683
 1984HO4    HW2 7935   3.743   2.140   7.833
 1984HO4     MW 7936   3.692   2.108   7.758
 1985HO4     OW 7937   9.344   5.275   1.724
 1985HO4    HW1 7938   9.326   5.293   1.631
 1985HO4    HW2 7939   9.417   5.333   1.746
 1985HO4     MW 7940   9.344   5.275   1.724
 1986HO4     OW 7941   3.971   5.761   4.452
 1986HO4    HW1 7942   4.040   5.812   4.497
 1986HO4    HW2 7943   4.020   5.706   4.390
 1986HO4     MW 7944   3.971   5.761   4.452
 1987HO4     OW 7945   2.837   6.836   4.104
 1987HO4    HW1 7946   2.799   6.748   4.110
 1987HO4    HW2 7947   2.922   6.822   4.060
 1987HO4     MW 7948   2.837   6.836   4.104
 1988HO4     OW 7949   1.363   2.406   9.655
 1988HO4    HW1 7950   1.392   2.418   9.747
 1988HO4    HW2 7951   1.332   2.315   9.652
 1988HO4     MW 7952   1.363   2.406   9.655
 1989HO4     OW 7953   6.218   9.387   5.166
 1989HO4    HW1 7954   6.277   9.463   5.175
 1989HO4    HW2 7955   6.166   9.407   5.088
 1989HO4     MW 7956   6.218   9.387   5.166
 1990HO4     OW 7957   0.716   2.448   5.680
 1990HO4    HW1 7958   0.668   2.452   5.763
 1990HO4    HW2 7959   0.791   2.391   5.698
 1990HO4     MW 7960   0.716   2.448   5.680
 1991HO4     OW 7961   7.457   7.986   9.805
 1991HO4    HW1 7962   7.549   7.973   9.779
 1991HO4    HW2 7963   7.425   8.055   9.746
 1991HO4     MW 7964   7.457   7.986   9.805
 1992HO4     OW 7965   4.957   3.745   6.354
 1992HO4    HW1 7966   4.893   3.759   6.283
 1992HO4    HW2 7967   4.904   3.751   6.435
 1992HO4     MW 7968   4.957   3.745   6.354
 1993HO4     OW 7969   6.581   9.378   0.617
 1993HO4    HW1 7970   6.565   9.398   0.709
 1993HO4    HW2 7971   6.573   9.463   0.572
 1993HO4     MW 7972   6.581   9.378   0.617
 1994HO4     OW 7973   9.521   4.991   7.934
 1994HO4    HW1 7974   9.439   5.002   7.981
 1994HO4    HW2 7975   9.589   4.996   8.002
 1994HO4     MW 7976   9.521   4.991   7.934
 1995HO4     OW 7977   9.311   9.077   2.472
 1995HO4    HW1 7978   9.395   9.112   2.442
 1995HO4    HW2 7979   9.335   9.006   2.532
 1995HO4     MW 7980   9.311   9.077   2.472
 1996HO4     OW 7981   5.380   8.835   1.515
 1996HO4    HW1 7982   5.359   8.834   1.421
 1996HO4    HW2 7983   5.437   8.759   1.528
 1996HO4     MW 7984   5.380   8.835   1.515
 1997HO4     OW 7985   4.600   7.509   6.262
 1997HO4    HW1 7986   4.632   7.560   6.338
 1997HO4    HW2 7987   4.624   7.562   6.186
 1997HO4     MW 7988   4.600   7.509   6.262
 1998HO4     OW 7989   3.182   5.828   6.891
 1998HO4    HW1 7990   3.090   5.854   6.881
 1998HO4    HW2 7991   3.219   5.837   6.803
 1998HO4     MW 7992   3.182   5.828   6.891
 1999HO4     OW 7993   6.538   3.226   7.143
 1999HO4    HW1 7994   6.580   3.200   7.225
 1999HO4    HW2 7995   6.447   3.246   7.167
 1999HO4     MW 7996   6.538   3.226   7.143
 2000HO4     OW 7997   6.441   7.355   0.748
 2000HO4    HW1 7998   6.394   7.381   0.668
 2000HO4    HW2 7999   6.512   7.420   0.755
 2000HO4     MW 8000   6.441   7.355   0.748
 2001HO4     OW 8001   8.791   5.367   3.878
 2001HO4    HW1 8002   8.786   5.453   3.920
 2001HO4    HW2 8003   8.882   5.360   3.847
 2001HO4     MW 8004   8.791   5.367   3.878
 2002HO4     OW 8005   9.830   7.900   2.985
 2002HO4    HW1 8006   9.777   7.879   2.907
 2002HO4    HW2 8007   9.921   7.891   2.955
 2002HO4     MW 8008   9.830   7.900   2.985
 2003HO4     OW 8009   3.508   3.028   5.497
 2003HO4    HW1 8010   3.532   3.117   5.470
 2003HO4    HW2 8011   3.589   2.977   5.482
 2003HO4     MW 8012   3.508   3.028   5.497
 2004HO4     OW 8013   5.563   2.457   1.159
 2004HO4    HW1 8014   5.580   2.495   1.073
 2004HO4    HW2 8015   5.551   2.532   1.217
 2004HO4     MW 8016   5.563   2.457   1.159
 2005HO4     OW 8017   1.856   2.837   7.265
 2005HO4    HW1 8018   1.801   2.877   7.333
 2005HO4    HW2 8019   1.819   2.868   7.182
 2005HO4     MW 8020   1.856   2.837   7.265
 2006HO4     OW 8021   5.410   5.525   9.961
 2006HO4    HW1 8022   5.388   5.442   9.918
 2006HO4    HW2 8023   5.410   5.504  10.055
 2006HO4     MW 8024   5.410   5.525   9.961
 2007HO4     OW 8025   8.772   8.762   5.779
 2007HO4    HW1 8026   8.751   8.757   5.873
 2007HO4    HW2 8027   8.825   8.683   5.764
 2007HO4     MW 8028   8.772   8.762   5.779
 2008HO4     OW 8029   6.106   0.367   5.898
 2008HO4    HW1 8030   6.043   0.404   5.961
 2008HO4    HW2 8031   6.122   0.440   5.836
 2008HO4     MW 8032   6.106   0.367   5.898
 2009HO4     OW 8033   9.007   1.809   1.240
 2009HO4    HW1 8034   8.982   1.890   1.196
 2009HO4    HW2 8035   8.980   1.822   1.332
 2009HO4     MW 8036   9.007   1.809   1.240
 2010HO4     OW 8037   4.494   5.633   4.968
 2010HO4    HW1 8038   4.583   5.667   4.986
 2010HO4    HW2 8039   4.437   5.686   5.025
 2010HO4     MW 8040   4.494   5.633   4.968
 2011HO4     OW 8041   2.297   8.827   5.411
 2011HO4    HW1 8042   2.355   8.850   5.338
 2011HO4    HW2 8043   2.279   8.911   5.455
 2011HO4     MW 8044   2.297   8.827   5.411
 2012HO4     OW 8045   2.891   9.502   4.546
 2012HO4    HW1 8046   2.838   9.522   4.469
 2012HO4    HW2 8047   2.828   9.500   4.619
 2012HO4     MW 8048   2.891   9.502   4.546
 2013HO4     OW 8049   7.356   0.727   2.324
 2013HO4    HW1 8050   7.307   0.794   2.373
 2013HO4    HW2 8051   7.427   0.776   2.281
 2013HO4     MW 8052   7.356   0.727   2.324
 2014HO4     OW 8053   9.283   6.589   5.972
 2014HO4    HW1 8054   9.308   6.591   6.065
 2014HO4    HW2 8055   9.362   6.556   5.927
 2014HO4     MW 8056   9.283   6.589   5.972
 2015HO4     OW 8057   5.212   2.038   6.626
 2015HO4    HW1 8058   5.293   2.014   6.672
 2015HO4    HW2 8059   5.241   2.074   6.542
 2015HO4     MW 8060   5.212   2.038   6.626
 2016HO4     OW 8061   4.137   2.442   9.424
 2016HO4    HW1 8062   4.103   2.439   9.334
 2016HO4    HW2 8063   4.191   2.363   9.431
 2016HO4     MW 8064   4.137   2.442   9.424
 2017HO4     OW 8065   0.767   8.715   9.084
 2017HO4    HW1 8066   0.782   8.723   8.989
 2017HO4    HW2 8067   0.680   8.752   9.098
 2017HO4     MW 8068   0.767   8.715   9.084
 2018HO4     OW 8069   3.030   4.656   1.569
 2018HO4    HW1 8070   3.082   4.658   1.650
 2018HO4    HW2 8071   3.095   4.649   1.499
 2018HO4     MW 8072   3.030   4.656   1.569
 2019HO4     OW 8073   4.786   5.272   4.938
 2019HO4    HW1 8074   4.712   5.299   4.993
 2019HO4    HW2 8075   4.862   5.318   4.976
 2019HO4     MW 8076   4.786   5.272   4.938
 2020HO4     OW 8077   5.831   0.692  10.133
 2020HO4    HW1 8078   5.846   0.671  10.226
 2020HO4    HW2 8079   5.775   0.621  10.101
 2020HO4     MW 8080   5.831   0.692  10.133
 2021HO4     OW 8081   6.139   2.855   1.781
 2021HO4    HW1 8082   6.178   2.942   1.778
 2021HO4    HW2 8083   6.101   2.848   1.869
 2021HO4     MW 8084   6.139   2.855   1.781
 2022HO4     OW 8085   7.381   5.253   6.591
 2022HO4    HW1 8086   7.390   5.216   6.502
 2022HO4    HW2 8087   7.443   5.326   6.593
 2022HO4     MW 8088   7.381   5.253   6.591
 2023HO4     OW 8089   4.067   7.843   0.772
 2023HO4    HW1 8090   4.131   7.841   0.843
 2023HO4    HW2 8091   4.114   7.883   0.698
 2023HO4     MW 8092   4.067   7.843   0.772
 2024HO4     OW 8093   2.154   8.417   6.657
 2024HO4    HW1 8094   2.210   8.389   6.730
 2024HO4    HW2 8095   2.214   8.424   6.582
 2024HO4     MW 8096   2.154   8.417   6.657
 2025HO4     OW 8097   4.992   2.632   5.249
 2025HO4    HW1 8098   5.054   2.616   5.320
 2025HO4    HW2 8099   5.045   2.631   5.169
 2025HO4     MW 8100   4.992   2.632   5.249
 2026HO4     OW 8101   8.381   0.663   2.873
 2026HO4    HW1 8102   8.413   0.656   2.963
 2026HO4    HW2 8103   8.287   0.645   2.879
 2026HO4     MW 8104   8.381   0.663   2.873
 2027HO4     OW 8105   3.159   7.767   3.071
 2027HO4    HW1 8106   3.159   7.772   3.167
 2027HO4    HW2 8107   3.250   7.782   3.046
 2027HO4     MW 8108   3.159   7.767   3.071
 2028HO4     OW 8109   4.555   5.108   6.773
 2028HO4    HW1 8110   4.480   5.082   6.828
 2028HO4    HW2 8111   4.520   5.104   6.683
 2028HO4     MW 8112   4.555   5.108   6.773
 2029HO4     OW 8113   1.397   9.432   7.158
 2029HO4    HW1 8114   1.442   9.400   7.236
 2029HO4    HW2 8115   1.305   9.437   7.184
 2029HO4     MW 8116   1.397   9.432   7.158
 2030HO4     OW 8117   2.757   0.100   7.283
 2030HO4    HW1 8118   2.696   0.154   7.334
 2030HO4    HW2 8119   2.742   0.128   7.192
 2030HO4     MW 8120   2.757   0.100   7.283
 2031HO4     OW 8121   0.243   0.692   9.912
 2031HO4    HW1 8122   0.313   0.710   9.848
 2031HO4    HW2 8123   0.212   0.779   9.940
 2031HO4     MW 8124   0.243   0.692   9.912
 2032HO4     OW 8125   7.763   5.160   5.850
 2032HO4    HW1 8126   7.775   5.174   5.756
 2032HO4    HW2 8127   7.682   5.108   5.857
 2032HO4     MW 8128   7.763   5.160   5.850
 2033HO4     OW 8129   1.363   1.370   7.405
 2033HO4    HW1 8130   1.367   1.387   7.499
 2033HO4    HW2 8131   1.414   1.442   7.366
 2033HO4     MW 8132   1.363   1.370   7.405
 2034HO4     OW 8133   5.154   2.213   1.562
 2034HO4    HW1 8134   5.223   2.221   1.630
 2034HO4    HW2 8135   5.128   2.304   1.544
 2034HO4     MW 8136   5.154   2.213   1.562
 2035HO4     OW 8137   1.264   6.114   2.885
 2035HO4    HW1 8138   1.205   6.103   2.960
 2035HO4    HW2 8139   1.317   6.034   2.885
 2035HO4     MW 8140   1.264   6.114   2.885
 2036HO4     OW 8141   9.395   4.864   4.275
 2036HO4    HW1 8142   9.485   4.834   4.265
 2036HO4    HW2 8143   9.344   4.783   4.287
 2036HO4     MW 8144   9.395   4.864   4.275
 2037HO4     OW 8145   2.268   5.750   0.507
 2037HO4    HW1 8146   2.265   5.663   0.465
 2037HO4    HW2 8147   2.209   5.742   0.582
 2037HO4     MW 8148   2.268   5.750   0.507
 2038HO4     OW 8149   9.034   2.213   6.514
 2038HO4    HW1 8150   9.016   2.305   6.539
 2038HO4    HW2 8151   9.044   2.168   6.598
 2038HO4     MW 8152   9.034   2.213   6.514
 2039HO4     OW 8153   4.982   0.763   8.605
 2039HO4    HW1 8154   5.060   0.758   8.660
 2039HO4    HW2 8155   4.908   0.766   8.667
 2039HO4     MW 8156   4.982   0.763   8.605
 2040HO4     OW 8157   3.165   6.923   6.728
 2040HO4    HW1 8158   3.126   7.008   6.706
 2040HO4    HW2 8159   3.178   6.927   6.824
 2040HO4     MW 8160   3.165   6.923   6.728
 2041HO4     OW 8161   2.726   5.938   9.522
 2041HO4    HW1 8162   2.812   5.974   9.547
 2041HO4    HW2 8163   2.730   5.932   9.426
 2041HO4     MW 8164   2.726   5.938   9.522
 2042HO4     OW 8165   1.808   5.740   7.337
 2042HO4    HW1 8166   1.772   5.822   7.372
 2042HO4    HW2 8167   1.879   5.768   7.278
 2042HO4     MW 8168   1.808   5.740   7.337
 2043HO4     OW 8169   3.694   3.621   8.576
 2043HO4    HW1 8170   3.604   3.620   8.608
 2043HO4    HW2 8171   3.707   3.534   8.538
 2043HO4     MW 8172   3.694   3.621   8.576
 2044HO4     OW 8173   2.004   9.435   3.748
 2044HO4    HW1 8174   1.952   9.463   3.672
 2044HO4    HW2 8175   1.951   9.463   3.824
 2044HO4     MW 8176   2.004   9.435   3.748
 2045HO4     OW 8177   7.086   9.794   1.651
 2045HO4    HW1 8178   7.039   9.874   1.677
 2045HO4    HW2 8179   7.024   9.748   1.592
 2045HO4     MW 8180   7.086   9.794   1.651
 2046HO4     OW 8181   2.646   9.356   5.269
 2046HO4    HW1 8182   2.649   9.304   5.188
 2046HO4    HW2 8183   2.640   9.290   5.339
 2046HO4     MW 8184   2.646   9.356   5.269
 2047HO4     OW 8185   6.304   6.590   4.298
 2047HO4    HW1 8186   6.270   6.669   4.257
 2047HO4    HW2 8187   6.239   6.522   4.278
 2047HO4     MW 8188   6.304   6.590   4.298
 2048HO4     OW 8189   2.726   4.401   7.566
 2048HO4    HW1 8190   2.789   4.329   7.571
 2048HO4    HW2 8191   2.640   4.358   7.567
 2048HO4     MW 8192   2.726   4.401   7.566
 2049HO4     OW 8193   9.374   2.225   4.449
 2049HO4    HW1 8194   9.443   2.196   4.388
 2049HO4    HW2 8195   9.422   2.250   4.529
 2049HO4     MW 8196   9.374   2.225   4.449
 2050HO4     OW 8197   1.579   7.240   3.045
 2050HO4    HW1 8198   1.663   7.261   3.003
 2050HO4    HW2 8199   1.526   7.319   3.031
 2050HO4     MW 8200   1.579   7.240   3.045
 2051HO4     OW 8201   3.009   6.226   3.226
 2051HO4    HW1 8202   2.992   6.312   3.186
 2051HO4    HW2 8203   3.103   6.227   3.247
 2051HO4     MW 8204   3.009   6.226   3.226
 2052HO4     OW 8205   8.223   8.047   1.392
 2052HO4    HW1 8206   8.180   8.087   1.316
 2052HO4    HW2 8207   8.181   8.087   1.468
 2052HO4     MW 8208   8.223   8.047   1.392
 2053HO4     OW 8209   5.757   9.626   6.112
 2053HO4    HW1 8210   5.761   9.547   6.057
 2053HO4    HW2 8211   5.666   9.656   6.105
 2053HO4     MW 8212   5.757   9.626   6.112
 2054HO4     OW 8213   8.679   7.214   8.975
 2054HO4    HW1 8214   8.681   7.157   8.898
 2054HO4    HW2 8215   8.664   7.154   9.049
 2054HO4     MW 8216   8.679   7.214   8.975
 2055HO4     OW 8217   7.344   2.210   8.216
 2055HO4    HW1 8218   7.271   2.149   8.203
 2055HO4    HW2 8219   7.418   2.154   8.240
 2055HO4     MW 8220   7.344   2.210   8.216
 2056HO4     OW 8221   8.635   1.732   2.677
 2056HO4    HW1 8222   8.696   1.781   2.734
 2056HO4    HW2 8223   8.562   1.794   2.662
 2056HO4     MW 8224   8.635   1.732   2.677
 2057HO4     OW 8225   2.655   6.592   2.235
 2057HO4    HW1 8226   2.703   6.532   2.176
 2057HO4    HW2 8227   2.721   6.658   2.260
 2057HO4     MW 8228   2.655   6.592   2.235
 2058HO4     OW 8229   8.083   6.743   8.416
 2058HO4    HW1 8230   8.039   6.701   8.342
 2058HO4    HW2 8231   8.055   6.835   8.413
 2058HO4     MW 8232   8.083   6.743   8.416
 2059HO4     OW 8233   8.747   9.917   7.977
 2059HO4    HW1 8234   8.832   9.919   7.932
 2059HO4    HW2 8235   8.687   9.875   7.915
 2059HO4     MW 8236   8.747   9.917   7.977
 2060HO4     OW 8237  10.170   6.997   2.890
 2060HO4    HW1 8238  10.168   6.963   2.800
 2060HO4    HW2 8239  10.082   6.980   2.924
 2060HO4     MW 8240  10.170   6.997   2.890
 2061HO4     OW 8241   1.843   9.677   0.907
 2061HO4    HW1 8242   1.759   9.635   0.931
 2061HO4    HW2 8243   1.860   9.739   0.978
 2061HO4     MW 8244   1.843   9.677   0.907
 2062HO4     OW 8245   1.069   7.728   2.645
 2062HO4    HW1 8246   1.018   7.680   2.711
 2062HO4    HW2 8247   1.048   7.684   2.562
 2062HO4     MW 8248   1.069   7.728   2.645
 2063HO4     OW 8249   6.820  10.024   8.935
 2063HO4    HW1 8250   6.781  10.109   8.960
 2063HO4    HW2 8251   6.823  10.026   8.839
 2063HO4     MW 8252   6.820  10.024   8.935
 2064HO4     OW 8253   9.090   9.463   2.303
 2064HO4    HW1 8254   9.035   9.537   2.329
 2064HO4    HW2 8255   9.077   9.457   2.208
 2064HO4     MW 8256   9.090   9.463   2.303
 2065HO4     OW 8257   8.594   9.599   5.836
 2065HO4    HW1 8258   8.619   9.543   5.910
 2065HO4    HW2 8259   8.624   9.550   5.758
 2065HO4     MW 8260   8.594   9.599   5.836
 2066HO4     OW 8261   3.268   7.201   6.918
 2066HO4    HW1 8262   3.245   7.218   7.010
 2066HO4    HW2 8263   3.218   7.266   6.868
 2066HO4     MW 8264   3.268   7.201   6.918
 2067HO4     OW 8265   4.747   7.825   5.971
 2067HO4    HW1 8266   4.814   7.815   6.039
 2067HO4    HW2 8267   4.703   7.908   5.993
 2067HO4     MW 8268   4.747   7.825   5.971
 2068HO4     OW 8269   2.500   1.893   9.718
 2068HO4    HW1 8270   2.553   1.965   9.683
 2068HO4    HW2 8271   2.535   1.878   9.806
 2068HO4     MW 8272   2.500   1.893   9.718
 2069HO4     OW 8273   2.822   7.560   3.992
 2069HO4    HW1 8274   2.879   7.570   4.068
 2069HO4    HW2 8275   2.877   7.587   3.917
 2069HO4     MW 8276   2.822   7.560   3.992
 2070HO4     OW 8277   3.719   2.119   0.454
 2070HO4    HW1 8278   3.750   2.027   0.459
 2070HO4    HW2 8279   3.697   2.141   0.545
 2070HO4     MW 8280   3.719   2.119   0.454
 2071HO4     OW 8281   5.810   1.236   7.002
 2071HO4    HW1 8282   5.812   1.187   6.919
 2071HO4    HW2 8283   5.764   1.177   7.063
 2071HO4     MW 8284   5.810   1.236   7.002
 2072HO4     OW 8285   2.369   4.201   8.540
 2072HO4    HW1 8286   2.396   4.116   8.502
 2072HO4    HW2 8287   2.442   4.225   8.599
 2072HO4     MW 8288   2.369   4.201   8.540
 2073HO4     OW 8289   4.784   7.001   3.014
 2073HO4    HW1 8290   4.698   7.018   2.975
 2073HO4    HW2 8291   4.806   7.082   3.060
 2073HO4     MW 8292   4.784   7.001   3.014
 2074HO4     OW 8293   1.885   5.278   6.388
 2074HO4    HW1 8294   1.792   5.292   6.410
 2074HO4    HW2 8295   1.919   5.224   6.460
 2074HO4     MW 8296   1.885   5.278   6.388
 2075HO4     OW 8297   3.994   8.692   9.384
 2075HO4    HW1 8298   3.920   8.737   9.343
 2075HO4    HW2 8299   3.957   8.651   9.462
 2075HO4     MW 8300   3.994   8.692   9.384
 2076HO4     OW 8301   5.446   3.597   2.973
 2076HO4    HW1 8302   5.491   3.668   3.021
 2076HO4    HW2 8303   5.405   3.642   2.898
 2076HO4     MW 8304   5.446   3.597   2.973
 2077HO4     OW 8305   1.095   4.227   8.715
 2077HO4    HW1 8306   1.141   4.201   8.635
 2077HO4    HW2 8307   1.157   4.286   8.760
 2077HO4     MW 8308   1.095   4.227   8.715
 2078HO4     OW 8309  10.088   2.168   2.073
 2078HO4    HW1 8310  10.063   2.181   1.981
 2078HO4    HW2 8311  10.014   2.121   2.112
 2078HO4     MW 8312  10.088   2.168   2.073
 2079HO4     OW 8313   0.948   5.995   4.695
 2079HO4    HW1 8314   0.997   6.040   4.764
 2079HO4    HW2 8315   1.009   5.990   4.621
 2079HO4     MW 8316   0.948   5.995   4.695
 2080HO4     OW 8317   6.279   2.177   5.532
 2080HO4    HW1 8318   6.300   2.237   5.605
 2080HO4    HW2 8319   6.355   2.184   5.473
 2080HO4     MW 8320   6.279   2.177   5.532
 2081HO4     OW 8321   9.858   3.019   9.319
 2081HO4    HW1 8322   9.922   3.062   9.376
 2081HO4    HW2 8323   9.876   3.055   9.232
 2081HO4     MW 8324   9.858   3.019   9.319
 2082HO4     OW 8325   8.009   8.605   8.543
 2082HO4    HW1 8326   8.067   8.604   8.619
 2082HO4    HW2 8327   7.928   8.562   8.574
 2082HO4     MW 8328   8.009   8.605   8.543
 2083HO4     OW 8329   4.239   5.890   0.289
 2083HO4    HW1 8330   4.288   5.868   0.369
 2083HO4    HW2 8331   4.277   5.974   0.260
 2083HO4     MW 8332   4.239   5.890   0.289
 2084HO4     OW 8333   9.533   6.980   5.050
 2084HO4    HW1 8334   9.532   7.043   4.977
 2084HO4    HW2 8335   9.526   7.035   5.128
 2084HO4     MW 8336   9.533   6.980   5.050
 2085HO4     OW 8337   3.693   3.833   7.737
 2085HO4    HW1 8338   3.688   3.784   7.819
 2085HO4    HW2 8339   3.780   3.809   7.700
 2085HO4     MW 8340   3.693   3.833   7.737
 2086HO4     OW 8341  10.023   6.591   0.764
 2086HO4    HW1 8342  10.084   6.538   0.816
 2086HO4    HW2 8343  10.050   6.577   0.673
 2086HO4     MW 8344  10.023   6.591   0.764
 2087HO4     OW 8345   9.153   2.790  10.033
 2087HO4    HW1 8346   9.183   2.843  10.108
 2087HO4    HW2 8347   9.218   2.806   9.965
 2087HO4     MW 8348   9.153   2.790  10.033
 2088HO4     OW 8349   1.953   2.387   2.944
 2088HO4    HW1 8350   2.018   2.381   2.873
 2088HO4    HW2 8351   2.001   2.430   3.016
 2088HO4     MW 8352   1.953   2.387   2.944
 2089HO4     OW 8353   9.304   0.014   3.346
 2089HO4    HW1 8354   9.317   0.102   3.384
 2089HO4    HW2 8355   9.271   0.031   3.257
 2089HO4     MW 8356   9.304   0.014   3.346
 2090HO4     OW 8357   5.814   3.576   6.915
 2090HO4    HW1 8358   5.768   3.600   6.997
 2090HO4    HW2 8359   5.756   3.606   6.845
 2090HO4     MW 8360   5.814   3.576   6.915
 2091HO4     OW 8361   3.087   6.010   4.894
 2091HO4    HW1 8362   3.069   6.067   4.969
 2091HO4    HW2 8363   3.064   6.064   4.817
 2091HO4     MW 8364   3.087   6.010   4.894
 2092HO4     OW 8365   0.600   2.948   4.273
 2092HO4    HW1 8366   0.606   2.873   4.333
 2092HO4    HW2 8367   0.628   2.913   4.188
 2092HO4     MW 8368   0.600   2.948   4.273
 2093HO4     OW 8369   6.919   2.957   8.528
 2093HO4    HW1 8370   6.895   2.946   8.435
 2093HO4    HW2 8371   6.837   2.983   8.571
 2093HO4     MW 8372   6.919   2.957   8.528
 2094HO4     OW 8373   8.451   4.249   2.325
 2094HO4    HW1 8374   8.383   4.211   2.268
 2094HO4    HW2 8375   8.423   4.225   2.414
 2094HO4     MW 8376   8.451   4.249   2.325
 2095HO4     OW 8377   1.450   4.336   8.168
 2095HO4    HW1 8378   1.544   4.321   8.155
 2095HO4    HW2 8379   1.430   4.412   8.114
 2095HO4     MW 8380   1.450   4.336   8.168
 2096HO4     OW 8381   9.866   4.515   1.488
 2096HO4    HW1 8382   9.885   4.540   1.397
 2096HO4    HW2 8383   9.934   4.451   1.510
 2096HO4     MW 8384   9.866   4.515   1.488
 2097HO4     OW 8385   0.872   5.121   6.948
 2097HO4    HW1 8386   0.866   5.185   7.019
 2097HO4    HW2 8387   0.866   5.174   6.868
 2097HO4     MW 8388   0.872   5.121   6.948
 2098HO4     OW 8389   9.983  10.004   8.184
 2098HO4    HW1 8390   9.893  10.004   8.151
 2098HO4    HW2 8391   9.973  10.007   8.279
 2098HO4     MW 8392   9.983  10.004   8.184
 2099HO4     OW 8393   1.890   0.854   6.408
 2099HO4    HW1 8394   1.854   0.800   6.337
 2099HO4    HW2 8395   1.983   0.832   6.411
 2099HO4     MW 8396   1.890   0.854   6.408
 2100HO4     OW 8397  10.027   0.119   6.543
 2100HO4    HW1 8398   9.941   0.161   6.549
 2100HO4    HW2 8399  10.035   0.069   6.625
 2100HO4     MW 8400  10.027   0.119   6.543
 2101HO4     OW 8401   8.264   1.599   9.618
 2101HO4    HW1 8402   8.357   1.573   9.624
 2101HO4    HW2 8403   8.245   1.595   9.523
 2101HO4     MW 8404   8.264   1.599   9.618
 2102HO4     OW 8405   0.737   9.469   2.602
 2102HO4    HW1 8406   0.692   9.439   2.681
 2102HO4    HW2 8407   0.668   9.505   2.547
 2102HO4     MW 8408   0.737   9.469   2.602
 2103HO4     OW 8409   2.741   2.946   1.356
 2103HO4    HW1 8410   2.721   3.000   1.433
 2103HO4    HW2 8411   2.668   2.963   1.296
 2103HO4     MW 8412   2.741   2.946   1.356
 2104HO4     OW 8413   3.099   4.166   6.419
 2104HO4    HW1 8414   3.031   4.154   6.352
 2104HO4    HW2 8415   3.058   4.136   6.501
 2104HO4     MW 8416   3.099   4.166   6.419
 2105HO4     OW 8417   9.026   3.211   0.080
 2105HO4    HW1 8418   9.069   3.125   0.086
 2105HO4    HW2 8419   9.096   3.272   0.057
 2105HO4     MW 8420   9.026   3.211   0.080
 2106HO4     OW 8421   9.423   7.513   5.330
 2106HO4    HW1 8422   9.454   7.526   5.240
 2106HO4    HW2 8423   9.481   7.444   5.365
 2106HO4     MW 8424   9.423   7.513   5.330
 2107HO4     OW 8425   2.843   0.918   2.730
 2107HO4    HW1 8426   2.924   0.906   2.779
 2107HO4    HW2 8427   2.798   0.990   2.775
 2107HO4     MW 8428   2.843   0.918   2.730
 2108HO4     OW 8429   8.211   8.529   4.182
 2108HO4    HW1 8430   8.254   8.568   4.106
 2108HO4    HW2 8431   8.276   8.533   4.252
 2108HO4     MW 8432   8.211   8.529   4.182
 2109HO4     OW 8433   2.956   2.653   5.706
 2109HO4    HW1 8434   3.006   2.730   5.732
 2109HO4    HW2 8435   2.888   2.645   5.773
 2109HO4     MW 8436   2.956   2.653   5.706
 2110HO4     OW 8437   1.443   0.754   9.363
 2110HO4    HW1 8438   1.413   0.742   9.272
 2110HO4    HW2 8439   1.384   0.700   9.415
 2110HO4     MW 8440   1.443   0.754   9.363
 2111HO4     OW 8441   5.954   8.565   0.965
 2111HO4    HW1 8442   5.892   8.622   0.917
 2111HO4    HW2 8443   6.005   8.626   1.019
 2111HO4     MW 8444   5.954   8.565   0.965
 2112HO4     OW 8445   0.783   9.403   0.680
 2112HO4    HW1 8446   0.756   9.327   0.734
 2112HO4    HW2 8447   0.718   9.471   0.702
 2112HO4     MW 8448   0.783   9.403   0.680
 2113HO4     OW 8449   2.289   7.867   4.083
 2113HO4    HW1 8450   2.272   7.796   4.020
 2113HO4    HW2 8451   2.343   7.825   4.151
 2113HO4     MW 8452   2.289   7.867   4.083
 2114HO4     OW 8453   4.219   8.137   4.574
 2114HO4    HW1 8454   4.174   8.059   4.541
 2114HO4    HW2 8455   4.178   8.210   4.527
 2114HO4     MW 8456   4.219   8.137   4.574
 2115HO4     OW 8457   9.451   6.450   3.305
 2115HO4    HW1 8458   9.470   6.516   3.373
 2115HO4    HW2 8459   9.518   6.382   3.319
 2115HO4     MW 8460   9.451   6.450   3.305
 2116HO4     OW 8461   3.811   2.014   9.477
 2116HO4    HW1 8462   3.798   2.012   9.381
 2116HO4    HW2 8463   3.857   2.096   9.493
 2116HO4     MW 8464   3.811   2.014   9.477
 2117HO4     OW 8465   3.560   8.640   6.250
 2117HO4    HW1 8466   3.497   8.667   6.183
 2117HO4    HW2 8467   3.527   8.679   6.331
 2117HO4     MW 8468   3.560   8.640   6.250
 2118HO4     OW 8469   0.429   6.256   3.954
 2118HO4    HW1 8470   0.455   6.198   3.882
 2118HO4    HW2 8471   0.461   6.212   4.033
 2118HO4     MW 8472   0.429   6.256   3.954
 2119HO4     OW 8473   1.155   9.811   1.829
 2119HO4    HW1 8474   1.210   9.844   1.901
 2119HO4    HW2 8475   1.085   9.762   1.873
 2119HO4     MW 8476   1.155   9.811   1.829
 2120HO4     OW 8477   6.356   7.332   5.275
 2120HO4    HW1 8478   6.395   7.396   5.336
 2120HO4    HW2 8479   6.353   7.378   5.191
 2120HO4     MW 8480   6.356   7.332   5.275
 2121HO4     OW 8481   6.818   5.817   5.722
 2121HO4    HW1 8482   6.868   5.863   5.791
 2121HO4    HW2 8483   6.883   5.765   5.675
 2121HO4     MW 8484   6.818   5.817   5.722
 2122HO4     OW 8485  10.134   0.690   2.497
 2122HO4    HW1 8486  10.209   0.690   2.558
 2122HO4    HW2 8487  10.086   0.771   2.518
 2122HO4     MW 8488  10.134   0.690   2.497
 2123HO4     OW 8489   0.961   4.266   7.322
 2123HO4    HW1 8490   0.893   4.317   7.368
 2123HO4    HW2 8491   0.921   4.180   7.309
 2123HO4     MW 8492   0.961   4.266   7.322
 2124HO4     OW 8493   5.689   9.703   9.763
 2124HO4    HW1 8494   5.639   9.724   9.684
 2124HO4    HW2 8495   5.627   9.716   9.835
 2124HO4     MW 8496   5.689   9.703   9.763
 2125HO4     OW 8497   5.719   9.899  10.007
 2125HO4    HW1 8498   5.805   9.888  10.049
 2125HO4    HW2 8499   5.732   9.970   9.943
 2125HO4     MW 8500   5.719   9.899  10.007
 2126HO4     OW 8501   0.402   5.912   0.004
 2126HO4    HW1 8502   0.356   5.984  -0.040
 2126HO4    HW2 8503   0.480   5.954   0.042
 2126HO4     MW 8504   0.402   5.912   0.004
 2127HO4     OW 8505   3.515   9.145   6.569
 2127HO4    HW1 8506   3.592   9.114   6.520
 2127HO4    HW2 8507   3.499   9.234   6.536
 2127HO4     MW 8508   3.515   9.145   6.569
 2128HO4     OW 8509   5.942   2.059   7.828
 2128HO4    HW1 8510   5.939   2.152   7.850
 2128HO4    HW2 8511   6.021   2.026   7.873
 2128HO4     MW 8512   5.942   2.059   7.828
 2129HO4     OW 8513   8.980   0.720   8.235
 2129HO4    HW1 8514   8.939   0.699   8.151
 2129HO4    HW2 8515   8.999   0.634   8.274
 2129HO4     MW 8516   8.980   0.720   8.235
 2130HO4     OW 8517   7.721   3.122   9.707
 2130HO4    HW1 8518   7.641   3.156   9.750
 2130HO4    HW2 8519   7.774   3.200   9.690
 2130HO4     MW 8520   7.721   3.122   9.707
 2131HO4     OW 8521   7.939   3.544   9.759
 2131HO4    HW1 8522   7.919   3.450   9.766
 2131HO4    HW2 8523   7.907   3.581   9.841
 2131HO4     MW 8524   7.939   3.544   9.759
 2132HO4     OW 8525   0.741   3.573   4.032
 2132HO4    HW1 8526   0.704   3.520   3.961
 2132HO4    HW2 8527   0.730   3.519   4.111
 2132HO4     MW 8528   0.741   3.573   4.032
 2133HO4     OW 8529   4.325   6.359   3.239
 2133HO4    HW1 8530   4.374   6.370   3.156
 2133HO4    HW2 8531   4.242   6.406   3.223
 2133HO4     MW 8532   4.325   6.359   3.239
 2134HO4     OW 8533   3.643   2.200   2.587
 2134HO4    HW1 8534   3.596   2.153   2.518
 2134HO4    HW2 8535   3.608   2.164   2.669
 2134HO4     MW 8536   3.643   2.200   2.587
 2135HO4     OW 8537   5.430   1.701   7.881
 2135HO4    HW1 8538   5.458   1.653   7.803
 2135HO4    HW2 8539   5.334   1.703   7.875
 2135HO4     MW 8540   5.430   1.701   7.881
 2136HO4     OW 8541   5.188   1.588   9.623
 2136HO4    HW1 8542   5.273   1.623   9.595
 2136HO4    HW2 8543   5.124   1.627   9.562
 2136HO4     MW 8544   5.188   1.588   9.623
 2137HO4     OW 8545   5.783   6.980   6.095
 2137HO4    HW1 8546   5.704   6.926   6.103
 2137HO4    HW2 8547   5.837   6.955   6.170
 2137HO4     MW 8548   5.783   6.980   6.095
 2138HO4     OW 8549   8.872   7.818   2.510
 2138HO4    HW1 8550   8.858   7.817   2.605
 2138HO4    HW2 8551   8.829   7.899   2.480
 2138HO4     MW 8552   8.872   7.818   2.510
 2139HO4     OW 8553   0.895   5.291   1.943
 2139HO4    HW1 8554   0.928   5.326   2.027
 2139HO4    HW2 8555   0.932   5.349   1.876
 2139HO4     MW 8556   0.895   5.291   1.943
 2140HO4     OW 8557   6.197   2.258   7.750
 2140HO4    HW1 8558   6.278   2.309   7.763
 2140HO4    HW2 8559   6.128   2.313   7.790
 2140HO4     MW 8560   6.197   2.258   7.750
 2141HO4     OW 8561   9.130   3.564   0.596
 2141HO4    HW1 8562   9.174   3.514   0.526
 2141HO4    HW2 8563   9.194   3.564   0.668
 2141HO4     MW 8564   9.130   3.564   0.596
 2142HO4     OW 8565   8.983   9.263   5.120
 2142HO4    HW1 8566   8.931   9.339   5.150
 2142HO4    HW2 8567   9.034   9.237   5.197
 2142HO4     MW 8568   8.983   9.263   5.120
 2143HO4     OW 8569   4.799   7.846   6.343
 2143HO4    HW1 8570   4.823   7.810   6.258
 2143HO4    HW2 8571   4.786   7.940   6.326
 2143HO4     MW 8572   4.799   7.846   6.343
 2144HO4     OW 8573   4.670   3.730   7.337
 2144HO4    HW1 8574   4.746   3.722   7.396
 2144HO4    HW2 8575   4.603   3.674   7.378
 2144HO4     MW 8576   4.670   3.730   7.337
 2145HO4     OW 8577   0.436   1.152   0.663
 2145HO4    HW1 8578   0.385   1.156   0.581
 2145HO4    HW2 8579   0.527   1.135   0.634
 2145HO4     MW 8580   0.436   1.152   0.663
 2146HO4     OW 8581   5.284   8.202   1.098
 2146HO4    HW1 8582   5.344   8.183   1.026
 2146HO4    HW2 8583   5.295   8.128   1.159
 2146HO4     MW 8584   5.284   8.202   1.098
 2147HO4     OW 8585   0.317   3.006   8.340
 2147HO4    HW1 8586   0.278   3.008   8.428
 2147HO4    HW2 8587   0.249   3.043   8.283
 2147HO4     MW 8588   0.317   3.006   8.340
 2148HO4     OW 8589   4.447   9.659   4.376
 2148HO4    HW1 8590   4.471   9.586   4.318
 2148HO4    HW2 8591   4.358   9.637   4.406
 2148HO4     MW 8592   4.447   9.659   4.376
 2149HO4     OW 8593   6.378   4.634   9.710
 2149HO4    HW1 8594   6.329   4.618   9.629
 2149HO4    HW2 8595   6.311   4.666   9.772
 2149HO4     MW 8596   6.378   4.634   9.710
 2150HO4     OW 8597   6.559   0.130   5.298
 2150HO4    HW1 8598   6.584   0.075   5.223
 2150HO4    HW2 8599   6.639   0.179   5.319
 2150HO4     MW 8600   6.559   0.130   5.298
 2151HO4     OW 8601   7.902   8.367   0.416
 2151HO4    HW1 8602   7.929   8.299   0.478
 2151HO4    HW2 8603   7.974   8.371   0.352
 2151HO4     MW 8604   7.902   8.367   0.416
 2152HO4     OW 8605   5.597   7.414   1.401
 2152HO4    HW1 8606   5.595   7.344   1.335
 2152HO4    HW2 8607   5.558   7.374   1.479
 2152HO4     MW 8608   5.597   7.414   1.401
 2153HO4     OW 8609   9.559   0.783   0.424
 2153HO4    HW1 8610   9.495   0.854   0.435
 2153HO4    HW2 8611   9.528   0.734   0.347
 2153HO4     MW 8612   9.559   0.783   0.424
 2154HO4     OW 8613   0.544   7.172   9.552
 2154HO4    HW1 8614   0.601   7.095   9.556
 2154HO4    HW2 8615   0.459   7.138   9.525
 2154HO4     MW 8616   0.544   7.172   9.552
 2155HO4     OW 8617   4.168   5.719   1.132
 2155HO4    HW1 8618   4.173   5.630   1.168
 2155HO4    HW2 8619   4.260   5.746   1.122
 2155HO4     MW 8620   4.168   5.719   1.132
 2156HO4     OW 8621   2.010   4.841   4.927
 2156HO4    HW1 8622   2.081   4.869   4.986
 2156HO4    HW2 8623   2.051   4.774   4.870
 2156HO4     MW 8624   2.010   4.841   4.927
 2157HO4     OW 8625   3.252   0.547   5.258
 2157HO4    HW1 8626   3.307   0.575   5.332
 2157HO4    HW2 8627   3.226   0.629   5.215
 2157HO4     MW 8628   3.252   0.547   5.258
 2158HO4     OW 8629   9.477   1.681   1.136
 2158HO4    HW1 8630   9.404   1.623   1.159
 2158HO4    HW2 8631   9.506   1.718   1.220
 2158HO4     MW 8632   9.477   1.681   1.136
 2159HO4     OW 8633   9.825   0.853   3.361
 2159HO4    HW1 8634   9.747   0.797   3.361
 2159HO4    HW2 8635   9.835   0.880   3.269
 2159HO4     MW 8636   9.825   0.853   3.361
 2160HO4     OW 8637   8.260   8.131   7.653
 2160HO4    HW1 8638   8.166   8.149   7.662
 2160HO4    HW2 8639   8.275   8.129   7.558
 2160HO4     MW 8640   8.260   8.131   7.653
 2161HO4     OW 8641   1.188   1.270   1.300
 2161HO4    HW1 8642   1.262   1.219   1.266
 2161HO4    HW2 8643   1.203   1.273   1.395
 2161HO4     MW 8644   1.188   1.270   1.300
 2162HO4     OW 8645   2.718   6.525   2.912
 2162HO4    HW1 8646   2.752   6.590   2.974
 2162HO4    HW2 8647   2.707   6.573   2.830
 2162HO4     MW 8648   2.718   6.525   2.912
 2163HO4     OW 8649   4.717  10.144   8.725
 2163HO4    HW1 8650   4.773  10.183   8.793
 2163HO4    HW2 8651   4.745  10.052   8.722
 2163HO4     MW 8652   4.717  10.144   8.725
 2164HO4     OW 8653   2.804   8.332   8.982
 2164HO4    HW1 8654   2.793   8.425   8.960
 2164HO4    HW2 8655   2.799   8.286   8.898
 2164HO4     MW 8656   2.804   8.332   8.982
 2165HO4     OW 8657   3.083   6.653   4.730
 2165HO4    HW1 8658   3.091   6.721   4.663
 2165HO4    HW2 8659   3.093   6.571   4.681
 2165HO4     MW 8660   3.083   6.653   4.730
 2166HO4     OW 8661   8.781   2.158   3.142
 2166HO4    HW1 8662   8.827   2.205   3.071
 2166HO4    HW2 8663   8.851   2.114   3.191
 2166HO4     MW 8664   8.781   2.158   3.142
 2167HO4     OW 8665   1.559  10.161   7.969
 2167HO4    HW1 8666   1.596  10.090   7.916
 2167HO4    HW2 8667   1.564  10.128   8.060
 2167HO4     MW 8668   1.559  10.161   7.969
 2168HO4     OW 8669   4.168   4.729   2.836
 2168HO4    HW1 8670   4.207   4.817   2.838
 2168HO4    HW2 8671   4.206   4.684   2.912
 2168HO4     MW 8672   4.168   4.729   2.836
 2169HO4     OW 8673   2.302   5.773   4.011
 2169HO4    HW1 8674   2.232   5.791   3.949
 2169HO4    HW2 8675   2.261   5.782   4.098
 2169HO4     MW 8676   2.302   5.773   4.011
 2170HO4     OW 8677   8.106   2.693   7.106
 2170HO4    HW1 8678   8.178   2.662   7.051
 2170HO4    HW2 8679   8.150   2.738   7.179
 2170HO4     MW 8680   8.106   2.693   7.106
 2171HO4     OW 8681   1.399   9.058  -0.001
 2171HO4    HW1 8682   1.427   9.112   0.074
 2171HO4    HW2 8683   1.325   9.007   0.032
 2171HO4     MW 8684   1.399   9.058  -0.001
 2172HO4     OW 8685   6.099   2.005   2.171
 2172HO4    HW1 8686   6.190   2.029   2.190
 2172HO4    HW2 8687   6.104   1.915   2.138
 2172HO4     MW 8688   6.099   2.005   2.171
 2173HO4     OW 8689   1.848   8.233   3.295
 2173HO4    HW1 8690   1.781   8.279   3.243
 2173HO4    HW2 8691   1.896   8.180   3.230
 2173HO4     MW 8692   1.848   8.233   3.295
 2174HO4     OW 8693   6.685   2.660   7.089
 2174HO4    HW1 8694   6.765   2.613   7.115
 2174HO4    HW2 8695   6.674   2.639   6.996
 2174HO4     MW 8696   6.685   2.660   7.089
 2175HO4     OW 8697   8.949   3.394   2.201
 2175HO4    HW1 8698   8.880   3.328   2.191
 2175HO4    HW2 8699   8.902   3.478   2.195
 2175HO4     MW 8700   8.949   3.394   2.201
 2176HO4     OW 8701   1.913   0.156   5.142
 2176HO4    HW1 8702   1.863   0.175   5.061
 2176HO4    HW2 8703   1.900   0.062   5.157
 2176HO4     MW 8704   1.913   0.156   5.142
 2177HO4     OW 8705   2.024   7.099   1.556
 2177HO4    HW1 8706   1.978   7.091   1.640
 2177HO4    HW2 8707   1.994   7.024   1.505
 2177HO4     MW 8708   2.024   7.099   1.556
 2178HO4     OW 8709   9.884   0.324   8.519
 2178HO4    HW1 8710   9.831   0.388   8.470
 2178HO4    HW2 8711   9.906   0.257   8.454
 2178HO4     MW 8712   9.884   0.324   8.519
 2179HO4     OW 8713   8.390   5.246   1.895
 2179HO4    HW1 8714   8.379   5.299   1.816
 2179HO4    HW2 8715   8.383   5.309   1.967
 2179HO4     MW 8716   8.390   5.246   1.895
 2180HO4     OW 8717   1.592   8.724   2.200
 2180HO4    HW1 8718   1.568   8.795   2.140
 2180HO4    HW2 8719   1.571   8.758   2.288
 2180HO4     MW 8720   1.592   8.724   2.200
 2181HO4     OW 8721   9.134   3.951   2.232
 2181HO4    HW1 8722   9.102   3.952   2.142
 2181HO4    HW2 8723   9.072   4.006   2.281
 2181HO4     MW 8724   9.134   3.951   2.232
 2182HO4     OW 8725   5.474   6.366   3.763
 2182HO4    HW1 8726   5.414   6.342   3.834
 2182HO4    HW2 8727   5.510   6.282   3.733
 2182HO4     MW 8728   5.474   6.366   3.763
 2183HO4     OW 8729   6.138   5.536   1.714
 2183HO4    HW1 8730   6.160   5.457   1.764
 2183HO4    HW2 8731   6.137   5.507   1.622
 2183HO4     MW 8732   6.138   5.536   1.714
 2184HO4     OW 8733   6.482   7.621   8.426
 2184HO4    HW1 8734   6.494   7.683   8.499
 2184HO4    HW2 8735   6.477   7.677   8.348
 2184HO4     MW 8736   6.482   7.621   8.426
 2185HO4     OW 8737   1.854   2.710   5.889
 2185HO4    HW1 8738   1.913   2.691   5.816
 2185HO4    HW2 8739   1.904   2.684   5.967
 2185HO4     MW 8740   1.854   2.710   5.889
 2186HO4     OW 8741   1.872   8.379   9.771
 2186HO4    HW1 8742   1.966   8.371   9.755
 2186HO4    HW2 8743   1.852   8.471   9.754
 2186HO4     MW 8744   1.872   8.379   9.771
 2187HO4     OW 8745   3.799   7.037   4.302
 2187HO4    HW1 8746   3.771   7.074   4.386
 2187HO4    HW2 8747   3.728   6.978   4.276
 2187HO4     MW 8748   3.799   7.037   4.302
 2188HO4     OW 8749   6.085   8.955   1.311
 2188HO4    HW1 8750   6.124   8.899   1.378
 2188HO4    HW2 8751   6.006   8.990   1.352
 2188HO4     MW 8752   6.085   8.955   1.311
 2189HO4     OW 8753   5.153   9.181   0.359
 2189HO4    HW1 8754   5.148   9.224   0.274
 2189HO4    HW2 8755   5.144   9.253   0.423
 2189HO4     MW 8756   5.153   9.181   0.359
 2190HO4     OW 8757   2.435   9.817   4.566
 2190HO4    HW1 8758   2.512   9.874   4.564
 2190HO4    HW2 8759   2.388   9.844   4.646
 2190HO4     MW 8760   2.435   9.817   4.566
 2191HO4     OW 8761   7.869   0.179   4.712
 2191HO4    HW1 8762   7.845   0.240   4.642
 2191HO4    HW2 8763   7.965   0.176   4.708
 2191HO4     MW 8764   7.869   0.179   4.712
 2192HO4     OW 8765   4.662   7.319   2.127
 2192HO4    HW1 8766   4.573   7.281   2.127
 2192HO4    HW2 8767   4.648   7.413   2.120
 2192HO4     MW 8768   4.662   7.319   2.127
 2193HO4     OW 8769   3.530   6.184   6.471
 2193HO4    HW1 8770   3.560   6.262   6.519
 2193HO4    HW2 8771   3.456   6.151   6.522
 2193HO4     MW 8772   3.530   6.184   6.471
 2194HO4     OW 8773   2.111   4.060   2.412
 2194HO4    HW1 8774   2.183   4.007   2.378
 2194HO4    HW2 8775   2.040   3.997   2.427
 2194HO4     MW 8776   2.111   4.060   2.412
 2195HO4     OW 8777  10.003   1.584   8.357
 2195HO4    HW1 8778  10.096   1.601   8.376
 2195HO4    HW2 8779   9.972   1.534   8.433
 2195HO4     MW 8780  10.003   1.584   8.357
 2196HO4     OW 8781   3.704   4.997   2.176
 2196HO4    HW1 8782   3.702   4.935   2.250
 2196HO4    HW2 8783   3.691   4.942   2.099
 2196HO4     MW 8784   3.704   4.997   2.176
 2197HO4     OW 8785   2.878   7.089   1.607
 2197HO4    HW1 8786   2.871   7.138   1.525
 2197HO4    HW2 8787   2.916   7.004   1.580
 2197HO4     MW 8788   2.878   7.089   1.607
 2198HO4     OW 8789   9.223   0.848   3.015
 2198HO4    HW1 8790   9.207   0.814   3.104
 2198HO4    HW2 8791   9.315   0.828   2.998
 2198HO4     MW 8792   9.223   0.848   3.015
 2199HO4     OW 8793   5.831   8.481   7.778
 2199HO4    HW1 8794   5.851   8.406   7.722
 2199HO4    HW2 8795   5.899   8.479   7.846
 2199HO4     MW 8796   5.831   8.481   7.778
 2200HO4     OW 8797   0.527   9.765   6.690
 2200HO4    HW1 8798   0.438   9.802   6.700
 2200HO4    HW2 8799   0.585   9.834   6.724
 2200HO4     MW 8800   0.527   9.765   6.690
 2201HO4     OW 8801   9.726   0.872   7.179
 2201HO4    HW1 8802   9.690   0.784   7.164
 2201HO4    HW2 8803   9.696   0.896   7.267
 2201HO4     MW 8804   9.726   0.872   7.179
 2202HO4     OW 8805   0.169   8.263   4.454
 2202HO4    HW1 8806   0.251   8.243   4.408
 2202HO4    HW2 8807   0.195   8.326   4.522
 2202HO4     MW 8808   0.169   8.263   4.454
 2203HO4     OW 8809   7.850   6.471   6.775
 2203HO4    HW1 8810   7.867   6.515   6.691
 2203HO4    HW2 8811   7.923   6.408   6.783
 2203HO4     MW 8812   7.850   6.471   6.775
 2204HO4     OW 8813   6.047   2.718   4.002
 2204HO4    HW1 8814   6.097   2.683   3.927
 2204HO4    HW2 8815   5.970   2.660   4.007
 2204HO4     MW 8816   6.047   2.718   4.002
 2205HO4     OW 8817   1.459   7.146   4.860
 2205HO4    HW1 8818   1.380   7.200   4.851
 2205HO4    HW2 8819   1.462   7.095   4.778
 2205HO4     MW 8820   1.459   7.146   4.860
 2206HO4     OW 8821   4.378   9.410   7.665
 2206HO4    HW1 8822   4.426   9.371   7.738
 2206HO4    HW2 8823   4.349   9.335   7.612
 2206HO4     MW 8824   4.378   9.410   7.665
 2207HO4     OW 8825   3.780   7.864   8.461
 2207HO4    HW1 8826   3.787   7.807   8.383
 2207HO4    HW2 8827   3.829   7.818   8.529
 2207HO4     MW 8828   3.780   7.864   8.461
 2208HO4     OW 8829   5.554   5.304   4.837
 2208HO4    HW1 8830   5.604   5.378   4.874
 2208HO4    HW2 8831   5.589   5.294   4.748
 2208HO4     MW 8832   5.554   5.304   4.837
 2209HO4     OW 8833   2.218   0.380   0.190
 2209HO4    HW1 8834   2.200   0.459   0.242
 2209HO4    HW2 8835   2.189   0.403   0.101
 2209HO4     MW 8836   2.218   0.380   0.190
 2210HO4     OW 8837   3.548   0.822   8.607
 2210HO4    HW1 8838   3.562   0.907   8.564
 2210HO4    HW2 8839   3.567   0.757   8.538
 2210HO4     MW 8840   3.548   0.822   8.607
 2211HO4     OW 8841   8.809   8.271   9.942
 2211HO4    HW1 8842   8.767   8.190   9.910
 2211HO4    HW2 8843   8.866   8.242  10.013
 2211HO4     MW 8844   8.809   8.271   9.942
 2212HO4     OW 8845   9.651   8.140   4.962
 2212HO4    HW1 8846   9.607   8.219   4.996
 2212HO4    HW2 8847   9.582   8.095   4.912
 2212HO4     MW 8848   9.651   8.140   4.962
 2213HO4     OW 8849   3.219   8.968   5.197
 2213HO4    HW1 8850   3.247   9.031   5.130
 2213HO4    HW2 8851   3.263   8.998   5.277
 2213HO4     MW 8852   3.219   8.968   5.197
 2214HO4     OW 8853   8.921   8.199   9.002
 2214HO4    HW1 8854   8.933   8.283   8.957
 2214HO4    HW2 8855   8.883   8.141   8.936
 2214HO4     MW 8856   8.921   8.199   9.002
 2215HO4     OW 8857   8.064   0.612   5.619
 2215HO4    HW1 8858   8.107   0.564   5.548
 2215HO4    HW2 8859   8.126   0.682   5.642
 2215HO4     MW 8860   8.064   0.612   5.619
 2216HO4     OW 8861   9.035   4.091   5.009
 2216HO4    HW1 8862   8.974   4.021   5.032
 2216HO4    HW2 8863   8.979   4.163   4.980
 2216HO4     MW 8864   9.035   4.091   5.009
 2217HO4     OW 8865   5.419   4.286   9.310
 2217HO4    HW1 8866   5.489   4.300   9.375
 2217HO4    HW2 8867   5.460   4.308   9.226
 2217HO4     MW 8868   5.419   4.286   9.310
 2218HO4     OW 8869   7.953   5.980   1.702
 2218HO4    HW1 8870   7.982   6.043   1.769
 2218HO4    HW2 8871   8.021   5.913   1.702
 2218HO4     MW 8872   7.953   5.980   1.702
 2219HO4     OW 8873   9.057   6.143   9.275
 2219HO4    HW1 8874   9.034   6.212   9.338
 2219HO4    HW2 8875   8.978   6.090   9.268
 2219HO4     MW 8876   9.057   6.143   9.275
 2220HO4     OW 8877   5.884   8.836   2.183
 2220HO4    HW1 8878   5.948   8.872   2.120
 2220HO4    HW2 8879   5.920   8.861   2.269
 2220HO4     MW 8880   5.884   8.836   2.183
 2221HO4     OW 8881   0.046   0.789   3.531
 2221HO4    HW1 8882   0.028   0.698   3.506
 2221HO4    HW2 8883  -0.010   0.805   3.607
 2221HO4     MW 8884   0.046   0.789   3.531
 2222HO4     OW 8885   8.893   6.993   5.390
 2222HO4    HW1 8886   8.899   6.949   5.475
 2222HO4    HW2 8887   8.915   7.085   5.410
 2222HO4     MW 8888   8.893   6.993   5.390
 2223HO4     OW 8889   5.139   6.579   9.819
 2223HO4    HW1 8890   5.067   6.557   9.879
 2223HO4    HW2 8891   5.095   6.608   9.738
 2223HO4     MW 8892   5.139   6.579   9.819
 2224HO4     OW 8893   8.830   6.758   8.975
 2224HO4    HW1 8894   8.912   6.800   9.002
 2224HO4    HW2 8895   8.798   6.715   9.055
 2224HO4     MW 8896   8.830   6.758   8.975
 2225HO4     OW 8897   3.353   5.860   3.428
 2225HO4    HW1 8898   3.264   5.837   3.457
 2225HO4    HW2 8899   3.402   5.777   3.432
 2225HO4     MW 8900   3.353   5.860   3.428
 2226HO4     OW 8901   2.189   6.582   9.148
 2226HO4    HW1 8902   2.206   6.490   9.172
 2226HO4    HW2 8903   2.097   6.596   9.171
 2226HO4     MW 8904   2.189   6.582   9.148
 2227HO4     OW 8905   4.592   1.430   9.285
 2227HO4    HW1 8906   4.668   1.449   9.230
 2227HO4    HW2 8907   4.587   1.505   9.345
 2227HO4     MW 8908   4.592   1.430   9.285
 2228HO4     OW 8909   0.589   7.367   6.693
 2228HO4    HW1 8910   0.630   7.281   6.690
 2228HO4    HW2 8911   0.528   7.362   6.767
 2228HO4     MW 8912   0.589   7.367   6.693
 2229HO4     OW 8913   4.663   9.943   2.821
 2229HO4    HW1 8914   4.627   9.890   2.749
 2229HO4    HW2 8915   4.721  10.006   2.778
 2229HO4     MW 8916   4.663   9.943   2.821
 2230HO4     OW 8917   8.240   1.262   9.676
 2230HO4    HW1 8918   8.239   1.338   9.617
 2230HO4    HW2 8919   8.205   1.296   9.759
 2230HO4     MW 8920   8.240   1.262   9.676
 2231HO4     OW 8921   5.470   2.344   0.634
 2231HO4    HW1 8922   5.475   2.326   0.729
 2231HO4    HW2 8923   5.388   2.393   0.623
 2231HO4     MW 8924   5.470   2.344   0.634
 2232HO4     OW 8925   1.893   1.600   0.308
 2232HO4    HW1 8926   1.837   1.622   0.383
 2232HO4    HW2 8927   1.843   1.630   0.231
 2232HO4     MW 8928   1.893   1.600   0.308
 2233HO4     OW 8929   2.241   2.038   4.853
 2233HO4    HW1 8930   2.299   2.055   4.927
 2233HO4    HW2 8931   2.296   2.053   4.775
 2233HO4     MW 8932   2.241   2.038   4.853
 2234HO4     OW 8933   8.198   2.325   3.927
 2234HO4    HW1 8934   8.145   2.250   3.899
 2234HO4    HW2 8935   8.272   2.328   3.865
 2234HO4     MW 8936   8.198   2.325   3.927
 2235HO4     OW 8937   1.632   0.255   8.049
 2235HO4    HW1 8938   1.599   0.313   7.979
 2235HO4    HW2 8939   1.631   0.310   8.128
 2235HO4     MW 8940   1.632   0.255   8.049
 2236HO4     OW 8941   5.953   5.003   8.993
 2236HO4    HW1 8942   5.985   4.953   8.918
 2236HO4    HW2 8943   5.986   4.956   9.070
 2236HO4     MW 8944   5.953   5.003   8.993
 2237HO4     OW 8945   1.629   7.410   3.842
 2237HO4    HW1 8946   1.635   7.354   3.920
 2237HO4    HW2 8947   1.632   7.348   3.768
 2237HO4     MW 8948   1.629   7.410   3.842
 2238HO4     OW 8949   8.108   8.918   5.762
 2238HO4    HW1 8950   8.061   8.972   5.696
 2238HO4    HW2 8951   8.086   8.827   5.738
 2238HO4     MW 8952   8.108   8.918   5.762
 2239HO4     OW 8953   1.516   6.978   2.572
 2239HO4    HW1 8954   1.455   7.040   2.613
 2239HO4    HW2 8955   1.567   7.032   2.511
 2239HO4     MW 8956   1.516   6.978   2.572
 2240HO4     OW 8957   2.994   5.870   4.135
 2240HO4    HW1 8958   2.994   5.807   4.062
 2240HO4    HW2 8959   2.901   5.892   4.147
 2240HO4     MW 8960   2.994   5.870   4.135
 2241HO4     OW 8961   9.764   9.015   4.028
 2241HO4    HW1 8962   9.706   8.988   4.099
 2241HO4    HW2 8963   9.707   9.020   3.951
 2241HO4     MW 8964   9.764   9.015   4.028
 2242HO4     OW 8965   7.431   9.477   3.084
 2242HO4    HW1 8966   7.510   9.423   3.077
 2242HO4    HW2 8967   7.377   9.432   3.149
 2242HO4     MW 8968   7.431   9.477   3.084
 2243HO4     OW 8969   4.601   3.079   2.106
 2243HO4    HW1 8970   4.523   3.132   2.086
 2243HO4    HW2 8971   4.596   3.063   2.200
 2243HO4     MW 8972   4.601   3.079   2.106
 2244HO4     OW 8973   7.657   1.191   2.444
 2244HO4    HW1 8974   7.693   1.188   2.533
 2244HO4    HW2 8975   7.636   1.100   2.423
 2244HO4     MW 8976   7.657   1.191   2.444
 2245HO4     OW 8977  10.173   5.189   6.355
 2245HO4    HW1 8978  10.117   5.123   6.311
 2245HO4    HW2 8979  10.125   5.212   6.435
 2245HO4     MW 8980  10.173   5.189   6.355
 2246HO4     OW 8981   8.681   3.240  10.029
 2246HO4    HW1 8982   8.615   3.174  10.008
 2246HO4    HW2 8983   8.645   3.322   9.993
 2246HO4     MW 8984   8.681   3.240  10.029
 2247HO4     OW 8985   5.347   2.960   4.339
 2247HO4    HW1 8986   5.316   2.872   4.315
 2247HO4    HW2 8987   5.359   2.957   4.434
 2247HO4     MW 8988   5.347   2.960   4.339
 2248HO4     OW 8989   1.844   2.717   3.836
 2248HO4    HW1 8990   1.871   2.792   3.781
 2248HO4    HW2 8991   1.815   2.757   3.918
 2248HO4     MW 8992   1.844   2.717   3.836
 2249HO4     OW 8993   8.720   4.880   0.239
 2249HO4    HW1 8994   8.662   4.806   0.257
 2249HO4    HW2 8995   8.713   4.894   0.144
 2249HO4     MW 8996   8.720   4.880   0.239
 2250HO4     OW 8997   2.994   6.471   9.330
 2250HO4    HW1 8998   3.074   6.420   9.311
 2250HO4    HW2 8999   2.928   6.405   9.351
 2250HO4     MW 9000   2.994   6.471   9.330
 2251HO4     OW 9001   9.903   5.365   8.486
 2251HO4    HW1 9002   9.935   5.355   8.396
 2251HO4    HW2 9003   9.979   5.399   8.535
 2251HO4     MW 9004   9.903   5.365   8.486
 2252HO4     OW 9005   9.565   8.669   3.337
 2252HO4    HW1 9006   9.619   8.699   3.411
 2252HO4    HW2 9007   9.609   8.706   3.260
 2252HO4     MW 9008   9.565   8.669   3.337
 2253HO4     OW 9009   1.046   8.725   4.787
 2253HO4    HW1 9010   1.085   8.810   4.764
 2253HO4    HW2 9011   1.066   8.669   4.711
 2253HO4     MW 9012   1.046   8.725   4.787
 2254HO4     OW 9013   2.597   7.602   1.585
 2254HO4    HW1 9014   2.589   7.579   1.492
 2254HO4    HW2 9015   2.575   7.520   1.631
 2254HO4     MW 9016   2.597   7.602   1.585
 2255HO4     OW 9017   3.955   6.370   9.560
 2255HO4    HW1 9018   3.963   6.443   9.623
 2255HO4    HW2 9019   3.931   6.413   9.477
 2255HO4     MW 9020   3.955   6.370   9.560
 2256HO4     OW 9021   8.833   6.108   5.483
 2256HO4    HW1 9022   8.877   6.101   5.398
 2256HO4    HW2 9023   8.886   6.173   5.531
 2256HO4     MW 9024   8.833   6.108   5.483
 2257HO4     OW 9025   5.593   3.745   0.094
 2257HO4    HW1 9026   5.530   3.715   0.160
 2257HO4    HW2 9027   5.567   3.698   0.014
 2257HO4     MW 9028   5.593   3.745   0.094
 2258HO4     OW 9029   1.402   3.435   7.908
 2258HO4    HW1 9030   1.369   3.375   7.976
 2258HO4    HW2 9031   1.487   3.398   7.881
 2258HO4     MW 9032   1.402   3.435   7.908
 2259HO4     OW 9033   5.125   3.195   1.365
 2259HO4    HW1 9034   5.146   3.159   1.452
 2259HO4    HW2 9035   5.171   3.138   1.303
 2259HO4     MW 9036   5.125   3.195   1.365
 2260HO4     OW 9037   1.253   0.839   8.279
 2260HO4    HW1 9038   1.157   0.842   8.267
 2260HO4    HW2 9039   1.266   0.781   8.354
 2260HO4     MW 9040   1.253   0.839   8.279
 2261HO4     OW 9041   2.931   5.033   5.619
 2261HO4    HW1 9042   2.985   5.064   5.692
 2261HO4    HW2 9043   2.981   5.057   5.540
 2261HO4     MW 9044   2.931   5.033   5.619
 2262HO4     OW 9045   5.537   0.573   3.762
 2262HO4    HW1 9046   5.576   0.596   3.677
 2262HO4    HW2 9047   5.606   0.592   3.826
 2262HO4     MW 9048   5.537   0.573   3.762
 2263HO4     OW 9049   9.037   5.218   4.005
 2263HO4    HW1 9050   9.108   5.204   3.941
 2263HO4    HW2 9051   9.081   5.257   4.081
 2263HO4     MW 9052   9.037   5.218   4.005
 2264HO4     OW 9053   9.777   0.857   8.397
 2264HO4    HW1 9054   9.736   0.887   8.479
 2264HO4    HW2 9055   9.725   0.898   8.327
 2264HO4     MW 9056   9.777   0.857   8.397
 2265HO4     OW 9057   8.687   8.315   0.929
 2265HO4    HW1 9058   8.696   8.268   1.013
 2265HO4    HW2 9059   8.592   8.322   0.915
 2265HO4     MW 9060   8.687   8.315   0.929
 2266HO4     OW 9061   6.511   5.068   6.800
 2266HO4    HW1 9062   6.535   5.090   6.710
 2266HO4    HW2 9063   6.435   5.125   6.818
 2266HO4     MW 9064   6.511   5.068   6.800
 2267HO4     OW 9065   0.353   7.036   6.778
 2267HO4    HW1 9066   0.419   7.035   6.848
 2267HO4    HW2 9067   0.379   7.108   6.721
 2267HO4     MW 9068   0.353   7.036   6.778
 2268HO4     OW 9069   8.594  10.091   4.455
 2268HO4    HW1 9070   8.631  10.178   4.475
 2268HO4    HW2 9071   8.619  10.036   4.529
 2268HO4     MW 9072   8.594  10.091   4.455
 2269HO4     OW 9073   7.448   4.697   8.506
 2269HO4    HW1 9074   7.421   4.698   8.598
 2269HO4    HW2 9075   7.421   4.610   8.474
 2269HO4     MW 9076   7.448   4.697   8.506
 2270HO4     OW 9077   0.872  10.090   3.517
 2270HO4    HW1 9078   0.927  10.011   3.508
 2270HO4    HW2 9079   0.787  10.062   3.481
 2270HO4     MW 9080   0.872  10.090   3.517
 2271HO4     OW 9081   2.459   1.139   8.944
 2271HO4    HW1 9082   2.417   1.182   9.019
 2271HO4    HW2 9083   2.395   1.074   8.915
 2271HO4     MW 9084   2.459   1.139   8.944
 2272HO4     OW 9085   4.856   4.079   3.068
 2272HO4    HW1 9086   4.767   4.050   3.046
 2272HO4    HW2 9087   4.876   4.033   3.149
 2272HO4     MW 9088   4.856   4.079   3.068
 2273HO4     OW 9089   0.263   8.692   9.386
 2273HO4    HW1 9090   0.200   8.641   9.333
 2273HO4    HW2 9091   0.214   8.712   9.466
 2273HO4     MW 9092   0.263   8.692   9.386
 2274HO4     OW 9093   3.763   2.662   8.529
 2274HO4    HW1 9094   3.856   2.637   8.519
 2274HO4    HW2 9095   3.765   2.744   8.578
 2274HO4     MW 9096   3.763   2.662   8.529
 2275HO4     OW 9097   6.784   3.819   8.681
 2275HO4    HW1 9098   6.762   3.843   8.591
 2275HO4    HW2 9099   6.876   3.843   8.692
 2275HO4     MW 9100   6.784   3.819   8.681
 2276HO4     OW 9101   4.784   1.636   0.687
 2276HO4    HW1 9102   4.770   1.729   0.708
 2276HO4    HW2 9103   4.861   1.635   0.630
 2276HO4     MW 9104   4.784   1.636   0.687
 2277HO4     OW 9105   1.399   9.610   6.714
 2277HO4    HW1 9106   1.360   9.662   6.643
 2277HO4    HW2 9107   1.337   9.538   6.728
 2277HO4     MW 9108   1.399   9.610   6.714
 2278HO4     OW 9109   6.415   2.328   2.187
 2278HO4    HW1 9110   6.462   2.286   2.115
 2278HO4    HW2 9111   6.428   2.271   2.263
 2278HO4     MW 9112   6.415   2.328   2.187
 2279HO4     OW 9113   1.150   6.553   0.961
 2279HO4    HW1 9114   1.191   6.627   0.916
 2279HO4    HW2 9115   1.194   6.550   1.047
 2279HO4     MW 9116   1.150   6.553   0.961
 2280HO4     OW 9117   6.686   2.428   5.300
 2280HO4    HW1 9118   6.632   2.473   5.365
 2280HO4    HW2 9119   6.717   2.349   5.345
 2280HO4     MW 9120   6.686   2.428   5.300
 2281HO4     OW 9121   5.122   7.627   1.090
 2281HO4    HW1 9122   5.065   7.690   1.136
 2281HO4    HW2 9123   5.065   7.586   1.025
 2281HO4     MW 9124   5.122   7.627   1.090
 2282HO4     OW 9125   4.680   0.892   6.400
 2282HO4    HW1 9126   4.667   0.813   6.454
 2282HO4    HW2 9127   4.637   0.871   6.317
 2282HO4     MW 9128   4.680   0.892   6.400
 2283HO4     OW 9129   7.736   6.218   8.349
 2283HO4    HW1 9130   7.737   6.279   8.424
 2283HO4    HW2 9131   7.729   6.276   8.272
 2283HO4     MW 9132   7.736   6.218   8.349
 2284HO4     OW 9133   9.505   7.391   0.858
 2284HO4    HW1 9134   9.494   7.338   0.938
 2284HO4    HW2 9135   9.562   7.339   0.802
 2284HO4     MW 9136   9.505   7.391   0.858
 2285HO4     OW 9137   1.605   2.939   5.151
 2285HO4    HW1 9138   1.652   3.013   5.112
 2285HO4    HW2 9139   1.626   2.944   5.244
 2285HO4     MW 9140   1.605   2.939   5.151
 2286HO4     OW 9141   7.040   4.896   2.382
 2286HO4    HW1 9142   7.088   4.936   2.455
 2286HO4    HW2 9143   7.058   4.953   2.307
 2286HO4     MW 9144   7.040   4.896   2.382
 2287HO4     OW 9145   6.257   1.966   1.252
 2287HO4    HW1 9146   6.170   1.938   1.223
 2287HO4    HW2 9147   6.291   2.019   1.179
 2287HO4     MW 9148   6.257   1.966   1.252
 2288HO4     OW 9149   1.993   0.213   6.610
 2288HO4    HW1 9150   2.011   0.156   6.535
 2288HO4    HW2 9151   2.058   0.283   6.603
 2288HO4     MW 9152   1.993   0.213   6.610
 2289HO4     OW 9153   6.558   1.150   0.842
 2289HO4    HW1 9154   6.563   1.223   0.905
 2289HO4    HW2 9155   6.466   1.122   0.845
 2289HO4     MW 9156   6.558   1.150   0.842
 2290HO4     OW 9157   6.822   8.268   3.474
 2290HO4    HW1 9158   6.871   8.338   3.431
 2290HO4    HW2 9159   6.822   8.292   3.567
 2290HO4     MW 9160   6.822   8.268   3.474
 2291HO4     OW 9161   0.150   6.270   8.692
 2291HO4    HW1 9162   0.152   6.364   8.672
 2291HO4    HW2 9163   0.105   6.265   8.777
 2291HO4     MW 9164   0.150   6.270   8.692
 2292HO4     OW 9165   8.790   4.832   7.962
 2292HO4    HW1 9166   8.810   4.777   7.885
 2292HO4    HW2 9167   8.838   4.791   8.034
 2292HO4     MW 9168   8.790   4.832   7.962
 2293HO4     OW 9169   9.134   9.838   2.051
 2293HO4    HW1 9170   9.134   9.782   1.973
 2293HO4    HW2 9171   9.058   9.895   2.040
 2293HO4     MW 9172   9.134   9.838   2.051
 2294HO4     OW 9173   9.707   8.150   1.472
 2294HO4    HW1 9174   9.794   8.191   1.468
 2294HO4    HW2 9175   9.712   8.092   1.548
 2294HO4     MW 9176   9.707   8.150   1.472
 2295HO4     OW 9177   8.445   3.545   2.213
 2295HO4    HW1 9178   8.409   3.633   2.197
 2295HO4    HW2 9179   8.498   3.555   2.293
 2295HO4     MW 9180   8.445   3.545   2.213
 2296HO4     OW 9181   1.931   2.091   5.181
 2296HO4    HW1 9182   1.978   2.113   5.262
 2296HO4    HW2 9183   1.995   2.108   5.111
 2296HO4     MW 9184   1.931   2.091   5.181
 2297HO4     OW 9185   5.063   8.181   5.302
 2297HO4    HW1 9186   5.012   8.248   5.254
 2297HO4    HW2 9187   5.133   8.231   5.345
 2297HO4     MW 9188   5.063   8.181   5.302
 2298HO4     OW 9189   2.673   4.229   4.598
 2298HO4    HW1 9190   2.631   4.204   4.681
 2298HO4    HW2 9191   2.613   4.195   4.531
 2298HO4     MW 9192   2.673   4.229   4.598
 2299HO4     OW 9193   8.387   2.993   9.085
 2299HO4    HW1 9194   8.428   3.068   9.040
 2299HO4    HW2 9195   8.309   2.973   9.032
 2299HO4     MW 9196   8.387   2.993   9.085
 2300HO4     OW 9197   9.690   7.360   1.935
 2300HO4    HW1 9198   9.744   7.391   2.008
 2300HO4    HW2 9199   9.742   7.382   1.857
 2300HO4     MW 9200   9.690   7.360   1.935
 2301HO4     OW 9201   9.188   4.886   5.408
 2301HO4    HW1 9202   9.264   4.933   5.373
 2301HO4    HW2 9203   9.157   4.833   5.334
 2301HO4     MW 9204   9.188   4.886   5.408
 2302HO4     OW 9205   0.883   1.761   1.445
 2302HO4    HW1 9206   0.803   1.813   1.430
 2302HO4    HW2 9207   0.870   1.682   1.391
 2302HO4     MW 9208   0.883   1.761   1.445
 2303HO4     OW 9209   2.872   3.703   7.287
 2303HO4    HW1 9210   2.949   3.645   7.285
 2303HO4    HW2 9211   2.898   3.780   7.236
 2303HO4     MW 9212   2.872   3.703   7.287
 2304HO4     OW 9213   1.155   6.721   8.008
 2304HO4    HW1 9214   1.178   6.657   8.076
 2304HO4    HW2 9215   1.104   6.669   7.944
 2304HO4     MW 9216   1.155   6.721   8.008
 2305HO4     OW 9217   6.063   8.846   0.586
 2305HO4    HW1 9218   6.101   8.888   0.508
 2305HO4    HW2 9219   6.098   8.896   0.660
 2305HO4     MW 9220   6.063   8.846   0.586
 2306HO4     OW 9221   9.697   8.555   5.269
 2306HO4    HW1 9222   9.710   8.607   5.349
 2306HO4    HW2 9223   9.757   8.594   5.204
 2306HO4     MW 9224   9.697   8.555   5.269
 2307HO4     OW 9225   1.461   1.414   4.537
 2307HO4    HW1 9226   1.424   1.361   4.466
 2307HO4    HW2 9227   1.439   1.365   4.617
 2307HO4     MW 9228   1.461   1.414   4.537
 2308HO4     OW 9229   0.916   2.103   9.388
 2308HO4    HW1 9230   0.979   2.067   9.452
 2308HO4    HW2 9231   0.948   2.072   9.303
 2308HO4     MW 9232   0.916   2.103   9.388
 2309HO4     OW 9233   8.221   1.890   7.326
 2309HO4    HW1 9234   8.297   1.858   7.277
 2309HO4    HW2 9235   8.150   1.892   7.261
 2309HO4     MW 9236   8.221   1.890   7.326
 2310HO4     OW 9237   1.427   1.347   5.501
 2310HO4    HW1 9238   1.375   1.406   5.557
 2310HO4    HW2 9239   1.468   1.405   5.436
 2310HO4     MW 9240   1.427   1.347   5.501
 2311HO4     OW 9241   0.398   9.762   2.586
 2311HO4    HW1 9242   0.406   9.773   2.491
 2311HO4    HW2 9243   0.474   9.708   2.611
 2311HO4     MW 9244   0.398   9.762   2.586
 2312HO4     OW 9245   1.095   1.611  10.057
 2312HO4    HW1 9246   1.160   1.680  10.064
 2312HO4    HW2 9247   1.095   1.587   9.964
 2312HO4     MW 9248   1.095   1.611  10.057
 2313HO4     OW 9249   3.295   8.769   5.290
 2313HO4    HW1 9250   3.246   8.789   5.209
 2313HO4    HW2 9251   3.295   8.851   5.340
 2313HO4     MW 9252   3.295   8.769   5.290
 2314HO4     OW 9253   2.273   6.607   5.877
 2314HO4    HW1 9254   2.217   6.581   5.803
 2314HO4    HW2 9255   2.220   6.585   5.955
 2314HO4     MW 9256   2.273   6.607   5.877
 2315HO4     OW 9257   6.430   5.945   6.042
 2315HO4    HW1 9258   6.465   5.907   5.961
 2315HO4    HW2 9259   6.505   5.948   6.102
 2315HO4     MW 9260   6.430   5.945   6.042
 2316HO4     OW 9261   8.526   1.591   2.372
 2316HO4    HW1 9262   8.574   1.586   2.455
 2316HO4    HW2 9263   8.595   1.600   2.306
 2316HO4     MW 9264   8.526   1.591   2.372
 2317HO4     OW 9265   4.151   6.391   5.521
 2317HO4    HW1 9266   4.130   6.401   5.614
 2317HO4    HW2 9267   4.246   6.375   5.520
 2317HO4     MW 9268   4.151   6.391   5.521
 2318HO4     OW 9269   0.534   3.551   4.392
 2318HO4    HW1 9270   0.460   3.499   4.358
 2318HO4    HW2 9271   0.587   3.570   4.314
 2318HO4     MW 9272   0.534   3.551   4.392
 2319HO4     OW 9273   7.652   2.308   7.704
 2319HO4    HW1 9274   7.601   2.272   7.631
 2319HO4    HW2 9275   7.604   2.280   7.783
 2319HO4     MW 9276   7.652   2.308   7.704
 2320HO4     OW 9277   8.085   7.441   0.058
 2320HO4    HW1 9278   8.141   7.486  -0.006
 2320HO4    HW2 9279   8.119   7.468   0.143
 2320HO4     MW 9280   8.085   7.441   0.058
 2321HO4     OW 9281   5.058   6.624   7.993
 2321HO4    HW1 9282   5.152   6.620   7.974
 2321HO4    HW2 9283   5.039   6.718   7.998
 2321HO4     MW 9284   5.058   6.624   7.993
 2322HO4     OW 9285   3.945   8.493   8.932
 2322HO4    HW1 9286   3.994   8.456   9.007
 2322HO4    HW2 9287   3.985   8.451   8.855
 2322HO4     MW 9288   3.945   8.493   8.932
 2323HO4     OW 9289   6.110   6.708   5.435
 2323HO4    HW1 9290   6.094   6.745   5.522
 2323HO4    HW2 9291   6.190   6.753   5.404
 2323HO4     MW 9292   6.110   6.708   5.435
 2324HO4     OW 9293   3.103   1.074   1.870
 2324HO4    HW1 9294   3.020   1.091   1.823
 2324HO4    HW2 9295   3.150   1.158   1.866
 2324HO4     MW 9296   3.103   1.074   1.870
 2325HO4     OW 9297   0.854   0.741  10.044
 2325HO4    HW1 9298   0.932   0.750  10.100
 2325HO4    HW2 9299   0.869   0.659   9.996
 2325HO4     MW 9300   0.854   0.741  10.044
 2326HO4     OW 9301   9.664   4.084   6.851
 2326HO4    HW1 9302   9.607   4.158   6.871
 2326HO4    HW2 9303   9.618   4.036   6.781
 2326HO4     MW 9304   9.664   4.084   6.851
 2327HO4     OW 9305   9.265   0.507   0.173
 2327HO4    HW1 9306   9.225   0.552   0.098
 2327HO4    HW2 9307   9.293   0.422   0.138
 2327HO4     MW 9308   9.265   0.507   0.173
 2328HO4     OW 9309   0.736   9.425   7.767
 2328HO4    HW1 9310   0.652   9.438   7.811
 2328HO4    HW2 9311   0.802   9.437   7.836
 2328HO4     MW 9312   0.736   9.425   7.767
 2329HO4     OW 9313   5.818   1.490   9.382
 2329HO4    HW1 9314   5.731   1.532   9.388
 2329HO4    HW2 9315   5.879   1.563   9.372
 2329HO4     MW 9316   5.818   1.490   9.382
 2330HO4     OW 9317   2.919   1.572   8.224
 2330HO4    HW1 9318   2.894   1.480   8.207
 2330HO4    HW2 9319   2.848   1.607   8.278
 2330HO4     MW 9320   2.919   1.572   8.224
 2331HO4     OW 9321   1.162   5.775   0.701
 2331HO4    HW1 9322   1.140   5.771   0.795
 2331HO4    HW2 9323   1.237   5.715   0.692
 2331HO4     MW 9324   1.162   5.775   0.701
 2332HO4     OW 9325   1.734   0.057   0.359
 2332HO4    HW1 9326   1.665   0.038   0.294
 2332HO4    HW2 9327   1.745   0.153   0.355
 2332HO4     MW 9328   1.734   0.057   0.359
 2333HO4     OW 9329   2.567   0.955   8.903
 2333HO4    HW1 9330   2.512   0.942   8.824
 2333HO4    HW2 9331   2.600   0.867   8.923
 2333HO4     MW 9332   2.567   0.955   8.903
 2334HO4     OW 9333   3.480   3.648   3.730
 2334HO4    HW1 9334   3.452   3.726   3.779
 2334HO4    HW2 9335   3.563   3.674   3.689
 2334HO4     MW 9336   3.480   3.648   3.730
 2335HO4     OW 9337   5.759   9.391   3.194
 2335HO4    HW1 9338   5.740   9.356   3.281
 2335HO4    HW2 9339   5.713   9.331   3.134
 2335HO4     MW 9340   5.759   9.391   3.194
 2336HO4     OW 9341   5.750   6.763   2.556
 2336HO4    HW1 9342   5.748   6.830   2.486
 2336HO4    HW2 9343   5.660   6.762   2.590
 2336HO4     MW 9344   5.750   6.763   2.556
 2337HO4     OW 9345   4.361   6.057   7.837
 2337HO4    HW1 9346   4.457   6.059   7.835
 2337HO4    HW2 9347   4.339   5.969   7.869
 2337HO4     MW 9348   4.361   6.057   7.837
 2338HO4     OW 9349   4.973   0.258   1.378
 2338HO4    HW1 9350   5.027   0.278   1.455
 2338HO4    HW2 9351   5.027   0.285   1.303
 2338HO4     MW 9352   4.973   0.258   1.378
 2339HO4     OW 9353   0.771   6.389   9.875
 2339HO4    HW1 9354   0.675   6.400   9.865
 2339HO4    HW2 9355   0.808   6.443   9.805
 2339HO4     MW 9356   0.771   6.389   9.875
 2340HO4     OW 9357   3.659   6.622   7.486
 2340HO4    HW1 9358   3.590   6.574   7.439
 2340HO4    HW2 9359   3.695   6.683   7.421
 2340HO4     MW 9360   3.659   6.622   7.486
 2341HO4     OW 9361   9.089   1.673   0.708
 2341HO4    HW1 9362   9.047   1.627   0.635
 2341HO4    HW2 9363   9.098   1.606   0.777
 2341HO4     MW 9364   9.089   1.673   0.708
 2342HO4     OW 9365   6.012   0.075   2.127
 2342HO4    HW1 9366   6.050   0.102   2.211
 2342HO4    HW2 9367   5.922   0.110   2.130
 2342HO4     MW 9368   6.012   0.075   2.127
 2343HO4     OW 9369   6.946   0.857   3.544
 2343HO4    HW1 9370   6.960   0.779   3.490
 2343HO4    HW2 9371   6.876   0.831   3.606
 2343HO4     MW 9372   6.946   0.857   3.544
 2344HO4     OW 9373   3.930   1.484   4.629
 2344HO4    HW1 9374   3.875   1.469   4.551
 2344HO4    HW2 9375   3.949   1.396   4.662
 2344HO4     MW 9376   3.930   1.484   4.629
 2345HO4     OW 9377   0.874   9.948   5.858
 2345HO4    HW1 9378   0.926   9.924   5.935
 2345HO4    HW2 9379   0.835  10.033   5.881
 2345HO4     MW 9380   0.874   9.948   5.858
 2346HO4     OW 9381   0.664   1.170   8.909
 2346HO4    HW1 9382   0.743   1.192   8.858
 2346HO4    HW2 9383   0.682   1.204   8.997
 2346HO4     MW 9384   0.664   1.170   8.909
 2347HO4     OW 9385   6.760   5.318   9.922
 2347HO4    HW1 9386   6.802   5.239   9.887
 2347HO4    HW2 9387   6.746   5.374   9.845
 2347HO4     MW 9388   6.760   5.318   9.922
 2348HO4     OW 9389   7.329   4.469   6.969
 2348HO4    HW1 9390   7.334   4.419   7.051
 2348HO4    HW2 9391   7.409   4.445   6.921
 2348HO4     MW 9392   7.329   4.469   6.969
 2349HO4     OW 9393   6.919   3.359   7.652
 2349HO4    HW1 9394   6.921   3.292   7.584
 2349HO4    HW2 9395   6.827   3.384   7.659
 2349HO4     MW 9396   6.919   3.359   7.652
 2350HO4     OW 9397   2.607   5.587   7.927
 2350HO4    HW1 9398   2.688   5.614   7.884
 2350HO4    HW2 9399   2.539   5.595   7.859
 2350HO4     MW 9400   2.607   5.587   7.927
 2351HO4     OW 9401   0.205   6.488   5.905
 2351HO4    HW1 9402   0.179   6.501   5.813
 2351HO4    HW2 9403   0.165   6.404   5.929
 2351HO4     MW 9404   0.205   6.488   5.905
 2352HO4     OW 9405   5.861   3.629   5.616
 2352HO4    HW1 9406   5.927   3.687   5.654
 2352HO4    HW2 9407   5.825   3.581   5.692
 2352HO4     MW 9408   5.861   3.629   5.616
 2353HO4     OW 9409   3.943   7.113   5.281
 2353HO4    HW1 9410   3.949   7.041   5.219
 2353HO4    HW2 9411   3.982   7.188   5.235
 2353HO4     MW 9412   3.943   7.113   5.281
 2354HO4     OW 9413   1.957   8.071   7.120
 2354HO4    HW1 9414   1.891   8.041   7.183
 2354HO4    HW2 9415   1.945   8.013   7.044
 2354HO4     MW 9416   1.957   8.071   7.120
 2355HO4     OW 9417   1.908   4.137   8.930
 2355HO4    HW1 9418   1.906   4.232   8.940
 2355HO4    HW2 9419   1.815   4.111   8.926
 2355HO4     MW 9420   1.908   4.137   8.930
 2356HO4     OW 9421   1.991   5.721   6.854
 2356HO4    HW1 9422   1.998   5.696   6.946
 2356HO4    HW2 9423   1.931   5.796   6.853
 2356HO4     MW 9424   1.991   5.721   6.854
 2357HO4     OW 9425   8.180   0.178   2.862
 2357HO4    HW1 9426   8.170   0.133   2.947
 2357HO4    HW2 9427   8.209   0.109   2.802
 2357HO4     MW 9428   8.180   0.178   2.862
 2358HO4     OW 9429   4.645   5.570   8.815
 2358HO4    HW1 9430   4.735   5.548   8.840
 2358HO4    HW2 9431   4.649   5.584   8.720
 2358HO4     MW 9432   4.645   5.570   8.815
 2359HO4     OW 9433   5.115   6.095   3.749
 2359HO4    HW1 9434   5.200   6.120   3.712
 2359HO4    HW2 9435   5.130   6.010   3.791
 2359HO4     MW 9436   5.115   6.095   3.749
 2360HO4     OW 9437   2.754   4.771   0.887
 2360HO4    HW1 9438   2.736   4.721   0.807
 2360HO4    HW2 9439   2.846   4.796   0.879
 2360HO4     MW 9440   2.754   4.771   0.887
 2361HO4     OW 9441   9.127   7.672   6.792
 2361HO4    HW1 9442   9.177   7.708   6.718
 2361HO4    HW2 9443   9.174   7.703   6.870
 2361HO4     MW 9444   9.127   7.672   6.792
 2362HO4     OW 9445   6.306   2.839   8.630
 2362HO4    HW1 9446   6.279   2.812   8.541
 2362HO4    HW2 9447   6.256   2.782   8.688
 2362HO4     MW 9448   6.306   2.839   8.630
 2363HO4     OW 9449   5.938   0.348   1.935
 2363HO4    HW1 9450   5.898   0.434   1.924
 2363HO4    HW2 9451   5.929   0.329   2.029
 2363HO4     MW 9452   5.938   0.348   1.935
 2364HO4     OW 9453   6.957   2.979   0.378
 2364HO4    HW1 9454   6.939   2.929   0.298
 2364HO4    HW2 9455   6.939   2.916   0.449
 2364HO4     MW 9456   6.957   2.979   0.378
 2365HO4     OW 9457   1.646   0.962   9.950
 2365HO4    HW1 9458   1.727   0.978   9.999
 2365HO4    HW2 9459   1.600   1.046   9.952
 2365HO4     MW 9460   1.646   0.962   9.950
 2366HO4     OW 9461   3.250   6.172   2.858
 2366HO4    HW1 9462   3.238   6.177   2.763
 2366HO4    HW2 9463   3.344   6.184   2.872
 2366HO4     MW 9464   3.250   6.172   2.858
 2367HO4     OW 9465   3.383   7.312   8.825
 2367HO4    HW1 9466   3.459   7.311   8.883
 2367HO4    HW2 9467   3.315   7.265   8.874
 2367HO4     MW 9468   3.383   7.312   8.825
 2368HO4     OW 9469   5.703   3.971   6.211
 2368HO4    HW1 9470   5.683   3.972   6.305
 2368HO4    HW2 9471   5.637   4.028   6.171
 2368HO4     MW 9472   5.703   3.971   6.211
 2369HO4     OW 9473   9.630   6.857   5.349
 2369HO4    HW1 9474   9.551   6.884   5.302
 2369HO4    HW2 9475   9.657   6.775   5.306
 2369HO4     MW 9476   9.630   6.857   5.349
 2370HO4     OW 9477   0.348   6.363   6.445
 2370HO4    HW1 9478   0.438   6.333   6.428
 2370HO4    HW2 9479   0.297   6.282   6.453
 2370HO4     MW 9480   0.348   6.363   6.445
 2371HO4     OW 9481   6.359   4.087   8.892
 2371HO4    HW1 9482   6.351   4.121   8.802
 2371HO4    HW2 9483   6.368   4.166   8.946
 2371HO4     MW 9484   6.359   4.087   8.892
 2372HO4     OW 9485   4.461   1.518   3.116
 2372HO4    HW1 9486   4.438   1.490   3.026
 2372HO4    HW2 9487   4.504   1.603   3.104
 2372HO4     MW 9488   4.461   1.518   3.116
 2373HO4     OW 9489   9.017   4.538   4.111
 2373HO4    HW1 9490   9.095   4.540   4.167
 2373HO4    HW2 9491   8.963   4.467   4.147
 2373HO4     MW 9492   9.017   4.538   4.111
 2374HO4     OW 9493   4.949   3.712   3.995
 2374HO4    HW1 9494   5.014   3.672   4.054
 2374HO4    HW2 9495   4.872   3.654   4.001
 2374HO4     MW 9496   4.949   3.712   3.995
 2375HO4     OW 9497   0.518   0.613   7.351
 2375HO4    HW1 9498   0.549   0.527   7.381
 2375HO4    HW2 9499   0.507   0.603   7.256
 2375HO4     MW 9500   0.518   0.613   7.351
 2376HO4     OW 9501   8.080   4.007   3.118
 2376HO4    HW1 9502   8.004   3.989   3.175
 2376HO4    HW2 9503   8.152   3.958   3.159
 2376HO4     MW 9504   8.080   4.007   3.118
 2377HO4     OW 9505   1.348   2.758   3.104
 2377HO4    HW1 9506   1.284   2.757   3.176
 2377HO4    HW2 9507   1.295   2.748   3.024
 2377HO4     MW 9508   1.348   2.758   3.104
 2378HO4     OW 9509   4.021   0.567   4.049
 2378HO4    HW1 9510   4.032   0.662   4.034
 2378HO4    HW2 9511   4.085   0.546   4.117
 2378HO4     MW 9512   4.021   0.567   4.049
 2379HO4     OW 9513   4.432   3.588   9.094
 2379HO4    HW1 9514   4.448   3.603   9.000
 2379HO4    HW2 9515   4.490   3.515   9.118
 2379HO4     MW 9516   4.432   3.588   9.094
 2380HO4     OW 9517   7.777   1.846   9.533
 2380HO4    HW1 9518   7.813   1.795   9.607
 2380HO4    HW2 9519   7.705   1.792   9.500
 2380HO4     MW 9520   7.777   1.846   9.533
 2381HO4     OW 9521   4.684   0.333   6.471
 2381HO4    HW1 9522   4.599   0.297   6.496
 2381HO4    HW2 9523   4.696   0.408   6.530
 2381HO4     MW 9524   4.684   0.333   6.471
 2382HO4     OW 9525   4.241   0.688   0.404
 2382HO4    HW1 9526   4.212   0.756   0.342
 2382HO4    HW2 9527   4.234   0.730   0.490
 2382HO4     MW 9528   4.241   0.688   0.404
 2383HO4     OW 9529   1.465   4.807   7.205
 2383HO4    HW1 9530   1.428   4.855   7.130
 2383HO4    HW2 9531   1.443   4.861   7.282
 2383HO4     MW 9532   1.465   4.807   7.205
 2384HO4     OW 9533   2.360   8.083   3.537
 2384HO4    HW1 9534   2.290   8.026   3.505
 2384HO4    HW2 9535   2.416   8.025   3.590
 2384HO4     MW 9536   2.360   8.083   3.537
 2385HO4     OW 9537   3.141   4.709   1.266
 2385HO4    HW1 9538   3.166   4.789   1.313
 2385HO4    HW2 9539   3.046   4.718   1.254
 2385HO4     MW 9540   3.141   4.709   1.266
 2386HO4     OW 9541   4.463   9.733   1.592
 2386HO4    HW1 9542   4.382   9.775   1.620
 2386HO4    HW2 9543   4.437   9.676   1.519
 2386HO4     MW 9544   4.463   9.733   1.592
 2387HO4     OW 9545   6.721   3.801   7.723
 2387HO4    HW1 9546   6.795   3.862   7.720
 2387HO4    HW2 9547   6.737   3.739   7.651
 2387HO4     MW 9548   6.721   3.801   7.723
 2388HO4     OW 9549   3.810   9.767   5.251
 2388HO4    HW1 9550   3.776   9.716   5.325
 2388HO4    HW2 9551   3.781   9.719   5.174
 2388HO4     MW 9552   3.810   9.767   5.251
 2389HO4     OW 9553   8.992   3.029   2.078
 2389HO4    HW1 9554   8.961   3.000   1.991
 2389HO4    HW2 9555   9.017   2.947   2.122
 2389HO4     MW 9556   8.992   3.029   2.078
 2390HO4     OW 9557   6.415   3.265   8.362
 2390HO4    HW1 9558   6.379   3.261   8.451
 2390HO4    HW2 9559   6.509   3.248   8.374
 2390HO4     MW 9560   6.415   3.265   8.362
 2391HO4     OW 9561   2.125   1.406   8.619
 2391HO4    HW1 9562   2.170   1.444   8.543
 2391HO4    HW2 9563   2.093   1.320   8.588
 2391HO4     MW 9564   2.125   1.406   8.619
 2392HO4     OW 9565   7.043   0.964   4.790
 2392HO4    HW1 9566   6.987   0.887   4.777
 2392HO4    HW2 9567   7.031   0.987   4.882
 2392HO4     MW 9568   7.043   0.964   4.790
 2393HO4     OW 9569   3.871   0.149   0.176
 2393HO4    HW1 9570   3.945   0.204   0.151
 2393HO4    HW2 9571   3.795   0.189   0.133
 2393HO4     MW 9572   3.871   0.149   0.176
 2394HO4     OW 9573   6.665   9.929   5.363
 2394HO4    HW1 9574   6.643   9.910   5.271
 2394HO4    HW2 9575   6.746   9.980   5.357
 2394HO4     MW 9576   6.665   9.929   5.363
 2395HO4     OW 9577   8.410   7.281   0.303
 2395HO4    HW1 9578   8.454   7.260   0.385
 2395HO4    HW2 9579   8.449   7.364   0.275
 2395HO4     MW 9580   8.410   7.281   0.303
 2396HO4     OW 9581   4.968   1.567   9.661
 2396HO4    HW1 9582   5.027   1.510   9.712
 2396HO4    HW2 9583   4.974   1.533   9.571
 2396HO4     MW 9584   4.968   1.567   9.661
 2397HO4     OW 9585   2.284   2.114   8.154
 2397HO4    HW1 9586   2.290   2.036   8.209
 2397HO4    HW2 9587   2.368   2.159   8.167
 2397HO4     MW 9588   2.284   2.114   8.154
 2398HO4     OW 9589   2.808   8.044   1.083
 2398HO4    HW1 9590   2.861   8.049   1.163
 2398HO4    HW2 9591   2.865   8.000   1.020
 2398HO4     MW 9592   2.808   8.044   1.083
 2399HO4     OW 9593   6.621   5.608  10.010
 2399HO4    HW1 9594   6.599   5.621  10.103
 2399HO4    HW2 9595   6.616   5.697   9.973
 2399HO4     MW 9596   6.621   5.608  10.010
 2400HO4     OW 9597   5.467   2.479   3.848
 2400HO4    HW1 9598   5.490   2.470   3.755
 2400HO4    HW2 9599   5.415   2.560   3.852
 2400HO4     MW 9600   5.467   2.479   3.848
 2401HO4     OW 9601   5.286   1.647   2.945
 2401HO4    HW1 9602   5.342   1.662   3.022
 2401HO4    HW2 9603   5.339   1.676   2.871
 2401HO4     MW 9604   5.286   1.647   2.945
 2402HO4     OW 9605   0.180   6.389   8.411
 2402HO4    HW1 9606   0.140   6.343   8.485
 2402HO4    HW2 9607   0.265   6.345   8.399
 2402HO4     MW 9608   0.180   6.389   8.411
 2403HO4     OW 9609   5.415   3.969   7.524
 2403HO4    HW1 9610   5.476   4.031   7.565
 2403HO4    HW2 9611   5.408   3.897   7.587
 2403HO4     MW 9612   5.415   3.969   7.524
 2404HO4     OW 9613   4.455   9.401   8.031
 2404HO4    HW1 9614   4.378   9.402   8.089
 2404HO4    HW2 9615   4.430   9.455   7.956
 2404HO4     MW 9616   4.455   9.401   8.031
 2405HO4     OW 9617   8.050   4.426   0.553
 2405HO4    HW1 9618   8.100   4.459   0.478
 2405HO4    HW2 9619   8.091   4.467   0.629
 2405HO4     MW 9620   8.050   4.426   0.553
 2406HO4     OW 9621   9.859   5.114   7.270
 2406HO4    HW1 9622   9.829   5.079   7.354
 2406HO4    HW2 9623   9.883   5.036   7.219
 2406HO4     MW 9624   9.859   5.114   7.270
 2407HO4     OW 9625   8.551   9.005   6.537
 2407HO4    HW1 9626   8.572   9.069   6.606
 2407HO4    HW2 9627   8.467   9.036   6.501
 2407HO4     MW 9628   8.551   9.005   6.537
 2408HO4     OW 9629   9.324   8.298   8.369
 2408HO4    HW1 9630   9.355   8.373   8.422
 2408HO4    HW2 9631   9.399   8.278   8.312
 2408HO4     MW 9632   9.324   8.298   8.369
 2409HO4     OW 9633   7.974   2.088   4.914
 2409HO4    HW1 9634   8.007   2.016   4.859
 2409HO4    HW2 9635   7.985   2.057   5.004
 2409HO4     MW 9636   7.974   2.088   4.914
 2410HO4     OW 9637  10.097   6.060   0.684
 2410HO4    HW1 9638  10.042   5.987   0.656
 2410HO4    HW2 9639  10.116   6.042   0.777
 2410HO4     MW 9640  10.097   6.060   0.684
 2411HO4     OW 9641   8.792   8.385   9.244
 2411HO4    HW1 9642   8.852   8.452   9.209
 2411HO4    HW2 9643   8.807   8.308   9.188
 2411HO4     MW 9644   8.792   8.385   9.244
 2412HO4     OW 9645   9.877   4.779   9.483
 2412HO4    HW1 9646   9.866   4.799   9.576
 2412HO4    HW2 9647   9.809   4.831   9.439
 2412HO4     MW 9648   9.877   4.779   9.483
 2413HO4     OW 9649   2.867   9.318   6.133
 2413HO4    HW1 9650   2.804   9.245   6.125
 2413HO4    HW2 9651   2.935   9.285   6.192
 2413HO4     MW 9652   2.867   9.318   6.133
 2414HO4     OW 9653   7.947   6.069   3.693
 2414HO4    HW1 9654   7.922   5.977   3.710
 2414HO4    HW2 9655   8.023   6.083   3.750
 2414HO4     MW 9656   7.947   6.069   3.693
 2415HO4     OW 9657   5.811   9.855   0.265
 2415HO4    HW1 9658   5.751   9.920   0.303
 2415HO4    HW2 9659   5.895   9.901   0.258
 2415HO4     MW 9660   5.811   9.855   0.265
 2416HO4     OW 9661   8.344   4.007   1.543
 2416HO4    HW1 9662   8.290   4.016   1.464
 2416HO4    HW2 9663   8.391   4.090   1.550
 2416HO4     MW 9664   8.344   4.007   1.543
 2417HO4     OW 9665   2.641   1.676   5.726
 2417HO4    HW1 9666   2.608   1.589   5.753
 2417HO4    HW2 9667   2.732   1.659   5.698
 2417HO4     MW 9668   2.641   1.676   5.726
 2418HO4     OW 9669   3.744   7.112   7.381
 2418HO4    HW1 9670   3.810   7.170   7.420
 2418HO4    HW2 9671   3.751   7.129   7.286
 2418HO4     MW 9672   3.744   7.112   7.381
 2419HO4     OW 9673   2.850  10.099   5.047
 2419HO4    HW1 9674   2.783  10.149   5.096
 2419HO4    HW2 9675   2.799  10.038   4.994
 2419HO4     MW 9676   2.850  10.099   5.047
 2420HO4     OW 9677   5.392  10.091   1.968
 2420HO4    HW1 9678   5.481  10.092   2.005
 2420HO4    HW2 9679   5.370   9.998   1.961
 2420HO4     MW 9680   5.392  10.091   1.968
 2421HO4     OW 9681   4.464   8.844   7.268
 2421HO4    HW1 9682   4.470   8.920   7.327
 2421HO4    HW2 9683   4.424   8.879   7.188
 2421HO4     MW 9684   4.464   8.844   7.268
 2422HO4     OW 9685   0.501   1.651   5.087
 2422HO4    HW1 9686   0.592   1.621   5.095
 2422HO4    HW2 9687   0.508   1.745   5.070
 2422HO4     MW 9688   0.501   1.651   5.087
 2423HO4     OW 9689   2.515   2.008   0.614
 2423HO4    HW1 9690   2.521   2.077   0.547
 2423HO4    HW2 9691   2.424   1.977   0.608
 2423HO4     MW 9692   2.515   2.008   0.614
 2424HO4     OW 9693   4.414   0.807   4.562
 2424HO4    HW1 9694   4.400   0.713   4.578
 2424HO4    HW2 9695   4.494   0.828   4.612
 2424HO4     MW 9696   4.414   0.807   4.562
 2425HO4     OW 9697   4.154   2.861   9.413
 2425HO4    HW1 9698   4.183   2.811   9.335
 2425HO4    HW2 9699   4.222   2.846   9.478
 2425HO4     MW 9700   4.154   2.861   9.413
 2426HO4     OW 9701   0.125   3.048   7.763
 2426HO4    HW1 9702   0.076   3.073   7.842
 2426HO4    HW2 9703   0.217   3.065   7.786
 2426HO4     MW 9704   0.125   3.048   7.763
 2427HO4     OW 9705   0.724   5.263   1.350
 2427HO4    HW1 9706   0.708   5.176   1.388
 2427HO4    HW2 9707   0.639   5.306   1.354
 2427HO4     MW 9708   0.724   5.263   1.350
 2428HO4     OW 9709   2.503   2.924   4.736
 2428HO4    HW1 9710   2.503   2.849   4.795
 2428HO4    HW2 9711   2.445   2.899   4.664
 2428HO4     MW 9712   2.503   2.924   4.736
 2429HO4     OW 9713   2.454   2.679   0.152
 2429HO4    HW1 9714   2.546   2.694   0.128
 2429HO4    HW2 9715   2.414   2.766   0.148
 2429HO4     MW 9716   2.454   2.679   0.152
 2430HO4     OW 9717   0.444   8.989   4.333
 2430HO4    HW1 9718   0.378   8.938   4.285
 2430HO4    HW2 9719   0.522   8.986   4.277
 2430HO4     MW 9720   0.444   8.989   4.333
 2431HO4     OW 9721   5.938   3.071   5.734
 2431HO4    HW1 9722   5.995   3.043   5.661
 2431HO4    HW2 9723   5.990   3.052   5.813
 2431HO4     MW 9724   5.938   3.071   5.734
 2432HO4     OW 9725   7.056   3.746   3.920
 2432HO4    HW1 9726   7.001   3.723   3.996
 2432HO4    HW2 9727   7.002   3.724   3.844
 2432HO4     MW 9728   7.056   3.746   3.920
 2433HO4     OW 9729   9.730   7.542   9.874
 2433HO4    HW1 9730   9.675   7.614   9.840
 2433HO4    HW2 9731   9.741   7.563   9.968
 2433HO4     MW 9732   9.730   7.542   9.874
 2434HO4     OW 9733   5.460   4.449   8.314
 2434HO4    HW1 9734   5.500   4.418   8.395
 2434HO4    HW2 9735   5.512   4.526   8.289
 2434HO4     MW 9736   5.460   4.449   8.314
 2435HO4     OW 9737   7.502   0.443   7.406
 2435HO4    HW1 9738   7.516   0.492   7.324
 2435HO4    HW2 9739   7.452   0.365   7.379
 2435HO4     MW 9740   7.502   0.443   7.406
 2436HO4     OW 9741   1.808   0.943   5.895
 2436HO4    HW1 9742   1.780   0.998   5.969
 2436HO4    HW2 9743   1.860   1.002   5.840
 2436HO4     MW 9744   1.808   0.943   5.895
 2437HO4     OW 9745   8.652   0.191   3.289
 2437HO4    HW1 9746   8.747   0.201   3.300
 2437HO4    HW2 9747   8.641   0.163   3.197
 2437HO4     MW 9748   8.652   0.191   3.289
 2438HO4     OW 9749   4.729   2.117   4.418
 2438HO4    HW1 9750   4.638   2.118   4.450
 2438HO4    HW2 9751   4.768   2.040   4.459
 2438HO4     MW 9752   4.729   2.117   4.418
 2439HO4     OW 9753   2.903   5.103   4.021
 2439HO4    HW1 9754   2.882   5.197   4.014
 2439HO4    HW2 9755   2.964   5.088   3.949
 2439HO4     MW 9756   2.903   5.103   4.021
 2440HO4     OW 9757   8.489   1.536   7.819
 2440HO4    HW1 9758   8.476   1.498   7.732
 2440HO4    HW2 9759   8.497   1.631   7.803
 2440HO4     MW 9760   8.489   1.536   7.819
 2441HO4     OW 9761   4.721   2.885   8.046
 2441HO4    HW1 9762   4.701   2.847   8.132
 2441HO4    HW2 9763   4.635   2.907   8.009
 2441HO4     MW 9764   4.721   2.885   8.046
 2442HO4     OW 9765   5.827   4.707   5.057
 2442HO4    HW1 9766   5.890   4.666   5.117
 2442HO4    HW2 9767   5.812   4.640   4.989
 2442HO4     MW 9768   5.827   4.707   5.057
 2443HO4     OW 9769   1.498   9.072   2.901
 2443HO4    HW1 9770   1.418   9.124   2.913
 2443HO4    HW2 9771   1.559   9.107   2.967
 2443HO4     MW 9772   1.498   9.072   2.901
 2444HO4     OW 9773   2.133   7.632   4.585
 2444HO4    HW1 9774   2.205   7.650   4.524
 2444HO4    HW2 9775   2.154   7.546   4.622
 2444HO4     MW 9776   2.133   7.632   4.585
 2445HO4     OW 9777   0.841   3.291   3.739
 2445HO4    HW1 9778   0.872   3.382   3.740
 2445HO4    HW2 9779   0.752   3.295   3.777
 2445HO4     MW 9780   0.841   3.291   3.739
 2446HO4     OW 9781   2.694   9.638   5.311
 2446HO4    HW1 9782   2.690   9.657   5.216
 2446HO4    HW2 9783   2.625   9.572   5.325
 2446HO4     MW 9784   2.694   9.638   5.311
 2447HO4     OW 9785   4.711   0.153   4.901
 2447HO4    HW1 9786   4.780   0.213   4.931
 2447HO4    HW2 9787   4.749   0.109   4.825
 2447HO4     MW 9788   4.711   0.153   4.901
 2448HO4     OW 9789   9.166   7.664   5.096
 2448HO4    HW1 9790   9.161   7.756   5.068
 2448HO4    HW2 9791   9.118   7.662   5.179
 2448HO4     MW 9792   9.166   7.664   5.096
 2449HO4     OW 9793   4.577   8.741   8.162
 2449HO4    HW1 9794   4.619   8.763   8.246
 2449HO4    HW2 9795   4.514   8.812   8.147
 2449HO4     MW 9796   4.577   8.741   8.162
 2450HO4     OW 9797   2.076   3.781   0.608
 2450HO4    HW1 9798   2.118   3.833   0.539
 2450HO4    HW2 9799   2.070   3.842   0.683
 2450HO4     MW 9800   2.076   3.781   0.608
 2451HO4     OW 9801   0.323   2.341   8.476
 2451HO4    HW1 9802   0.378   2.393   8.416
 2451HO4    HW2 9803   0.266   2.406   8.518
 2451HO4     MW 9804   0.323   2.341   8.476
 2452HO4     OW 9805   4.618   8.222   8.066
 2452HO4    HW1 9806   4.676   8.209   8.142
 2452HO4    HW2 9807   4.676   8.215   7.990
 2452HO4     MW 9808   4.618   8.222   8.066
 2453HO4     OW 9809   9.161   8.045   5.618
 2453HO4    HW1 9810   9.098   8.106   5.658
 2453HO4    HW2 9811   9.123   7.958   5.632
 2453HO4     MW 9812   9.161   8.045   5.618
 2454HO4     OW 9813   9.700   4.372   9.539
 2454HO4    HW1 9814   9.745   4.345   9.620
 2454HO4    HW2 9815   9.744   4.453   9.513
 2454HO4     MW 9816   9.700   4.372   9.539
 2455HO4     OW 9817   4.335   3.547   6.068
 2455HO4    HW1 9818   4.426   3.522   6.090
 2455HO4    HW2 9819   4.340   3.576   5.976
 2455HO4     MW 9820   4.335   3.547   6.068
 2456HO4     OW 9821   4.390   6.505   8.978
 2456HO4    HW1 9822   4.437   6.448   8.917
 2456HO4    HW2 9823   4.459   6.555   9.022
 2456HO4     MW 9824   4.390   6.505   8.978
 2457HO4     OW 9825   2.526   9.344   5.592
 2457HO4    HW1 9826   2.600   9.288   5.567
 2457HO4    HW2 9827   2.567   9.416   5.642
 2457HO4     MW 9828   2.526   9.344   5.592
 2458HO4     OW 9829   4.199   1.899   2.099
 2458HO4    HW1 9830   4.259   1.898   2.174
 2458HO4    HW2 9831   4.257   1.901   2.022
 2458HO4     MW 9832   4.199   1.899   2.099
 2459HO4     OW 9833   4.075   4.381   3.003
 2459HO4    HW1 9834   4.052   4.474   2.989
 2459HO4    HW2 9835   4.157   4.370   2.954
 2459HO4     MW 9836   4.075   4.381   3.003
 2460HO4     OW 9837   0.097   4.804   4.624
 2460HO4    HW1 9838   0.066   4.791   4.534
 2460HO4    HW2 9839   0.016   4.805   4.677
 2460HO4     MW 9840   0.097   4.804   4.624
 2461HO4     OW 9841   8.037   4.381   6.629
 2461HO4    HW1 9842   8.098   4.306   6.627
 2461HO4    HW2 9843   7.971   4.361   6.562
 2461HO4     MW 9844   8.037   4.381   6.629
 2462HO4     OW 9845   2.389   1.830   7.153
 2462HO4    HW1 9846   2.359   1.907   7.103
 2462HO4    HW2 9847   2.389   1.859   7.244
 2462HO4     MW 9848   2.389   1.830   7.153
 2463HO4     OW 9849   3.773   9.653   9.376
 2463HO4    HW1 9850   3.716   9.631   9.451
 2463HO4    HW2 9851   3.843   9.707   9.413
 2463HO4     MW 9852   3.773   9.653   9.376
 2464HO4     OW 9853   1.784   2.048   8.815
 2464HO4    HW1 9854   1.856   2.081   8.761
 2464HO4    HW2 9855   1.794   1.952   8.813
 2464HO4     MW 9856   1.784   2.048   8.815
 2465HO4     OW 9857   6.610   1.570   8.034
 2465HO4    HW1 9858   6.548   1.598   7.966
 2465HO4    HW2 9859   6.591   1.477   8.046
 2465HO4     MW 9860   6.610   1.570   8.034
 2466HO4     OW 9861   0.078   5.538   5.809
 2466HO4    HW1 9862   0.142   5.536   5.736
 2466HO4    HW2 9863   0.133   5.529   5.888
 2466HO4     MW 9864   0.078   5.538   5.809
 2467HO4     OW 9865   3.359   8.613   0.840
 2467HO4    HW1 9866   3.342   8.531   0.888
 2467HO4    HW2 9867   3.414   8.665   0.900
 2467HO4     MW 9868   3.359   8.613   0.840
 2468HO4     OW 9869   1.189   5.423   8.591
 2468HO4    HW1 9870   1.153   5.447   8.677
 2468HO4    HW2 9871   1.127   5.359   8.556
 2468HO4     MW 9872   1.189   5.423   8.591
 2469HO4     OW 9873   7.932   0.745   5.067
 2469HO4    HW1 9874   7.914   0.656   5.100
 2469HO4    HW2 9875   8.026   0.743   5.045
 2469HO4     MW 9876   7.932   0.745   5.067
 2470HO4     OW 9877   2.823   4.298   1.662
 2470HO4    HW1 9878   2.838   4.251   1.580
 2470HO4    HW2 9879   2.741   4.346   1.648
 2470HO4     MW 9880   2.823   4.298   1.662
 2471HO4     OW 9881   2.758   3.158   0.441
 2471HO4    HW1 9882   2.827   3.105   0.481
 2471HO4    HW2 9883   2.748   3.233   0.500
 2471HO4     MW 9884   2.758   3.158   0.441
 2472HO4     OW 9885   5.812   0.447   5.015
 2472HO4    HW1 9886   5.878   0.378   5.003
 2472HO4    HW2 9887   5.845   0.521   4.964
 2472HO4     MW 9888   5.812   0.447   5.015
 2473HO4     OW 9889   6.722   5.450   8.697
 2473HO4    HW1 9890   6.725   5.406   8.783
 2473HO4    HW2 9891   6.687   5.384   8.637
 2473HO4     MW 9892   6.722   5.450   8.697
 2474HO4     OW 9893   0.872   5.017   4.440
 2474HO4    HW1 9894   0.905   4.958   4.371
 2474HO4    HW2 9895   0.878   4.965   4.521
 2474HO4     MW 9896   0.872   5.017   4.440
 2475HO4     OW 9897   7.180   9.249   1.368
 2475HO4    HW1 9898   7.219   9.189   1.433
 2475HO4    HW2 9899   7.115   9.299   1.417
 2475HO4     MW 9900   7.180   9.249   1.368
 2476HO4     OW 9901   4.654   4.419   4.990
 2476HO4    HW1 9902   4.639   4.325   5.007
 2476HO4    HW2 9903   4.581   4.463   5.034
 2476HO4     MW 9904   4.654   4.419   4.990
 2477HO4     OW 9905   3.945   9.510   2.192
 2477HO4    HW1 9906   4.014   9.559   2.147
 2477HO4    HW2 9907   3.869   9.517   2.133
 2477HO4     MW 9908   3.945   9.510   2.192
 2478HO4     OW 9909   5.619   0.526   0.902
 2478HO4    HW1 9910   5.583   0.476   0.828
 2478HO4    HW2 9911   5.584   0.481   0.980
 2478HO4     MW 9912   5.619   0.526   0.902
 2479HO4     OW 9913   9.909   2.965   4.625
 2479HO4    HW1 9914   9.921   3.021   4.548
 2479HO4    HW2 9915   9.989   2.976   4.677
 2479HO4     MW 9916   9.909   2.965   4.625
 2480HO4     OW 9917   5.189   7.166   3.288
 2480HO4    HW1 9918   5.210   7.191   3.379
 2480HO4    HW2 9919   5.186   7.250   3.241
 2480HO4     MW 9920   5.189   7.166   3.288
 2481HO4     OW 9921   9.883   6.254   0.787
 2481HO4    HW1 9922   9.853   6.240   0.877
 2481HO4    HW2 9923   9.804   6.282   0.740
 2481HO4     MW 9924   9.883   6.254   0.787
 2482HO4     OW 9925   2.429   1.926   0.227
 2482HO4    HW1 9926   2.513   1.973   0.226
 2482HO4    HW2 9927   2.443   1.851   0.168
 2482HO4     MW 9928   2.429   1.926   0.227
 2483HO4     OW 9929   8.065   5.172   8.537
 2483HO4    HW1 9930   8.005   5.139   8.605
 2483HO4    HW2 9931   8.024   5.147   8.454
 2483HO4     MW 9932   8.065   5.172   8.537
 2484HO4     OW 9933   4.177   8.109   1.080
 2484HO4    HW1 9934   4.129   8.064   1.011
 2484HO4    HW2 9935   4.127   8.090   1.160
 2484HO4     MW 9936   4.177   8.109   1.080
 2485HO4     OW 9937   0.296   1.498   3.963
 2485HO4    HW1 9938   0.369   1.554   3.992
 2485HO4    HW2 9939   0.247   1.479   4.044
 2485HO4     MW 9940   0.296   1.498   3.963
 2486HO4     OW 9941   0.621   0.708   4.234
 2486HO4    HW1 9942   0.628   0.615   4.211
 2486HO4    HW2 9943   0.613   0.709   4.330
 2486HO4     MW 9944   0.621   0.708   4.234
 2487HO4     OW 9945   5.387   4.671   4.162
 2487HO4    HW1 9946   5.453   4.606   4.189
 2487HO4    HW2 9947   5.434   4.754   4.160
 2487HO4     MW 9948   5.387   4.671   4.162
 2488HO4     OW 9949   6.008   4.147   3.795
 2488HO4    HW1 9950   5.974   4.102   3.716
 2488HO4    HW2 9951   5.971   4.097   3.868
 2488HO4     MW 9952   6.008   4.147   3.795
 2489HO4     OW 9953   0.074   7.973   7.961
 2489HO4    HW1 9954   0.101   8.065   7.971
 2489HO4    HW2 9955   0.076   7.958   7.866
 2489HO4     MW 9956   0.074   7.973   7.961
 2490HO4     OW 9957   0.909   6.613   8.087
 2490HO4    HW1 9958   0.902   6.704   8.056
 2490HO4    HW2 9959   0.981   6.615   8.150
 2490HO4     MW 9960   0.909   6.613   8.087
 2491HO4     OW 9961   6.533   8.496   1.429
 2491HO4    HW1 9962   6.473   8.561   1.391
 2491HO4    HW2 9963   6.498   8.480   1.518
 2491HO4     MW 9964   6.533   8.496   1.429
 2492HO4     OW 9965   0.574   6.533   3.871
 2492HO4    HW1 9966   0.644   6.472   3.846
 2492HO4    HW2 9967   0.517   6.482   3.929
 2492HO4     MW 9968   0.574   6.533   3.871
 2493HO4     OW 9969   2.070   8.789  10.064
 2493HO4    HW1 9970   2.142   8.849  10.084
 2493HO4    HW2 9971   2.051   8.806   9.971
 2493HO4     MW 9972   2.070   8.789  10.064
 2494HO4     OW 9973   6.418   4.682  10.138
 2494HO4    HW1 9974   6.428   4.620  10.210
 2494HO4    HW2 9975   6.372   4.633  10.070
 2494HO4     MW 9976   6.418   4.682  10.138
 2495HO4     OW 9977   9.649   2.863   7.248
 2495HO4    HW1 9978   9.688   2.926   7.309
 2495HO4    HW2 9979   9.719   2.799   7.231
 2495HO4     MW 9980   9.649   2.863   7.248
 2496HO4     OW 9981   9.051   1.679   8.862
 2496HO4    HW1 9982   9.003   1.636   8.934
 2496HO4    HW2 9983   9.105   1.609   8.825
 2496HO4     MW 9984   9.051   1.679   8.862
 2497HO4     OW 9985   7.104   2.731  10.060
 2497HO4    HW1 9986   7.088   2.736  10.155
 2497HO4    HW2 9987   7.041   2.665  10.029
 2497HO4     MW 9988   7.104   2.731  10.060
 2498HO4     OW 9989   5.658   4.020   1.021
 2498HO4    HW1 9990   5.565   4.040   1.038
 2498HO4    HW2 9991   5.661   3.995   0.929
 2498HO4     MW 9992   5.658   4.020   1.021
 2499HO4     OW 9993   4.112   3.869   9.675
 2499HO4    HW1 9994   4.104   3.773   9.675
 2499HO4    HW2 9995   4.118   3.893   9.582
 2499HO4     MW 9996   4.112   3.869   9.675
 2500HO4     OW 9997   0.193   8.417   2.208
 2500HO4    HW1 9998   0.145   8.336   2.188
 2500HO4    HW2 9999   0.278   8.406   2.164
 2500HO4     MW10000   0.193   8.417   2.208
 2501HO4     OW10001   1.432  10.066   6.323
 2501HO4    HW110002   1.367  10.056   6.394
 2501HO4    HW210003   1.378  10.069   6.243
 2501HO4     MW10004   1.432  10.066   6.323
 2502HO4     OW10005   9.026   0.691   7.861
 2502HO4    HW110006   8.984   0.753   7.801
 2502HO4    HW210007   9.005   0.724   7.949
 2502HO4     MW10008   9.026   0.691   7.861
 2503HO4     OW10009   4.277   0.050   2.782
 2503HO4    HW110010   4.323  -0.033   2.795
 2503HO4    HW210011   4.193   0.026   2.742
 2503HO4     MW10012   4.277   0.050   2.782
 2504HO4     OW10013   1.975   8.706   3.125
 2504HO4    HW110014   1.985   8.677   3.034
 2504HO4    HW210015   2.057   8.681   3.168
 2504HO4     MW10016   1.975   8.706   3.125
 2505HO4     OW10017   4.075   8.638   0.273
 2505HO4    HW110018   4.016   8.563   0.288
 2505HO4    HW210019   4.084   8.642   0.178
 2505HO4     MW10020   4.075   8.638   0.273
 2506HO4     OW10021   4.552   3.714   8.548
 2506HO4    HW110022   4.560   3.759   8.634
 2506HO4    HW210023   4.584   3.779   8.485
 2506HO4     MW10024   4.552   3.714   8.548
 2507HO4     OW10025   4.590   8.436   4.447
 2507HO4    HW110026   4.684   8.416   4.445
 2507HO4    HW210027   4.585   8.531   4.434
 2507HO4     MW10028   4.590   8.436   4.447
 2508HO4     OW10029   2.571   5.142   4.337
 2508HO4    HW110030   2.549   5.211   4.401
 2508HO4    HW210031   2.508   5.072   4.355
 2508HO4     MW10032   2.571   5.142   4.337
 2509HO4     OW10033   1.046   5.732   5.470
 2509HO4    HW110034   1.088   5.690   5.394
 2509HO4    HW210035   1.072   5.677   5.544
 2509HO4     MW10036   1.046   5.732   5.470
 2510HO4     OW10037   2.377   4.618   3.863
 2510HO4    HW110038   2.295   4.577   3.836
 2510HO4    HW210039   2.394   4.582   3.951
 2510HO4     MW10040   2.377   4.618   3.863
 2511HO4     OW10041   4.853   4.609   1.258
 2511HO4    HW110042   4.844   4.654   1.342
 2511HO4    HW210043   4.794   4.656   1.199
 2511HO4     MW10044   4.853   4.609   1.258
 2512HO4     OW10045   0.047   0.306   9.976
 2512HO4    HW110046   0.106   0.343   9.909
 2512HO4    HW210047   0.082   0.341  10.059
 2512HO4     MW10048   0.047   0.306   9.976
 2513HO4     OW10049   4.932   7.330   4.181
 2513HO4    HW110050   4.892   7.343   4.267
 2513HO4    HW210051   5.017   7.375   4.186
 2513HO4     MW10052   4.932   7.330   4.181
 2514HO4     OW10053   3.663   1.816   1.423
 2514HO4    HW110054   3.686   1.829   1.516
 2514HO4    HW210055   3.716   1.881   1.376
 2514HO4     MW10056   3.663   1.816   1.423
 2515HO4     OW10057   2.868  10.107   9.163
 2515HO4    HW110058   2.800  10.083   9.100
 2515HO4    HW210059   2.862  10.202   9.170
 2515HO4     MW10060   2.868  10.107   9.163
 2516HO4     OW10061   1.895   7.984   8.522
 2516HO4    HW110062   1.847   8.066   8.539
 2516HO4    HW210063   1.937   7.962   8.605
 2516HO4     MW10064   1.895   7.984   8.522
 2517HO4     OW10065   4.725   2.151   5.522
 2517HO4    HW110066   4.777   2.070   5.521
 2517HO4    HW210067   4.667   2.141   5.598
 2517HO4     MW10068   4.725   2.151   5.522
 2518HO4     OW10069   5.304   4.028   2.733
 2518HO4    HW110070   5.238   4.001   2.798
 2518HO4    HW210071   5.255   4.032   2.650
 2518HO4     MW10072   5.304   4.028   2.733
 2519HO4     OW10073   4.251   9.173   8.946
 2519HO4    HW110074   4.204   9.089   8.952
 2519HO4    HW210075   4.341   9.152   8.971
 2519HO4     MW10076   4.251   9.173   8.946
 2520HO4     OW10077   9.645  10.064   2.152
 2520HO4    HW110078   9.671  10.035   2.064
 2520HO4    HW210079   9.641  10.160   2.145
 2520HO4     MW10080   9.645  10.064   2.152
 2521HO4     OW10081   8.905   2.365   2.131
 2521HO4    HW110082   8.942   2.277   2.120
 2521HO4    HW210083   8.978   2.417   2.166
 2521HO4     MW10084   8.905   2.365   2.131
 2522HO4     OW10085   0.609   7.502   8.465
 2522HO4    HW110086   0.601   7.450   8.546
 2522HO4    HW210087   0.538   7.567   8.472
 2522HO4     MW10088   0.609   7.502   8.465
 2523HO4     OW10089   5.625   8.301   6.921
 2523HO4    HW110090   5.583   8.254   6.993
 2523HO4    HW210091   5.571   8.281   6.844
 2523HO4     MW10092   5.625   8.301   6.921
 2524HO4     OW10093   6.159   4.401   2.913
 2524HO4    HW110094   6.130   4.311   2.895
 2524HO4    HW210095   6.231   4.416   2.850
 2524HO4     MW10096   6.159   4.401   2.913
 2525HO4     OW10097   3.470   9.427   6.427
 2525HO4    HW110098   3.453   9.464   6.339
 2525HO4    HW210099   3.429   9.490   6.487
 2525HO4     MW10100   3.470   9.427   6.427
 2526HO4     OW10101   8.217   7.069   6.940
 2526HO4    HW110102   8.261   7.132   6.883
 2526HO4    HW210103   8.274   7.063   7.017
 2526HO4     MW10104   8.217   7.069   6.940
 2527HO4     OW10105   9.329   6.756   8.943
 2527HO4    HW110106   9.317   6.750   9.039
 2527HO4    HW210107   9.266   6.693   8.907
 2527HO4     MW10108   9.329   6.756   8.943
 2528HO4     OW10109   3.924   3.917   4.227
 2528HO4    HW110110   3.969   3.844   4.183
 2528HO4    HW210111   3.929   3.895   4.320
 2528HO4     MW10112   3.924   3.917   4.227
 2529HO4     OW10113   6.185   7.221   7.882
 2529HO4    HW110114   6.163   7.212   7.789
 2529HO4    HW210115   6.270   7.178   7.891
 2529HO4     MW10116   6.185   7.221   7.882
 2530HO4     OW10117   5.589   6.564   8.584
 2530HO4    HW110118   5.563   6.595   8.671
 2530HO4    HW210119   5.655   6.496   8.601
 2530HO4     MW10120   5.589   6.564   8.584
 2531HO4     OW10121   1.759   2.133   4.023
 2531HO4    HW110122   1.833   2.192   4.043
 2531HO4    HW210123   1.797   2.045   4.026
 2531HO4     MW10124   1.759   2.133   4.023
 2532HO4     OW10125   3.506   6.869   9.029
 2532HO4    HW110126   3.487   6.944   8.971
 2532HO4    HW210127   3.588   6.893   9.073
 2532HO4     MW10128   3.506   6.869   9.029
 2533HO4     OW10129   4.745   2.125   6.878
 2533HO4    HW110130   4.777   2.203   6.924
 2533HO4    HW210131   4.799   2.120   6.798
 2533HO4     MW10132   4.745   2.125   6.878
 2534HO4     OW10133   4.242   1.789   5.413
 2534HO4    HW110134   4.278   1.743   5.489
 2534HO4    HW210135   4.313   1.787   5.348
 2534HO4     MW10136   4.242   1.789   5.413
 2535HO4     OW10137   1.229   9.945   4.440
 2535HO4    HW110138   1.260  10.005   4.508
 2535HO4    HW210139   1.254   9.988   4.357
 2535HO4     MW10140   1.229   9.945   4.440
 2536HO4     OW10141   7.165   4.231   9.736
 2536HO4    HW110142   7.246   4.223   9.685
 2536HO4    HW210143   7.193   4.217   9.827
 2536HO4     MW10144   7.165   4.231   9.736
 2537HO4     OW10145   4.844   1.075   4.144
 2537HO4    HW110146   4.894   1.085   4.062
 2537HO4    HW210147   4.911   1.065   4.212
 2537HO4     MW10148   4.844   1.075   4.144
 2538HO4     OW10149   8.454   9.456   2.707
 2538HO4    HW110150   8.504   9.493   2.633
 2538HO4    HW210151   8.424   9.370   2.674
 2538HO4     MW10152   8.454   9.456   2.707
 2539HO4     OW10153   9.616   5.448   7.870
 2539HO4    HW110154   9.575   5.408   7.948
 2539HO4    HW210155   9.556   5.427   7.798
 2539HO4     MW10156   9.616   5.448   7.870
 2540HO4     OW10157   3.582   2.273   4.344
 2540HO4    HW110158   3.525   2.301   4.416
 2540HO4    HW210159   3.540   2.308   4.265
 2540HO4     MW10160   3.582   2.273   4.344
 2541HO4     OW10161   0.127   4.331   5.513
 2541HO4    HW110162   0.160   4.248   5.548
 2541HO4    HW210163   0.138   4.322   5.418
 2541HO4     MW10164   0.127   4.331   5.513
 2542HO4     OW10165   6.353   8.740   0.572
 2542HO4    HW110166   6.384   8.698   0.492
 2542HO4    HW210167   6.431   8.783   0.608
 2542HO4     MW10168   6.353   8.740   0.572
 2543HO4     OW10169   0.755   5.098   2.909
 2543HO4    HW110170   0.828   5.045   2.874
 2543HO4    HW210171   0.797   5.159   2.970
 2543HO4     MW10172   0.755   5.098   2.909
 2544HO4     OW10173   2.703   6.251   5.990
 2544HO4    HW110174   2.641   6.244   5.917
 2544HO4    HW210175   2.652   6.223   6.067
 2544HO4     MW10176   2.703   6.251   5.990
 2545HO4     OW10177   2.580   3.560   4.711
 2545HO4    HW110178   2.571   3.531   4.620
 2545HO4    HW210179   2.547   3.486   4.764
 2545HO4     MW10180   2.580   3.560   4.711
 2546HO4     OW10181   8.111   3.470   6.462
 2546HO4    HW110182   8.073   3.401   6.406
 2546HO4    HW210183   8.043   3.488   6.528
 2546HO4     MW10184   8.111   3.470   6.462
 2547HO4     OW10185   3.113   7.244   5.670
 2547HO4    HW110186   3.172   7.279   5.738
 2547HO4    HW210187   3.152   7.159   5.647
 2547HO4     MW10188   3.113   7.244   5.670
 2548HO4     OW10189   8.721   3.541   2.469
 2548HO4    HW110190   8.767   3.548   2.384
 2548HO4    HW210191   8.786   3.503   2.528
 2548HO4     MW10192   8.721   3.541   2.469
 2549HO4     OW10193   7.111   3.171   5.914
 2549HO4    HW110194   7.141   3.254   5.952
 2549HO4    HW210195   7.071   3.196   5.831
 2549HO4     MW10196   7.111   3.171   5.914
 2550HO4     OW10197   9.369   7.983   0.235
 2550HO4    HW110198   9.382   7.957   0.143
 2550HO4    HW210199   9.394   7.906   0.286
 2550HO4     MW10200   9.369   7.983   0.235
 2551HO4     OW10201   4.206   9.767   0.712
 2551HO4    HW110202   4.216   9.863   0.710
 2551HO4    HW210203   4.220   9.743   0.804
 2551HO4     MW10204   4.206   9.767   0.712
 2552HO4     OW10205   3.640   0.959   1.862
 2552HO4    HW110206   3.572   0.900   1.896
 2552HO4    HW210207   3.698   0.974   1.937
 2552HO4     MW10208   3.640   0.959   1.862
 2553HO4     OW10209   0.636   0.863   8.502
 2553HO4    HW110210   0.650   0.797   8.570
 2553HO4    HW210211   0.592   0.815   8.430
 2553HO4     MW10212   0.636   0.863   8.502
 2554HO4     OW10213   5.725   8.728   5.022
 2554HO4    HW110214   5.784   8.724   5.098
 2554HO4    HW210215   5.741   8.816   4.985
 2554HO4     MW10216   5.725   8.728   5.022
 2555HO4     OW10217   3.076   8.742   8.914
 2555HO4    HW110218   3.159   8.778   8.946
 2555HO4    HW210219   3.042   8.690   8.988
 2555HO4     MW10220   3.076   8.742   8.914
 2556HO4     OW10221   1.450   7.426   4.514
 2556HO4    HW110222   1.516   7.362   4.488
 2556HO4    HW210223   1.449   7.491   4.443
 2556HO4     MW10224   1.450   7.426   4.514
 2557HO4     OW10225   3.858   7.998   2.836
 2557HO4    HW110226   3.891   8.051   2.910
 2557HO4    HW210227   3.900   8.036   2.759
 2557HO4     MW10228   3.858   7.998   2.836
 2558HO4     OW10229   3.746   1.022   5.485
 2558HO4    HW110230   3.724   1.112   5.511
 2558HO4    HW210231   3.674   0.969   5.520
 2558HO4     MW10232   3.746   1.022   5.485
 2559HO4     OW10233   1.072   9.320   2.207
 2559HO4    HW110234   1.128   9.297   2.282
 2559HO4    HW210235   1.127   9.306   2.130
 2559HO4     MW10236   1.072   9.320   2.207
 2560HO4     OW10237   2.565   7.920   0.771
 2560HO4    HW110238   2.636   7.860   0.745
 2560HO4    HW210239   2.486   7.884   0.729
 2560HO4     MW10240   2.565   7.920   0.771
 2561HO4     OW10241   3.236   8.778   0.423
 2561HO4    HW110242   3.237   8.809   0.514
 2561HO4    HW210243   3.315   8.815   0.384
 2561HO4     MW10244   3.236   8.778   0.423
 2562HO4     OW10245   9.518   7.408   9.080
 2562HO4    HW110246   9.428   7.400   9.047
 2562HO4    HW210247   9.512   7.381   9.172
 2562HO4     MW10248   9.518   7.408   9.080
 2563HO4     OW10249   7.545   7.774   9.883
 2563HO4    HW110250   7.542   7.832   9.806
 2563HO4    HW210251   7.591   7.826   9.950
 2563HO4     MW10252   7.545   7.774   9.883
 2564HO4     OW10253   1.678   6.662   3.616
 2564HO4    HW110254   1.686   6.567   3.622
 2564HO4    HW210255   1.636   6.678   3.531
 2564HO4     MW10256   1.678   6.662   3.616
 2565HO4     OW10257   7.459   0.739   3.548
 2565HO4    HW110258   7.534   0.711   3.601
 2565HO4    HW210259   7.430   0.658   3.504
 2565HO4     MW10260   7.459   0.739   3.548
 2566HO4     OW10261   5.025   7.675   6.568
 2566HO4    HW110262   5.085   7.633   6.631
 2566HO4    HW210263   4.953   7.708   6.622
 2566HO4     MW10264   5.025   7.675   6.568
 2567HO4     OW10265   6.893   6.716   1.588
 2567HO4    HW110266   6.972   6.700   1.534
 2567HO4    HW210267   6.896   6.811   1.607
 2567HO4     MW10268   6.893   6.716   1.588
 2568HO4     OW10269   8.492   8.506   5.259
 2568HO4    HW110270   8.429   8.567   5.220
 2568HO4    HW210271   8.577   8.551   5.251
 2568HO4     MW10272   8.492   8.506   5.259
 2569HO4     OW10273   2.219   1.481   1.296
 2569HO4    HW110274   2.255   1.401   1.335
 2569HO4    HW210275   2.297   1.533   1.273
 2569HO4     MW10276   2.219   1.481   1.296
 2570HO4     OW10277   7.272   8.616   1.869
 2570HO4    HW110278   7.251   8.566   1.791
 2570HO4    HW210279   7.194   8.670   1.886
 2570HO4     MW10280   7.272   8.616   1.869
 2571HO4     OW10281  10.014   6.918   0.202
 2571HO4    HW110282   9.940   6.977   0.220
 2571HO4    HW210283   9.991   6.836   0.247
 2571HO4     MW10284  10.014   6.918   0.202
 2572HO4     OW10285   7.109   3.314   9.479
 2572HO4    HW110286   7.040   3.360   9.527
 2572HO4    HW210287   7.191   3.354   9.510
 2572HO4     MW10288   7.109   3.314   9.479
 2573HO4     OW10289  10.079   2.386   3.519
 2573HO4    HW110290  10.124   2.347   3.595
 2573HO4    HW210291  10.139   2.370   3.445
 2573HO4     MW10292  10.079   2.386   3.519
 2574HO4     OW10293   6.140   9.201   5.856
 2574HO4    HW110294   6.193   9.282   5.852
 2574HO4    HW210295   6.098   9.204   5.942
 2574HO4     MW10296   6.140   9.201   5.856
 2575HO4     OW10297   1.773   7.330   0.969
 2575HO4    HW110298   1.844   7.388   1.000
 2575HO4    HW210299   1.726   7.383   0.904
 2575HO4     MW10300   1.773   7.330   0.969
 2576HO4     OW10301   6.223   1.247   0.983
 2576HO4    HW110302   6.196   1.228   1.073
 2576HO4    HW210303   6.319   1.250   0.987
 2576HO4     MW10304   6.223   1.247   0.983
 2577HO4     OW10305   6.309   8.178   6.083
 2577HO4    HW110306   6.314   8.169   5.987
 2577HO4    HW210307   6.339   8.093   6.116
 2577HO4     MW10308   6.309   8.178   6.083
 2578HO4     OW10309   3.321   1.881   8.793
 2578HO4    HW110310   3.353   1.965   8.826
 2578HO4    HW210311   3.309   1.827   8.872
 2578HO4     MW10312   3.321   1.881   8.793
 2579HO4     OW10313   9.025   6.364   9.787
 2579HO4    HW110314   9.098   6.339   9.729
 2579HO4    HW210315   9.029   6.300   9.859
 2579HO4     MW10316   9.025   6.364   9.787
 2580HO4     OW10317   8.328   1.822   4.857
 2580HO4    HW110318   8.273   1.768   4.799
 2580HO4    HW210319   8.267   1.855   4.924
 2580HO4     MW10320   8.328   1.822   4.857
 2581HO4     OW10321   7.236   7.471   2.987
 2581HO4    HW110322   7.285   7.524   3.051
 2581HO4    HW210323   7.251   7.516   2.903
 2581HO4     MW10324   7.236   7.471   2.987
 2582HO4     OW10325   5.286   1.910   0.793
 2582HO4    HW110326   5.323   1.839   0.741
 2582HO4    HW210327   5.291   1.878   0.884
 2582HO4     MW10328   5.286   1.910   0.793
 2583HO4     OW10329   3.751   2.189   2.244
 2583HO4    HW110330   3.657   2.206   2.256
 2583HO4    HW210331   3.758   2.149   2.157
 2583HO4     MW10332   3.751   2.189   2.244
 2584HO4     OW10333   7.473   2.746   4.671
 2584HO4    HW110334   7.410   2.680   4.640
 2584HO4    HW210335   7.509   2.784   4.590
 2584HO4     MW10336   7.473   2.746   4.671
 2585HO4     OW10337   1.839   0.759   7.280
 2585HO4    HW110338   1.811   0.676   7.319
 2585HO4    HW210339   1.854   0.738   7.187
 2585HO4     MW10340   1.839   0.759   7.280
 2586HO4     OW10341   7.370   1.195   8.282
 2586HO4    HW110342   7.383   1.100   8.295
 2586HO4    HW210343   7.349   1.228   8.369
 2586HO4     MW10344   7.370   1.195   8.282
 2587HO4     OW10345   5.284   5.576   8.108
 2587HO4    HW110346   5.322   5.653   8.064
 2587HO4    HW210347   5.273   5.603   8.199
 2587HO4     MW10348   5.284   5.576   8.108
 2588HO4     OW10349   8.068   8.019   5.143
 2588HO4    HW110350   8.051   8.038   5.236
 2588HO4    HW210351   8.140   8.079   5.119
 2588HO4     MW10352   8.068   8.019   5.143
 2589HO4     OW10353   7.305   8.246   0.627
 2589HO4    HW110354   7.338   8.329   0.591
 2589HO4    HW210355   7.336   8.179   0.565
 2589HO4     MW10356   7.305   8.246   0.627
 2590HO4     OW10357   7.516   6.353   9.390
 2590HO4    HW110358   7.458   6.279   9.413
 2590HO4    HW210359   7.575   6.361   9.465
 2590HO4     MW10360   7.516   6.353   9.390
 2591HO4     OW10361   0.317   0.731   1.365
 2591HO4    HW110362   0.378   0.672   1.409
 2591HO4    HW210363   0.373   0.784   1.306
 2591HO4     MW10364   0.317   0.731   1.365
 2592HO4     OW10365   3.935   3.329   6.147
 2592HO4    HW110366   3.870   3.351   6.079
 2592HO4    HW210367   3.957   3.414   6.186
 2592HO4     MW10368   3.935   3.329   6.147
 2593HO4     OW10369   7.768   3.626   5.632
 2593HO4    HW110370   7.739   3.631   5.723
 2593HO4    HW210371   7.695   3.662   5.581
 2593HO4     MW10372   7.768   3.626   5.632
 2594HO4     OW10373   6.202   5.553   3.672
 2594HO4    HW110374   6.158   5.516   3.748
 2594HO4    HW210375   6.155   5.516   3.596
 2594HO4     MW10376   6.202   5.553   3.672
 2595HO4     OW10377   1.199   7.507   6.453
 2595HO4    HW110378   1.211   7.425   6.503
 2595HO4    HW210379   1.289   7.538   6.435
 2595HO4     MW10380   1.199   7.507   6.453
 2596HO4     OW10381   6.598   9.550   2.042
 2596HO4    HW110382   6.656   9.506   2.105
 2596HO4    HW210383   6.606   9.643   2.064
 2596HO4     MW10384   6.598   9.550   2.042
 2597HO4     OW10385   6.125   4.349   7.186
 2597HO4    HW110386   6.043   4.306   7.211
 2597HO4    HW210387   6.135   4.328   7.092
 2597HO4     MW10388   6.125   4.349   7.186
 2598HO4     OW10389   9.526   5.865   6.113
 2598HO4    HW110390   9.540   5.902   6.025
 2598HO4    HW210391   9.485   5.937   6.162
 2598HO4     MW10392   9.526   5.865   6.113
 2599HO4     OW10393   4.774   8.647   2.380
 2599HO4    HW110394   4.824   8.565   2.373
 2599HO4    HW210395   4.831   8.713   2.340
 2599HO4     MW10396   4.774   8.647   2.380
 2600HO4     OW10397   8.573   1.044   4.537
 2600HO4    HW110398   8.523   1.005   4.465
 2600HO4    HW210399   8.649   0.986   4.547
 2600HO4     MW10400   8.573   1.044   4.537
 2601HO4     OW10401   2.863   0.082   3.330
 2601HO4    HW110402   2.873   0.176   3.347
 2601HO4    HW210403   2.861   0.075   3.234
 2601HO4     MW10404   2.863   0.082   3.330
 2602HO4     OW10405   4.828   3.913   5.486
 2602HO4    HW110406   4.801   3.823   5.501
 2602HO4    HW210407   4.772   3.966   5.544
 2602HO4     MW10408   4.828   3.913   5.486
 2603HO4     OW10409   7.640   2.871   6.865
 2603HO4    HW110410   7.674   2.896   6.778
 2603HO4    HW210411   7.588   2.947   6.893
 2603HO4     MW10412   7.640   2.871   6.865
 2604HO4     OW10413   7.501   0.009   5.444
 2604HO4    HW110414   7.434   0.020   5.375
 2604HO4    HW210415   7.451   0.008   5.526
 2604HO4     MW10416   7.501   0.009   5.444
 2605HO4     OW10417   8.863   1.681   4.582
 2605HO4    HW110418   8.812   1.603   4.560
 2605HO4    HW210419   8.821   1.752   4.533
 2605HO4     MW10420   8.863   1.681   4.582
 2606HO4     OW10421   4.561   9.228   6.421
 2606HO4    HW110422   4.615   9.156   6.455
 2606HO4    HW210423   4.625   9.290   6.385
 2606HO4     MW10424   4.561   9.228   6.421
 2607HO4     OW10425   5.194   3.946   6.030
 2607HO4    HW110426   5.240   3.883   6.086
 2607HO4    HW210427   5.257   3.965   5.960
 2607HO4     MW10428   5.194   3.946   6.030
 2608HO4     OW10429   1.573   4.737   9.525
 2608HO4    HW110430   1.579   4.681   9.603
 2608HO4    HW210431   1.577   4.676   9.451
 2608HO4     MW10432   1.573   4.737   9.525
 2609HO4     OW10433   8.971   4.741   9.057
 2609HO4    HW110434   8.987   4.699   8.972
 2609HO4    HW210435   8.892   4.696   9.091
 2609HO4     MW10436   8.971   4.741   9.057
 2610HO4     OW10437   6.993   6.336   2.489
 2610HO4    HW110438   6.925   6.403   2.504
 2610HO4    HW210439   7.064   6.359   2.549
 2610HO4     MW10440   6.993   6.336   2.489
 2611HO4     OW10441   4.106   2.249  10.044
 2611HO4    HW110442   4.158   2.270  10.123
 2611HO4    HW210443   4.163   2.273   9.971
 2611HO4     MW10444   4.106   2.249  10.044
 2612HO4     OW10445   7.440   9.501   6.884
 2612HO4    HW110446   7.363   9.443   6.885
 2612HO4    HW210447   7.472   9.498   6.793
 2612HO4     MW10448   7.440   9.501   6.884
 2613HO4     OW10449   9.940   5.379   0.129
 2613HO4    HW110450   9.869   5.335   0.081
 2613HO4    HW210451   9.959   5.320   0.202
 2613HO4     MW10452   9.940   5.379   0.129
 2614HO4     OW10453   3.768   7.500   4.366
 2614HO4    HW110454   3.840   7.490   4.304
 2614HO4    HW210455   3.690   7.471   4.317
 2614HO4     MW10456   3.768   7.500   4.366
 2615HO4     OW10457   8.134   9.051   3.247
 2615HO4    HW110458   8.093   8.966   3.230
 2615HO4    HW210459   8.193   9.035   3.322
 2615HO4     MW10460   8.134   9.051   3.247
 2616HO4     OW10461   5.161   5.890   2.919
 2616HO4    HW110462   5.253   5.885   2.893
 2616HO4    HW210463   5.153   5.976   2.962
 2616HO4     MW10464   5.161   5.890   2.919
 2617HO4     OW10465   8.470   9.890   1.576
 2617HO4    HW110466   8.539   9.919   1.637
 2617HO4    HW210467   8.516   9.880   1.492
 2617HO4     MW10468   8.470   9.890   1.576
 2618HO4     OW10469   9.659   3.652   9.584
 2618HO4    HW110470   9.621   3.667   9.671
 2618HO4    HW210471   9.587   3.615   9.532
 2618HO4     MW10472   9.659   3.652   9.584
 2619HO4     OW10473   3.942   9.895   1.210
 2619HO4    HW110474   3.930   9.811   1.256
 2619HO4    HW210475   4.027   9.928   1.241
 2619HO4     MW10476   3.942   9.895   1.210
 2620HO4     OW10477   6.667   0.953   6.542
 2620HO4    HW110478   6.718   0.874   6.521
 2620HO4    HW210479   6.679   0.964   6.637
 2620HO4     MW10480   6.667   0.953   6.542
 2621HO4     OW10481   3.322   1.914   4.515
 2621HO4    HW110482   3.328   2.008   4.497
 2621HO4    HW210483   3.373   1.872   4.445
 2621HO4     MW10484   3.322   1.914   4.515
 2622HO4     OW10485   1.050   1.981   8.877
 2622HO4    HW110486   1.125   1.928   8.907
 2622HO4    HW210487   1.090   2.057   8.834
 2622HO4     MW10488   1.050   1.981   8.877
 2623HO4     OW10489  10.055   5.789   5.308
 2623HO4    HW110490  10.069   5.805   5.214
 2623HO4    HW210491  10.144   5.787   5.345
 2623HO4     MW10492  10.055   5.789   5.308
 2624HO4     OW10493   7.724   7.451   9.968
 2624HO4    HW110494   7.769   7.396   9.902
 2624HO4    HW210495   7.770   7.432  10.050
 2624HO4     MW10496   7.724   7.451   9.968
 2625HO4     OW10497   3.811   7.201   8.493
 2625HO4    HW110498   3.793   7.247   8.411
 2625HO4    HW210499   3.776   7.259   8.562
 2625HO4     MW10500   3.811   7.201   8.493
 2626HO4     OW10501   4.486   1.606   0.871
 2626HO4    HW110502   4.449   1.654   0.796
 2626HO4    HW210503   4.409   1.586   0.926
 2626HO4     MW10504   4.486   1.606   0.871
 2627HO4     OW10505   8.507   0.845   8.719
 2627HO4    HW110506   8.498   0.769   8.777
 2627HO4    HW210507   8.508   0.808   8.630
 2627HO4     MW10508   8.507   0.845   8.719
 2628HO4     OW10509   0.038  10.155   7.671
 2628HO4    HW110510  -0.027  10.144   7.601
 2628HO4    HW210511  -0.012  10.139   7.752
 2628HO4     MW10512   0.038  10.155   7.671
 2629HO4     OW10513   1.517   9.084   5.851
 2629HO4    HW110514   1.478   9.054   5.934
 2629HO4    HW210515   1.463   9.043   5.783
 2629HO4     MW10516   1.517   9.084   5.851
 2630HO4     OW10517   0.045   0.202   6.331
 2630HO4    HW110518   0.024   0.119   6.286
 2630HO4    HW210519   0.010   0.270   6.273
 2630HO4     MW10520   0.045   0.202   6.331
 2631HO4     OW10521   3.107   7.485   9.579
 2631HO4    HW110522   3.031   7.544   9.580
 2631HO4    HW210523   3.131   7.478   9.487
 2631HO4     MW10524   3.107   7.485   9.579
 2632HO4     OW10525   6.300   6.339   9.061
 2632HO4    HW110526   6.396   6.344   9.049
 2632HO4    HW210527   6.280   6.246   9.050
 2632HO4     MW10528   6.300   6.339   9.061
 2633HO4     OW10529   3.201   4.153   3.222
 2633HO4    HW110530   3.152   4.210   3.162
 2633HO4    HW210531   3.140   4.080   3.240
 2633HO4     MW10532   3.201   4.153   3.222
 2634HO4     OW10533   9.528   8.517   2.739
 2634HO4    HW110534   9.545   8.501   2.832
 2634HO4    HW210535   9.487   8.604   2.736
 2634HO4     MW10536   9.528   8.517   2.739
 2635HO4     OW10537   8.408   4.623   3.702
 2635HO4    HW110538   8.325   4.662   3.671
 2635HO4    HW210539   8.455   4.601   3.621
 2635HO4     MW10540   8.408   4.623   3.702
 2636HO4     OW10541   5.749   2.118   0.904
 2636HO4    HW110542   5.738   2.170   0.984
 2636HO4    HW210543   5.719   2.176   0.834
 2636HO4     MW10544   5.749   2.118   0.904
 2637HO4     OW10545   5.446   4.496   8.852
 2637HO4    HW110546   5.479   4.572   8.803
 2637HO4    HW210547   5.457   4.521   8.944
 2637HO4     MW10548   5.446   4.496   8.852
 2638HO4     OW10549   9.739   0.361   2.708
 2638HO4    HW110550   9.793   0.353   2.787
 2638HO4    HW210551   9.786   0.309   2.642
 2638HO4     MW10552   9.739   0.361   2.708
 2639HO4     OW10553   6.611   3.696   3.032
 2639HO4    HW110554   6.594   3.788   3.054
 2639HO4    HW210555   6.674   3.699   2.959
 2639HO4     MW10556   6.611   3.696   3.032
 2640HO4     OW10557   9.241   5.528   5.233
 2640HO4    HW110558   9.234   5.438   5.266
 2640HO4    HW210559   9.195   5.581   5.298
 2640HO4     MW10560   9.241   5.528   5.233
 2641HO4     OW10561   7.626   3.597   5.905
 2641HO4    HW110562   7.683   3.540   5.852
 2641HO4    HW210563   7.656   3.686   5.884
 2641HO4     MW10564   7.626   3.597   5.905
 2642HO4     OW10565   6.349   5.408   0.455
 2642HO4    HW110566   6.444   5.406   0.440
 2642HO4    HW210567   6.319   5.487   0.408
 2642HO4     MW10568   6.349   5.408   0.455
 2643HO4     OW10569   3.234   8.645   8.195
 2643HO4    HW110570   3.234   8.590   8.116
 2643HO4    HW210571   3.187   8.725   8.169
 2643HO4     MW10572   3.234   8.645   8.195
 2644HO4     OW10573   3.223   6.628   5.318
 2644HO4    HW110574   3.142   6.585   5.349
 2644HO4    HW210575   3.292   6.592   5.375
 2644HO4     MW10576   3.223   6.628   5.318
 2645HO4     OW10577   5.021   5.160   5.500
 2645HO4    HW110578   5.036   5.170   5.594
 2645HO4    HW210579   4.955   5.090   5.493
 2645HO4     MW10580   5.021   5.160   5.500
 2646HO4     OW10581   8.067   6.760   2.679
 2646HO4    HW110582   8.086   6.684   2.734
 2646HO4    HW210583   8.153   6.793   2.653
 2646HO4     MW10584   8.067   6.760   2.679
 2647HO4     OW10585   1.866   9.945   2.104
 2647HO4    HW110586   1.855   9.854   2.077
 2647HO4    HW210587   1.813   9.953   2.184
 2647HO4     MW10588   1.866   9.945   2.104
 2648HO4     OW10589   5.437   4.407   0.758
 2648HO4    HW110590   5.374   4.477   0.775
 2648HO4    HW210591   5.428   4.348   0.834
 2648HO4     MW10592   5.437   4.407   0.758
 2649HO4     OW10593   4.176   4.718   6.626
 2649HO4    HW110594   4.181   4.657   6.701
 2649HO4    HW210595   4.124   4.671   6.561
 2649HO4     MW10596   4.176   4.718   6.626
 2650HO4     OW10597   2.207   0.332   0.481
 2650HO4    HW110598   2.247   0.414   0.451
 2650HO4    HW210599   2.217   0.334   0.577
 2650HO4     MW10600   2.207   0.332   0.481
 2651HO4     OW10601   8.973   2.435   1.851
 2651HO4    HW110602   9.067   2.421   1.864
 2651HO4    HW210603   8.934   2.349   1.870
 2651HO4     MW10604   8.973   2.435   1.851
 2652HO4     OW10605   7.272   0.344   5.277
 2652HO4    HW110606   7.353   0.348   5.225
 2652HO4    HW210607   7.220   0.275   5.234
 2652HO4     MW10608   7.272   0.344   5.277
 2653HO4     OW10609   3.247   8.957   9.022
 2653HO4    HW110610   3.270   9.038   8.975
 2653HO4    HW210611   3.194   8.988   9.097
 2653HO4     MW10612   3.247   8.957   9.022
 2654HO4     OW10613   3.779   6.896   6.766
 2654HO4    HW110614   3.701   6.846   6.790
 2654HO4    HW210615   3.810   6.854   6.685
 2654HO4     MW10616   3.779   6.896   6.766
 2655HO4     OW10617   7.700   5.252   1.061
 2655HO4    HW110618   7.681   5.234   0.969
 2655HO4    HW210619   7.692   5.347   1.070
 2655HO4     MW10620   7.700   5.252   1.061
 2656HO4     OW10621   4.897   2.879   6.073
 2656HO4    HW110622   4.870   2.856   6.163
 2656HO4    HW210623   4.817   2.867   6.020
 2656HO4     MW10624   4.897   2.879   6.073
 2657HO4     OW10625   1.701   3.470   9.287
 2657HO4    HW110626   1.656   3.445   9.206
 2657HO4    HW210627   1.642   3.441   9.357
 2657HO4     MW10628   1.701   3.470   9.287
 2658HO4     OW10629   9.953   2.015   8.926
 2658HO4    HW110630  10.045   2.038   8.911
 2658HO4    HW210631   9.909   2.100   8.940
 2658HO4     MW10632   9.953   2.015   8.926
 2659HO4     OW10633   1.202   9.004   9.929
 2659HO4    HW110634   1.284   8.973   9.968
 2659HO4    HW210635   1.195   8.955   9.847
 2659HO4     MW10636   1.202   9.004   9.929
 2660HO4     OW10637   6.012   5.815   3.350
 2660HO4    HW110638   6.076   5.789   3.283
 2660HO4    HW210639   6.043   5.901   3.380
 2660HO4     MW10640   6.012   5.815   3.350
 2661HO4     OW10641   2.199   7.795   6.474
 2661HO4    HW110642   2.257   7.783   6.550
 2661HO4    HW210643   2.238   7.739   6.406
 2661HO4     MW10644   2.199   7.795   6.474
 2662HO4     OW10645   8.802   5.200   1.482
 2662HO4    HW110646   8.764   5.173   1.398
 2662HO4    HW210647   8.824   5.117   1.526
 2662HO4     MW10648   8.802   5.200   1.482
 2663HO4     OW10649   1.958   8.902   8.576
 2663HO4    HW110650   1.958   8.985   8.624
 2663HO4    HW210651   1.921   8.924   8.490
 2663HO4     MW10652   1.958   8.902   8.576
 2664HO4     OW10653   4.794   3.476   0.249
 2664HO4    HW110654   4.726   3.535   0.283
 2664HO4    HW210655   4.748   3.423   0.183
 2664HO4     MW10656   4.794   3.476   0.249
 2665HO4     OW10657   6.347   8.074   9.932
 2665HO4    HW110658   6.290   8.000   9.908
 2665HO4    HW210659   6.382   8.105   9.848
 2665HO4     MW10660   6.347   8.074   9.932
 2666HO4     OW10661   6.641   5.887   9.723
 2666HO4    HW110662   6.553   5.927   9.728
 2666HO4    HW210663   6.624   5.793   9.726
 2666HO4     MW10664   6.641   5.887   9.723
 2667HO4     OW10665   5.188   9.234   0.734
 2667HO4    HW110666   5.214   9.160   0.790
 2667HO4    HW210667   5.235   9.219   0.652
 2667HO4     MW10668   5.188   9.234   0.734
 2668HO4     OW10669   3.665   6.527   9.358
 2668HO4    HW110670   3.610   6.463   9.403
 2668HO4    HW210671   3.612   6.554   9.282
 2668HO4     MW10672   3.665   6.527   9.358
 2669HO4     OW10673   6.837   2.585   9.303
 2669HO4    HW110674   6.875   2.662   9.260
 2669HO4    HW210675   6.862   2.593   9.395
 2669HO4     MW10676   6.837   2.585   9.303
 2670HO4     OW10677   5.651   7.694   4.471
 2670HO4    HW110678   5.676   7.668   4.382
 2670HO4    HW210679   5.630   7.788   4.463
 2670HO4     MW10680   5.651   7.694   4.471
 2671HO4     OW10681   8.853   9.342   7.973
 2671HO4    HW110682   8.863   9.405   8.045
 2671HO4    HW210683   8.822   9.396   7.899
 2671HO4     MW10684   8.853   9.342   7.973
 2672HO4     OW10685   3.883   9.296   0.461
 2672HO4    HW110686   3.789   9.318   0.463
 2672HO4    HW210687   3.911   9.321   0.372
 2672HO4     MW10688   3.883   9.296   0.461
 2673HO4     OW10689   2.094   6.057   6.115
 2673HO4    HW110690   2.107   6.113   6.192
 2673HO4    HW210691   2.140   6.104   6.044
 2673HO4     MW10692   2.094   6.057   6.115
 2674HO4     OW10693   2.366   8.561   7.727
 2674HO4    HW110694   2.447   8.595   7.689
 2674HO4    HW210695   2.305   8.555   7.653
 2674HO4     MW10696   2.366   8.561   7.727
 2675HO4     OW10697   4.517   0.244   9.989
 2675HO4    HW110698   4.560   0.179  10.046
 2675HO4    HW210699   4.484   0.193   9.915
 2675HO4     MW10700   4.517   0.244   9.989
 2676HO4     OW10701   8.869   1.581   7.622
 2676HO4    HW110702   8.955   1.620   7.602
 2676HO4    HW210703   8.865   1.503   7.566
 2676HO4     MW10704   8.869   1.581   7.622
 2677HO4     OW10705   9.277   8.530   0.384
 2677HO4    HW110706   9.264   8.469   0.311
 2677HO4    HW210707   9.202   8.590   0.378
 2677HO4     MW10708   9.277   8.530   0.384
 2678HO4     OW10709   1.091   8.440   3.176
 2678HO4    HW110710   1.130   8.405   3.257
 2678HO4    HW210711   1.077   8.361   3.121
 2678HO4     MW10712   1.091   8.440   3.176
 2679HO4     OW10713   8.328   2.148   0.991
 2679HO4    HW110714   8.254   2.208   0.976
 2679HO4    HW210715   8.291   2.060   0.980
 2679HO4     MW10716   8.328   2.148   0.991
 2680HO4     OW10717   8.215   1.267   4.824
 2680HO4    HW110718   8.185   1.354   4.853
 2680HO4    HW210719   8.155   1.206   4.868
 2680HO4     MW10720   8.215   1.267   4.824
 2681HO4     OW10721   9.720   6.964   2.473
 2681HO4    HW110722   9.784   6.909   2.426
 2681HO4    HW210723   9.649   6.977   2.409
 2681HO4     MW10724   9.720   6.964   2.473
 2682HO4     OW10725   8.340   9.736   6.254
 2682HO4    HW110726   8.265   9.753   6.196
 2682HO4    HW210727   8.372   9.823   6.279
 2682HO4     MW10728   8.340   9.736   6.254
 2683HO4     OW10729  -0.011   3.714   3.462
 2683HO4    HW110730  -0.038   3.640   3.407
 2683HO4    HW210731   0.076   3.690   3.495
 2683HO4     MW10732  -0.011   3.714   3.462
 2684HO4     OW10733   1.365   2.637   2.646
 2684HO4    HW110734   1.374   2.699   2.573
 2684HO4    HW210735   1.380   2.691   2.725
 2684HO4     MW10736   1.365   2.637   2.646
 2685HO4     OW10737   6.192   8.778   0.238
 2685HO4    HW110738   6.150   8.807   0.156
 2685HO4    HW210739   6.282   8.811   0.231
 2685HO4     MW10740   6.192   8.778   0.238
 2686HO4     OW10741   4.977   6.044   1.563
 2686HO4    HW110742   4.940   6.121   1.519
 2686HO4    HW210743   5.034   6.081   1.631
 2686HO4     MW10744   4.977   6.044   1.563
 2687HO4     OW10745   7.850   7.540   7.364
 2687HO4    HW110746   7.901   7.538   7.283
 2687HO4    HW210747   7.826   7.632   7.375
 2687HO4     MW10748   7.850   7.540   7.364
 2688HO4     OW10749   6.416   2.812   8.201
 2688HO4    HW110750   6.353   2.769   8.259
 2688HO4    HW210751   6.476   2.741   8.174
 2688HO4     MW10752   6.416   2.812   8.201
 2689HO4     OW10753   5.325   7.337   3.538
 2689HO4    HW110754   5.376   7.410   3.502
 2689HO4    HW210755   5.270   7.307   3.464
 2689HO4     MW10756   5.325   7.337   3.538
 2690HO4     OW10757   7.401   5.016   2.834
 2690HO4    HW110758   7.442   5.082   2.892
 2690HO4    HW210759   7.410   5.053   2.746
 2690HO4     MW10760   7.401   5.016   2.834
 2691HO4     OW10761   8.368   8.568   1.221
 2691HO4    HW110762   8.403   8.607   1.301
 2691HO4    HW210763   8.282   8.609   1.210
 2691HO4     MW10764   8.368   8.568   1.221
 2692HO4     OW10765   4.786   5.037   2.249
 2692HO4    HW110766   4.838   5.089   2.186
 2692HO4    HW210767   4.836   5.042   2.331
 2692HO4     MW10768   4.786   5.037   2.249
 2693HO4     OW10769   5.660   5.147   8.743
 2693HO4    HW110770   5.657   5.206   8.819
 2693HO4    HW210771   5.646   5.205   8.668
 2693HO4     MW10772   5.660   5.147   8.743
 2694HO4     OW10773   3.345   7.249   1.002
 2694HO4    HW110774   3.404   7.255   1.078
 2694HO4    HW210775   3.397   7.285   0.929
 2694HO4     MW10776   3.345   7.249   1.002
 2695HO4     OW10777   7.496   4.918  10.006
 2695HO4    HW110778   7.429   4.888   9.943
 2695HO4    HW210779   7.511   4.841  10.062
 2695HO4     MW10780   7.496   4.918  10.006
 2696HO4     OW10781   3.728   5.643   7.243
 2696HO4    HW110782   3.708   5.654   7.336
 2696HO4    HW210783   3.730   5.547   7.230
 2696HO4     MW10784   3.728   5.643   7.243
 2697HO4     OW10785   2.745   7.847   4.420
 2697HO4    HW110786   2.831   7.821   4.386
 2697HO4    HW210787   2.727   7.931   4.377
 2697HO4     MW10788   2.745   7.847   4.420
 2698HO4     OW10789   5.252   4.780   1.530
 2698HO4    HW110790   5.334   4.730   1.528
 2698HO4    HW210791   5.202   4.746   1.455
 2698HO4     MW10792   5.252   4.780   1.530
 2699HO4     OW10793   1.076   4.791   8.129
 2699HO4    HW110794   1.034   4.756   8.208
 2699HO4    HW210795   1.054   4.727   8.061
 2699HO4     MW10796   1.076   4.791   8.129
 2700HO4     OW10797   3.173   6.562   8.348
 2700HO4    HW110798   3.234   6.577   8.275
 2700HO4    HW210799   3.189   6.471   8.374
 2700HO4     MW10800   3.173   6.562   8.348
 2701HO4     OW10801   8.049   7.490   4.359
 2701HO4    HW110802   8.074   7.548   4.432
 2701HO4    HW210803   7.963   7.523   4.332
 2701HO4     MW10804   8.049   7.490   4.359
 2702HO4     OW10805   6.333   9.734   3.656
 2702HO4    HW110806   6.336   9.793   3.580
 2702HO4    HW210807   6.326   9.793   3.731
 2702HO4     MW10808   6.333   9.734   3.656
 2703HO4     OW10809   4.056   6.718   0.904
 2703HO4    HW110810   4.054   6.768   0.822
 2703HO4    HW210811   4.050   6.785   0.973
 2703HO4     MW10812   4.056   6.718   0.904
 2704HO4     OW10813   9.557   1.994   8.732
 2704HO4    HW110814   9.537   2.048   8.655
 2704HO4    HW210815   9.543   2.054   8.806
 2704HO4     MW10816   9.557   1.994   8.732
 2705HO4     OW10817   2.553   2.122   2.236
 2705HO4    HW110818   2.596   2.112   2.151
 2705HO4    HW210819   2.585   2.206   2.270
 2705HO4     MW10820   2.553   2.122   2.236
 2706HO4     OW10821   3.205   9.319   1.343
 2706HO4    HW110822   3.184   9.395   1.398
 2706HO4    HW210823   3.233   9.356   1.259
 2706HO4     MW10824   3.205   9.319   1.343
 2707HO4     OW10825   7.497   7.111   1.541
 2707HO4    HW110826   7.521   7.204   1.543
 2707HO4    HW210827   7.467   7.097   1.450
 2707HO4     MW10828   7.497   7.111   1.541
 2708HO4     OW10829   8.588   9.323   4.077
 2708HO4    HW110830   8.647   9.306   4.151
 2708HO4    HW210831   8.643   9.309   3.999
 2708HO4     MW10832   8.588   9.323   4.077
 2709HO4     OW10833   1.957   5.700   7.930
 2709HO4    HW110834   1.988   5.660   8.011
 2709HO4    HW210835   1.946   5.793   7.952
 2709HO4     MW10836   1.957   5.700   7.930
 2710HO4     OW10837   8.900   0.084   9.465
 2710HO4    HW110838   8.844   0.101   9.542
 2710HO4    HW210839   8.846   0.109   9.390
 2710HO4     MW10840   8.900   0.084   9.465
 2711HO4     OW10841   3.511   6.414   7.724
 2711HO4    HW110842   3.544   6.448   7.640
 2711HO4    HW210843   3.466   6.332   7.700
 2711HO4     MW10844   3.511   6.414   7.724
 2712HO4     OW10845   5.756   0.892   7.877
 2712HO4    HW110846   5.757   0.889   7.781
 2712HO4    HW210847   5.691   0.826   7.904
 2712HO4     MW10848   5.756   0.892   7.877
 2713HO4     OW10849   1.769   2.072   6.498
 2713HO4    HW110850   1.752   2.107   6.410
 2713HO4    HW210851   1.828   1.997   6.483
 2713HO4     MW10852   1.769   2.072   6.498
 2714HO4     OW10853   9.069   4.852   2.051
 2714HO4    HW110854   9.160   4.852   2.082
 2714HO4    HW210855   9.057   4.939   2.012
 2714HO4     MW10856   9.069   4.852   2.051
 2715HO4     OW10857   9.655   5.742   5.086
 2715HO4    HW110858   9.591   5.811   5.069
 2715HO4    HW210859   9.607   5.677   5.138
 2715HO4     MW10860   9.655   5.742   5.086
 2716HO4     OW10861   8.491   2.514   0.491
 2716HO4    HW110862   8.423   2.453   0.459
 2716HO4    HW210863   8.481   2.514   0.586
 2716HO4     MW10864   8.491   2.514   0.491
 2717HO4     OW10865   0.925   3.362   4.818
 2717HO4    HW110866   0.833   3.369   4.789
 2717HO4    HW210867   0.953   3.275   4.787
 2717HO4     MW10868   0.925   3.362   4.818
 2718HO4     OW10869   1.610   2.040   1.670
 2718HO4    HW110870   1.679   1.973   1.672
 2718HO4    HW210871   1.592   2.052   1.576
 2718HO4     MW10872   1.610   2.040   1.670
 2719HO4     OW10873   5.295   3.215   4.405
 2719HO4    HW110874   5.318   3.275   4.477
 2719HO4    HW210875   5.273   3.274   4.332
 2719HO4     MW10876   5.295   3.215   4.405
 2720HO4     OW10877   0.574   6.314   2.635
 2720HO4    HW110878   0.647   6.268   2.677
 2720HO4    HW210879   0.497   6.259   2.654
 2720HO4     MW10880   0.574   6.314   2.635
 2721HO4     OW10881   6.757   7.178   8.055
 2721HO4    HW110882   6.801   7.163   7.971
 2721HO4    HW210883   6.828   7.179   8.120
 2721HO4     MW10884   6.757   7.178   8.055
 2722HO4     OW10885   3.361   4.135   5.266
 2722HO4    HW110886   3.398   4.110   5.351
 2722HO4    HW210887   3.433   4.179   5.220
 2722HO4     MW10888   3.361   4.135   5.266
 2723HO4     OW10889   7.014   7.417   7.429
 2723HO4    HW110890   6.964   7.335   7.430
 2723HO4    HW210891   6.989   7.460   7.512
 2723HO4     MW10892   7.014   7.417   7.429
 2724HO4     OW10893  10.165   6.880   9.450
 2724HO4    HW110894  10.076   6.887   9.415
 2724HO4    HW210895  10.152   6.855   9.542
 2724HO4     MW10896  10.165   6.880   9.450
 2725HO4     OW10897   0.814   0.584   7.358
 2725HO4    HW110898   0.826   0.497   7.318
 2725HO4    HW210899   0.812   0.645   7.284
 2725HO4     MW10900   0.814   0.584   7.358
 2726HO4     OW10901   8.006   4.242   8.434
 2726HO4    HW110902   7.960   4.321   8.405
 2726HO4    HW210903   8.016   4.253   8.529
 2726HO4     MW10904   8.006   4.242   8.434
 2727HO4     OW10905   4.828   1.662   3.645
 2727HO4    HW110906   4.737   1.632   3.644
 2727HO4    HW210907   4.878   1.585   3.673
 2727HO4     MW10908   4.828   1.662   3.645
 2728HO4     OW10909   7.603   5.312   0.191
 2728HO4    HW110910   7.652   5.316   0.108
 2728HO4    HW210911   7.587   5.404   0.213
 2728HO4     MW10912   7.603   5.312   0.191
 2729HO4     OW10913   7.567   0.494   5.143
 2729HO4    HW110914   7.597   0.465   5.229
 2729HO4    HW210915   7.641   0.545   5.108
 2729HO4     MW10916   7.567   0.494   5.143
 2730HO4     OW10917   9.340   2.305   2.203
 2730HO4    HW110918   9.399   2.305   2.279
 2730HO4    HW210919   9.400   2.311   2.127
 2730HO4     MW10920   9.340   2.305   2.203
 2731HO4     OW10921   5.900   2.165   3.846
 2731HO4    HW110922   5.863   2.175   3.934
 2731HO4    HW210923   5.938   2.077   3.846
 2731HO4     MW10924   5.900   2.165   3.846
 2732HO4     OW10925   1.646   1.749   2.229
 2732HO4    HW110926   1.613   1.681   2.169
 2732HO4    HW210927   1.582   1.750   2.302
 2732HO4     MW10928   1.646   1.749   2.229
 2733HO4     OW10929   5.364   9.799   7.508
 2733HO4    HW110930   5.398   9.842   7.429
 2733HO4    HW210931   5.420   9.831   7.579
 2733HO4     MW10932   5.364   9.799   7.508
 2734HO4     OW10933   9.186   9.643   3.909
 2734HO4    HW110934   9.139   9.561   3.893
 2734HO4    HW210935   9.264   9.638   3.853
 2734HO4     MW10936   9.186   9.643   3.909
 2735HO4     OW10937   5.670   4.445   8.881
 2735HO4    HW110938   5.694   4.504   8.953
 2735HO4    HW210939   5.671   4.502   8.803
 2735HO4     MW10940   5.670   4.445   8.881
 2736HO4     OW10941   0.244   7.032   5.490
 2736HO4    HW110942   0.282   7.062   5.572
 2736HO4    HW210943   0.232   6.937   5.502
 2736HO4     MW10944   0.244   7.032   5.490
 2737HO4     OW10945   5.727   6.843   3.315
 2737HO4    HW110946   5.722   6.816   3.407
 2737HO4    HW210947   5.659   6.791   3.271
 2737HO4     MW10948   5.727   6.843   3.315
 2738HO4     OW10949   0.297   8.656   2.446
 2738HO4    HW110950   0.246   8.626   2.522
 2738HO4    HW210951   0.240   8.637   2.371
 2738HO4     MW10952   0.297   8.656   2.446
 2739HO4     OW10953   9.648   0.454   0.457
 2739HO4    HW110954   9.560   0.450   0.497
 2739HO4    HW210955   9.635   0.507   0.377
 2739HO4     MW10956   9.648   0.454   0.457
 2740HO4     OW10957   9.094   1.550   3.508
 2740HO4    HW110958   9.141   1.466   3.511
 2740HO4    HW210959   9.132   1.601   3.579
 2740HO4     MW10960   9.094   1.550   3.508
 2741HO4     OW10961   1.306   1.922   5.909
 2741HO4    HW110962   1.221   1.911   5.951
 2741HO4    HW210963   1.363   1.856   5.950
 2741HO4     MW10964   1.306   1.922   5.909
 2742HO4     OW10965   1.339   6.314   8.550
 2742HO4    HW110966   1.414   6.254   8.538
 2742HO4    HW210967   1.264   6.264   8.517
 2742HO4     MW10968   1.339   6.314   8.550
 2743HO4     OW10969   9.130   2.115   2.205
 2743HO4    HW110970   9.185   2.037   2.216
 2743HO4    HW210971   9.191   2.186   2.186
 2743HO4     MW10972   9.130   2.115   2.205
 2744HO4     OW10973   5.064   4.424   5.436
 2744HO4    HW110974   4.993   4.361   5.453
 2744HO4    HW210975   5.074   4.423   5.340
 2744HO4     MW10976   5.064   4.424   5.436
 2745HO4     OW10977   9.214   4.147   7.708
 2745HO4    HW110978   9.281   4.117   7.646
 2745HO4    HW210979   9.254   4.224   7.750
 2745HO4     MW10980   9.214   4.147   7.708
 2746HO4     OW10981   4.975   8.960   2.430
 2746HO4    HW110982   5.017   9.002   2.354
 2746HO4    HW210983   5.013   9.004   2.506
 2746HO4     MW10984   4.975   8.960   2.430
 2747HO4     OW10985   1.370   7.355   3.872
 2747HO4    HW110986   1.308   7.420   3.907
 2747HO4    HW210987   1.320   7.306   3.807
 2747HO4     MW10988   1.370   7.355   3.872
 2748HO4     OW10989   0.633   5.846   4.696
 2748HO4    HW110990   0.679   5.770   4.658
 2748HO4    HW210991   0.545   5.844   4.657
 2748HO4     MW10992   0.633   5.846   4.696
 2749HO4     OW10993   8.422   5.619   0.492
 2749HO4    HW110994   8.460   5.612   0.580
 2749HO4    HW210995   8.498   5.622   0.433
 2749HO4     MW10996   8.422   5.619   0.492
 2750HO4     OW10997   8.183   4.137   8.708
 2750HO4    HW110998   8.102   4.119   8.660
 2750HO4    HW210999   8.185   4.072   8.778
 2750HO4     MW11000   8.183   4.137   8.708
 2751HO4     OW11001   7.590   1.556   6.259
 2751HO4    HW111002   7.566   1.486   6.198
 2751HO4    HW211003   7.681   1.579   6.235
 2751HO4     MW11004   7.590   1.556   6.259
 2752HO4     OW11005   1.443   5.687   0.344
 2752HO4    HW111006   1.527   5.654   0.376
 2752HO4    HW211007   1.382   5.674   0.418
 2752HO4     MW11008   1.443   5.687   0.344
 2753HO4     OW11009   4.170   7.246   7.447
 2753HO4    HW111010   4.237   7.198   7.496
 2753HO4    HW211011   4.184   7.338   7.471
 2753HO4     MW11012   4.170   7.246   7.447
 2754HO4     OW11013   3.445   7.534   5.939
 2754HO4    HW111014   3.447   7.446   5.978
 2754HO4    HW211015   3.397   7.523   5.857
 2754HO4     MW11016   3.445   7.534   5.939
 2755HO4     OW11017   4.892   4.293   8.268
 2755HO4    HW111018   4.885   4.389   8.270
 2755HO4    HW211019   4.806   4.263   8.240
 2755HO4     MW11020   4.892   4.293   8.268
 2756HO4     OW11021   2.221   1.830   0.441
 2756HO4    HW111022   2.150   1.881   0.481
 2756HO4    HW211023   2.206   1.740   0.471
 2756HO4     MW11024   2.221   1.830   0.441
 2757HO4     OW11025   5.026   6.614   9.496
 2757HO4    HW111026   5.090   6.651   9.434
 2757HO4    HW211027   5.078   6.585   9.571
 2757HO4     MW11028   5.026   6.614   9.496
 2758HO4     OW11029   7.670   1.823   9.009
 2758HO4    HW111030   7.709   1.834   9.096
 2758HO4    HW211031   7.658   1.913   8.977
 2758HO4     MW11032   7.670   1.823   9.009
 2759HO4     OW11033   8.950   2.002   0.663
 2759HO4    HW111034   8.930   2.014   0.757
 2759HO4    HW211035   9.005   1.923   0.660
 2759HO4     MW11036   8.950   2.002   0.663
 2760HO4     OW11037   2.908   8.334   1.189
 2760HO4    HW111038   2.872   8.320   1.277
 2760HO4    HW211039   2.878   8.258   1.139
 2760HO4     MW11040   2.908   8.334   1.189
 2761HO4     OW11041   9.595   6.164   8.443
 2761HO4    HW111042   9.560   6.252   8.462
 2761HO4    HW211043   9.573   6.113   8.522
 2761HO4     MW11044   9.595   6.164   8.443
 2762HO4     OW11045   1.295   4.391   0.754
 2762HO4    HW111046   1.227   4.391   0.823
 2762HO4    HW211047   1.339   4.306   0.764
 2762HO4     MW11048   1.295   4.391   0.754
 2763HO4     OW11049   0.904   5.837   8.487
 2763HO4    HW111050   0.933   5.798   8.570
 2763HO4    HW211051   0.877   5.762   8.433
 2763HO4     MW11052   0.904   5.837   8.487
 2764HO4     OW11053   9.723   9.136   1.251
 2764HO4    HW111054   9.796   9.172   1.301
 2764HO4    HW211055   9.763   9.100   1.171
 2764HO4     MW11056   9.723   9.136   1.251
 2765HO4     OW11057   4.898   5.521   4.327
 2765HO4    HW111058   4.852   5.442   4.356
 2765HO4    HW211059   4.876   5.587   4.393
 2765HO4     MW11060   4.898   5.521   4.327
 2766HO4     OW11061   0.084   3.058   4.873
 2766HO4    HW111062   0.040   3.002   4.808
 2766HO4    HW211063   0.012   3.111   4.910
 2766HO4     MW11064   0.084   3.058   4.873
 2767HO4     OW11065   2.691   7.790   8.838
 2767HO4    HW111066   2.654   7.748   8.917
 2767HO4    HW211067   2.654   7.738   8.765
 2767HO4     MW11068   2.691   7.790   8.838
 2768HO4     OW11069   1.294   5.679   4.407
 2768HO4    HW111070   1.254   5.595   4.430
 2768HO4    HW211071   1.272   5.692   4.314
 2768HO4     MW11072   1.294   5.679   4.407
 2769HO4     OW11073   2.679   8.283   5.078
 2769HO4    HW111074   2.683   8.287   4.982
 2769HO4    HW211075   2.597   8.327   5.101
 2769HO4     MW11076   2.679   8.283   5.078
 2770HO4     OW11077   8.263  10.029   3.909
 2770HO4    HW111078   8.245  10.034   3.814
 2770HO4    HW211079   8.177  10.044   3.950
 2770HO4     MW11080   8.263  10.029   3.909
 2771HO4     OW11081   7.924   8.180   3.417
 2771HO4    HW111082   7.844   8.232   3.427
 2771HO4    HW211083   7.924   8.121   3.493
 2771HO4     MW11084   7.924   8.180   3.417
 2772HO4     OW11085   4.839   6.830   5.567
 2772HO4    HW111086   4.745   6.815   5.554
 2772HO4    HW211087   4.843   6.906   5.626
 2772HO4     MW11088   4.839   6.830   5.567
 2773HO4     OW11089   6.748   2.388   8.516
 2773HO4    HW111090   6.767   2.419   8.427
 2773HO4    HW211091   6.652   2.375   8.516
 2773HO4     MW11092   6.748   2.388   8.516
 2774HO4     OW11093   4.251  10.074   0.394
 2774HO4    HW111094   4.275   9.986   0.425
 2774HO4    HW211095   4.306  10.088   0.316
 2774HO4     MW11096   4.251  10.074   0.394
 2775HO4     OW11097   8.574   6.730   5.246
 2775HO4    HW111098   8.575   6.728   5.150
 2775HO4    HW211099   8.588   6.823   5.268
 2775HO4     MW11100   8.574   6.730   5.246
 2776HO4     OW11101   4.156   5.969   3.455
 2776HO4    HW111102   4.130   5.999   3.542
 2776HO4    HW211103   4.109   6.026   3.394
 2776HO4     MW11104   4.156   5.969   3.455
 2777HO4     OW11105   8.007   8.867   8.237
 2777HO4    HW111106   8.072   8.836   8.173
 2777HO4    HW211107   8.055   8.871   8.320
 2777HO4     MW11108   8.007   8.867   8.237
 2778HO4     OW11109   4.685   5.172   6.338
 2778HO4    HW111110   4.737   5.150   6.259
 2778HO4    HW211111   4.748   5.162   6.410
 2778HO4     MW11112   4.685   5.172   6.338
 2779HO4     OW11113   8.710   3.514   3.182
 2779HO4    HW111114   8.653   3.493   3.257
 2779HO4    HW211115   8.676   3.598   3.149
 2779HO4     MW11116   8.710   3.514   3.182
 2780HO4     OW11117   4.210   2.987   6.802
 2780HO4    HW111118   4.173   3.075   6.787
 2780HO4    HW211119   4.148   2.927   6.759
 2780HO4     MW11120   4.210   2.987   6.802
 2781HO4     OW11121   0.087   2.530   9.781
 2781HO4    HW111122   0.136   2.592   9.725
 2781HO4    HW211123  -0.005   2.556   9.770
 2781HO4     MW11124   0.087   2.530   9.781
 2782HO4     OW11125   3.228   6.360   2.503
 2782HO4    HW111126   3.196   6.430   2.446
 2782HO4    HW211127   3.148   6.318   2.538
 2782HO4     MW11128   3.228   6.360   2.503
 2783HO4     OW11129   9.657   0.961   1.167
 2783HO4    HW111130   9.659   0.883   1.111
 2783HO4    HW211131   9.630   0.927   1.253
 2783HO4     MW11132   9.657   0.961   1.167
 2784HO4     OW11133   2.817   8.839   2.822
 2784HO4    HW111134   2.882   8.907   2.843
 2784HO4    HW211135   2.746   8.853   2.886
 2784HO4     MW11136   2.817   8.839   2.822
 2785HO4     OW11137   2.857   8.002   6.688
 2785HO4    HW111138   2.807   7.948   6.750
 2785HO4    HW211139   2.799   8.077   6.669
 2785HO4     MW11140   2.857   8.002   6.688
 2786HO4     OW11141   6.497   9.600   4.782
 2786HO4    HW111142   6.454   9.682   4.755
 2786HO4    HW211143   6.478   9.539   4.710
 2786HO4     MW11144   6.497   9.600   4.782
 2787HO4     OW11145   0.910   4.895   5.277
 2787HO4    HW111146   0.880   4.895   5.186
 2787HO4    HW211147   0.969   4.819   5.283
 2787HO4     MW11148   0.910   4.895   5.277
 2788HO4     OW11149   8.954   1.622   6.767
 2788HO4    HW111150   8.979   1.673   6.688
 2788HO4    HW211151   8.981   1.678   6.840
 2788HO4     MW11152   8.954   1.622   6.767
 2789HO4     OW11153   6.705   6.671   5.474
 2789HO4    HW111154   6.639   6.605   5.497
 2789HO4    HW211155   6.779   6.620   5.440
 2789HO4     MW11156   6.705   6.671   5.474
 2790HO4     OW11157   1.755   1.741   9.762
 2790HO4    HW111158   1.684   1.675   9.759
 2790HO4    HW211159   1.765   1.768   9.670
 2790HO4     MW11160   1.755   1.741   9.762
 2791HO4     OW11161   7.486   8.698   5.432
 2791HO4    HW111162   7.576   8.722   5.408
 2791HO4    HW211163   7.482   8.711   5.527
 2791HO4     MW11164   7.486   8.698   5.432
 2792HO4     OW11165   7.861   8.041   1.150
 2792HO4    HW111166   7.915   8.065   1.226
 2792HO4    HW211167   7.921   8.047   1.075
 2792HO4     MW11168   7.861   8.041   1.150
 2793HO4     OW11169  -0.014   0.217   4.812
 2793HO4    HW111170   0.068   0.249   4.774
 2793HO4    HW211171  -0.004   0.232   4.906
 2793HO4     MW11172  -0.014   0.217   4.812
 2794HO4     OW11173   4.327   1.292   5.962
 2794HO4    HW111174   4.364   1.364   5.909
 2794HO4    HW211175   4.297   1.335   6.043
 2794HO4     MW11176   4.327   1.292   5.962
 2795HO4     OW11177   0.430   3.405   7.223
 2795HO4    HW111178   0.412   3.443   7.309
 2795HO4    HW211179   0.461   3.479   7.170
 2795HO4     MW11180   0.430   3.405   7.223
 2796HO4     OW11181   4.996   7.476   5.165
 2796HO4    HW111182   5.070   7.534   5.144
 2796HO4    HW211183   4.997   7.409   5.097
 2796HO4     MW11184   4.996   7.476   5.165
 2797HO4     OW11185   1.953   2.541   9.821
 2797HO4    HW111186   2.003   2.569   9.744
 2797HO4    HW211187   1.949   2.446   9.814
 2797HO4     MW11188   1.953   2.541   9.821
 2798HO4     OW11189   3.611   3.458   9.253
 2798HO4    HW111190   3.604   3.391   9.184
 2798HO4    HW211191   3.646   3.411   9.329
 2798HO4     MW11192   3.611   3.458   9.253
 2799HO4     OW11193   8.560   6.846   3.321
 2799HO4    HW111194   8.604   6.771   3.363
 2799HO4    HW211195   8.524   6.810   3.239
 2799HO4     MW11196   8.560   6.846   3.321
 2800HO4     OW11197   0.243   0.000   1.286
 2800HO4    HW111198   0.336   0.015   1.307
 2800HO4    HW211199   0.196   0.031   1.364
 2800HO4     MW11200   0.243   0.000   1.286
 2801HO4     OW11201   4.509   2.295   3.893
 2801HO4    HW111202   4.544   2.376   3.854
 2801HO4    HW211203   4.544   2.295   3.982
 2801HO4     MW11204   4.509   2.295   3.893
 2802HO4     OW11205   5.081   4.490   6.773
 2802HO4    HW111206   5.101   4.484   6.867
 2802HO4    HW211207   5.067   4.583   6.757
 2802HO4     MW11208   5.081   4.490   6.773
 2803HO4     OW11209   3.521   1.524   9.318
 2803HO4    HW111210   3.613   1.554   9.312
 2803HO4    HW211211   3.528   1.436   9.355
 2803HO4     MW11212   3.521   1.524   9.318
 2804HO4     OW11213   4.192   0.936   3.217
 2804HO4    HW111214   4.238   0.907   3.296
 2804HO4    HW211215   4.236   0.890   3.145
 2804HO4     MW11216   4.192   0.936   3.217
 2805HO4     OW11217   4.514   0.437   0.594
 2805HO4    HW111218   4.521   0.341   0.603
 2805HO4    HW211219   4.508   0.452   0.500
 2805HO4     MW11220   4.514   0.437   0.594
 2806HO4     OW11221   7.300   0.332   3.501
 2806HO4    HW111222   7.329   0.371   3.418
 2806HO4    HW211223   7.350   0.250   3.507
 2806HO4     MW11224   7.300   0.332   3.501
 2807HO4     OW11225   5.879   1.155  10.048
 2807HO4    HW111226   5.858   1.121   9.961
 2807HO4    HW211227   5.817   1.109  10.106
 2807HO4     MW11228   5.879   1.155  10.048
 2808HO4     OW11229   0.863   6.380   2.085
 2808HO4    HW111230   0.877   6.458   2.139
 2808HO4    HW211231   0.770   6.385   2.058
 2808HO4     MW11232   0.863   6.380   2.085
 2809HO4     OW11233   7.084   1.553   1.875
 2809HO4    HW111234   7.017   1.608   1.835
 2809HO4    HW211235   7.139   1.524   1.802
 2809HO4     MW11236   7.084   1.553   1.875
 2810HO4     OW11237   9.142   9.636   5.394
 2810HO4    HW111238   9.216   9.629   5.333
 2810HO4    HW211239   9.184   9.650   5.480
 2810HO4     MW11240   9.142   9.636   5.394
 2811HO4     OW11241   1.021   4.559   8.904
 2811HO4    HW111242   1.016   4.576   8.810
 2811HO4    HW211243   0.945   4.503   8.922
 2811HO4     MW11244   1.021   4.559   8.904
 2812HO4     OW11245   9.281   5.841   1.775
 2812HO4    HW111246   9.360   5.856   1.723
 2812HO4    HW211247   9.209   5.872   1.719
 2812HO4     MW11248   9.281   5.841   1.775
 2813HO4     OW11249   7.767   7.486   9.666
 2813HO4    HW111250   7.722   7.459   9.747
 2813HO4    HW211251   7.719   7.441   9.596
 2813HO4     MW11252   7.767   7.486   9.666
 2814HO4     OW11253   7.292   4.007   0.404
 2814HO4    HW111254   7.262   3.995   0.494
 2814HO4    HW211255   7.383   3.976   0.404
 2814HO4     MW11256   7.292   4.007   0.404
 2815HO4     OW11257   2.802   1.545   0.599
 2815HO4    HW111258   2.840   1.630   0.619
 2815HO4    HW211259   2.729   1.564   0.539
 2815HO4     MW11260   2.802   1.545   0.599
 2816HO4     OW11261   4.171   2.184   2.289
 2816HO4    HW111262   4.130   2.206   2.204
 2816HO4    HW211263   4.097   2.179   2.350
 2816HO4     MW11264   4.171   2.184   2.289
 2817HO4     OW11265   1.007   4.802   0.402
 2817HO4    HW111266   0.924   4.815   0.449
 2817HO4    HW211267   0.993   4.848   0.318
 2817HO4     MW11268   1.007   4.802   0.402
 2818HO4     OW11269   6.167   7.696   0.347
 2818HO4    HW111270   6.231   7.722   0.413
 2818HO4    HW211271   6.085   7.684   0.397
 2818HO4     MW11272   6.167   7.696   0.347
 2819HO4     OW11273   4.241   8.857   7.868
 2819HO4    HW111274   4.304   8.804   7.818
 2819HO4    HW211275   4.185   8.792   7.911
 2819HO4     MW11276   4.241   8.857   7.868
 2820HO4     OW11277   9.982   8.721   3.480
 2820HO4    HW111278   9.893   8.688   3.496
 2820HO4    HW211279  10.037   8.643   3.483
 2820HO4     MW11280   9.982   8.721   3.480
 2821HO4     OW11281   4.977   9.589   8.325
 2821HO4    HW111282   4.950   9.635   8.245
 2821HO4    HW211283   4.902   9.533   8.347
 2821HO4     MW11284   4.977   9.589   8.325
 2822HO4     OW11285   6.177   0.569  10.168
 2822HO4    HW111286   6.167   0.664  10.178
 2822HO4    HW211287   6.119   0.547  10.094
 2822HO4     MW11288   6.177   0.569  10.168
 2823HO4     OW11289   2.276   3.555   7.129
 2823HO4    HW111290   2.348   3.539   7.190
 2823HO4    HW211291   2.296   3.641   7.090
 2823HO4     MW11292   2.276   3.555   7.129
 2824HO4     OW11293   8.012   8.401   8.822
 2824HO4    HW111294   7.945   8.364   8.881
 2824HO4    HW211295   8.090   8.348   8.839
 2824HO4     MW11296   8.012   8.401   8.822
 2825HO4     OW11297   7.880   9.102   8.124
 2825HO4    HW111298   7.896   9.118   8.217
 2825HO4    HW211299   7.967   9.081   8.088
 2825HO4     MW11300   7.880   9.102   8.124
 2826HO4     OW11301   7.965   9.837   9.388
 2826HO4    HW111302   7.946   9.865   9.298
 2826HO4    HW211303   7.942   9.913   9.442
 2826HO4     MW11304   7.965   9.837   9.388
 2827HO4     OW11305   9.308   2.013   1.417
 2827HO4    HW111306   9.281   1.963   1.495
 2827HO4    HW211307   9.262   1.970   1.344
 2827HO4     MW11308   9.308   2.013   1.417
 2828HO4     OW11309   9.024   5.909   3.471
 2828HO4    HW111310   9.060   5.855   3.541
 2828HO4    HW211311   8.934   5.875   3.458
 2828HO4     MW11312   9.024   5.909   3.471
 2829HO4     OW11313   7.833   2.634   0.625
 2829HO4    HW111314   7.842   2.571   0.553
 2829HO4    HW211315   7.852   2.582   0.704
 2829HO4     MW11316   7.833   2.634   0.625
 2830HO4     OW11317   3.565   4.670   6.091
 2830HO4    HW111318   3.517   4.638   6.014
 2830HO4    HW211319   3.515   4.637   6.166
 2830HO4     MW11320   3.565   4.670   6.091
 2831HO4     OW11321   6.598   8.567   5.775
 2831HO4    HW111322   6.603   8.477   5.806
 2831HO4    HW211323   6.675   8.610   5.813
 2831HO4     MW11324   6.598   8.567   5.775
 2832HO4     OW11325   5.464   5.488   1.274
 2832HO4    HW111326   5.382   5.437   1.274
 2832HO4    HW211327   5.474   5.518   1.365
 2832HO4     MW11328   5.464   5.488   1.274
 2833HO4     OW11329   2.244   5.722   3.665
 2833HO4    HW111330   2.189   5.761   3.597
 2833HO4    HW211331   2.242   5.785   3.737
 2833HO4     MW11332   2.244   5.722   3.665
 2834HO4     OW11333   0.434   0.806   5.405
 2834HO4    HW111334   0.510   0.785   5.349
 2834HO4    HW211335   0.439   0.741   5.476
 2834HO4     MW11336   0.434   0.806   5.405
 2835HO4     OW11337   4.661   9.774   0.441
 2835HO4    HW111338   4.708   9.818   0.513
 2835HO4    HW211339   4.690   9.821   0.362
 2835HO4     MW11340   4.661   9.774   0.441
 2836HO4     OW11341   2.181   0.450   4.775
 2836HO4    HW111342   2.169   0.529   4.721
 2836HO4    HW211343   2.228   0.389   4.718
 2836HO4     MW11344   2.181   0.450   4.775
 2837HO4     OW11345   5.216   2.237   2.252
 2837HO4    HW111346   5.276   2.310   2.265
 2837HO4    HW211347   5.207   2.198   2.339
 2837HO4     MW11348   5.216   2.237   2.252
 2838HO4     OW11349   6.725   4.796   6.129
 2838HO4    HW111350   6.778   4.793   6.210
 2838HO4    HW211351   6.745   4.882   6.091
 2838HO4     MW11352   6.725   4.796   6.129
 2839HO4     OW11353   8.636   9.804   0.382
 2839HO4    HW111354   8.607   9.896   0.378
 2839HO4    HW211355   8.595   9.769   0.461
 2839HO4     MW11356   8.636   9.804   0.382
 2840HO4     OW11357   9.755   1.801   7.540
 2840HO4    HW111358   9.827   1.762   7.591
 2840HO4    HW211359   9.727   1.730   7.481
 2840HO4     MW11360   9.755   1.801   7.540
 2841HO4     OW11361   6.220   2.622   7.187
 2841HO4    HW111362   6.282   2.656   7.253
 2841HO4    HW211363   6.263   2.640   7.103
 2841HO4     MW11364   6.220   2.622   7.187
 2842HO4     OW11365   8.533   4.976   0.983
 2842HO4    HW111366   8.604   4.916   1.008
 2842HO4    HW211367   8.453   4.926   1.000
 2842HO4     MW11368   8.533   4.976   0.983
 2843HO4     OW11369   7.366   8.288   8.444
 2843HO4    HW111370   7.401   8.370   8.408
 2843HO4    HW211371   7.425   8.220   8.409
 2843HO4     MW11372   7.366   8.288   8.444
 2844HO4     OW11373   1.367   2.241   8.661
 2844HO4    HW111374   1.358   2.329   8.625
 2844HO4    HW211375   1.366   2.183   8.584
 2844HO4     MW11376   1.367   2.241   8.661
 2845HO4     OW11377   4.496   3.069   1.757
 2845HO4    HW111378   4.531   3.049   1.670
 2845HO4    HW211379   4.514   2.989   1.809
 2845HO4     MW11380   4.496   3.069   1.757
 2846HO4     OW11381   8.663   4.573   7.809
 2846HO4    HW111382   8.582   4.607   7.771
 2846HO4    HW211383   8.669   4.483   7.776
 2846HO4     MW11384   8.663   4.573   7.809
 2847HO4     OW11385   4.038   3.632   4.390
 2847HO4    HW111386   4.002   3.561   4.336
 2847HO4    HW211387   4.111   3.668   4.337
 2847HO4     MW11388   4.038   3.632   4.390
 2848HO4     OW11389   2.092   5.728   5.826
 2848HO4    HW111390   2.142   5.658   5.870
 2848HO4    HW211391   2.151   5.758   5.756
 2848HO4     MW11392   2.092   5.728   5.826
 2849HO4     OW11393   1.002   4.325   6.688
 2849HO4    HW111394   0.916   4.334   6.731
 2849HO4    HW211395   0.981   4.301   6.597
 2849HO4     MW11396   1.002   4.325   6.688
 2850HO4     OW11397   3.397   1.297   0.523
 2850HO4    HW111398   3.450   1.259   0.452
 2850HO4    HW211399   3.432   1.258   0.603
 2850HO4     MW11400   3.397   1.297   0.523
 2851HO4     OW11401   1.980   3.042   2.871
 2851HO4    HW111402   2.048   3.003   2.927
 2851HO4    HW211403   1.902   3.046   2.927
 2851HO4     MW11404   1.980   3.042   2.871
 2852HO4     OW11405   0.994   8.791   9.778
 2852HO4    HW111406   1.006   8.842   9.858
 2852HO4    HW211407   0.903   8.808   9.753
 2852HO4     MW11408   0.994   8.791   9.778
 2853HO4     OW11409   7.421   5.315   5.247
 2853HO4    HW111410   7.334   5.303   5.285
 2853HO4    HW211411   7.406   5.306   5.152
 2853HO4     MW11412   7.421   5.315   5.247
 2854HO4     OW11413   3.125   0.617   8.292
 2854HO4    HW111414   3.122   0.528   8.255
 2854HO4    HW211415   3.066   0.613   8.368
 2854HO4     MW11416   3.125   0.617   8.292
 2855HO4     OW11417   2.486   7.992   3.061
 2855HO4    HW111418   2.561   7.934   3.074
 2855HO4    HW211419   2.498   8.061   3.127
 2855HO4     MW11420   2.486   7.992   3.061
 2856HO4     OW11421   1.176   9.145   8.555
 2856HO4    HW111422   1.151   9.237   8.566
 2856HO4    HW211423   1.138   9.101   8.631
 2856HO4     MW11424   1.176   9.145   8.555
 2857HO4     OW11425   4.037   5.564   1.699
 2857HO4    HW111426   4.016   5.538   1.790
 2857HO4    HW211427   4.133   5.561   1.695
 2857HO4     MW11428   4.037   5.564   1.699
 2858HO4     OW11429   7.958   8.664   3.512
 2858HO4    HW111430   7.892   8.596   3.528
 2858HO4    HW211431   7.913   8.746   3.535
 2858HO4     MW11432   7.958   8.664   3.512
 2859HO4     OW11433   7.794   5.935   0.459
 2859HO4    HW111434   7.818   5.858   0.406
 2859HO4    HW211435   7.716   5.906   0.508
 2859HO4     MW11436   7.794   5.935   0.459
 2860HO4     OW11437   5.647   5.527   7.552
 2860HO4    HW111438   5.732   5.557   7.584
 2860HO4    HW211439   5.661   5.509   7.459
 2860HO4     MW11440   5.647   5.527   7.552
 2861HO4     OW11441   3.345   1.652   3.930
 2861HO4    HW111442   3.334   1.741   3.965
 2861HO4    HW211443   3.311   1.657   3.840
 2861HO4     MW11444   3.345   1.652   3.930
 2862HO4     OW11445   4.187   7.289   3.624
 2862HO4    HW111446   4.167   7.273   3.717
 2862HO4    HW211447   4.148   7.375   3.605
 2862HO4     MW11448   4.187   7.289   3.624
 2863HO4     OW11449   4.128   9.198   5.016
 2863HO4    HW111450   4.184   9.136   4.970
 2863HO4    HW211451   4.169   9.207   5.103
 2863HO4     MW11452   4.128   9.198   5.016
 2864HO4     OW11453   7.190   4.987   7.096
 2864HO4    HW111454   7.124   5.033   7.148
 2864HO4    HW211455   7.150   4.901   7.078
 2864HO4     MW11456   7.190   4.987   7.096
 2865HO4     OW11457   3.425   0.924   4.114
 2865HO4    HW111458   3.488   0.908   4.042
 2865HO4    HW211459   3.476   0.906   4.194
 2865HO4     MW11460   3.425   0.924   4.114
 2866HO4     OW11461   4.910   8.034   5.835
 2866HO4    HW111462   4.896   8.022   5.930
 2866HO4    HW211463   4.917   7.945   5.801
 2866HO4     MW11464   4.910   8.034   5.835
 2867HO4     OW11465   7.100   6.974   0.797
 2867HO4    HW111466   7.085   7.015   0.882
 2867HO4    HW211467   7.086   7.046   0.733
 2867HO4     MW11468   7.100   6.974   0.797
 2868HO4     OW11469   7.742   2.353   7.177
 2868HO4    HW111470   7.664   2.389   7.220
 2868HO4    HW211471   7.722   2.260   7.165
 2868HO4     MW11472   7.742   2.353   7.177
 2869HO4     OW11473   2.501   8.121   6.132
 2869HO4    HW111474   2.421   8.074   6.157
 2869HO4    HW211475   2.572   8.068   6.168
 2869HO4     MW11476   2.501   8.121   6.132
 2870HO4     OW11477   1.384   8.430   5.566
 2870HO4    HW111478   1.399   8.469   5.479
 2870HO4    HW211479   1.289   8.438   5.579
 2870HO4     MW11480   1.384   8.430   5.566
 2871HO4     OW11481   8.950   7.750   1.557
 2871HO4    HW111482   8.955   7.797   1.473
 2871HO4    HW211483   8.856   7.731   1.568
 2871HO4     MW11484   8.950   7.750   1.557
 2872HO4     OW11485   4.457   3.787   9.890
 2872HO4    HW111486   4.514   3.841   9.946
 2872HO4    HW211487   4.370   3.827   9.898
 2872HO4     MW11488   4.457   3.787   9.890
 2873HO4     OW11489   6.281   7.375   4.791
 2873HO4    HW111490   6.338   7.438   4.748
 2873HO4    HW211491   6.225   7.342   4.720
 2873HO4     MW11492   6.281   7.375   4.791
 2874HO4     OW11493   8.391   7.904   3.109
 2874HO4    HW111494   8.390   7.843   3.035
 2874HO4    HW211495   8.402   7.847   3.186
 2874HO4     MW11496   8.391   7.904   3.109
 2875HO4     OW11497   9.296   0.750   9.840
 2875HO4    HW111498   9.313   0.683   9.773
 2875HO4    HW211499   9.322   0.833   9.799
 2875HO4     MW11500   9.296   0.750   9.840
 2876HO4     OW11501   0.959   4.447   8.521
 2876HO4    HW111502   0.921   4.362   8.499
 2876HO4    HW211503   0.945   4.456   8.616
 2876HO4     MW11504   0.959   4.447   8.521
 2877HO4     OW11505   7.178   5.877   7.058
 2877HO4    HW111506   7.218   5.867   6.971
 2877HO4    HW211507   7.236   5.939   7.104
 2877HO4     MW11508   7.178   5.877   7.058
 2878HO4     OW11509   6.548   1.277   6.738
 2878HO4    HW111510   6.564   1.319   6.824
 2878HO4    HW211511   6.595   1.334   6.676
 2878HO4     MW11512   6.548   1.277   6.738
 2879HO4     OW11513   7.786   8.809   2.645
 2879HO4    HW111514   7.760   8.820   2.737
 2879HO4    HW211515   7.703   8.790   2.600
 2879HO4     MW11516   7.786   8.809   2.645
 2880HO4     OW11517   7.628   9.057   3.575
 2880HO4    HW111518   7.685   9.087   3.504
 2880HO4    HW211519   7.673   9.084   3.655
 2880HO4     MW11520   7.628   9.057   3.575
 2881HO4     OW11521   2.439   6.202   1.376
 2881HO4    HW111522   2.467   6.157   1.457
 2881HO4    HW211523   2.354   6.163   1.355
 2881HO4     MW11524   2.439   6.202   1.376
 2882HO4     OW11525   7.041   7.732   0.362
 2882HO4    HW111526   7.052   7.696   0.274
 2882HO4    HW211527   7.028   7.655   0.418
 2882HO4     MW11528   7.041   7.732   0.362
 2883HO4     OW11529   6.877   9.037   8.999
 2883HO4    HW111530   6.901   8.951   8.965
 2883HO4    HW211531   6.893   9.032   9.093
 2883HO4     MW11532   6.877   9.037   8.999
 2884HO4     OW11533   9.893   3.946   9.185
 2884HO4    HW111534   9.956   3.898   9.131
 2884HO4    HW211535   9.829   3.982   9.122
 2884HO4     MW11536   9.893   3.946   9.185
 2885HO4     OW11537   9.524   0.642   7.264
 2885HO4    HW111538   9.618   0.657   7.250
 2885HO4    HW211539   9.482   0.692   7.193
 2885HO4     MW11540   9.524   0.642   7.264
 2886HO4     OW11541   1.734   3.859   9.317
 2886HO4    HW111542   1.646   3.885   9.346
 2886HO4    HW211543   1.729   3.764   9.309
 2886HO4     MW11544   1.734   3.859   9.317
 2887HO4     OW11545   4.036   3.835   4.737
 2887HO4    HW111546   4.109   3.792   4.782
 2887HO4    HW211547   4.055   3.823   4.643
 2887HO4     MW11548   4.036   3.835   4.737
 2888HO4     OW11549   4.698   4.832   6.908
 2888HO4    HW111550   4.661   4.782   6.981
 2888HO4    HW211551   4.669   4.786   6.829
 2888HO4     MW11552   4.698   4.832   6.908
 2889HO4     OW11553   9.974   2.335  10.150
 2889HO4    HW111554  10.069   2.325  10.158
 2889HO4    HW211555   9.958   2.332  10.055
 2889HO4     MW11556   9.974   2.335  10.150
 2890HO4     OW11557   5.984   9.073   6.184
 2890HO4    HW111558   6.041   9.006   6.222
 2890HO4    HW211559   6.019   9.157   6.216
 2890HO4     MW11560   5.984   9.073   6.184
 2891HO4     OW11561   8.038   1.758   6.648
 2891HO4    HW111562   8.079   1.766   6.562
 2891HO4    HW211563   8.090   1.816   6.705
 2891HO4     MW11564   8.038   1.758   6.648
 2892HO4     OW11565   1.906   5.372   3.840
 2892HO4    HW111566   1.851   5.451   3.840
 2892HO4    HW211567   1.988   5.400   3.882
 2892HO4     MW11568   1.906   5.372   3.840
 2893HO4     OW11569   7.533   2.647   9.459
 2893HO4    HW111570   7.471   2.652   9.385
 2893HO4    HW211571   7.481   2.673   9.536
 2893HO4     MW11572   7.533   2.647   9.459
 2894HO4     OW11573   6.055   6.774   2.054
 2894HO4    HW111574   6.130   6.810   2.103
 2894HO4    HW211575   6.023   6.847   2.001
 2894HO4     MW11576   6.055   6.774   2.054
 2895HO4     OW11577   9.379   3.724   9.091
 2895HO4    HW111578   9.459   3.749   9.045
 2895HO4    HW211579   9.338   3.658   9.034
 2895HO4     MW11580   9.379   3.724   9.091
 2896HO4     OW11581   7.230   6.080   5.176
 2896HO4    HW111582   7.148   6.097   5.129
 2896HO4    HW211583   7.257   6.165   5.210
 2896HO4     MW11584   7.230   6.080   5.176
 2897HO4     OW11585   0.958   4.788   2.419
 2897HO4    HW111586   0.949   4.748   2.506
 2897HO4    HW211587   0.945   4.715   2.358
 2897HO4     MW11588   0.958   4.788   2.419
 2898HO4     OW11589   2.558   1.413   2.263
 2898HO4    HW111590   2.551   1.498   2.309
 2898HO4    HW211591   2.635   1.423   2.207
 2898HO4     MW11592   2.558   1.413   2.263
 2899HO4     OW11593   6.630   8.309   9.104
 2899HO4    HW111594   6.631   8.310   9.008
 2899HO4    HW211595   6.581   8.388   9.128
 2899HO4     MW11596   6.630   8.309   9.104
 2900HO4     OW11597   6.130   9.019   3.820
 2900HO4    HW111598   6.072   8.947   3.845
 2900HO4    HW211599   6.182   8.984   3.747
 2900HO4     MW11600   6.130   9.019   3.820
 2901HO4     OW11601   9.334   2.665   3.616
 2901HO4    HW111602   9.308   2.757   3.604
 2901HO4    HW211603   9.430   2.665   3.605
 2901HO4     MW11604   9.334   2.665   3.616
 2902HO4     OW11605   9.329   2.008   3.309
 2902HO4    HW111606   9.271   2.066   3.360
 2902HO4    HW211607   9.415   2.051   3.313
 2902HO4     MW11608   9.329   2.008   3.309
 2903HO4     OW11609   9.347   0.536   6.392
 2903HO4    HW111610   9.380   0.590   6.319
 2903HO4    HW211611   9.385   0.576   6.470
 2903HO4     MW11612   9.347   0.536   6.392
 2904HO4     OW11613   6.491   7.157   0.893
 2904HO4    HW111614   6.538   7.131   0.813
 2904HO4    HW211615   6.476   7.074   0.939
 2904HO4     MW11616   6.491   7.157   0.893
 2905HO4     OW11617   6.482   1.442   0.324
 2905HO4    HW111618   6.553   1.406   0.377
 2905HO4    HW211619   6.459   1.369   0.264
 2905HO4     MW11620   6.482   1.442   0.324
 2906HO4     OW11621   0.378   7.923   5.802
 2906HO4    HW111622   0.370   7.841   5.850
 2906HO4    HW211623   0.343   7.903   5.715
 2906HO4     MW11624   0.378   7.923   5.802
 2907HO4     OW11625   0.129   8.362   2.701
 2907HO4    HW111626   0.172   8.423   2.761
 2907HO4    HW211627   0.102   8.416   2.626
 2907HO4     MW11628   0.129   8.362   2.701
 2908HO4     OW11629   9.695   2.214   7.562
 2908HO4    HW111630   9.654   2.273   7.498
 2908HO4    HW211631   9.685   2.258   7.646
 2908HO4     MW11632   9.695   2.214   7.562
 2909HO4     OW11633   8.958   2.702   8.803
 2909HO4    HW111634   8.950   2.674   8.895
 2909HO4    HW211635   9.020   2.640   8.765
 2909HO4     MW11636   8.958   2.702   8.803
 2910HO4     OW11637   6.055   5.599   7.498
 2910HO4    HW111638   5.975   5.551   7.475
 2910HO4    HW211639   6.100   5.541   7.560
 2910HO4     MW11640   6.055   5.599   7.498
 2911HO4     OW11641   2.746   9.842   1.708
 2911HO4    HW111642   2.771   9.774   1.645
 2911HO4    HW211643   2.762   9.924   1.661
 2911HO4     MW11644   2.746   9.842   1.708
 2912HO4     OW11645   9.422   4.482   1.259
 2912HO4    HW111646   9.360   4.494   1.187
 2912HO4    HW211647   9.385   4.410   1.310
 2912HO4     MW11648   9.422   4.482   1.259
 2913HO4     OW11649   6.526   4.482   5.259
 2913HO4    HW111650   6.492   4.549   5.319
 2913HO4    HW211651   6.523   4.525   5.172
 2913HO4     MW11652   6.526   4.482   5.259
 2914HO4     OW11653   0.851   9.467   5.600
 2914HO4    HW111654   0.911   9.492   5.529
 2914HO4    HW211655   0.905   9.470   5.680
 2914HO4     MW11656   0.851   9.467   5.600
 2915HO4     OW11657   9.586   2.617   2.372
 2915HO4    HW111658   9.648   2.572   2.430
 2915HO4    HW211659   9.509   2.634   2.428
 2915HO4     MW11660   9.586   2.617   2.372
 2916HO4     OW11661   3.373   9.131   1.709
 2916HO4    HW111662   3.407   9.192   1.642
 2916HO4    HW211663   3.362   9.185   1.787
 2916HO4     MW11664   3.373   9.131   1.709
 2917HO4     OW11665   5.720   1.741   2.758
 2917HO4    HW111666   5.800   1.766   2.804
 2917HO4    HW211667   5.686   1.823   2.723
 2917HO4     MW11668   5.720   1.741   2.758
 2918HO4     OW11669   7.608   8.396   5.319
 2918HO4    HW111670   7.588   8.319   5.264
 2918HO4    HW211671   7.625   8.467   5.256
 2918HO4     MW11672   7.608   8.396   5.319
 2919HO4     OW11673   7.792   7.118   1.011
 2919HO4    HW111674   7.796   7.156   0.923
 2919HO4    HW211675   7.796   7.194   1.070
 2919HO4     MW11676   7.792   7.118   1.011
 2920HO4     OW11677   1.462   0.029   0.411
 2920HO4    HW111678   1.547   0.067   0.435
 2920HO4    HW211679   1.413   0.026   0.494
 2920HO4     MW11680   1.462   0.029   0.411
 2921HO4     OW11681   6.782   8.287   6.287
 2921HO4    HW111682   6.803   8.311   6.377
 2921HO4    HW211683   6.753   8.368   6.246
 2921HO4     MW11684   6.782   8.287   6.287
 2922HO4     OW11685   6.990   2.270   9.729
 2922HO4    HW111686   6.934   2.192   9.721
 2922HO4    HW211687   7.050   2.264   9.654
 2922HO4     MW11688   6.990   2.270   9.729
 2923HO4     OW11689   7.757   7.265   4.915
 2923HO4    HW111690   7.795   7.257   5.003
 2923HO4    HW211691   7.664   7.240   4.927
 2923HO4     MW11692   7.757   7.265   4.915
 2924HO4     OW11693   9.248   8.291   1.721
 2924HO4    HW111694   9.303   8.369   1.730
 2924HO4    HW211695   9.312   8.219   1.707
 2924HO4     MW11696   9.248   8.291   1.721
 2925HO4     OW11697   0.103   7.029   6.043
 2925HO4    HW111698   0.074   7.095   6.107
 2925HO4    HW211699   0.033   7.030   5.976
 2925HO4     MW11700   0.103   7.029   6.043
 2926HO4     OW11701   0.301   9.350   2.990
 2926HO4    HW111702   0.236   9.345   2.918
 2926HO4    HW211703   0.248   9.342   3.070
 2926HO4     MW11704   0.301   9.350   2.990
 2927HO4     OW11705   7.318   7.226   4.259
 2927HO4    HW111706   7.283   7.142   4.228
 2927HO4    HW211707   7.375   7.257   4.188
 2927HO4     MW11708   7.318   7.226   4.259
 2928HO4     OW11709   6.499   7.057   1.791
 2928HO4    HW111710   6.481   7.121   1.860
 2928HO4    HW211711   6.472   7.101   1.710
 2928HO4     MW11712   6.499   7.057   1.791
 2929HO4     OW11713   1.138   8.402   1.926
 2929HO4    HW111714   1.087   8.326   1.955
 2929HO4    HW211715   1.202   8.417   1.996
 2929HO4     MW11716   1.138   8.402   1.926
 2930HO4     OW11717   2.301   5.311   9.975
 2930HO4    HW111718   2.238   5.246   9.943
 2930HO4    HW211719   2.343   5.344   9.895
 2930HO4     MW11720   2.301   5.311   9.975
 2931HO4     OW11721   0.204   1.060   9.756
 2931HO4    HW111722   0.293   1.045   9.721
 2931HO4    HW211723   0.218   1.120   9.830
 2931HO4     MW11724   0.204   1.060   9.756
 2932HO4     OW11725   0.107   7.799   5.984
 2932HO4    HW111726   0.188   7.762   5.949
 2932HO4    HW211727   0.136   7.868   6.044
 2932HO4     MW11728   0.107   7.799   5.984
 2933HO4     OW11729   7.256   9.679   2.746
 2933HO4    HW111730   7.170   9.665   2.706
 2933HO4    HW211731   7.309   9.718   2.675
 2933HO4     MW11732   7.256   9.679   2.746
 2934HO4     OW11733   7.105   6.692   3.128
 2934HO4    HW111734   7.044   6.671   3.057
 2934HO4    HW211735   7.075   6.778   3.160
 2934HO4     MW11736   7.105   6.692   3.128
 2935HO4     OW11737   5.666   0.024   5.323
 2935HO4    HW111738   5.592  -0.036   5.331
 2935HO4    HW211739   5.628   0.106   5.292
 2935HO4     MW11740   5.666   0.024   5.323
 2936HO4     OW11741   2.645   0.984   5.908
 2936HO4    HW111742   2.712   1.031   5.857
 2936HO4    HW211743   2.685   0.972   5.994
 2936HO4     MW11744   2.645   0.984   5.908
 2937HO4     OW11745   7.386   5.645   4.365
 2937HO4    HW111746   7.461   5.647   4.425
 2937HO4    HW211747   7.425   5.656   4.277
 2937HO4     MW11748   7.386   5.645   4.365
 2938HO4     OW11749   5.429   4.710   3.171
 2938HO4    HW111750   5.432   4.739   3.262
 2938HO4    HW211751   5.433   4.791   3.120
 2938HO4     MW11752   5.429   4.710   3.171
 2939HO4     OW11753   6.901   8.652   4.412
 2939HO4    HW111754   6.958   8.646   4.489
 2939HO4    HW211755   6.832   8.587   4.429
 2939HO4     MW11756   6.901   8.652   4.412
 2940HO4     OW11757   4.259   6.609   6.225
 2940HO4    HW111758   4.254   6.682   6.163
 2940HO4    HW211759   4.272   6.532   6.170
 2940HO4     MW11760   4.259   6.609   6.225
 2941HO4     OW11761   4.217   6.786   9.710
 2941HO4    HW111762   4.177   6.825   9.788
 2941HO4    HW211763   4.239   6.696   9.737
 2941HO4     MW11764   4.217   6.786   9.710
 2942HO4     OW11765   6.245   0.085   0.099
 2942HO4    HW111766   6.295   0.128   0.029
 2942HO4    HW211767   6.183   0.029   0.052
 2942HO4     MW11768   6.245   0.085   0.099
 2943HO4     OW11769   2.633   5.959   1.782
 2943HO4    HW111770   2.650   5.901   1.856
 2943HO4    HW211771   2.595   5.902   1.715
 2943HO4     MW11772   2.633   5.959   1.782
 2944HO4     OW11773   7.841   6.332   2.308
 2944HO4    HW111774   7.755   6.310   2.345
 2944HO4    HW211775   7.835   6.307   2.216
 2944HO4     MW11776   7.841   6.332   2.308
 2945HO4     OW11777   3.236   1.919   1.865
 2945HO4    HW111778   3.157   1.962   1.899
 2945HO4    HW211779   3.214   1.894   1.775
 2945HO4     MW11780   3.236   1.919   1.865
 2946HO4     OW11781   9.345   8.885   2.362
 2946HO4    HW111782   9.375   8.818   2.300
 2946HO4    HW211783   9.266   8.848   2.402
 2946HO4     MW11784   9.345   8.885   2.362
 2947HO4     OW11785   2.609   3.460   6.064
 2947HO4    HW111786   2.568   3.373   6.060
 2947HO4    HW211787   2.701   3.444   6.044
 2947HO4     MW11788   2.609   3.460   6.064
 2948HO4     OW11789   7.152   8.947   6.162
 2948HO4    HW111790   7.110   8.865   6.136
 2948HO4    HW211791   7.225   8.958   6.100
 2948HO4     MW11792   7.152   8.947   6.162
 2949HO4     OW11793   2.915   8.655   5.499
 2949HO4    HW111794   2.843   8.714   5.525
 2949HO4    HW211795   2.995   8.700   5.529
 2949HO4     MW11796   2.915   8.655   5.499
 2950HO4     OW11797   2.741   4.372   8.033
 2950HO4    HW111798   2.714   4.421   8.111
 2950HO4    HW211799   2.748   4.438   7.964
 2950HO4     MW11800   2.741   4.372   8.033
 2951HO4     OW11801   8.805   4.057   8.222
 2951HO4    HW111802   8.756   4.122   8.272
 2951HO4    HW211803   8.744   3.984   8.211
 2951HO4     MW11804   8.805   4.057   8.222
 2952HO4     OW11805   0.051   6.461   0.994
 2952HO4    HW111806  -0.014   6.450   1.064
 2952HO4    HW211807   0.011   6.419   0.917
 2952HO4     MW11808   0.051   6.461   0.994
 2953HO4     OW11809   3.811   1.164   4.389
 2953HO4    HW111810   3.817   1.100   4.318
 2953HO4    HW211811   3.734   1.217   4.368
 2953HO4     MW11812   3.811   1.164   4.389
 2954HO4     OW11813   3.209   6.070   9.089
 2954HO4    HW111814   3.151   6.073   9.012
 2954HO4    HW211815   3.170   6.004   9.146
 2954HO4     MW11816   3.209   6.070   9.089
 2955HO4     OW11817   8.554   4.261   7.224
 2955HO4    HW111818   8.512   4.190   7.174
 2955HO4    HW211819   8.554   4.230   7.315
 2955HO4     MW11820   8.554   4.261   7.224
 2956HO4     OW11821   3.528  10.176   9.918
 2956HO4    HW111822   3.458  10.110   9.923
 2956HO4    HW211823   3.609  10.125   9.931
 2956HO4     MW11824   3.528  10.176   9.918
 2957HO4     OW11825   2.040   0.252   9.249
 2957HO4    HW111826   1.952   0.253   9.209
 2957HO4    HW211827   2.088   0.186   9.199
 2957HO4     MW11828   2.040   0.252   9.249
 2958HO4     OW11829   8.628   2.856   2.724
 2958HO4    HW111830   8.704   2.815   2.682
 2958HO4    HW211831   8.630   2.822   2.814
 2958HO4     MW11832   8.628   2.856   2.724
 2959HO4     OW11833   8.889   2.437   7.903
 2959HO4    HW111834   8.975   2.428   7.859
 2959HO4    HW211835   8.911   2.450   7.996
 2959HO4     MW11836   8.889   2.437   7.903
 2960HO4     OW11837   7.339   7.712   8.552
 2960HO4    HW111838   7.295   7.797   8.565
 2960HO4    HW211839   7.284   7.666   8.488
 2960HO4     MW11840   7.339   7.712   8.552
 2961HO4     OW11841   2.862   0.252   9.646
 2961HO4    HW111842   2.769   0.232   9.656
 2961HO4    HW211843   2.895   0.184   9.587
 2961HO4     MW11844   2.862   0.252   9.646
 2962HO4     OW11845   1.874   8.685   6.532
 2962HO4    HW111846   1.815   8.666   6.458
 2962HO4    HW211847   1.840   8.630   6.604
 2962HO4     MW11848   1.874   8.685   6.532
 2963HO4     OW11849   3.621   3.901   5.737
 2963HO4    HW111850   3.669   3.906   5.820
 2963HO4    HW211851   3.616   3.806   5.719
 2963HO4     MW11852   3.621   3.901   5.737
 2964HO4     OW11853   8.724   2.516   9.020
 2964HO4    HW111854   8.640   2.497   8.978
 2964HO4    HW211855   8.737   2.610   9.009
 2964HO4     MW11856   8.724   2.516   9.020
 2965HO4     OW11857   7.344   1.688   6.395
 2965HO4    HW111858   7.293   1.661   6.472
 2965HO4    HW211859   7.399   1.760   6.427
 2965HO4     MW11860   7.344   1.688   6.395
 2966HO4     OW11861   5.370   7.396   1.062
 2966HO4    HW111862   5.385   7.433   0.974
 2966HO4    HW211863   5.301   7.331   1.048
 2966HO4     MW11864   5.370   7.396   1.062
 2967HO4     OW11865   7.660   2.942   4.692
 2967HO4    HW111866   7.669   2.905   4.603
 2967HO4    HW211867   7.735   2.907   4.740
 2967HO4     MW11868   7.660   2.942   4.692
 2968HO4     OW11869   1.703   2.898   3.599
 2968HO4    HW111870   1.753   2.899   3.516
 2968HO4    HW211871   1.703   2.805   3.625
 2968HO4     MW11872   1.703   2.898   3.599
 2969HO4     OW11873   7.048   2.586   2.032
 2969HO4    HW111874   7.035   2.649   1.961
 2969HO4    HW211875   7.029   2.636   2.112
 2969HO4     MW11876   7.048   2.586   2.032
 2970HO4     OW11877   9.578   3.042   4.523
 2970HO4    HW111878   9.641   3.087   4.466
 2970HO4    HW211879   9.612   3.055   4.612
 2970HO4     MW11880   9.578   3.042   4.523
 2971HO4     OW11881   8.993   4.781   2.792
 2971HO4    HW111882   8.935   4.795   2.869
 2971HO4    HW211883   8.936   4.796   2.717
 2971HO4     MW11884   8.993   4.781   2.792
 2972HO4     OW11885   7.164   3.892   5.997
 2972HO4    HW111886   7.242   3.940   5.968
 2972HO4    HW211887   7.198   3.809   6.031
 2972HO4     MW11888   7.164   3.892   5.997
 2973HO4     OW11889   3.906   7.562   3.161
 2973HO4    HW111890   3.843   7.504   3.203
 2973HO4    HW211891   3.906   7.641   3.217
 2973HO4     MW11892   3.906   7.562   3.161
 2974HO4     OW11893   7.650   7.512   3.222
 2974HO4    HW111894   7.605   7.597   3.225
 2974HO4    HW211895   7.583   7.451   3.191
 2974HO4     MW11896   7.650   7.512   3.222
 2975HO4     OW11897   0.749   8.642   7.484
 2975HO4    HW111898   0.673   8.632   7.427
 2975HO4    HW211899   0.712   8.644   7.573
 2975HO4     MW11900   0.749   8.642   7.484
 2976HO4     OW11901   5.786   9.006   1.566
 2976HO4    HW111902   5.825   9.012   1.478
 2976HO4    HW211903   5.716   9.072   1.565
 2976HO4     MW11904   5.786   9.006   1.566
 2977HO4     OW11905   1.104   4.353   1.759
 2977HO4    HW111906   1.062   4.364   1.673
 2977HO4    HW211907   1.106   4.257   1.772
 2977HO4     MW11908   1.104   4.353   1.759
 2978HO4     OW11909   7.646   8.866   1.879
 2978HO4    HW111910   7.735   8.850   1.846
 2978HO4    HW211911   7.634   8.802   1.949
 2978HO4     MW11912   7.646   8.866   1.879
 2979HO4     OW11913   8.035   9.409   3.546
 2979HO4    HW111914   7.972   9.463   3.595
 2979HO4    HW211915   8.031   9.444   3.456
 2979HO4     MW11916   8.035   9.409   3.546
 2980HO4     OW11917   4.338   7.119   5.846
 2980HO4    HW111918   4.278   7.110   5.921
 2980HO4    HW211919   4.305   7.056   5.782
 2980HO4     MW11920   4.338   7.119   5.846
 2981HO4     OW11921   5.706   3.288   9.573
 2981HO4    HW111922   5.749   3.337   9.643
 2981HO4    HW211923   5.750   3.318   9.492
 2981HO4     MW11924   5.706   3.288   9.573
 2982HO4     OW11925   9.757   1.611   8.101
 2982HO4    HW111926   9.793   1.574   8.182
 2982HO4    HW211927   9.804   1.566   8.031
 2982HO4     MW11928   9.757   1.611   8.101
 2983HO4     OW11929   4.854   9.810   2.963
 2983HO4    HW111930   4.849   9.883   2.900
 2983HO4    HW211931   4.762   9.793   2.987
 2983HO4     MW11932   4.854   9.810   2.963
 2984HO4     OW11933   6.182   1.835   7.948
 2984HO4    HW111934   6.210   1.925   7.968
 2984HO4    HW211935   6.201   1.786   8.028
 2984HO4     MW11936   6.182   1.835   7.948
 2985HO4     OW11937   7.712   7.935   5.943
 2985HO4    HW111938   7.646   7.947   6.012
 2985HO4    HW211939   7.663   7.945   5.861
 2985HO4     MW11940   7.712   7.935   5.943
 2986HO4     OW11941   3.220   6.712   1.027
 2986HO4    HW111942   3.196   6.763   1.105
 2986HO4    HW211943   3.316   6.705   1.032
 2986HO4     MW11944   3.220   6.712   1.027
 2987HO4     OW11945   8.742   5.354   0.519
 2987HO4    HW111946   8.826   5.395   0.499
 2987HO4    HW211947   8.747   5.267   0.477
 2987HO4     MW11948   8.742   5.354   0.519
 2988HO4     OW11949   2.727   8.162   3.861
 2988HO4    HW111950   2.677   8.081   3.850
 2988HO4    HW211951   2.766   8.179   3.775
 2988HO4     MW11952   2.727   8.162   3.861
 2989HO4     OW11953   0.651   7.496   6.977
 2989HO4    HW111954   0.693   7.483   7.063
 2989HO4    HW211955   0.714   7.460   6.914
 2989HO4     MW11956   0.651   7.496   6.977
 2990HO4     OW11957   4.292   4.226   2.076
 2990HO4    HW111958   4.323   4.167   2.145
 2990HO4    HW211959   4.360   4.293   2.068
 2990HO4     MW11960   4.292   4.226   2.076
 2991HO4     OW11961   0.444   3.561   0.590
 2991HO4    HW111962   0.497   3.537   0.666
 2991HO4    HW211963   0.356   3.575   0.626
 2991HO4     MW11964   0.444   3.561   0.590
 2992HO4     OW11965   5.096   7.603  10.070
 2992HO4    HW111966   5.181   7.575  10.036
 2992HO4    HW211967   5.056   7.524  10.106
 2992HO4     MW11968   5.096   7.603  10.070
 2993HO4     OW11969   2.653   9.560   0.102
 2993HO4    HW111970   2.565   9.524   0.090
 2993HO4    HW211971   2.694   9.551   0.016
 2993HO4     MW11972   2.653   9.560   0.102
 2994HO4     OW11973   0.203   3.973   1.973
 2994HO4    HW111974   0.139   3.941   2.037
 2994HO4    HW211975   0.154   4.036   1.920
 2994HO4     MW11976   0.203   3.973   1.973
 2995HO4     OW11977  10.003   0.939   2.183
 2995HO4    HW111978  10.041   1.003   2.123
 2995HO4    HW211979  10.003   0.982   2.269
 2995HO4     MW11980  10.003   0.939   2.183
 2996HO4     OW11981   8.821   5.649   8.486
 2996HO4    HW111982   8.769   5.581   8.530
 2996HO4    HW211983   8.793   5.645   8.394
 2996HO4     MW11984   8.821   5.649   8.486
 2997HO4     OW11985   1.533   8.152  10.044
 2997HO4    HW111986   1.504   8.113  10.128
 2997HO4    HW211987   1.501   8.090   9.977
 2997HO4     MW11988   1.533   8.152  10.044
 2998HO4     OW11989   3.800   7.958   4.892
 2998HO4    HW111990   3.837   8.007   4.966
 2998HO4    HW211991   3.824   7.866   4.910
 2998HO4     MW11992   3.800   7.958   4.892
 2999HO4     OW11993   1.371   6.599   3.744
 2999HO4    HW111994   1.291   6.627   3.790
 2999HO4    HW211995   1.419   6.547   3.810
 2999HO4     MW11996   1.371   6.599   3.744
 3000HO4     OW11997   9.272   0.610   5.557
 3000HO4    HW111998   9.359   0.583   5.528
 3000HO4    HW211999   9.232   0.651   5.480
 3000HO4     MW12000   9.272   0.610   5.557
 3001HO4     OW12001   3.737   2.871   8.129
 3001HO4    HW112002   3.657   2.820   8.143
 3001HO4    HW212003   3.716   2.931   8.057
 3001HO4     MW12004   3.737   2.871   8.129
 3002HO4     OW12005   6.082   1.200   1.593
 3002HO4    HW112006   6.024   1.253   1.649
 3002HO4    HW212007   6.150   1.167   1.652
 3002HO4     MW12008   6.082   1.200   1.593
 3003HO4     OW12009   1.263   0.147   0.380
 3003HO4    HW112010   1.285   0.219   0.441
 3003HO4    HW212011   1.337   0.145   0.319
 3003HO4     MW12012   1.263   0.147   0.380
 3004HO4     OW12013   8.814   4.663   5.538
 3004HO4    HW112014   8.765   4.677   5.620
 3004HO4    HW212015   8.834   4.569   5.538
 3004HO4     MW12016   8.814   4.663   5.538
 3005HO4     OW12017   7.787   5.792   1.398
 3005HO4    HW112018   7.788   5.846   1.478
 3005HO4    HW212019   7.879   5.766   1.385
 3005HO4     MW12020   7.787   5.792   1.398
 3006HO4     OW12021   9.883   4.901   7.550
 3006HO4    HW112022   9.823   4.884   7.476
 3006HO4    HW212023   9.837   4.967   7.603
 3006HO4     MW12024   9.883   4.901   7.550
 3007HO4     OW12025   9.222   6.270   2.019
 3007HO4    HW112026   9.241   6.352   2.066
 3007HO4    HW212027   9.137   6.241   2.054
 3007HO4     MW12028   9.222   6.270   2.019
 3008HO4     OW12029   8.553   4.171   3.174
 3008HO4    HW112030   8.604   4.180   3.255
 3008HO4    HW212031   8.617   4.190   3.104
 3008HO4     MW12032   8.553   4.171   3.174
 3009HO4     OW12033   2.254   9.695   2.422
 3009HO4    HW112034   2.275   9.736   2.337
 3009HO4    HW212035   2.171   9.737   2.448
 3009HO4     MW12036   2.254   9.695   2.422
 3010HO4     OW12037   2.473   7.203   0.683
 3010HO4    HW112038   2.516   7.265   0.743
 3010HO4    HW212039   2.384   7.193   0.718
 3010HO4     MW12040   2.473   7.203   0.683
 3011HO4     OW12041   0.981   6.340   2.497
 3011HO4    HW112042   0.914   6.400   2.464
 3011HO4    HW212043   0.960   6.256   2.456
 3011HO4     MW12044   0.981   6.340   2.497
 3012HO4     OW12045   7.245   5.274   2.519
 3012HO4    HW112046   7.245   5.360   2.475
 3012HO4    HW212047   7.198   5.289   2.601
 3012HO4     MW12048   7.245   5.274   2.519
 3013HO4     OW12049   3.561   0.670   2.980
 3013HO4    HW112050   3.640   0.712   2.947
 3013HO4    HW212051   3.593   0.602   3.040
 3013HO4     MW12052   3.561   0.670   2.980
 3014HO4     OW12053   7.062   6.491   0.115
 3014HO4    HW112054   7.138   6.445   0.152
 3014HO4    HW212055   7.098   6.541   0.042
 3014HO4     MW12056   7.062   6.491   0.115
 3015HO4     OW12057   8.605   6.055   0.972
 3015HO4    HW112058   8.584   6.073   0.880
 3015HO4    HW212059   8.586   6.138   1.017
 3015HO4     MW12060   8.605   6.055   0.972
 3016HO4     OW12061   3.082   1.688   5.140
 3016HO4    HW112062   3.066   1.657   5.230
 3016HO4    HW212063   3.049   1.618   5.084
 3016HO4     MW12064   3.082   1.688   5.140
 3017HO4     OW12065   7.331   7.608   1.895
 3017HO4    HW112066   7.353   7.527   1.941
 3017HO4    HW212067   7.370   7.597   1.807
 3017HO4     MW12068   7.331   7.608   1.895
 3018HO4     OW12069   3.310   3.561   6.162
 3018HO4    HW112070   3.348   3.521   6.241
 3018HO4    HW212071   3.351   3.513   6.089
 3018HO4     MW12072   3.310   3.561   6.162
 3019HO4     OW12073   6.790   4.475   3.341
 3019HO4    HW112074   6.795   4.382   3.314
 3019HO4    HW212075   6.726   4.476   3.413
 3019HO4     MW12076   6.790   4.475   3.341
 3020HO4     OW12077   1.745   4.899   5.983
 3020HO4    HW112078   1.726   4.903   6.077
 3020HO4    HW212079   1.688   4.828   5.950
 3020HO4     MW12080   1.745   4.899   5.983
 3021HO4     OW12081   3.669   1.643   4.336
 3021HO4    HW112082   3.692   1.637   4.243
 3021HO4    HW212083   3.746   1.685   4.377
 3021HO4     MW12084   3.669   1.643   4.336
 3022HO4     OW12085   1.072   4.978   3.637
 3022HO4    HW112086   1.074   5.074   3.630
 3022HO4    HW212087   1.002   4.961   3.701
 3022HO4     MW12088   1.072   4.978   3.637
 3023HO4     OW12089   9.170   7.802   8.132
 3023HO4    HW112090   9.212   7.887   8.114
 3023HO4    HW212091   9.104   7.822   8.199
 3023HO4     MW12092   9.170   7.802   8.132
 3024HO4     OW12093   1.210   5.074   0.389
 3024HO4    HW112094   1.305   5.069   0.399
 3024HO4    HW212095   1.179   4.986   0.409
 3024HO4     MW12096   1.210   5.074   0.389
 3025HO4     OW12097   6.171   4.112   1.655
 3025HO4    HW112098   6.197   4.165   1.731
 3025HO4    HW212099   6.152   4.025   1.691
 3025HO4     MW12100   6.171   4.112   1.655
 3026HO4     OW12101   5.313   1.606   3.669
 3026HO4    HW112102   5.316   1.666   3.595
 3026HO4    HW212103   5.324   1.662   3.747
 3026HO4     MW12104   5.313   1.606   3.669
 3027HO4     OW12105   5.966   9.129   5.295
 3027HO4    HW112106   5.902   9.058   5.279
 3027HO4    HW212107   6.049   9.093   5.263
 3027HO4     MW12108   5.966   9.129   5.295
 3028HO4     OW12109   6.177   5.958   5.367
 3028HO4    HW112110   6.212   5.979   5.454
 3028HO4    HW212111   6.081   5.959   5.379
 3028HO4     MW12112   6.177   5.958   5.367
 3029HO4     OW12113   2.928   1.799   2.402
 3029HO4    HW112114   2.885   1.874   2.359
 3029HO4    HW212115   3.007   1.836   2.442
 3029HO4     MW12116   2.928   1.799   2.402
 3030HO4     OW12117   4.262   8.141   8.321
 3030HO4    HW112118   4.214   8.217   8.356
 3030HO4    HW212119   4.293   8.170   8.234
 3030HO4     MW12120   4.262   8.141   8.321
 3031HO4     OW12121   9.881   0.945   0.201
 3031HO4    HW112122   9.787   0.960   0.216
 3031HO4    HW212123   9.889   0.850   0.189
 3031HO4     MW12124   9.881   0.945   0.201
 3032HO4     OW12125   6.876   6.273   6.647
 3032HO4    HW112126   6.873   6.332   6.572
 3032HO4    HW212127   6.872   6.331   6.724
 3032HO4     MW12128   6.876   6.273   6.647
 3033HO4     OW12129   2.267   2.140   9.466
 3033HO4    HW112130   2.196   2.075   9.463
 3033HO4    HW212131   2.318   2.117   9.544
 3033HO4     MW12132   2.267   2.140   9.466
 3034HO4     OW12133   4.856   7.369   5.696
 3034HO4    HW112134   4.899   7.406   5.618
 3034HO4    HW212135   4.913   7.396   5.769
 3034HO4     MW12136   4.856   7.369   5.696
 3035HO4     OW12137   7.132   3.182   0.095
 3035HO4    HW112138   7.208   3.223   0.137
 3035HO4    HW212139   7.104   3.114   0.157
 3035HO4     MW12140   7.132   3.182   0.095
 3036HO4     OW12141   7.167   7.926   7.325
 3036HO4    HW112142   7.188   7.855   7.387
 3036HO4    HW212143   7.231   7.915   7.254
 3036HO4     MW12144   7.167   7.926   7.325
 3037HO4     OW12145   0.646   3.872   1.583
 3037HO4    HW112146   0.638   3.963   1.615
 3037HO4    HW212147   0.554   3.842   1.574
 3037HO4     MW12148   0.646   3.872   1.583
 3038HO4     OW12149   3.379   2.651   3.152
 3038HO4    HW112150   3.298   2.616   3.114
 3038HO4    HW212151   3.399   2.729   3.098
 3038HO4     MW12152   3.379   2.651   3.152
 3039HO4     OW12153   6.277   9.713   2.984
 3039HO4    HW112154   6.202   9.762   3.018
 3039HO4    HW212155   6.314   9.669   3.061
 3039HO4     MW12156   6.277   9.713   2.984
 3040HO4     OW12157   0.230   7.688   3.443
 3040HO4    HW112158   0.231   7.670   3.349
 3040HO4    HW212159   0.305   7.639   3.478
 3040HO4     MW12160   0.230   7.688   3.443
 3041HO4     OW12161   7.438   5.494   7.659
 3041HO4    HW112162   7.513   5.508   7.600
 3041HO4    HW212163   7.462   5.539   7.740
 3041HO4     MW12164   7.438   5.494   7.659
 3042HO4     OW12165   8.403   5.155   3.008
 3042HO4    HW112166   8.385   5.082   2.948
 3042HO4    HW212167   8.378   5.123   3.094
 3042HO4     MW12168   8.403   5.155   3.008
 3043HO4     OW12169   1.702   9.813   5.619
 3043HO4    HW112170   1.694   9.877   5.548
 3043HO4    HW212171   1.654   9.851   5.692
 3043HO4     MW12172   1.702   9.813   5.619
 3044HO4     OW12173   3.429   7.196   4.096
 3044HO4    HW112174   3.353   7.161   4.143
 3044HO4    HW212175   3.404   7.190   4.003
 3044HO4     MW12176   3.429   7.196   4.096
 3045HO4     OW12177   2.018   5.359   3.371
 3045HO4    HW112178   1.998   5.372   3.464
 3045HO4    HW212179   1.963   5.424   3.326
 3045HO4     MW12180   2.018   5.359   3.371
 3046HO4     OW12181   0.403   1.299   4.824
 3046HO4    HW112182   0.326   1.291   4.881
 3046HO4    HW212183   0.373   1.269   4.738
 3046HO4     MW12184   0.403   1.299   4.824
 3047HO4     OW12185   0.113  10.022   8.515
 3047HO4    HW112186   0.088   9.961   8.445
 3047HO4    HW212187   0.079   9.981   8.596
 3047HO4     MW12188   0.113  10.022   8.515
 3048HO4     OW12189   7.572   0.589   1.953
 3048HO4    HW112190   7.553   0.671   1.906
 3048HO4    HW212191   7.637   0.545   1.898
 3048HO4     MW12192   7.572   0.589   1.953
 3049HO4     OW12193   4.272   6.258   2.276
 3049HO4    HW112194   4.357   6.244   2.319
 3049HO4    HW212195   4.295   6.299   2.192
 3049HO4     MW12196   4.272   6.258   2.276
 3050HO4     OW12197   1.688   2.436   2.700
 3050HO4    HW112198   1.747   2.427   2.775
 3050HO4    HW212199   1.746   2.434   2.623
 3050HO4     MW12200   1.688   2.436   2.700
 3051HO4     OW12201   2.523   6.572   5.431
 3051HO4    HW112202   2.472   6.491   5.419
 3051HO4    HW212203   2.456   6.639   5.451
 3051HO4     MW12204   2.523   6.572   5.431
 3052HO4     OW12205   4.441   7.041   6.989
 3052HO4    HW112206   4.408   7.007   6.905
 3052HO4    HW212207   4.534   7.059   6.972
 3052HO4     MW12208   4.441   7.041   6.989
 3053HO4     OW12209   2.928   2.334   7.221
 3053HO4    HW112210   2.932   2.369   7.131
 3053HO4    HW212211   3.020   2.319   7.245
 3053HO4     MW12212   2.928   2.334   7.221
 3054HO4     OW12213   9.110   6.898   8.492
 3054HO4    HW112214   9.170   6.972   8.496
 3054HO4    HW212215   9.066   6.898   8.578
 3054HO4     MW12216   9.110   6.898   8.492
 3055HO4     OW12217   4.433   9.061   5.519
 3055HO4    HW112218   4.454   9.022   5.434
 3055HO4    HW212219   4.485   9.142   5.522
 3055HO4     MW12220   4.433   9.061   5.519
 3056HO4     OW12221   8.282   3.332   4.546
 3056HO4    HW112222   8.218   3.265   4.520
 3056HO4    HW212223   8.285   3.393   4.472
 3056HO4     MW12224   8.282   3.332   4.546
 3057HO4     OW12225   3.176  10.036   1.389
 3057HO4    HW112226   3.088  10.041   1.429
 3057HO4    HW212227   3.205  10.127   1.384
 3057HO4     MW12228   3.176  10.036   1.389
 3058HO4     OW12229   0.883   3.568   3.021
 3058HO4    HW112230   0.844   3.654   3.001
 3058HO4    HW212231   0.863   3.554   3.114
 3058HO4     MW12232   0.883   3.568   3.021
 3059HO4     OW12233   9.456   9.555   5.632
 3059HO4    HW112234   9.450   9.459   5.625
 3059HO4    HW212235   9.508   9.570   5.712
 3059HO4     MW12236   9.456   9.555   5.632
 3060HO4     OW12237   7.352   4.042   3.683
 3060HO4    HW112238   7.312   4.113   3.735
 3060HO4    HW212239   7.283   3.976   3.678
 3060HO4     MW12240   7.352   4.042   3.683
 3061HO4     OW12241   1.713   3.765   5.014
 3061HO4    HW112242   1.729   3.697   5.081
 3061HO4    HW212243   1.682   3.716   4.938
 3061HO4     MW12244   1.713   3.765   5.014
 3062HO4     OW12245   5.718   2.336   3.122
 3062HO4    HW112246   5.690   2.407   3.182
 3062HO4    HW212247   5.810   2.356   3.104
 3062HO4     MW12248   5.718   2.336   3.122
 3063HO4     OW12249   0.912   7.489   9.663
 3063HO4    HW112250   0.964   7.536   9.597
 3063HO4    HW212251   0.828   7.472   9.619
 3063HO4     MW12252   0.912   7.489   9.663
 3064HO4     OW12253   2.650   1.548   8.708
 3064HO4    HW112254   2.661   1.544   8.803
 3064HO4    HW212255   2.731   1.587   8.675
 3064HO4     MW12256   2.650   1.548   8.708
 3065HO4     OW12257   3.980   1.271   3.450
 3065HO4    HW112258   4.070   1.294   3.474
 3065HO4    HW212259   3.927   1.345   3.482
 3065HO4     MW12260   3.980   1.271   3.450
 3066HO4     OW12261   2.492   6.869   7.782
 3066HO4    HW112262   2.560   6.901   7.722
 3066HO4    HW212263   2.522   6.899   7.869
 3066HO4     MW12264   2.492   6.869   7.782
 3067HO4     OW12265   2.108   7.577   5.348
 3067HO4    HW112266   2.086   7.483   5.344
 3067HO4    HW212267   2.198   7.582   5.314
 3067HO4     MW12268   2.108   7.577   5.348
 3068HO4     OW12269   1.759   6.653   7.750
 3068HO4    HW112270   1.854   6.642   7.765
 3068HO4    HW212271   1.728   6.697   7.830
 3068HO4     MW12272   1.759   6.653   7.750
 3069HO4     OW12273   4.298   8.835   6.346
 3069HO4    HW112274   4.357   8.911   6.347
 3069HO4    HW212275   4.271   8.824   6.438
 3069HO4     MW12276   4.298   8.835   6.346
 3070HO4     OW12277   6.388   3.271   1.055
 3070HO4    HW112278   6.348   3.338   1.111
 3070HO4    HW212279   6.351   3.288   0.968
 3070HO4     MW12280   6.388   3.271   1.055
 3071HO4     OW12281   6.560   9.317   5.302
 3071HO4    HW112282   6.524   9.352   5.383
 3071HO4    HW212283   6.561   9.391   5.241
 3071HO4     MW12284   6.560   9.317   5.302
 3072HO4     OW12285   4.753   5.744   7.914
 3072HO4    HW112286   4.786   5.819   7.864
 3072HO4    HW212287   4.685   5.782   7.971
 3072HO4     MW12288   4.753   5.744   7.914
 3073HO4     OW12289   5.070   1.361   1.164
 3073HO4    HW112290   5.107   1.447   1.144
 3073HO4    HW212291   4.978   1.368   1.136
 3073HO4     MW12292   5.070   1.361   1.164
 3074HO4     OW12293   5.622   0.499   3.357
 3074HO4    HW112294   5.560   0.431   3.386
 3074HO4    HW212295   5.575   0.582   3.373
 3074HO4     MW12296   5.622   0.499   3.357
 3075HO4     OW12297   0.189   2.600   9.308
 3075HO4    HW112298   0.238   2.540   9.364
 3075HO4    HW212299   0.257   2.649   9.260
 3075HO4     MW12300   0.189   2.600   9.308
 3076HO4     OW12301   1.172   5.830  10.113
 3076HO4    HW112302   1.243   5.798  10.056
 3076HO4    HW212303   1.216   5.851  10.195
 3076HO4     MW12304   1.172   5.830  10.113
 3077HO4     OW12305   6.419   2.650   0.584
 3077HO4    HW112306   6.418   2.624   0.491
 3077HO4    HW212307   6.388   2.741   0.583
 3077HO4     MW12308   6.419   2.650   0.584
 3078HO4     OW12309   4.777   7.015   7.452
 3078HO4    HW112310   4.797   7.110   7.453
 3078HO4    HW212311   4.795   6.988   7.362
 3078HO4     MW12312   4.777   7.015   7.452
 3079HO4     OW12313   8.174   4.559   7.524
 3079HO4    HW112314   8.175   4.464   7.513
 3079HO4    HW212315   8.117   4.591   7.454
 3079HO4     MW12316   8.174   4.559   7.524
 3080HO4     OW12317   4.868   4.470   0.980
 3080HO4    HW112318   4.795   4.421   1.021
 3080HO4    HW212319   4.825   4.532   0.921
 3080HO4     MW12320   4.868   4.470   0.980
 3081HO4     OW12321   2.318   7.630   4.345
 3081HO4    HW112322   2.222   7.627   4.352
 3081HO4    HW212323   2.335   7.684   4.267
 3081HO4     MW12324   2.318   7.630   4.345
 3082HO4     OW12325   0.976   3.076   4.796
 3082HO4    HW112326   0.921   2.999   4.778
 3082HO4    HW212327   1.034   3.082   4.719
 3082HO4     MW12328   0.976   3.076   4.796
 3083HO4     OW12329   4.490   5.388   1.537
 3083HO4    HW112330   4.483   5.316   1.473
 3083HO4    HW212331   4.539   5.457   1.491
 3083HO4     MW12332   4.490   5.388   1.537
 3084HO4     OW12333   3.107   6.123   4.209
 3084HO4    HW112334   3.156   6.043   4.229
 3084HO4    HW212335   3.130   6.143   4.118
 3084HO4     MW12336   3.107   6.123   4.209
 3085HO4     OW12337   0.821   0.277   9.955
 3085HO4    HW112338   0.836   0.211  10.023
 3085HO4    HW212339   0.733   0.256   9.921
 3085HO4     MW12340   0.821   0.277   9.955
 3086HO4     OW12341   1.866   3.924   0.734
 3086HO4    HW112342   1.914   3.861   0.788
 3086HO4    HW212343   1.869   3.887   0.645
 3086HO4     MW12344   1.866   3.924   0.734
 3087HO4     OW12345   2.222   3.108   7.871
 3087HO4    HW112346   2.179   3.109   7.957
 3087HO4    HW212347   2.150   3.110   7.808
 3087HO4     MW12348   2.222   3.108   7.871
 3088HO4     OW12349   0.210   0.989   8.248
 3088HO4    HW112350   0.250   0.941   8.320
 3088HO4    HW212351   0.117   0.995   8.271
 3088HO4     MW12352   0.210   0.989   8.248
 3089HO4     OW12353   3.161   0.729   6.610
 3089HO4    HW112354   3.172   0.647   6.560
 3089HO4    HW212355   3.211   0.794   6.559
 3089HO4     MW12356   3.161   0.729   6.610
 3090HO4     OW12357  10.113   5.902   1.492
 3090HO4    HW112358  10.065   5.859   1.563
 3090HO4    HW212359  10.046   5.926   1.428
 3090HO4     MW12360  10.113   5.902   1.492
 3091HO4     OW12361   3.580   3.067   6.062
 3091HO4    HW112362   3.582   2.979   6.022
 3091HO4    HW212363   3.509   3.112   6.016
 3091HO4     MW12364   3.580   3.067   6.062
 3092HO4     OW12365  10.102   4.616   9.326
 3092HO4    HW112366  10.075   4.653   9.411
 3092HO4    HW212367  10.059   4.673   9.261
 3092HO4     MW12368  10.102   4.616   9.326
 3093HO4     OW12369   8.406   7.587   8.139
 3093HO4    HW112370   8.345   7.620   8.206
 3093HO4    HW212371   8.364   7.609   8.055
 3093HO4     MW12372   8.406   7.587   8.139
 3094HO4     OW12373   9.398   9.839   7.262
 3094HO4    HW112374   9.310   9.802   7.250
 3094HO4    HW212375   9.385   9.913   7.322
 3094HO4     MW12376   9.398   9.839   7.262
 3095HO4     OW12377   9.648   4.061   8.927
 3095HO4    HW112378   9.728   4.113   8.913
 3095HO4    HW212379   9.582   4.102   8.871
 3095HO4     MW12380   9.648   4.061   8.927
 3096HO4     OW12381   3.905   5.417   5.684
 3096HO4    HW112382   3.952   5.482   5.630
 3096HO4    HW212383   3.938   5.433   5.773
 3096HO4     MW12384   3.905   5.417   5.684
 3097HO4     OW12385   0.544   1.284   8.498
 3097HO4    HW112386   0.454   1.284   8.534
 3097HO4    HW212387   0.600   1.304   8.574
 3097HO4     MW12388   0.544   1.284   8.498
 3098HO4     OW12389   5.204   4.562   6.363
 3098HO4    HW112390   5.280   4.516   6.400
 3098HO4    HW212391   5.228   4.576   6.271
 3098HO4     MW12392   5.204   4.562   6.363
 3099HO4     OW12393   8.687   1.067   0.535
 3099HO4    HW112394   8.691   1.024   0.622
 3099HO4    HW212395   8.672   0.994   0.474
 3099HO4     MW12396   8.687   1.067   0.535
 3100HO4     OW12397   1.539   1.076   1.428
 3100HO4    HW112398   1.603   1.057   1.497
 3100HO4    HW212399   1.456   1.089   1.475
 3100HO4     MW12400   1.539   1.076   1.428
 3101HO4     OW12401   1.095   4.068   4.070
 3101HO4    HW112402   1.069   4.144   4.123
 3101HO4    HW212403   1.100   4.103   3.980
 3101HO4     MW12404   1.095   4.068   4.070
 3102HO4     OW12405   3.307   6.395   5.023
 3102HO4    HW112406   3.246   6.452   4.976
 3102HO4    HW212407   3.319   6.439   5.108
 3102HO4     MW12408   3.307   6.395   5.023
 3103HO4     OW12409   0.635   5.659   3.476
 3103HO4    HW112410   0.662   5.610   3.397
 3103HO4    HW212411   0.672   5.608   3.549
 3103HO4     MW12412   0.635   5.659   3.476
 3104HO4     OW12413   1.051   9.874   9.224
 3104HO4    HW112414   1.035   9.807   9.291
 3104HO4    HW212415   1.021   9.833   9.142
 3104HO4     MW12416   1.051   9.874   9.224
 3105HO4     OW12417   6.345   5.327   9.448
 3105HO4    HW112418   6.371   5.281   9.368
 3105HO4    HW212419   6.375   5.271   9.519
 3105HO4     MW12420   6.345   5.327   9.448
 3106HO4     OW12421   4.747   6.225   2.559
 3106HO4    HW112422   4.700   6.294   2.512
 3106HO4    HW212423   4.799   6.181   2.492
 3106HO4     MW12424   4.747   6.225   2.559
 3107HO4     OW12425   8.032  10.065   9.355
 3107HO4    HW112426   7.978  10.066   9.275
 3107HO4    HW212427   7.969  10.072   9.427
 3107HO4     MW12428   8.032  10.065   9.355
 3108HO4     OW12429   9.089  10.083   0.714
 3108HO4    HW112430   9.048  10.123   0.636
 3108HO4    HW212431   9.040  10.121   0.788
 3108HO4     MW12432   9.089  10.083   0.714
 3109HO4     OW12433   2.678   4.100   9.461
 3109HO4    HW112434   2.642   4.135   9.379
 3109HO4    HW212435   2.753   4.157   9.480
 3109HO4     MW12436   2.678   4.100   9.461
 3110HO4     OW12437   3.469   3.802   5.519
 3110HO4    HW112438   3.391   3.857   5.526
 3110HO4    HW212439   3.538   3.853   5.562
 3110HO4     MW12440   3.469   3.802   5.519
 3111HO4     OW12441   2.818   5.866   5.572
 3111HO4    HW112442   2.862   5.862   5.657
 3111HO4    HW212443   2.735   5.911   5.590
 3111HO4     MW12444   2.818   5.866   5.572
 3112HO4     OW12445   3.826   6.686   8.741
 3112HO4    HW112446   3.794   6.775   8.761
 3112HO4    HW212447   3.807   6.675   8.647
 3112HO4     MW12448   3.826   6.686   8.741
 3113HO4     OW12449   8.732   3.102   2.420
 3113HO4    HW112450   8.686   3.160   2.359
 3113HO4    HW212451   8.786   3.046   2.364
 3113HO4     MW12452   8.732   3.102   2.420
 3114HO4     OW12453   1.681   5.642   2.621
 3114HO4    HW112454   1.672   5.697   2.700
 3114HO4    HW212455   1.665   5.553   2.652
 3114HO4     MW12456   1.681   5.642   2.621
 3115HO4     OW12457   2.416   2.915   3.151
 3115HO4    HW112458   2.414   2.844   3.085
 3115HO4    HW212459   2.329   2.956   3.143
 3115HO4     MW12460   2.416   2.915   3.151
 3116HO4     OW12461   0.422   3.361   8.903
 3116HO4    HW112462   0.350   3.424   8.915
 3116HO4    HW212463   0.502   3.415   8.908
 3116HO4     MW12464   0.422   3.361   8.903
 3117HO4     OW12465   2.299   3.843   2.040
 3117HO4    HW112466   2.345   3.759   2.036
 3117HO4    HW212467   2.367   3.907   2.065
 3117HO4     MW12468   2.299   3.843   2.040
 3118HO4     OW12469   3.022   7.937   3.774
 3118HO4    HW112470   2.963   7.926   3.850
 3118HO4    HW212471   3.003   7.861   3.718
 3118HO4     MW12472   3.022   7.937   3.774
 3119HO4     OW12473   8.066   8.516   6.743
 3119HO4    HW112474   8.030   8.545   6.659
 3119HO4    HW212475   8.137   8.578   6.762
 3119HO4     MW12476   8.066   8.516   6.743
 3120HO4     OW12477   7.274   1.874   3.146
 3120HO4    HW112478   7.191   1.891   3.191
 3120HO4    HW212479   7.273   1.780   3.127
 3120HO4     MW12480   7.274   1.874   3.146
 3121HO4     OW12481   4.819   0.565   8.355
 3121HO4    HW112482   4.896   0.530   8.400
 3121HO4    HW212483   4.846   0.652   8.324
 3121HO4     MW12484   4.819   0.565   8.355
 3122HO4     OW12485   7.847   3.188   1.695
 3122HO4    HW112486   7.812   3.240   1.622
 3122HO4    HW212487   7.821   3.237   1.773
 3122HO4     MW12488   7.847   3.188   1.695
 3123HO4     OW12489   5.618   5.766   0.072
 3123HO4    HW112490   5.620   5.821   0.151
 3123HO4    HW212491   5.624   5.828  -0.000
 3123HO4     MW12492   5.618   5.766   0.072
 3124HO4     OW12493   1.217   3.975   7.179
 3124HO4    HW112494   1.123   3.969   7.160
 3124HO4    HW212495   1.258   3.922   7.110
 3124HO4     MW12496   1.217   3.975   7.179
 3125HO4     OW12497   1.176   7.898   9.962
 3125HO4    HW112498   1.090   7.913   9.922
 3125HO4    HW212499   1.195   7.979  10.010
 3125HO4     MW12500   1.176   7.898   9.962
 3126HO4     OW12501   2.292   2.366   2.068
 3126HO4    HW112502   2.204   2.338   2.094
 3126HO4    HW212503   2.331   2.287   2.029
 3126HO4     MW12504   2.292   2.366   2.068
 3127HO4     OW12505   6.655   2.340   8.093
 3127HO4    HW112506   6.659   2.431   8.061
 3127HO4    HW212507   6.653   2.348   8.189
 3127HO4     MW12508   6.655   2.340   8.093
 3128HO4     OW12509   9.052   4.362   1.540
 3128HO4    HW112510   9.112   4.437   1.546
 3128HO4    HW212511   9.093   4.303   1.476
 3128HO4     MW12512   9.052   4.362   1.540
 3129HO4     OW12513   1.521   1.884   6.553
 3129HO4    HW112514   1.528   1.837   6.637
 3129HO4    HW212515   1.504   1.815   6.489
 3129HO4     MW12516   1.521   1.884   6.553
 3130HO4     OW12517   0.200   7.818   1.021
 3130HO4    HW112518   0.294   7.839   1.030
 3130HO4    HW212519   0.195   7.768   0.939
 3130HO4     MW12520   0.200   7.818   1.021
 3131HO4     OW12521   3.354   8.852   1.937
 3131HO4    HW112522   3.389   8.812   1.857
 3131HO4    HW212523   3.408   8.815   2.007
 3131HO4     MW12524   3.354   8.852   1.937
 3132HO4     OW12525   3.193   9.789   3.854
 3132HO4    HW112526   3.147   9.789   3.939
 3132HO4    HW212527   3.123   9.772   3.790
 3132HO4     MW12528   3.193   9.789   3.854
 3133HO4     OW12529   0.387   9.415   8.520
 3133HO4    HW112530   0.343   9.478   8.463
 3133HO4    HW212531   0.472   9.399   8.479
 3133HO4     MW12532   0.387   9.415   8.520
 3134HO4     OW12533   3.681   3.891   3.063
 3134HO4    HW112534   3.711   3.806   3.097
 3134HO4    HW212535   3.710   3.892   2.971
 3134HO4     MW12536   3.681   3.891   3.063
 3135HO4     OW12537   8.840   5.344   8.712
 3135HO4    HW112538   8.909   5.378   8.771
 3135HO4    HW212539   8.759   5.385   8.744
 3135HO4     MW12540   8.840   5.344   8.712
 3136HO4     OW12541   5.162   0.699   3.068
 3136HO4    HW112542   5.113   0.617   3.077
 3136HO4    HW212543   5.093   0.766   3.058
 3136HO4     MW12544   5.162   0.699   3.068
 3137HO4     OW12545   2.706   0.866   4.727
 3137HO4    HW112546   2.734   0.928   4.795
 3137HO4    HW212547   2.743   0.902   4.645
 3137HO4     MW12548   2.706   0.866   4.727
 3138HO4     OW12549   7.929   1.343   1.307
 3138HO4    HW112550   7.927   1.334   1.403
 3138HO4    HW212551   8.022   1.328   1.285
 3138HO4     MW12552   7.929   1.343   1.307
 3139HO4     OW12553   5.152  10.025   5.361
 3139HO4    HW112554   5.159   9.938   5.321
 3139HO4    HW212555   5.147  10.008   5.455
 3139HO4     MW12556   5.152  10.025   5.361
 3140HO4     OW12557   9.972   2.223   0.882
 3140HO4    HW112558  10.007   2.290   0.822
 3140HO4    HW212559   9.997   2.254   0.969
 3140HO4     MW12560   9.972   2.223   0.882
 3141HO4     OW12561   6.532   4.257   8.037
 3141HO4    HW112562   6.468   4.217   8.096
 3141HO4    HW212563   6.488   4.336   8.003
 3141HO4     MW12564   6.532   4.257   8.037
 3142HO4     OW12565   4.821   1.237   1.048
 3142HO4    HW112566   4.898   1.237   1.105
 3142HO4    HW212567   4.827   1.154   1.000
 3142HO4     MW12568   4.821   1.237   1.048
 3143HO4     OW12569   1.670   1.010   4.789
 3143HO4    HW112570   1.677   1.099   4.752
 3143HO4    HW212571   1.630   1.024   4.876
 3143HO4     MW12572   1.670   1.010   4.789
 3144HO4     OW12573   1.679   3.519   8.290
 3144HO4    HW112574   1.594   3.474   8.296
 3144HO4    HW212575   1.698   3.521   8.196
 3144HO4     MW12576   1.679   3.519   8.290
 3145HO4     OW12577   3.631   8.056   6.422
 3145HO4    HW112578   3.681   8.035   6.502
 3145HO4    HW212579   3.692   8.036   6.351
 3145HO4     MW12580   3.631   8.056   6.422
 3146HO4     OW12581   8.010   7.321   3.868
 3146HO4    HW112582   8.027   7.416   3.873
 3146HO4    HW212583   8.056   7.285   3.945
 3146HO4     MW12584   8.010   7.321   3.868
 3147HO4     OW12585   8.703   2.479   6.742
 3147HO4    HW112586   8.691   2.407   6.678
 3147HO4    HW212587   8.617   2.521   6.746
 3147HO4     MW12588   8.703   2.479   6.742
 3148HO4     OW12589   8.428   1.403   8.904
 3148HO4    HW112590   8.464   1.372   8.821
 3148HO4    HW212591   8.492   1.376   8.970
 3148HO4     MW12592   8.428   1.403   8.904
 3149HO4     OW12593   8.121   3.535   3.486
 3149HO4    HW112594   8.198   3.548   3.542
 3149HO4    HW212595   8.102   3.441   3.493
 3149HO4     MW12596   8.121   3.535   3.486
 3150HO4     OW12597   4.413   0.980   9.991
 3150HO4    HW112598   4.401   0.930  10.072
 3150HO4    HW212599   4.373   1.066  10.009
 3150HO4     MW12600   4.413   0.980   9.991
 3151HO4     OW12601   1.436   2.605   8.455
 3151HO4    HW112602   1.393   2.653   8.527
 3151HO4    HW212603   1.396   2.641   8.376
 3151HO4     MW12604   1.436   2.605   8.455
 3152HO4     OW12605   8.097   7.583   1.088
 3152HO4    HW112606   8.096   7.637   1.008
 3152HO4    HW212607   8.110   7.647   1.159
 3152HO4     MW12608   8.097   7.583   1.088
 3153HO4     OW12609   7.056   6.113   9.224
 3153HO4    HW112610   7.084   6.201   9.252
 3153HO4    HW212611   7.105   6.096   9.144
 3153HO4     MW12612   7.056   6.113   9.224
 3154HO4     OW12613   0.181   4.998   9.252
 3154HO4    HW112614   0.185   4.936   9.179
 3154HO4    HW212615   0.202   4.945   9.329
 3154HO4     MW12616   0.181   4.998   9.252
 3155HO4     OW12617   1.797   4.355   3.725
 3155HO4    HW112618   1.763   4.267   3.739
 3155HO4    HW212619   1.783   4.372   3.631
 3155HO4     MW12620   1.797   4.355   3.725
 3156HO4     OW12621   8.806   5.565   0.410
 3156HO4    HW112622   8.831   5.570   0.502
 3156HO4    HW212623   8.859   5.492   0.375
 3156HO4     MW12624   8.806   5.565   0.410
 3157HO4     OW12625   0.476   6.875   7.366
 3157HO4    HW112626   0.437   6.857   7.280
 3157HO4    HW212627   0.420   6.828   7.428
 3157HO4     MW12628   0.476   6.875   7.366
 3158HO4     OW12629   8.994   3.431   1.141
 3158HO4    HW112630   8.920   3.487   1.115
 3158HO4    HW212631   9.021   3.465   1.227
 3158HO4     MW12632   8.994   3.431   1.141
 3159HO4     OW12633   3.734   7.152   5.002
 3159HO4    HW112634   3.785   7.233   5.000
 3159HO4    HW212635   3.771   7.099   4.930
 3159HO4     MW12636   3.734   7.152   5.002
 3160HO4     OW12637   3.385   0.272   5.050
 3160HO4    HW112638   3.418   0.231   5.130
 3160HO4    HW212639   3.430   0.226   4.979
 3160HO4     MW12640   3.385   0.272   5.050
 3161HO4     OW12641   6.599   6.953   7.465
 3161HO4    HW112642   6.571   7.042   7.441
 3161HO4    HW212643   6.554   6.896   7.402
 3161HO4     MW12644   6.599   6.953   7.465
 3162HO4     OW12645   0.372   4.932   8.758
 3162HO4    HW112646   0.372   5.025   8.780
 3162HO4    HW212647   0.391   4.930   8.663
 3162HO4     MW12648   0.372   4.932   8.758
 3163HO4     OW12649   8.763   4.884   0.619
 3163HO4    HW112650   8.724   4.842   0.543
 3163HO4    HW212651   8.754   4.979   0.601
 3163HO4     MW12652   8.763   4.884   0.619
 3164HO4     OW12653   8.214   0.450   0.319
 3164HO4    HW112654   8.215   0.445   0.223
 3164HO4    HW212655   8.161   0.529   0.338
 3164HO4     MW12656   8.214   0.450   0.319
 3165HO4     OW12657   5.485   9.584   2.765
 3165HO4    HW112658   5.409   9.631   2.800
 3165HO4    HW212659   5.507   9.631   2.683
 3165HO4     MW12660   5.485   9.584   2.765
 3166HO4     OW12661   8.790   4.072   2.773
 3166HO4    HW112662   8.789   4.016   2.852
 3166HO4    HW212663   8.880   4.065   2.740
 3166HO4     MW12664   8.790   4.072   2.773
 3167HO4     OW12665   8.034   9.816   9.856
 3167HO4    HW112666   8.085   9.811   9.938
 3167HO4    HW212667   8.099   9.806   9.786
 3167HO4     MW12668   8.034   9.816   9.856
 3168HO4     OW12669   5.296   9.968   4.700
 3168HO4    HW112670   5.268  10.058   4.721
 3168HO4    HW212671   5.260   9.952   4.611
 3168HO4     MW12672   5.296   9.968   4.700
 3169HO4     OW12673   6.643   9.852   1.248
 3169HO4    HW112674   6.727   9.856   1.200
 3169HO4    HW212675   6.579   9.825   1.181
 3169HO4     MW12676   6.643   9.852   1.248
 3170HO4     OW12677   5.110   0.352   2.948
 3170HO4    HW112678   5.062   0.314   2.874
 3170HO4    HW212679   5.185   0.398   2.908
 3170HO4     MW12680   5.110   0.352   2.948
 3171HO4     OW12681   1.788   5.819   5.722
 3171HO4    HW112682   1.871   5.803   5.769
 3171HO4    HW212683   1.813   5.823   5.630
 3171HO4     MW12684   1.788   5.819   5.722
 3172HO4     OW12685   6.204   6.536   8.355
 3172HO4    HW112686   6.285   6.484   8.346
 3172HO4    HW212687   6.218   6.612   8.297
 3172HO4     MW12688   6.204   6.536   8.355
 3173HO4     OW12689   8.143   5.660   6.402
 3173HO4    HW112690   8.119   5.620   6.486
 3173HO4    HW212691   8.090   5.611   6.337
 3173HO4     MW12692   8.143   5.660   6.402
 3174HO4     OW12693   3.446   6.507   0.714
 3174HO4    HW112694   3.410   6.594   0.692
 3174HO4    HW212695   3.506   6.487   0.641
 3174HO4     MW12696   3.446   6.507   0.714
 3175HO4     OW12697   7.037   5.135   1.839
 3175HO4    HW112698   7.023   5.193   1.915
 3175HO4    HW212699   7.123   5.162   1.804
 3175HO4     MW12700   7.037   5.135   1.839
 3176HO4     OW12701   2.300   3.485   2.399
 3176HO4    HW112702   2.354   3.516   2.472
 3176HO4    HW212703   2.359   3.432   2.346
 3176HO4     MW12704   2.300   3.485   2.399
 3177HO4     OW12705   7.357   5.442   1.183
 3177HO4    HW112706   7.326   5.462   1.094
 3177HO4    HW212707   7.349   5.526   1.230
 3177HO4     MW12708   7.357   5.442   1.183
 3178HO4     OW12709   1.791   5.059   5.356
 3178HO4    HW112710   1.839   4.985   5.317
 3178HO4    HW212711   1.788   5.039   5.450
 3178HO4     MW12712   1.791   5.059   5.356
 3179HO4     OW12713   5.947   1.632   9.801
 3179HO4    HW112714   5.994   1.705   9.760
 3179HO4    HW212715   5.908   1.585   9.727
 3179HO4     MW12716   5.947   1.632   9.801
 3180HO4     OW12717   1.677   0.185   9.095
 3180HO4    HW112718   1.761   0.214   9.057
 3180HO4    HW212719   1.630   0.266   9.115
 3180HO4     MW12720   1.677   0.185   9.095
 3181HO4     OW12721   4.893   1.420   8.421
 3181HO4    HW112722   4.918   1.382   8.336
 3181HO4    HW212723   4.827   1.486   8.399
 3181HO4     MW12724   4.893   1.420   8.421
 3182HO4     OW12725   0.786   9.465   9.170
 3182HO4    HW112726   0.829   9.411   9.103
 3182HO4    HW212727   0.841   9.455   9.248
 3182HO4     MW12728   0.786   9.465   9.170
 3183HO4     OW12729   2.694   0.593   2.517
 3183HO4    HW112730   2.668   0.586   2.610
 3183HO4    HW212731   2.662   0.680   2.490
 3183HO4     MW12732   2.694   0.593   2.517
 3184HO4     OW12733   5.713   9.707   1.009
 3184HO4    HW112734   5.743   9.768   0.940
 3184HO4    HW212735   5.738   9.751   1.091
 3184HO4     MW12736   5.713   9.707   1.009
 3185HO4     OW12737   2.787   2.518   0.846
 3185HO4    HW112738   2.792   2.453   0.776
 3185HO4    HW212739   2.774   2.467   0.926
 3185HO4     MW12740   2.787   2.518   0.846
 3186HO4     OW12741   1.674   1.087   8.008
 3186HO4    HW112742   1.747   1.024   8.012
 3186HO4    HW212743   1.713   1.165   7.967
 3186HO4     MW12744   1.674   1.087   8.008
 3187HO4     OW12745   6.558   9.151   6.806
 3187HO4    HW112746   6.570   9.239   6.769
 3187HO4    HW212747   6.465   9.148   6.832
 3187HO4     MW12748   6.558   9.151   6.806
 3188HO4     OW12749   8.148   3.030   8.144
 3188HO4    HW112750   8.102   2.947   8.127
 3188HO4    HW212751   8.123   3.053   8.234
 3188HO4     MW12752   8.148   3.030   8.144
 3189HO4     OW12753   8.099   2.811   6.733
 3189HO4    HW112754   8.175   2.780   6.684
 3189HO4    HW212755   8.030   2.821   6.667
 3189HO4     MW12756   8.099   2.811   6.733
 3190HO4     OW12757   4.955   8.327   0.510
 3190HO4    HW112758   5.042   8.303   0.543
 3190HO4    HW212759   4.957   8.302   0.417
 3190HO4     MW12760   4.955   8.327   0.510
 3191HO4     OW12761   8.926   0.474   0.687
 3191HO4    HW112762   8.908   0.387   0.650
 3191HO4    HW212763   8.981   0.457   0.764
 3191HO4     MW12764   8.926   0.474   0.687
 3192HO4     OW12765   2.013   6.870   4.688
 3192HO4    HW112766   1.982   6.800   4.629
 3192HO4    HW212767   1.955   6.944   4.670
 3192HO4     MW12768   2.013   6.870   4.688
 3193HO4     OW12769   3.558   0.402   7.008
 3193HO4    HW112770   3.570   0.348   6.930
 3193HO4    HW212771   3.586   0.346   7.081
 3193HO4     MW12772   3.558   0.402   7.008
 3194HO4     OW12773   2.779   1.444   2.846
 3194HO4    HW112774   2.814   1.428   2.758
 3194HO4    HW212775   2.854   1.430   2.905
 3194HO4     MW12776   2.779   1.444   2.846
 3195HO4     OW12777   8.333   3.759   9.132
 3195HO4    HW112778   8.376   3.727   9.051
 3195HO4    HW212779   8.406   3.776   9.192
 3195HO4     MW12780   8.333   3.759   9.132
 3196HO4     OW12781   9.543   4.292   8.156
 3196HO4    HW112782   9.634   4.309   8.180
 3196HO4    HW212783   9.538   4.317   8.063
 3196HO4     MW12784   9.543   4.292   8.156
 3197HO4     OW12785   3.826   7.879   6.297
 3197HO4    HW112786   3.822   7.783   6.300
 3197HO4    HW212787   3.915   7.899   6.268
 3197HO4     MW12788   3.826   7.879   6.297
 3198HO4     OW12789   8.930   8.042   4.127
 3198HO4    HW112790   8.885   8.022   4.044
 3198HO4    HW212791   8.861   8.080   4.183
 3198HO4     MW12792   8.930   8.042   4.127
 3199HO4     OW12793   3.663   5.174   0.865
 3199HO4    HW112794   3.644   5.238   0.935
 3199HO4    HW212795   3.743   5.207   0.823
 3199HO4     MW12796   3.663   5.174   0.865
 3200HO4     OW12797   8.917   0.831   3.342
 3200HO4    HW112798   8.964   0.899   3.294
 3200HO4    HW212799   8.856   0.879   3.399
 3200HO4     MW12800   8.917   0.831   3.342
 3201HO4     OW12801   8.293   4.794   0.738
 3201HO4    HW112802   8.240   4.797   0.819
 3201HO4    HW212803   8.228   4.792   0.668
 3201HO4     MW12804   8.293   4.794   0.738
 3202HO4     OW12805   7.273   4.255   2.056
 3202HO4    HW112806   7.214   4.178   2.052
 3202HO4    HW212807   7.354   4.220   2.093
 3202HO4     MW12808   7.273   4.255   2.056
 3203HO4     OW12809   2.062   8.435   0.678
 3203HO4    HW112810   2.018   8.521   0.676
 3203HO4    HW212811   2.128   8.441   0.608
 3203HO4     MW12812   2.062   8.435   0.678
 3204HO4     OW12813   4.160   1.973   9.848
 3204HO4    HW112814   4.123   2.011   9.768
 3204HO4    HW212815   4.086   1.968   9.909
 3204HO4     MW12816   4.160   1.973   9.848
 3205HO4     OW12817   6.430   1.159   7.923
 3205HO4    HW112818   6.401   1.250   7.911
 3205HO4    HW212819   6.380   1.128   7.999
 3205HO4     MW12820   6.430   1.159   7.923
 3206HO4     OW12821   5.705   2.450   9.305
 3206HO4    HW112822   5.634   2.417   9.360
 3206HO4    HW212823   5.659   2.497   9.234
 3206HO4     MW12824   5.705   2.450   9.305
 3207HO4     OW12825   0.248   8.963   7.101
 3207HO4    HW112826   0.239   8.920   7.186
 3207HO4    HW212827   0.234   8.892   7.037
 3207HO4     MW12828   0.248   8.963   7.101
 3208HO4     OW12829   6.834   0.285   6.914
 3208HO4    HW112830   6.775   0.233   6.858
 3208HO4    HW212831   6.799   0.374   6.909
 3208HO4     MW12832   6.834   0.285   6.914
 3209HO4     OW12833   4.628   6.156   1.256
 3209HO4    HW112834   4.668   6.149   1.169
 3209HO4    HW212835   4.698   6.189   1.312
 3209HO4     MW12836   4.628   6.156   1.256
 3210HO4     OW12837   2.323   6.082   3.098
 3210HO4    HW112838   2.375   6.138   3.040
 3210HO4    HW212839   2.274   6.024   3.038
 3210HO4     MW12840   2.323   6.082   3.098
 3211HO4     OW12841   1.485   7.541   6.513
 3211HO4    HW112842   1.504   7.451   6.541
 3211HO4    HW212843   1.563   7.568   6.464
 3211HO4     MW12844   1.485   7.541   6.513
 3212HO4     OW12845   4.446   8.992   6.200
 3212HO4    HW112846   4.505   9.055   6.242
 3212HO4    HW212847   4.491   8.969   6.118
 3212HO4     MW12848   4.446   8.992   6.200
 3213HO4     OW12849   4.943   9.886   8.201
 3213HO4    HW112850   4.980   9.973   8.189
 3213HO4    HW212851   5.018   9.826   8.192
 3213HO4     MW12852   4.943   9.886   8.201
 3214HO4     OW12853   5.929   7.279   8.916
 3214HO4    HW112854   5.867   7.340   8.875
 3214HO4    HW212855   5.909   7.284   9.010
 3214HO4     MW12856   5.929   7.279   8.916
 3215HO4     OW12857   2.465   8.379   9.562
 3215HO4    HW112858   2.385   8.335   9.530
 3215HO4    HW212859   2.440   8.472   9.569
 3215HO4     MW12860   2.465   8.379   9.562
 3216HO4     OW12861   3.808   5.022   9.408
 3216HO4    HW112862   3.766   5.006   9.493
 3216HO4    HW212863   3.847   5.110   9.418
 3216HO4     MW12864   3.808   5.022   9.408
 3217HO4     OW12865   5.382   0.913   9.745
 3217HO4    HW112866   5.321   0.900   9.819
 3217HO4    HW212867   5.465   0.937   9.787
 3217HO4     MW12868   5.382   0.913   9.745
 3218HO4     OW12869   4.339   5.299   2.873
 3218HO4    HW112870   4.296   5.293   2.959
 3218HO4    HW212871   4.356   5.208   2.848
 3218HO4     MW12872   4.339   5.299   2.873
 3219HO4     OW12873   1.060   6.156   6.658
 3219HO4    HW112874   1.126   6.087   6.647
 3219HO4    HW212875   1.058   6.172   6.753
 3219HO4     MW12876   1.060   6.156   6.658
 3220HO4     OW12877   8.089   8.730   6.392
 3220HO4    HW112878   8.160   8.755   6.451
 3220HO4    HW212879   8.013   8.782   6.421
 3220HO4     MW12880   8.089   8.730   6.392
 3221HO4     OW12881   5.338   5.037   4.223
 3221HO4    HW112882   5.291   4.959   4.252
 3221HO4    HW212883   5.275   5.084   4.167
 3221HO4     MW12884   5.338   5.037   4.223
 3222HO4     OW12885   9.487   3.986   8.681
 3222HO4    HW112886   9.441   4.044   8.619
 3222HO4    HW212887   9.577   3.982   8.647
 3222HO4     MW12888   9.487   3.986   8.681
 3223HO4     OW12889   5.973   5.863   6.195
 3223HO4    HW112890   5.970   5.943   6.248
 3223HO4    HW212891   6.064   5.832   6.205
 3223HO4     MW12892   5.973   5.863   6.195
 3224HO4     OW12893   0.281   3.310   3.925
 3224HO4    HW112894   0.307   3.402   3.919
 3224HO4    HW212895   0.364   3.262   3.911
 3224HO4     MW12896   0.281   3.310   3.925
 3225HO4     OW12897   4.294   5.301   1.909
 3225HO4    HW112898   4.303   5.332   1.999
 3225HO4    HW212899   4.224   5.355   1.872
 3225HO4     MW12900   4.294   5.301   1.909
 3226HO4     OW12901   5.991   6.268   8.151
 3226HO4    HW112902   6.000   6.239   8.060
 3226HO4    HW212903   5.907   6.231   8.180
 3226HO4     MW12904   5.991   6.268   8.151
 3227HO4     OW12905   0.571   7.535  10.088
 3227HO4    HW112906   0.543   7.498  10.004
 3227HO4    HW212907   0.639   7.598  10.065
 3227HO4     MW12908   0.571   7.535  10.088
 3228HO4     OW12909   8.955   8.659   2.053
 3228HO4    HW112910   9.005   8.626   2.128
 3228HO4    HW212911   8.890   8.590   2.034
 3228HO4     MW12912   8.955   8.659   2.053
 3229HO4     OW12913   7.359   1.198   5.629
 3229HO4    HW112914   7.422   1.271   5.623
 3229HO4    HW212915   7.396   1.131   5.571
 3229HO4     MW12916   7.359   1.198   5.629
 3230HO4     OW12917   8.007   4.131   1.682
 3230HO4    HW112918   7.976   4.087   1.762
 3230HO4    HW212919   7.963   4.085   1.610
 3230HO4     MW12920   8.007   4.131   1.682
 3231HO4     OW12921   0.202   3.841   0.836
 3231HO4    HW112922   0.264   3.915   0.837
 3231HO4    HW212923   0.116   3.882   0.842
 3231HO4     MW12924   0.202   3.841   0.836
 3232HO4     OW12925   1.002   8.721   2.307
 3232HO4    HW112926   0.963   8.696   2.391
 3232HO4    HW212927   0.988   8.817   2.303
 3232HO4     MW12928   1.002   8.721   2.307
 3233HO4     OW12929   3.661   0.558   0.042
 3233HO4    HW112930   3.745   0.512   0.057
 3233HO4    HW212931   3.660   0.628   0.108
 3233HO4     MW12932   3.661   0.558   0.042
 3234HO4     OW12933   8.663   1.919   6.221
 3234HO4    HW112934   8.603   1.848   6.197
 3234HO4    HW212935   8.618   1.965   6.293
 3234HO4     MW12936   8.663   1.919   6.221
 3235HO4     OW12937   3.172   3.968   2.058
 3235HO4    HW112938   3.242   4.022   2.020
 3235HO4    HW212939   3.163   4.000   2.148
 3235HO4     MW12940   3.172   3.968   2.058
 3236HO4     OW12941   9.713   5.285   0.444
 3236HO4    HW112942   9.714   5.241   0.529
 3236HO4    HW212943   9.790   5.250   0.398
 3236HO4     MW12944   9.713   5.285   0.444
 3237HO4     OW12945   0.201   0.206   3.277
 3237HO4    HW112946   0.273   0.270   3.272
 3237HO4    HW212947   0.239   0.131   3.324
 3237HO4     MW12948   0.201   0.206   3.277
 3238HO4     OW12949   8.854   2.039   5.122
 3238HO4    HW112950   8.899   1.957   5.141
 3238HO4    HW212951   8.844   2.082   5.207
 3238HO4     MW12952   8.854   2.039   5.122
 3239HO4     OW12953   0.767   6.815   4.818
 3239HO4    HW112954   0.769   6.738   4.761
 3239HO4    HW212955   0.766   6.779   4.907
 3239HO4     MW12956   0.767   6.815   4.818
 3240HO4     OW12957   1.283   2.065   0.300
 3240HO4    HW112958   1.201   2.061   0.350
 3240HO4    HW212959   1.255   2.061   0.208
 3240HO4     MW12960   1.283   2.065   0.300
 3241HO4     OW12961   2.032   9.135   3.293
 3241HO4    HW112962   2.012   9.187   3.215
 3241HO4    HW212963   2.128   9.128   3.292
 3241HO4     MW12964   2.032   9.135   3.293
 3242HO4     OW12965   8.733   6.962   9.817
 3242HO4    HW112966   8.677   6.939   9.891
 3242HO4    HW212967   8.680   6.943   9.739
 3242HO4     MW12968   8.733   6.962   9.817
 3243HO4     OW12969   8.409   0.181   3.540
 3243HO4    HW112970   8.441   0.272   3.534
 3243HO4    HW212971   8.395   0.155   3.449
 3243HO4     MW12972   8.409   0.181   3.540
 3244HO4     OW12973   0.621   8.685   8.238
 3244HO4    HW112974   0.656   8.645   8.158
 3244HO4    HW212975   0.677   8.652   8.308
 3244HO4     MW12976   0.621   8.685   8.238
 3245HO4     OW12977   7.237   3.876   9.135
 3245HO4    HW112978   7.222   3.797   9.083
 3245HO4    HW212979   7.170   3.872   9.204
 3245HO4     MW12980   7.237   3.876   9.135
 3246HO4     OW12981   6.721   6.842   3.237
 3246HO4    HW112982   6.745   6.908   3.303
 3246HO4    HW212983   6.692   6.894   3.161
 3246HO4     MW12984   6.721   6.842   3.237
 3247HO4     OW12985   6.214   0.332   4.940
 3247HO4    HW112986   6.219   0.242   4.974
 3247HO4    HW212987   6.200   0.321   4.846
 3247HO4     MW12988   6.214   0.332   4.940
 3248HO4     OW12989   1.104   7.029   7.277
 3248HO4    HW112990   1.010   7.015   7.264
 3248HO4    HW212991   1.137   7.051   7.190
 3248HO4     MW12992   1.104   7.029   7.277
 3249HO4     OW12993   6.063   1.438   6.729
 3249HO4    HW112994   6.110   1.420   6.811
 3249HO4    HW212995   6.091   1.527   6.705
 3249HO4     MW12996   6.063   1.438   6.729
 3250HO4     OW12997   0.283   1.615   2.316
 3250HO4    HW112998   0.320   1.593   2.402
 3250HO4    HW212999   0.323   1.552   2.255
 3250HO4     MW13000   0.283   1.615   2.316
 3251HO4     OW13001   0.042   7.689   0.771
 3251HO4    HW113002   0.071   7.628   0.840
 3251HO4    HW213003   0.047   7.638   0.690
 3251HO4     MW13004   0.042   7.689   0.771
 3252HO4     OW13005   0.062   2.529   1.796
 3252HO4    HW113006   0.061   2.624   1.813
 3252HO4    HW213007   0.102   2.492   1.876
 3252HO4     MW13008   0.062   2.529   1.796
 3253HO4     OW13009   1.850   3.382   5.768
 3253HO4    HW113010   1.859   3.322   5.842
 3253HO4    HW213011   1.940   3.398   5.739
 3253HO4     MW13012   1.850   3.382   5.768
 3254HO4     OW13013   3.867  10.109   9.039
 3254HO4    HW113014   3.777  10.110   9.073
 3254HO4    HW213015   3.881  10.198   9.005
 3254HO4     MW13016   3.867  10.109   9.039
 3255HO4     OW13017   4.144   9.993   9.106
 3255HO4    HW113018   4.115   9.940   9.031
 3255HO4    HW213019   4.123   9.939   9.183
 3255HO4     MW13020   4.144   9.993   9.106
 3256HO4     OW13021   6.993   5.781   0.917
 3256HO4    HW113022   7.084   5.750   0.926
 3256HO4    HW213023   6.996   5.843   0.844
 3256HO4     MW13024   6.993   5.781   0.917
 3257HO4     OW13025   7.374   6.394   3.722
 3257HO4    HW113026   7.443   6.461   3.714
 3257HO4    HW213027   7.299   6.442   3.759
 3257HO4     MW13028   7.374   6.394   3.722
 3258HO4     OW13029   3.281   3.527   1.609
 3258HO4    HW113030   3.364   3.566   1.639
 3258HO4    HW213031   3.220   3.542   1.681
 3258HO4     MW13032   3.281   3.527   1.609
 3259HO4     OW13033   1.167   3.243   9.805
 3259HO4    HW113034   1.142   3.253   9.898
 3259HO4    HW213035   1.136   3.155   9.782
 3259HO4     MW13036   1.167   3.243   9.805
 3260HO4     OW13037   4.700   0.332   9.721
 3260HO4    HW113038   4.681   0.257   9.664
 3260HO4    HW213039   4.725   0.291   9.805
 3260HO4     MW13040   4.700   0.332   9.721
 3261HO4     OW13041   0.761   4.141   4.312
 3261HO4    HW113042   0.762   4.184   4.398
 3261HO4    HW213043   0.795   4.209   4.252
 3261HO4     MW13044   0.761   4.141   4.312
 3262HO4     OW13045   5.679   4.357   4.460
 3262HO4    HW113046   5.634   4.439   4.438
 3262HO4    HW213047   5.694   4.364   4.555
 3262HO4     MW13048   5.679   4.357   4.460
 3263HO4     OW13049   7.432   7.404   0.426
 3263HO4    HW113050   7.392   7.481   0.468
 3263HO4    HW213051   7.432   7.337   0.494
 3263HO4     MW13052   7.432   7.404   0.426
 3264HO4     OW13053   6.184   5.730   5.599
 3264HO4    HW113054   6.103   5.698   5.557
 3264HO4    HW213055   6.206   5.661   5.663
 3264HO4     MW13056   6.184   5.730   5.599
 3265HO4     OW13057  10.072   9.739   9.368
 3265HO4    HW113058  10.102   9.710   9.455
 3265HO4    HW213059   9.990   9.786   9.386
 3265HO4     MW13060  10.072   9.739   9.368
 3266HO4     OW13061   1.956   3.275   1.690
 3266HO4    HW113062   1.987   3.185   1.706
 3266HO4    HW213063   1.947   3.313   1.778
 3266HO4     MW13064   1.956   3.275   1.690
 3267HO4     OW13065   4.220   1.387   8.716
 3267HO4    HW113066   4.178   1.429   8.641
 3267HO4    HW213067   4.177   1.426   8.793
 3267HO4     MW13068   4.220   1.387   8.716
 3268HO4     OW13069   5.630   6.621   6.653
 3268HO4    HW113070   5.607   6.608   6.560
 3268HO4    HW213071   5.552   6.591   6.700
 3268HO4     MW13072   5.630   6.621   6.653
 3269HO4     OW13073   5.778   3.344   8.153
 3269HO4    HW113074   5.848   3.407   8.172
 3269HO4    HW213075   5.817   3.285   8.088
 3269HO4     MW13076   5.778   3.344   8.153
 3270HO4     OW13077   5.311   6.132   8.909
 3270HO4    HW113078   5.360   6.050   8.920
 3270HO4    HW213079   5.374   6.192   8.866
 3270HO4     MW13080   5.311   6.132   8.909
 3271HO4     OW13081   5.167   6.301   8.973
 3271HO4    HW113082   5.170   6.349   9.056
 3271HO4    HW213083   5.147   6.211   8.998
 3271HO4     MW13084   5.167   6.301   8.973
 3272HO4     OW13085   6.854   8.286   5.447
 3272HO4    HW113086   6.895   8.228   5.381
 3272HO4    HW213087   6.779   8.235   5.480
 3272HO4     MW13088   6.854   8.286   5.447
 3273HO4     OW13089   1.051   8.763   7.778
 3273HO4    HW113090   1.061   8.797   7.867
 3273HO4    HW213091   0.967   8.802   7.748
 3273HO4     MW13092   1.051   8.763   7.778
 3274HO4     OW13093   7.338   4.000   7.316
 3274HO4    HW113094   7.305   4.076   7.365
 3274HO4    HW213095   7.379   4.038   7.238
 3274HO4     MW13096   7.338   4.000   7.316
 3275HO4     OW13097   0.715   6.691   3.264
 3275HO4    HW113098   0.644   6.643   3.220
 3275HO4    HW213099   0.788   6.687   3.201
 3275HO4     MW13100   0.715   6.691   3.264
 3276HO4     OW13101   5.093   5.874   1.200
 3276HO4    HW113102   5.153   5.928   1.252
 3276HO4    HW213103   5.149   5.833   1.134
 3276HO4     MW13104   5.093   5.874   1.200
 3277HO4     OW13105   3.161   5.245   8.840
 3277HO4    HW113106   3.125   5.234   8.752
 3277HO4    HW213107   3.131   5.167   8.888
 3277HO4     MW13108   3.161   5.245   8.840
 3278HO4     OW13109   8.617   0.693   1.534
 3278HO4    HW113110   8.562   0.695   1.455
 3278HO4    HW213111   8.554   0.696   1.607
 3278HO4     MW13112   8.617   0.693   1.534
 3279HO4     OW13113   0.114   6.213   9.667
 3279HO4    HW113114   0.102   6.126   9.705
 3279HO4    HW213115   0.064   6.272   9.723
 3279HO4     MW13116   0.114   6.213   9.667
 3280HO4     OW13117   4.474   8.668   5.929
 3280HO4    HW113118   4.402   8.702   5.982
 3280HO4    HW213119   4.455   8.700   5.840
 3280HO4     MW13120   4.474   8.668   5.929
 3281HO4     OW13121   7.579   3.787   1.651
 3281HO4    HW113122   7.610   3.729   1.581
 3281HO4    HW213123   7.547   3.865   1.605
 3281HO4     MW13124   7.579   3.787   1.651
 3282HO4     OW13125   0.780   2.281   9.061
 3282HO4    HW113126   0.844   2.299   8.992
 3282HO4    HW213127   0.833   2.277   9.142
 3282HO4     MW13128   0.780   2.281   9.061
 3283HO4     OW13129   4.782   9.862   4.909
 3283HO4    HW113130   4.857   9.873   4.850
 3283HO4    HW213131   4.821   9.864   4.997
 3283HO4     MW13132   4.782   9.862   4.909
 3284HO4     OW13133   2.505   8.959   0.988
 3284HO4    HW113134   2.572   8.979   1.054
 3284HO4    HW213135   2.424   8.948   1.039
 3284HO4     MW13136   2.505   8.959   0.988
 3285HO4     OW13137   7.098   3.971   1.492
 3285HO4    HW113138   7.105   3.999   1.400
 3285HO4    HW213139   7.190   3.959   1.521
 3285HO4     MW13140   7.098   3.971   1.492
 3286HO4     OW13141   9.978   1.983   7.700
 3286HO4    HW113142  10.042   1.986   7.771
 3286HO4    HW213143  10.031   1.964   7.621
 3286HO4     MW13144   9.978   1.983   7.700
 3287HO4     OW13145   9.941   2.420   5.529
 3287HO4    HW113146   9.904   2.415   5.441
 3287HO4    HW213147   9.928   2.332   5.565
 3287HO4     MW13148   9.941   2.420   5.529
 3288HO4     OW13149   7.368   8.364   4.991
 3288HO4    HW113150   7.335   8.332   5.076
 3288HO4    HW213151   7.361   8.288   4.932
 3288HO4     MW13152   7.368   8.364   4.991
 3289HO4     OW13153   0.928   6.501   4.665
 3289HO4    HW113154   1.018   6.529   4.687
 3289HO4    HW213155   0.872   6.573   4.695
 3289HO4     MW13156   0.928   6.501   4.665
 3290HO4     OW13157   1.422   6.111   1.959
 3290HO4    HW113158   1.516   6.104   1.937
 3290HO4    HW213159   1.383   6.033   1.920
 3290HO4     MW13160   1.422   6.111   1.959
 3291HO4     OW13161   0.035   7.880   6.561
 3291HO4    HW113162   0.028   7.834   6.477
 3291HO4    HW213163   0.079   7.963   6.539
 3291HO4     MW13164   0.035   7.880   6.561
 3292HO4     OW13165   3.637   5.454   1.639
 3292HO4    HW113166   3.607   5.540   1.670
 3292HO4    HW213167   3.719   5.473   1.592
 3292HO4     MW13168   3.637   5.454   1.639
 3293HO4     OW13169   9.215   9.425   0.996
 3293HO4    HW113170   9.136   9.446   0.945
 3293HO4    HW213171   9.186   9.427   1.087
 3293HO4     MW13172   9.215   9.425   0.996
 3294HO4     OW13173   6.723   5.812   9.220
 3294HO4    HW113174   6.754   5.903   9.214
 3294HO4    HW213175   6.667   5.811   9.299
 3294HO4     MW13176   6.723   5.812   9.220
 3295HO4     OW13177   0.763  10.137   3.241
 3295HO4    HW113178   0.749  10.070   3.308
 3295HO4    HW213179   0.835  10.103   3.187
 3295HO4     MW13180   0.763  10.137   3.241
 3296HO4     OW13181   6.494   1.213   4.822
 3296HO4    HW113182   6.401   1.203   4.845
 3296HO4    HW213183   6.541   1.203   4.906
 3296HO4     MW13184   6.494   1.213   4.822
 3297HO4     OW13185   7.323   5.027   6.260
 3297HO4    HW113186   7.245   5.067   6.301
 3297HO4    HW213187   7.337   5.079   6.180
 3297HO4     MW13188   7.323   5.027   6.260
 3298HO4     OW13189   4.039   5.378   9.044
 3298HO4    HW113190   4.086   5.349   8.965
 3298HO4    HW213191   4.081   5.329   9.115
 3298HO4     MW13192   4.039   5.378   9.044
 3299HO4     OW13193   7.263   7.977   4.326
 3299HO4    HW113194   7.349   7.950   4.291
 3299HO4    HW213195   7.285   8.036   4.399
 3299HO4     MW13196   7.263   7.977   4.326
 3300HO4     OW13197   7.186   2.257   4.974
 3300HO4    HW113198   7.182   2.328   5.039
 3300HO4    HW213199   7.180   2.177   5.026
 3300HO4     MW13200   7.186   2.257   4.974
 3301HO4     OW13201   3.573   5.794   6.912
 3301HO4    HW113202   3.613   5.773   6.997
 3301HO4    HW213203   3.482   5.816   6.933
 3301HO4     MW13204   3.573   5.794   6.912
 3302HO4     OW13205   7.092   0.652   6.480
 3302HO4    HW113206   7.071   0.673   6.389
 3302HO4    HW213207   7.188   0.639   6.479
 3302HO4     MW13208   7.092   0.652   6.480
 3303HO4     OW13209   7.004   6.839   2.321
 3303HO4    HW113210   6.938   6.773   2.296
 3303HO4    HW213211   7.050   6.800   2.396
 3303HO4     MW13212   7.004   6.839   2.321
 3304HO4     OW13213   0.361   6.925   9.909
 3304HO4    HW113214   0.414   6.870   9.968
 3304HO4    HW213215   0.390   7.014   9.928
 3304HO4     MW13216   0.361   6.925   9.909
 3305HO4     OW13217   6.714  10.098   9.778
 3305HO4    HW113218   6.698  10.111   9.872
 3305HO4    HW213219   6.626  10.091   9.739
 3305HO4     MW13220   6.714  10.098   9.778
 3306HO4     OW13221   1.267   4.675   6.323
 3306HO4    HW113222   1.180   4.640   6.344
 3306HO4    HW213223   1.303   4.613   6.259
 3306HO4     MW13224   1.267   4.675   6.323
 3307HO4     OW13225   8.412   1.595   5.903
 3307HO4    HW113226   8.434   1.574   5.994
 3307HO4    HW213227   8.454   1.680   5.887
 3307HO4     MW13228   8.412   1.595   5.903
 3308HO4     OW13229   5.277   4.073   3.452
 3308HO4    HW113230   5.323   4.138   3.397
 3308HO4    HW213231   5.313   4.087   3.540
 3308HO4     MW13232   5.277   4.073   3.452
 3309HO4     OW13233   5.771   5.095   0.566
 3309HO4    HW113234   5.780   5.106   0.470
 3309HO4    HW213235   5.792   5.002   0.581
 3309HO4     MW13236   5.771   5.095   0.566
 3310HO4     OW13237   0.466   2.713   2.857
 3310HO4    HW113238   0.394   2.701   2.920
 3310HO4    HW213239   0.422   2.729   2.773
 3310HO4     MW13240   0.466   2.713   2.857
 3311HO4     OW13241   9.548   5.950   8.040
 3311HO4    HW113242   9.492   6.024   8.066
 3311HO4    HW213243   9.572   5.970   7.949
 3311HO4     MW13244   9.548   5.950   8.040
 3312HO4     OW13245   1.956   0.762   4.151
 3312HO4    HW113246   1.927   0.805   4.070
 3312HO4    HW213247   1.875   0.729   4.191
 3312HO4     MW13248   1.956   0.762   4.151
 3313HO4     OW13249   6.489   5.727   5.484
 3313HO4    HW113250   6.541   5.706   5.563
 3313HO4    HW213251   6.540   5.689   5.412
 3313HO4     MW13252   6.489   5.727   5.484
 3314HO4     OW13253   0.525   5.655   4.189
 3314HO4    HW113254   0.542   5.604   4.109
 3314HO4    HW213255   0.606   5.648   4.240
 3314HO4     MW13256   0.525   5.655   4.189
 3315HO4     OW13257   9.756   1.603   3.156
 3315HO4    HW113258   9.781   1.575   3.244
 3315HO4    HW213259   9.839   1.602   3.107
 3315HO4     MW13260   9.756   1.603   3.156
 3316HO4     OW13261   9.662   7.561   3.926
 3316HO4    HW113262   9.709   7.521   4.000
 3316HO4    HW213263   9.690   7.510   3.850
 3316HO4     MW13264   9.662   7.561   3.926
 3317HO4     OW13265   7.914   1.155   8.449
 3317HO4    HW113266   7.841   1.156   8.387
 3317HO4    HW213267   7.897   1.230   8.506
 3317HO4     MW13268   7.914   1.155   8.449
 3318HO4     OW13269   3.873   9.262   3.572
 3318HO4    HW113270   3.905   9.333   3.629
 3318HO4    HW213271   3.934   9.262   3.498
 3318HO4     MW13272   3.873   9.262   3.572
 3319HO4     OW13273   3.986   3.849   2.085
 3319HO4    HW113274   3.970   3.791   2.160
 3319HO4    HW213275   3.976   3.792   2.008
 3319HO4     MW13276   3.986   3.849   2.085
 3320HO4     OW13277   3.668   9.693   6.444
 3320HO4    HW113278   3.628   9.620   6.492
 3320HO4    HW213279   3.742   9.652   6.398
 3320HO4     MW13280   3.668   9.693   6.444
 3321HO4     OW13281   9.594   8.207   0.639
 3321HO4    HW113282   9.567   8.158   0.717
 3321HO4    HW213283   9.558   8.156   0.565
 3321HO4     MW13284   9.594   8.207   0.639
 3322HO4     OW13285   8.267   0.327  10.118
 3322HO4    HW113286   8.180   0.356  10.148
 3322HO4    HW213287   8.273   0.236  10.148
 3322HO4     MW13288   8.267   0.327  10.118
 3323HO4     OW13289   5.746   4.049  10.078
 3323HO4    HW113290   5.770   4.054  10.171
 3323HO4    HW213291   5.772   3.960  10.052
 3323HO4     MW13292   5.746   4.049  10.078
 3324HO4     OW13293   0.305   5.728   0.133
 3324HO4    HW113294   0.371   5.744   0.066
 3324HO4    HW213295   0.356   5.700   0.210
 3324HO4     MW13296   0.305   5.728   0.133
 3325HO4     OW13297   6.257   3.523   7.077
 3325HO4    HW113298   6.195   3.539   7.148
 3325HO4    HW213299   6.211   3.464   7.017
 3325HO4     MW13300   6.257   3.523   7.077
 3326HO4     OW13301   0.395   2.702   7.632
 3326HO4    HW113302   0.429   2.621   7.671
 3326HO4    HW213303   0.345   2.744   7.702
 3326HO4     MW13304   0.395   2.702   7.632
 3327HO4     OW13305   6.144   9.279   9.702
 3327HO4    HW113306   6.118   9.307   9.791
 3327HO4    HW213307   6.107   9.191   9.693
 3327HO4     MW13308   6.144   9.279   9.702
 3328HO4     OW13309   8.508   0.672   6.615
 3328HO4    HW113310   8.458   0.754   6.615
 3328HO4    HW213311   8.487   0.631   6.699
 3328HO4     MW13312   8.508   0.672   6.615
 3329HO4     OW13313   1.538   9.811   8.475
 3329HO4    HW113314   1.510   9.744   8.538
 3329HO4    HW213315   1.521   9.771   8.389
 3329HO4     MW13316   1.538   9.811   8.475
 3330HO4     OW13317   2.759   3.590   7.062
 3330HO4    HW113318   2.801   3.540   6.991
 3330HO4    HW213319   2.786   3.545   7.142
 3330HO4     MW13320   2.759   3.590   7.062
 3331HO4     OW13321   4.274   6.882   6.774
 3331HO4    HW113322   4.351   6.844   6.731
 3331HO4    HW213323   4.296   6.880   6.868
 3331HO4     MW13324   4.274   6.882   6.774
 3332HO4     OW13325   2.069   7.381   7.311
 3332HO4    HW113326   2.045   7.451   7.250
 3332HO4    HW213327   2.008   7.390   7.384
 3332HO4     MW13328   2.069   7.381   7.311
 3333HO4     OW13329   3.840   2.632   3.247
 3333HO4    HW113330   3.866   2.596   3.161
 3333HO4    HW213331   3.876   2.570   3.311
 3333HO4     MW13332   3.840   2.632   3.247
 3334HO4     OW13333   6.841   4.495   4.257
 3334HO4    HW113334   6.841   4.440   4.335
 3334HO4    HW213335   6.829   4.433   4.184
 3334HO4     MW13336   6.841   4.495   4.257
 3335HO4     OW13337   3.450   8.293   3.737
 3335HO4    HW113338   3.412   8.291   3.826
 3335HO4    HW213339   3.422   8.210   3.698
 3335HO4     MW13340   3.450   8.293   3.737
 3336HO4     OW13341   0.619   8.689   3.618
 3336HO4    HW113342   0.690   8.668   3.556
 3336HO4    HW213343   0.663   8.696   3.704
 3336HO4     MW13344   0.619   8.689   3.618
 3337HO4     OW13345   2.123   1.309   3.741
 3337HO4    HW113346   2.184   1.362   3.793
 3337HO4    HW213347   2.052   1.370   3.719
 3337HO4     MW13348   2.123   1.309   3.741
 3338HO4     OW13349   9.694   0.901   4.307
 3338HO4    HW113350   9.779   0.892   4.352
 3338HO4    HW213351   9.708   0.972   4.243
 3338HO4     MW13352   9.694   0.901   4.307
 3339HO4     OW13353   6.175   4.487   7.603
 3339HO4    HW113354   6.208   4.556   7.662
 3339HO4    HW213355   6.227   4.409   7.626
 3339HO4     MW13356   6.175   4.487   7.603
 3340HO4     OW13357   7.885   9.894   6.115
 3340HO4    HW113358   7.926   9.878   6.200
 3340HO4    HW213359   7.925   9.975   6.083
 3340HO4     MW13360   7.885   9.894   6.115
 3341HO4     OW13361   6.705   6.177   0.392
 3341HO4    HW113362   6.768   6.124   0.442
 3341HO4    HW213363   6.719   6.267   0.423
 3341HO4     MW13364   6.705   6.177   0.392
 3342HO4     OW13365   5.848   7.624   2.886
 3342HO4    HW113366   5.845   7.633   2.791
 3342HO4    HW213367   5.843   7.529   2.902
 3342HO4     MW13368   5.848   7.624   2.886
 3343HO4     OW13369   5.040   5.196   4.902
 3343HO4    HW113370   5.015   5.256   4.972
 3343HO4    HW213371   5.046   5.251   4.823
 3343HO4     MW13372   5.040   5.196   4.902
 3344HO4     OW13373   0.892   8.342   5.074
 3344HO4    HW113374   0.869   8.259   5.115
 3344HO4    HW213375   0.967   8.320   5.017
 3344HO4     MW13376   0.892   8.342   5.074
 3345HO4     OW13377   3.616   2.426   5.044
 3345HO4    HW113378   3.622   2.520   5.064
 3345HO4    HW213379   3.666   2.383   5.115
 3345HO4     MW13380   3.616   2.426   5.044
 3346HO4     OW13381   5.459   1.597   4.966
 3346HO4    HW113382   5.524   1.619   4.898
 3346HO4    HW213383   5.500   1.626   5.048
 3346HO4     MW13384   5.459   1.597   4.966
 3347HO4     OW13385   0.923   9.173   4.151
 3347HO4    HW113386   0.964   9.107   4.094
 3347HO4    HW213387   0.902   9.125   4.232
 3347HO4     MW13388   0.923   9.173   4.151
 3348HO4     OW13389   3.209   9.407   6.871
 3348HO4    HW113390   3.140   9.455   6.918
 3348HO4    HW213391   3.262   9.367   6.941
 3348HO4     MW13392   3.209   9.407   6.871
 3349HO4     OW13393   0.358   3.088   5.594
 3349HO4    HW113394   0.339   3.123   5.506
 3349HO4    HW213395   0.428   3.145   5.628
 3349HO4     MW13396   0.358   3.088   5.594
 3350HO4     OW13397   8.984   5.022   0.508
 3350HO4    HW113398   8.938   5.049   0.589
 3350HO4    HW213399   8.982   5.101   0.453
 3350HO4     MW13400   8.984   5.022   0.508
 3351HO4     OW13401   1.402   4.164   5.769
 3351HO4    HW113402   1.386   4.234   5.833
 3351HO4    HW213403   1.423   4.087   5.823
 3351HO4     MW13404   1.402   4.164   5.769
 3352HO4     OW13405   4.881   2.339   1.066
 3352HO4    HW113406   4.898   2.298   0.981
 3352HO4    HW213407   4.967   2.369   1.095
 3352HO4     MW13408   4.881   2.339   1.066
 3353HO4     OW13409   4.024   8.653   0.758
 3353HO4    HW113410   4.093   8.715   0.783
 3353HO4    HW213411   4.048   8.571   0.800
 3353HO4     MW13412   4.024   8.653   0.758
 3354HO4     OW13413   9.435   8.887   1.846
 3354HO4    HW113414   9.465   8.934   1.768
 3354HO4    HW213415   9.473   8.799   1.837
 3354HO4     MW13416   9.435   8.887   1.846
 3355HO4     OW13417   2.103   8.065   8.259
 3355HO4    HW113418   2.136   8.099   8.176
 3355HO4    HW213419   2.151   8.115   8.326
 3355HO4     MW13420   2.103   8.065   8.259
 3356HO4     OW13421   5.717   3.694   7.433
 3356HO4    HW113422   5.665   3.651   7.364
 3356HO4    HW213423   5.658   3.696   7.509
 3356HO4     MW13424   5.717   3.694   7.433
 3357HO4     OW13425   7.363   1.895   9.405
 3357HO4    HW113426   7.437   1.834   9.400
 3357HO4    HW213427   7.401   1.980   9.378
 3357HO4     MW13428   7.363   1.895   9.405
 3358HO4     OW13429   8.528   8.921   3.586
 3358HO4    HW113430   8.462   8.985   3.557
 3358HO4    HW213431   8.604   8.938   3.530
 3358HO4     MW13432   8.528   8.921   3.586
 3359HO4     OW13433   5.934   7.911   5.885
 3359HO4    HW113434   5.951   7.869   5.970
 3359HO4    HW213435   5.933   8.005   5.904
 3359HO4     MW13436   5.934   7.911   5.885
 3360HO4     OW13437   8.344   4.347   6.900
 3360HO4    HW113438   8.334   4.411   6.971
 3360HO4    HW213439   8.259   4.346   6.856
 3360HO4     MW13440   8.344   4.347   6.900
 3361HO4     OW13441   8.306   6.189   9.877
 3361HO4    HW113442   8.346   6.131   9.941
 3361HO4    HW213443   8.352   6.273   9.887
 3361HO4     MW13444   8.306   6.189   9.877
 3362HO4     OW13445   2.889   7.187   2.229
 3362HO4    HW113446   2.808   7.190   2.282
 3362HO4    HW213447   2.892   7.097   2.195
 3362HO4     MW13448   2.889   7.187   2.229
 3363HO4     OW13449   0.444   1.671   3.034
 3363HO4    HW113450   0.521   1.730   3.042
 3363HO4    HW213451   0.480   1.591   2.994
 3363HO4     MW13452   0.444   1.671   3.034
 3364HO4     OW13453  10.127   0.322   7.761
 3364HO4    HW113454  10.109   0.235   7.723
 3364HO4    HW213455  10.052   0.376   7.734
 3364HO4     MW13456  10.127   0.322   7.761
 3365HO4     OW13457   2.697   0.664   3.431
 3365HO4    HW113458   2.664   0.696   3.516
 3365HO4    HW213459   2.667   0.730   3.368
 3365HO4     MW13460   2.697   0.664   3.431
 3366HO4     OW13461   8.521   5.482   6.553
 3366HO4    HW113462   8.616   5.470   6.562
 3366HO4    HW213463   8.485   5.450   6.637
 3366HO4     MW13464   8.521   5.482   6.553
 3367HO4     OW13465   1.738   1.212  10.110
 3367HO4    HW113466   1.676   1.210  10.183
 3367HO4    HW213467   1.683   1.232  10.033
 3367HO4     MW13468   1.738   1.212  10.110
 3368HO4     OW13469   5.685   1.576   3.461
 3368HO4    HW113470   5.629   1.600   3.535
 3368HO4    HW213471   5.635   1.601   3.383
 3368HO4     MW13472   5.685   1.576   3.461
 3369HO4     OW13473   6.459   5.888   2.773
 3369HO4    HW113474   6.369   5.882   2.805
 3369HO4    HW213475   6.453   5.940   2.693
 3369HO4     MW13476   6.459   5.888   2.773
 3370HO4     OW13477   0.730   4.131   0.681
 3370HO4    HW113478   0.763   4.101   0.766
 3370HO4    HW213479   0.773   4.216   0.667
 3370HO4     MW13480   0.730   4.131   0.681
 3371HO4     OW13481   3.103   4.211   5.638
 3371HO4    HW113482   3.146   4.276   5.695
 3371HO4    HW213483   3.077   4.261   5.561
 3371HO4     MW13484   3.103   4.211   5.638
 3372HO4     OW13485   9.147   0.915   5.281
 3372HO4    HW113486   9.190   0.968   5.214
 3372HO4    HW213487   9.175   0.953   5.365
 3372HO4     MW13488   9.147   0.915   5.281
 3373HO4     OW13489   6.687   2.060   3.901
 3373HO4    HW113490   6.694   2.096   3.811
 3373HO4    HW213491   6.592   2.052   3.916
 3373HO4     MW13492   6.687   2.060   3.901
 3374HO4     OW13493   2.353   2.785   2.671
 3374HO4    HW113494   2.413   2.859   2.660
 3374HO4    HW213495   2.267   2.820   2.648
 3374HO4     MW13496   2.353   2.785   2.671
 3375HO4     OW13497   7.053   4.634   1.987
 3375HO4    HW113498   7.027   4.692   2.059
 3375HO4    HW213499   7.148   4.626   1.995
 3375HO4     MW13500   7.053   4.634   1.987
 3376HO4     OW13501   3.934   3.970   5.618
 3376HO4    HW113502   3.870   3.993   5.686
 3376HO4    HW213503   3.916   3.877   5.599
 3376HO4     MW13504   3.934   3.970   5.618
 3377HO4     OW13505   0.124   3.514   7.279
 3377HO4    HW113506   0.130   3.603   7.317
 3377HO4    HW213507   0.167   3.522   7.193
 3377HO4     MW13508   0.124   3.514   7.279
 3378HO4     OW13509   2.949   6.047   1.671
 3378HO4    HW113510   2.940   6.141   1.691
 3378HO4    HW213511   2.895   6.034   1.592
 3378HO4     MW13512   2.949   6.047   1.671
 3379HO4     OW13513   3.965   8.763   5.204
 3379HO4    HW113514   3.879   8.792   5.173
 3379HO4    HW213515   3.958   8.668   5.211
 3379HO4     MW13516   3.965   8.763   5.204
 3380HO4     OW13517   2.730   4.434   9.410
 3380HO4    HW113518   2.719   4.450   9.504
 3380HO4    HW213519   2.704   4.342   9.398
 3380HO4     MW13520   2.730   4.434   9.410
 3381HO4     OW13521   9.018   2.352   2.980
 3381HO4    HW113522   9.011   2.395   3.066
 3381HO4    HW213523   9.099   2.301   2.986
 3381HO4     MW13524   9.018   2.352   2.980
 3382HO4     OW13525   6.526   7.336   8.969
 3382HO4    HW113526   6.562   7.286   9.042
 3382HO4    HW213527   6.470   7.402   9.010
 3382HO4     MW13528   6.526   7.336   8.969
 3383HO4     OW13529   9.625   7.014   4.161
 3383HO4    HW113530   9.571   7.037   4.237
 3383HO4    HW213531   9.566   7.025   4.086
 3383HO4     MW13532   9.625   7.014   4.161
 3384HO4     OW13533   3.714   0.802   6.013
 3384HO4    HW113534   3.623   0.772   6.010
 3384HO4    HW213535   3.766   0.726   5.985
 3384HO4     MW13536   3.714   0.802   6.013
 3385HO4     OW13537   0.157   1.925   8.840
 3385HO4    HW113538   0.247   1.941   8.811
 3385HO4    HW213539   0.151   1.967   8.927
 3385HO4     MW13540   0.157   1.925   8.840
 3386HO4     OW13541   5.954   5.284   3.088
 3386HO4    HW113542   5.988   5.325   3.008
 3386HO4    HW213543   5.980   5.344   3.158
 3386HO4     MW13544   5.954   5.284   3.088
 3387HO4     OW13545   9.181   4.006   8.601
 3387HO4    HW113546   9.117   3.958   8.655
 3387HO4    HW213547   9.257   3.947   8.596
 3387HO4     MW13548   9.181   4.006   8.601
 3388HO4     OW13549   6.985   1.317   8.439
 3388HO4    HW113550   6.955   1.392   8.492
 3388HO4    HW213551   7.057   1.353   8.387
 3388HO4     MW13552   6.985   1.317   8.439
 3389HO4     OW13553   9.000   1.294   9.035
 3389HO4    HW113554   8.972   1.292   8.943
 3389HO4    HW213555   8.957   1.218   9.075
 3389HO4     MW13556   9.000   1.294   9.035
 3390HO4     OW13557   1.611   0.250   4.404
 3390HO4    HW113558   1.659   0.196   4.340
 3390HO4    HW213559   1.650   0.226   4.489
 3390HO4     MW13560   1.611   0.250   4.404
 3391HO4     OW13561   9.762   7.350   1.385
 3391HO4    HW113562   9.791   7.423   1.330
 3391HO4    HW213563   9.757   7.275   1.325
 3391HO4     MW13564   9.762   7.350   1.385
 3392HO4     OW13565   6.917   0.716   4.103
 3392HO4    HW113566   6.853   0.761   4.160
 3392HO4    HW213567   6.931   0.777   4.030
 3392HO4     MW13568   6.917   0.716   4.103
 3393HO4     OW13569   7.716   9.980  10.129
 3393HO4    HW113570   7.686   9.973  10.220
 3393HO4    HW213571   7.635   9.984  10.077
 3393HO4     MW13572   7.716   9.980  10.129
 3394HO4     OW13573   5.777   5.788   2.549
 3394HO4    HW113574   5.761   5.701   2.512
 3394HO4    HW213575   5.743   5.782   2.639
 3394HO4     MW13576   5.777   5.788   2.549
 3395HO4     OW13577   4.990   3.957   5.766
 3395HO4    HW113578   4.980   3.911   5.850
 3395HO4    HW213579   4.907   3.942   5.720
 3395HO4     MW13580   4.990   3.957   5.766
 3396HO4     OW13581   0.131   8.193   2.532
 3396HO4    HW113582   0.097   8.109   2.564
 3396HO4    HW213583   0.208   8.170   2.479
 3396HO4     MW13584   0.131   8.193   2.532
 3397HO4     OW13585   4.582   0.014   7.003
 3397HO4    HW113586   4.535  -0.005   7.085
 3397HO4    HW213587   4.513   0.032   6.939
 3397HO4     MW13588   4.582   0.014   7.003
 3398HO4     OW13589   5.712   3.518   9.629
 3398HO4    HW113590   5.735   3.572   9.552
 3398HO4    HW213591   5.743   3.569   9.704
 3398HO4     MW13592   5.712   3.518   9.629
 3399HO4     OW13593   9.077   4.782   2.327
 3399HO4    HW113594   9.063   4.686   2.329
 3399HO4    HW213595   9.170   4.792   2.351
 3399HO4     MW13596   9.077   4.782   2.327
 3400HO4     OW13597   2.479   6.018   9.850
 3400HO4    HW113598   2.549   5.958   9.879
 3400HO4    HW213599   2.398   5.979   9.885
 3400HO4     MW13600   2.479   6.018   9.850
 3401HO4     OW13601   1.734   3.739   9.796
 3401HO4    HW113602   1.789   3.813   9.825
 3401HO4    HW213603   1.655   3.745   9.851
 3401HO4     MW13604   1.734   3.739   9.796
 3402HO4     OW13605   4.193   3.448   7.832
 3402HO4    HW113606   4.117   3.390   7.845
 3402HO4    HW213607   4.196   3.462   7.736
 3402HO4     MW13608   4.193   3.448   7.832
 3403HO4     OW13609   7.612   5.949   8.118
 3403HO4    HW113610   7.570   5.871   8.080
 3403HO4    HW213611   7.659   5.916   8.195
 3403HO4     MW13612   7.612   5.949   8.118
 3404HO4     OW13613   8.416   0.576   0.368
 3404HO4    HW113614   8.497   0.627   0.381
 3404HO4    HW213615   8.357   0.606   0.438
 3404HO4     MW13616   8.416   0.576   0.368
 3405HO4     OW13617   0.678   8.755   3.286
 3405HO4    HW113618   0.757   8.807   3.300
 3405HO4    HW213619   0.702   8.692   3.217
 3405HO4     MW13620   0.678   8.755   3.286
 3406HO4     OW13621   5.162   5.369   1.235
 3406HO4    HW113622   5.128   5.424   1.163
 3406HO4    HW213623   5.122   5.406   1.314
 3406HO4     MW13624   5.162   5.369   1.235
 3407HO4     OW13625   3.569   3.186   3.923
 3407HO4    HW113626   3.529   3.099   3.910
 3407HO4    HW213627   3.497   3.248   3.906
 3407HO4     MW13628   3.569   3.186   3.923
 3408HO4     OW13629   5.578   7.367   4.784
 3408HO4    HW113630   5.532   7.321   4.856
 3408HO4    HW213631   5.562   7.460   4.802
 3408HO4     MW13632   5.578   7.367   4.784
 3409HO4     OW13633   7.609   3.217   2.355
 3409HO4    HW113634   7.628   3.230   2.261
 3409HO4    HW213635   7.648   3.132   2.376
 3409HO4     MW13636   7.609   3.217   2.355
 3410HO4     OW13637   3.692   0.856   9.214
 3410HO4    HW113638   3.744   0.775   9.221
 3410HO4    HW213639   3.752   0.919   9.172
 3410HO4     MW13640   3.692   0.856   9.214
 3411HO4     OW13641   4.432   2.921   5.033
 3411HO4    HW113642   4.516   2.875   5.024
 3411HO4    HW213643   4.408   2.945   4.943
 3411HO4     MW13644   4.432   2.921   5.033
 3412HO4     OW13645   4.258   0.228   0.532
 3412HO4    HW113646   4.274   0.285   0.456
 3412HO4    HW213647   4.269   0.286   0.608
 3412HO4     MW13648   4.258   0.228   0.532
 3413HO4     OW13649   8.975   3.786   4.486
 3413HO4    HW113650   8.957   3.840   4.409
 3413HO4    HW213651   8.952   3.842   4.561
 3413HO4     MW13652   8.975   3.786   4.486
 3414HO4     OW13653   3.435   2.787   8.162
 3414HO4    HW113654   3.450   2.801   8.256
 3414HO4    HW213655   3.523   2.788   8.123
 3414HO4     MW13656   3.435   2.787   8.162
 3415HO4     OW13657   5.283   2.791   5.310
 3415HO4    HW113658   5.226   2.819   5.237
 3415HO4    HW213659   5.238   2.824   5.388
 3415HO4     MW13660   5.283   2.791   5.310
 3416HO4     OW13661   1.591   6.527   9.224
 3416HO4    HW113662   1.656   6.513   9.155
 3416HO4    HW213663   1.547   6.609   9.200
 3416HO4     MW13664   1.591   6.527   9.224
 3417HO4     OW13665   7.482   8.750   2.126
 3417HO4    HW113666   7.487   8.656   2.145
 3417HO4    HW213667   7.544   8.763   2.053
 3417HO4     MW13668   7.482   8.750   2.126
 3418HO4     OW13669   8.229   0.040   8.795
 3418HO4    HW113670   8.174  -0.014   8.737
 3418HO4    HW213671   8.170   0.108   8.828
 3418HO4     MW13672   8.229   0.040   8.795
 3419HO4     OW13673   4.444   0.611   0.863
 3419HO4    HW113674   4.452   0.518   0.844
 3419HO4    HW213675   4.363   0.618   0.915
 3419HO4     MW13676   4.444   0.611   0.863
 3420HO4     OW13677   2.108   1.255   3.348
 3420HO4    HW113678   2.166   1.324   3.382
 3420HO4    HW213679   2.035   1.253   3.410
 3420HO4     MW13680   2.108   1.255   3.348
 3421HO4     OW13681   9.700   2.024   6.929
 3421HO4    HW113682   9.728   2.077   7.004
 3421HO4    HW213683   9.699   2.086   6.855
 3421HO4     MW13684   9.700   2.024   6.929
 3422HO4     OW13685   6.604   4.135   3.032
 3422HO4    HW113686   6.544   4.120   3.105
 3422HO4    HW213687   6.546   4.145   2.955
 3422HO4     MW13688   6.604   4.135   3.032
 3423HO4     OW13689   2.647   7.537   9.174
 3423HO4    HW113690   2.629   7.444   9.159
 3423HO4    HW213691   2.705   7.563   9.102
 3423HO4     MW13692   2.647   7.537   9.174
 3424HO4     OW13693   1.317   6.822   2.550
 3424HO4    HW113694   1.388   6.786   2.605
 3424HO4    HW213695   1.360   6.892   2.501
 3424HO4     MW13696   1.317   6.822   2.550
 3425HO4     OW13697   3.860   4.753   1.209
 3425HO4    HW113698   3.848   4.785   1.119
 3425HO4    HW213699   3.915   4.820   1.251
 3425HO4     MW13700   3.860   4.753   1.209
 3426HO4     OW13701   2.821   4.851   8.325
 3426HO4    HW113702   2.914   4.877   8.316
 3426HO4    HW213703   2.819   4.801   8.407
 3426HO4     MW13704   2.821   4.851   8.325
 3427HO4     OW13705   3.538   3.779   8.169
 3427HO4    HW113706   3.536   3.733   8.085
 3427HO4    HW213707   3.552   3.710   8.235
 3427HO4     MW13708   3.538   3.779   8.169
 3428HO4     OW13709   1.727   5.665   6.523
 3428HO4    HW113710   1.736   5.759   6.539
 3428HO4    HW213711   1.667   5.659   6.448
 3428HO4     MW13712   1.727   5.665   6.523
 3429HO4     OW13713   4.097   0.514   2.600
 3429HO4    HW113714   4.042   0.439   2.624
 3429HO4    HW213715   4.056   0.549   2.520
 3429HO4     MW13716   4.097   0.514   2.600
 3430HO4     OW13717   5.995   8.527   9.562
 3430HO4    HW113718   6.029   8.566   9.481
 3430HO4    HW213719   6.012   8.593   9.629
 3430HO4     MW13720   5.995   8.527   9.562
 3431HO4     OW13721   1.207   9.279   6.042
 3431HO4    HW113722   1.251   9.337   6.105
 3431HO4    HW213723   1.211   9.327   5.959
 3431HO4     MW13724   1.207   9.279   6.042
 3432HO4     OW13725   1.697   3.951   7.561
 3432HO4    HW113726   1.733   3.868   7.595
 3432HO4    HW213727   1.643   3.985   7.633
 3432HO4     MW13728   1.697   3.951   7.561
 3433HO4     OW13729   9.579   1.740   0.064
 3433HO4    HW113730   9.551   1.651   0.039
 3433HO4    HW213731   9.675   1.734   0.071
 3433HO4     MW13732   9.579   1.740   0.064
 3434HO4     OW13733   7.327   9.218   7.099
 3434HO4    HW113734   7.362   9.168   7.024
 3434HO4    HW213735   7.398   9.215   7.164
 3434HO4     MW13736   7.327   9.218   7.099
 3435HO4     OW13737   6.278   6.460   7.228
 3435HO4    HW113738   6.272   6.456   7.132
 3435HO4    HW213739   6.281   6.554   7.247
 3435HO4     MW13740   6.278   6.460   7.228
 3436HO4     OW13741   8.290   9.466   8.753
 3436HO4    HW113742   8.272   9.498   8.842
 3436HO4    HW213743   8.385   9.472   8.744
 3436HO4     MW13744   8.290   9.466   8.753
 3437HO4     OW13745   8.526   5.369   3.603
 3437HO4    HW113746   8.443   5.400   3.566
 3437HO4    HW213747   8.575   5.450   3.621
 3437HO4     MW13748   8.526   5.369   3.603
 3438HO4     OW13749   5.081   6.752   1.754
 3438HO4    HW113750   5.128   6.669   1.739
 3438HO4    HW213751   5.119   6.786   1.836
 3438HO4     MW13752   5.081   6.752   1.754
 3439HO4     OW13753   9.283   9.136   9.090
 3439HO4    HW113754   9.298   9.187   9.009
 3439HO4    HW213755   9.360   9.078   9.095
 3439HO4     MW13756   9.283   9.136   9.090
 3440HO4     OW13757  10.057   4.749   9.052
 3440HO4    HW113758  10.087   4.756   9.143
 3440HO4    HW213759  10.128   4.787   9.000
 3440HO4     MW13760  10.057   4.749   9.052
 3441HO4     OW13761   3.729   2.021   5.120
 3441HO4    HW113762   3.673   2.025   5.198
 3441HO4    HW213763   3.687   2.082   5.058
 3441HO4     MW13764   3.729   2.021   5.120
 3442HO4     OW13765   5.067   0.403   3.586
 3442HO4    HW113766   4.987   0.444   3.621
 3442HO4    HW213767   5.084   0.330   3.646
 3442HO4     MW13768   5.067   0.403   3.586
 3443HO4     OW13769   5.993   8.754   5.622
 3443HO4    HW113770   6.048   8.758   5.544
 3443HO4    HW213771   5.932   8.682   5.605
 3443HO4     MW13772   5.993   8.754   5.622
 3444HO4     OW13773   3.628   6.460   2.276
 3444HO4    HW113774   3.722   6.449   2.260
 3444HO4    HW213775   3.586   6.430   2.194
 3444HO4     MW13776   3.628   6.460   2.276
 3445HO4     OW13777   5.248   9.317   7.971
 3445HO4    HW113778   5.285   9.341   7.886
 3445HO4    HW213779   5.322   9.279   8.020
 3445HO4     MW13780   5.248   9.317   7.971
 3446HO4     OW13781   7.511   0.876   0.834
 3446HO4    HW113782   7.456   0.896   0.911
 3446HO4    HW213783   7.451   0.883   0.759
 3446HO4     MW13784   7.511   0.876   0.834
 3447HO4     OW13785   2.216   3.066   1.146
 3447HO4    HW113786   2.214   3.130   1.074
 3447HO4    HW213787   2.269   2.993   1.112
 3447HO4     MW13788   2.216   3.066   1.146
 3448HO4     OW13789   2.473  10.038   8.146
 3448HO4    HW113790   2.433  10.065   8.063
 3448HO4    HW213791   2.403  10.050   8.211
 3448HO4     MW13792   2.473  10.038   8.146
 3449HO4     OW13793   1.744   0.056   0.584
 3449HO4    HW113794   1.779   0.120   0.522
 3449HO4    HW213795   1.680   0.106   0.636
 3449HO4     MW13796   1.744   0.056   0.584
 3450HO4     OW13797   8.349   6.551   6.289
 3450HO4    HW113798   8.414   6.603   6.241
 3450HO4    HW213799   8.265   6.592   6.265
 3450HO4     MW13800   8.349   6.551   6.289
 3451HO4     OW13801   1.296   3.594   5.527
 3451HO4    HW113802   1.251   3.510   5.512
 3451HO4    HW213803   1.352   3.604   5.449
 3451HO4     MW13804   1.296   3.594   5.527
 3452HO4     OW13805   7.430   6.391   5.070
 3452HO4    HW113806   7.486   6.376   4.992
 3452HO4    HW213807   7.484   6.361   5.144
 3452HO4     MW13808   7.430   6.391   5.070
 3453HO4     OW13809   3.425   6.960   9.512
 3453HO4    HW113810   3.345   6.906   9.520
 3453HO4    HW213811   3.453   6.946   9.421
 3453HO4     MW13812   3.425   6.960   9.512
 3454HO4     OW13813   2.095   3.333   4.989
 3454HO4    HW113814   2.004   3.331   5.020
 3454HO4    HW213815   2.141   3.386   5.053
 3454HO4     MW13816   2.095   3.333   4.989
 3455HO4     OW13817   5.041   2.177   8.306
 3455HO4    HW113818   5.040   2.091   8.350
 3455HO4    HW213819   4.998   2.161   8.221
 3455HO4     MW13820   5.041   2.177   8.306
 3456HO4     OW13821   8.784   3.531   4.878
 3456HO4    HW113822   8.791   3.627   4.873
 3456HO4    HW213823   8.865   3.499   4.838
 3456HO4     MW13824   8.784   3.531   4.878
 3457HO4     OW13825   0.326   2.326   0.904
 3457HO4    HW113826   0.317   2.254   0.966
 3457HO4    HW213827   0.353   2.284   0.822
 3457HO4     MW13828   0.326   2.326   0.904
 3458HO4     OW13829   8.504   9.175   7.231
 3458HO4    HW113830   8.448   9.157   7.308
 3458HO4    HW213831   8.448   9.156   7.156
 3458HO4     MW13832   8.504   9.175   7.231
 3459HO4     OW13833   0.436   5.458   1.169
 3459HO4    HW113834   0.377   5.500   1.232
 3459HO4    HW213835   0.456   5.373   1.209
 3459HO4     MW13836   0.436   5.458   1.169
 3460HO4     OW13837   3.301   7.552   7.912
 3460HO4    HW113838   3.359   7.591   7.846
 3460HO4    HW213839   3.351   7.555   7.994
 3460HO4     MW13840   3.301   7.552   7.912
 3461HO4     OW13841   1.215   4.230   1.398
 3461HO4    HW113842   1.267   4.186   1.466
 3461HO4    HW213843   1.244   4.189   1.316
 3461HO4     MW13844   1.215   4.230   1.398
 3462HO4     OW13845   8.822   3.764   9.063
 3462HO4    HW113846   8.774   3.717   8.995
 3462HO4    HW213847   8.787   3.853   9.060
 3462HO4     MW13848   8.822   3.764   9.063
 3463HO4     OW13849   0.417   5.766   1.106
 3463HO4    HW113850   0.391   5.718   1.026
 3463HO4    HW213851   0.367   5.724   1.176
 3463HO4     MW13852   0.417   5.766   1.106
 3464HO4     OW13853   6.349   3.896   0.226
 3464HO4    HW113854   6.407   3.883   0.302
 3464HO4    HW213855   6.401   3.949   0.165
 3464HO4     MW13856   6.349   3.896   0.226
 3465HO4     OW13857   9.841   7.019   4.902
 3465HO4    HW113858   9.792   6.949   4.859
 3465HO4    HW213859   9.933   6.995   4.890
 3465HO4     MW13860   9.841   7.019   4.902
 3466HO4     OW13861   5.724   7.138   5.048
 3466HO4    HW113862   5.667   7.109   4.976
 3466HO4    HW213863   5.698   7.083   5.122
 3466HO4     MW13864   5.724   7.138   5.048
 3467HO4     OW13865   0.704   1.849   0.183
 3467HO4    HW113866   0.706   1.902   0.103
 3467HO4    HW213867   0.743   1.765   0.158
 3467HO4     MW13868   0.704   1.849   0.183
 3468HO4     OW13869   8.284   2.821   5.057
 3468HO4    HW113870   8.290   2.761   4.982
 3468HO4    HW213871   8.243   2.900   5.021
 3468HO4     MW13872   8.284   2.821   5.057
 3469HO4     OW13873  10.129   9.069   4.208
 3469HO4    HW113874  10.089   9.154   4.188
 3469HO4    HW213875  10.055   9.007   4.206
 3469HO4     MW13876  10.129   9.069   4.208
 3470HO4     OW13877   5.023   2.267   2.785
 3470HO4    HW113878   5.106   2.301   2.749
 3470HO4    HW213879   5.039   2.173   2.796
 3470HO4     MW13880   5.023   2.267   2.785
 3471HO4     OW13881   7.132   4.308   5.307
 3471HO4    HW113882   7.188   4.297   5.230
 3471HO4    HW213883   7.141   4.225   5.355
 3471HO4     MW13884   7.132   4.308   5.307
 3472HO4     OW13885   7.113   0.050   7.622
 3472HO4    HW113886   7.202   0.087   7.624
 3472HO4    HW213887   7.059   0.118   7.581
 3472HO4     MW13888   7.113   0.050   7.622
 3473HO4     OW13889   2.387   6.647   6.272
 3473HO4    HW113890   2.421   6.724   6.225
 3473HO4    HW213891   2.380   6.677   6.364
 3473HO4     MW13892   2.387   6.647   6.272
 3474HO4     OW13893   1.980   1.427   2.636
 3474HO4    HW113894   1.940   1.477   2.708
 3474HO4    HW213895   1.921   1.439   2.562
 3474HO4     MW13896   1.980   1.427   2.636
 3475HO4     OW13897   2.564   3.911   5.038
 3475HO4    HW113898   2.598   3.991   5.079
 3475HO4    HW213899   2.537   3.856   5.112
 3475HO4     MW13900   2.564   3.911   5.038
 3476HO4     OW13901   2.315   1.908   1.437
 3476HO4    HW113902   2.369   1.959   1.376
 3476HO4    HW213903   2.341   1.939   1.524
 3476HO4     MW13904   2.315   1.908   1.437
 3477HO4     OW13905   0.847   2.418   2.221
 3477HO4    HW113906   0.818   2.359   2.290
 3477HO4    HW213907   0.827   2.371   2.139
 3477HO4     MW13908   0.847   2.418   2.221
 3478HO4     OW13909   7.178   7.392   9.910
 3478HO4    HW113910   7.234   7.460   9.949
 3478HO4    HW213911   7.178   7.321   9.974
 3478HO4     MW13912   7.178   7.392   9.910
 3479HO4     OW13913   4.611   6.587   2.414
 3479HO4    HW113914   4.555   6.575   2.337
 3479HO4    HW213915   4.552   6.572   2.489
 3479HO4     MW13916   4.611   6.587   2.414
 3480HO4     OW13917   0.303   9.361   0.785
 3480HO4    HW113918   0.254   9.278   0.788
 3480HO4    HW213919   0.392   9.336   0.812
 3480HO4     MW13920   0.303   9.361   0.785
 3481HO4     OW13921   5.773   2.993   1.801
 3481HO4    HW113922   5.774   3.016   1.894
 3481HO4    HW213923   5.852   3.033   1.765
 3481HO4     MW13924   5.773   2.993   1.801
 3482HO4     OW13925   1.626   8.316   0.753
 3482HO4    HW113926   1.608   8.243   0.813
 3482HO4    HW213927   1.718   8.338   0.770
 3482HO4     MW13928   1.626   8.316   0.753
 3483HO4     OW13929   1.835   5.896   0.271
 3483HO4    HW113930   1.905   5.830   0.269
 3483HO4    HW213931   1.806   5.898   0.362
 3483HO4     MW13932   1.835   5.896   0.271
 3484HO4     OW13933   8.622   5.831   2.953
 3484HO4    HW113934   8.571   5.753   2.929
 3484HO4    HW213935   8.560   5.887   3.001
 3484HO4     MW13936   8.622   5.831   2.953
 3485HO4     OW13937   5.109   3.231   2.391
 3485HO4    HW113938   5.046   3.267   2.327
 3485HO4    HW213939   5.106   3.295   2.464
 3485HO4     MW13940   5.109   3.231   2.391
 3486HO4     OW13941   6.037   1.248   4.554
 3486HO4    HW113942   5.973   1.217   4.619
 3486HO4    HW213943   5.994   1.323   4.512
 3486HO4     MW13944   6.037   1.248   4.554
 3487HO4     OW13945   6.944   4.977   4.309
 3487HO4    HW113946   6.998   5.023   4.243
 3487HO4    HW213947   6.928   4.891   4.270
 3487HO4     MW13948   6.944   4.977   4.309
 3488HO4     OW13949   1.317   2.035   7.601
 3488HO4    HW113950   1.405   1.998   7.596
 3488HO4    HW213951   1.285   2.034   7.510
 3488HO4     MW13952   1.317   2.035   7.601
 3489HO4     OW13953   0.679   0.521   0.037
 3489HO4    HW113954   0.743   0.563  -0.022
 3489HO4    HW213955   0.716   0.534   0.125
 3489HO4     MW13956   0.679   0.521   0.037
 3490HO4     OW13957   8.026   9.210   0.494
 3490HO4    HW113958   8.077   9.224   0.575
 3490HO4    HW213959   7.942   9.253   0.511
 3490HO4     MW13960   8.026   9.210   0.494
 3491HO4     OW13961   2.636   3.649   8.550
 3491HO4    HW113962   2.594   3.591   8.614
 3491HO4    HW213963   2.722   3.608   8.534
 3491HO4     MW13964   2.636   3.649   8.550
 3492HO4     OW13965   6.294   3.191   0.336
 3492HO4    HW113966   6.200   3.185   0.313
 3492HO4    HW213967   6.320   3.277   0.302
 3492HO4     MW13968   6.294   3.191   0.336
 3493HO4     OW13969   4.222   6.568   3.288
 3493HO4    HW113970   4.291   6.614   3.338
 3493HO4    HW213971   4.140   6.606   3.321
 3493HO4     MW13972   4.222   6.568   3.288
 3494HO4     OW13973   2.111   1.606   8.717
 3494HO4    HW113974   2.064   1.690   8.722
 3494HO4    HW213975   2.166   1.605   8.796
 3494HO4     MW13976   2.111   1.606   8.717
 3495HO4     OW13977   3.131   7.475   1.572
 3495HO4    HW113978   3.192   7.429   1.514
 3495HO4    HW213979   3.135   7.427   1.655
 3495HO4     MW13980   3.131   7.475   1.572
 3496HO4     OW13981   3.824   3.765   2.417
 3496HO4    HW113982   3.765   3.766   2.493
 3496HO4    HW213983   3.765   3.768   2.341
 3496HO4     MW13984   3.824   3.765   2.417
 3497HO4     OW13985  10.057   0.324   2.267
 3497HO4    HW113986   9.999   0.363   2.333
 3497HO4    HW213987  10.010   0.245   2.238
 3497HO4     MW13988  10.057   0.324   2.267
 3498HO4     OW13989   2.583  10.083   4.559
 3498HO4    HW113990   2.623   9.998   4.580
 3498HO4    HW213991   2.492  10.074   4.589
 3498HO4     MW13992   2.583  10.083   4.559
 3499HO4     OW13993   2.104   0.477   0.847
 3499HO4    HW113994   2.068   0.391   0.870
 3499HO4    HW213995   2.053   0.505   0.771
 3499HO4     MW13996   2.104   0.477   0.847
 3500HO4     OW13997   6.539   0.418   4.621
 3500HO4    HW113998   6.504   0.402   4.710
 3500HO4    HW213999   6.632   0.396   4.628
 3500HO4     MW14000   6.539   0.418   4.621
 3501HO4     OW14001   1.795   2.034   3.191
 3501HO4    HW114002   1.727   2.098   3.213
 3501HO4    HW214003   1.831   2.006   3.276
 3501HO4     MW14004   1.795   2.034   3.191
 3502HO4     OW14005   7.431   3.259   7.740
 3502HO4    HW114006   7.429   3.290   7.649
 3502HO4    HW214007   7.417   3.338   7.793
 3502HO4     MW14008   7.431   3.259   7.740
 3503HO4     OW14009   3.626   4.465   0.049
 3503HO4    HW114010   3.596   4.540   0.102
 3503HO4    HW214011   3.584   4.389   0.091
 3503HO4     MW14012   3.626   4.465   0.049
 3504HO4     OW14013   4.862   7.134   9.899
 3504HO4    HW114014   4.944   7.133   9.848
 3504HO4    HW214015   4.890   7.143   9.990
 3504HO4     MW14016   4.862   7.134   9.899
 3505HO4     OW14017   4.820   4.587   8.342
 3505HO4    HW114018   4.762   4.648   8.390
 3505HO4    HW214019   4.776   4.502   8.349
 3505HO4     MW14020   4.820   4.587   8.342
 3506HO4     OW14021   4.111   7.889   5.741
 3506HO4    HW114022   4.168   7.825   5.784
 3506HO4    HW214023   4.022   7.862   5.767
 3506HO4     MW14024   4.111   7.889   5.741
 3507HO4     OW14025   4.501   8.166  10.050
 3507HO4    HW114026   4.558   8.185  10.126
 3507HO4    HW214027   4.412   8.184  10.081
 3507HO4     MW14028   4.501   8.166  10.050
 3508HO4     OW14029   4.599   9.616   9.513
 3508HO4    HW114030   4.550   9.631   9.594
 3508HO4    HW214031   4.533   9.585   9.450
 3508HO4     MW14032   4.599   9.616   9.513
 3509HO4     OW14033   7.178   6.969   9.896
 3509HO4    HW114034   7.092   6.955   9.936
 3509HO4    HW214035   7.160   6.968   9.801
 3509HO4     MW14036   7.178   6.969   9.896
 3510HO4     OW14037   0.109   1.821  10.023
 3510HO4    HW114038   0.159   1.748   9.983
 3510HO4    HW214039   0.173   1.866  10.079
 3510HO4     MW14040   0.109   1.821  10.023
 3511HO4     OW14041   2.864  10.124   9.601
 3511HO4    HW114042   2.898  10.191   9.541
 3511HO4    HW214043   2.942  10.095   9.650
 3511HO4     MW14044   2.864  10.124   9.601
 3512HO4     OW14045  10.073   0.730   8.894
 3512HO4    HW114046  10.042   0.733   8.985
 3512HO4    HW214047   9.996   0.701   8.844
 3512HO4     MW14048  10.073   0.730   8.894
 3513HO4     OW14049   2.981   4.005   3.696
 3513HO4    HW114050   2.933   3.953   3.631
 3513HO4    HW214051   2.995   3.944   3.769
 3513HO4     MW14052   2.981   4.005   3.696
 3514HO4     OW14053   5.760   7.818   2.091
 3514HO4    HW114054   5.746   7.786   2.181
 3514HO4    HW214055   5.747   7.913   2.097
 3514HO4     MW14056   5.760   7.818   2.091
 3515HO4     OW14057   0.319   4.869   2.955
 3515HO4    HW114058   0.333   4.937   2.887
 3515HO4    HW214059   0.290   4.919   3.032
 3515HO4     MW14060   0.319   4.869   2.955
 3516HO4     OW14061   3.716   3.852   6.752
 3516HO4    HW114062   3.658   3.790   6.708
 3516HO4    HW214063   3.658   3.921   6.785
 3516HO4     MW14064   3.716   3.852   6.752
 3517HO4     OW14065   2.916   9.917   4.308
 3517HO4    HW114066   2.959   9.922   4.395
 3517HO4    HW214067   2.985   9.885   4.250
 3517HO4     MW14068   2.916   9.917   4.308
 3518HO4     OW14069   0.758   3.050   7.235
 3518HO4    HW114070   0.697   3.117   7.268
 3518HO4    HW214071   0.794   3.088   7.154
 3518HO4     MW14072   0.758   3.050   7.235
 3519HO4     OW14073   5.346   2.903   1.755
 3519HO4    HW114074   5.419   2.961   1.778
 3519HO4    HW214075   5.267   2.952   1.779
 3519HO4     MW14076   5.346   2.903   1.755
 3520HO4     OW14077   8.120   6.616   8.635
 3520HO4    HW114078   8.128   6.706   8.600
 3520HO4    HW214079   8.207   6.578   8.621
 3520HO4     MW14080   8.120   6.616   8.635
 3521HO4     OW14081   7.198   2.140   3.793
 3521HO4    HW114082   7.209   2.102   3.706
 3521HO4    HW214083   7.110   2.111   3.821
 3521HO4     MW14084   7.198   2.140   3.793
 3522HO4     OW14085   0.948   0.861   9.837
 3522HO4    HW114086   0.998   0.890   9.760
 3522HO4    HW214087   1.008   0.873   9.911
 3522HO4     MW14088   0.948   0.861   9.837
 3523HO4     OW14089   0.974   9.882   6.864
 3523HO4    HW114090   1.050   9.873   6.807
 3523HO4    HW214091   1.006   9.857   6.951
 3523HO4     MW14092   0.974   9.882   6.864
 3524HO4     OW14093   5.007   9.706   2.160
 3524HO4    HW114094   5.082   9.763   2.178
 3524HO4    HW214095   4.937   9.767   2.135
 3524HO4     MW14096   5.007   9.706   2.160
 3525HO4     OW14097   7.160   5.057   4.983
 3525HO4    HW114098   7.202   4.973   5.003
 3525HO4    HW214099   7.180   5.112   5.059
 3525HO4     MW14100   7.160   5.057   4.983
 3526HO4     OW14101   7.027   1.752   3.351
 3526HO4    HW114102   6.964   1.794   3.292
 3526HO4    HW214103   7.006   1.787   3.438
 3526HO4     MW14104   7.027   1.752   3.351
 3527HO4     OW14105   5.546   9.428   2.392
 3527HO4    HW114106   5.524   9.468   2.477
 3527HO4    HW214107   5.488   9.352   2.386
 3527HO4     MW14108   5.546   9.428   2.392
 3528HO4     OW14109   0.151   0.798   5.362
 3528HO4    HW114110   0.110   0.723   5.406
 3528HO4    HW214111   0.234   0.764   5.327
 3528HO4     MW14112   0.151   0.798   5.362
 3529HO4     OW14113   3.064   8.136  10.072
 3529HO4    HW114114   3.113   8.082  10.010
 3529HO4    HW214115   3.088   8.102  10.159
 3529HO4     MW14116   3.064   8.136  10.072
 3530HO4     OW14117   4.277   0.989   7.150
 3530HO4    HW114118   4.303   1.026   7.066
 3530HO4    HW214119   4.292   0.894   7.140
 3530HO4     MW14120   4.277   0.989   7.150
 3531HO4     OW14121   3.474   0.384   9.137
 3531HO4    HW114122   3.422   0.410   9.214
 3531HO4    HW214123   3.565   0.407   9.160
 3531HO4     MW14124   3.474   0.384   9.137
 3532HO4     OW14125   7.294   9.603   8.847
 3532HO4    HW114126   7.220   9.569   8.899
 3532HO4    HW214127   7.256   9.673   8.794
 3532HO4     MW14128   7.294   9.603   8.847
 3533HO4     OW14129   7.483   5.012   1.081
 3533HO4    HW114130   7.514   5.061   1.158
 3533HO4    HW214131   7.518   5.060   1.006
 3533HO4     MW14132   7.483   5.012   1.081
 3534HO4     OW14133   3.385   9.153   3.997
 3534HO4    HW114134   3.410   9.077   4.049
 3534HO4    HW214135   3.460   9.166   3.937
 3534HO4     MW14136   3.385   9.153   3.997
 3535HO4     OW14137   0.619   7.037   0.840
 3535HO4    HW114138   0.592   6.975   0.909
 3535HO4    HW214139   0.618   6.985   0.759
 3535HO4     MW14140   0.619   7.037   0.840
 3536HO4     OW14141   6.517   0.820   8.376
 3536HO4    HW114142   6.517   0.909   8.412
 3536HO4    HW214143   6.609   0.804   8.352
 3536HO4     MW14144   6.517   0.820   8.376
 3537HO4     OW14145   1.364   0.594   6.988
 3537HO4    HW114146   1.312   0.654   7.041
 3537HO4    HW214147   1.335   0.610   6.898
 3537HO4     MW14148   1.364   0.594   6.988
 3538HO4     OW14149   0.424   1.305   8.198
 3538HO4    HW114150   0.472   1.351   8.129
 3538HO4    HW214151   0.473   1.324   8.278
 3538HO4     MW14152   0.424   1.305   8.198
 3539HO4     OW14153   3.914   3.314   6.744
 3539HO4    HW114154   3.944   3.337   6.832
 3539HO4    HW214155   3.875   3.227   6.754
 3539HO4     MW14156   3.914   3.314   6.744
 3540HO4     OW14157   9.886   9.449   1.760
 3540HO4    HW114158   9.957   9.497   1.803
 3540HO4    HW214159   9.868   9.500   1.680
 3540HO4     MW14160   9.886   9.449   1.760
 3541HO4     OW14161   5.001   4.939   9.429
 3541HO4    HW114162   4.961   4.897   9.506
 3541HO4    HW214163   4.945   5.015   9.411
 3541HO4     MW14164   5.001   4.939   9.429
 3542HO4     OW14165   2.371   4.522   6.624
 3542HO4    HW114166   2.284   4.533   6.585
 3542HO4    HW214167   2.425   4.488   6.553
 3542HO4     MW14168   2.371   4.522   6.624
 3543HO4     OW14169   8.534   2.566   3.773
 3543HO4    HW114170   8.575   2.562   3.686
 3543HO4    HW214171   8.607   2.587   3.832
 3543HO4     MW14172   8.534   2.566   3.773
 3544HO4     OW14173   1.014   7.736   3.196
 3544HO4    HW114174   0.950   7.741   3.125
 3544HO4    HW214175   0.963   7.749   3.276
 3544HO4     MW14176   1.014   7.736   3.196
 3545HO4     OW14177   5.679   6.360   7.844
 3545HO4    HW114178   5.601   6.398   7.886
 3545HO4    HW214179   5.669   6.384   7.751
 3545HO4     MW14180   5.679   6.360   7.844
 3546HO4     OW14181  -0.011   5.325   7.878
 3546HO4    HW114182   0.041   5.398   7.913
 3546HO4    HW214183   0.045   5.248   7.888
 3546HO4     MW14184  -0.011   5.325   7.878
 3547HO4     OW14185   3.328   1.261   2.667
 3547HO4    HW114186   3.268   1.269   2.741
 3547HO4    HW214187   3.272   1.267   2.589
 3547HO4     MW14188   3.328   1.261   2.667
 3548HO4     OW14189   9.332   3.223   4.904
 3548HO4    HW114190   9.397   3.260   4.843
 3548HO4    HW214191   9.311   3.137   4.865
 3548HO4     MW14192   9.332   3.223   4.904
 3549HO4     OW14193   0.217   6.745   5.963
 3549HO4    HW114194   0.175   6.720   5.880
 3549HO4    HW214195   0.145   6.754   6.025
 3549HO4     MW14196   0.217   6.745   5.963
 3550HO4     OW14197   1.319   3.471   6.647
 3550HO4    HW114198   1.302   3.511   6.561
 3550HO4    HW214199   1.313   3.545   6.709
 3550HO4     MW14200   1.319   3.471   6.647
 3551HO4     OW14201   3.445   6.682  10.021
 3551HO4    HW114202   3.448   6.719   9.932
 3551HO4    HW214203   3.375   6.732  10.064
 3551HO4     MW14204   3.445   6.682  10.021
 3552HO4     OW14205   9.803   4.750   5.242
 3552HO4    HW114206   9.869   4.748   5.312
 3552HO4    HW214207   9.824   4.828   5.191
 3552HO4     MW14208   9.803   4.750   5.242
 3553HO4     OW14209   7.533   1.470   4.253
 3553HO4    HW114210   7.463   1.492   4.316
 3553HO4    HW214211   7.550   1.376   4.269
 3553HO4     MW14212   7.533   1.470   4.253
 3554HO4     OW14213   2.109   0.724   4.983
 3554HO4    HW114214   2.163   0.787   5.032
 3554HO4    HW214215   2.160   0.643   4.986
 3554HO4     MW14216   2.109   0.724   4.983
 3555HO4     OW14217   0.275   1.382   7.448
 3555HO4    HW114218   0.241   1.464   7.411
 3555HO4    HW214219   0.238   1.379   7.537
 3555HO4     MW14220   0.275   1.382   7.448
 3556HO4     OW14221   5.563   0.671   0.002
 3556HO4    HW114222   5.509   0.629   0.069
 3556HO4    HW214223   5.615   0.737   0.049
 3556HO4     MW14224   5.563   0.671   0.002
 3557HO4     OW14225   0.650   5.772   8.912
 3557HO4    HW114226   0.637   5.866   8.923
 3557HO4    HW214227   0.612   5.752   8.826
 3557HO4     MW14228   0.650   5.772   8.912
 3558HO4     OW14229  10.110   1.294   7.496
 3558HO4    HW114230  10.080   1.267   7.408
 3558HO4    HW214231  10.059   1.239   7.556
 3558HO4     MW14232  10.110   1.294   7.496
 3559HO4     OW14233   8.451   3.567   8.504
 3559HO4    HW114234   8.488   3.532   8.586
 3559HO4    HW214235   8.475   3.501   8.438
 3559HO4     MW14236   8.451   3.567   8.504
 3560HO4     OW14237   8.402   1.362   1.794
 3560HO4    HW114238   8.387   1.430   1.861
 3560HO4    HW214239   8.419   1.412   1.713
 3560HO4     MW14240   8.402   1.362   1.794
 3561HO4     OW14241   9.805   7.453   0.736
 3561HO4    HW114242   9.799   7.527   0.675
 3561HO4    HW214243   9.737   7.392   0.705
 3561HO4     MW14244   9.805   7.453   0.736
 3562HO4     OW14245   3.546   8.150   0.080
 3562HO4    HW114246   3.458   8.125   0.112
 3562HO4    HW214247   3.543   8.247   0.077
 3562HO4     MW14248   3.546   8.150   0.080
 3563HO4     OW14249   7.785   2.283   9.091
 3563HO4    HW114250   7.842   2.270   9.167
 3563HO4    HW214251   7.842   2.323   9.024
 3563HO4     MW14252   7.785   2.283   9.091
 3564HO4     OW14253   0.722   8.931   0.075
 3564HO4    HW114254   0.726   9.027   0.082
 3564HO4    HW214255   0.650   8.906   0.134
 3564HO4     MW14256   0.722   8.931   0.075
 3565HO4     OW14257   4.823   1.214  10.050
 3565HO4    HW114258   4.906   1.227  10.097
 3565HO4    HW214259   4.816   1.118  10.039
 3565HO4     MW14260   4.823   1.214  10.050
 3566HO4     OW14261   2.151   1.857   0.931
 3566HO4    HW114262   2.159   1.821   0.842
 3566HO4    HW214263   2.117   1.784   0.984
 3566HO4     MW14264   2.151   1.857   0.931
 3567HO4     OW14265   1.481   9.141   3.250
 3567HO4    HW114266   1.528   9.107   3.174
 3567HO4    HW214267   1.408   9.191   3.213
 3567HO4     MW14268   1.481   9.141   3.250
 3568HO4     OW14269   6.587   9.356   4.895
 3568HO4    HW114270   6.578   9.397   4.808
 3568HO4    HW214271   6.607   9.429   4.954
 3568HO4     MW14272   6.587   9.356   4.895
 3569HO4     OW14273   1.828   8.057   2.188
 3569HO4    HW114274   1.903   8.063   2.128
 3569HO4    HW214275   1.860   8.003   2.261
 3569HO4     MW14276   1.828   8.057   2.188
 3570HO4     OW14277   2.588   9.042   7.063
 3570HO4    HW114278   2.624   8.993   7.138
 3570HO4    HW214279   2.625   8.999   6.986
 3570HO4     MW14280   2.588   9.042   7.063
 3571HO4     OW14281   4.382   3.267   0.038
 3571HO4    HW114282   4.418   3.218  -0.037
 3571HO4    HW214283   4.416   3.221   0.115
 3571HO4     MW14284   4.382   3.267   0.038
 3572HO4     OW14285   0.277  10.017   6.656
 3572HO4    HW114286   0.344  10.086   6.646
 3572HO4    HW214287   0.299   9.974   6.739
 3572HO4     MW14288   0.277  10.017   6.656
 3573HO4     OW14289   8.531   1.545   0.534
 3573HO4    HW114290   8.626   1.532   0.543
 3573HO4    HW214291   8.503   1.577   0.621
 3573HO4     MW14292   8.531   1.545   0.534
 3574HO4     OW14293   5.908   9.868   8.215
 3574HO4    HW114294   5.956   9.827   8.288
 3574HO4    HW214295   5.976   9.884   8.148
 3574HO4     MW14296   5.908   9.868   8.215
 3575HO4     OW14297   2.838   5.083   1.540
 3575HO4    HW114298   2.779   5.093   1.615
 3575HO4    HW214299   2.782   5.049   1.470
 3575HO4     MW14300   2.838   5.083   1.540
 3576HO4     OW14301   2.759   3.215   5.082
 3576HO4    HW114302   2.683   3.269   5.056
 3576HO4    HW214303   2.827   3.239   5.019
 3576HO4     MW14304   2.759   3.215   5.082
 3577HO4     OW14305   8.141   0.925   7.074
 3577HO4    HW114306   8.191   1.006   7.089
 3577HO4    HW214307   8.084   0.917   7.151
 3577HO4     MW14308   8.141   0.925   7.074
 3578HO4     OW14309   7.275   8.898   4.871
 3578HO4    HW114310   7.364   8.897   4.908
 3578HO4    HW214311   7.288   8.879   4.778
 3578HO4     MW14312   7.275   8.898   4.871
 3579HO4     OW14313   5.157   6.430   3.907
 3579HO4    HW114314   5.196   6.477   3.832
 3579HO4    HW214315   5.195   6.472   3.984
 3579HO4     MW14316   5.157   6.430   3.907
 3580HO4     OW14317   0.016   1.974   1.370
 3580HO4    HW114318  -0.054   1.934   1.318
 3580HO4    HW214319   0.066   1.900   1.405
 3580HO4     MW14320   0.016   1.974   1.370
 3581HO4     OW14321   0.338   6.590   4.615
 3581HO4    HW114322   0.386   6.624   4.539
 3581HO4    HW214323   0.355   6.495   4.614
 3581HO4     MW14324   0.338   6.590   4.615
 3582HO4     OW14325   9.704   8.770   4.236
 3582HO4    HW114326   9.731   8.851   4.192
 3582HO4    HW214327   9.645   8.800   4.306
 3582HO4     MW14328   9.704   8.770   4.236
 3583HO4     OW14329   4.635   9.953   6.903
 3583HO4    HW114330   4.604   9.993   6.986
 3583HO4    HW214331   4.684   9.876   6.931
 3583HO4     MW14332   4.635   9.953   6.903
 3584HO4     OW14333   7.547  10.018   2.943
 3584HO4    HW114334   7.495  10.098   2.952
 3584HO4    HW214335   7.552  10.002   2.848
 3584HO4     MW14336   7.547  10.018   2.943
 3585HO4     OW14337   5.193   7.328   4.143
 3585HO4    HW114338   5.252   7.323   4.068
 3585HO4    HW214339   5.249   7.357   4.216
 3585HO4     MW14340   5.193   7.328   4.143
 3586HO4     OW14341   7.678   8.771   4.480
 3586HO4    HW114342   7.584   8.759   4.462
 3586HO4    HW214343   7.720   8.701   4.428
 3586HO4     MW14344   7.678   8.771   4.480
 3587HO4     OW14345   8.457   2.076   7.281
 3587HO4    HW114346   8.395   2.086   7.208
 3587HO4    HW214347   8.407   2.104   7.358
 3587HO4     MW14348   8.457   2.076   7.281
 3588HO4     OW14349   8.057   6.651   7.817
 3588HO4    HW114350   8.022   6.579   7.871
 3588HO4    HW214351   8.100   6.606   7.743
 3588HO4     MW14352   8.057   6.651   7.817
 3589HO4     OW14353   2.691   0.323   8.185
 3589HO4    HW114354   2.722   0.232   8.194
 3589HO4    HW214355   2.772   0.375   8.185
 3589HO4     MW14356   2.691   0.323   8.185
 3590HO4     OW14357   7.001   8.122   8.430
 3590HO4    HW114358   7.041   8.097   8.346
 3590HO4    HW214359   6.972   8.213   8.416
 3590HO4     MW14360   7.001   8.122   8.430
 3591HO4     OW14361   6.322   4.079   2.999
 3591HO4    HW114362   6.394   4.033   2.955
 3591HO4    HW214363   6.348   4.082   3.091
 3591HO4     MW14364   6.322   4.079   2.999
 3592HO4     OW14365   2.945   1.625   0.012
 3592HO4    HW114366   3.019   1.574  -0.021
 3592HO4    HW214367   2.870   1.565   0.006
 3592HO4     MW14368   2.945   1.625   0.012
 3593HO4     OW14369   5.373   5.925   1.568
 3593HO4    HW114370   5.451   5.873   1.588
 3593HO4    HW214371   5.304   5.860   1.552
 3593HO4     MW14372   5.373   5.925   1.568
 3594HO4     OW14373   2.214   2.231   8.677
 3594HO4    HW114374   2.151   2.302   8.664
 3594HO4    HW214375   2.207   2.209   8.771
 3594HO4     MW14376   2.214   2.231   8.677
 3595HO4     OW14377   0.622   4.666   1.660
 3595HO4    HW114378   0.649   4.754   1.688
 3595HO4    HW214379   0.543   4.648   1.711
 3595HO4     MW14380   0.622   4.666   1.660
 3596HO4     OW14381   7.354   5.219   2.079
 3596HO4    HW114382   7.385   5.274   2.151
 3596HO4    HW214383   7.393   5.258   2.000
 3596HO4     MW14384   7.354   5.219   2.079
 3597HO4     OW14385   4.906   7.558   7.126
 3597HO4    HW114386   4.863   7.601   7.051
 3597HO4    HW214387   4.864   7.597   7.203
 3597HO4     MW14388   4.906   7.558   7.126
 3598HO4     OW14389   9.759   3.023   2.543
 3598HO4    HW114390   9.727   3.013   2.633
 3598HO4    HW214391   9.698   3.086   2.503
 3598HO4     MW14392   9.759   3.023   2.543
 3599HO4     OW14393   1.157   3.581   1.205
 3599HO4    HW114394   1.158   3.669   1.244
 3599HO4    HW214395   1.251   3.558   1.198
 3599HO4     MW14396   1.157   3.581   1.205
 3600HO4     OW14397   2.845   5.754   2.754
 3600HO4    HW114398   2.810   5.734   2.667
 3600HO4    HW214399   2.798   5.833   2.781
 3600HO4     MW14400   2.845   5.754   2.754
 3601HO4     OW14401   2.380   5.782   1.264
 3601HO4    HW114402   2.437   5.808   1.337
 3601HO4    HW214403   2.429   5.810   1.185
 3601HO4     MW14404   2.380   5.782   1.264
 3602HO4     OW14405   2.161   8.244   9.939
 3602HO4    HW114406   2.114   8.278   9.863
 3602HO4    HW214407   2.232   8.307   9.954
 3602HO4     MW14408   2.161   8.244   9.939
 3603HO4     OW14409   7.736   4.493   7.878
 3603HO4    HW114410   7.786   4.459   7.952
 3603HO4    HW214411   7.746   4.427   7.809
 3603HO4     MW14412   7.736   4.493   7.878
 3604HO4     OW14413   5.240   4.113   1.667
 3604HO4    HW114414   5.189   4.032   1.657
 3604HO4    HW214415   5.314   4.102   1.606
 3604HO4     MW14416   5.240   4.113   1.667
 3605HO4     OW14417   9.799   7.414   2.906
 3605HO4    HW114418   9.736   7.469   2.955
 3605HO4    HW214419   9.749   7.335   2.883
 3605HO4     MW14420   9.799   7.414   2.906
 3606HO4     OW14421   1.194   5.343   0.022
 3606HO4    HW114422   1.226   5.338  -0.069
 3606HO4    HW214423   1.274   5.343   0.076
 3606HO4     MW14424   1.194   5.343   0.022
 3607HO4     OW14425   7.738   7.896   6.867
 3607HO4    HW114426   7.672   7.832   6.839
 3607HO4    HW214427   7.731   7.896   6.963
 3607HO4     MW14428   7.738   7.896   6.867
 3608HO4     OW14429   9.293   0.186   5.835
 3608HO4    HW114430   9.262   0.208   5.746
 3608HO4    HW214431   9.214   0.192   5.890
 3608HO4     MW14432   9.293   0.186   5.835
 3609HO4     OW14433   1.675   0.340   0.662
 3609HO4    HW114434   1.632   0.360   0.578
 3609HO4    HW214435   1.631   0.396   0.726
 3609HO4     MW14436   1.675   0.340   0.662
 3610HO4     OW14437   3.357   2.294   0.706
 3610HO4    HW114438   3.367   2.318   0.799
 3610HO4    HW214439   3.447   2.273   0.678
 3610HO4     MW14440   3.357   2.294   0.706
 3611HO4     OW14441   5.329   0.040   7.901
 3611HO4    HW114442   5.305   0.131   7.883
 3611HO4    HW214443   5.275   0.017   7.978
 3611HO4     MW14444   5.329   0.040   7.901
 3612HO4     OW14445   5.013   1.295   5.701
 3612HO4    HW114446   4.957   1.292   5.779
 3612HO4    HW214447   4.952   1.289   5.627
 3612HO4     MW14448   5.013   1.295   5.701
 3613HO4     OW14449   2.438   5.313   1.875
 3613HO4    HW114450   2.444   5.359   1.960
 3613HO4    HW214451   2.374   5.364   1.825
 3613HO4     MW14452   2.438   5.313   1.875
 3614HO4     OW14453   2.026   8.302   4.305
 3614HO4    HW114454   2.092   8.345   4.251
 3614HO4    HW214455   2.070   8.284   4.389
 3614HO4     MW14456   2.026   8.302   4.305
 3615HO4     OW14457   0.523   2.862   9.644
 3615HO4    HW114458   0.493   2.780   9.685
 3615HO4    HW214459   0.578   2.903   9.712
 3615HO4     MW14460   0.523   2.862   9.644
 3616HO4     OW14461   9.933   7.774   0.483
 3616HO4    HW114462   9.960   7.861   0.453
 3616HO4    HW214463   9.911   7.727   0.402
 3616HO4     MW14464   9.933   7.774   0.483
 3617HO4     OW14465   0.680   7.291   4.103
 3617HO4    HW114466   0.665   7.338   4.021
 3617HO4    HW214467   0.731   7.352   4.157
 3617HO4     MW14468   0.680   7.291   4.103
 3618HO4     OW14469   6.129   4.301   6.277
 3618HO4    HW114470   6.034   4.292   6.262
 3618HO4    HW214471   6.163   4.336   6.194
 3618HO4     MW14472   6.129   4.301   6.277
 3619HO4     OW14473   0.541   9.374   1.751
 3619HO4    HW114474   0.582   9.405   1.832
 3619HO4    HW214475   0.594   9.413   1.681
 3619HO4     MW14476   0.541   9.374   1.751
 3620HO4     OW14477   7.818   9.507   3.699
 3620HO4    HW114478   7.776   9.571   3.757
 3620HO4    HW214479   7.882   9.557   3.648
 3620HO4     MW14480   7.818   9.507   3.699
 3621HO4     OW14481   1.167   1.840   9.149
 3621HO4    HW114482   1.159   1.804   9.060
 3621HO4    HW214483   1.101   1.792   9.200
 3621HO4     MW14484   1.167   1.840   9.149
 3622HO4     OW14485   9.403   4.937   9.522
 3622HO4    HW114486   9.485   4.888   9.511
 3622HO4    HW214487   9.370   4.911   9.609
 3622HO4     MW14488   9.403   4.937   9.522
 3623HO4     OW14489   3.993   4.738   6.837
 3623HO4    HW114490   4.000   4.759   6.743
 3623HO4    HW214491   3.914   4.785   6.866
 3623HO4     MW14492   3.993   4.738   6.837
 3624HO4     OW14493   3.484   5.382   6.030
 3624HO4    HW114494   3.568   5.426   6.047
 3624HO4    HW214495   3.418   5.452   6.039
 3624HO4     MW14496   3.484   5.382   6.030
 3625HO4     OW14497   0.140   3.963   9.157
 3625HO4    HW114498   0.120   3.996   9.068
 3625HO4    HW214499   0.065   3.992   9.210
 3625HO4     MW14500   0.140   3.963   9.157
 3626HO4     OW14501   4.678   5.045   7.958
 3626HO4    HW114502   4.586   5.055   7.934
 3626HO4    HW214503   4.713   5.135   7.959
 3626HO4     MW14504   4.678   5.045   7.958
 3627HO4     OW14505   0.521   9.647   7.246
 3627HO4    HW114506   0.491   9.557   7.234
 3627HO4    HW214507   0.609   9.638   7.283
 3627HO4     MW14508   0.521   9.647   7.246
 3628HO4     OW14509   9.340   8.549   1.157
 3628HO4    HW114510   9.320   8.597   1.076
 3628HO4    HW214511   9.361   8.618   1.221
 3628HO4     MW14512   9.340   8.549   1.157
 3629HO4     OW14513   3.455   2.945   7.920
 3629HO4    HW114514   3.453   2.900   8.005
 3629HO4    HW214515   3.482   3.035   7.941
 3629HO4     MW14516   3.455   2.945   7.920
 3630HO4     OW14517   9.943   1.654   2.731
 3630HO4    HW114518   9.871   1.699   2.777
 3630HO4    HW214519   9.932   1.562   2.754
 3630HO4     MW14520   9.943   1.654   2.731
 3631HO4     OW14521   2.768   9.328   0.655
 3631HO4    HW114522   2.720   9.369   0.583
 3631HO4    HW214523   2.716   9.348   0.733
 3631HO4     MW14524   2.768   9.328   0.655
 3632HO4     OW14525   1.954   8.400   7.176
 3632HO4    HW114526   2.029   8.380   7.119
 3632HO4    HW214527   1.976   8.486   7.214
 3632HO4     MW14528   1.954   8.400   7.176
 3633HO4     OW14529   3.676   0.212   2.163
 3633HO4    HW114530   3.731   0.165   2.099
 3633HO4    HW214531   3.732   0.284   2.194
 3633HO4     MW14532   3.676   0.212   2.163
 3634HO4     OW14533   8.852   9.981   4.346
 3634HO4    HW114534   8.873   9.950   4.258
 3634HO4    HW214535   8.756   9.989   4.347
 3634HO4     MW14536   8.852   9.981   4.346
 3635HO4     OW14537   8.399   7.720   8.747
 3635HO4    HW114538   8.443   7.684   8.824
 3635HO4    HW214539   8.438   7.673   8.672
 3635HO4     MW14540   8.399   7.720   8.747
 3636HO4     OW14541   2.621   4.577   4.257
 3636HO4    HW114542   2.668   4.523   4.192
 3636HO4    HW214543   2.623   4.665   4.220
 3636HO4     MW14544   2.621   4.577   4.257
 3637HO4     OW14545   7.551   4.961   7.747
 3637HO4    HW114546   7.514   4.919   7.668
 3637HO4    HW214547   7.523   4.904   7.819
 3637HO4     MW14548   7.551   4.961   7.747
 3638HO4     OW14549   8.127   4.751   3.490
 3638HO4    HW114550   8.149   4.739   3.583
 3638HO4    HW214551   8.052   4.693   3.476
 3638HO4     MW14552   8.127   4.751   3.490
 3639HO4     OW14553   4.935   3.770   0.417
 3639HO4    HW114554   4.897   3.813   0.495
 3639HO4    HW214555   4.902   3.822   0.343
 3639HO4     MW14556   4.935   3.770   0.417
 3640HO4     OW14557   0.621   3.200   3.997
 3640HO4    HW114558   0.559   3.128   4.010
 3640HO4    HW214559   0.706   3.162   4.021
 3640HO4     MW14560   0.621   3.200   3.997
 3641HO4     OW14561   4.270   5.440   0.625
 3641HO4    HW114562   4.364   5.458   0.616
 3641HO4    HW214563   4.265   5.347   0.649
 3641HO4     MW14564   4.270   5.440   0.625
 3642HO4     OW14565   1.975   3.080   3.707
 3642HO4    HW114566   2.033   3.027   3.651
 3642HO4    HW214567   1.946   3.019   3.776
 3642HO4     MW14568   1.975   3.080   3.707
 3643HO4     OW14569   6.708   2.844  -0.019
 3643HO4    HW114570   6.713   2.824   0.075
 3643HO4    HW214571   6.669   2.932  -0.022
 3643HO4     MW14572   6.708   2.844  -0.019
 3644HO4     OW14573   1.812   1.009   9.117
 3644HO4    HW114574   1.818   0.914   9.132
 3644HO4    HW214575   1.793   1.017   9.023
 3644HO4     MW14576   1.812   1.009   9.117
 3645HO4     OW14577   1.843   0.680   5.497
 3645HO4    HW114578   1.763   0.649   5.540
 3645HO4    HW214579   1.914   0.638   5.547
 3645HO4     MW14580   1.843   0.680   5.497
 3646HO4     OW14581   5.975   5.187   0.781
 3646HO4    HW114582   5.937   5.124   0.718
 3646HO4    HW214583   6.031   5.243   0.727
 3646HO4     MW14584   5.975   5.187   0.781
 3647HO4     OW14585   1.076   8.512   7.228
 3647HO4    HW114586   1.155   8.560   7.200
 3647HO4    HW214587   1.025   8.501   7.148
 3647HO4     MW14588   1.076   8.512   7.228
 3648HO4     OW14589   7.018   6.296   9.024
 3648HO4    HW114590   6.976   6.244   9.093
 3648HO4    HW214591   7.081   6.236   8.983
 3648HO4     MW14592   7.018   6.296   9.024
 3649HO4     OW14593   5.226   9.833   2.894
 3649HO4    HW114594   5.217   9.927   2.909
 3649HO4    HW214595   5.155   9.812   2.832
 3649HO4     MW14596   5.226   9.833   2.894
 3650HO4     OW14597   2.830   8.068   9.008
 3650HO4    HW114598   2.803   8.037   9.094
 3650HO4    HW214599   2.888   7.999   8.974
 3650HO4     MW14600   2.830   8.068   9.008
 3651HO4     OW14601   0.123   5.815   4.850
 3651HO4    HW114602   0.082   5.799   4.765
 3651HO4    HW214603   0.208   5.853   4.829
 3651HO4     MW14604   0.123   5.815   4.850
 3652HO4     OW14605   4.127   0.360   4.234
 3652HO4    HW114606   4.126   0.364   4.331
 3652HO4    HW214607   4.039   0.387   4.208
 3652HO4     MW14608   4.127   0.360   4.234
 3653HO4     OW14609   0.113   5.109  10.112
 3653HO4    HW114610   0.178   5.070  10.172
 3653HO4    HW214611   0.164   5.130  10.033
 3653HO4     MW14612   0.113   5.109  10.112
 3654HO4     OW14613   4.113   0.825   7.214
 3654HO4    HW114614   4.111   0.783   7.300
 3654HO4    HW214615   4.057   0.903   7.224
 3654HO4     MW14616   4.113   0.825   7.214
 3655HO4     OW14617   1.044   5.628   0.518
 3655HO4    HW114618   1.104   5.594   0.586
 3655HO4    HW214619   1.012   5.711   0.554
 3655HO4     MW14620   1.044   5.628   0.518
 3656HO4     OW14621   5.938   8.577   6.591
 3656HO4    HW114622   5.984   8.544   6.669
 3656HO4    HW214623   6.008   8.615   6.536
 3656HO4     MW14624   5.938   8.577   6.591
 3657HO4     OW14625   9.121   7.730   1.775
 3657HO4    HW114626   9.047   7.698   1.826
 3657HO4    HW214627   9.193   7.670   1.796
 3657HO4     MW14628   9.121   7.730   1.775
 3658HO4     OW14629   3.993   5.825   3.210
 3658HO4    HW114630   3.979   5.759   3.141
 3658HO4    HW214631   3.982   5.777   3.292
 3658HO4     MW14632   3.993   5.825   3.210
 3659HO4     OW14633   4.141   4.425   5.484
 3659HO4    HW114634   4.115   4.362   5.552
 3659HO4    HW214635   4.228   4.455   5.512
 3659HO4     MW14636   4.141   4.425   5.484
 3660HO4     OW14637   9.867  10.146   0.417
 3660HO4    HW114638   9.915  10.230   0.416
 3660HO4    HW214639   9.936  10.079   0.418
 3660HO4     MW14640   9.867  10.146   0.417
 3661HO4     OW14641   4.233   1.541   7.333
 3661HO4    HW114642   4.263   1.479   7.399
 3661HO4    HW214643   4.249   1.497   7.249
 3661HO4     MW14644   4.233   1.541   7.333
 3662HO4     OW14645   9.938   0.999   9.820
 3662HO4    HW114646   9.877   1.029   9.887
 3662HO4    HW214647   9.898   1.027   9.737
 3662HO4     MW14648   9.938   0.999   9.820
 3663HO4     OW14649   2.034   8.242   2.999
 3663HO4    HW114650   2.091   8.237   3.076
 3663HO4    HW214651   2.057   8.325   2.957
 3663HO4     MW14652   2.034   8.242   2.999
 3664HO4     OW14653   1.347   6.841   0.269
 3664HO4    HW114654   1.405   6.844   0.346
 3664HO4    HW214655   1.405   6.813   0.197
 3664HO4     MW14656   1.347   6.841   0.269
 3665HO4     OW14657   5.269   6.947   7.457
 3665HO4    HW114658   5.326   6.969   7.384
 3665HO4    HW214659   5.311   6.871   7.498
 3665HO4     MW14660   5.269   6.947   7.457
 3666HO4     OW14661   2.414   5.705   6.936
 3666HO4    HW114662   2.452   5.766   7.000
 3666HO4    HW214663   2.372   5.637   6.989
 3666HO4     MW14664   2.414   5.705   6.936
 3667HO4     OW14665   5.317   2.295   3.704
 3667HO4    HW114666   5.255   2.302   3.777
 3667HO4    HW214667   5.264   2.313   3.626
 3667HO4     MW14668   5.317   2.295   3.704
 3668HO4     OW14669   9.050   2.797   9.136
 3668HO4    HW114670   9.106   2.722   9.112
 3668HO4    HW214671   9.105   2.848   9.197
 3668HO4     MW14672   9.050   2.797   9.136
 3669HO4     OW14673   2.921   3.916   4.905
 3669HO4    HW114674   2.958   3.954   4.985
 3669HO4    HW214675   2.994   3.869   4.864
 3669HO4     MW14676   2.921   3.916   4.905
 3670HO4     OW14677   7.298   1.415   0.211
 3670HO4    HW114678   7.240   1.370   0.273
 3670HO4    HW214679   7.295   1.361   0.131
 3670HO4     MW14680   7.298   1.415   0.211
 3671HO4     OW14681   1.604   6.596   7.336
 3671HO4    HW114682   1.681   6.591   7.279
 3671HO4    HW214683   1.638   6.576   7.424
 3671HO4     MW14684   1.604   6.596   7.336
 3672HO4     OW14685   7.390   6.594   3.513
 3672HO4    HW114686   7.457   6.646   3.467
 3672HO4    HW214687   7.396   6.622   3.604
 3672HO4     MW14688   7.390   6.594   3.513
 3673HO4     OW14689   2.253   1.206   9.174
 3673HO4    HW114690   2.233   1.181   9.083
 3673HO4    HW214691   2.277   1.299   9.169
 3673HO4     MW14692   2.253   1.206   9.174
 3674HO4     OW14693   6.076   1.005   6.583
 3674HO4    HW114694   6.124   1.026   6.502
 3674HO4    HW214695   6.135   1.033   6.653
 3674HO4     MW14696   6.076   1.005   6.583
 3675HO4     OW14697   4.064   6.177   1.029
 3675HO4    HW114698   4.156   6.188   1.003
 3675HO4    HW214699   4.067   6.161   1.124
 3675HO4     MW14700   4.064   6.177   1.029
 3676HO4     OW14701   9.719   6.601   5.947
 3676HO4    HW114702   9.763   6.678   5.909
 3676HO4    HW214703   9.738   6.529   5.886
 3676HO4     MW14704   9.719   6.601   5.947
 3677HO4     OW14705   0.131   6.804   9.877
 3677HO4    HW114706   0.152   6.810   9.784
 3677HO4    HW214707   0.108   6.712   9.891
 3677HO4     MW14708   0.131   6.804   9.877
 3678HO4     OW14709   7.491   6.574   8.971
 3678HO4    HW114710   7.467   6.631   9.045
 3678HO4    HW214711   7.498   6.634   8.896
 3678HO4     MW14712   7.491   6.574   8.971
 3679HO4     OW14713   4.715   1.866   8.682
 3679HO4    HW114714   4.722   1.799   8.750
 3679HO4    HW214715   4.701   1.816   8.601
 3679HO4     MW14716   4.715   1.866   8.682
 3680HO4     OW14717   4.320   3.383   6.552
 3680HO4    HW114718   4.261   3.380   6.477
 3680HO4    HW214719   4.262   3.387   6.628
 3680HO4     MW14720   4.320   3.383   6.552
 3681HO4     OW14721   6.910   8.454  10.066
 3681HO4    HW114722   6.922   8.513   9.991
 3681HO4    HW214723   6.988   8.468  10.120
 3681HO4     MW14724   6.910   8.454  10.066
 3682HO4     OW14725   3.905   4.527   7.288
 3682HO4    HW114726   3.879   4.463   7.220
 3682HO4    HW214727   3.964   4.477   7.346
 3682HO4     MW14728   3.905   4.527   7.288
 3683HO4     OW14729   1.190   2.828   4.613
 3683HO4    HW114730   1.188   2.883   4.534
 3683HO4    HW214731   1.126   2.869   4.672
 3683HO4     MW14732   1.190   2.828   4.613
 3684HO4     OW14733   4.384   9.575   0.020
 3684HO4    HW114734   4.477   9.578  -0.007
 3684HO4    HW214735   4.358   9.667   0.029
 3684HO4     MW14736   4.384   9.575   0.020
 3685HO4     OW14737   4.970   0.727   5.530
 3685HO4    HW114738   4.896   0.716   5.591
 3685HO4    HW214739   5.011   0.640   5.527
 3685HO4     MW14740   4.970   0.727   5.530
 3686HO4     OW14741   7.786   5.957   9.252
 3686HO4    HW114742   7.837   5.976   9.331
 3686HO4    HW214743   7.852   5.945   9.183
 3686HO4     MW14744   7.786   5.957   9.252
 3687HO4     OW14745   3.590   7.269   9.499
 3687HO4    HW114746   3.627   7.220   9.424
 3687HO4    HW214747   3.608   7.212   9.575
 3687HO4     MW14748   3.590   7.269   9.499
 3688HO4     OW14749   9.546   3.577   5.316
 3688HO4    HW114750   9.491   3.626   5.378
 3688HO4    HW214751   9.636   3.601   5.340
 3688HO4     MW14752   9.546   3.577   5.316
 3689HO4     OW14753   5.739   6.331   3.171
 3689HO4    HW114754   5.646   6.343   3.192
 3689HO4    HW214755   5.781   6.314   3.256
 3689HO4     MW14756   5.739   6.331   3.171
 3690HO4     OW14757   6.564   6.734   9.204
 3690HO4    HW114758   6.500   6.801   9.176
 3690HO4    HW214759   6.610   6.775   9.278
 3690HO4     MW14760   6.564   6.734   9.204
 3691HO4     OW14761   1.313   8.433   7.548
 3691HO4    HW114762   1.354   8.475   7.472
 3691HO4    HW214763   1.352   8.477   7.624
 3691HO4     MW14764   1.313   8.433   7.548
 3692HO4     OW14765   7.802   9.498   1.836
 3692HO4    HW114766   7.728   9.507   1.774
 3692HO4    HW214767   7.872   9.550   1.796
 3692HO4     MW14768   7.802   9.498   1.836
 3693HO4     OW14769   0.831   3.542   8.348
 3693HO4    HW114770   0.765   3.477   8.374
 3693HO4    HW214771   0.873   3.504   8.271
 3693HO4     MW14772   0.831   3.542   8.348
 3694HO4     OW14773   7.129   5.999   8.229
 3694HO4    HW114774   7.221   6.025   8.237
 3694HO4    HW214775   7.100   5.984   8.320
 3694HO4     MW14776   7.129   5.999   8.229
 3695HO4     OW14777   8.137   7.849   7.825
 3695HO4    HW114778   8.082   7.913   7.872
 3695HO4    HW214779   8.210   7.831   7.886
 3695HO4     MW14780   8.137   7.849   7.825
 3696HO4     OW14781   0.673   1.005   0.650
 3696HO4    HW114782   0.579   0.990   0.638
 3696HO4    HW214783   0.697   1.063   0.577
 3696HO4     MW14784   0.673   1.005   0.650
 3697HO4     OW14785   3.921   5.291   1.842
 3697HO4    HW114786   3.952   5.227   1.778
 3697HO4    HW214787   3.838   5.254   1.874
 3697HO4     MW14788   3.921   5.291   1.842
 3698HO4     OW14789   2.476   0.622   6.352
 3698HO4    HW114790   2.410   0.637   6.283
 3698HO4    HW214791   2.447   0.677   6.426
 3698HO4     MW14792   2.476   0.622   6.352
 3699HO4     OW14793   3.867   0.406   4.034
 3699HO4    HW114794   3.892   0.431   4.124
 3699HO4    HW214795   3.858   0.489   3.987
 3699HO4     MW14796   3.867   0.406   4.034
 3700HO4     OW14797   2.100   5.495   7.249
 3700HO4    HW114798   2.143   5.499   7.335
 3700HO4    HW214799   2.021   5.441   7.264
 3700HO4     MW14800   2.100   5.495   7.249
 3701HO4     OW14801   6.341   1.155   4.524
 3701HO4    HW114802   6.376   1.123   4.440
 3701HO4    HW214803   6.406   1.219   4.553
 3701HO4     MW14804   6.341   1.155   4.524
 3702HO4     OW14805   2.827   8.955   7.189
 3702HO4    HW114806   2.889   8.951   7.262
 3702HO4    HW214807   2.883   8.964   7.111
 3702HO4     MW14808   2.827   8.955   7.189
 3703HO4     OW14809   8.975   8.639   7.069
 3703HO4    HW114810   8.932   8.721   7.099
 3703HO4    HW214811   8.924   8.613   6.992
 3703HO4     MW14812   8.975   8.639   7.069
 3704HO4     OW14813   7.062   6.949   4.968
 3704HO4    HW114814   7.017   6.912   4.892
 3704HO4    HW214815   7.145   6.982   4.932
 3704HO4     MW14816   7.062   6.949   4.968
 3705HO4     OW14817   0.914   9.116   6.598
 3705HO4    HW114818   0.979   9.118   6.527
 3705HO4    HW214819   0.864   9.035   6.583
 3705HO4     MW14820   0.914   9.116   6.598
 3706HO4     OW14821   8.556   2.109   0.865
 3706HO4    HW114822   8.557   2.187   0.809
 3706HO4    HW214823   8.485   2.055   0.830
 3706HO4     MW14824   8.556   2.109   0.865
 3707HO4     OW14825   0.631   3.306   0.801
 3707HO4    HW114826   0.717   3.288   0.840
 3707HO4    HW214827   0.618   3.235   0.737
 3707HO4     MW14828   0.631   3.306   0.801
 3708HO4     OW14829   1.706   8.685   0.134
 3708HO4    HW114830   1.751   8.656   0.054
 3708HO4    HW214831   1.776   8.687   0.201
 3708HO4     MW14832   1.706   8.685   0.134
 3709HO4     OW14833   9.900   8.235   0.695
 3709HO4    HW114834   9.892   8.306   0.631
 3709HO4    HW214835   9.817   8.238   0.744
 3709HO4     MW14836   9.900   8.235   0.695
 3710HO4     OW14837   2.125   2.070   2.147
 3710HO4    HW114838   2.077   1.994   2.181
 3710HO4    HW214839   2.215   2.038   2.134
 3710HO4     MW14840   2.125   2.070   2.147
 3711HO4     OW14841   6.197   9.074   3.301
 3711HO4    HW114842   6.145   9.107   3.227
 3711HO4    HW214843   6.240   9.153   3.337
 3711HO4     MW14844   6.197   9.074   3.301
 3712HO4     OW14845   5.425   6.466   6.920
 3712HO4    HW114846   5.516   6.437   6.935
 3712HO4    HW214847   5.384   6.462   7.006
 3712HO4     MW14848   5.425   6.466   6.920
 3713HO4     OW14849   8.222   3.225   4.778
 3713HO4    HW114850   8.159   3.161   4.814
 3713HO4    HW214851   8.178   3.259   4.699
 3713HO4     MW14852   8.222   3.225   4.778
 3714HO4     OW14853   0.684   1.696   7.350
 3714HO4    HW114854   0.769   1.669   7.314
 3714HO4    HW214855   0.706   1.742   7.431
 3714HO4     MW14856   0.684   1.696   7.350
 3715HO4     OW14857   8.763   6.834   7.495
 3715HO4    HW114858   8.807   6.852   7.411
 3715HO4    HW214859   8.795   6.902   7.554
 3715HO4     MW14860   8.763   6.834   7.495
 3716HO4     OW14861   3.147   3.049  10.131
 3716HO4    HW114862   3.180   3.003  10.209
 3716HO4    HW214863   3.183   2.999  10.057
 3716HO4     MW14864   3.147   3.049  10.131
 3717HO4     OW14865   5.027   0.889   0.561
 3717HO4    HW114866   4.993   0.926   0.643
 3717HO4    HW214867   5.022   0.962   0.498
 3717HO4     MW14868   5.027   0.889   0.561
 3718HO4     OW14869   3.932   1.755   9.728
 3718HO4    HW114870   3.962   1.802   9.649
 3718HO4    HW214871   4.006   1.697   9.750
 3718HO4     MW14872   3.932   1.755   9.728
 3719HO4     OW14873   9.351   9.608   4.174
 3719HO4    HW114874   9.344   9.702   4.157
 3719HO4    HW214875   9.436   9.583   4.135
 3719HO4     MW14876   9.351   9.608   4.174
 3720HO4     OW14877  10.117   6.165   1.402
 3720HO4    HW114878  10.176   6.098   1.437
 3720HO4    HW214879  10.167   6.247   1.409
 3720HO4     MW14880  10.117   6.165   1.402
 3721HO4     OW14881   4.593   5.179   0.574
 3721HO4    HW114882   4.621   5.249   0.514
 3721HO4    HW214883   4.673   5.126   0.587
 3721HO4     MW14884   4.593   5.179   0.574
 3722HO4     OW14885   5.664   5.919   4.501
 3722HO4    HW114886   5.688   5.877   4.584
 3722HO4    HW214887   5.667   5.848   4.437
 3722HO4     MW14888   5.664   5.919   4.501
 3723HO4     OW14889   8.468   9.487   8.393
 3723HO4    HW114890   8.404   9.527   8.453
 3723HO4    HW214891   8.552   9.526   8.417
 3723HO4     MW14892   8.468   9.487   8.393
 3724HO4     OW14893   0.231   2.872   7.157
 3724HO4    HW114894   0.169   2.809   7.198
 3724HO4    HW214895   0.313   2.823   7.151
 3724HO4     MW14896   0.231   2.872   7.157
 3725HO4     OW14897   0.308   2.105   9.669
 3725HO4    HW114898   0.234   2.061   9.626
 3725HO4    HW214899   0.280   2.197   9.677
 3725HO4     MW14900   0.308   2.105   9.669
 3726HO4     OW14901   8.954   4.606   1.822
 3726HO4    HW114902   8.899   4.652   1.758
 3726HO4    HW214903   8.936   4.650   1.906
 3726HO4     MW14904   8.954   4.606   1.822
 3727HO4     OW14905   7.636   9.408   8.904
 3727HO4    HW114906   7.644   9.434   8.812
 3727HO4    HW214907   7.563   9.460   8.938
 3727HO4     MW14908   7.636   9.408   8.904
 3728HO4     OW14909   5.289   6.956   4.370
 3728HO4    HW114910   5.271   7.014   4.445
 3728HO4    HW214911   5.227   6.984   4.302
 3728HO4     MW14912   5.289   6.956   4.370
 3729HO4     OW14913   9.954   8.191   2.950
 3729HO4    HW114914   9.904   8.267   2.981
 3729HO4    HW214915   9.981   8.146   3.031
 3729HO4     MW14916   9.954   8.191   2.950
 3730HO4     OW14917   7.640  10.061   3.722
 3730HO4    HW114918   7.677  10.086   3.637
 3730HO4    HW214919   7.712  10.018   3.768
 3730HO4     MW14920   7.640  10.061   3.722
 3731HO4     OW14921   9.543   2.101   5.111
 3731HO4    HW114922   9.568   2.183   5.155
 3731HO4    HW214923   9.456   2.081   5.146
 3731HO4     MW14924   9.543   2.101   5.111
 3732HO4     OW14925   0.367   4.153   4.365
 3732HO4    HW114926   0.390   4.072   4.412
 3732HO4    HW214927   0.368   4.128   4.272
 3732HO4     MW14928   0.367   4.153   4.365
 3733HO4     OW14929   9.150   1.994   4.495
 3733HO4    HW114930   9.174   1.935   4.567
 3733HO4    HW214931   9.171   1.944   4.415
 3733HO4     MW14932   9.150   1.994   4.495
 3734HO4     OW14933   6.405   8.908   7.517
 3734HO4    HW114934   6.371   8.820   7.538
 3734HO4    HW214935   6.483   8.891   7.463
 3734HO4     MW14936   6.405   8.908   7.517
 3735HO4     OW14937   9.166   2.337   8.691
 3735HO4    HW114938   9.129   2.331   8.780
 3735HO4    HW214939   9.153   2.249   8.655
 3735HO4     MW14940   9.166   2.337   8.691
 3736HO4     OW14941   3.178   2.165   8.140
 3736HO4    HW114942   3.229   2.123   8.211
 3736HO4    HW214943   3.179   2.258   8.163
 3736HO4     MW14944   3.178   2.165   8.140
 3737HO4     OW14945   4.330   3.845   3.638
 3737HO4    HW114946   4.407   3.790   3.618
 3737HO4    HW214947   4.367   3.932   3.657
 3737HO4     MW14948   4.330   3.845   3.638
 3738HO4     OW14949   8.931   7.210   9.508
 3738HO4    HW114950   8.974   7.166   9.582
 3738HO4    HW214951   8.971   7.171   9.430
 3738HO4     MW14952   8.931   7.210   9.508
 3739HO4     OW14953   1.113   1.672   2.113
 3739HO4    HW114954   1.086   1.762   2.129
 3739HO4    HW214955   1.156   1.644   2.195
 3739HO4     MW14956   1.113   1.672   2.113
 3740HO4     OW14957   7.031   9.106   0.125
 3740HO4    HW114958   6.953   9.099   0.069
 3740HO4    HW214959   7.029   9.027   0.179
 3740HO4     MW14960   7.031   9.106   0.125
 3741HO4     OW14961   9.060   2.720   4.146
 3741HO4    HW114962   9.019   2.679   4.223
 3741HO4    HW214963   9.082   2.809   4.175
 3741HO4     MW14964   9.060   2.720   4.146
 3742HO4     OW14965   5.797   8.800   5.315
 3742HO4    HW114966   5.852   8.787   5.393
 3742HO4    HW214967   5.709   8.773   5.343
 3742HO4     MW14968   5.797   8.800   5.315
 3743HO4     OW14969   6.283   5.090   5.521
 3743HO4    HW114970   6.225   5.013   5.525
 3743HO4    HW214971   6.338   5.074   5.444
 3743HO4     MW14972   6.283   5.090   5.521
 3744HO4     OW14973   0.722   6.774   5.898
 3744HO4    HW114974   0.717   6.682   5.926
 3744HO4    HW214975   0.816   6.794   5.901
 3744HO4     MW14976   0.722   6.774   5.898
 3745HO4     OW14977   4.420   2.623   4.466
 3745HO4    HW114978   4.439   2.533   4.438
 3745HO4    HW214979   4.326   2.622   4.486
 3745HO4     MW14980   4.420   2.623   4.466
 3746HO4     OW14981   3.361   0.954   9.382
 3746HO4    HW114982   3.340   0.890   9.314
 3746HO4    HW214983   3.414   0.904   9.446
 3746HO4     MW14984   3.361   0.954   9.382
 3747HO4     OW14985   9.378   9.432   4.508
 3747HO4    HW114986   9.444   9.378   4.553
 3747HO4    HW214987   9.382   9.517   4.553
 3747HO4     MW14988   9.378   9.432   4.508
 3748HO4     OW14989   4.420   2.888   8.547
 3748HO4    HW114990   4.504   2.857   8.512
 3748HO4    HW214991   4.432   2.982   8.560
 3748HO4     MW14992   4.420   2.888   8.547
 3749HO4     OW14993   7.798   7.099   5.309
 3749HO4    HW114994   7.830   7.128   5.395
 3749HO4    HW214995   7.705   7.079   5.324
 3749HO4     MW14996   7.798   7.099   5.309
 3750HO4     OW14997   6.876   1.448  10.042
 3750HO4    HW114998   6.971   1.444  10.030
 3750HO4    HW214999   6.843   1.488   9.961
 3750HO4     MW15000   6.876   1.448  10.042
 3751HO4     OW15001   9.069   2.365   4.700
 3751HO4    HW115002   9.054   2.425   4.626
 3751HO4    HW215003   9.158   2.387   4.729
 3751HO4     MW15004   9.069   2.365   4.700
 3752HO4     OW15005   4.509   4.317   4.651
 3752HO4    HW115006   4.603   4.315   4.672
 3752HO4    HW215007   4.506   4.337   4.557
 3752HO4     MW15008   4.509   4.317   4.651
 3753HO4     OW15009   9.222   4.990   4.364
 3753HO4    HW115010   9.201   4.992   4.458
 3753HO4    HW215011   9.279   5.067   4.351
 3753HO4     MW15012   9.222   4.990   4.364
 3754HO4     OW15013  10.104   6.183   4.401
 3754HO4    HW115014  10.187   6.199   4.446
 3754HO4    HW215015  10.112   6.231   4.318
 3754HO4     MW15016  10.104   6.183   4.401
 3755HO4     OW15017   1.454   7.626   3.264
 3755HO4    HW115018   1.546   7.632   3.236
 3755HO4    HW215019   1.459   7.625   3.360
 3755HO4     MW15020   1.454   7.626   3.264
 3756HO4     OW15021   5.230   8.088   2.694
 3756HO4    HW115022   5.278   8.009   2.668
 3756HO4    HW215023   5.139   8.069   2.671
 3756HO4     MW15024   5.230   8.088   2.694
 3757HO4     OW15025   0.604   4.344   5.147
 3757HO4    HW115026   0.580   4.429   5.186
 3757HO4    HW215027   0.562   4.279   5.204
 3757HO4     MW15028   0.604   4.344   5.147
 3758HO4     OW15029   5.788   9.859   2.231
 3758HO4    HW115030   5.823   9.907   2.307
 3758HO4    HW215031   5.790   9.924   2.160
 3758HO4     MW15032   5.788   9.859   2.231
 3759HO4     OW15033   5.298   9.954   4.364
 3759HO4    HW115034   5.353   9.940   4.286
 3759HO4    HW215035   5.326   9.886   4.426
 3759HO4     MW15036   5.298   9.954   4.364
 3760HO4     OW15037   2.369   6.091   3.729
 3760HO4    HW115038   2.456   6.088   3.769
 3760HO4    HW215039   2.379   6.150   3.653
 3760HO4     MW15040   2.369   6.091   3.729
 3761HO4     OW15041   6.372   7.961   0.144
 3761HO4    HW115042   6.323   7.892   0.189
 3761HO4    HW215043   6.450   7.974   0.199
 3761HO4     MW15044   6.372   7.961   0.144
 3762HO4     OW15045   3.204   1.795   6.614
 3762HO4    HW115046   3.251   1.712   6.600
 3762HO4    HW215047   3.210   1.841   6.529
 3762HO4     MW15048   3.204   1.795   6.614
 3763HO4     OW15049   6.510   2.621   1.620
 3763HO4    HW115050   6.444   2.569   1.666
 3763HO4    HW215051   6.541   2.684   1.685
 3763HO4     MW15052   6.510   2.621   1.620
 3764HO4     OW15053   4.178   9.879   9.662
 3764HO4    HW115054   4.105   9.821   9.685
 3764HO4    HW215055   4.248   9.856   9.724
 3764HO4     MW15056   4.178   9.879   9.662
 3765HO4     OW15057   6.122   3.143   0.084
 3765HO4    HW115058   6.124   3.196   0.004
 3765HO4    HW215059   6.125   3.208   0.155
 3765HO4     MW15060   6.122   3.143   0.084
 3766HO4     OW15061   3.617   1.487   5.317
 3766HO4    HW115062   3.674   1.480   5.394
 3766HO4    HW215063   3.528   1.473   5.352
 3766HO4     MW15064   3.617   1.487   5.317
 3767HO4     OW15065   4.130   5.050   9.025
 3767HO4    HW115066   4.183   5.024   8.949
 3767HO4    HW215067   4.175   5.011   9.100
 3767HO4     MW15068   4.130   5.050   9.025
 3768HO4     OW15069   3.711   0.772   4.663
 3768HO4    HW115070   3.627   0.738   4.695
 3768HO4    HW215071   3.695   0.793   4.571
 3768HO4     MW15072   3.711   0.772   4.663
 3769HO4     OW15073   8.517   1.023   5.176
 3769HO4    HW115074   8.529   1.021   5.080
 3769HO4    HW215075   8.504   0.931   5.200
 3769HO4     MW15076   8.517   1.023   5.176
 3770HO4     OW15077   9.025   4.121   2.631
 3770HO4    HW115078   8.942   4.074   2.618
 3770HO4    HW215079   9.093   4.053   2.619
 3770HO4     MW15080   9.025   4.121   2.631
 3771HO4     OW15081   3.785   7.542   8.976
 3771HO4    HW115082   3.739   7.537   8.892
 3771HO4    HW215083   3.863   7.488   8.964
 3771HO4     MW15084   3.785   7.542   8.976
 3772HO4     OW15085   8.941   9.647   5.124
 3772HO4    HW115086   8.943   9.719   5.061
 3772HO4    HW215087   8.932   9.568   5.070
 3772HO4     MW15088   8.941   9.647   5.124
 3773HO4     OW15089   9.362   4.807   5.040
 3773HO4    HW115090   9.286   4.837   4.989
 3773HO4    HW215091   9.421   4.883   5.042
 3773HO4     MW15092   9.362   4.807   5.040
 3774HO4     OW15093   2.407   0.795   2.586
 3774HO4    HW115094   2.428   0.845   2.507
 3774HO4    HW215095   2.437   0.851   2.659
 3774HO4     MW15096   2.407   0.795   2.586
 3775HO4     OW15097   0.431   5.506   1.536
 3775HO4    HW115098   0.410   5.495   1.629
 3775HO4    HW215099   0.371   5.446   1.491
 3775HO4     MW15100   0.431   5.506   1.536
 3776HO4     OW15101   7.123   4.520   5.426
 3776HO4    HW115102   7.217   4.513   5.411
 3776HO4    HW215103   7.114   4.594   5.487
 3776HO4     MW15104   7.123   4.520   5.426
 3777HO4     OW15105   3.848   7.814   8.161
 3777HO4    HW115106   3.807   7.783   8.079
 3777HO4    HW215107   3.932   7.851   8.133
 3777HO4     MW15108   3.848   7.814   8.161
 3778HO4     OW15109   4.480   0.073   6.001
 3778HO4    HW115110   4.449   0.123   5.925
 3778HO4    HW215111   4.537   0.135   6.048
 3778HO4     MW15112   4.480   0.073   6.001
 3779HO4     OW15113   7.102   5.425   0.132
 3779HO4    HW115114   7.101   5.482   0.055
 3779HO4    HW215115   7.110   5.336   0.096
 3779HO4     MW15116   7.102   5.425   0.132
 3780HO4     OW15117   1.177   3.604   0.649
 3780HO4    HW115118   1.217   3.546   0.584
 3780HO4    HW215119   1.135   3.544   0.712
 3780HO4     MW15120   1.177   3.604   0.649
 3781HO4     OW15121   7.175   8.835   1.186
 3781HO4    HW115122   7.168   8.920   1.142
 3781HO4    HW215123   7.092   8.827   1.235
 3781HO4     MW15124   7.175   8.835   1.186
 3782HO4     OW15125   6.756   5.650   4.971
 3782HO4    HW115126   6.789   5.574   5.020
 3782HO4    HW215127   6.740   5.616   4.882
 3782HO4     MW15128   6.756   5.650   4.971
 3783HO4     OW15129   5.478   2.199   3.390
 3783HO4    HW115130   5.486   2.240   3.304
 3783HO4    HW215131   5.400   2.143   3.383
 3783HO4     MW15132   5.478   2.199   3.390
 3784HO4     OW15133   9.468   0.314   2.550
 3784HO4    HW115134   9.434   0.354   2.631
 3784HO4    HW215135   9.409   0.344   2.481
 3784HO4     MW15136   9.468   0.314   2.550
 3785HO4     OW15137   1.872   3.242   4.690
 3785HO4    HW115138   1.874   3.179   4.762
 3785HO4    HW215139   1.783   3.237   4.656
 3785HO4     MW15140   1.872   3.242   4.690
 3786HO4     OW15141   6.934   0.691   9.033
 3786HO4    HW115142   6.988   0.657   9.105
 3786HO4    HW215143   6.988   0.677   8.954
 3786HO4     MW15144   6.934   0.691   9.033
 3787HO4     OW15145   1.881   7.408   9.640
 3787HO4    HW115146   1.931   7.376   9.564
 3787HO4    HW215147   1.930   7.376   9.716
 3787HO4     MW15148   1.881   7.408   9.640
 3788HO4     OW15149   6.192   5.197   0.174
 3788HO4    HW115150   6.243   5.218   0.253
 3788HO4    HW215151   6.242   5.235   0.102
 3788HO4     MW15152   6.192   5.197   0.174
 3789HO4     OW15153   8.028   5.306   5.536
 3789HO4    HW115154   8.124   5.296   5.529
 3789HO4    HW215155   8.015   5.398   5.561
 3789HO4     MW15156   8.028   5.306   5.536
 3790HO4     OW15157   1.428   7.028   7.975
 3790HO4    HW115158   1.438   6.962   7.906
 3790HO4    HW215159   1.433   6.978   8.057
 3790HO4     MW15160   1.428   7.028   7.975
 3791HO4     OW15161   2.654   0.032   4.950
 3791HO4    HW115162   2.641   0.099   4.883
 3791HO4    HW215163   2.664   0.082   5.032
 3791HO4     MW15164   2.654   0.032   4.950
 3792HO4     OW15165   3.987   8.217   1.845
 3792HO4    HW115166   3.915   8.186   1.790
 3792HO4    HW215167   4.058   8.238   1.784
 3792HO4     MW15168   3.987   8.217   1.845
 3793HO4     OW15169   8.254   3.795   0.087
 3793HO4    HW115170   8.158   3.804   0.090
 3793HO4    HW215171   8.287   3.885   0.088
 3793HO4     MW15172   8.254   3.795   0.087
 3794HO4     OW15173   7.119   6.648   0.493
 3794HO4    HW115174   7.096   6.627   0.402
 3794HO4    HW215175   7.169   6.571   0.523
 3794HO4     MW15176   7.119   6.648   0.493
 3795HO4     OW15177   0.953   9.966   4.656
 3795HO4    HW115178   0.944   9.986   4.562
 3795HO4    HW215179   0.883   9.902   4.673
 3795HO4     MW15180   0.953   9.966   4.656
 3796HO4     OW15181   4.905   8.468   5.917
 3796HO4    HW115182   4.912   8.412   5.839
 3796HO4    HW215183   4.911   8.407   5.991
 3796HO4     MW15184   4.905   8.468   5.917
 3797HO4     OW15185   3.910   1.492   2.017
 3797HO4    HW115186   3.889   1.555   1.948
 3797HO4    HW215187   3.895   1.540   2.099
 3797HO4     MW15188   3.910   1.492   2.017
 3798HO4     OW15189   4.825   2.891   9.455
 3798HO4    HW115190   4.852   2.948   9.528
 3798HO4    HW215191   4.836   2.946   9.376
 3798HO4     MW15192   4.825   2.891   9.455
 3799HO4     OW15193   7.986   7.901   0.074
 3799HO4    HW115194   7.894   7.873   0.067
 3799HO4    HW215195   7.983   7.997   0.075
 3799HO4     MW15196   7.986   7.901   0.074
 3800HO4     OW15197   7.775   0.862   1.727
 3800HO4    HW115198   7.805   0.791   1.786
 3800HO4    HW215199   7.853   0.884   1.676
 3800HO4     MW15200   7.775   0.862   1.727
 3801HO4     OW15201   2.007   4.619   9.014
 3801HO4    HW115202   2.023   4.712   9.034
 3801HO4    HW215203   2.041   4.607   8.925
 3801HO4     MW15204   2.007   4.619   9.014
 3802HO4     OW15205   9.166   1.230   7.640
 3802HO4    HW115206   9.114   1.158   7.678
 3802HO4    HW215207   9.137   1.234   7.548
 3802HO4     MW15208   9.166   1.230   7.640
 3803HO4     OW15209   7.931   2.309   4.301
 3803HO4    HW115210   8.019   2.288   4.334
 3803HO4    HW215211   7.932   2.277   4.210
 3803HO4     MW15212   7.931   2.309   4.301
 3804HO4     OW15213   8.143   6.941   6.517
 3804HO4    HW115214   8.122   6.913   6.427
 3804HO4    HW215215   8.088   7.019   6.531
 3804HO4     MW15216   8.143   6.941   6.517
 3805HO4     OW15217   6.341   2.086   4.580
 3805HO4    HW115218   6.302   2.006   4.616
 3805HO4    HW215219   6.295   2.157   4.624
 3805HO4     MW15220   6.341   2.086   4.580
 3806HO4     OW15221   3.916   6.512   3.866
 3806HO4    HW115222   3.995   6.549   3.825
 3806HO4    HW215223   3.922   6.540   3.958
 3806HO4     MW15224   3.916   6.512   3.866
 3807HO4     OW15225   1.053   1.784   0.823
 3807HO4    HW115226   0.999   1.705   0.809
 3807HO4    HW215227   1.121   1.755   0.885
 3807HO4     MW15228   1.053   1.784   0.823
 3808HO4     OW15229   1.134   4.938   4.381
 3808HO4    HW115230   1.099   4.869   4.439
 3808HO4    HW215231   1.171   4.890   4.307
 3808HO4     MW15232   1.134   4.938   4.381
 3809HO4     OW15233   0.414   5.933   5.765
 3809HO4    HW115234   0.409   6.002   5.699
 3809HO4    HW215235   0.504   5.899   5.758
 3809HO4     MW15236   0.414   5.933   5.765
 3810HO4     OW15237   4.900   2.355   7.206
 3810HO4    HW115238   4.928   2.322   7.120
 3810HO4    HW215239   4.956   2.308   7.269
 3810HO4     MW15240   4.900   2.355   7.206
 3811HO4     OW15241   2.333   2.491   5.618
 3811HO4    HW115242   2.389   2.569   5.618
 3811HO4    HW215243   2.393   2.418   5.635
 3811HO4     MW15244   2.333   2.491   5.618
 3812HO4     OW15245   4.193   5.319   9.463
 3812HO4    HW115246   4.177   5.341   9.555
 3812HO4    HW215247   4.107   5.327   9.421
 3812HO4     MW15248   4.193   5.319   9.463
 3813HO4     OW15249   1.389   6.435   9.073
 3813HO4    HW115250   1.473   6.483   9.077
 3813HO4    HW215251   1.388   6.396   8.985
 3813HO4     MW15252   1.389   6.435   9.073
 3814HO4     OW15253   5.240   0.503   3.204
 3814HO4    HW115254   5.305   0.553   3.153
 3814HO4    HW215255   5.247   0.538   3.293
 3814HO4     MW15256   5.240   0.503   3.204
 3815HO4     OW15257   1.028   6.499   3.715
 3815HO4    HW115258   1.011   6.442   3.791
 3815HO4    HW215259   1.011   6.442   3.639
 3815HO4     MW15260   1.028   6.499   3.715
 3816HO4     OW15261   7.878   9.695   8.081
 3816HO4    HW115262   7.797   9.741   8.104
 3816HO4    HW215263   7.928   9.759   8.029
 3816HO4     MW15264   7.878   9.695   8.081
 3817HO4     OW15265   5.971   9.763   8.528
 3817HO4    HW115266   6.023   9.745   8.607
 3817HO4    HW215267   6.021   9.829   8.480
 3817HO4     MW15268   5.971   9.763   8.528
 3818HO4     OW15269   1.030   2.351   5.058
 3818HO4    HW115270   1.088   2.426   5.073
 3818HO4    HW215271   1.053   2.288   5.127
 3818HO4     MW15272   1.030   2.351   5.058
 3819HO4     OW15273   7.224   3.146   2.409
 3819HO4    HW115274   7.206   3.074   2.348
 3819HO4    HW215275   7.143   3.199   2.407
 3819HO4     MW15276   7.224   3.146   2.409
 3820HO4     OW15277   9.878   9.470   3.321
 3820HO4    HW115278   9.896   9.562   3.343
 3820HO4    HW215279   9.943   9.448   3.254
 3820HO4     MW15280   9.878   9.470   3.321
 3821HO4     OW15281   3.155   0.521   2.728
 3821HO4    HW115282   3.061   0.502   2.726
 3821HO4    HW215283   3.190   0.480   2.649
 3821HO4     MW15284   3.155   0.521   2.728
 3822HO4     OW15285   5.922   0.226   0.610
 3822HO4    HW115286   5.910   0.191   0.699
 3822HO4    HW215287   5.833   0.228   0.573
 3822HO4     MW15288   5.922   0.226   0.610
 3823HO4     OW15289   2.721   0.443   4.349
 3823HO4    HW115290   2.672   0.414   4.271
 3823HO4    HW215291   2.659   0.431   4.422
 3823HO4     MW15292   2.721   0.443   4.349
 3824HO4     OW15293   5.105   1.611   0.830
 3824HO4    HW115294   5.124   1.606   0.736
 3824HO4    HW215295   5.115   1.705   0.851
 3824HO4     MW15296   5.105   1.611   0.830
 3825HO4     OW15297   7.241   3.634   5.860
 3825HO4    HW115298   7.284   3.633   5.946
 3825HO4    HW215299   7.173   3.702   5.868
 3825HO4     MW15300   7.241   3.634   5.860
 3826HO4     OW15301   2.589   8.835   2.488
 3826HO4    HW115302   2.618   8.872   2.404
 3826HO4    HW215303   2.598   8.907   2.551
 3826HO4     MW15304   2.589   8.835   2.488
 3827HO4     OW15305   3.118   7.814   6.987
 3827HO4    HW115306   3.174   7.832   6.911
 3827HO4    HW215307   3.174   7.832   7.063
 3827HO4     MW15308   3.118   7.814   6.987
 3828HO4     OW15309   0.830   6.272   8.146
 3828HO4    HW115310   0.909   6.222   8.168
 3828HO4    HW215311   0.757   6.210   8.162
 3828HO4     MW15312   0.830   6.272   8.146
 3829HO4     OW15313   3.465   6.386   3.888
 3829HO4    HW115314   3.532   6.399   3.819
 3829HO4    HW215315   3.516   6.369   3.968
 3829HO4     MW15316   3.465   6.386   3.888
 3830HO4     OW15317   8.381   3.763   4.815
 3830HO4    HW115318   8.344   3.711   4.743
 3830HO4    HW215319   8.356   3.716   4.895
 3830HO4     MW15320   8.381   3.763   4.815
 3831HO4     OW15321   7.817   9.865   2.892
 3831HO4    HW115322   7.797   9.881   2.985
 3831HO4    HW215323   7.732   9.840   2.853
 3831HO4     MW15324   7.817   9.865   2.892
 3832HO4     OW15325   9.099   0.397   1.050
 3832HO4    HW115326   9.042   0.402   1.127
 3832HO4    HW215327   9.041   0.416   0.976
 3832HO4     MW15328   9.099   0.397   1.050
 3833HO4     OW15329   1.830   4.870   3.673
 3833HO4    HW115330   1.746   4.886   3.627
 3833HO4    HW215331   1.835   4.774   3.681
 3833HO4     MW15332   1.830   4.870   3.673
 3834HO4     OW15333   6.423   6.861   0.350
 3834HO4    HW115334   6.432   6.941   0.297
 3834HO4    HW215335   6.398   6.893   0.437
 3834HO4     MW15336   6.423   6.861   0.350
 3835HO4     OW15337   8.572   6.715   8.840
 3835HO4    HW115338   8.556   6.777   8.911
 3835HO4    HW215339   8.667   6.723   8.822
 3835HO4     MW15340   8.572   6.715   8.840
 3836HO4     OW15341   5.577   1.015   5.595
 3836HO4    HW115342   5.498   1.034   5.647
 3836HO4    HW215343   5.549   1.024   5.504
 3836HO4     MW15344   5.577   1.015   5.595
 3837HO4     OW15345   2.928   2.976   8.006
 3837HO4    HW115346   2.995   3.023   8.058
 3837HO4    HW215347   2.952   2.883   8.013
 3837HO4     MW15348   2.928   2.976   8.006
 3838HO4     OW15349   9.411   6.282   1.329
 3838HO4    HW115350   9.433   6.263   1.420
 3838HO4    HW215351   9.316   6.301   1.331
 3838HO4     MW15352   9.411   6.282   1.329
 3839HO4     OW15353   5.811   9.481   9.616
 3839HO4    HW115354   5.766   9.521   9.541
 3839HO4    HW215355   5.763   9.513   9.693
 3839HO4     MW15356   5.811   9.481   9.616
 3840HO4     OW15357   2.048   9.531   6.757
 3840HO4    HW115358   2.031   9.475   6.680
 3840HO4    HW215359   2.030   9.474   6.832
 3840HO4     MW15360   2.048   9.531   6.757
 3841HO4     OW15361   2.841   6.658   2.722
 3841HO4    HW115362   2.841   6.747   2.686
 3841HO4    HW215363   2.899   6.609   2.663
 3841HO4     MW15364   2.841   6.658   2.722
 3842HO4     OW15365   5.193   0.981   6.720
 3842HO4    HW115366   5.221   0.933   6.641
 3842HO4    HW215367   5.179   0.913   6.786
 3842HO4     MW15368   5.193   0.981   6.720
 3843HO4     OW15369   6.764   4.934   3.953
 3843HO4    HW115370   6.672   4.923   3.925
 3843HO4    HW215371   6.759   4.996   4.026
 3843HO4     MW15372   6.764   4.934   3.953
 3844HO4     OW15373   0.134   8.596   5.139
 3844HO4    HW115374   0.189   8.595   5.060
 3844HO4    HW215375   0.193   8.625   5.209
 3844HO4     MW15376   0.134   8.596   5.139
 3845HO4     OW15377   8.301   7.092   9.232
 3845HO4    HW115378   8.351   7.026   9.183
 3845HO4    HW215379   8.344   7.175   9.210
 3845HO4     MW15380   8.301   7.092   9.232
 3846HO4     OW15381   1.712   9.709   4.446
 3846HO4    HW115382   1.619   9.715   4.422
 3846HO4    HW215383   1.752   9.788   4.408
 3846HO4     MW15384   1.712   9.709   4.446
 3847HO4     OW15385   4.781   3.916   8.556
 3847HO4    HW115386   4.780   4.009   8.579
 3847HO4    HW215387   4.869   3.886   8.579
 3847HO4     MW15388   4.781   3.916   8.556
 3848HO4     OW15389   6.373   0.764   8.709
 3848HO4    HW115390   6.383   0.706   8.633
 3848HO4    HW215391   6.305   0.723   8.762
 3848HO4     MW15392   6.373   0.764   8.709
 3849HO4     OW15393   1.335   6.106   7.254
 3849HO4    HW115394   1.310   6.198   7.269
 3849HO4    HW215395   1.415   6.111   7.201
 3849HO4     MW15396   1.335   6.106   7.254
 3850HO4     OW15397   7.010   4.822   3.181
 3850HO4    HW115398   7.100   4.832   3.148
 3850HO4    HW215399   6.963   4.778   3.109
 3850HO4     MW15400   7.010   4.822   3.181
 3851HO4     OW15401   0.759   1.314   9.193
 3851HO4    HW115402   0.699   1.249   9.155
 3851HO4    HW215403   0.780   1.279   9.280
 3851HO4     MW15404   0.759   1.314   9.193
 3852HO4     OW15405   1.611   8.458   8.259
 3852HO4    HW115406   1.695   8.439   8.303
 3852HO4    HW215407   1.603   8.554   8.266
 3852HO4     MW15408   1.611   8.458   8.259
 3853HO4     OW15409   7.847   7.725   6.722
 3853HO4    HW115410   7.897   7.644   6.703
 3853HO4    HW215411   7.913   7.785   6.759
 3853HO4     MW15412   7.847   7.725   6.722
 3854HO4     OW15413   1.169   7.877   3.788
 3854HO4    HW115414   1.159   7.955   3.733
 3854HO4    HW215415   1.093   7.880   3.848
 3854HO4     MW15416   1.169   7.877   3.788
 3855HO4     OW15417   5.424   3.962   8.792
 3855HO4    HW115418   5.365   4.038   8.781
 3855HO4    HW215419   5.367   3.894   8.830
 3855HO4     MW15420   5.424   3.962   8.792
 3856HO4     OW15421   8.967   1.145   6.544
 3856HO4    HW115422   8.913   1.085   6.491
 3856HO4    HW215423   8.911   1.223   6.555
 3856HO4     MW15424   8.967   1.145   6.544
 3857HO4     OW15425   8.334   6.528   5.094
 3857HO4    HW115426   8.260   6.496   5.042
 3857HO4    HW215427   8.295   6.591   5.155
 3857HO4     MW15428   8.334   6.528   5.094
 3858HO4     OW15429   9.286   8.630   9.972
 3858HO4    HW115430   9.312   8.537   9.971
 3858HO4    HW215431   9.239   8.641  10.055
 3858HO4     MW15432   9.286   8.630   9.972
 3859HO4     OW15433   0.513   1.922   2.590
 3859HO4    HW115434   0.453   1.956   2.657
 3859HO4    HW215435   0.471   1.840   2.560
 3859HO4     MW15436   0.513   1.922   2.590
 3860HO4     OW15437   9.243   5.471   6.936
 3860HO4    HW115438   9.260   5.449   6.844
 3860HO4    HW215439   9.173   5.410   6.963
 3860HO4     MW15440   9.243   5.471   6.936
 3861HO4     OW15441   5.966   5.648   1.033
 3861HO4    HW115442   5.907   5.684   1.099
 3861HO4    HW215443   5.926   5.672   0.949
 3861HO4     MW15444   5.966   5.648   1.033
 3862HO4     OW15445   7.740   5.641   7.038
 3862HO4    HW115446   7.795   5.716   7.061
 3862HO4    HW215447   7.801   5.566   7.037
 3862HO4     MW15448   7.740   5.641   7.038
 3863HO4     OW15449   4.957   4.129   1.326
 3863HO4    HW115450   5.015   4.124   1.250
 3863HO4    HW215451   5.009   4.172   1.395
 3863HO4     MW15452   4.957   4.129   1.326
 3864HO4     OW15453   5.248   2.275   6.891
 3864HO4    HW115454   5.253   2.360   6.936
 3864HO4    HW215455   5.335   2.264   6.852
 3864HO4     MW15456   5.248   2.275   6.891
 3865HO4     OW15457   3.216   7.357   8.626
 3865HO4    HW115458   3.200   7.407   8.545
 3865HO4    HW215459   3.250   7.423   8.688
 3865HO4     MW15460   3.216   7.357   8.626
 3866HO4     OW15461   9.043   2.499   7.035
 3866HO4    HW115462   9.116   2.511   7.096
 3866HO4    HW215463   8.967   2.482   7.092
 3866HO4     MW15464   9.043   2.499   7.035
 3867HO4     OW15465   8.580   9.191   7.905
 3867HO4    HW115466   8.614   9.151   7.986
 3867HO4    HW215467   8.615   9.136   7.834
 3867HO4     MW15468   8.580   9.191   7.905
 3868HO4     OW15469   2.921   7.308   5.212
 3868HO4    HW115470   2.904   7.395   5.172
 3868HO4    HW215471   2.853   7.299   5.279
 3868HO4     MW15472   2.921   7.308   5.212
 3869HO4     OW15473   6.121   3.295   6.203
 3869HO4    HW115474   6.048   3.268   6.259
 3869HO4    HW215475   6.110   3.390   6.192
 3869HO4     MW15476   6.121   3.295   6.203
 3870HO4     OW15477   0.654   3.488   5.566
 3870HO4    HW115478   0.674   3.580   5.587
 3870HO4    HW215479   0.723   3.438   5.610
 3870HO4     MW15480   0.654   3.488   5.566
 3871HO4     OW15481   0.341   8.984   3.787
 3871HO4    HW115482   0.400   8.991   3.863
 3871HO4    HW215483   0.400   8.991   3.711
 3871HO4     MW15484   0.341   8.984   3.787
 3872HO4     OW15485   5.384   5.303   2.166
 3872HO4    HW115486   5.453   5.321   2.102
 3872HO4    HW215487   5.417   5.340   2.249
 3872HO4     MW15488   5.384   5.303   2.166
 3873HO4     OW15489   6.178   4.802   7.856
 3873HO4    HW115490   6.247   4.800   7.922
 3873HO4    HW215491   6.104   4.756   7.898
 3873HO4     MW15492   6.178   4.802   7.856
 3874HO4     OW15493   7.186   8.606   4.002
 3874HO4    HW115494   7.157   8.537   4.064
 3874HO4    HW215495   7.226   8.673   4.058
 3874HO4     MW15496   7.186   8.606   4.002
 3875HO4     OW15497   6.188   9.761   6.511
 3875HO4    HW115498   6.256   9.765   6.442
 3875HO4    HW215499   6.107   9.743   6.463
 3875HO4     MW15500   6.188   9.761   6.511
 3876HO4     OW15501   7.297   3.200   3.697
 3876HO4    HW115502   7.260   3.239   3.777
 3876HO4    HW215503   7.251   3.246   3.626
 3876HO4     MW15504   7.297   3.200   3.697
 3877HO4     OW15505   9.072   3.742   7.844
 3877HO4    HW115506   9.122   3.721   7.765
 3877HO4    HW215507   9.132   3.718   7.916
 3877HO4     MW15508   9.072   3.742   7.844
 3878HO4     OW15509   3.286   9.894   6.132
 3878HO4    HW115510   3.287   9.970   6.192
 3878HO4    HW215511   3.193   9.869   6.128
 3878HO4     MW15512   3.286   9.894   6.132
 3879HO4     OW15513   1.396   2.193   1.745
 3879HO4    HW115514   1.421   2.146   1.825
 3879HO4    HW215515   1.407   2.129   1.675
 3879HO4     MW15516   1.396   2.193   1.745
 3880HO4     OW15517   7.959   9.734   4.906
 3880HO4    HW115518   8.006   9.784   4.974
 3880HO4    HW215519   7.944   9.798   4.836
 3880HO4     MW15520   7.959   9.734   4.906
 3881HO4     OW15521   4.702   1.088   2.711
 3881HO4    HW115522   4.694   1.014   2.772
 3881HO4    HW215523   4.666   1.055   2.628
 3881HO4     MW15524   4.702   1.088   2.711
 3882HO4     OW15525   5.679   9.238   4.118
 3882HO4    HW115526   5.693   9.277   4.205
 3882HO4    HW215527   5.751   9.174   4.110
 3882HO4     MW15528   5.679   9.238   4.118
 3883HO4     OW15529   6.794   2.697   2.256
 3883HO4    HW115530   6.776   2.604   2.239
 3883HO4    HW215531   6.710   2.741   2.240
 3883HO4     MW15532   6.794   2.697   2.256
 3884HO4     OW15533   3.637   6.943   0.775
 3884HO4    HW115534   3.589   6.873   0.731
 3884HO4    HW215535   3.719   6.950   0.725
 3884HO4     MW15536   3.637   6.943   0.775
 3885HO4     OW15537   5.186   3.908   3.128
 3885HO4    HW115538   5.200   3.816   3.103
 3885HO4    HW215539   5.108   3.905   3.185
 3885HO4     MW15540   5.186   3.908   3.128
 3886HO4     OW15541   3.310   7.741   0.949
 3886HO4    HW115542   3.303   7.749   1.044
 3886HO4    HW215543   3.379   7.803   0.924
 3886HO4     MW15544   3.310   7.741   0.949
 3887HO4     OW15545   4.729   6.467   0.767
 3887HO4    HW115546   4.723   6.545   0.823
 3887HO4    HW215547   4.823   6.459   0.748
 3887HO4     MW15548   4.729   6.467   0.767
 3888HO4     OW15549   6.817   7.495   5.356
 3888HO4    HW115550   6.733   7.497   5.402
 3888HO4    HW215551   6.800   7.444   5.277
 3888HO4     MW15552   6.817   7.495   5.356
 3889HO4     OW15553   1.930  10.021   0.557
 3889HO4    HW115554   1.922  10.080   0.633
 3889HO4    HW215555   2.017  10.040   0.522
 3889HO4     MW15556   1.930  10.021   0.557
 3890HO4     OW15557   5.472   0.051   5.924
 3890HO4    HW115558   5.503   0.121   5.982
 3890HO4    HW215559   5.519   0.065   5.841
 3890HO4     MW15560   5.472   0.051   5.924
 3891HO4     OW15561   6.949   8.172   6.588
 3891HO4    HW115562   7.009   8.149   6.660
 3891HO4    HW215563   6.994   8.139   6.509
 3891HO4     MW15564   6.949   8.172   6.588
 3892HO4     OW15565   3.199   0.984   3.488
 3892HO4    HW115566   3.261   0.956   3.556
 3892HO4    HW215567   3.115   0.992   3.534
 3892HO4     MW15568   3.199   0.984   3.488
 3893HO4     OW15569   7.149   5.479   6.278
 3893HO4    HW115570   7.212   5.534   6.325
 3893HO4    HW215571   7.182   5.474   6.188
 3893HO4     MW15572   7.149   5.479   6.278
 3894HO4     OW15573   4.507   6.863   8.627
 3894HO4    HW115574   4.461   6.783   8.603
 3894HO4    HW215575   4.600   6.841   8.620
 3894HO4     MW15576   4.507   6.863   8.627
 3895HO4     OW15577   8.441   9.837   0.955
 3895HO4    HW115578   8.416   9.866   0.867
 3895HO4    HW215579   8.360   9.846   1.006
 3895HO4     MW15580   8.441   9.837   0.955
 3896HO4     OW15581   1.414   1.991   0.585
 3896HO4    HW115582   1.330   2.037   0.584
 3896HO4    HW215583   1.435   1.976   0.492
 3896HO4     MW15584   1.414   1.991   0.585
 3897HO4     OW15585   6.445   5.622   5.203
 3897HO4    HW115586   6.520   5.575   5.240
 3897HO4    HW215587   6.456   5.615   5.108
 3897HO4     MW15588   6.445   5.622   5.203
 3898HO4     OW15589   5.044   9.529   2.484
 3898HO4    HW115590   5.023   9.536   2.577
 3898HO4    HW215591   4.960   9.505   2.443
 3898HO4     MW15592   5.044   9.529   2.484
 3899HO4     OW15593   7.949   6.908   1.875
 3899HO4    HW115594   7.915   6.964   1.805
 3899HO4    HW215595   7.919   6.950   1.956
 3899HO4     MW15596   7.949   6.908   1.875
 3900HO4     OW15597   2.041   4.350   3.359
 3900HO4    HW115598   1.964   4.395   3.396
 3900HO4    HW215599   2.106   4.352   3.429
 3900HO4     MW15600   2.041   4.350   3.359
 3901HO4     OW15601   2.277   2.115   1.198
 3901HO4    HW115602   2.278   2.165   1.116
 3901HO4    HW215603   2.229   2.171   1.260
 3901HO4     MW15604   2.277   2.115   1.198
 3902HO4     OW15605   3.462  10.009   4.842
 3902HO4    HW115606   3.488  10.081   4.900
 3902HO4    HW215607   3.433   9.939   4.901
 3902HO4     MW15608   3.462  10.009   4.842
 3903HO4     OW15609   6.090   6.368   1.048
 3903HO4    HW115610   6.051   6.440   0.998
 3903HO4    HW215611   6.101   6.403   1.136
 3903HO4     MW15612   6.090   6.368   1.048
 3904HO4     OW15613   1.502   2.727   7.068
 3904HO4    HW115614   1.506   2.657   7.133
 3904HO4    HW215615   1.498   2.681   6.984
 3904HO4     MW15616   1.502   2.727   7.068
 3905HO4     OW15617   4.223  10.076   7.450
 3905HO4    HW115618   4.174  10.123   7.518
 3905HO4    HW215619   4.188  10.109   7.367
 3905HO4     MW15620   4.223  10.076   7.450
 3906HO4     OW15621   6.179   8.864   9.643
 3906HO4    HW115622   6.178   8.959   9.650
 3906HO4    HW215623   6.263   8.837   9.680
 3906HO4     MW15624   6.179   8.864   9.643
 3907HO4     OW15625   3.011   9.293   4.165
 3907HO4    HW115626   2.977   9.246   4.089
 3907HO4    HW215627   2.961   9.256   4.239
 3907HO4     MW15628   3.011   9.293   4.165
 3908HO4     OW15629   8.586   1.362   4.057
 3908HO4    HW115630   8.661   1.301   4.057
 3908HO4    HW215631   8.523   1.321   3.997
 3908HO4     MW15632   8.586   1.362   4.057
 3909HO4     OW15633   3.643   8.520   9.180
 3909HO4    HW115634   3.636   8.579   9.255
 3909HO4    HW215635   3.641   8.578   9.103
 3909HO4     MW15636   3.643   8.520   9.180
 3910HO4     OW15637   6.248   0.244   8.453
 3910HO4    HW115638   6.308   0.218   8.524
 3910HO4    HW215639   6.171   0.279   8.498
 3910HO4     MW15640   6.248   0.244   8.453
 3911HO4     OW15641   7.749   0.211   5.536
 3911HO4    HW115642   7.741   0.245   5.446
 3911HO4    HW215643   7.674   0.152   5.546
 3911HO4     MW15644   7.749   0.211   5.536
 3912HO4     OW15645   3.581   4.266   6.297
 3912HO4    HW115646   3.610   4.229   6.212
 3912HO4    HW215647   3.600   4.196   6.360
 3912HO4     MW15648   3.581   4.266   6.297
 3913HO4     OW15649   9.260   9.261   9.982
 3913HO4    HW115650   9.211   9.230   9.905
 3913HO4    HW215651   9.207   9.234  10.057
 3913HO4     MW15652   9.260   9.261   9.982
 3914HO4     OW15653   6.197   6.650   8.750
 3914HO4    HW115654   6.214   6.652   8.845
 3914HO4    HW215655   6.179   6.558   8.731
 3914HO4     MW15656   6.197   6.650   8.750
 3915HO4     OW15657   0.897   6.475   3.331
 3915HO4    HW115658   0.893   6.429   3.247
 3915HO4    HW215659   0.916   6.567   3.308
 3915HO4     MW15660   0.897   6.475   3.331
 3916HO4     OW15661  10.152   0.718   8.568
 3916HO4    HW115662  10.151   0.673   8.483
 3916HO4    HW215663  10.128   0.649   8.631
 3916HO4     MW15664  10.152   0.718   8.568
 3917HO4     OW15665   5.483   2.058   5.997
 3917HO4    HW115666   5.439   2.075   6.081
 3917HO4    HW215667   5.437   2.115   5.935
 3917HO4     MW15668   5.483   2.058   5.997
 3918HO4     OW15669   1.520   5.596   6.623
 3918HO4    HW115670   1.551   5.611   6.713
 3918HO4    HW215671   1.597   5.562   6.576
 3918HO4     MW15672   1.520   5.596   6.623
 3919HO4     OW15673   4.519   4.732   5.079
 3919HO4    HW115674   4.434   4.737   5.125
 3919HO4    HW215675   4.538   4.823   5.055
 3919HO4     MW15676   4.519   4.732   5.079
 3920HO4     OW15677   5.514   6.829   6.986
 3920HO4    HW115678   5.544   6.785   6.906
 3920HO4    HW215679   5.470   6.760   7.037
 3920HO4     MW15680   5.514   6.829   6.986
 3921HO4     OW15681   7.254   1.268   8.942
 3921HO4    HW115682   7.295   1.271   8.855
 3921HO4    HW215683   7.312   1.211   8.994
 3921HO4     MW15684   7.254   1.268   8.942
 3922HO4     OW15685   6.902   4.309   3.506
 3922HO4    HW115686   6.898   4.394   3.549
 3922HO4    HW215687   6.925   4.329   3.415
 3922HO4     MW15688   6.902   4.309   3.506
 3923HO4     OW15689   2.103   8.082   3.752
 3923HO4    HW115690   2.142   8.056   3.668
 3923HO4    HW215691   2.009   8.089   3.733
 3923HO4     MW15692   2.103   8.082   3.752
 3924HO4     OW15693   3.826   9.241   6.248
 3924HO4    HW115694   3.768   9.227   6.172
 3924HO4    HW215695   3.768   9.235   6.324
 3924HO4     MW15696   3.826   9.241   6.248
 3925HO4     OW15697   4.343   7.774   4.676
 3925HO4    HW115698   4.304   7.722   4.605
 3925HO4    HW215699   4.313   7.730   4.756
 3925HO4     MW15700   4.343   7.774   4.676
 3926HO4     OW15701   0.895   0.933   5.851
 3926HO4    HW115702   0.880   0.987   5.773
 3926HO4    HW215703   0.956   0.865   5.820
 3926HO4     MW15704   0.895   0.933   5.851
 3927HO4     OW15705   0.263   8.651   3.731
 3927HO4    HW115706   0.327   8.708   3.687
 3927HO4    HW215707   0.282   8.563   3.697
 3927HO4     MW15708   0.263   8.651   3.731
 3928HO4     OW15709   4.735   6.421   4.765
 3928HO4    HW115710   4.718   6.468   4.847
 3928HO4    HW215711   4.830   6.430   4.751
 3928HO4     MW15712   4.735   6.421   4.765
 3929HO4     OW15713   0.460   3.966   2.801
 3929HO4    HW115714   0.415   3.882   2.816
 3929HO4    HW215715   0.551   3.941   2.784
 3929HO4     MW15716   0.460   3.966   2.801
 3930HO4     OW15717   9.585   3.838   6.056
 3930HO4    HW115718   9.581   3.920   6.005
 3930HO4    HW215719   9.629   3.776   5.998
 3930HO4     MW15720   9.585   3.838   6.056
 3931HO4     OW15721   5.396   3.247   0.030
 3931HO4    HW115722   5.411   3.301   0.108
 3931HO4    HW215723   5.416   3.306  -0.043
 3931HO4     MW15724   5.396   3.247   0.030
 3932HO4     OW15725   7.870   4.564   3.321
 3932HO4    HW115726   7.838   4.506   3.251
 3932HO4    HW215727   7.845   4.519   3.402
 3932HO4     MW15728   7.870   4.564   3.321
 3933HO4     OW15729   5.792   3.137   1.562
 3933HO4    HW115730   5.829   3.126   1.650
 3933HO4    HW215731   5.735   3.060   1.550
 3933HO4     MW15732   5.792   3.137   1.562
 3934HO4     OW15733   7.376   3.817   8.612
 3934HO4    HW115734   7.392   3.865   8.693
 3934HO4    HW215735   7.358   3.726   8.640
 3934HO4     MW15736   7.376   3.817   8.612
 3935HO4     OW15737   2.161   1.629   3.192
 3935HO4    HW115738   2.085   1.646   3.248
 3935HO4    HW215739   2.195   1.717   3.170
 3935HO4     MW15740   2.161   1.629   3.192
 3936HO4     OW15741   1.692   4.427   0.349
 3936HO4    HW115742   1.694   4.522   0.362
 3936HO4    HW215743   1.771   4.408   0.299
 3936HO4     MW15744   1.692   4.427   0.349
 3937HO4     OW15745   1.061   8.799   3.768
 3937HO4    HW115746   0.993   8.816   3.834
 3937HO4    HW215747   1.138   8.847   3.801
 3937HO4     MW15748   1.061   8.799   3.768
 3938HO4     OW15749   4.289   2.297   3.075
 3938HO4    HW115750   4.380   2.266   3.071
 3938HO4    HW215751   4.295   2.381   3.122
 3938HO4     MW15752   4.289   2.297   3.075
 3939HO4     OW15753   9.570   1.387   9.651
 3939HO4    HW115754   9.601   1.314   9.595
 3939HO4    HW215755   9.484   1.409   9.615
 3939HO4     MW15756   9.570   1.387   9.651
 3940HO4     OW15757   5.886   0.555   8.323
 3940HO4    HW115758   5.846   0.517   8.244
 3940HO4    HW215759   5.857   0.499   8.395
 3940HO4     MW15760   5.886   0.555   8.323
 3941HO4     OW15761   7.871   1.052   9.210
 3941HO4    HW115762   7.830   1.133   9.244
 3941HO4    HW215763   7.965   1.072   9.210
 3941HO4     MW15764   7.871   1.052   9.210
 3942HO4     OW15765   2.931   9.573   4.829
 3942HO4    HW115766   2.885   9.591   4.911
 3942HO4    HW215767   3.001   9.512   4.853
 3942HO4     MW15768   2.931   9.573   4.829
 3943HO4     OW15769   3.781   2.650   4.773
 3943HO4    HW115770   3.859   2.703   4.791
 3943HO4    HW215771   3.770   2.654   4.678
 3943HO4     MW15772   3.781   2.650   4.773
 3944HO4     OW15773   0.785   2.418   1.975
 3944HO4    HW115774   0.752   2.464   2.052
 3944HO4    HW215775   0.745   2.464   1.900
 3944HO4     MW15776   0.785   2.418   1.975
 3945HO4     OW15777   0.236   7.068   3.887
 3945HO4    HW115778   0.259   7.107   3.972
 3945HO4    HW215779   0.213   6.977   3.908
 3945HO4     MW15780   0.236   7.068   3.887
 3946HO4     OW15781   6.168   3.749   1.381
 3946HO4    HW115782   6.218   3.677   1.342
 3946HO4    HW215783   6.102   3.706   1.435
 3946HO4     MW15784   6.168   3.749   1.381
 3947HO4     OW15785   4.841   5.404   0.256
 3947HO4    HW115786   4.902   5.352   0.309
 3947HO4    HW215787   4.754   5.380   0.289
 3947HO4     MW15788   4.841   5.404   0.256
 3948HO4     OW15789   0.694   4.021   6.121
 3948HO4    HW115790   0.682   4.066   6.205
 3948HO4    HW215791   0.783   3.984   6.126
 3948HO4     MW15792   0.694   4.021   6.121
 3949HO4     OW15793   5.875   1.046   2.836
 3949HO4    HW115794   5.803   1.109   2.845
 3949HO4    HW215795   5.899   1.023   2.926
 3949HO4     MW15796   5.875   1.046   2.836
 3950HO4     OW15797   6.283   2.334   6.551
 3950HO4    HW115798   6.371   2.373   6.549
 3950HO4    HW215799   6.244   2.356   6.466
 3950HO4     MW15800   6.283   2.334   6.551
 3951HO4     OW15801   1.452   0.186   4.754
 3951HO4    HW115802   1.446   0.212   4.661
 3951HO4    HW215803   1.385   0.117   4.763
 3951HO4     MW15804   1.452   0.186   4.754
 3952HO4     OW15805   5.624   2.919   1.506
 3952HO4    HW115806   5.565   2.907   1.582
 3952HO4    HW215807   5.590   2.859   1.439
 3952HO4     MW15808   5.624   2.919   1.506
 3953HO4     OW15809   7.354   0.468   3.041
 3953HO4    HW115810   7.423   0.434   3.099
 3953HO4    HW215811   7.272   0.446   3.086
 3953HO4     MW15812   7.354   0.468   3.041
 3954HO4     OW15813   7.964   0.265   1.556
 3954HO4    HW115814   7.985   0.213   1.633
 3954HO4    HW215815   7.966   0.202   1.483
 3954HO4     MW15816   7.964   0.265   1.556
 3955HO4     OW15817   7.753   8.017   7.866
 3955HO4    HW115818   7.781   7.953   7.800
 3955HO4    HW215819   7.698   8.079   7.818
 3955HO4     MW15820   7.753   8.017   7.866
 3956HO4     OW15821   9.765   3.675   0.414
 3956HO4    HW115822   9.856   3.664   0.386
 3956HO4    HW215823   9.768   3.672   0.510
 3956HO4     MW15824   9.765   3.675   0.414
 3957HO4     OW15825   7.020   2.904   5.164
 3957HO4    HW115826   7.067   2.971   5.113
 3957HO4    HW215827   7.041   2.924   5.255
 3957HO4     MW15828   7.020   2.904   5.164
 3958HO4     OW15829   8.928   8.908   0.705
 3958HO4    HW115830   8.904   8.927   0.614
 3958HO4    HW215831   8.939   8.813   0.708
 3958HO4     MW15832   8.928   8.908   0.705
 3959HO4     OW15833   0.803   7.618   6.746
 3959HO4    HW115834   0.862   7.602   6.820
 3959HO4    HW215835   0.853   7.588   6.669
 3959HO4     MW15836   0.803   7.618   6.746
 3960HO4     OW15837   0.897   2.730   2.064
 3960HO4    HW115838   0.935   2.772   1.986
 3960HO4    HW215839   0.957   2.752   2.135
 3960HO4     MW15840   0.897   2.730   2.064
 3961HO4     OW15841   7.310   5.057   7.417
 3961HO4    HW115842   7.368   5.044   7.493
 3961HO4    HW215843   7.368   5.044   7.341
 3961HO4     MW15844   7.310   5.057   7.417
 3962HO4     OW15845   2.631   3.143   7.113
 3962HO4    HW115846   2.603   3.121   7.202
 3962HO4    HW215847   2.565   3.103   7.056
 3962HO4     MW15848   2.631   3.143   7.113
 3963HO4     OW15849   3.150   2.483   2.859
 3963HO4    HW115850   3.142   2.406   2.802
 3963HO4    HW215851   3.111   2.454   2.942
 3963HO4     MW15852   3.150   2.483   2.859
 3964HO4     OW15853   5.565   3.196   4.146
 3964HO4    HW115854   5.632   3.130   4.128
 3964HO4    HW215855   5.542   3.182   4.239
 3964HO4     MW15856   5.565   3.196   4.146
 3965HO4     OW15857   1.619   2.588   7.637
 3965HO4    HW115858   1.706   2.595   7.680
 3965HO4    HW215859   1.595   2.496   7.648
 3965HO4     MW15860   1.619   2.588   7.637
 3966HO4     OW15861   6.383   0.542   8.297
 3966HO4    HW115862   6.397   0.637   8.289
 3966HO4    HW215863   6.376   0.526   8.392
 3966HO4     MW15864   6.383   0.542   8.297
 3967HO4     OW15865   8.117   1.371   0.388
 3967HO4    HW115866   8.127   1.407   0.299
 3967HO4    HW215867   8.098   1.278   0.373
 3967HO4     MW15868   8.117   1.371   0.388
 3968HO4     OW15869   6.321   8.847   4.134
 3968HO4    HW115870   6.294   8.848   4.042
 3968HO4    HW215871   6.261   8.785   4.176
 3968HO4     MW15872   6.321   8.847   4.134
 3969HO4     OW15873   5.452   5.935   3.638
 3969HO4    HW115874   5.528   5.882   3.611
 3969HO4    HW215875   5.491   6.017   3.670
 3969HO4     MW15876   5.452   5.935   3.638
 3970HO4     OW15877   7.523   9.121   2.534
 3970HO4    HW115878   7.590   9.159   2.475
 3970HO4    HW215879   7.561   9.129   2.622
 3970HO4     MW15880   7.523   9.121   2.534
 3971HO4     OW15881   8.128   2.538   5.089
 3971HO4    HW115882   8.157   2.457   5.131
 3971HO4    HW215883   8.043   2.516   5.049
 3971HO4     MW15884   8.128   2.538   5.089
 3972HO4     OW15885   9.650   3.776   7.342
 3972HO4    HW115886   9.654   3.732   7.428
 3972HO4    HW215887   9.710   3.724   7.287
 3972HO4     MW15888   9.650   3.776   7.342
 3973HO4     OW15889   1.968   6.233   1.955
 3973HO4    HW115890   1.966   6.173   2.030
 3973HO4    HW215891   1.966   6.175   1.878
 3973HO4     MW15892   1.968   6.233   1.955
 3974HO4     OW15893   3.750   9.729   3.195
 3974HO4    HW115894   3.705   9.651   3.230
 3974HO4    HW215895   3.713   9.740   3.107
 3974HO4     MW15896   3.750   9.729   3.195
 3975HO4     OW15897   6.716   9.301   0.365
 3975HO4    HW115898   6.716   9.248   0.284
 3975HO4    HW215899   6.663   9.250   0.427
 3975HO4     MW15900   6.716   9.301   0.365
 3976HO4     OW15901   3.787   9.435   1.349
 3976HO4    HW115902   3.809   9.449   1.257
 3976HO4    HW215903   3.784   9.339   1.358
 3976HO4     MW15904   3.787   9.435   1.349
 3977HO4     OW15905   0.113   8.492   5.552
 3977HO4    HW115906   0.161   8.410   5.568
 3977HO4    HW215907   0.177   8.561   5.572
 3977HO4     MW15908   0.113   8.492   5.552
 3978HO4     OW15909   5.170   0.458   9.892
 3978HO4    HW115910   5.244   0.519   9.900
 3978HO4    HW215911   5.179   0.399   9.968
 3978HO4     MW15912   5.170   0.458   9.892
 3979HO4     OW15913   2.572   7.821   1.480
 3979HO4    HW115914   2.561   7.742   1.425
 3979HO4    HW215915   2.495   7.874   1.462
 3979HO4     MW15916   2.572   7.821   1.480
 3980HO4     OW15917   2.112   1.013   7.456
 3980HO4    HW115918   2.158   1.038   7.536
 3980HO4    HW215919   2.167   1.047   7.385
 3980HO4     MW15920   2.112   1.013   7.456
 3981HO4     OW15921   1.198   2.545   9.034
 3981HO4    HW115922   1.123   2.510   9.082
 3981HO4    HW215923   1.163   2.569   8.948
 3981HO4     MW15924   1.198   2.545   9.034
 3982HO4     OW15925   8.443   3.316   7.093
 3982HO4    HW115926   8.427   3.247   7.027
 3982HO4    HW215927   8.356   3.337   7.127
 3982HO4     MW15928   8.443   3.316   7.093
 3983HO4     OW15929   8.190   3.074   0.757
 3983HO4    HW115930   8.146   3.123   0.827
 3983HO4    HW215931   8.177   3.128   0.678
 3983HO4     MW15932   8.190   3.074   0.757
 3984HO4     OW15933   0.593   4.300   5.412
 3984HO4    HW115934   0.671   4.344   5.447
 3984HO4    HW215935   0.578   4.227   5.472
 3984HO4     MW15936   0.593   4.300   5.412
 3985HO4     OW15937   3.844   2.339   2.700
 3985HO4    HW115938   3.879   2.384   2.623
 3985HO4    HW215939   3.825   2.410   2.763
 3985HO4     MW15940   3.844   2.339   2.700
 3986HO4     OW15941   7.427  10.036   8.622
 3986HO4    HW115942   7.499  10.007   8.565
 3986HO4    HW215943   7.462  10.113   8.667
 3986HO4     MW15944   7.427  10.036   8.622
 3987HO4     OW15945   0.447   2.655   2.383
 3987HO4    HW115946   0.520   2.675   2.443
 3987HO4    HW215947   0.443   2.732   2.325
 3987HO4     MW15948   0.447   2.655   2.383
 3988HO4     OW15949   8.840   7.293   0.914
 3988HO4    HW115950   8.755   7.309   0.954
 3988HO4    HW215951   8.836   7.201   0.885
 3988HO4     MW15952   8.840   7.293   0.914
 3989HO4     OW15953   9.093   3.304   5.976
 3989HO4    HW115954   9.095   3.278   6.068
 3989HO4    HW215955   9.148   3.238   5.932
 3989HO4     MW15956   9.093   3.304   5.976
 3990HO4     OW15957   1.511   0.530   9.976
 3990HO4    HW115958   1.435   0.588   9.964
 3990HO4    HW215959   1.580   0.569   9.922
 3990HO4     MW15960   1.511   0.530   9.976
 3991HO4     OW15961   2.839   2.539   2.916
 3991HO4    HW115962   2.848   2.634   2.907
 3991HO4    HW215963   2.744   2.524   2.914
 3991HO4     MW15964   2.839   2.539   2.916
 3992HO4     OW15965   4.501   6.010   5.177
 3992HO4    HW115966   4.469   5.979   5.092
 3992HO4    HW215967   4.501   5.932   5.233
 3992HO4     MW15968   4.501   6.010   5.177
 3993HO4     OW15969   2.155   6.918   5.714
 3993HO4    HW115970   2.162   6.868   5.796
 3993HO4    HW215971   2.162   6.851   5.645
 3993HO4     MW15972   2.155   6.918   5.714
 3994HO4     OW15973   5.731   2.997   3.568
 3994HO4    HW115974   5.697   2.974   3.655
 3994HO4    HW215975   5.708   2.922   3.512
 3994HO4     MW15976   5.731   2.997   3.568
 3995HO4     OW15977   0.347   5.648   2.308
 3995HO4    HW115978   0.441   5.665   2.320
 3995HO4    HW215979   0.304   5.719   2.356
 3995HO4     MW15980   0.347   5.648   2.308
 3996HO4     OW15981   4.017   2.563   0.370
 3996HO4    HW115982   3.958   2.627   0.329
 3996HO4    HW215983   4.041   2.603   0.454
 3996HO4     MW15984   4.017   2.563   0.370
 3997HO4     OW15985   6.547   4.856   4.791
 3997HO4    HW115986   6.587   4.892   4.711
 3997HO4    HW215987   6.611   4.791   4.822
 3997HO4     MW15988   6.547   4.856   4.791
 3998HO4     OW15989   6.652   1.539   8.316
 3998HO4    HW115990   6.712   1.488   8.372
 3998HO4    HW215991   6.675   1.630   8.335
 3998HO4     MW15992   6.652   1.539   8.316
 3999HO4     OW15993   4.493   5.036   4.217
 3999HO4    HW115994   4.580   5.010   4.249
 3999HO4    HW215995   4.432   4.999   4.282
 3999HO4     MW15996   4.493   5.036   4.217
 4000HO4     OW15997   0.849   8.521   3.047
 4000HO4    HW115998   0.913   8.473   2.994
 4000HO4    HW215999   0.875   8.504   3.138
 4000HO4     MW16000   0.849   8.521   3.047
 4001HO4     OW16001   8.712   0.560   8.986
 4001HO4    HW116002   8.720   0.465   8.995
 4001HO4    HW216003   8.619   0.574   8.967
 4001HO4     MW16004   8.712   0.560   8.986
 4002HO4     OW16005   8.916   0.226   8.013
 4002HO4    HW116006   8.903   0.216   8.108
 4002HO4    HW216007   8.896   0.139   7.976
 4002HO4     MW16008   8.916   0.226   8.013
 4003HO4     OW16009   7.491   4.356   7.820
 4003HO4    HW116010   7.533   4.297   7.883
 4003HO4    HW216011   7.548   4.434   7.819
 4003HO4     MW16012   7.491   4.356   7.820
 4004HO4     OW16013   7.691   4.472   4.142
 4004HO4    HW116014   7.617   4.532   4.157
 4004HO4    HW216015   7.758   4.527   4.100
 4004HO4     MW16016   7.691   4.472   4.142
 4005HO4     OW16017   5.010   2.643   9.336
 4005HO4    HW116018   4.992   2.548   9.334
 4005HO4    HW216019   5.045   2.658   9.424
 4005HO4     MW16020   5.010   2.643   9.336
 4006HO4     OW16021   8.224   9.139   4.731
 4006HO4    HW116022   8.299   9.180   4.775
 4006HO4    HW216023   8.216   9.187   4.648
 4006HO4     MW16024   8.224   9.139   4.731
 4007HO4     OW16025   7.536   4.626   5.474
 4007HO4    HW116026   7.493   4.617   5.388
 4007HO4    HW216027   7.510   4.714   5.504
 4007HO4     MW16028   7.536   4.626   5.474
 4008HO4     OW16029   7.024   0.036   8.138
 4008HO4    HW116030   6.995  -0.030   8.075
 4008HO4    HW216031   6.956   0.105   8.133
 4008HO4     MW16032   7.024   0.036   8.138
 4009HO4     OW16033   7.971   9.787   4.604
 4009HO4    HW116034   8.018   9.712   4.567
 4009HO4    HW216035   8.037   9.830   4.660
 4009HO4     MW16036   7.971   9.787   4.604
 4010HO4     OW16037   2.096   9.497   8.435
 4010HO4    HW116038   2.029   9.552   8.478
 4010HO4    HW216039   2.140   9.453   8.508
 4010HO4     MW16040   2.096   9.497   8.435
 4011HO4     OW16041   7.063   2.872   1.735
 4011HO4    HW116042   7.151   2.844   1.762
 4011HO4    HW216043   7.004   2.837   1.802
 4011HO4     MW16044   7.063   2.872   1.735
 4012HO4     OW16045   7.142   3.773   2.754
 4012HO4    HW116046   7.227   3.807   2.724
 4012HO4    HW216047   7.078   3.838   2.723
 4012HO4     MW16048   7.142   3.773   2.754
 4013HO4     OW16049   4.571   7.307   4.704
 4013HO4    HW116050   4.637   7.284   4.638
 4013HO4    HW216051   4.558   7.402   4.693
 4013HO4     MW16052   4.571   7.307   4.704
 4014HO4     OW16053   7.201   4.427   8.051
 4014HO4    HW116054   7.216   4.465   8.139
 4014HO4    HW216055   7.144   4.490   8.007
 4014HO4     MW16056   7.201   4.427   8.051
 4015HO4     OW16057   9.890   5.894   6.451
 4015HO4    HW116058   9.887   5.864   6.360
 4015HO4    HW216059   9.802   5.876   6.486
 4015HO4     MW16060   9.890   5.894   6.451
 4016HO4     OW16061   0.529   0.800   1.956
 4016HO4    HW116062   0.480   0.746   2.018
 4016HO4    HW216063   0.590   0.850   2.011
 4016HO4     MW16064   0.529   0.800   1.956
 4017HO4     OW16065   8.985   1.889   7.292
 4017HO4    HW116066   9.041   1.908   7.368
 4017HO4    HW216067   8.936   1.971   7.278
 4017HO4     MW16068   8.985   1.889   7.292
 4018HO4     OW16069   0.770   1.189   7.632
 4018HO4    HW116070   0.811   1.105   7.606
 4018HO4    HW216071   0.783   1.245   7.555
 4018HO4     MW16072   0.770   1.189   7.632
 4019HO4     OW16073   0.490   3.238   2.151
 4019HO4    HW116074   0.483   3.223   2.056
 4019HO4    HW216075   0.567   3.295   2.160
 4019HO4     MW16076   0.490   3.238   2.151
 4020HO4     OW16077   1.465   9.764   6.166
 4020HO4    HW116078   1.418   9.733   6.088
 4020HO4    HW216079   1.401   9.757   6.237
 4020HO4     MW16080   1.465   9.764   6.166
 4021HO4     OW16081   4.135   2.311   6.790
 4021HO4    HW116082   4.112   2.256   6.714
 4021HO4    HW216083   4.166   2.249   6.856
 4021HO4     MW16084   4.135   2.311   6.790
 4022HO4     OW16085   1.428   8.174   7.618
 4022HO4    HW116086   1.334   8.187   7.636
 4022HO4    HW216087   1.470   8.185   7.704
 4022HO4     MW16088   1.428   8.174   7.618
 4023HO4     OW16089   8.595   9.519   2.312
 4023HO4    HW116090   8.551   9.433   2.310
 4023HO4    HW216091   8.646   9.522   2.231
 4023HO4     MW16092   8.595   9.519   2.312
 4024HO4     OW16093   0.725   8.548   5.744
 4024HO4    HW116094   0.728   8.476   5.679
 4024HO4    HW216095   0.705   8.504   5.827
 4024HO4     MW16096   0.725   8.548   5.744
 4025HO4     OW16097   9.139   7.691   4.878
 4025HO4    HW116098   9.200   7.759   4.909
 4025HO4    HW216099   9.079   7.738   4.819
 4025HO4     MW16100   9.139   7.691   4.878
 4026HO4     OW16101   4.035   9.847   1.873
 4026HO4    HW116102   4.036   9.931   1.920
 4026HO4    HW216103   4.045   9.781   1.942
 4026HO4     MW16104   4.035   9.847   1.873
 4027HO4     OW16105   7.949   4.235   9.312
 4027HO4    HW116106   7.880   4.286   9.356
 4027HO4    HW216107   7.940   4.258   9.219
 4027HO4     MW16108   7.949   4.235   9.312
 4028HO4     OW16109   0.827   5.686   1.698
 4028HO4    HW116110   0.827   5.728   1.785
 4028HO4    HW216111   0.821   5.760   1.636
 4028HO4     MW16112   0.827   5.686   1.698
 4029HO4     OW16113   7.898   2.769   6.808
 4029HO4    HW116114   7.823   2.821   6.778
 4029HO4    HW216115   7.908   2.794   6.901
 4029HO4     MW16116   7.898   2.769   6.808
 4030HO4     OW16117   6.846   9.750   2.467
 4030HO4    HW116118   6.818   9.758   2.558
 4030HO4    HW216119   6.771   9.708   2.423
 4030HO4     MW16120   6.846   9.750   2.467
 4031HO4     OW16121   0.514   8.553   9.382
 4031HO4    HW116122   0.585   8.583   9.440
 4031HO4    HW216123   0.487   8.468   9.419
 4031HO4     MW16124   0.514   8.553   9.382
 4032HO4     OW16125   1.058   4.023   9.282
 4032HO4    HW116126   1.085   3.940   9.243
 4032HO4    HW216127   1.054   4.005   9.376
 4032HO4     MW16128   1.058   4.023   9.282
 4033HO4     OW16129   2.276   6.745   3.065
 4033HO4    HW116130   2.275   6.790   3.150
 4033HO4    HW216131   2.295   6.814   3.001
 4033HO4     MW16132   2.276   6.745   3.065
 4034HO4     OW16133   7.034   0.951   0.896
 4034HO4    HW116134   7.086   0.928   0.819
 4034HO4    HW216135   7.090   0.928   0.971
 4034HO4     MW16136   7.034   0.951   0.896
 4035HO4     OW16137   7.387   1.891   4.932
 4035HO4    HW116138   7.421   1.942   4.858
 4035HO4    HW216139   7.402   1.947   5.009
 4035HO4     MW16140   7.387   1.891   4.932
 4036HO4     OW16141   2.926   4.894   3.005
 4036HO4    HW116142   2.854   4.845   2.965
 4036HO4    HW216143   2.898   4.986   2.997
 4036HO4     MW16144   2.926   4.894   3.005
 4037HO4     OW16145   3.309   2.435   4.499
 4037HO4    HW116146   3.236   2.451   4.560
 4037HO4    HW216147   3.386   2.426   4.556
 4037HO4     MW16148   3.309   2.435   4.499
 4038HO4     OW16149   9.459   5.586   0.649
 4038HO4    HW116150   9.381   5.529   0.650
 4038HO4    HW216151   9.532   5.525   0.636
 4038HO4     MW16152   9.459   5.586   0.649
 4039HO4     OW16153   4.177   0.064   6.529
 4039HO4    HW116154   4.116   0.127   6.567
 4039HO4    HW216155   4.184  -0.006   6.594
 4039HO4     MW16156   4.177   0.064   6.529
 4040HO4     OW16157   2.618   0.523   6.176
 4040HO4    HW116158   2.704   0.549   6.142
 4040HO4    HW216159   2.624   0.538   6.271
 4040HO4     MW16160   2.618   0.523   6.176
 4041HO4     OW16161   7.142   5.505   4.699
 4041HO4    HW116162   7.060   5.555   4.694
 4041HO4    HW216163   7.207   5.570   4.727
 4041HO4     MW16164   7.142   5.505   4.699
 4042HO4     OW16165   2.627   4.028   5.485
 4042HO4    HW116166   2.562   4.013   5.415
 4042HO4    HW216167   2.594   3.976   5.559
 4042HO4     MW16168   2.627   4.028   5.485
 4043HO4     OW16169   9.983   1.996   0.510
 4043HO4    HW116170   9.896   1.973   0.476
 4043HO4    HW216171  10.035   1.916   0.498
 4043HO4     MW16172   9.983   1.996   0.510
 4044HO4     OW16173   5.253   3.092   7.591
 4044HO4    HW116174   5.214   3.136   7.514
 4044HO4    HW216175   5.198   3.121   7.664
 4044HO4     MW16176   5.253   3.092   7.591
 4045HO4     OW16177   6.250   5.601   6.566
 4045HO4    HW116178   6.294   5.517   6.549
 4045HO4    HW216179   6.198   5.584   6.645
 4045HO4     MW16180   6.250   5.601   6.566
 4046HO4     OW16181   4.180   0.976   0.551
 4046HO4    HW116182   4.183   0.952   0.458
 4046HO4    HW216183   4.164   1.071   0.550
 4046HO4     MW16184   4.180   0.976   0.551
 4047HO4     OW16185   7.784   9.192   3.079
 4047HO4    HW116186   7.848   9.211   3.149
 4047HO4    HW216187   7.828   9.220   2.998
 4047HO4     MW16188   7.784   9.192   3.079
 4048HO4     OW16189   3.360   6.741   4.039
 4048HO4    HW116190   3.270   6.721   4.010
 4048HO4    HW216191   3.413   6.668   4.006
 4048HO4     MW16192   3.360   6.741   4.039
 4049HO4     OW16193   6.881   5.829   1.864
 4049HO4    HW116194   6.896   5.737   1.837
 4049HO4    HW216195   6.801   5.854   1.817
 4049HO4     MW16196   6.881   5.829   1.864
 4050HO4     OW16197   1.148   3.637   5.799
 4050HO4    HW116198   1.071   3.594   5.836
 4050HO4    HW216199   1.138   3.730   5.823
 4050HO4     MW16200   1.148   3.637   5.799
 4051HO4     OW16201   0.385   1.889   4.461
 4051HO4    HW116202   0.314   1.891   4.527
 4051HO4    HW216203   0.376   1.972   4.414
 4051HO4     MW16204   0.385   1.889   4.461
 4052HO4     OW16205   3.486   6.893   5.539
 4052HO4    HW116206   3.510   6.917   5.629
 4052HO4    HW216207   3.402   6.936   5.525
 4052HO4     MW16208   3.486   6.893   5.539
 4053HO4     OW16209   0.805   7.778   6.369
 4053HO4    HW116210   0.842   7.695   6.337
 4053HO4    HW216211   0.880   7.824   6.408
 4053HO4     MW16212   0.805   7.778   6.369
 4054HO4     OW16213   3.641   3.145   9.528
 4054HO4    HW116214   3.702   3.172   9.459
 4054HO4    HW216215   3.587   3.223   9.545
 4054HO4     MW16216   3.641   3.145   9.528
 4055HO4     OW16217   1.717   9.404   6.632
 4055HO4    HW116218   1.787   9.458   6.594
 4055HO4    HW216219   1.698   9.445   6.717
 4055HO4     MW16220   1.717   9.404   6.632
 4056HO4     OW16221   1.345   4.625   4.842
 4056HO4    HW116222   1.423   4.600   4.892
 4056HO4    HW216223   1.362   4.594   4.753
 4056HO4     MW16224   1.345   4.625   4.842
 4057HO4     OW16225   1.871   6.098   5.233
 4057HO4    HW116226   1.908   6.122   5.319
 4057HO4    HW216227   1.946   6.103   5.173
 4057HO4     MW16228   1.871   6.098   5.233
 4058HO4     OW16229   1.172   2.947   3.506
 4058HO4    HW116230   1.097   2.919   3.453
 4058HO4    HW216231   1.133   2.980   3.587
 4058HO4     MW16232   1.172   2.947   3.506
 4059HO4     OW16233   9.555   0.074   3.693
 4059HO4    HW116234   9.523   0.155   3.650
 4059HO4    HW216235   9.624   0.104   3.752
 4059HO4     MW16236   9.555   0.074   3.693
 4060HO4     OW16237   9.384  10.100   5.184
 4060HO4    HW116238   9.326  10.079   5.257
 4060HO4    HW216239   9.341  10.175   5.140
 4060HO4     MW16240   9.384  10.100   5.184
 4061HO4     OW16241   1.726   3.214   1.122
 4061HO4    HW116242   1.650   3.258   1.082
 4061HO4    HW216243   1.801   3.265   1.091
 4061HO4     MW16244   1.726   3.214   1.122
 4062HO4     OW16245   4.880   7.317   8.875
 4062HO4    HW116246   4.842   7.400   8.904
 4062HO4    HW216247   4.970   7.319   8.910
 4062HO4     MW16248   4.880   7.317   8.875
 4063HO4     OW16249   2.778   8.432   5.654
 4063HO4    HW116250   2.772   8.522   5.618
 4063HO4    HW216251   2.861   8.431   5.701
 4063HO4     MW16252   2.778   8.432   5.654
 4064HO4     OW16253   2.700   6.875   0.948
 4064HO4    HW116254   2.707   6.924   0.866
 4064HO4    HW216255   2.707   6.942   1.017
 4064HO4     MW16256   2.700   6.875   0.948
 4065HO4     OW16257   0.029   3.797   3.834
 4065HO4    HW116258  -0.025   3.753   3.767
 4065HO4    HW216259   0.063   3.725   3.888
 4065HO4     MW16260   0.029   3.797   3.834
 4066HO4     OW16261   2.367   0.545   2.066
 4066HO4    HW116262   2.350   0.557   2.160
 4066HO4    HW216263   2.452   0.500   2.063
 4066HO4     MW16264   2.367   0.545   2.066
 4067HO4     OW16265   4.498   0.666   5.709
 4067HO4    HW116266   4.403   0.656   5.723
 4067HO4    HW216267   4.514   0.623   5.625
 4067HO4     MW16268   4.498   0.666   5.709
 4068HO4     OW16269   4.604   6.081   0.235
 4068HO4    HW116270   4.646   6.067   0.321
 4068HO4    HW216271   4.666   6.044   0.172
 4068HO4     MW16272   4.604   6.081   0.235
 4069HO4     OW16273   7.760   0.723   6.240
 4069HO4    HW116274   7.720   0.724   6.153
 4069HO4    HW216275   7.700   0.776   6.294
 4069HO4     MW16276   7.760   0.723   6.240
 4070HO4     OW16277   1.567   3.864   6.962
 4070HO4    HW116278   1.498   3.883   6.897
 4070HO4    HW216279   1.558   3.933   7.028
 4070HO4     MW16280   1.567   3.864   6.962
 4071HO4     OW16281   3.095   7.083   7.673
 4071HO4    HW116282   3.147   7.082   7.593
 4071HO4    HW216283   3.160   7.090   7.744
 4071HO4     MW16284   3.095   7.083   7.673
 4072HO4     OW16285   9.446   2.640   9.208
 4072HO4    HW116286   9.431   2.556   9.252
 4072HO4    HW216287   9.360   2.684   9.209
 4072HO4     MW16288   9.446   2.640   9.208
 4073HO4     OW16289   2.202   0.097   7.346
 4073HO4    HW116290   2.275   0.082   7.407
 4073HO4    HW216291   2.152   0.015   7.347
 4073HO4     MW16292   2.202   0.097   7.346
 4074HO4     OW16293   8.350   3.961   9.450
 4074HO4    HW116294   8.303   3.903   9.512
 4074HO4    HW216295   8.319   3.932   9.363
 4074HO4     MW16296   8.350   3.961   9.450
 4075HO4     OW16297   9.809   7.082   5.450
 4075HO4    HW116298   9.805   7.082   5.546
 4075HO4    HW216299   9.757   7.005   5.424
 4075HO4     MW16300   9.809   7.082   5.450
 4076HO4     OW16301   8.271   0.587   5.983
 4076HO4    HW116302   8.331   0.556   6.052
 4076HO4    HW216303   8.325   0.588   5.903
 4076HO4     MW16304   8.271   0.587   5.983
 4077HO4     OW16305   1.283   9.536   9.227
 4077HO4    HW116306   1.266   9.573   9.140
 4077HO4    HW216307   1.332   9.605   9.273
 4077HO4     MW16308   1.283   9.536   9.227
 4078HO4     OW16309   3.859   9.604   6.011
 4078HO4    HW116310   3.876   9.544   6.084
 4078HO4    HW216311   3.860   9.547   5.933
 4078HO4     MW16312   3.859   9.604   6.011
 4079HO4     OW16313   0.476   7.521   0.877
 4079HO4    HW116314   0.510   7.539   0.965
 4079HO4    HW216315   0.515   7.590   0.822
 4079HO4     MW16316   0.476   7.521   0.877
 4080HO4     OW16317   0.154   1.110   1.457
 4080HO4    HW116318   0.199   1.059   1.389
 4080HO4    HW216319   0.087   1.051   1.491
 4080HO4     MW16320   0.154   1.110   1.457
 4081HO4     OW16321   0.132   0.037   3.738
 4081HO4    HW116322   0.200   0.059   3.803
 4081HO4    HW216323   0.175   0.047   3.653
 4081HO4     MW16324   0.132   0.037   3.738
 4082HO4     OW16325   6.189   0.580   1.403
 4082HO4    HW116326   6.139   0.598   1.483
 4082HO4    HW216327   6.130   0.604   1.332
 4082HO4     MW16328   6.189   0.580   1.403
 4083HO4     OW16329   4.413   5.559   3.510
 4083HO4    HW116330   4.446   5.614   3.438
 4083HO4    HW216331   4.362   5.619   3.565
 4083HO4     MW16332   4.413   5.559   3.510
 4084HO4     OW16333   7.212   1.926   0.182
 4084HO4    HW116334   7.163   1.850   0.149
 4084HO4    HW216335   7.252   1.895   0.264
 4084HO4     MW16336   7.212   1.926   0.182
 4085HO4     OW16337  10.075   2.874   5.817
 4085HO4    HW116338  10.096   2.935   5.746
 4085HO4    HW216339   9.982   2.892   5.837
 4085HO4     MW16340  10.075   2.874   5.817
 4086HO4     OW16341   7.366   7.786   5.366
 4086HO4    HW116342   7.275   7.795   5.394
 4086HO4    HW216343   7.410   7.746   5.442
 4086HO4     MW16344   7.366   7.786   5.366
 4087HO4     OW16345   4.130   0.037   0.204
 4087HO4    HW116346   4.092   0.024   0.117
 4087HO4    HW216347   4.065  -0.001   0.264
 4087HO4     MW16348   4.130   0.037   0.204
 4088HO4     OW16349   5.390   4.426   4.428
 4088HO4    HW116350   5.381   4.407   4.521
 4088HO4    HW216351   5.392   4.340   4.385
 4088HO4     MW16352   5.390   4.426   4.428
 4089HO4     OW16353   8.282  10.003  10.045
 4089HO4    HW116354   8.344   9.931  10.057
 4089HO4    HW216355   8.318  10.053   9.971
 4089HO4     MW16356   8.282  10.003  10.045
 4090HO4     OW16357   6.815   5.915   0.728
 4090HO4    HW116358   6.760   5.963   0.791
 4090HO4    HW216359   6.753   5.883   0.662
 4090HO4     MW16360   6.815   5.915   0.728
 4091HO4     OW16361   2.893   8.825   9.137
 4091HO4    HW116362   2.939   8.869   9.065
 4091HO4    HW216363   2.928   8.866   9.216
 4091HO4     MW16364   2.893   8.825   9.137
 4092HO4     OW16365   1.820   4.999   4.379
 4092HO4    HW116366   1.808   4.962   4.467
 4092HO4    HW216367   1.863   4.929   4.329
 4092HO4     MW16368   1.820   4.999   4.379
 4093HO4     OW16369   5.615   2.437   2.888
 4093HO4    HW116370   5.559   2.454   2.812
 4093HO4    HW216371   5.559   2.455   2.964
 4093HO4     MW16372   5.615   2.437   2.888
 4094HO4     OW16373   8.344   2.187   8.232
 4094HO4    HW116374   8.424   2.207   8.281
 4094HO4    HW216375   8.362   2.214   8.142
 4094HO4     MW16376   8.344   2.187   8.232
 4095HO4     OW16377   7.638   1.553   3.514
 4095HO4    HW116378   7.638   1.476   3.571
 4095HO4    HW216379   7.626   1.518   3.425
 4095HO4     MW16380   7.638   1.553   3.514
 4096HO4     OW16381   6.444   8.079   1.585
 4096HO4    HW116382   6.529   8.037   1.568
 4096HO4    HW216383   6.438   8.149   1.520
 4096HO4     MW16384   6.444   8.079   1.585
 4097HO4     OW16385   6.953   9.701   4.781
 4097HO4    HW116386   6.966   9.636   4.712
 4097HO4    HW216387   6.991   9.661   4.860
 4097HO4     MW16388   6.953   9.701   4.781
 4098HO4     OW16389   8.645   6.016   4.482
 4098HO4    HW116390   8.624   5.992   4.391
 4098HO4    HW216391   8.725   5.968   4.502
 4098HO4     MW16392   8.645   6.016   4.482
 4099HO4     OW16393   9.983   8.366   4.297
 4099HO4    HW116394   9.904   8.316   4.320
 4099HO4    HW216395   9.952   8.434   4.237
 4099HO4     MW16396   9.983   8.366   4.297
 4100HO4     OW16397   3.124   5.983   3.240
 4100HO4    HW116398   3.135   6.026   3.325
 4100HO4    HW216399   3.146   6.052   3.175
 4100HO4     MW16400   3.124   5.983   3.240
 4101HO4     OW16401   7.378   0.385   1.266
 4101HO4    HW116402   7.456   0.329   1.274
 4101HO4    HW216403   7.400   0.447   1.195
 4101HO4     MW16404   7.378   0.385   1.266
 4102HO4     OW16405   5.883   7.811   7.263
 4102HO4    HW116406   5.862   7.857   7.344
 4102HO4    HW216407   5.850   7.868   7.193
 4102HO4     MW16408   5.883   7.811   7.263
 4103HO4     OW16409   4.975  10.143   3.854
 4103HO4    HW116410   4.891  10.110   3.820
 4103HO4    HW216411   5.033  10.067   3.852
 4103HO4     MW16412   4.975  10.143   3.854
 4104HO4     OW16413   2.650   7.307   6.127
 4104HO4    HW116414   2.568   7.286   6.082
 4104HO4    HW216415   2.623   7.332   6.216
 4104HO4     MW16416   2.650   7.307   6.127
 4105HO4     OW16417   3.521   9.980   2.330
 4105HO4    HW116418   3.468   9.905   2.361
 4105HO4    HW216419   3.611   9.946   2.330
 4105HO4     MW16420   3.521   9.980   2.330
 4106HO4     OW16421   5.930   1.072   1.685
 4106HO4    HW116422   5.888   1.155   1.711
 4106HO4    HW216423   5.977   1.043   1.763
 4106HO4     MW16424   5.930   1.072   1.685
 4107HO4     OW16425   0.188   0.125   5.671
 4107HO4    HW116426   0.257   0.153   5.610
 4107HO4    HW216427   0.224   0.046   5.713
 4107HO4     MW16428   0.188   0.125   5.671
 4108HO4     OW16429   5.188   3.792   9.550
 4108HO4    HW116430   5.127   3.861   9.519
 4108HO4    HW216431   5.272   3.814   9.509
 4108HO4     MW16432   5.188   3.792   9.550
 4109HO4     OW16433   1.741   9.231   2.149
 4109HO4    HW116434   1.811   9.265   2.207
 4109HO4    HW216435   1.783   9.224   2.063
 4109HO4     MW16436   1.741   9.231   2.149
 4110HO4     OW16437   8.125   4.319   3.459
 4110HO4    HW116438   8.146   4.272   3.540
 4110HO4    HW216439   8.157   4.262   3.389
 4110HO4     MW16440   8.125   4.319   3.459
 4111HO4     OW16441   8.594   0.030   5.754
 4111HO4    HW116442   8.617   0.101   5.815
 4111HO4    HW216443   8.586   0.074   5.669
 4111HO4     MW16444   8.594   0.030   5.754
 4112HO4     OW16445   9.480   0.049   6.539
 4112HO4    HW116446   9.573   0.054   6.564
 4112HO4    HW216447   9.463   0.131   6.493
 4112HO4     MW16448   9.480   0.049   6.539
 4113HO4     OW16449   1.738   3.225   4.018
 4113HO4    HW116450   1.767   3.312   4.048
 4113HO4    HW216451   1.740   3.171   4.097
 4113HO4     MW16452   1.738   3.225   4.018
 4114HO4     OW16453   1.111   6.419   0.519
 4114HO4    HW116454   1.074   6.481   0.454
 4114HO4    HW216455   1.122   6.472   0.599
 4114HO4     MW16456   1.111   6.419   0.519
 4115HO4     OW16457   9.352   2.597   0.703
 4115HO4    HW116458   9.309   2.572   0.786
 4115HO4    HW216459   9.302   2.552   0.635
 4115HO4     MW16460   9.352   2.597   0.703
 4116HO4     OW16461   7.434   5.666   8.990
 4116HO4    HW116462   7.379   5.603   9.038
 4116HO4    HW216463   7.423   5.642   8.898
 4116HO4     MW16464   7.434   5.666   8.990
 4117HO4     OW16465   7.061   6.056   2.098
 4117HO4    HW116466   7.096   6.145   2.093
 4117HO4    HW216467   7.031   6.048   2.189
 4117HO4     MW16468   7.061   6.056   2.098
 4118HO4     OW16469   4.030   0.877   4.196
 4118HO4    HW116470   4.047   0.809   4.130
 4118HO4    HW216471   4.031   0.830   4.280
 4118HO4     MW16472   4.030   0.877   4.196
 4119HO4     OW16473   4.091   9.203   1.417
 4119HO4    HW116474   4.172   9.253   1.427
 4119HO4    HW216475   4.120   9.111   1.412
 4119HO4     MW16476   4.091   9.203   1.417
 4120HO4     OW16477   0.188   4.259   1.623
 4120HO4    HW116478   0.131   4.305   1.561
 4120HO4    HW216479   0.158   4.168   1.621
 4120HO4     MW16480   0.188   4.259   1.623
 4121HO4     OW16481   4.157   0.243   1.311
 4121HO4    HW116482   4.195   0.241   1.223
 4121HO4    HW216483   4.225   0.204   1.367
 4121HO4     MW16484   4.157   0.243   1.311
 4122HO4     OW16485   6.047   1.889   3.145
 4122HO4    HW116486   6.105   1.857   3.215
 4122HO4    HW216487   6.100   1.883   3.065
 4122HO4     MW16488   6.047   1.889   3.145
 4123HO4     OW16489   8.330   9.091   4.210
 4123HO4    HW116490   8.382   9.126   4.283
 4123HO4    HW216491   8.373   9.127   4.132
 4123HO4     MW16492   8.330   9.091   4.210
 4124HO4     OW16493   7.843   2.003   3.483
 4124HO4    HW116494   7.854   2.047   3.399
 4124HO4    HW216495   7.856   2.073   3.549
 4124HO4     MW16496   7.843   2.003   3.483
 4125HO4     OW16497   2.396   2.074   6.498
 4125HO4    HW116498   2.403   2.137   6.570
 4125HO4    HW216499   2.466   2.100   6.437
 4125HO4     MW16500   2.396   2.074   6.498
 4126HO4     OW16501   0.076   2.195   3.445
 4126HO4    HW116502   0.136   2.156   3.509
 4126HO4    HW216503  -0.011   2.164   3.473
 4126HO4     MW16504   0.076   2.195   3.445
 4127HO4     OW16505   4.779   7.955   1.437
 4127HO4    HW116506   4.784   7.994   1.349
 4127HO4    HW216507   4.865   7.973   1.476
 4127HO4     MW16508   4.779   7.955   1.437
 4128HO4     OW16509  10.075   6.781   2.042
 4128HO4    HW116510  10.018   6.826   1.978
 4128HO4    HW216511  10.028   6.790   2.125
 4128HO4     MW16512  10.075   6.781   2.042
 4129HO4     OW16513   3.566   5.169   2.434
 4129HO4    HW116514   3.603   5.084   2.410
 4129HO4    HW216515   3.531   5.156   2.523
 4129HO4     MW16516   3.566   5.169   2.434
 4130HO4     OW16517   4.173   6.015   8.733
 4130HO4    HW116518   4.231   6.054   8.666
 4130HO4    HW216519   4.189   6.068   8.812
 4130HO4     MW16520   4.173   6.015   8.733
 4131HO4     OW16521   6.683   6.413   6.438
 4131HO4    HW116522   6.652   6.370   6.519
 4131HO4    HW216523   6.656   6.505   6.448
 4131HO4     MW16524   6.683   6.413   6.438
 4132HO4     OW16525   6.031   0.813   8.751
 4132HO4    HW116526   6.004   0.874   8.682
 4132HO4    HW216527   6.067   0.870   8.820
 4132HO4     MW16528   6.031   0.813   8.751
 4133HO4     OW16529   2.198   1.743   9.395
 4133HO4    HW116530   2.214   1.834   9.367
 4133HO4    HW216531   2.110   1.744   9.433
 4133HO4     MW16532   2.198   1.743   9.395
 4134HO4     OW16533   1.534   4.372   3.983
 4134HO4    HW116534   1.569   4.338   3.900
 4134HO4    HW216535   1.494   4.295   4.025
 4134HO4     MW16536   1.534   4.372   3.983
 4135HO4     OW16537   1.456   7.846   1.170
 4135HO4    HW116538   1.417   7.921   1.124
 4135HO4    HW216539   1.407   7.770   1.138
 4135HO4     MW16540   1.456   7.846   1.170
 4136HO4     OW16541   2.828   6.875   7.021
 4136HO4    HW116542   2.821   6.829   6.937
 4136HO4    HW216543   2.922   6.869   7.043
 4136HO4     MW16544   2.828   6.875   7.021
 4137HO4     OW16545   2.186   4.882   9.510
 4137HO4    HW116546   2.211   4.960   9.461
 4137HO4    HW216547   2.135   4.915   9.585
 4137HO4     MW16548   2.186   4.882   9.510
 4138HO4     OW16549   1.700   7.779   3.109
 4138HO4    HW116550   1.644   7.857   3.114
 4138HO4    HW216551   1.789   7.814   3.121
 4138HO4     MW16552   1.700   7.779   3.109
 4139HO4     OW16553   7.732   0.295   8.168
 4139HO4    HW116554   7.675   0.320   8.095
 4139HO4    HW216555   7.682   0.319   8.246
 4139HO4     MW16556   7.732   0.295   8.168
 4140HO4     OW16557   8.637   9.633   4.788
 4140HO4    HW116558   8.677   9.566   4.732
 4140HO4    HW216559   8.701   9.647   4.859
 4140HO4     MW16560   8.637   9.633   4.788
 4141HO4     OW16561   9.926   1.113   1.193
 4141HO4    HW116562   9.878   1.157   1.264
 4141HO4    HW216563   9.893   1.155   1.113
 4141HO4     MW16564   9.926   1.113   1.193
 4142HO4     OW16565   6.647   2.559   5.739
 4142HO4    HW116566   6.636   2.653   5.757
 4142HO4    HW216567   6.677   2.555   5.648
 4142HO4     MW16568   6.647   2.559   5.739
 4143HO4     OW16569   1.040   8.909   3.428
 4143HO4    HW116570   1.026   8.872   3.340
 4143HO4    HW216571   1.033   8.833   3.487
 4143HO4     MW16572   1.040   8.909   3.428
 4144HO4     OW16573   9.257   9.644   1.963
 4144HO4    HW116574   9.351   9.628   1.974
 4144HO4    HW216575   9.224   9.655   2.052
 4144HO4     MW16576   9.257   9.644   1.963
 4145HO4     OW16577   1.941   7.920   5.990
 4145HO4    HW116578   1.972   7.869   5.914
 4145HO4    HW216579   1.973   7.871   6.066
 4145HO4     MW16580   1.941   7.920   5.990
 4146HO4     OW16581   8.131   4.426   4.135
 4146HO4    HW116582   8.037   4.423   4.117
 4146HO4    HW216583   8.153   4.337   4.165
 4146HO4     MW16584   8.131   4.426   4.135
 4147HO4     OW16585   5.310   7.433   5.489
 4147HO4    HW116586   5.296   7.526   5.507
 4147HO4    HW216587   5.360   7.432   5.407
 4147HO4     MW16588   5.310   7.433   5.489
 4148HO4     OW16589   8.657   1.135   8.446
 4148HO4    HW116590   8.627   1.152   8.356
 4148HO4    HW216591   8.746   1.170   8.449
 4148HO4     MW16592   8.657   1.135   8.446
 4149HO4     OW16593   5.468   2.537   9.166
 4149HO4    HW116594   5.494   2.453   9.205
 4149HO4    HW216595   5.548   2.570   9.125
 4149HO4     MW16596   5.468   2.537   9.166
 4150HO4     OW16597   3.582   0.406   4.013
 4150HO4    HW116598   3.494   0.444   4.007
 4150HO4    HW216599   3.577   0.326   3.960
 4150HO4     MW16600   3.582   0.406   4.013
 4151HO4     OW16601   6.705   8.924   4.021
 4151HO4    HW116602   6.733   8.869   4.096
 4151HO4    HW216603   6.614   8.948   4.042
 4151HO4     MW16604   6.705   8.924   4.021
 4152HO4     OW16605   2.313   7.269   3.256
 4152HO4    HW116606   2.288   7.317   3.336
 4152HO4    HW216607   2.297   7.332   3.185
 4152HO4     MW16608   2.313   7.269   3.256
 4153HO4     OW16609   3.230   5.595   9.164
 4153HO4    HW116610   3.316   5.631   9.185
 4153HO4    HW216611   3.246   5.537   9.089
 4153HO4     MW16612   3.230   5.595   9.164
 4154HO4     OW16613   0.950   1.166  10.035
 4154HO4    HW116614   0.973   1.094   9.975
 4154HO4    HW216615   0.874   1.132  10.085
 4154HO4     MW16616   0.950   1.166  10.035
 4155HO4     OW16617   5.008   4.556   3.688
 4155HO4    HW116618   5.040   4.476   3.646
 4155HO4    HW216619   5.043   4.628   3.634
 4155HO4     MW16620   5.008   4.556   3.688
 4156HO4     OW16621   2.296   6.927   4.760
 4156HO4    HW116622   2.347   6.904   4.681
 4156HO4    HW216623   2.362   6.932   4.830
 4156HO4     MW16624   2.296   6.927   4.760
 4157HO4     OW16625   8.049   5.481   9.424
 4157HO4    HW116626   8.121   5.488   9.361
 4157HO4    HW216627   8.018   5.390   9.415
 4157HO4     MW16628   8.049   5.481   9.424
 4158HO4     OW16629   3.923   2.305   4.592
 4158HO4    HW116630   3.829   2.300   4.613
 4158HO4    HW216631   3.967   2.300   4.677
 4158HO4     MW16632   3.923   2.305   4.592
 4159HO4     OW16633   8.429   0.952   2.232
 4159HO4    HW116634   8.506   0.896   2.224
 4159HO4    HW216635   8.461   1.031   2.277
 4159HO4     MW16636   8.429   0.952   2.232
 4160HO4     OW16637   4.870   3.043   6.745
 4160HO4    HW116638   4.781   3.060   6.712
 4160HO4    HW216639   4.925   3.108   6.702
 4160HO4     MW16640   4.870   3.043   6.745
 4161HO4     OW16641   9.758   5.352   2.778
 4161HO4    HW116642   9.823   5.371   2.847
 4161HO4    HW216643   9.802   5.287   2.722
 4161HO4     MW16644   9.758   5.352   2.778
 4162HO4     OW16645   7.279   5.009   1.842
 4162HO4    HW116646   7.245   5.020   1.752
 4162HO4    HW216647   7.236   4.929   1.873
 4162HO4     MW16648   7.279   5.009   1.842
 4163HO4     OW16649   3.391   9.629   1.533
 4163HO4    HW116650   3.315   9.646   1.589
 4163HO4    HW216651   3.358   9.569   1.466
 4163HO4     MW16652   3.391   9.629   1.533
 4164HO4     OW16653   7.261   6.556   5.465
 4164HO4    HW116654   7.276   6.519   5.378
 4164HO4    HW216655   7.167   6.543   5.482
 4164HO4     MW16656   7.261   6.556   5.465
 4165HO4     OW16657   7.040   6.663   9.696
 4165HO4    HW116658   7.127   6.643   9.658
 4165HO4    HW216659   6.985   6.589   9.669
 4165HO4     MW16660   7.040   6.663   9.696
 4166HO4     OW16661   8.608   3.328   3.793
 4166HO4    HW116662   8.636   3.257   3.735
 4166HO4    HW216663   8.571   3.283   3.870
 4166HO4     MW16664   8.608   3.328   3.793
 4167HO4     OW16665   7.332   8.316   4.317
 4167HO4    HW116666   7.312   8.225   4.340
 4167HO4    HW216667   7.254   8.348   4.271
 4167HO4     MW16668   7.332   8.316   4.317
 4168HO4     OW16669   7.196   0.922   8.153
 4168HO4    HW116670   7.249   0.849   8.120
 4168HO4    HW216671   7.259   0.995   8.163
 4168HO4     MW16672   7.196   0.922   8.153
 4169HO4     OW16673   3.870   0.536   1.291
 4169HO4    HW116674   3.818   0.588   1.229
 4169HO4    HW216675   3.858   0.581   1.375
 4169HO4     MW16676   3.870   0.536   1.291
 4170HO4     OW16677   3.934   5.582   3.382
 4170HO4    HW116678   3.868   5.634   3.430
 4170HO4    HW216679   3.887   5.549   3.305
 4170HO4     MW16680   3.934   5.582   3.382
 4171HO4     OW16681   2.649   2.774   9.276
 4171HO4    HW116682   2.632   2.732   9.191
 4171HO4    HW216683   2.719   2.837   9.258
 4171HO4     MW16684   2.649   2.774   9.276
 4172HO4     OW16685   5.310   0.524   5.897
 4172HO4    HW116686   5.286   0.519   5.804
 4172HO4    HW216687   5.225   0.531   5.943
 4172HO4     MW16688   5.310   0.524   5.897
 4173HO4     OW16689   3.035   0.541   4.066
 4173HO4    HW116690   3.050   0.555   3.972
 4173HO4    HW216691   3.118   0.564   4.107
 4173HO4     MW16692   3.035   0.541   4.066
 4174HO4     OW16693  -0.005   4.903   0.892
 4174HO4    HW116694   0.088   4.925   0.904
 4174HO4    HW216695  -0.053   4.982   0.919
 4174HO4     MW16696  -0.005   4.903   0.892
 4175HO4     OW16697   4.388   7.313   0.408
 4175HO4    HW116698   4.435   7.362   0.339
 4175HO4    HW216699   4.309   7.365   0.425
 4175HO4     MW16700   4.388   7.313   0.408
 4176HO4     OW16701   3.462   2.638   6.088
 4176HO4    HW116702   3.554   2.612   6.094
 4176HO4    HW216703   3.446   2.689   6.168
 4176HO4     MW16704   3.462   2.638   6.088
 4177HO4     OW16705   8.506   5.739   0.933
 4177HO4    HW116706   8.589   5.698   0.957
 4177HO4    HW216707   8.486   5.798   1.007
 4177HO4     MW16708   8.506   5.739   0.933
 4178HO4     OW16709   7.019   8.291   7.580
 4178HO4    HW116710   7.075   8.363   7.548
 4178HO4    HW216711   6.996   8.317   7.670
 4178HO4     MW16712   7.019   8.291   7.580
 4179HO4     OW16713   3.982   3.010   3.223
 4179HO4    HW116714   3.997   2.980   3.133
 4179HO4    HW216715   4.061   3.061   3.245
 4179HO4     MW16716   3.982   3.010   3.223
 4180HO4     OW16717   4.647   3.047   9.039
 4180HO4    HW116718   4.635   3.125   8.985
 4180HO4    HW216719   4.561   3.033   9.081
 4180HO4     MW16720   4.647   3.047   9.039
 4181HO4     OW16721   6.015   1.226   7.421
 4181HO4    HW116722   6.066   1.271   7.353
 4181HO4    HW216723   6.081   1.199   7.486
 4181HO4     MW16724   6.015   1.226   7.421
 4182HO4     OW16725   8.144   3.474   9.299
 4182HO4    HW116726   8.108   3.387   9.315
 4182HO4    HW216727   8.068   3.527   9.273
 4182HO4     MW16728   8.144   3.474   9.299
 4183HO4     OW16729   5.873   8.482   3.839
 4183HO4    HW116730   5.904   8.479   3.748
 4183HO4    HW216731   5.896   8.571   3.869
 4183HO4     MW16732   5.873   8.482   3.839
 4184HO4     OW16733   1.197   1.711   6.315
 4184HO4    HW116734   1.259   1.647   6.278
 4184HO4    HW216735   1.181   1.680   6.405
 4184HO4     MW16736   1.197   1.711   6.315
 4185HO4     OW16737   8.780   5.926   6.337
 4185HO4    HW116738   8.786   5.830   6.326
 4185HO4    HW216739   8.764   5.939   6.430
 4185HO4     MW16740   8.780   5.926   6.337
 4186HO4     OW16741   7.639  10.106   4.155
 4186HO4    HW116742   7.649  10.038   4.223
 4186HO4    HW216743   7.662  10.062   4.073
 4186HO4     MW16744   7.639  10.106   4.155
 4187HO4     OW16745   7.072   0.190   4.438
 4187HO4    HW116746   7.046   0.187   4.530
 4187HO4    HW216747   7.138   0.120   4.430
 4187HO4     MW16748   7.072   0.190   4.438
 4188HO4     OW16749   1.143   7.173   1.747
 4188HO4    HW116750   1.130   7.140   1.658
 4188HO4    HW216751   1.177   7.098   1.796
 4188HO4     MW16752   1.143   7.173   1.747
 4189HO4     OW16753   0.503   9.231   4.089
 4189HO4    HW116754   0.544   9.227   4.002
 4189HO4    HW216755   0.511   9.324   4.115
 4189HO4     MW16756   0.503   9.231   4.089
 4190HO4     OW16757   0.924   8.491   0.822
 4190HO4    HW116758   0.974   8.418   0.861
 4190HO4    HW216759   0.916   8.555   0.893
 4190HO4     MW16760   0.924   8.491   0.822
 4191HO4     OW16761   9.284   7.964   3.347
 4191HO4    HW116762   9.220   7.892   3.346
 4191HO4    HW216763   9.265   8.015   3.268
 4191HO4     MW16764   9.284   7.964   3.347
 4192HO4     OW16765   1.731   8.086   1.465
 4192HO4    HW116766   1.742   8.164   1.520
 4192HO4    HW216767   1.684   8.118   1.388
 4192HO4     MW16768   1.731   8.086   1.465
 4193HO4     OW16769   2.081   6.842   5.082
 4193HO4    HW116770   2.056   6.899   5.008
 4193HO4    HW216771   2.086   6.754   5.043
 4193HO4     MW16772   2.081   6.842   5.082
 4194HO4     OW16773   6.626   5.564   9.129
 4194HO4    HW116774   6.633   5.599   9.040
 4194HO4    HW216775   6.595   5.474   9.117
 4194HO4     MW16776   6.626   5.564   9.129
 4195HO4     OW16777   3.915   5.384   0.310
 4195HO4    HW116778   3.870   5.466   0.288
 4195HO4    HW216779   3.915   5.335   0.227
 4195HO4     MW16780   3.915   5.384   0.310
 4196HO4     OW16781   7.439   4.419   4.563
 4196HO4    HW116782   7.355   4.465   4.578
 4196HO4    HW216783   7.464   4.387   4.650
 4196HO4     MW16784   7.439   4.419   4.563
 4197HO4     OW16785   7.719   4.971   4.237
 4197HO4    HW116786   7.698   5.061   4.264
 4197HO4    HW216787   7.680   4.916   4.306
 4197HO4     MW16788   7.719   4.971   4.237
 4198HO4     OW16789   1.083   7.226   6.612
 4198HO4    HW116790   1.112   7.192   6.527
 4198HO4    HW216791   1.150   7.197   6.674
 4198HO4     MW16792   1.083   7.226   6.612
 4199HO4     OW16793   1.992   5.109   3.815
 4199HO4    HW116794   2.044   5.139   3.890
 4199HO4    HW216795   2.042   5.138   3.738
 4199HO4     MW16796   1.992   5.109   3.815
 4200HO4     OW16797   2.495   2.369   3.546
 4200HO4    HW116798   2.517   2.358   3.639
 4200HO4    HW216799   2.416   2.316   3.534
 4200HO4     MW16800   2.495   2.369   3.546
 4201HO4     OW16801   2.527   4.334   1.256
 4201HO4    HW116802   2.531   4.415   1.205
 4201HO4    HW216803   2.600   4.341   1.317
 4201HO4     MW16804   2.527   4.334   1.256
 4202HO4     OW16805   5.616   3.001   5.819
 4202HO4    HW116806   5.524   2.977   5.832
 4202HO4    HW216807   5.621   3.028   5.727
 4202HO4     MW16808   5.616   3.001   5.819
 4203HO4     OW16809   4.171   9.661   9.553
 4203HO4    HW116810   4.187   9.660   9.648
 4203HO4    HW216811   4.076   9.646   9.546
 4203HO4     MW16812   4.171   9.661   9.553
 4204HO4     OW16813   0.765   3.717   8.513
 4204HO4    HW116814   0.684   3.769   8.508
 4204HO4    HW216815   0.822   3.767   8.571
 4204HO4     MW16816   0.765   3.717   8.513
 4205HO4     OW16817   2.679   1.831   9.195
 4205HO4    HW116818   2.630   1.783   9.263
 4205HO4    HW216819   2.721   1.762   9.143
 4205HO4     MW16820   2.679   1.831   9.195
 4206HO4     OW16821   8.693   9.119   5.207
 4206HO4    HW116822   8.749   9.183   5.163
 4206HO4    HW216823   8.679   9.050   5.141
 4206HO4     MW16824   8.693   9.119   5.207
 4207HO4     OW16825   4.789   1.078   4.713
 4207HO4    HW116826   4.779   0.985   4.735
 4207HO4    HW216827   4.759   1.084   4.621
 4207HO4     MW16828   4.789   1.078   4.713
 4208HO4     OW16829   8.482   0.939   0.785
 4208HO4    HW116830   8.529   0.873   0.733
 4208HO4    HW216831   8.450   1.002   0.721
 4208HO4     MW16832   8.482   0.939   0.785
 4209HO4     OW16833   9.876   6.551   7.340
 4209HO4    HW116834   9.860   6.614   7.269
 4209HO4    HW216835   9.909   6.472   7.296
 4209HO4     MW16836   9.876   6.551   7.340
 4210HO4     OW16837   8.747   4.394   9.512
 4210HO4    HW116838   8.689   4.440   9.574
 4210HO4    HW216839   8.777   4.317   9.562
 4210HO4     MW16840   8.747   4.394   9.512
 4211HO4     OW16841   5.125   8.922   2.985
 4211HO4    HW116842   5.075   8.936   2.904
 4211HO4    HW216843   5.159   9.009   3.008
 4211HO4     MW16844   5.125   8.922   2.985
 4212HO4     OW16845   3.722   4.136   8.735
 4212HO4    HW116846   3.724   4.041   8.754
 4212HO4    HW216847   3.769   4.176   8.809
 4212HO4     MW16848   3.722   4.136   8.735
 4213HO4     OW16849   9.469   9.571   3.676
 4213HO4    HW116850   9.396   9.520   3.638
 4213HO4    HW216851   9.494   9.522   3.755
 4213HO4     MW16852   9.469   9.571   3.676
 4214HO4     OW16853   6.144   7.494   6.258
 4214HO4    HW116854   6.186   7.475   6.174
 4214HO4    HW216855   6.208   7.463   6.324
 4214HO4     MW16856   6.144   7.494   6.258
 4215HO4     OW16857   5.714   8.832   5.640
 4215HO4    HW116858   5.688   8.862   5.727
 4215HO4    HW216859   5.694   8.906   5.582
 4215HO4     MW16860   5.714   8.832   5.640
 4216HO4     OW16861   1.294   0.473   3.418
 4216HO4    HW116862   1.349   0.443   3.345
 4216HO4    HW216863   1.350   0.462   3.496
 4216HO4     MW16864   1.294   0.473   3.418
 4217HO4     OW16865   9.956   0.219   7.921
 4217HO4    HW116866  10.006   0.186   7.996
 4217HO4    HW216867  10.009   0.196   7.844
 4217HO4     MW16868   9.956   0.219   7.921
 4218HO4     OW16869   0.761   2.452   2.734
 4218HO4    HW116870   0.680   2.442   2.785
 4218HO4    HW216871   0.782   2.545   2.741
 4218HO4     MW16872   0.761   2.452   2.734
 4219HO4     OW16873   2.988   9.699   4.391
 4219HO4    HW116874   2.976   9.754   4.313
 4219HO4    HW216875   2.968   9.758   4.465
 4219HO4     MW16876   2.988   9.699   4.391
 4220HO4     OW16877   9.606   1.838   4.047
 4220HO4    HW116878   9.591   1.930   4.025
 4220HO4    HW216879   9.529   1.792   4.012
 4220HO4     MW16880   9.606   1.838   4.047
 4221HO4     OW16881   5.023   8.928   8.587
 4221HO4    HW116882   5.025   8.964   8.497
 4221HO4    HW216883   4.962   8.854   8.582
 4221HO4     MW16884   5.023   8.928   8.587
 4222HO4     OW16885   4.165   2.827   3.095
 4222HO4    HW116886   4.157   2.915   3.056
 4222HO4    HW216887   4.074   2.800   3.111
 4222HO4     MW16888   4.165   2.827   3.095
 4223HO4     OW16889   5.276   5.720   5.227
 4223HO4    HW116890   5.229   5.686   5.150
 4223HO4    HW216891   5.230   5.681   5.301
 4223HO4     MW16892   5.276   5.720   5.227
 4224HO4     OW16893   9.596   6.886   1.869
 4224HO4    HW116894   9.650   6.834   1.809
 4224HO4    HW216895   9.634   6.975   1.864
 4224HO4     MW16896   9.596   6.886   1.869
 4225HO4     OW16897   9.259   6.422   1.562
 4225HO4    HW116898   9.243   6.385   1.650
 4225HO4    HW216899   9.244   6.348   1.503
 4225HO4     MW16900   9.259   6.422   1.562
 4226HO4     OW16901   2.395   2.363   7.229
 4226HO4    HW116902   2.323   2.318   7.274
 4226HO4    HW216903   2.404   2.446   7.277
 4226HO4     MW16904   2.395   2.363   7.229
 4227HO4     OW16905   2.085   9.236   2.096
 4227HO4    HW116906   2.146   9.301   2.059
 4227HO4    HW216907   2.142   9.177   2.147
 4227HO4     MW16908   2.085   9.236   2.096
 4228HO4     OW16909   2.295   6.539   0.429
 4228HO4    HW116910   2.258   6.499   0.508
 4228HO4    HW216911   2.365   6.596   0.461
 4228HO4     MW16912   2.295   6.539   0.429
 4229HO4     OW16913   6.771   7.172   6.496
 4229HO4    HW116914   6.682   7.195   6.467
 4229HO4    HW216915   6.771   7.190   6.590
 4229HO4     MW16916   6.771   7.172   6.496
 4230HO4     OW16917   3.104   0.965   6.495
 4230HO4    HW116918   3.070   0.998   6.579
 4230HO4    HW216919   3.043   1.000   6.429
 4230HO4     MW16920   3.104   0.965   6.495
 4231HO4     OW16921   3.520   9.901   0.915
 4231HO4    HW116922   3.525   9.963   0.841
 4231HO4    HW216923   3.550   9.953   0.990
 4231HO4     MW16924   3.520   9.901   0.915
 4232HO4     OW16925   6.927   9.548   1.132
 4232HO4    HW116926   7.019   9.572   1.117
 4232HO4    HW216927   6.923   9.527   1.226
 4232HO4     MW16928   6.927   9.548   1.132
 4233HO4     OW16929   9.017  10.108   4.080
 4233HO4    HW116930   8.946  10.069   4.132
 4233HO4    HW216931   9.008  10.069   3.993
 4233HO4     MW16932   9.017  10.108   4.080
 4234HO4     OW16933   6.875   7.280   1.226
 4234HO4    HW116934   6.922   7.202   1.259
 4234HO4    HW216935   6.932   7.314   1.156
 4234HO4     MW16936   6.875   7.280   1.226
 4235HO4     OW16937   6.629   9.573   2.412
 4235HO4    HW116938   6.720   9.554   2.387
 4235HO4    HW216939   6.600   9.639   2.349
 4235HO4     MW16940   6.629   9.573   2.412
 4236HO4     OW16941   4.206   2.453   9.994
 4236HO4    HW116942   4.196   2.549  10.000
 4236HO4    HW216943   4.186   2.422  10.083
 4236HO4     MW16944   4.206   2.453   9.994
 4237HO4     OW16945   2.943   0.855   8.194
 4237HO4    HW116946   2.848   0.842   8.202
 4237HO4    HW216947   2.980   0.803   8.266
 4237HO4     MW16948   2.943   0.855   8.194
 4238HO4     OW16949   5.630   5.011   4.126
 4238HO4    HW116950   5.663   4.931   4.086
 4238HO4    HW216951   5.621   5.073   4.052
 4238HO4     MW16952   5.630   5.011   4.126
 4239HO4     OW16953   8.825   8.650   6.434
 4239HO4    HW116954   8.854   8.584   6.498
 4239HO4    HW216955   8.844   8.610   6.349
 4239HO4     MW16956   8.825   8.650   6.434
 4240HO4     OW16957   3.693   1.181   0.649
 4240HO4    HW116958   3.747   1.136   0.715
 4240HO4    HW216959   3.605   1.183   0.688
 4240HO4     MW16960   3.693   1.181   0.649
 4241HO4     OW16961   2.865   7.415   2.317
 4241HO4    HW116962   2.808   7.422   2.395
 4241HO4    HW216963   2.807   7.435   2.243
 4241HO4     MW16964   2.865   7.415   2.317
 4242HO4     OW16965   5.619   0.262   9.655
 4242HO4    HW116966   5.653   0.188   9.603
 4242HO4    HW216967   5.682   0.273   9.726
 4242HO4     MW16968   5.619   0.262   9.655
 4243HO4     OW16969   0.553   6.869   4.465
 4243HO4    HW116970   0.475   6.916   4.433
 4243HO4    HW216971   0.552   6.786   4.416
 4243HO4     MW16972   0.553   6.869   4.465
 4244HO4     OW16973   7.481   1.726   4.107
 4244HO4    HW116974   7.398   1.677   4.108
 4244HO4    HW216975   7.548   1.659   4.091
 4244HO4     MW16976   7.481   1.726   4.107
 4245HO4     OW16977   8.351   7.237   3.974
 4245HO4    HW116978   8.432   7.283   3.952
 4245HO4    HW216979   8.367   7.202   4.063
 4245HO4     MW16980   8.351   7.237   3.974
 4246HO4     OW16981   1.128   3.596   5.190
 4246HO4    HW116982   1.103   3.607   5.098
 4246HO4    HW216983   1.045   3.586   5.237
 4246HO4     MW16984   1.128   3.596   5.190
 4247HO4     OW16985   4.151   8.934   7.472
 4247HO4    HW116986   4.055   8.933   7.462
 4247HO4    HW216987   4.174   9.027   7.468
 4247HO4     MW16988   4.151   8.934   7.472
 4248HO4     OW16989   7.037   7.309   7.096
 4248HO4    HW116990   7.128   7.286   7.117
 4248HO4    HW216991   7.040   7.334   7.003
 4248HO4     MW16992   7.037   7.309   7.096
 4249HO4     OW16993   2.309   4.475   4.598
 4249HO4    HW116994   2.243   4.440   4.659
 4249HO4    HW216995   2.284   4.567   4.586
 4249HO4     MW16996   2.309   4.475   4.598
 4250HO4     OW16997   3.972   0.362   3.106
 4250HO4    HW116998   3.993   0.296   3.173
 4250HO4    HW216999   4.057   0.398   3.080
 4250HO4     MW17000   3.972   0.362   3.106
 4251HO4     OW17001   1.803   3.994   2.059
 4251HO4    HW117002   1.810   4.084   2.091
 4251HO4    HW217003   1.781   3.942   2.137
 4251HO4     MW17004   1.803   3.994   2.059
 4252HO4     OW17005   7.044   8.662   2.016
 4252HO4    HW117006   7.028   8.639   2.108
 4252HO4    HW217007   7.098   8.589   1.983
 4252HO4     MW17008   7.044   8.662   2.016
 4253HO4     OW17009   3.052   5.084   2.859
 4253HO4    HW117010   3.036   4.991   2.840
 4253HO4    HW217011   3.086   5.085   2.949
 4253HO4     MW17012   3.052   5.084   2.859
 4254HO4     OW17013   8.448   8.734   0.580
 4254HO4    HW117014   8.485   8.651   0.614
 4254HO4    HW217015   8.395   8.706   0.505
 4254HO4     MW17016   8.448   8.734   0.580
 4255HO4     OW17017   2.456   7.065   5.179
 4255HO4    HW117018   2.510   7.086   5.103
 4255HO4    HW217019   2.507   7.097   5.254
 4255HO4     MW17020   2.456   7.065   5.179
 4256HO4     OW17021   5.382   1.451   4.113
 4256HO4    HW117022   5.327   1.419   4.185
 4256HO4    HW217023   5.323   1.508   4.062
 4256HO4     MW17024   5.382   1.451   4.113
 4257HO4     OW17025   8.920   2.984   5.016
 4257HO4    HW117026   8.869   2.984   4.934
 4257HO4    HW217027   8.853   2.988   5.085
 4257HO4     MW17028   8.920   2.984   5.016
 4258HO4     OW17029   8.854   9.698   3.745
 4258HO4    HW117030   8.839   9.729   3.835
 4258HO4    HW217031   8.783   9.739   3.694
 4258HO4     MW17032   8.854   9.698   3.745
 4259HO4     OW17033   2.542   1.116   5.125
 4259HO4    HW117034   2.613   1.070   5.079
 4259HO4    HW217035   2.485   1.046   5.157
 4259HO4     MW17036   2.542   1.116   5.125
 4260HO4     OW17037   4.419   4.771   6.787
 4260HO4    HW117038   4.370   4.773   6.870
 4260HO4    HW217039   4.436   4.677   6.772
 4260HO4     MW17040   4.419   4.771   6.787
 4261HO4     OW17041   0.365   6.615   3.312
 4261HO4    HW117042   0.406   6.696   3.282
 4261HO4    HW217043   0.345   6.567   3.231
 4261HO4     MW17044   0.365   6.615   3.312
 4262HO4     OW17045   3.860   9.780   8.180
 4262HO4    HW117046   3.827   9.778   8.271
 4262HO4    HW217047   3.937   9.722   8.181
 4262HO4     MW17048   3.860   9.780   8.180
 4263HO4     OW17049   6.998   2.687   4.185
 4263HO4    HW117050   6.971   2.765   4.136
 4263HO4    HW217051   7.006   2.716   4.276
 4263HO4     MW17052   6.998   2.687   4.185
 4264HO4     OW17053   9.684   0.376   7.178
 4264HO4    HW117054   9.620   0.432   7.223
 4264HO4    HW217055   9.639   0.348   7.098
 4264HO4     MW17056   9.684   0.376   7.178
 4265HO4     OW17057   5.603   0.408   1.581
 4265HO4    HW117058   5.539   0.400   1.652
 4265HO4    HW217059   5.562   0.470   1.519
 4265HO4     MW17060   5.603   0.408   1.581
 4266HO4     OW17061   2.063   4.339   2.205
 4266HO4    HW117062   1.976   4.314   2.173
 4266HO4    HW217063   2.081   4.423   2.163
 4266HO4     MW17064   2.063   4.339   2.205
 4267HO4     OW17065   8.907   3.452   6.915
 4267HO4    HW117066   8.938   3.470   7.004
 4267HO4    HW217067   8.839   3.519   6.900
 4267HO4     MW17068   8.907   3.452   6.915
 4268HO4     OW17069   0.828   0.035   9.585
 4268HO4    HW117070   0.815  -0.055   9.554
 4268HO4    HW217071   0.829   0.028   9.681
 4268HO4     MW17072   0.828   0.035   9.585
 4269HO4     OW17073   7.494   2.090   2.317
 4269HO4    HW117074   7.456   2.091   2.228
 4269HO4    HW217075   7.432   2.141   2.370
 4269HO4     MW17076   7.494   2.090   2.317
 4270HO4     OW17077   8.090   9.690   2.052
 4270HO4    HW117078   8.116   9.772   2.096
 4270HO4    HW217079   8.009   9.713   2.005
 4270HO4     MW17080   8.090   9.690   2.052
 4271HO4     OW17081   9.562   1.838   6.927
 4271HO4    HW117082   9.527   1.916   6.972
 4271HO4    HW217083   9.549   1.856   6.834
 4271HO4     MW17084   9.562   1.838   6.927
 4272HO4     OW17085  10.142   3.425   5.851
 4272HO4    HW117086  10.089   3.361   5.899
 4272HO4    HW217087  10.131   3.507   5.900
 4272HO4     MW17088  10.142   3.425   5.851
 4273HO4     OW17089   7.846  10.110   5.029
 4273HO4    HW117090   7.922  10.053   5.012
 4273HO4    HW217091   7.806  10.072   5.108
 4273HO4     MW17092   7.846  10.110   5.029
 4274HO4     OW17093   8.303   3.201   1.176
 4274HO4    HW117094   8.358   3.170   1.103
 4274HO4    HW217095   8.353   3.179   1.255
 4274HO4     MW17096   8.303   3.201   1.176
 4275HO4     OW17097   2.736   7.278   1.825
 4275HO4    HW117098   2.810   7.241   1.777
 4275HO4    HW217099   2.773   7.353   1.873
 4275HO4     MW17100   2.736   7.278   1.825
 4276HO4     OW17101   4.265   1.507   4.355
 4276HO4    HW117102   4.235   1.447   4.286
 4276HO4    HW217103   4.240   1.595   4.322
 4276HO4     MW17104   4.265   1.507   4.355
 4277HO4     OW17105   8.505   6.634   3.894
 4277HO4    HW117106   8.461   6.600   3.973
 4277HO4    HW217107   8.453   6.599   3.821
 4277HO4     MW17108   8.505   6.634   3.894
 4278HO4     OW17109   3.442   1.432   5.601
 4278HO4    HW117110   3.403   1.383   5.529
 4278HO4    HW217111   3.417   1.383   5.680
 4278HO4     MW17112   3.442   1.432   5.601
 4279HO4     OW17113   3.004   0.522   5.777
 4279HO4    HW117114   3.051   0.506   5.694
 4279HO4    HW217115   3.037   0.454   5.836
 4279HO4     MW17116   3.004   0.522   5.777
 4280HO4     OW17117   4.039   4.427   1.205
 4280HO4    HW117118   4.041   4.355   1.268
 4280HO4    HW217119   3.981   4.493   1.245
 4280HO4     MW17120   4.039   4.427   1.205
 4281HO4     OW17121   7.748   9.163   4.164
 4281HO4    HW117122   7.823   9.202   4.118
 4281HO4    HW217123   7.727   9.226   4.233
 4281HO4     MW17124   7.748   9.163   4.164
 4282HO4     OW17125   9.181   4.940   7.275
 4282HO4    HW117126   9.179   4.899   7.363
 4282HO4    HW217127   9.139   4.875   7.218
 4282HO4     MW17128   9.181   4.940   7.275
 4283HO4     OW17129   0.773   0.308   0.580
 4283HO4    HW117130   0.815   0.311   0.666
 4283HO4    HW217131   0.731   0.394   0.571
 4283HO4     MW17132   0.773   0.308   0.580
 4284HO4     OW17133   9.771   3.033   2.070
 4284HO4    HW117134   9.721   3.023   2.152
 4284HO4    HW217135   9.787   3.128   2.064
 4284HO4     MW17136   9.771   3.033   2.070
 4285HO4     OW17137   3.104   1.171   6.857
 4285HO4    HW117138   3.185   1.218   6.881
 4285HO4    HW217139   3.055   1.234   6.804
 4285HO4     MW17140   3.104   1.171   6.857
 4286HO4     OW17141   7.449   6.304   5.759
 4286HO4    HW117142   7.395   6.276   5.834
 4286HO4    HW217143   7.399   6.275   5.682
 4286HO4     MW17144   7.449   6.304   5.759
 4287HO4     OW17145   5.756   5.724   7.437
 4287HO4    HW117146   5.813   5.754   7.365
 4287HO4    HW217147   5.806   5.742   7.517
 4287HO4     MW17148   5.756   5.724   7.437
 4288HO4     OW17149   0.858   8.981   1.538
 4288HO4    HW117150   0.897   8.931   1.609
 4288HO4    HW217151   0.886   8.936   1.458
 4288HO4     MW17152   0.858   8.981   1.538
 4289HO4     OW17153   9.817   9.041   1.873
 4289HO4    HW117154   9.876   9.010   1.942
 4289HO4    HW217155   9.861   9.016   1.791
 4289HO4     MW17156   9.817   9.041   1.873
 4290HO4     OW17157   4.211   6.664   7.199
 4290HO4    HW117158   4.163   6.607   7.137
 4290HO4    HW217159   4.142   6.698   7.257
 4290HO4     MW17160   4.211   6.664   7.199
 4291HO4     OW17161   2.579   0.174   1.604
 4291HO4    HW117162   2.675   0.161   1.605
 4291HO4    HW217163   2.544   0.091   1.571
 4291HO4     MW17164   2.579   0.174   1.604
 4292HO4     OW17165   0.034   2.167   5.817
 4292HO4    HW117166   0.080   2.149   5.900
 4292HO4    HW217167   0.049   2.261   5.802
 4292HO4     MW17168   0.034   2.167   5.817
 4293HO4     OW17169   6.150   9.579   4.778
 4293HO4    HW117170   6.155   9.653   4.716
 4293HO4    HW217171   6.161   9.619   4.864
 4293HO4     MW17172   6.150   9.579   4.778
 4294HO4     OW17173   3.479   8.376   8.523
 4294HO4    HW117174   3.522   8.422   8.450
 4294HO4    HW217175   3.526   8.408   8.602
 4294HO4     MW17176   3.479   8.376   8.523
 4295HO4     OW17177   2.311   2.851   0.973
 4295HO4    HW117178   2.247   2.790   0.934
 4295HO4    HW217179   2.392   2.837   0.924
 4295HO4     MW17180   2.311   2.851   0.973
 4296HO4     OW17181   5.841   5.844   0.470
 4296HO4    HW117182   5.830   5.837   0.565
 4296HO4    HW217183   5.924   5.893   0.459
 4296HO4     MW17184   5.841   5.844   0.470
 4297HO4     OW17185   9.219   4.428   5.841
 4297HO4    HW117186   9.308   4.422   5.804
 4297HO4    HW217187   9.160   4.421   5.765
 4297HO4     MW17188   9.219   4.428   5.841
 4298HO4     OW17189   0.251   4.840   1.344
 4298HO4    HW117190   0.237   4.872   1.254
 4298HO4    HW217191   0.269   4.746   1.333
 4298HO4     MW17192   0.251   4.840   1.344
 4299HO4     OW17193   7.493   7.701   7.980
 4299HO4    HW117194   7.455   7.685   8.067
 4299HO4    HW217195   7.456   7.786   7.953
 4299HO4     MW17196   7.493   7.701   7.980
 4300HO4     OW17197   5.626   0.101   6.111
 4300HO4    HW117198   5.655   0.072   6.199
 4300HO4    HW217199   5.563   0.171   6.129
 4300HO4     MW17200   5.626   0.101   6.111
 4301HO4     OW17201   3.264   5.243   2.405
 4301HO4    HW117202   3.316   5.322   2.390
 4301HO4    HW217203   3.173   5.272   2.393
 4301HO4     MW17204   3.264   5.243   2.405
 4302HO4     OW17205   1.806   9.319   1.065
 4302HO4    HW117206   1.886   9.365   1.095
 4302HO4    HW217207   1.758   9.300   1.146
 4302HO4     MW17208   1.806   9.319   1.065
 4303HO4     OW17209   4.182   7.729   2.794
 4303HO4    HW117210   4.105   7.781   2.821
 4303HO4    HW217211   4.255   7.768   2.842
 4303HO4     MW17212   4.182   7.729   2.794
 4304HO4     OW17213   4.264   3.034   4.696
 4304HO4    HW117214   4.279   3.021   4.790
 4304HO4    HW217215   4.233   3.125   4.689
 4304HO4     MW17216   4.264   3.034   4.696
 4305HO4     OW17217   4.203   7.584   4.259
 4305HO4    HW117218   4.289   7.626   4.272
 4305HO4    HW217219   4.212   7.498   4.302
 4305HO4     MW17220   4.203   7.584   4.259
 4306HO4     OW17221   3.090   6.351   6.318
 4306HO4    HW117222   3.042   6.300   6.384
 4306HO4    HW217223   3.181   6.322   6.327
 4306HO4     MW17224   3.090   6.351   6.318
 4307HO4     OW17225   1.601   2.220   1.403
 4307HO4    HW117226   1.579   2.273   1.480
 4307HO4    HW217227   1.539   2.249   1.335
 4307HO4     MW17228   1.601   2.220   1.403
 4308HO4     OW17229  10.045   9.944   0.747
 4308HO4    HW117230   9.995   9.867   0.718
 4308HO4    HW217231  10.019  10.013   0.687
 4308HO4     MW17232  10.045   9.944   0.747
 4309HO4     OW17233   0.336   4.490   1.280
 4309HO4    HW117234   0.295   4.541   1.210
 4309HO4    HW217235   0.359   4.406   1.238
 4309HO4     MW17236   0.336   4.490   1.280
 4310HO4     OW17237   1.250   6.300   5.783
 4310HO4    HW117238   1.281   6.333   5.698
 4310HO4    HW217239   1.309   6.342   5.847
 4310HO4     MW17240   1.250   6.300   5.783
 4311HO4     OW17241   8.275   7.934   4.055
 4311HO4    HW117242   8.243   7.885   3.979
 4311HO4    HW217243   8.242   7.885   4.131
 4311HO4     MW17244   8.275   7.934   4.055
 4312HO4     OW17245   8.656   5.307   7.942
 4312HO4    HW117246   8.605   5.253   7.881
 4312HO4    HW217247   8.737   5.328   7.893
 4312HO4     MW17248   8.656   5.307   7.942
 4313HO4     OW17249  10.156   3.789   8.354
 4313HO4    HW117250  10.147   3.742   8.271
 4313HO4    HW217251  10.108   3.871   8.340
 4313HO4     MW17252  10.156   3.789   8.354
 4314HO4     OW17253   6.490   8.296   8.209
 4314HO4    HW117254   6.574   8.322   8.171
 4314HO4    HW217255   6.496   8.323   8.302
 4314HO4     MW17256   6.490   8.296   8.209
 4315HO4     OW17257   6.368   2.844   7.958
 4315HO4    HW117258   6.367   2.789   7.879
 4315HO4    HW217259   6.362   2.781   8.031
 4315HO4     MW17260   6.368   2.844   7.958
 4316HO4     OW17261   5.863   5.372   1.078
 4316HO4    HW117262   5.912   5.316   1.140
 4316HO4    HW217263   5.931   5.422   1.033
 4316HO4     MW17264   5.863   5.372   1.078
 4317HO4     OW17265   6.993   7.452   1.045
 4317HO4    HW117266   6.920   7.482   1.100
 4317HO4    HW217267   6.958   7.453   0.956
 4317HO4     MW17268   6.993   7.452   1.045
 4318HO4     OW17269   0.181   1.487   8.249
 4318HO4    HW117270   0.191   1.402   8.292
 4318HO4    HW217271   0.269   1.525   8.249
 4318HO4     MW17272   0.181   1.487   8.249
 4319HO4     OW17273   5.827   4.791   4.367
 4319HO4    HW117274   5.845   4.838   4.449
 4319HO4    HW217275   5.856   4.851   4.298
 4319HO4     MW17276   5.827   4.791   4.367
 4320HO4     OW17277   0.183   2.043   5.387
 4320HO4    HW117278   0.180   2.130   5.428
 4320HO4    HW217279   0.250   1.995   5.436
 4320HO4     MW17280   0.183   2.043   5.387
 4321HO4     OW17281   4.623   5.269   2.148
 4321HO4    HW117282   4.635   5.362   2.171
 4321HO4    HW217283   4.689   5.253   2.080
 4321HO4     MW17284   4.623   5.269   2.148
 4322HO4     OW17285   4.339   2.405   5.262
 4322HO4    HW117286   4.288   2.366   5.334
 4322HO4    HW217287   4.375   2.486   5.300
 4322HO4     MW17288   4.339   2.405   5.262
 4323HO4     OW17289   2.595   1.222   3.609
 4323HO4    HW117290   2.633   1.156   3.667
 4323HO4    HW217291   2.622   1.195   3.521
 4323HO4     MW17292   2.595   1.222   3.609
 4324HO4     OW17293   1.980   2.795  10.131
 4324HO4    HW117294   2.050   2.778  10.194
 4324HO4    HW217295   2.025   2.818  10.049
 4324HO4     MW17296   1.980   2.795  10.131
 4325HO4     OW17297   1.690   6.986   8.536
 4325HO4    HW117298   1.733   6.954   8.616
 4325HO4    HW217299   1.754   7.044   8.495
 4325HO4     MW17300   1.690   6.986   8.536
 4326HO4     OW17301   3.501   9.633   6.816
 4326HO4    HW117302   3.587   9.596   6.795
 4326HO4    HW217303   3.443   9.600   6.747
 4326HO4     MW17304   3.501   9.633   6.816
 4327HO4     OW17305   8.870   0.221   6.232
 4327HO4    HW117306   8.775   0.233   6.244
 4327HO4    HW217307   8.893   0.150   6.292
 4327HO4     MW17308   8.870   0.221   6.232
 4328HO4     OW17309   8.810   8.942   8.160
 4328HO4    HW117310   8.844   8.855   8.135
 4328HO4    HW217311   8.842   9.001   8.091
 4328HO4     MW17312   8.810   8.942   8.160
 4329HO4     OW17313   6.043   1.981   3.964
 4329HO4    HW117314   6.002   1.936   4.039
 4329HO4    HW217315   6.119   2.027   4.003
 4329HO4     MW17316   6.043   1.981   3.964
 4330HO4     OW17317   2.852   8.286   1.741
 4330HO4    HW117318   2.868   8.373   1.703
 4330HO4    HW217319   2.759   8.286   1.763
 4330HO4     MW17320   2.852   8.286   1.741
 4331HO4     OW17321   1.974   4.955   9.339
 4331HO4    HW117322   2.022   4.882   9.379
 4331HO4    HW217323   1.991   5.030   9.397
 4331HO4     MW17324   1.974   4.955   9.339
 4332HO4     OW17325   1.519   8.657   7.572
 4332HO4    HW117326   1.564   8.702   7.499
 4332HO4    HW217327   1.541   8.709   7.649
 4332HO4     MW17328   1.519   8.657   7.572
 4333HO4     OW17329   6.044   1.288   3.185
 4333HO4    HW117330   6.043   1.221   3.254
 4333HO4    HW217331   6.033   1.371   3.233
 4333HO4     MW17332   6.044   1.288   3.185
 4334HO4     OW17333   9.682   2.556   4.121
 4334HO4    HW117334   9.662   2.613   4.196
 4334HO4    HW217335   9.626   2.589   4.050
 4334HO4     MW17336   9.682   2.556   4.121
 4335HO4     OW17337   4.887   6.550   4.006
 4335HO4    HW117338   4.859   6.521   4.093
 4335HO4    HW217339   4.894   6.469   3.955
 4335HO4     MW17340   4.887   6.550   4.006
 4336HO4     OW17341   5.369   2.216   5.503
 4336HO4    HW117342   5.309   2.291   5.503
 4336HO4    HW217343   5.421   2.227   5.423
 4336HO4     MW17344   5.369   2.216   5.503
 4337HO4     OW17345   5.928   8.724   4.697
 4337HO4    HW117346   5.928   8.635   4.661
 4337HO4    HW217347   5.869   8.721   4.772
 4337HO4     MW17348   5.928   8.724   4.697
 4338HO4     OW17349   3.230   8.417   4.769
 4338HO4    HW117350   3.312   8.467   4.757
 4338HO4    HW217351   3.215   8.419   4.864
 4338HO4     MW17352   3.230   8.417   4.769
 4339HO4     OW17353   5.321   1.884   6.163
 4339HO4    HW117354   5.240   1.921   6.128
 4339HO4    HW217355   5.294   1.835   6.241
 4339HO4     MW17356   5.321   1.884   6.163
 4340HO4     OW17357   7.723   7.367   4.704
 4340HO4    HW117358   7.787   7.421   4.656
 4340HO4    HW217359   7.661   7.337   4.638
 4340HO4     MW17360   7.723   7.367   4.704
 4341HO4     OW17361   0.095   3.628   8.805
 4341HO4    HW117362   0.182   3.590   8.790
 4341HO4    HW217363   0.093   3.706   8.749
 4341HO4     MW17364   0.095   3.628   8.805
 4342HO4     OW17365   4.700   5.780   0.231
 4342HO4    HW117366   4.612   5.769   0.195
 4342HO4    HW217367   4.687   5.823   0.316
 4342HO4     MW17368   4.700   5.780   0.231
 4343HO4     OW17369   4.362   4.918   4.747
 4343HO4    HW117370   4.428   4.984   4.771
 4343HO4    HW217371   4.385   4.894   4.656
 4343HO4     MW17372   4.362   4.918   4.747
 4344HO4     OW17373   2.519   8.347   1.771
 4344HO4    HW117374   2.523   8.319   1.679
 4344HO4    HW217375   2.519   8.265   1.821
 4344HO4     MW17376   2.519   8.347   1.771
 4345HO4     OW17377   0.749   8.913   9.424
 4345HO4    HW117378   0.795   8.878   9.348
 4345HO4    HW217379   0.809   8.896   9.498
 4345HO4     MW17380   0.749   8.913   9.424
 4346HO4     OW17381   0.571   2.500   2.507
 4346HO4    HW117382   0.625   2.431   2.548
 4346HO4    HW217383   0.565   2.473   2.415
 4346HO4     MW17384   0.571   2.500   2.507
 4347HO4     OW17385   0.831   3.073   1.089
 4347HO4    HW117386   0.803   3.091   1.179
 4347HO4    HW217387   0.912   3.125   1.078
 4347HO4     MW17388   0.831   3.073   1.089
 4348HO4     OW17389   7.814   4.959   9.306
 4348HO4    HW117390   7.874   5.020   9.263
 4348HO4    HW217391   7.726   4.992   9.284
 4348HO4     MW17392   7.814   4.959   9.306
 4349HO4     OW17393   8.501   7.890   9.690
 4349HO4    HW117394   8.567   7.932   9.745
 4349HO4    HW217395   8.461   7.962   9.640
 4349HO4     MW17396   8.501   7.890   9.690
 4350HO4     OW17397   0.071   4.901   1.649
 4350HO4    HW117398   0.105   4.829   1.594
 4350HO4    HW217399   0.144   4.924   1.707
 4350HO4     MW17400   0.071   4.901   1.649
 4351HO4     OW17401   7.734   5.786   1.808
 4351HO4    HW117402   7.747   5.836   1.889
 4351HO4    HW217403   7.796   5.713   1.814
 4351HO4     MW17404   7.734   5.786   1.808
 4352HO4     OW17405   0.905   4.065   9.877
 4352HO4    HW117406   0.968   4.049   9.948
 4352HO4    HW217407   0.959   4.070   9.798
 4352HO4     MW17408   0.905   4.065   9.877
 4353HO4     OW17409   2.477   2.146   4.811
 4353HO4    HW117410   2.389   2.179   4.791
 4353HO4    HW217411   2.519   2.217   4.860
 4353HO4     MW17412   2.477   2.146   4.811
 4354HO4     OW17413   1.181   4.908   0.767
 4354HO4    HW117414   1.170   4.883   0.859
 4354HO4    HW217415   1.271   4.944   0.763
 4354HO4     MW17416   1.181   4.908   0.767
 4355HO4     OW17417   8.701   1.110   9.936
 4355HO4    HW117418   8.724   1.197   9.968
 4355HO4    HW217419   8.751   1.100   9.855
 4355HO4     MW17420   8.701   1.110   9.936
 4356HO4     OW17421   5.115   0.033   7.358
 4356HO4    HW117422   5.062   0.009   7.281
 4356HO4    HW217423   5.184  -0.035   7.361
 4356HO4     MW17424   5.115   0.033   7.358
 4357HO4     OW17425   6.465   3.424   1.509
 4357HO4    HW117426   6.557   3.431   1.538
 4357HO4    HW217427   6.468   3.358   1.439
 4357HO4     MW17428   6.465   3.424   1.509
 4358HO4     OW17429   4.775   0.641   1.807
 4358HO4    HW117430   4.857   0.619   1.851
 4358HO4    HW217431   4.712   0.654   1.879
 4358HO4     MW17432   4.775   0.641   1.807
 4359HO4     OW17433   4.553   4.762   0.170
 4359HO4    HW117434   4.475   4.786   0.120
 4359HO4    HW217435   4.537   4.798   0.258
 4359HO4     MW17436   4.553   4.762   0.170
 4360HO4     OW17437   2.754   9.799   6.997
 4360HO4    HW117438   2.815   9.865   7.030
 4360HO4    HW217439   2.747   9.818   6.902
 4360HO4     MW17440   2.754   9.799   6.997
 4361HO4     OW17441   9.906   3.627   2.551
 4361HO4    HW117442   9.934   3.680   2.475
 4361HO4    HW217443   9.932   3.679   2.627
 4361HO4     MW17444   9.906   3.627   2.551
 4362HO4     OW17445   7.475   8.643   9.569
 4362HO4    HW117446   7.481   8.611   9.660
 4362HO4    HW217447   7.466   8.739   9.579
 4362HO4     MW17448   7.475   8.643   9.569
 4363HO4     OW17449   6.798   5.101   0.730
 4363HO4    HW117450   6.723   5.088   0.672
 4363HO4    HW217451   6.867   5.044   0.694
 4363HO4     MW17452   6.798   5.101   0.730
 4364HO4     OW17453   4.678   0.328   6.876
 4364HO4    HW117454   4.734   0.250   6.873
 4364HO4    HW217455   4.607   0.304   6.936
 4364HO4     MW17456   4.678   0.328   6.876
 4365HO4     OW17457   3.600   0.089   6.291
 4365HO4    HW117458   3.606   0.148   6.367
 4365HO4    HW217459   3.669   0.120   6.232
 4365HO4     MW17460   3.600   0.089   6.291
 4366HO4     OW17461   4.692   6.185   9.605
 4366HO4    HW117462   4.750   6.196   9.681
 4366HO4    HW217463   4.706   6.264   9.553
 4366HO4     MW17464   4.692   6.185   9.605
 4367HO4     OW17465   6.032   9.472   9.823
 4367HO4    HW117466   5.954   9.529   9.818
 4367HO4    HW217467   6.001   9.387   9.790
 4367HO4     MW17468   6.032   9.472   9.823
 4368HO4     OW17469   1.873   3.138   7.450
 4368HO4    HW117470   1.801   3.175   7.397
 4368HO4    HW217471   1.832   3.116   7.534
 4368HO4     MW17472   1.873   3.138   7.450
 4369HO4     OW17473   2.220   0.685   2.410
 4369HO4    HW117474   2.143   0.643   2.370
 4369HO4    HW217475   2.260   0.735   2.338
 4369HO4     MW17476   2.220   0.685   2.410
 4370HO4     OW17477   4.841   2.453   2.539
 4370HO4    HW117478   4.787   2.382   2.575
 4370HO4    HW217479   4.931   2.421   2.546
 4370HO4     MW17480   4.841   2.453   2.539
 4371HO4     OW17481   0.107   6.131   0.865
 4371HO4    HW117482   0.102   6.053   0.810
 4371HO4    HW217483   0.026   6.130   0.917
 4371HO4     MW17484   0.107   6.131   0.865
 4372HO4     OW17485   5.036   7.158   4.610
 4372HO4    HW117486   4.944   7.133   4.622
 4372HO4    HW217487   5.033   7.227   4.544
 4372HO4     MW17488   5.036   7.158   4.610
 4373HO4     OW17489   0.140   2.202   8.630
 4373HO4    HW117490   0.053   2.193   8.669
 4373HO4    HW217491   0.149   2.125   8.572
 4373HO4     MW17492   0.140   2.202   8.630
 4374HO4     OW17493   9.582   8.357   0.075
 4374HO4    HW117494   9.633   8.428   0.116
 4374HO4    HW217495   9.575   8.290   0.144
 4374HO4     MW17496   9.582   8.357   0.075
 4375HO4     OW17497   4.458   7.633  10.027
 4375HO4    HW117498   4.402   7.637   9.949
 4375HO4    HW217499   4.453   7.721  10.065
 4375HO4     MW17500   4.458   7.633  10.027
 4376HO4     OW17501   6.385   9.741   3.912
 4376HO4    HW117502   6.331   9.708   3.840
 4376HO4    HW217503   6.325   9.743   3.987
 4376HO4     MW17504   6.385   9.741   3.912
 4377HO4     OW17505   1.175   0.994   4.426
 4377HO4    HW117506   1.095   0.984   4.373
 4377HO4    HW217507   1.169   0.924   4.492
 4377HO4     MW17508   1.175   0.994   4.426
 4378HO4     OW17509   9.177   7.008   5.364
 4378HO4    HW117510   9.131   7.081   5.322
 4378HO4    HW217511   9.270   7.036   5.365
 4378HO4     MW17512   9.177   7.008   5.364
 4379HO4     OW17513   9.029   8.370  10.027
 4379HO4    HW117514   8.954   8.422  10.057
 4379HO4    HW217515   9.049   8.311  10.100
 4379HO4     MW17516   9.029   8.370  10.027
 4380HO4     OW17517   4.150   3.450   0.244
 4380HO4    HW117518   4.164   3.357   0.225
 4380HO4    HW217519   4.076   3.451   0.306
 4380HO4     MW17520   4.150   3.450   0.244
 4381HO4     OW17521   6.642   7.117   0.623
 4381HO4    HW117522   6.598   7.101   0.539
 4381HO4    HW217523   6.734   7.093   0.607
 4381HO4     MW17524   6.642   7.117   0.623
 4382HO4     OW17525   4.589   7.045   0.311
 4382HO4    HW117526   4.551   6.964   0.276
 4382HO4    HW217527   4.664   7.015   0.364
 4382HO4     MW17528   4.589   7.045   0.311
 4383HO4     OW17529   4.742   6.981   0.057
 4383HO4    HW117530   4.719   6.978  -0.036
 4383HO4    HW217531   4.837   6.997   0.057
 4383HO4     MW17532   4.742   6.981   0.057
 4384HO4     OW17533   9.272   2.447   0.296
 4384HO4    HW117534   9.216   2.447   0.218
 4384HO4    HW217535   9.324   2.366   0.289
 4384HO4     MW17536   9.272   2.447   0.296
 4385HO4     OW17537   5.242   1.222   4.510
 4385HO4    HW117538   5.317   1.174   4.472
 4385HO4    HW217539   5.244   1.198   4.603
 4385HO4     MW17540   5.242   1.222   4.510
 4386HO4     OW17541   2.721   5.871   8.247
 4386HO4    HW117542   2.712   5.962   8.275
 4386HO4    HW217543   2.657   5.823   8.301
 4386HO4     MW17544   2.721   5.871   8.247
 4387HO4     OW17545   0.835   5.115   0.755
 4387HO4    HW117546   0.789   5.153   0.831
 4387HO4    HW217547   0.791   5.153   0.679
 4387HO4     MW17548   0.835   5.115   0.755
 4388HO4     OW17549   3.233   3.361   6.155
 4388HO4    HW117550   3.191   3.291   6.206
 4388HO4    HW217551   3.168   3.432   6.154
 4388HO4     MW17552   3.233   3.361   6.155
 4389HO4     OW17553   3.354   2.871   4.609
 4389HO4    HW117554   3.342   2.780   4.635
 4389HO4    HW217555   3.354   2.869   4.513
 4389HO4     MW17556   3.354   2.871   4.609
 4390HO4     OW17557   4.427   9.972   2.601
 4390HO4    HW117558   4.372  10.040   2.639
 4390HO4    HW217559   4.483   9.943   2.673
 4390HO4     MW17560   4.427   9.972   2.601
 4391HO4     OW17561   7.025   4.317   7.945
 4391HO4    HW117562   6.975   4.377   8.001
 4391HO4    HW217563   7.010   4.230   7.983
 4391HO4     MW17564   7.025   4.317   7.945
 4392HO4     OW17565   2.556   7.144   1.334
 4392HO4    HW117566   2.538   7.089   1.257
 4392HO4    HW217567   2.546   7.084   1.409
 4392HO4     MW17568   2.556   7.144   1.334
 4393HO4     OW17569   6.386   7.641   4.395
 4393HO4    HW117570   6.387   7.647   4.491
 4393HO4    HW217571   6.443   7.566   4.375
 4393HO4     MW17572   6.386   7.641   4.395
 4394HO4     OW17573   9.286   1.196   4.483
 4394HO4    HW117574   9.277   1.251   4.561
 4394HO4    HW217575   9.197   1.166   4.464
 4394HO4     MW17576   9.286   1.196   4.483
 4395HO4     OW17577   1.995   0.529   5.930
 4395HO4    HW117578   2.053   0.531   6.007
 4395HO4    HW217579   2.046   0.573   5.861
 4395HO4     MW17580   1.995   0.529   5.930
 4396HO4     OW17581   0.910   0.670   4.627
 4396HO4    HW117582   0.938   0.762   4.618
 4396HO4    HW217583   0.929   0.648   4.718
 4396HO4     MW17584   0.910   0.670   4.627
 4397HO4     OW17585   5.808   0.254   3.031
 4397HO4    HW117586   5.880   0.317   3.044
 4397HO4    HW217587   5.851   0.168   3.038
 4397HO4     MW17588   5.808   0.254   3.031
 4398HO4     OW17589   6.578   2.294   9.021
 4398HO4    HW117590   6.542   2.327   9.103
 4398HO4    HW217591   6.592   2.373   8.967
 4398HO4     MW17592   6.578   2.294   9.021
 4399HO4     OW17593   9.333   0.414   0.996
 4399HO4    HW117594   9.283   0.334   1.016
 4399HO4    HW217595   9.339   0.415   0.900
 4399HO4     MW17596   9.333   0.414   0.996
 4400HO4     OW17597   6.546   7.723   2.295
 4400HO4    HW117598   6.471   7.674   2.259
 4400HO4    HW217599   6.589   7.762   2.218
 4400HO4     MW17600   6.546   7.723   2.295
 4401HO4     OW17601   8.045   1.910   9.444
 4401HO4    HW117602   7.960   1.896   9.486
 4401HO4    HW217603   8.044   2.003   9.419
 4401HO4     MW17604   8.045   1.910   9.444
 4402HO4     OW17605   8.628   9.284   3.328
 4402HO4    HW117606   8.700   9.348   3.329
 4402HO4    HW217607   8.597   9.285   3.237
 4402HO4     MW17608   8.628   9.284   3.328
 4403HO4     OW17609   8.279   0.929   9.104
 4403HO4    HW117610   8.207   0.937   9.040
 4403HO4    HW217611   8.237   0.893   9.183
 4403HO4     MW17612   8.279   0.929   9.104
 4404HO4     OW17613   2.401   8.954   1.623
 4404HO4    HW117614   2.308   8.966   1.643
 4404HO4    HW217615   2.402   8.883   1.557
 4404HO4     MW17616   2.401   8.954   1.623
 4405HO4     OW17617   7.019   7.204   7.542
 4405HO4    HW117618   7.057   7.124   7.503
 4405HO4    HW217619   7.076   7.223   7.617
 4405HO4     MW17620   7.019   7.204   7.542
 4406HO4     OW17621   8.616  10.006   1.286
 4406HO4    HW117622   8.552   9.982   1.354
 4406HO4    HW217623   8.563  10.049   1.218
 4406HO4     MW17624   8.616  10.006   1.286
 4407HO4     OW17625   2.228   6.586   1.237
 4407HO4    HW117626   2.283   6.613   1.312
 4407HO4    HW217627   2.231   6.661   1.177
 4407HO4     MW17628   2.228   6.586   1.237
 4408HO4     OW17629   8.802   3.085   7.774
 4408HO4    HW117630   8.809   3.134   7.691
 4408HO4    HW217631   8.815   3.150   7.842
 4408HO4     MW17632   8.802   3.085   7.774
 4409HO4     OW17633   4.594   0.263   7.566
 4409HO4    HW117634   4.670   0.288   7.512
 4409HO4    HW217635   4.590   0.331   7.634
 4409HO4     MW17636   4.594   0.263   7.566
 4410HO4     OW17637   2.826   8.234   5.962
 4410HO4    HW117638   2.819   8.319   5.919
 4410HO4    HW217639   2.751   8.184   5.930
 4410HO4     MW17640   2.826   8.234   5.962
 4411HO4     OW17641   2.641   6.817   1.597
 4411HO4    HW117642   2.591   6.788   1.521
 4411HO4    HW217643   2.713   6.869   1.560
 4411HO4     MW17644   2.641   6.817   1.597
 4412HO4     OW17645   0.396   1.217   6.680
 4412HO4    HW117646   0.422   1.262   6.760
 4412HO4    HW217647   0.478   1.209   6.629
 4412HO4     MW17648   0.396   1.217   6.680
 4413HO4     OW17649   7.735   4.557   7.449
 4413HO4    HW117650   7.783   4.633   7.484
 4413HO4    HW217651   7.761   4.484   7.506
 4413HO4     MW17652   7.735   4.557   7.449
 4414HO4     OW17653   6.319   0.857   2.007
 4414HO4    HW117654   6.236   0.812   2.025
 4414HO4    HW217655   6.386   0.795   2.038
 4414HO4     MW17656   6.319   0.857   2.007
 4415HO4     OW17657   7.064   2.456   2.668
 4415HO4    HW117658   7.027   2.378   2.711
 4415HO4    HW217659   7.091   2.426   2.581
 4415HO4     MW17660   7.064   2.456   2.668
 4416HO4     OW17661   9.669   6.140   4.486
 4416HO4    HW117662   9.601   6.178   4.542
 4416HO4    HW217663   9.630   6.059   4.452
 4416HO4     MW17664   9.669   6.140   4.486
 4417HO4     OW17665   1.846   8.286   8.195
 4417HO4    HW117666   1.866   8.265   8.287
 4417HO4    HW217667   1.924   8.333   8.164
 4417HO4     MW17668   1.846   8.286   8.195
 4418HO4     OW17669   7.171  10.050   1.379
 4418HO4    HW117670   7.230  10.047   1.304
 4418HO4    HW217671   7.221  10.098   1.447
 4418HO4     MW17672   7.171  10.050   1.379
 4419HO4     OW17673   0.789   4.944   9.475
 4419HO4    HW117674   0.838   4.982   9.401
 4419HO4    HW217675   0.848   4.954   9.550
 4419HO4     MW17676   0.789   4.944   9.475
 4420HO4     OW17677   0.848   3.820   1.390
 4420HO4    HW117678   0.919   3.824   1.325
 4420HO4    HW217679   0.839   3.726   1.408
 4420HO4     MW17680   0.848   3.820   1.390
 4421HO4     OW17681   1.180   6.128   5.505
 4421HO4    HW117682   1.201   6.221   5.522
 4421HO4    HW217683   1.096   6.115   5.550
 4421HO4     MW17684   1.180   6.128   5.505
 4422HO4     OW17685   7.897   3.530   5.121
 4422HO4    HW117686   7.947   3.590   5.065
 4422HO4    HW217687   7.929   3.550   5.210
 4422HO4     MW17688   7.897   3.530   5.121
 4423HO4     OW17689   2.386   0.865   0.383
 4423HO4    HW117690   2.451   0.887   0.317
 4423HO4    HW217691   2.305   0.851   0.333
 4423HO4     MW17692   2.386   0.865   0.383
 4424HO4     OW17693   6.249   9.598   6.977
 4424HO4    HW117694   6.227   9.657   7.050
 4424HO4    HW217695   6.228   9.648   6.898
 4424HO4     MW17696   6.249   9.598   6.977
 4425HO4     OW17697   4.342   5.703   6.671
 4425HO4    HW117698   4.276   5.703   6.741
 4425HO4    HW217699   4.290   5.700   6.590
 4425HO4     MW17700   4.342   5.703   6.671
 4426HO4     OW17701   6.460   3.152   5.815
 4426HO4    HW117702   6.448   3.244   5.840
 4426HO4    HW217703   6.524   3.155   5.743
 4426HO4     MW17704   6.460   3.152   5.815
 4427HO4     OW17705   7.270   0.517   0.301
 4427HO4    HW117706   7.322   0.529   0.221
 4427HO4    HW217707   7.332   0.534   0.372
 4427HO4     MW17708   7.270   0.517   0.301
 4428HO4     OW17709   0.427   2.913   1.981
 4428HO4    HW117710   0.473   2.890   2.062
 4428HO4    HW217711   0.494   2.910   1.913
 4428HO4     MW17712   0.427   2.913   1.981
 4429HO4     OW17713   9.632   9.113   9.931
 4429HO4    HW117714   9.658   9.060   9.855
 4429HO4    HW217715   9.666   9.066  10.007
 4429HO4     MW17716   9.632   9.113   9.931
 4430HO4     OW17717   6.469   5.795   7.368
 4430HO4    HW117718   6.511   5.762   7.288
 4430HO4    HW217719   6.529   5.772   7.439
 4430HO4     MW17720   6.469   5.795   7.368
 4431HO4     OW17721   0.028   6.346  10.135
 4431HO4    HW117722  -0.021   6.370  10.056
 4431HO4    HW217723  -0.033   6.365  10.207
 4431HO4     MW17724   0.028   6.346  10.135
 4432HO4     OW17725   7.141   8.380   6.333
 4432HO4    HW117726   7.129   8.474   6.348
 4432HO4    HW217727   7.225   8.359   6.375
 4432HO4     MW17728   7.141   8.380   6.333
 4433HO4     OW17729   5.016   8.230   6.376
 4433HO4    HW117730   5.018   8.296   6.446
 4433HO4    HW217731   5.016   8.282   6.295
 4433HO4     MW17732   5.016   8.230   6.376
 4434HO4     OW17733   0.484   1.679   2.364
 4434HO4    HW117734   0.542   1.733   2.310
 4434HO4    HW217735   0.509   1.698   2.454
 4434HO4     MW17736   0.484   1.679   2.364
 4435HO4     OW17737   2.898   8.965   5.238
 4435HO4    HW117738   2.924   8.962   5.330
 4435HO4    HW217739   2.841   8.888   5.227
 4435HO4     MW17740   2.898   8.965   5.238
 4436HO4     OW17741   9.195   8.025   1.943
 4436HO4    HW117742   9.125   8.026   1.877
 4436HO4    HW217743   9.255   7.956   1.914
 4436HO4     MW17744   9.195   8.025   1.943
 4437HO4     OW17745   1.071   2.489   4.766
 4437HO4    HW117746   1.105   2.535   4.843
 4437HO4    HW217747   1.090   2.548   4.692
 4437HO4     MW17748   1.071   2.489   4.766
 4438HO4     OW17749   9.742   6.226   9.125
 4438HO4    HW117750   9.684   6.222   9.201
 4438HO4    HW217751   9.683   6.222   9.049
 4438HO4     MW17752   9.742   6.226   9.125
 4439HO4     OW17753   6.642   8.542   8.294
 4439HO4    HW117754   6.717   8.570   8.240
 4439HO4    HW217755   6.645   8.600   8.371
 4439HO4     MW17756   6.642   8.542   8.294
 4440HO4     OW17757   4.034   7.691   4.491
 4440HO4    HW117758   4.011   7.616   4.547
 4440HO4    HW217759   4.024   7.768   4.548
 4440HO4     MW17760   4.034   7.691   4.491
 4441HO4     OW17761   6.130   3.283   6.605
 4441HO4    HW117762   6.148   3.359   6.661
 4441HO4    HW217763   6.153   3.312   6.517
 4441HO4     MW17764   6.130   3.283   6.605
 4442HO4     OW17765   8.188   8.441   1.533
 4442HO4    HW117766   8.169   8.377   1.602
 4442HO4    HW217767   8.162   8.397   1.452
 4442HO4     MW17768   8.188   8.441   1.533
 4443HO4     OW17769   8.010   6.721   5.342
 4443HO4    HW117770   8.007   6.815   5.320
 4443HO4    HW217771   8.014   6.719   5.438
 4443HO4     MW17772   8.010   6.721   5.342
 4444HO4     OW17773   5.692   3.930   1.666
 4444HO4    HW117774   5.656   3.856   1.615
 4444HO4    HW217775   5.765   3.963   1.611
 4444HO4     MW17776   5.692   3.930   1.666
 4445HO4     OW17777   0.626   9.469   5.595
 4445HO4    HW117778   0.605   9.428   5.511
 4445HO4    HW217779   0.569   9.425   5.659
 4445HO4     MW17780   0.626   9.469   5.595
 4446HO4     OW17781   4.329   4.011   7.257
 4446HO4    HW117782   4.300   3.939   7.313
 4446HO4    HW217783   4.313   3.980   7.168
 4446HO4     MW17784   4.329   4.011   7.257
 4447HO4     OW17785   9.547   5.026   6.624
 4447HO4    HW117786   9.602   5.027   6.545
 4447HO4    HW217787   9.607   5.049   6.696
 4447HO4     MW17788   9.547   5.026   6.624
 4448HO4     OW17789  10.129   9.814   3.731
 4448HO4    HW117790  10.135   9.883   3.798
 4448HO4    HW217791  10.171   9.852   3.654
 4448HO4     MW17792  10.129   9.814   3.731
 4449HO4     OW17793   2.319   0.427   1.792
 4449HO4    HW117794   2.395   0.368   1.797
 4449HO4    HW217795   2.339   0.486   1.719
 4449HO4     MW17796   2.319   0.427   1.792
 4450HO4     OW17797   7.200   2.196   9.859
 4450HO4    HW117798   7.277   2.250   9.840
 4450HO4    HW217799   7.230   2.134   9.926
 4450HO4     MW17800   7.200   2.196   9.859
 4451HO4     OW17801   2.799   5.032   8.727
 4451HO4    HW117802   2.767   5.080   8.804
 4451HO4    HW217803   2.882   5.075   8.705
 4451HO4     MW17804   2.799   5.032   8.727
 4452HO4     OW17805   4.536   0.527   2.644
 4452HO4    HW117806   4.541   0.463   2.573
 4452HO4    HW217807   4.519   0.474   2.723
 4452HO4     MW17808   4.536   0.527   2.644
 4453HO4     OW17809  10.088   5.103   4.042
 4453HO4    HW117810   9.995   5.079   4.035
 4453HO4    HW217811  10.134   5.019   4.032
 4453HO4     MW17812  10.088   5.103   4.042
 4454HO4     OW17813   3.853   7.548   5.262
 4454HO4    HW117814   3.937   7.538   5.216
 4454HO4    HW217815   3.864   7.500   5.344
 4454HO4     MW17816   3.853   7.548   5.262
 4455HO4     OW17817   8.740   6.460   3.231
 4455HO4    HW117818   8.818   6.465   3.174
 4455HO4    HW217819   8.668   6.492   3.176
 4455HO4     MW17820   8.740   6.460   3.231
 4456HO4     OW17821   3.349   6.174   0.393
 4456HO4    HW117822   3.331   6.126   0.475
 4456HO4    HW217823   3.281   6.142   0.332
 4456HO4     MW17824   3.349   6.174   0.393
 4457HO4     OW17825   5.750   6.268   6.616
 4457HO4    HW117826   5.808   6.307   6.550
 4457HO4    HW217827   5.708   6.343   6.659
 4457HO4     MW17828   5.750   6.268   6.616
 4458HO4     OW17829   5.750   0.674   7.772
 4458HO4    HW117830   5.760   0.663   7.676
 4458HO4    HW217831   5.664   0.635   7.791
 4458HO4     MW17832   5.750   0.674   7.772
 4459HO4     OW17833   0.595   1.964   1.831
 4459HO4    HW117834   0.657   1.913   1.884
 4459HO4    HW217835   0.651   2.025   1.781
 4459HO4     MW17836   0.595   1.964   1.831
 4460HO4     OW17837   1.183   1.562   5.919
 4460HO4    HW117838   1.122   1.592   5.988
 4460HO4    HW217839   1.243   1.503   5.964
 4460HO4     MW17840   1.183   1.562   5.919
 4461HO4     OW17841   3.727   6.358   1.338
 4461HO4    HW117842   3.700   6.335   1.427
 4461HO4    HW217843   3.680   6.295   1.282
 4461HO4     MW17844   3.727   6.358   1.338
 4462HO4     OW17845   9.223   3.246   7.105
 4462HO4    HW117846   9.150   3.308   7.117
 4462HO4    HW217847   9.269   3.248   7.190
 4462HO4     MW17848   9.223   3.246   7.105
 4463HO4     OW17849   2.656   1.939   8.748
 4463HO4    HW117850   2.745   1.946   8.711
 4463HO4    HW217851   2.668   1.957   8.842
 4463HO4     MW17852   2.656   1.939   8.748
 4464HO4     OW17853   7.066   6.855   7.890
 4464HO4    HW117854   6.989   6.867   7.835
 4464HO4    HW217855   7.031   6.853   7.980
 4464HO4     MW17856   7.066   6.855   7.890
 4465HO4     OW17857   7.649   9.292   9.356
 4465HO4    HW117858   7.682   9.317   9.269
 4465HO4    HW217859   7.565   9.337   9.364
 4465HO4     MW17860   7.649   9.292   9.356
 4466HO4     OW17861   5.677   6.275   8.597
 4466HO4    HW117862   5.648   6.263   8.688
 4466HO4    HW217863   5.612   6.226   8.545
 4466HO4     MW17864   5.677   6.275   8.597
 4467HO4     OW17865   0.022   4.985   4.885
 4467HO4    HW117866   0.081   5.022   4.952
 4467HO4    HW217867   0.065   5.004   4.802
 4467HO4     MW17868   0.022   4.985   4.885
 4468HO4     OW17869   6.458   1.357   8.916
 4468HO4    HW117870   6.457   1.403   8.832
 4468HO4    HW217871   6.435   1.266   8.894
 4468HO4     MW17872   6.458   1.357   8.916
 4469HO4     OW17873   8.151   1.338   2.261
 4469HO4    HW117874   8.088   1.350   2.333
 4469HO4    HW217875   8.204   1.263   2.288
 4469HO4     MW17876   8.151   1.338   2.261
 4470HO4     OW17877   4.865   7.547   1.129
 4470HO4    HW117878   4.800   7.591   1.186
 4470HO4    HW217879   4.825   7.461   1.109
 4470HO4     MW17880   4.865   7.547   1.129
 4471HO4     OW17881   3.685   4.176   2.319
 4471HO4    HW117882   3.665   4.089   2.357
 4471HO4    HW217883   3.711   4.157   2.229
 4471HO4     MW17884   3.685   4.176   2.319
 4472HO4     OW17885   3.114   6.297   3.557
 4472HO4    HW117886   3.194   6.310   3.609
 4472HO4    HW217887   3.050   6.262   3.620
 4472HO4     MW17888   3.114   6.297   3.557
 4473HO4     OW17889   1.576   8.109   9.775
 4473HO4    HW117890   1.540   8.029   9.736
 4473HO4    HW217891   1.513   8.133   9.844
 4473HO4     MW17892   1.576   8.109   9.775
 4474HO4     OW17893   5.411   0.672   1.841
 4474HO4    HW117894   5.416   0.718   1.756
 4474HO4    HW217895   5.335   0.712   1.884
 4474HO4     MW17896   5.411   0.672   1.841
 4475HO4     OW17897   1.350   3.118   3.169
 4475HO4    HW117898   1.380   3.154   3.253
 4475HO4    HW217899   1.365   3.188   3.105
 4475HO4     MW17900   1.350   3.118   3.169
 4476HO4     OW17901   1.536   3.444   2.600
 4476HO4    HW117902   1.464   3.382   2.581
 4476HO4    HW217903   1.529   3.458   2.695
 4476HO4     MW17904   1.536   3.444   2.600
 4477HO4     OW17905   1.503   3.416   6.269
 4477HO4    HW117906   1.478   3.350   6.334
 4477HO4    HW217907   1.515   3.497   6.320
 4477HO4     MW17908   1.503   3.416   6.269
 4478HO4     OW17909   8.566   7.857   8.922
 4478HO4    HW117910   8.525   7.908   8.993
 4478HO4    HW217911   8.642   7.910   8.895
 4478HO4     MW17912   8.566   7.857   8.922
 4479HO4     OW17913   1.001   9.260   3.271
 4479HO4    HW117914   0.990   9.210   3.190
 4479HO4    HW217915   0.980   9.197   3.341
 4479HO4     MW17916   1.001   9.260   3.271
 4480HO4     OW17917   2.112   1.587   6.195
 4480HO4    HW117918   2.043   1.597   6.129
 4480HO4    HW217919   2.147   1.676   6.207
 4480HO4     MW17920   2.112   1.587   6.195
 4481HO4     OW17921   1.459   2.237   4.047
 4481HO4    HW117922   1.395   2.167   4.061
 4481HO4    HW217923   1.434   2.277   3.963
 4481HO4     MW17924   1.459   2.237   4.047
 4482HO4     OW17925   1.542   7.464   9.764
 4482HO4    HW117926   1.504   7.546   9.731
 4482HO4    HW217927   1.635   7.469   9.741
 4482HO4     MW17928   1.542   7.464   9.764
 4483HO4     OW17929   6.750   7.494   2.518
 4483HO4    HW117930   6.835   7.448   2.511
 4483HO4    HW217931   6.774   7.585   2.536
 4483HO4     MW17932   6.750   7.494   2.518
 4484HO4     OW17933   9.163   1.705   7.219
 4484HO4    HW117934   9.170   1.610   7.206
 4484HO4    HW217935   9.112   1.715   7.300
 4484HO4     MW17936   9.163   1.705   7.219
 4485HO4     OW17937   2.444   7.957   2.492
 4485HO4    HW117938   2.528   7.986   2.529
 4485HO4    HW217939   2.410   8.035   2.446
 4485HO4     MW17940   2.444   7.957   2.492
 4486HO4     OW17941   8.079   2.103   1.562
 4486HO4    HW117942   8.064   2.026   1.618
 4486HO4    HW217943   8.077   2.068   1.472
 4486HO4     MW17944   8.079   2.103   1.562
 4487HO4     OW17945   6.063   7.717   3.118
 4487HO4    HW117946   5.976   7.746   3.147
 4487HO4    HW217947   6.114   7.798   3.110
 4487HO4     MW17948   6.063   7.717   3.118
 4488HO4     OW17949   6.976   9.780   5.513
 4488HO4    HW117950   6.933   9.785   5.427
 4488HO4    HW217951   6.904   9.765   5.575
 4488HO4     MW17952   6.976   9.780   5.513
 4489HO4     OW17953   0.461   4.320   6.941
 4489HO4    HW117954   0.440   4.412   6.957
 4489HO4    HW217955   0.407   4.272   7.004
 4489HO4     MW17956   0.461   4.320   6.941
 4490HO4     OW17957   9.353   0.438   1.569
 4490HO4    HW117958   9.342   0.386   1.649
 4490HO4    HW217959   9.373   0.372   1.501
 4490HO4     MW17960   9.353   0.438   1.569
 4491HO4     OW17961   0.888   9.592   4.440
 4491HO4    HW117962   0.934   9.580   4.524
 4491HO4    HW217963   0.797   9.611   4.465
 4491HO4     MW17964   0.888   9.592   4.440
 4492HO4     OW17965   0.260   6.410   3.417
 4492HO4    HW117966   0.332   6.377   3.472
 4492HO4    HW217967   0.201   6.334   3.408
 4492HO4     MW17968   0.260   6.410   3.417
 4493HO4     OW17969   5.247   8.543   0.269
 4493HO4    HW117970   5.164   8.570   0.310
 4493HO4    HW217971   5.224   8.464   0.219
 4493HO4     MW17972   5.247   8.543   0.269
 4494HO4     OW17973   7.542   7.180   0.087
 4494HO4    HW117974   7.569   7.150  -0.000
 4494HO4    HW217975   7.518   7.272   0.074
 4494HO4     MW17976   7.542   7.180   0.087
 4495HO4     OW17977   7.988   3.932   0.593
 4495HO4    HW117978   7.942   3.848   0.603
 4495HO4    HW217979   7.931   3.995   0.638
 4495HO4     MW17980   7.988   3.932   0.593
 4496HO4     OW17981   0.938   1.467   8.416
 4496HO4    HW117982   0.886   1.398   8.458
 4496HO4    HW217983   0.880   1.543   8.413
 4496HO4     MW17984   0.938   1.467   8.416
 4497HO4     OW17985   5.295   5.092   0.462
 4497HO4    HW117986   5.311   5.070   0.554
 4497HO4    HW217987   5.221   5.154   0.465
 4497HO4     MW17988   5.295   5.092   0.462
 4498HO4     OW17989   3.638   7.134   6.982
 4498HO4    HW117990   3.575   7.082   6.931
 4498HO4    HW217991   3.602   7.135   7.071
 4498HO4     MW17992   3.638   7.134   6.982
 4499HO4     OW17993   6.036   7.798   3.804
 4499HO4    HW117994   5.999   7.872   3.754
 4499HO4    HW217995   6.116   7.834   3.843
 4499HO4     MW17996   6.036   7.798   3.804
 4500HO4     OW17997   6.401  10.157   7.124
 4500HO4    HW117998   6.453  10.123   7.197
 4500HO4    HW217999   6.376  10.078   7.075
 4500HO4     MW18000   6.401  10.157   7.124
 4501HO4     OW18001   6.810   9.038   7.863
 4501HO4    HW118002   6.749   9.063   7.793
 4501HO4    HW218003   6.815   9.116   7.919
 4501HO4     MW18004   6.810   9.038   7.863
 4502HO4     OW18005   9.628  10.057   7.186
 4502HO4    HW118006   9.607  10.074   7.278
 4502HO4    HW218007   9.564  10.110   7.136
 4502HO4     MW18008   9.628  10.057   7.186
 4503HO4     OW18009   2.254   6.336   6.936
 4503HO4    HW118010   2.277   6.419   6.893
 4503HO4    HW218011   2.201   6.362   7.012
 4503HO4     MW18012   2.254   6.336   6.936
 4504HO4     OW18013   7.117   3.821   7.202
 4504HO4    HW118014   7.133   3.861   7.116
 4504HO4    HW218015   7.200   3.777   7.222
 4504HO4     MW18016   7.117   3.821   7.202
 4505HO4     OW18017   7.818   3.757   5.193
 4505HO4    HW118018   7.776   3.735   5.110
 4505HO4    HW218019   7.750   3.740   5.259
 4505HO4     MW18020   7.818   3.757   5.193
 4506HO4     OW18021   5.076   1.516   2.908
 4506HO4    HW118022   5.065   1.572   2.985
 4506HO4    HW218023   5.063   1.575   2.833
 4506HO4     MW18024   5.076   1.516   2.908
 4507HO4     OW18025   0.430   3.314   4.616
 4507HO4    HW118026   0.471   3.359   4.542
 4507HO4    HW218027   0.395   3.385   4.671
 4507HO4     MW18028   0.430   3.314   4.616
 4508HO4     OW18029   7.241   2.537   3.606
 4508HO4    HW118030   7.301   2.498   3.542
 4508HO4    HW218031   7.240   2.474   3.678
 4508HO4     MW18032   7.241   2.537   3.606
 4509HO4     OW18033   6.198   1.221   3.615
 4509HO4    HW118034   6.107   1.211   3.587
 4509HO4    HW218035   6.244   1.145   3.578
 4509HO4     MW18036   6.198   1.221   3.615
 4510HO4     OW18037   2.175   1.357   4.947
 4510HO4    HW118038   2.091   1.375   4.991
 4510HO4    HW218039   2.153   1.352   4.854
 4510HO4     MW18040   2.175   1.357   4.947
 4511HO4     OW18041   1.034   9.191   5.162
 4511HO4    HW118042   1.106   9.254   5.177
 4511HO4    HW218043   1.069   9.108   5.194
 4511HO4     MW18044   1.034   9.191   5.162
 4512HO4     OW18045   6.331   9.823   9.837
 4512HO4    HW118046   6.398   9.802   9.772
 4512HO4    HW218047   6.316   9.918   9.827
 4512HO4     MW18048   6.331   9.823   9.837
 4513HO4     OW18049   8.279   7.066   9.474
 4513HO4    HW118050   8.320   7.004   9.535
 4513HO4    HW218051   8.243   7.011   9.404
 4513HO4     MW18052   8.279   7.066   9.474
 4514HO4     OW18053   6.993   8.715   5.388
 4514HO4    HW118054   7.022   8.653   5.455
 4514HO4    HW218055   7.008   8.668   5.305
 4514HO4     MW18056   6.993   8.715   5.388
 4515HO4     OW18057   6.901   2.357   7.461
 4515HO4    HW118058   6.954   2.302   7.520
 4515HO4    HW218059   6.856   2.419   7.520
 4515HO4     MW18060   6.901   2.357   7.461
 4516HO4     OW18061   7.936   5.485   3.636
 4516HO4    HW118062   7.978   5.411   3.682
 4516HO4    HW218063   7.945   5.463   3.542
 4516HO4     MW18064   7.936   5.485   3.636
 4517HO4     OW18065   0.711   4.874   0.610
 4517HO4    HW118066   0.759   4.838   0.535
 4517HO4    HW218067   0.751   4.833   0.687
 4517HO4     MW18068   0.711   4.874   0.610
 4518HO4     OW18069   6.637   1.566   6.601
 4518HO4    HW118070   6.552   1.531   6.631
 4518HO4    HW218071   6.622   1.661   6.595
 4518HO4     MW18072   6.637   1.566   6.601
 4519HO4     OW18073   3.915   6.296   7.563
 4519HO4    HW118074   3.983   6.299   7.631
 4519HO4    HW218075   3.947   6.354   7.494
 4519HO4     MW18076   3.915   6.296   7.563
 4520HO4     OW18077   5.203   6.723   8.830
 4520HO4    HW118078   5.262   6.741   8.904
 4520HO4    HW218079   5.260   6.728   8.753
 4520HO4     MW18080   5.203   6.723   8.830
 4521HO4     OW18081   0.831   8.342   2.863
 4521HO4    HW118082   0.775   8.372   2.935
 4521HO4    HW218083   0.776   8.353   2.784
 4521HO4     MW18084   0.831   8.342   2.863
 4522HO4     OW18085   7.315   0.801   3.806
 4522HO4    HW118086   7.226   0.838   3.816
 4522HO4    HW218087   7.300   0.712   3.772
 4522HO4     MW18088   7.315   0.801   3.806
 4523HO4     OW18089   2.174   7.318   9.235
 4523HO4    HW118090   2.240   7.339   9.301
 4523HO4    HW218091   2.220   7.327   9.151
 4523HO4     MW18092   2.174   7.318   9.235
 4524HO4     OW18093   3.025   9.792   6.016
 4524HO4    HW118094   3.105   9.747   6.045
 4524HO4    HW218095   3.003   9.749   5.932
 4524HO4     MW18096   3.025   9.792   6.016
 4525HO4     OW18097   1.411   6.905   8.966
 4525HO4    HW118098   1.447   6.988   8.934
 4525HO4    HW218099   1.356   6.929   9.041
 4525HO4     MW18100   1.411   6.905   8.966
 4526HO4     OW18101   8.203   3.044   7.445
 4526HO4    HW118102   8.122   3.092   7.469
 4526HO4    HW218103   8.272   3.090   7.493
 4526HO4     MW18104   8.203   3.044   7.445
 4527HO4     OW18105   1.819   4.941   8.447
 4527HO4    HW118106   1.897   4.956   8.501
 4527HO4    HW218107   1.805   5.025   8.402
 4527HO4     MW18108   1.819   4.941   8.447
 4528HO4     OW18109   0.974   2.358   4.058
 4528HO4    HW118110   1.029   2.305   4.001
 4528HO4    HW218111   0.977   2.313   4.143
 4528HO4     MW18112   0.974   2.358   4.058
 4529HO4     OW18113   4.880   1.328   2.159
 4529HO4    HW118114   4.911   1.368   2.077
 4529HO4    HW218115   4.881   1.401   2.223
 4529HO4     MW18116   4.880   1.328   2.159
 4530HO4     OW18117   7.475   8.904   3.386
 4530HO4    HW118118   7.548   8.905   3.449
 4530HO4    HW218119   7.517   8.894   3.300
 4530HO4     MW18120   7.475   8.904   3.386
 4531HO4     OW18121   9.193   7.452   4.064
 4531HO4    HW118122   9.246   7.462   4.143
 4531HO4    HW218123   9.194   7.358   4.045
 4531HO4     MW18124   9.193   7.452   4.064
 4532HO4     OW18125   7.608   9.116   8.091
 4532HO4    HW118126   7.649   9.150   8.012
 4532HO4    HW218127   7.560   9.191   8.128
 4532HO4     MW18128   7.608   9.116   8.091
 4533HO4     OW18129   5.584   5.917   8.045
 4533HO4    HW118130   5.525   5.921   7.969
 4533HO4    HW218131   5.525   5.920   8.121
 4533HO4     MW18132   5.584   5.917   8.045
 4534HO4     OW18133   5.882   8.129  10.082
 4534HO4    HW118134   5.822   8.131  10.157
 4534HO4    HW218135   5.837   8.180  10.013
 4534HO4     MW18136   5.882   8.129  10.082
 4535HO4     OW18137   3.510   2.539   9.077
 4535HO4    HW118138   3.596   2.576   9.100
 4535HO4    HW218139   3.448   2.611   9.092
 4535HO4     MW18140   3.510   2.539   9.077
 4536HO4     OW18141   2.976   7.519   3.302
 4536HO4    HW118142   3.000   7.541   3.392
 4536HO4    HW218143   2.893   7.471   3.311
 4536HO4     MW18144   2.976   7.519   3.302
 4537HO4     OW18145   5.808   5.389   9.719
 4537HO4    HW118146   5.888   5.434   9.748
 4537HO4    HW218147   5.780   5.438   9.641
 4537HO4     MW18148   5.808   5.389   9.719
 4538HO4     OW18149   6.797   4.582   5.851
 4538HO4    HW118150   6.758   4.668   5.834
 4538HO4    HW218151   6.752   4.523   5.788
 4538HO4     MW18152   6.797   4.582   5.851
 4539HO4     OW18153   3.359   3.576   7.914
 4539HO4    HW118154   3.351   3.592   8.009
 4539HO4    HW218155   3.274   3.602   7.878
 4539HO4     MW18156   3.359   3.576   7.914
 4540HO4     OW18157   9.658   5.588  10.029
 4540HO4    HW118158   9.754   5.601  10.031
 4540HO4    HW218159   9.637   5.550  10.114
 4540HO4     MW18160   9.658   5.588  10.029
 4541HO4     OW18161   4.569   0.406   4.331
 4541HO4    HW118162   4.507   0.348   4.376
 4541HO4    HW218163   4.517   0.448   4.262
 4541HO4     MW18164   4.569   0.406   4.331
 4542HO4     OW18165   5.854   5.875   5.763
 4542HO4    HW118166   5.876   5.964   5.732
 4542HO4    HW218167   5.780   5.889   5.823
 4542HO4     MW18168   5.854   5.875   5.763
 4543HO4     OW18169   9.615   5.856   5.753
 4543HO4    HW118170   9.569   5.843   5.670
 4543HO4    HW218171   9.576   5.790   5.812
 4543HO4     MW18172   9.615   5.856   5.753
 4544HO4     OW18173   6.084   5.926   4.859
 4544HO4    HW118174   6.074   5.832   4.871
 4544HO4    HW218175   6.047   5.965   4.939
 4544HO4     MW18176   6.084   5.926   4.859
 4545HO4     OW18177   6.761   1.583   7.391
 4545HO4    HW118178   6.707   1.615   7.463
 4545HO4    HW218179   6.731   1.493   7.376
 4545HO4     MW18180   6.761   1.583   7.391
 4546HO4     OW18181   2.296   6.562   8.748
 4546HO4    HW118182   2.296   6.500   8.675
 4546HO4    HW218183   2.311   6.508   8.826
 4546HO4     MW18184   2.296   6.562   8.748
 4547HO4     OW18185   1.389   2.855   2.025
 4547HO4    HW118186   1.317   2.893   1.974
 4547HO4    HW218187   1.355   2.851   2.115
 4547HO4     MW18188   1.389   2.855   2.025
 4548HO4     OW18189   7.767   8.990   9.338
 4548HO4    HW118190   7.819   8.958   9.412
 4548HO4    HW218191   7.832   9.031   9.280
 4548HO4     MW18192   7.767   8.990   9.338
 4549HO4     OW18193   9.924   4.201   4.486
 4549HO4    HW118194   9.984   4.224   4.558
 4549HO4    HW218195   9.971   4.229   4.407
 4549HO4     MW18196   9.924   4.201   4.486
 4550HO4     OW18197   9.475   1.268   5.182
 4550HO4    HW118198   9.468   1.327   5.107
 4550HO4    HW218199   9.418   1.307   5.249
 4550HO4     MW18200   9.475   1.268   5.182
 4551HO4     OW18201   2.751   3.851   8.874
 4551HO4    HW118202   2.761   3.934   8.826
 4551HO4    HW218203   2.767   3.875   8.966
 4551HO4     MW18204   2.751   3.851   8.874
 4552HO4     OW18205  10.126   8.104   4.257
 4552HO4    HW118206  10.190   8.044   4.296
 4552HO4    HW218207  10.044   8.086   4.304
 4552HO4     MW18208  10.126   8.104   4.257
 4553HO4     OW18209   4.099   4.448  10.041
 4553HO4    HW118210   4.108   4.391   9.964
 4553HO4    HW218211   4.122   4.392  10.116
 4553HO4     MW18212   4.099   4.448  10.041
 4554HO4     OW18213   3.721   2.440   2.454
 4554HO4    HW118214   3.695   2.488   2.533
 4554HO4    HW218215   3.815   2.458   2.445
 4554HO4     MW18216   3.721   2.440   2.454
 4555HO4     OW18217   1.726   4.684   3.850
 4555HO4    HW118218   1.811   4.723   3.828
 4555HO4    HW218219   1.748   4.596   3.884
 4555HO4     MW18220   1.726   4.684   3.850
 4556HO4     OW18221   9.973   7.193   9.154
 4556HO4    HW118222   9.913   7.186   9.078
 4556HO4    HW218223   9.918   7.231   9.223
 4556HO4     MW18224   9.973   7.193   9.154
 4557HO4     OW18225   3.870   2.340   7.308
 4557HO4    HW118226   3.883   2.409   7.373
 4557HO4    HW218227   3.857   2.388   7.225
 4557HO4     MW18228   3.870   2.340   7.308
 4558HO4     OW18229   4.659   2.236   9.527
 4558HO4    HW118230   4.593   2.298   9.560
 4558HO4    HW218231   4.689   2.276   9.444
 4558HO4     MW18232   4.659   2.236   9.527
 4559HO4     OW18233   8.610   9.036   4.136
 4559HO4    HW118234   8.604   9.091   4.215
 4559HO4    HW218235   8.581   8.949   4.165
 4559HO4     MW18236   8.610   9.036   4.136
 4560HO4     OW18237   6.223   5.955   3.582
 4560HO4    HW118238   6.249   5.863   3.574
 4560HO4    HW218239   6.285   6.002   3.525
 4560HO4     MW18240   6.223   5.955   3.582
 4561HO4     OW18241   8.105   7.019   1.268
 4561HO4    HW118242   8.055   7.063   1.198
 4561HO4    HW218243   8.112   7.085   1.338
 4561HO4     MW18244   8.105   7.019   1.268
 4562HO4     OW18245   5.308   9.685   5.917
 4562HO4    HW118246   5.309   9.754   5.850
 4562HO4    HW218247   5.296   9.732   6.000
 4562HO4     MW18248   5.308   9.685   5.917
 4563HO4     OW18249   5.514   0.994   4.952
 4563HO4    HW118250   5.598   0.994   4.904
 4563HO4    HW218251   5.507   0.905   4.988
 4563HO4     MW18252   5.514   0.994   4.952
 4564HO4     OW18253   2.524   9.174   2.236
 4564HO4    HW118254   2.558   9.209   2.153
 4564HO4    HW218255   2.564   9.087   2.244
 4564HO4     MW18256   2.524   9.174   2.236
 4565HO4     OW18257   2.796   1.446   2.543
 4565HO4    HW118258   2.868   1.431   2.606
 4565HO4    HW218259   2.838   1.439   2.457
 4565HO4     MW18260   2.796   1.446   2.543
 4566HO4     OW18261   8.951   2.655   6.017
 4566HO4    HW118262   8.860   2.626   6.007
 4566HO4    HW218263   8.947   2.751   6.006
 4566HO4     MW18264   8.951   2.655   6.017
 4567HO4     OW18265   4.365   8.441   8.955
 4567HO4    HW118266   4.297   8.459   9.021
 4567HO4    HW218267   4.404   8.527   8.937
 4567HO4     MW18268   4.365   8.441   8.955
 4568HO4     OW18269   4.412   7.674   6.027
 4568HO4    HW118270   4.394   7.580   6.016
 4568HO4    HW218271   4.484   7.677   6.091
 4568HO4     MW18272   4.412   7.674   6.027
 4569HO4     OW18273   7.221   0.343   7.782
 4569HO4    HW118274   7.278   0.338   7.705
 4569HO4    HW218275   7.281   0.348   7.857
 4569HO4     MW18276   7.221   0.343   7.782
 4570HO4     OW18277   0.372   8.445   3.473
 4570HO4    HW118278   0.289   8.434   3.425
 4570HO4    HW218279   0.381   8.362   3.522
 4570HO4     MW18280   0.372   8.445   3.473
 4571HO4     OW18281   6.946   3.462   8.868
 4571HO4    HW118282   6.959   3.379   8.915
 4571HO4    HW218283   7.001   3.525   8.914
 4571HO4     MW18284   6.946   3.462   8.868
 4572HO4     OW18285   8.539   2.064   2.190
 4572HO4    HW118286   8.509   2.082   2.280
 4572HO4    HW218287   8.461   2.028   2.146
 4572HO4     MW18288   8.539   2.064   2.190
 4573HO4     OW18289   4.434   8.825   8.894
 4573HO4    HW118290   4.464   8.800   8.982
 4573HO4    HW218291   4.386   8.907   8.908
 4573HO4     MW18292   4.434   8.825   8.894
 4574HO4     OW18293   6.419   5.984   8.080
 4574HO4    HW118294   6.506   5.942   8.085
 4574HO4    HW218295   6.358   5.910   8.078
 4574HO4     MW18296   6.419   5.984   8.080
 4575HO4     OW18297   1.969   0.435   1.494
 4575HO4    HW118298   2.057   0.473   1.491
 4575HO4    HW218299   1.968   0.382   1.575
 4575HO4     MW18300   1.969   0.435   1.494
 4576HO4     OW18301   1.126   0.903   5.093
 4576HO4    HW118302   1.199   0.856   5.133
 4576HO4    HW218303   1.120   0.868   5.004
 4576HO4     MW18304   1.126   0.903   5.093
 4577HO4     OW18305   4.248   0.256   7.210
 4577HO4    HW118306   4.271   0.287   7.298
 4577HO4    HW218307   4.296   0.173   7.201
 4577HO4     MW18308   4.248   0.256   7.210
 4578HO4     OW18309   0.963   7.554   8.923
 4578HO4    HW118310   1.035   7.606   8.958
 4578HO4    HW218311   1.005   7.493   8.861
 4578HO4     MW18312   0.963   7.554   8.923
 4579HO4     OW18313   9.806   5.931   5.170
 4579HO4    HW118314   9.900   5.921   5.187
 4579HO4    HW218315   9.769   5.846   5.194
 4579HO4     MW18316   9.806   5.931   5.170
 4580HO4     OW18317   7.429   8.282   3.010
 4580HO4    HW118318   7.524   8.301   3.005
 4580HO4    HW218319   7.424   8.186   3.010
 4580HO4     MW18320   7.429   8.282   3.010
 4581HO4     OW18321   8.084   2.389   6.607
 4581HO4    HW118322   8.093   2.380   6.512
 4581HO4    HW218323   8.072   2.298   6.638
 4581HO4     MW18324   8.084   2.389   6.607
 4582HO4     OW18325   3.517   4.532   3.952
 4582HO4    HW118326   3.548   4.452   3.908
 4582HO4    HW218327   3.503   4.506   4.043
 4582HO4     MW18328   3.517   4.532   3.952
 4583HO4     OW18329   2.677   9.544   4.854
 4583HO4    HW118330   2.611   9.549   4.785
 4583HO4    HW218331   2.627   9.543   4.936
 4583HO4     MW18332   2.677   9.544   4.854
 4584HO4     OW18333   0.468   0.043   2.599
 4584HO4    HW118334   0.448  -0.019   2.529
 4584HO4    HW218335   0.396   0.107   2.596
 4584HO4     MW18336   0.468   0.043   2.599
 4585HO4     OW18337   1.016   8.472   1.139
 4585HO4    HW118338   0.987   8.495   1.228
 4585HO4    HW218339   1.112   8.479   1.142
 4585HO4     MW18340   1.016   8.472   1.139
 4586HO4     OW18341   6.766   5.724   3.471
 4586HO4    HW118342   6.787   5.766   3.387
 4586HO4    HW218343   6.682   5.763   3.497
 4586HO4     MW18344   6.766   5.724   3.471
 4587HO4     OW18345   9.364   3.684   3.251
 4587HO4    HW118346   9.304   3.709   3.180
 4587HO4    HW218347   9.319   3.713   3.331
 4587HO4     MW18348   9.364   3.684   3.251
 4588HO4     OW18349   9.363   6.570   8.119
 4588HO4    HW118350   9.278   6.611   8.101
 4588HO4    HW218351   9.405   6.563   8.032
 4588HO4     MW18352   9.363   6.570   8.119
 4589HO4     OW18353   6.029   2.344   8.497
 4589HO4    HW118354   6.059   2.430   8.465
 4589HO4    HW218355   6.109   2.291   8.500
 4589HO4     MW18356   6.029   2.344   8.497
 4590HO4     OW18357   0.278   2.973   2.797
 4590HO4    HW118358   0.288   2.980   2.701
 4590HO4    HW218359   0.289   3.064   2.828
 4590HO4     MW18360   0.278   2.973   2.797
 4591HO4     OW18361   8.729   0.707   9.620
 4591HO4    HW118362   8.767   0.625   9.590
 4591HO4    HW218363   8.765   0.774   9.561
 4591HO4     MW18364   8.729   0.707   9.620
 4592HO4     OW18365   3.300   4.568   5.994
 4592HO4    HW118366   3.266   4.557   5.905
 4592HO4    HW218367   3.225   4.545   6.050
 4592HO4     MW18368   3.300   4.568   5.994
 4593HO4     OW18369   3.072   0.267   5.499
 4593HO4    HW118370   3.097   0.179   5.527
 4593HO4    HW218371   2.980   0.259   5.472
 4593HO4     MW18372   3.072   0.267   5.499
 4594HO4     OW18373   6.259   1.276   2.739
 4594HO4    HW118374   6.213   1.228   2.670
 4594HO4    HW218375   6.247   1.369   2.716
 4594HO4     MW18376   6.259   1.276   2.739
 4595HO4     OW18377   0.846   2.734   3.552
 4595HO4    HW118378   0.874   2.655   3.598
 4595HO4    HW218379   0.920   2.756   3.494
 4595HO4     MW18380   0.846   2.734   3.552
 4596HO4     OW18381   1.046  10.001   7.446
 4596HO4    HW118382   1.058   9.954   7.363
 4596HO4    HW218383   1.103   9.954   7.508
 4596HO4     MW18384   1.046  10.001   7.446
 4597HO4     OW18385   5.219   8.240   3.754
 4597HO4    HW118386   5.190   8.189   3.677
 4597HO4    HW218387   5.187   8.189   3.829
 4597HO4     MW18388   5.219   8.240   3.754
 4598HO4     OW18389   2.773   3.598   9.118
 4598HO4    HW118390   2.726   3.609   9.035
 4598HO4    HW218391   2.705   3.612   9.186
 4598HO4     MW18392   2.773   3.598   9.118
 4599HO4     OW18393   6.330   4.179  10.006
 4599HO4    HW118394   6.279   4.216   9.933
 4599HO4    HW218395   6.282   4.208  10.085
 4599HO4     MW18396   6.330   4.179  10.006
 4600HO4     OW18397   3.224   5.589   7.941
 4600HO4    HW118398   3.224   5.655   7.871
 4600HO4    HW218399   3.315   5.587   7.971
 4600HO4     MW18400   3.224   5.589   7.941
 4601HO4     OW18401   7.795   4.367   7.002
 4601HO4    HW118402   7.743   4.338   6.927
 4601HO4    HW218403   7.744   4.338   7.079
 4601HO4     MW18404   7.795   4.367   7.002
 4602HO4     OW18405   7.021   1.312   9.466
 4602HO4    HW118406   7.082   1.308   9.541
 4602HO4    HW218407   6.954   1.375   9.492
 4602HO4     MW18408   7.021   1.312   9.466
 4603HO4     OW18409   2.894   7.992   3.195
 4603HO4    HW118410   2.926   7.954   3.113
 4603HO4    HW218411   2.953   7.955   3.262
 4603HO4     MW18412   2.894   7.992   3.195
 4604HO4     OW18413   5.506   1.420   0.025
 4604HO4    HW118414   5.558   1.422   0.106
 4604HO4    HW218415   5.427   1.371   0.048
 4604HO4     MW18416   5.506   1.420   0.025
 4605HO4     OW18417   9.611   7.346   8.761
 4605HO4    HW118418   9.609   7.261   8.716
 4605HO4    HW218419   9.587   7.325   8.852
 4605HO4     MW18420   9.611   7.346   8.761
 4606HO4     OW18421   3.229   5.370   7.970
 4606HO4    HW118422   3.294   5.385   8.039
 4606HO4    HW218423   3.159   5.433   7.989
 4606HO4     MW18424   3.229   5.370   7.970
 4607HO4     OW18425   9.054   2.391   1.444
 4607HO4    HW118426   9.040   2.333   1.368
 4607HO4    HW218427   9.042   2.333   1.520
 4607HO4     MW18428   9.054   2.391   1.444
 4608HO4     OW18429   5.779   1.879   9.695
 4608HO4    HW118430   5.776   1.797   9.644
 4608HO4    HW218431   5.783   1.948   9.628
 4608HO4     MW18432   5.779   1.879   9.695
 4609HO4     OW18433  10.027   7.177   6.951
 4609HO4    HW118434  10.086   7.129   7.009
 4609HO4    HW218435   9.951   7.119   6.941
 4609HO4     MW18436  10.027   7.177   6.951
 4610HO4     OW18437   8.761   2.306   9.767
 4610HO4    HW118438   8.803   2.369   9.707
 4610HO4    HW218439   8.719   2.242   9.708
 4610HO4     MW18440   8.761   2.306   9.767
 4611HO4     OW18441   2.131   9.235   5.165
 4611HO4    HW118442   2.189   9.295   5.212
 4611HO4    HW218443   2.189   9.184   5.108
 4611HO4     MW18444   2.131   9.235   5.165
 4612HO4     OW18445   5.779   9.827   4.255
 4612HO4    HW118446   5.872   9.845   4.237
 4612HO4    HW218447   5.744   9.912   4.286
 4612HO4     MW18448   5.779   9.827   4.255
 4613HO4     OW18449   1.810   7.765   7.080
 4613HO4    HW118450   1.756   7.830   7.034
 4613HO4    HW218451   1.813   7.798   7.171
 4613HO4     MW18452   1.810   7.765   7.080
 4614HO4     OW18453   8.832   5.309   5.413
 4614HO4    HW118454   8.792   5.369   5.476
 4614HO4    HW218455   8.809   5.347   5.327
 4614HO4     MW18456   8.832   5.309   5.413
 4615HO4     OW18457   8.212   6.425   8.981
 4615HO4    HW118458   8.191   6.346   9.032
 4615HO4    HW218459   8.294   6.402   8.935
 4615HO4     MW18460   8.212   6.425   8.981
 4616HO4     OW18461   3.269   5.233  10.057
 4616HO4    HW118462   3.220   5.198   9.982
 4616HO4    HW218463   3.210   5.220  10.132
 4616HO4     MW18464   3.269   5.233  10.057
 4617HO4     OW18465   1.490   5.990   0.277
 4617HO4    HW118466   1.499   6.085   0.275
 4617HO4    HW218467   1.574   5.958   0.313
 4617HO4     MW18468   1.490   5.990   0.277
 4618HO4     OW18469   5.035   7.487   4.923
 4618HO4    HW118470   5.102   7.495   4.991
 4618HO4    HW218471   5.085   7.481   4.841
 4618HO4     MW18472   5.035   7.487   4.923
 4619HO4     OW18473   8.619   8.763   0.767
 4619HO4    HW118474   8.713   8.743   0.765
 4619HO4    HW218475   8.605   8.805   0.852
 4619HO4     MW18476   8.619   8.763   0.767
 4620HO4     OW18477   6.074   8.824   9.268
 4620HO4    HW118478   6.165   8.843   9.246
 4620HO4    HW218479   6.024   8.858   9.194
 4620HO4     MW18480   6.074   8.824   9.268
 4621HO4     OW18481   3.774   4.113   5.301
 4621HO4    HW118482   3.785   4.085   5.209
 4621HO4    HW218483   3.859   4.150   5.325
 4621HO4     MW18484   3.774   4.113   5.301
 4622HO4     OW18485   5.841   1.840   1.359
 4622HO4    HW118486   5.785   1.905   1.315
 4622HO4    HW218487   5.886   1.889   1.428
 4622HO4     MW18488   5.841   1.840   1.359
 4623HO4     OW18489   9.484   4.275   3.879
 4623HO4    HW118490   9.462   4.356   3.927
 4623HO4    HW218491   9.506   4.212   3.948
 4623HO4     MW18492   9.484   4.275   3.879
 4624HO4     OW18493   7.799   8.701   4.723
 4624HO4    HW118494   7.797   8.672   4.814
 4624HO4    HW218495   7.767   8.625   4.673
 4624HO4     MW18496   7.799   8.701   4.723
 4625HO4     OW18497   5.615   7.855   3.868
 4625HO4    HW118498   5.659   7.895   3.943
 4625HO4    HW218499   5.656   7.897   3.791
 4625HO4     MW18500   5.615   7.855   3.868
 4626HO4     OW18501   1.140   6.628   2.233
 4626HO4    HW118502   1.100   6.709   2.202
 4626HO4    HW218503   1.131   6.630   2.328
 4626HO4     MW18504   1.140   6.628   2.233
 4627HO4     OW18505   3.753   6.426   2.733
 4627HO4    HW118506   3.734   6.419   2.827
 4627HO4    HW218507   3.831   6.482   2.729
 4627HO4     MW18508   3.753   6.426   2.733
 4628HO4     OW18509   7.332   8.923   1.697
 4628HO4    HW118510   7.244   8.885   1.705
 4628HO4    HW218511   7.341   8.945   1.604
 4628HO4     MW18512   7.332   8.923   1.697
 4629HO4     OW18513   2.988   0.317   6.152
 4629HO4    HW118514   3.004   0.335   6.246
 4629HO4    HW218515   2.892   0.310   6.145
 4629HO4     MW18516   2.988   0.317   6.152
 4630HO4     OW18517   4.953   5.792   7.172
 4630HO4    HW118518   5.000   5.867   7.135
 4630HO4    HW218519   5.011   5.758   7.241
 4630HO4     MW18520   4.953   5.792   7.172
 4631HO4     OW18521   8.555   5.212   9.060
 4631HO4    HW118522   8.512   5.265   9.127
 4631HO4    HW218523   8.513   5.237   8.977
 4631HO4     MW18524   8.555   5.212   9.060
 4632HO4     OW18525   0.958   2.156   9.853
 4632HO4    HW118526   0.973   2.158   9.948
 4632HO4    HW218527   1.041   2.124   9.816
 4632HO4     MW18528   0.958   2.156   9.853
 4633HO4     OW18529   7.162   4.607   3.795
 4633HO4    HW118530   7.068   4.599   3.813
 4633HO4    HW218531   7.166   4.662   3.717
 4633HO4     MW18532   7.162   4.607   3.795
 4634HO4     OW18533   0.455   4.437   9.099
 4634HO4    HW118534   0.389   4.388   9.048
 4634HO4    HW218535   0.490   4.501   9.037
 4634HO4     MW18536   0.455   4.437   9.099
 4635HO4     OW18537   2.019   4.747   6.749
 4635HO4    HW118538   1.972   4.736   6.665
 4635HO4    HW218539   1.953   4.783   6.808
 4635HO4     MW18540   2.019   4.747   6.749
 4636HO4     OW18541   9.649   1.577   4.139
 4636HO4    HW118542   9.688   1.522   4.208
 4636HO4    HW218543   9.687   1.542   4.057
 4636HO4     MW18544   9.649   1.577   4.139
 4637HO4     OW18545   3.056   9.234   9.817
 4637HO4    HW118546   3.048   9.268   9.727
 4637HO4    HW218547   3.097   9.306   9.866
 4637HO4     MW18548   3.056   9.234   9.817
 4638HO4     OW18549   6.782   5.995   7.158
 4638HO4    HW118550   6.768   6.062   7.226
 4638HO4    HW218551   6.711   6.009   7.095
 4638HO4     MW18552   6.782   5.995   7.158
 4639HO4     OW18553   1.788   9.081   3.220
 4639HO4    HW118554   1.864   9.036   3.259
 4639HO4    HW218555   1.732   9.009   3.189
 4639HO4     MW18556   1.788   9.081   3.220
 4640HO4     OW18557   6.829   7.945   4.780
 4640HO4    HW118558   6.876   7.893   4.846
 4640HO4    HW218559   6.794   7.880   4.719
 4640HO4     MW18560   6.829   7.945   4.780
 4641HO4     OW18561   8.519   3.268   4.342
 4641HO4    HW118562   8.535   3.337   4.408
 4641HO4    HW218563   8.432   3.291   4.306
 4641HO4     MW18564   8.519   3.268   4.342
 4642HO4     OW18565  10.026   2.226   7.171
 4642HO4    HW118566   9.953   2.169   7.198
 4642HO4    HW218567   9.984   2.295   7.119
 4642HO4     MW18568  10.026   2.226   7.171
 4643HO4     OW18569   1.979   2.186   8.619
 4643HO4    HW118570   1.998   2.129   8.544
 4643HO4    HW218571   2.004   2.133   8.696
 4643HO4     MW18572   1.979   2.186   8.619
 4644HO4     OW18573   3.768   6.133   2.382
 4644HO4    HW118574   3.742   6.111   2.292
 4644HO4    HW218575   3.685   6.150   2.427
 4644HO4     MW18576   3.768   6.133   2.382
 4645HO4     OW18577   2.108   2.564   1.654
 4645HO4    HW118578   2.086   2.598   1.742
 4645HO4    HW218579   2.103   2.642   1.597
 4645HO4     MW18580   2.108   2.564   1.654
 4646HO4     OW18581   7.398   4.963   8.132
 4646HO4    HW118582   7.405   5.041   8.188
 4646HO4    HW218583   7.447   4.986   8.052
 4646HO4     MW18584   7.398   4.963   8.132
 4647HO4     OW18585   6.284   3.388   3.444
 4647HO4    HW118586   6.274   3.369   3.350
 4647HO4    HW218587   6.300   3.302   3.484
 4647HO4     MW18588   6.284   3.388   3.444
 4648HO4     OW18589   5.517   2.712   6.862
 4648HO4    HW118590   5.543   2.798   6.829
 4648HO4    HW218591   5.510   2.724   6.957
 4648HO4     MW18592   5.517   2.712   6.862
 4649HO4     OW18593   3.613   2.358   8.736
 4649HO4    HW118594   3.540   2.401   8.782
 4649HO4    HW218595   3.611   2.395   8.648
 4649HO4     MW18596   3.613   2.358   8.736
 4650HO4     OW18597   4.415   7.094   0.485
 4650HO4    HW118598   4.336   7.046   0.457
 4650HO4    HW218599   4.475   7.025   0.515
 4650HO4     MW18600   4.415   7.094   0.485
 4651HO4     OW18601   0.934   3.212   8.610
 4651HO4    HW118602   0.998   3.272   8.651
 4651HO4    HW218603   0.987   3.136   8.586
 4651HO4     MW18604   0.934   3.212   8.610
 4652HO4     OW18605   3.869   1.364   3.034
 4652HO4    HW118606   3.951   1.322   3.006
 4652HO4    HW218607   3.875   1.453   2.999
 4652HO4     MW18608   3.869   1.364   3.034
 4653HO4     OW18609   2.639   1.166   1.928
 4653HO4    HW118610   2.670   1.138   1.842
 4653HO4    HW218611   2.685   1.110   1.990
 4653HO4     MW18612   2.639   1.166   1.928
 4654HO4     OW18613   9.425   8.160   6.555
 4654HO4    HW118614   9.482   8.209   6.494
 4654HO4    HW218615   9.354   8.222   6.576
 4654HO4     MW18616   9.425   8.160   6.555
 4655HO4     OW18617   1.804   0.988   2.385
 4655HO4    HW118618   1.738   0.937   2.336
 4655HO4    HW218619   1.766   0.997   2.473
 4655HO4     MW18620   1.804   0.988   2.385
 4656HO4     OW18621   4.488   5.370   2.555
 4656HO4    HW118622   4.520   5.356   2.644
 4656HO4    HW218623   4.394   5.354   2.560
 4656HO4     MW18624   4.488   5.370   2.555
 4657HO4     OW18625   5.398   1.175   9.195
 4657HO4    HW118626   5.319   1.203   9.148
 4657HO4    HW218627   5.381   1.198   9.287
 4657HO4     MW18628   5.398   1.175   9.195
 4658HO4     OW18629   0.434   9.800   7.865
 4658HO4    HW118630   0.428   9.822   7.772
 4658HO4    HW218631   0.383   9.869   7.909
 4658HO4     MW18632   0.434   9.800   7.865
 4659HO4     OW18633   1.635   7.266   9.022
 4659HO4    HW118634   1.616   7.188   8.968
 4659HO4    HW218635   1.559   7.323   9.009
 4659HO4     MW18636   1.635   7.266   9.022
 4660HO4     OW18637   1.458   8.714   6.965
 4660HO4    HW118638   1.422   8.719   7.054
 4660HO4    HW218639   1.385   8.741   6.908
 4660HO4     MW18640   1.458   8.714   6.965
 4661HO4     OW18641   9.604   9.594   2.331
 4661HO4    HW118642   9.563   9.652   2.266
 4661HO4    HW218643   9.563   9.508   2.316
 4661HO4     MW18644   9.604   9.594   2.331
 4662HO4     OW18645   3.960   3.117   1.641
 4662HO4    HW118646   3.932   3.128   1.733
 4662HO4    HW218647   3.890   3.066   1.600
 4662HO4     MW18648   3.960   3.117   1.641
 4663HO4     OW18649   8.321   0.455   7.233
 4663HO4    HW118650   8.346   0.498   7.315
 4663HO4    HW218651   8.368   0.504   7.165
 4663HO4     MW18652   8.321   0.455   7.233
 4664HO4     OW18653   8.192  10.047   9.643
 4664HO4    HW118654   8.142  10.128   9.655
 4664HO4    HW218655   8.218  10.047   9.550
 4664HO4     MW18656   8.192  10.047   9.643
 4665HO4     OW18657   3.360   2.814   7.577
 4665HO4    HW118658   3.318   2.895   7.610
 4665HO4    HW218659   3.305   2.743   7.612
 4665HO4     MW18660   3.360   2.814   7.577
 4666HO4     OW18661   7.980   5.493   2.059
 4666HO4    HW118662   7.899   5.484   2.008
 4666HO4    HW218663   8.034   5.419   2.031
 4666HO4     MW18664   7.980   5.493   2.059
 4667HO4     OW18665   0.753   6.717   4.394
 4667HO4    HW118666   0.768   6.812   4.380
 4667HO4    HW218667   0.771   6.704   4.488
 4667HO4     MW18668   0.753   6.717   4.394
 4668HO4     OW18669   9.196   5.199   9.227
 4668HO4    HW118670   9.221   5.278   9.179
 4668HO4    HW218671   9.267   5.186   9.291
 4668HO4     MW18672   9.196   5.199   9.227
 4669HO4     OW18673   8.909   9.682   9.772
 4669HO4    HW118674   8.828   9.706   9.728
 4669HO4    HW218675   8.967   9.758   9.762
 4669HO4     MW18676   8.909   9.682   9.772
 4670HO4     OW18677   7.888   1.911   3.197
 4670HO4    HW118678   7.919   1.990   3.151
 4670HO4    HW218679   7.916   1.924   3.288
 4670HO4     MW18680   7.888   1.911   3.197
 4671HO4     OW18681   3.736   3.170   3.682
 4671HO4    HW118682   3.727   3.235   3.611
 4671HO4    HW218683   3.750   3.223   3.761
 4671HO4     MW18684   3.736   3.170   3.682
 4672HO4     OW18685   5.454   3.592   5.028
 4672HO4    HW118686   5.452   3.678   5.069
 4672HO4    HW218687   5.547   3.567   5.029
 4672HO4     MW18688   5.454   3.592   5.028
 4673HO4     OW18689   8.004   8.828   0.164
 4673HO4    HW118690   8.058   8.754   0.191
 4673HO4    HW218691   7.928   8.787   0.121
 4673HO4     MW18692   8.004   8.828   0.164
 4674HO4     OW18693   8.792   5.874   9.017
 4674HO4    HW118694   8.767   5.952   9.068
 4674HO4    HW218695   8.720   5.863   8.954
 4674HO4     MW18696   8.792   5.874   9.017
 4675HO4     OW18697   5.795   5.260   6.337
 4675HO4    HW118698   5.749   5.178   6.356
 4675HO4    HW218699   5.862   5.235   6.272
 4675HO4     MW18700   5.795   5.260   6.337
 4676HO4     OW18701   3.140   2.152   6.750
 4676HO4    HW118702   3.197   2.162   6.827
 4676HO4    HW218703   3.201   2.154   6.675
 4676HO4     MW18704   3.140   2.152   6.750
 4677HO4     OW18705   4.062   1.770   7.895
 4677HO4    HW118706   4.147   1.773   7.941
 4677HO4    HW218707   4.070   1.836   7.826
 4677HO4     MW18708   4.062   1.770   7.895
 4678HO4     OW18709   7.905   9.819   0.132
 4678HO4    HW118710   7.887   9.795   0.041
 4678HO4    HW218711   7.975   9.760   0.159
 4678HO4     MW18712   7.905   9.819   0.132
 4679HO4     OW18713   2.185   1.150   4.679
 4679HO4    HW118714   2.171   1.206   4.755
 4679HO4    HW218715   2.267   1.182   4.640
 4679HO4     MW18716   2.185   1.150   4.679
 4680HO4     OW18717   7.995   6.053   7.229
 4680HO4    HW118718   8.068   6.115   7.233
 4680HO4    HW218719   7.918   6.105   7.252
 4680HO4     MW18720   7.995   6.053   7.229
 4681HO4     OW18721   1.224   4.729   4.144
 4681HO4    HW118722   1.154   4.702   4.084
 4681HO4    HW218723   1.178   4.766   4.220
 4681HO4     MW18724   1.224   4.729   4.144
 4682HO4     OW18725   3.147   9.869   4.832
 4682HO4    HW118726   3.228   9.901   4.873
 4682HO4    HW218727   3.178   9.810   4.763
 4682HO4     MW18728   3.147   9.869   4.832
 4683HO4     OW18729   9.783   2.810   2.310
 4683HO4    HW118730   9.734   2.816   2.392
 4683HO4    HW218731   9.722   2.769   2.248
 4683HO4     MW18732   9.783   2.810   2.310
 4684HO4     OW18733   2.539   2.572   1.369
 4684HO4    HW118734   2.563   2.605   1.456
 4684HO4    HW218735   2.500   2.649   1.325
 4684HO4     MW18736   2.539   2.572   1.369
 4685HO4     OW18737   4.269   4.961   8.207
 4685HO4    HW118738   4.334   4.923   8.268
 4685HO4    HW218739   4.315   4.964   8.122
 4685HO4     MW18740   4.269   4.961   8.207
 4686HO4     OW18741   9.355   3.187   0.940
 4686HO4    HW118742   9.436   3.228   0.909
 4686HO4    HW218743   9.340   3.226   1.027
 4686HO4     MW18744   9.355   3.187   0.940
 4687HO4     OW18745   3.773   0.702   6.821
 4687HO4    HW118746   3.699   0.643   6.837
 4687HO4    HW218747   3.779   0.707   6.725
 4687HO4     MW18748   3.773   0.702   6.821
 4688HO4     OW18749   6.612   7.770   5.265
 4688HO4    HW118750   6.684   7.713   5.292
 4688HO4    HW218751   6.535   7.713   5.262
 4688HO4     MW18752   6.612   7.770   5.265
 4689HO4     OW18753   4.597   4.224   1.883
 4689HO4    HW118754   4.570   4.147   1.834
 4689HO4    HW218755   4.683   4.201   1.919
 4689HO4     MW18756   4.597   4.224   1.883
 4690HO4     OW18757   4.455   3.777   5.488
 4690HO4    HW118758   4.436   3.716   5.559
 4690HO4    HW218759   4.397   3.749   5.416
 4690HO4     MW18760   4.455   3.777   5.488
 4691HO4     OW18761   6.969   3.196   9.185
 4691HO4    HW118762   6.968   3.249   9.104
 4691HO4    HW218763   6.896   3.230   9.237
 4691HO4     MW18764   6.969   3.196   9.185
 4692HO4     OW18765   2.676   6.274   2.994
 4692HO4    HW118766   2.703   6.232   2.912
 4692HO4    HW218767   2.708   6.215   3.063
 4692HO4     MW18768   2.676   6.274   2.994
 4693HO4     OW18769   9.539   7.921   2.963
 4693HO4    HW118770   9.554   8.011   2.934
 4693HO4    HW218771   9.487   7.931   3.044
 4693HO4     MW18772   9.539   7.921   2.963
 4694HO4     OW18773   6.696   3.955   4.298
 4694HO4    HW118774   6.664   3.909   4.375
 4694HO4    HW218775   6.662   3.904   4.224
 4694HO4     MW18776   6.696   3.955   4.298
 4695HO4     OW18777   3.868   7.033   0.831
 4695HO4    HW118778   3.861   7.120   0.790
 4695HO4    HW218779   3.807   7.037   0.906
 4695HO4     MW18780   3.868   7.033   0.831
 4696HO4     OW18781   8.184   4.981   0.133
 4696HO4    HW118782   8.169   4.912   0.199
 4696HO4    HW218783   8.188   4.934   0.049
 4696HO4     MW18784   8.184   4.981   0.133
 4697HO4     OW18785   4.168   1.332   7.277
 4697HO4    HW118786   4.155   1.256   7.219
 4697HO4    HW218787   4.140   1.301   7.363
 4697HO4     MW18788   4.168   1.332   7.277
 4698HO4     OW18789   3.069   7.356   4.447
 4698HO4    HW118790   3.108   7.300   4.379
 4698HO4    HW218791   3.068   7.444   4.409
 4698HO4     MW18792   3.069   7.356   4.447
 4699HO4     OW18793   8.470   4.752   7.866
 4699HO4    HW118794   8.460   4.664   7.828
 4699HO4    HW218795   8.495   4.736   7.957
 4699HO4     MW18796   8.470   4.752   7.866
 4700HO4     OW18797   0.576   0.680   6.076
 4700HO4    HW118798   0.597   0.763   6.031
 4700HO4    HW218799   0.591   0.613   6.009
 4700HO4     MW18800   0.576   0.680   6.076
 4701HO4     OW18801   5.629   3.972   4.838
 4701HO4    HW118802   5.581   3.892   4.816
 4701HO4    HW218803   5.707   3.941   4.884
 4701HO4     MW18804   5.629   3.972   4.838
 4702HO4     OW18805   9.382   8.272   0.486
 4702HO4    HW118806   9.398   8.266   0.391
 4702HO4    HW218807   9.377   8.180   0.514
 4702HO4     MW18808   9.382   8.272   0.486
 4703HO4     OW18809   8.950   0.809   1.904
 4703HO4    HW118810   8.908   0.740   1.957
 4703HO4    HW218811   8.926   0.786   1.814
 4703HO4     MW18812   8.950   0.809   1.904
 4704HO4     OW18813   3.817   7.940   6.878
 4704HO4    HW118814   3.740   7.934   6.936
 4704HO4    HW218815   3.783   7.922   6.790
 4704HO4     MW18816   3.817   7.940   6.878
 4705HO4     OW18817   6.632   9.939   9.075
 4705HO4    HW118818   6.648  10.004   9.005
 4705HO4    HW218819   6.704   9.877   9.067
 4705HO4     MW18820   6.632   9.939   9.075
 4706HO4     OW18821   8.242   9.234   1.282
 4706HO4    HW118822   8.291   9.151   1.286
 4706HO4    HW218823   8.305   9.300   1.313
 4706HO4     MW18824   8.242   9.234   1.282
 4707HO4     OW18825   7.701   6.965   0.643
 4707HO4    HW118826   7.777   6.909   0.624
 4707HO4    HW218827   7.737   7.038   0.695
 4707HO4     MW18828   7.701   6.965   0.643
 4708HO4     OW18829   2.378   9.909   6.030
 4708HO4    HW118830   2.350   9.822   6.001
 4708HO4    HW218831   2.311   9.969   5.995
 4708HO4     MW18832   2.378   9.909   6.030
 4709HO4     OW18833   0.269   1.433  10.016
 4709HO4    HW118834   0.205   1.408  10.083
 4709HO4    HW218835   0.350   1.389  10.044
 4709HO4     MW18836   0.269   1.433  10.016
 4710HO4     OW18837   1.590   1.892   5.879
 4710HO4    HW118838   1.622   1.969   5.832
 4710HO4    HW218839   1.623   1.817   5.829
 4710HO4     MW18840   1.590   1.892   5.879
 4711HO4     OW18841   8.140   7.341   3.277
 4711HO4    HW118842   8.234   7.353   3.290
 4711HO4    HW218843   8.117   7.403   3.208
 4711HO4     MW18844   8.140   7.341   3.277
 4712HO4     OW18845   7.356   2.304   7.315
 4712HO4    HW118846   7.439   2.319   7.361
 4712HO4    HW218847   7.382   2.259   7.234
 4712HO4     MW18848   7.356   2.304   7.315
 4713HO4     OW18849   4.149   7.100   1.581
 4713HO4    HW118850   4.208   7.146   1.641
 4713HO4    HW218851   4.176   7.128   1.493
 4713HO4     MW18852   4.149   7.100   1.581
 4714HO4     OW18853   7.742   5.560   9.450
 4714HO4    HW118854   7.795   5.541   9.372
 4714HO4    HW218855   7.767   5.492   9.513
 4714HO4     MW18856   7.742   5.560   9.450
 4715HO4     OW18857   9.136   0.892  10.070
 4715HO4    HW118858   9.221   0.871  10.109
 4715HO4    HW218859   9.158   0.930   9.984
 4715HO4     MW18860   9.136   0.892  10.070
 4716HO4     OW18861   4.996   7.677   1.614
 4716HO4    HW118862   5.045   7.726   1.547
 4716HO4    HW218863   5.027   7.712   1.698
 4716HO4     MW18864   4.996   7.677   1.614
 4717HO4     OW18865   7.026   7.645   7.803
 4717HO4    HW118866   6.973   7.670   7.879
 4717HO4    HW218867   7.116   7.637   7.837
 4717HO4     MW18868   7.026   7.645   7.803
 4718HO4     OW18869   6.186   3.683   8.186
 4718HO4    HW118870   6.157   3.726   8.105
 4718HO4    HW218871   6.109   3.686   8.244
 4718HO4     MW18872   6.186   3.683   8.186
 4719HO4     OW18873   4.224   7.347   7.873
 4719HO4    HW118874   4.210   7.285   7.946
 4719HO4    HW218875   4.138   7.389   7.861
 4719HO4     MW18876   4.224   7.347   7.873
 4720HO4     OW18877   5.382   2.091   5.721
 4720HO4    HW118878   5.379   2.034   5.798
 4720HO4    HW218879   5.368   2.031   5.646
 4720HO4     MW18880   5.382   2.091   5.721
 4721HO4     OW18881   5.883   0.749   4.951
 4721HO4    HW118882   5.822   0.724   4.881
 4721HO4    HW218883   5.899   0.668   4.999
 4721HO4     MW18884   5.883   0.749   4.951
 4722HO4     OW18885   3.027   1.974   2.218
 4722HO4    HW118886   3.050   1.939   2.132
 4722HO4    HW218887   3.112   1.998   2.257
 4722HO4     MW18888   3.027   1.974   2.218
 4723HO4     OW18889   0.711   4.057   3.032
 4723HO4    HW118890   0.721   4.072   3.127
 4723HO4    HW218891   0.728   4.143   2.992
 4723HO4     MW18892   0.711   4.057   3.032
 4724HO4     OW18893   8.914   5.149   5.902
 4724HO4    HW118894   8.836   5.092   5.892
 4724HO4    HW218895   8.980   5.091   5.941
 4724HO4     MW18896   8.914   5.149   5.902
 4725HO4     OW18897   7.538   4.511   2.744
 4725HO4    HW118898   7.486   4.431   2.729
 4725HO4    HW218899   7.507   4.572   2.676
 4725HO4     MW18900   7.538   4.511   2.744
 4726HO4     OW18901   1.282   8.645   0.487
 4726HO4    HW118902   1.342   8.651   0.412
 4726HO4    HW218903   1.339   8.652   0.564
 4726HO4     MW18904   1.282   8.645   0.487
 4727HO4     OW18905   0.053   4.189   4.449
 4727HO4    HW118906   0.052   4.106   4.498
 4727HO4    HW218907   0.047   4.163   4.356
 4727HO4     MW18908   0.053   4.189   4.449
 4728HO4     OW18909   2.609   7.681   0.581
 4728HO4    HW118910   2.630   7.674   0.675
 4728HO4    HW218911   2.665   7.751   0.549
 4728HO4     MW18912   2.609   7.681   0.581
 4729HO4     OW18913   6.471   0.997   6.015
 4729HO4    HW118914   6.564   0.993   5.990
 4729HO4    HW218915   6.463   1.081   6.063
 4729HO4     MW18916   6.471   0.997   6.015
 4730HO4     OW18917   3.433   2.294   4.098
 4730HO4    HW118918   3.486   2.214   4.092
 4730HO4    HW218919   3.406   2.297   4.190
 4730HO4     MW18920   3.433   2.294   4.098
 4731HO4     OW18921   2.026   1.079   6.034
 4731HO4    HW118922   2.009   1.097   5.941
 4731HO4    HW218923   2.049   1.165   6.070
 4731HO4     MW18924   2.026   1.079   6.034
 4732HO4     OW18925   1.820   6.397   4.085
 4732HO4    HW118926   1.863   6.431   4.006
 4732HO4    HW218927   1.893   6.368   4.140
 4732HO4     MW18928   1.820   6.397   4.085
 4733HO4     OW18929   1.047   6.058   3.962
 4733HO4    HW118930   0.956   6.088   3.964
 4733HO4    HW218931   1.098   6.136   3.940
 4733HO4     MW18932   1.047   6.058   3.962
 4734HO4     OW18933   4.041   0.974   1.657
 4734HO4    HW118934   4.110   1.020   1.706
 4734HO4    HW218935   3.980   1.045   1.631
 4734HO4     MW18936   4.041   0.974   1.657
 4735HO4     OW18937   9.549   8.571   5.990
 4735HO4    HW118938   9.576   8.578   5.898
 4735HO4    HW218939   9.566   8.658   6.026
 4735HO4     MW18940   9.549   8.571   5.990
 4736HO4     OW18941   3.081   2.695   6.714
 4736HO4    HW118942   3.099   2.729   6.802
 4736HO4    HW218943   3.010   2.632   6.727
 4736HO4     MW18944   3.081   2.695   6.714
 4737HO4     OW18945   4.162   5.662   3.202
 4737HO4    HW118946   4.117   5.704   3.128
 4737HO4    HW218947   4.125   5.704   3.280
 4737HO4     MW18948   4.162   5.662   3.202
 4738HO4     OW18949   7.493   5.719   3.375
 4738HO4    HW118950   7.522   5.639   3.330
 4738HO4    HW218951   7.569   5.777   3.374
 4738HO4     MW18952   7.493   5.719   3.375
 4739HO4     OW18953   0.775   5.230   1.141
 4739HO4    HW118954   0.853   5.246   1.196
 4739HO4    HW218955   0.808   5.235   1.051
 4739HO4     MW18956   0.775   5.230   1.141
 4740HO4     OW18957   5.046   9.399   1.906
 4740HO4    HW118958   5.057   9.304   1.919
 4740HO4    HW218959   4.993   9.427   1.981
 4740HO4     MW18960   5.046   9.399   1.906
 4741HO4     OW18961   0.290   8.624   5.799
 4741HO4    HW118962   0.260   8.611   5.709
 4741HO4    HW218963   0.261   8.545   5.846
 4741HO4     MW18964   0.290   8.624   5.799
 4742HO4     OW18965   0.495   3.437   2.487
 4742HO4    HW118966   0.479   3.391   2.404
 4742HO4    HW218967   0.471   3.372   2.554
 4742HO4     MW18968   0.495   3.437   2.487
 4743HO4     OW18969   8.243   9.423   6.860
 4743HO4    HW118970   8.213   9.507   6.824
 4743HO4    HW218971   8.166   9.366   6.853
 4743HO4     MW18972   8.243   9.423   6.860
 4744HO4     OW18973   9.479   5.020   1.218
 4744HO4    HW118974   9.437   5.049   1.299
 4744HO4    HW218975   9.515   5.100   1.179
 4744HO4     MW18976   9.479   5.020   1.218
 4745HO4     OW18977   8.797   8.753   5.303
 4745HO4    HW118978   8.881   8.773   5.260
 4745HO4    HW218979   8.816   8.675   5.356
 4745HO4     MW18980   8.797   8.753   5.303
 4746HO4     OW18981   1.746   5.762   3.108
 4746HO4    HW118982   1.755   5.705   3.031
 4746HO4    HW218983   1.760   5.704   3.183
 4746HO4     MW18984   1.746   5.762   3.108
 4747HO4     OW18985   5.982   0.424   6.235
 4747HO4    HW118986   5.970   0.339   6.278
 4747HO4    HW218987   5.952   0.410   6.145
 4747HO4     MW18988   5.982   0.424   6.235
 4748HO4     OW18989   9.187   5.501   7.484
 4748HO4    HW118990   9.174   5.410   7.513
 4748HO4    HW218991   9.133   5.553   7.544
 4748HO4     MW18992   9.187   5.501   7.484
 4749HO4     OW18993   9.487   6.661   7.312
 4749HO4    HW118994   9.575   6.687   7.343
 4749HO4    HW218995   9.427   6.710   7.368
 4749HO4     MW18996   9.487   6.661   7.312
 4750HO4     OW18997   0.814   1.102   9.616
 4750HO4    HW118998   0.786   1.047   9.542
 4750HO4    HW218999   0.784   1.054   9.694
 4750HO4     MW19000   0.814   1.102   9.616
 4751HO4     OW19001   9.829   2.540   4.333
 4751HO4    HW119002   9.919   2.553   4.299
 4751HO4    HW219003   9.842   2.523   4.426
 4751HO4     MW19004   9.829   2.540   4.333
 4752HO4     OW19005   9.438   0.220   0.202
 4752HO4    HW119006   9.485   0.274   0.266
 4752HO4    HW219007   9.345   0.234   0.224
 4752HO4     MW19008   9.438   0.220   0.202
 4753HO4     OW19009   7.745   4.192   4.463
 4753HO4    HW119010   7.823   4.248   4.464
 4753HO4    HW219011   7.754   4.138   4.542
 4753HO4     MW19012   7.745   4.192   4.463
 4754HO4     OW19013   2.629   5.328   9.795
 4754HO4    HW119014   2.718   5.360   9.775
 4754HO4    HW219015   2.628   5.238   9.763
 4754HO4     MW19016   2.629   5.328   9.795
 4755HO4     OW19017   9.783   6.513   2.836
 4755HO4    HW119018   9.784   6.541   2.928
 4755HO4    HW219019   9.830   6.429   2.836
 4755HO4     MW19020   9.783   6.513   2.836
 4756HO4     OW19021   4.348   1.116   0.667
 4756HO4    HW119022   4.354   1.049   0.735
 4756HO4    HW219023   4.254   1.120   0.645
 4756HO4     MW19024   4.348   1.116   0.667
 4757HO4     OW19025   5.664   5.208   8.400
 4757HO4    HW119026   5.638   5.265   8.327
 4757HO4    HW219027   5.583   5.196   8.450
 4757HO4     MW19028   5.664   5.208   8.400
 4758HO4     OW19029   8.232   1.833   6.217
 4758HO4    HW119030   8.204   1.788   6.136
 4758HO4    HW219031   8.274   1.763   6.269
 4758HO4     MW19032   8.232   1.833   6.217
 4759HO4     OW19033   5.278   1.878   7.229
 4759HO4    HW119034   5.202   1.925   7.264
 4759HO4    HW219035   5.286   1.800   7.285
 4759HO4     MW19036   5.278   1.878   7.229
 4760HO4     OW19037   7.907   0.464   3.728
 4760HO4    HW119038   7.895   0.560   3.733
 4760HO4    HW219039   7.819   0.429   3.743
 4760HO4     MW19040   7.907   0.464   3.728
 4761HO4     OW19041   3.736   2.292   8.011
 4761HO4    HW119042   3.682   2.356   8.059
 4761HO4    HW219043   3.746   2.330   7.923
 4761HO4     MW19044   3.736   2.292   8.011
 4762HO4     OW19045   1.816   3.352   6.154
 4762HO4    HW119046   1.836   3.266   6.193
 4762HO4    HW219047   1.864   3.351   6.071
 4762HO4     MW19048   1.816   3.352   6.154
 4763HO4     OW19049   1.182   1.346   4.668
 4763HO4    HW119050   1.240   1.333   4.744
 4763HO4    HW219051   1.220   1.289   4.600
 4763HO4     MW19052   1.182   1.346   4.668
 4764HO4     OW19053   3.708   6.039   0.714
 4764HO4    HW119054   3.634   6.032   0.774
 4764HO4    HW219055   3.698   6.125   0.673
 4764HO4     MW19056   3.708   6.039   0.714
 4765HO4     OW19057   0.154   0.532   8.975
 4765HO4    HW119058   0.220   0.465   8.995
 4765HO4    HW219059   0.205   0.607   8.943
 4765HO4     MW19060   0.154   0.532   8.975
 4766HO4     OW19061   2.078   8.889   5.061
 4766HO4    HW119062   2.080   8.877   5.157
 4766HO4    HW219063   2.054   8.982   5.050
 4766HO4     MW19064   2.078   8.889   5.061
 4767HO4     OW19065   8.607   4.040   5.803
 4767HO4    HW119066   8.549   4.082   5.867
 4767HO4    HW219067   8.552   4.032   5.724
 4767HO4     MW19068   8.607   4.040   5.803
 4768HO4     OW19069   9.660   9.564   6.905
 4768HO4    HW119070   9.682   9.587   6.815
 4768HO4    HW219071   9.677   9.470   6.911
 4768HO4     MW19072   9.660   9.564   6.905
 4769HO4     OW19073   2.164   3.499   7.995
 4769HO4    HW119074   2.134   3.547   8.073
 4769HO4    HW219075   2.256   3.525   7.985
 4769HO4     MW19076   2.164   3.499   7.995
 4770HO4     OW19077   3.118   1.202   5.597
 4770HO4    HW119078   3.116   1.296   5.618
 4770HO4    HW219079   3.026   1.179   5.581
 4770HO4     MW19080   3.118   1.202   5.597
 4771HO4     OW19081   6.937   7.640   2.298
 4771HO4    HW119082   6.857   7.685   2.268
 4771HO4    HW219083   6.919   7.547   2.284
 4771HO4     MW19084   6.937   7.640   2.298
 4772HO4     OW19085   6.371   6.703   6.827
 4772HO4    HW119086   6.387   6.632   6.891
 4772HO4    HW219087   6.364   6.658   6.742
 4772HO4     MW19088   6.371   6.703   6.827
 4773HO4     OW19089   1.801   4.536   4.286
 4773HO4    HW119090   1.730   4.526   4.222
 4773HO4    HW219091   1.762   4.509   4.369
 4773HO4     MW19092   1.801   4.536   4.286
 4774HO4     OW19093   8.842   0.641   5.397
 4774HO4    HW119094   8.913   0.588   5.436
 4774HO4    HW219095   8.766   0.583   5.397
 4774HO4     MW19096   8.842   0.641   5.397
 4775HO4     OW19097   4.934   6.034   3.510
 4775HO4    HW119098   4.910   6.030   3.417
 4775HO4    HW219099   4.853   6.012   3.556
 4775HO4     MW19100   4.934   6.034   3.510
 4776HO4     OW19101   7.833   9.969   2.335
 4776HO4    HW119102   7.863   9.878   2.339
 4776HO4    HW219103   7.746   9.964   2.295
 4776HO4     MW19104   7.833   9.969   2.335
 4777HO4     OW19105   6.084   4.621   0.272
 4777HO4    HW119106   6.075   4.548   0.210
 4777HO4    HW219107   6.012   4.608   0.334
 4777HO4     MW19108   6.084   4.621   0.272
 4778HO4     OW19109   2.417   6.917   8.747
 4778HO4    HW119110   2.494   6.957   8.788
 4778HO4    HW219111   2.371   6.874   8.820
 4778HO4     MW19112   2.417   6.917   8.747
 4779HO4     OW19113   0.998   3.323   1.242
 4779HO4    HW119114   0.944   3.287   1.313
 4779HO4    HW219115   0.988   3.260   1.171
 4779HO4     MW19116   0.998   3.323   1.242
 4780HO4     OW19117   4.419   8.022   3.869
 4780HO4    HW119118   4.410   7.938   3.914
 4780HO4    HW219119   4.448   8.083   3.937
 4780HO4     MW19120   4.419   8.022   3.869
 4781HO4     OW19121   2.515   8.669   6.419
 4781HO4    HW119122   2.431   8.699   6.456
 4781HO4    HW219123   2.508   8.689   6.325
 4781HO4     MW19124   2.515   8.669   6.419
 4782HO4     OW19125   2.457   2.286   7.984
 4782HO4    HW119126   2.497   2.351   8.043
 4782HO4    HW219127   2.517   2.284   7.908
 4782HO4     MW19128   2.457   2.286   7.984
 4783HO4     OW19129   3.162   6.074   7.708
 4783HO4    HW119130   3.252   6.043   7.700
 4783HO4    HW219131   3.146   6.079   7.802
 4783HO4     MW19132   3.162   6.074   7.708
 4784HO4     OW19133   5.565   1.801   3.390
 4784HO4    HW119134   5.609   1.882   3.364
 4784HO4    HW219135   5.583   1.794   3.484
 4784HO4     MW19136   5.565   1.801   3.390
 4785HO4     OW19137   3.740   4.658   7.421
 4785HO4    HW119138   3.651   4.625   7.405
 4785HO4    HW219139   3.727   4.738   7.473
 4785HO4     MW19140   3.740   4.658   7.421
 4786HO4     OW19141   6.061   3.254   4.985
 4786HO4    HW119142   5.984   3.261   5.042
 4786HO4    HW219143   6.092   3.163   4.998
 4786HO4     MW19144   6.061   3.254   4.985
 4787HO4     OW19145   4.931   6.777   9.843
 4787HO4    HW119146   4.988   6.854   9.830
 4787HO4    HW219147   4.866   6.784   9.773
 4787HO4     MW19148   4.931   6.777   9.843
 4788HO4     OW19149   6.022   4.392   6.671
 4788HO4    HW119150   6.040   4.326   6.739
 4788HO4    HW219151   5.937   4.366   6.635
 4788HO4     MW19152   6.022   4.392   6.671
 4789HO4     OW19153   1.685   5.574   3.688
 4789HO4    HW119154   1.731   5.604   3.767
 4789HO4    HW219155   1.727   5.621   3.616
 4789HO4     MW19156   1.685   5.574   3.688
 4790HO4     OW19157   5.673   2.196   0.047
 4790HO4    HW119158   5.683   2.291   0.057
 4790HO4    HW219159   5.622   2.185  -0.033
 4790HO4     MW19160   5.673   2.196   0.047
 4791HO4     OW19161   6.419   4.751   0.695
 4791HO4    HW119162   6.450   4.768   0.605
 4791HO4    HW219163   6.338   4.701   0.683
 4791HO4     MW19164   6.419   4.751   0.695
 4792HO4     OW19165   5.024   5.138   2.794
 4792HO4    HW119166   5.041   5.057   2.843
 4792HO4    HW219167   5.076   5.128   2.713
 4792HO4     MW19168   5.024   5.138   2.794
 4793HO4     OW19169   8.324   2.101   2.853
 4793HO4    HW119170   8.310   2.161   2.779
 4793HO4    HW219171   8.329   2.159   2.930
 4793HO4     MW19172   8.324   2.101   2.853
 4794HO4     OW19173   1.257   1.066   8.515
 4794HO4    HW119174   1.335   1.052   8.460
 4794HO4    HW219175   1.279   1.142   8.569
 4794HO4     MW19176   1.257   1.066   8.515
 4795HO4     OW19177   2.669   2.908   8.172
 4795HO4    HW119178   2.683   2.968   8.098
 4795HO4    HW219179   2.683   2.964   8.250
 4795HO4     MW19180   2.669   2.908   8.172
 4796HO4     OW19181   1.038   1.792   8.453
 4796HO4    HW119182   1.103   1.830   8.393
 4796HO4    HW219183   0.954   1.806   8.408
 4796HO4     MW19184   1.038   1.792   8.453
 4797HO4     OW19185   4.148   3.429   6.856
 4797HO4    HW119186   4.133   3.480   6.936
 4797HO4    HW219187   4.092   3.473   6.790
 4797HO4     MW19188   4.148   3.429   6.856
 4798HO4     OW19189   5.126   5.516   9.759
 4798HO4    HW119190   5.173   5.482   9.836
 4798HO4    HW219191   5.103   5.607   9.783
 4798HO4     MW19192   5.126   5.516   9.759
 4799HO4     OW19193   0.582   5.715   2.232
 4799HO4    HW119194   0.620   5.759   2.155
 4799HO4    HW219195   0.595   5.778   2.304
 4799HO4     MW19196   0.582   5.715   2.232
 4800HO4     OW19197   3.833   4.589   5.458
 4800HO4    HW119198   3.781   4.511   5.437
 4800HO4    HW219199   3.923   4.555   5.468
 4800HO4     MW19200   3.833   4.589   5.458
 4801HO4     OW19201   5.507   4.550   9.817
 4801HO4    HW119202   5.564   4.520   9.746
 4801HO4    HW219203   5.418   4.525   9.788
 4801HO4     MW19204   5.507   4.550   9.817
 4802HO4     OW19205   4.024   2.861   5.373
 4802HO4    HW119206   3.978   2.929   5.424
 4802HO4    HW219207   4.026   2.785   5.431
 4802HO4     MW19208   4.024   2.861   5.373
 4803HO4     OW19209   3.748   1.250   5.112
 4803HO4    HW119210   3.787   1.267   5.199
 4803HO4    HW219211   3.803   1.300   5.051
 4803HO4     MW19212   3.748   1.250   5.112
 4804HO4     OW19213   6.723   2.537   5.043
 4804HO4    HW119214   6.746   2.510   4.953
 4804HO4    HW219215   6.795   2.595   5.069
 4804HO4     MW19216   6.723   2.537   5.043
 4805HO4     OW19217   6.581   2.093   9.459
 4805HO4    HW119218   6.560   2.057   9.546
 4805HO4    HW219219   6.586   2.188   9.473
 4805HO4     MW19220   6.581   2.093   9.459
 4806HO4     OW19221   3.952   1.253   0.686
 4806HO4    HW119222   3.884   1.253   0.618
 4806HO4    HW219223   3.904   1.261   0.769
 4806HO4     MW19224   3.952   1.253   0.686
 4807HO4     OW19225   9.973   6.281   8.621
 4807HO4    HW119226  10.035   6.354   8.611
 4807HO4    HW219227   9.966   6.243   8.533
 4807HO4     MW19228   9.973   6.281   8.621
 4808HO4     OW19229   0.578   1.396   7.243
 4808HO4    HW119230   0.614   1.367   7.159
 4808HO4    HW219231   0.616   1.483   7.257
 4808HO4     MW19232   0.578   1.396   7.243
 4809HO4     OW19233   9.671   5.829   6.274
 4809HO4    HW119234   9.688   5.776   6.195
 4809HO4    HW219235   9.692   5.770   6.347
 4809HO4     MW19236   9.671   5.829   6.274
 4810HO4     OW19237   4.778   2.638   5.775
 4810HO4    HW119238   4.718   2.591   5.834
 4810HO4    HW219239   4.756   2.604   5.687
 4810HO4     MW19240   4.778   2.638   5.775
 4811HO4     OW19241   5.791   2.770   2.991
 4811HO4    HW119242   5.829   2.857   2.977
 4811HO4    HW219243   5.799   2.727   2.906
 4811HO4     MW19244   5.791   2.770   2.991
 4812HO4     OW19245   6.416   2.529   2.529
 4812HO4    HW119246   6.468   2.507   2.606
 4812HO4    HW219247   6.479   2.526   2.456
 4812HO4     MW19248   6.416   2.529   2.529
 4813HO4     OW19249   0.848   1.811   3.001
 4813HO4    HW119250   0.813   1.759   3.074
 4813HO4    HW219251   0.772   1.828   2.945
 4813HO4     MW19252   0.848   1.811   3.001
 4814HO4     OW19253   8.778   0.878   3.001
 4814HO4    HW119254   8.763   0.886   2.906
 4814HO4    HW219255   8.800   0.785   3.013
 4814HO4     MW19256   8.778   0.878   3.001
 4815HO4     OW19257   6.904   8.699   6.856
 4815HO4    HW119258   6.910   8.787   6.895
 4815HO4    HW219259   6.991   8.661   6.868
 4815HO4     MW19260   6.904   8.699   6.856
 4816HO4     OW19261   7.035   3.672   3.199
 4816HO4    HW119262   7.126   3.701   3.188
 4816HO4    HW219263   7.002   3.666   3.109
 4816HO4     MW19264   7.035   3.672   3.199
 4817HO4     OW19265   8.932   2.062   9.510
 4817HO4    HW119266   9.020   2.036   9.541
 4817HO4    HW219267   8.949   2.115   9.432
 4817HO4     MW19268   8.932   2.062   9.510
 4818HO4     OW19269   2.985   4.072   6.926
 4818HO4    HW119270   3.060   4.114   6.968
 4818HO4    HW219271   2.913   4.085   6.989
 4818HO4     MW19272   2.985   4.072   6.926
 4819HO4     OW19273   7.219   8.851   9.811
 4819HO4    HW119274   7.270   8.770   9.826
 4819HO4    HW219275   7.264   8.917   9.865
 4819HO4     MW19276   7.219   8.851   9.811
 4820HO4     OW19277   8.677   1.391   9.652
 4820HO4    HW119278   8.592   1.348   9.638
 4820HO4    HW219279   8.742   1.321   9.639
 4820HO4     MW19280   8.677   1.391   9.652
 4821HO4     OW19281   3.621   3.563   9.897
 4821HO4    HW119282   3.551   3.608   9.944
 4821HO4    HW219283   3.597   3.571   9.804
 4821HO4     MW19284   3.621   3.563   9.897
 4822HO4     OW19285   3.357   0.395   7.458
 4822HO4    HW119286   3.435   0.343   7.435
 4822HO4    HW219287   3.381   0.439   7.540
 4822HO4     MW19288   3.357   0.395   7.458
 4823HO4     OW19289  10.100   8.246   5.911
 4823HO4    HW119290  10.075   8.179   5.975
 4823HO4    HW219291  10.163   8.202   5.853
 4823HO4     MW19292  10.100   8.246   5.911
 4824HO4     OW19293   8.328   9.406   0.442
 4824HO4    HW119294   8.390   9.382   0.372
 4824HO4    HW219295   8.329   9.502   0.442
 4824HO4     MW19296   8.328   9.406   0.442
 4825HO4     OW19297   9.599   1.346   5.782
 4825HO4    HW119298   9.525   1.351   5.720
 4825HO4    HW219299   9.675   1.374   5.731
 4825HO4     MW19300   9.599   1.346   5.782
 4826HO4     OW19301   1.228   3.403   2.704
 4826HO4    HW119302   1.257   3.488   2.738
 4826HO4    HW219303   1.255   3.403   2.612
 4826HO4     MW19304   1.228   3.403   2.704
 4827HO4     OW19305   8.361   5.913   5.272
 4827HO4    HW119306   8.274   5.948   5.294
 4827HO4    HW219307   8.412   5.920   5.353
 4827HO4     MW19308   8.361   5.913   5.272
 4828HO4     OW19309   4.461   7.621   4.294
 4828HO4    HW119310   4.519   7.613   4.217
 4828HO4    HW219311   4.520   7.607   4.369
 4828HO4     MW19312   4.461   7.621   4.294
 4829HO4     OW19313   6.313   8.270   3.629
 4829HO4    HW119314   6.300   8.284   3.723
 4829HO4    HW219315   6.227   8.240   3.597
 4829HO4     MW19316   6.313   8.270   3.629
 4830HO4     OW19317   4.670   2.893   6.367
 4830HO4    HW119318   4.610   2.924   6.299
 4830HO4    HW219319   4.628   2.918   6.450
 4830HO4     MW19320   4.670   2.893   6.367
 4831HO4     OW19321   5.103   1.401   7.556
 4831HO4    HW119322   5.130   1.463   7.625
 4831HO4    HW219323   5.017   1.433   7.528
 4831HO4     MW19324   5.103   1.401   7.556
 4832HO4     OW19325   2.325   2.589   2.966
 4832HO4    HW119326   2.350   2.662   3.024
 4832HO4    HW219327   2.348   2.620   2.878
 4832HO4     MW19328   2.325   2.589   2.966
 4833HO4     OW19329   6.115   8.350   9.803
 4833HO4    HW119330   6.059   8.296   9.747
 4833HO4    HW219331   6.091   8.441   9.781
 4833HO4     MW19332   6.115   8.350   9.803
 4834HO4     OW19333   9.722   8.429   7.100
 4834HO4    HW119334   9.777   8.353   7.079
 4834HO4    HW219335   9.748   8.495   7.035
 4834HO4     MW19336   9.722   8.429   7.100
 4835HO4     OW19337   8.824   8.569   9.507
 4835HO4    HW119338   8.858   8.485   9.539
 4835HO4    HW219339   8.728   8.559   9.514
 4835HO4     MW19340   8.824   8.569   9.507
 4836HO4     OW19341   9.079   5.663   2.682
 4836HO4    HW119342   9.078   5.570   2.709
 4836HO4    HW219343   9.048   5.711   2.759
 4836HO4     MW19344   9.079   5.663   2.682
 4837HO4     OW19345   3.580   6.538   0.178
 4837HO4    HW119346   3.548   6.573   0.094
 4837HO4    HW219347   3.531   6.587   0.245
 4837HO4     MW19348   3.580   6.538   0.178
 4838HO4     OW19349   7.757   6.474   3.856
 4838HO4    HW119350   7.733   6.410   3.924
 4838HO4    HW219351   7.798   6.421   3.787
 4838HO4     MW19352   7.757   6.474   3.856
 4839HO4     OW19353   5.381   0.077   0.082
 4839HO4    HW119354   5.468   0.116   0.081
 4839HO4    HW219355   5.364   0.053  -0.010
 4839HO4     MW19356   5.381   0.077   0.082
 4840HO4     OW19357   2.396   1.100  10.012
 4840HO4    HW119358   2.391   1.115  10.107
 4840HO4    HW219359   2.477   1.050  10.000
 4840HO4     MW19360   2.396   1.100  10.012
 4841HO4     OW19361   7.658   1.456   2.956
 4841HO4    HW119362   7.568   1.426   2.938
 4841HO4    HW219363   7.683   1.407   3.035
 4841HO4     MW19364   7.658   1.456   2.956
 4842HO4     OW19365   9.140   0.131   7.769
 4842HO4    HW119366   9.193   0.112   7.847
 4842HO4    HW219367   9.075   0.195   7.800
 4842HO4     MW19368   9.140   0.131   7.769
 4843HO4     OW19369   2.617   3.754   2.500
 4843HO4    HW119370   2.711   3.775   2.498
 4843HO4    HW219371   2.612   3.667   2.458
 4843HO4     MW19372   2.617   3.754   2.500
 4844HO4     OW19373   3.405   8.012   2.167
 4844HO4    HW119374   3.445   8.086   2.215
 4844HO4    HW219375   3.478   7.973   2.119
 4844HO4     MW19376   3.405   8.012   2.167
 4845HO4     OW19377   0.758   6.810   2.574
 4845HO4    HW119378   0.838   6.863   2.581
 4845HO4    HW219379   0.687   6.873   2.589
 4845HO4     MW19380   0.758   6.810   2.574
 4846HO4     OW19381   3.016   1.699   4.254
 4846HO4    HW119382   3.026   1.741   4.168
 4846HO4    HW219383   3.000   1.773   4.314
 4846HO4     MW19384   3.016   1.699   4.254
 4847HO4     OW19385   0.783   3.377   2.663
 4847HO4    HW119386   0.726   3.309   2.701
 4847HO4    HW219387   0.797   3.348   2.572
 4847HO4     MW19388   0.783   3.377   2.663
 4848HO4     OW19389   0.282   2.074   1.464
 4848HO4    HW119390   0.320   2.163   1.461
 4848HO4    HW219391   0.345   2.020   1.414
 4848HO4     MW19392   0.282   2.074   1.464
 4849HO4     OW19393   6.496   1.775   5.616
 4849HO4    HW119394   6.529   1.866   5.620
 4849HO4    HW219395   6.406   1.781   5.650
 4849HO4     MW19396   6.496   1.775   5.616
 4850HO4     OW19397   7.467   6.380   7.424
 4850HO4    HW119398   7.502   6.428   7.500
 4850HO4    HW219399   7.502   6.428   7.348
 4850HO4     MW19400   7.467   6.380   7.424
 4851HO4     OW19401   8.980  10.066   8.779
 4851HO4    HW119402   9.067  10.101   8.802
 4851HO4    HW219403   8.923  10.098   8.849
 4851HO4     MW19404   8.980  10.066   8.779
 4852HO4     OW19405   6.107   8.736   7.041
 4852HO4    HW119406   6.130   8.643   7.034
 4852HO4    HW219407   6.070   8.745   7.130
 4852HO4     MW19408   6.107   8.736   7.041
 4853HO4     OW19409   9.118   4.483   4.682
 4853HO4    HW119410   9.168   4.494   4.601
 4853HO4    HW219411   9.181   4.501   4.752
 4853HO4     MW19412   9.118   4.483   4.682
 4854HO4     OW19413   9.591   0.740   1.463
 4854HO4    HW119414   9.535   0.766   1.388
 4854HO4    HW219415   9.639   0.663   1.430
 4854HO4     MW19416   9.591   0.740   1.463
 4855HO4     OW19417   3.667   9.246   2.043
 4855HO4    HW119418   3.750   9.226   2.088
 4855HO4    HW219419   3.662   9.181   1.973
 4855HO4     MW19420   3.667   9.246   2.043
 4856HO4     OW19421   4.178   1.923   9.371
 4856HO4    HW119422   4.175   1.974   9.453
 4856HO4    HW219423   4.227   1.979   9.310
 4856HO4     MW19424   4.178   1.923   9.371
 4857HO4     OW19425   8.204   3.123   9.156
 4857HO4    HW119426   8.182   3.068   9.080
 4857HO4    HW219427   8.181   3.069   9.232
 4857HO4     MW19428   8.204   3.123   9.156
 4858HO4     OW19429   2.795   0.130   4.139
 4858HO4    HW119430   2.842   0.117   4.057
 4858HO4    HW219431   2.724   0.064   4.136
 4858HO4     MW19432   2.795   0.130   4.139
 4859HO4     OW19433   4.405   4.823   6.537
 4859HO4    HW119434   4.366   4.742   6.502
 4859HO4    HW219435   4.416   4.880   6.460
 4859HO4     MW19436   4.405   4.823   6.537
 4860HO4     OW19437   4.210   8.797   3.487
 4860HO4    HW119438   4.172   8.752   3.563
 4860HO4    HW219439   4.192   8.738   3.413
 4860HO4     MW19440   4.210   8.797   3.487
 4861HO4     OW19441   0.824   6.655   7.206
 4861HO4    HW119442   0.837   6.563   7.234
 4861HO4    HW219443   0.781   6.648   7.120
 4861HO4     MW19444   0.824   6.655   7.206
 4862HO4     OW19445   1.289   6.878   5.687
 4862HO4    HW119446   1.322   6.818   5.619
 4862HO4    HW219447   1.310   6.835   5.770
 4862HO4     MW19448   1.289   6.878   5.687
 4863HO4     OW19449   9.764   3.153   0.081
 4863HO4    HW119450   9.669   3.163   0.072
 4863HO4    HW219451   9.782   3.180   0.172
 4863HO4     MW19452   9.764   3.153   0.081
 4864HO4     OW19453   2.970   4.010   0.077
 4864HO4    HW119454   2.972   4.030  -0.017
 4864HO4    HW219455   2.876   3.995   0.096
 4864HO4     MW19456   2.970   4.010   0.077
 4865HO4     OW19457   1.474   7.582   1.822
 4865HO4    HW119458   1.521   7.663   1.801
 4865HO4    HW219459   1.422   7.604   1.901
 4865HO4     MW19460   1.474   7.582   1.822
 4866HO4     OW19461   7.916   9.944   5.366
 4866HO4    HW119462   7.865   9.862   5.355
 4866HO4    HW219463   7.864   9.996   5.428
 4866HO4     MW19464   7.916   9.944   5.366
 4867HO4     OW19465   0.109   4.150   6.083
 4867HO4    HW119466   0.035   4.101   6.044
 4867HO4    HW219467   0.084   4.162   6.175
 4867HO4     MW19468   0.109   4.150   6.083
 4868HO4     OW19469   8.263  10.050   4.494
 4868HO4    HW119470   8.231   9.976   4.548
 4868HO4    HW219471   8.196  10.059   4.426
 4868HO4     MW19472   8.263  10.050   4.494
 4869HO4     OW19473   8.472   8.669   7.145
 4869HO4    HW119474   8.391   8.709   7.177
 4869HO4    HW219475   8.539   8.737   7.157
 4869HO4     MW19476   8.472   8.669   7.145
 4870HO4     OW19477   5.879   7.696   8.621
 4870HO4    HW119478   5.959   7.691   8.569
 4870HO4    HW219479   5.909   7.686   8.712
 4870HO4     MW19480   5.879   7.696   8.621
 4871HO4     OW19481   7.686   6.372   9.263
 4871HO4    HW119482   7.644   6.419   9.190
 4871HO4    HW219483   7.698   6.440   9.330
 4871HO4     MW19484   7.686   6.372   9.263
 4872HO4     OW19485   6.254   2.449   0.070
 4872HO4    HW119486   6.195   2.445  -0.006
 4872HO4    HW219487   6.195   2.443   0.146
 4872HO4     MW19488   6.254   2.449   0.070
 4873HO4     OW19489   2.388   5.120   0.493
 4873HO4    HW119490   2.345   5.039   0.465
 4873HO4    HW219491   2.436   5.149   0.415
 4873HO4     MW19492   2.388   5.120   0.493
 4874HO4     OW19493   3.457   8.629   2.460
 4874HO4    HW119494   3.416   8.596   2.540
 4874HO4    HW219495   3.545   8.588   2.460
 4874HO4     MW19496   3.457   8.629   2.460
 4875HO4     OW19497   2.798   0.566   3.004
 4875HO4    HW119498   2.825   0.622   2.931
 4875HO4    HW219499   2.747   0.625   3.061
 4875HO4     MW19500   2.798   0.566   3.004
 4876HO4     OW19501   2.662   3.594   9.887
 4876HO4    HW119502   2.707   3.537   9.823
 4876HO4    HW219503   2.732   3.647   9.926
 4876HO4     MW19504   2.662   3.594   9.887
 4877HO4     OW19505   2.516   4.628   5.446
 4877HO4    HW119506   2.509   4.723   5.458
 4877HO4    HW219507   2.508   4.616   5.351
 4877HO4     MW19508   2.516   4.628   5.446
 4878HO4     OW19509   0.233   5.996   1.190
 4878HO4    HW119510   0.231   6.043   1.274
 4878HO4    HW219511   0.255   5.905   1.214
 4878HO4     MW19512   0.233   5.996   1.190
 4879HO4     OW19513   7.343   2.768   1.489
 4879HO4    HW119514   7.376   2.828   1.421
 4879HO4    HW219515   7.411   2.769   1.557
 4879HO4     MW19516   7.343   2.768   1.489
 4880HO4     OW19517   0.912   8.084   6.771
 4880HO4    HW119518   0.900   8.144   6.846
 4880HO4    HW219519   0.825   8.080   6.730
 4880HO4     MW19520   0.912   8.084   6.771
 4881HO4     OW19521   6.052   2.083   4.198
 4881HO4    HW119522   6.068   2.177   4.196
 4881HO4    HW219523   6.082   2.056   4.285
 4881HO4     MW19524   6.052   2.083   4.198
 4882HO4     OW19525   1.976   7.715   0.167
 4882HO4    HW119526   1.964   7.774   0.242
 4882HO4    HW219527   1.928   7.758   0.096
 4882HO4     MW19528   1.976   7.715   0.167
 4883HO4     OW19529   7.897   2.499   6.465
 4883HO4    HW119530   7.869   2.539   6.382
 4883HO4    HW219531   7.981   2.457   6.444
 4883HO4     MW19532   7.897   2.499   6.465
 4884HO4     OW19533   3.163   5.213   1.611
 4884HO4    HW119534   3.077   5.171   1.596
 4884HO4    HW219535   3.215   5.144   1.653
 4884HO4     MW19536   3.163   5.213   1.611
 4885HO4     OW19537   7.875   2.905   7.101
 4885HO4    HW119538   7.879   2.826   7.047
 4885HO4    HW219539   7.967   2.923   7.124
 4885HO4     MW19540   7.875   2.905   7.101
 4886HO4     OW19541   7.669   2.278   1.580
 4886HO4    HW119542   7.685   2.368   1.611
 4886HO4    HW219543   7.580   2.281   1.544
 4886HO4     MW19544   7.669   2.278   1.580
 4887HO4     OW19545  10.106   0.056   2.996
 4887HO4    HW119546  10.147  -0.011   2.941
 4887HO4    HW219547  10.077   0.009   3.075
 4887HO4     MW19548  10.106   0.056   2.996
 4888HO4     OW19549   9.104   0.226   1.808
 4888HO4    HW119550   9.081   0.227   1.901
 4888HO4    HW219551   9.192   0.186   1.806
 4888HO4     MW19552   9.104   0.226   1.808
 4889HO4     OW19553   0.889   2.076   5.039
 4889HO4    HW119554   0.965   2.115   5.083
 4889HO4    HW219555   0.917   2.069   4.947
 4889HO4     MW19556   0.889   2.076   5.039
 4890HO4     OW19557   9.301   9.523   6.670
 4890HO4    HW119558   9.351   9.488   6.745
 4890HO4    HW219559   9.210   9.502   6.691
 4890HO4     MW19560   9.301   9.523   6.670
 4891HO4     OW19561   8.695   5.292   3.020
 4891HO4    HW119562   8.768   5.246   2.978
 4891HO4    HW219563   8.688   5.251   3.106
 4891HO4     MW19564   8.695   5.292   3.020
 4892HO4     OW19565   4.953   6.505   7.567
 4892HO4    HW119566   4.948   6.426   7.621
 4892HO4    HW219567   4.987   6.474   7.482
 4892HO4     MW19568   4.953   6.505   7.567
 4893HO4     OW19569   3.344   6.588   2.260
 4893HO4    HW119570   3.252   6.616   2.269
 4893HO4    HW219571   3.375   6.580   2.351
 4893HO4     MW19572   3.344   6.588   2.260
 4894HO4     OW19573   2.769   5.903   0.759
 4894HO4    HW119574   2.718   5.858   0.692
 4894HO4    HW219575   2.704   5.936   0.822
 4894HO4     MW19576   2.769   5.903   0.759
 4895HO4     OW19577   8.503   3.830   0.545
 4895HO4    HW119578   8.549   3.794   0.621
 4895HO4    HW219579   8.557   3.804   0.470
 4895HO4     MW19580   8.503   3.830   0.545
 4896HO4     OW19581   6.501   7.605   0.904
 4896HO4    HW119582   6.482   7.682   0.850
 4896HO4    HW219583   6.580   7.567   0.865
 4896HO4     MW19584   6.501   7.605   0.904
 4897HO4     OW19585   4.411   6.668   7.983
 4897HO4    HW119586   4.409   6.670   7.887
 4897HO4    HW219587   4.418   6.760   8.009
 4897HO4     MW19588   4.411   6.668   7.983
 4898HO4     OW19589   9.439   2.061   5.665
 4898HO4    HW119590   9.525   2.019   5.650
 4898HO4    HW219591   9.450   2.150   5.630
 4898HO4     MW19592   9.439   2.061   5.665
 4899HO4     OW19593   7.901   7.950   8.463
 4899HO4    HW119594   7.984   7.912   8.492
 4899HO4    HW219595   7.834   7.907   8.516
 4899HO4     MW19596   7.901   7.950   8.463
 4900HO4     OW19597   0.777   7.218   8.381
 4900HO4    HW119598   0.735   7.269   8.451
 4900HO4    HW219599   0.762   7.126   8.405
 4900HO4     MW19600   0.777   7.218   8.381
 4901HO4     OW19601  10.002   9.184   2.659
 4901HO4    HW119602  10.021   9.134   2.739
 4901HO4    HW219603   9.969   9.119   2.597
 4901HO4     MW19604  10.002   9.184   2.659
 4902HO4     OW19605   1.582   6.212   6.512
 4902HO4    HW119606   1.671   6.229   6.543
 4902HO4    HW219607   1.568   6.278   6.442
 4902HO4     MW19608   1.582   6.212   6.512
 4903HO4     OW19609   2.733   4.067   7.335
 4903HO4    HW119610   2.757   4.125   7.408
 4903HO4    HW219611   2.817   4.041   7.296
 4903HO4     MW19612   2.733   4.067   7.335
 4904HO4     OW19613   3.404   8.934   3.850
 4904HO4    HW119614   3.417   8.996   3.778
 4904HO4    HW219615   3.420   8.986   3.929
 4904HO4     MW19616   3.404   8.934   3.850
 4905HO4     OW19617   4.566   8.039   4.743
 4905HO4    HW119618   4.659   8.045   4.766
 4905HO4    HW219619   4.564   8.049   4.647
 4905HO4     MW19620   4.566   8.039   4.743
 4906HO4     OW19621   3.689   2.643   9.431
 4906HO4    HW119622   3.663   2.551   9.425
 4906HO4    HW219623   3.767   2.643   9.488
 4906HO4     MW19624   3.689   2.643   9.431
 4907HO4     OW19625   6.747   2.087   2.647
 4907HO4    HW119626   6.775   2.167   2.601
 4907HO4    HW219627   6.711   2.119   2.730
 4907HO4     MW19628   6.747   2.087   2.647
 4908HO4     OW19629   9.146   5.790   6.613
 4908HO4    HW119630   9.130   5.883   6.634
 4908HO4    HW219631   9.214   5.762   6.675
 4908HO4     MW19632   9.146   5.790   6.613
 4909HO4     OW19633   9.094   3.408   6.723
 4909HO4    HW119634   9.087   3.334   6.662
 4909HO4    HW219635   9.164   3.463   6.685
 4909HO4     MW19636   9.094   3.408   6.723
 4910HO4     OW19637   1.097   5.343   1.539
 4910HO4    HW119638   1.074   5.250   1.525
 4910HO4    HW219639   1.026   5.392   1.496
 4910HO4     MW19640   1.097   5.343   1.539
 4911HO4     OW19641   4.450   6.761   9.524
 4911HO4    HW119642   4.495   6.691   9.572
 4911HO4    HW219643   4.419   6.719   9.443
 4911HO4     MW19644   4.450   6.761   9.524
 4912HO4     OW19645   5.085   8.201   2.831
 4912HO4    HW119646   5.040   8.248   2.760
 4912HO4    HW219647   5.049   8.239   2.911
 4912HO4     MW19648   5.085   8.201   2.831
 4913HO4     OW19649   5.831   7.255   7.392
 4913HO4    HW119650   5.784   7.174   7.370
 4913HO4    HW219651   5.868   7.238   7.479
 4913HO4     MW19652   5.831   7.255   7.392
 4914HO4     OW19653   6.552   1.955   8.394
 4914HO4    HW119654   6.517   1.892   8.458
 4914HO4    HW219655   6.549   1.908   8.310
 4914HO4     MW19656   6.552   1.955   8.394
 4915HO4     OW19657   8.003   3.189   3.691
 4915HO4    HW119658   7.958   3.176   3.606
 4915HO4    HW219659   8.084   3.137   3.683
 4915HO4     MW19660   8.003   3.189   3.691
 4916HO4     OW19661   1.016   6.754   3.753
 4916HO4    HW119662   0.964   6.834   3.770
 4916HO4    HW219663   0.998   6.698   3.829
 4916HO4     MW19664   1.016   6.754   3.753
 4917HO4     OW19665   2.895   1.631   5.948
 4917HO4    HW119666   2.848   1.667   5.872
 4917HO4    HW219667   2.849   1.668   6.024
 4917HO4     MW19668   2.895   1.631   5.948
 4918HO4     OW19669   8.518   9.333   5.608
 4918HO4    HW119670   8.530   9.267   5.677
 4918HO4    HW219671   8.532   9.417   5.653
 4918HO4     MW19672   8.518   9.333   5.608
 4919HO4     OW19673   9.669   9.529   6.192
 4919HO4    HW119674   9.735   9.491   6.133
 4919HO4    HW219675   9.715   9.536   6.277
 4919HO4     MW19676   9.669   9.529   6.192
 4920HO4     OW19677   8.621   9.051   1.664
 4920HO4    HW119678   8.578   9.091   1.587
 4920HO4    HW219679   8.583   9.097   1.739
 4920HO4     MW19680   8.621   9.051   1.664
 4921HO4     OW19681   5.855   9.878   5.968
 4921HO4    HW119682   5.853   9.906   5.876
 4921HO4    HW219683   5.817   9.952   6.016
 4921HO4     MW19684   5.855   9.878   5.968
 4922HO4     OW19685   3.434   1.838   0.361
 4922HO4    HW119686   3.373   1.767   0.336
 4922HO4    HW219687   3.384   1.919   0.346
 4922HO4     MW19688   3.434   1.838   0.361
 4923HO4     OW19689   7.049   6.357   1.673
 4923HO4    HW119690   6.998   6.391   1.598
 4923HO4    HW219691   7.001   6.390   1.750
 4923HO4     MW19692   7.049   6.357   1.673
 4924HO4     OW19693   1.597   2.308   5.424
 4924HO4    HW119694   1.622   2.225   5.467
 4924HO4    HW219695   1.578   2.367   5.497
 4924HO4     MW19696   1.597   2.308   5.424
 4925HO4     OW19697   3.278   2.255   7.504
 4925HO4    HW119698   3.214   2.320   7.534
 4925HO4    HW219699   3.361   2.304   7.498
 4925HO4     MW19700   3.278   2.255   7.504
 4926HO4     OW19701   4.595   7.714   1.440
 4926HO4    HW119702   4.640   7.722   1.524
 4926HO4    HW219703   4.549   7.798   1.429
 4926HO4     MW19704   4.595   7.714   1.440
 4927HO4     OW19705   8.273   4.820   2.321
 4927HO4    HW119706   8.187   4.817   2.278
 4927HO4    HW219707   8.302   4.728   2.322
 4927HO4     MW19708   8.273   4.820   2.321
 4928HO4     OW19709   9.011   1.892   6.353
 4928HO4    HW119710   8.923   1.897   6.315
 4928HO4    HW219711   9.067   1.864   6.280
 4928HO4     MW19712   9.011   1.892   6.353
 4929HO4     OW19713   4.172   1.731   9.116
 4929HO4    HW119714   4.234   1.666   9.081
 4929HO4    HW219715   4.208   1.753   9.203
 4929HO4     MW19716   4.172   1.731   9.116
 4930HO4     OW19717   6.717   3.795   0.170
 4930HO4    HW119718   6.717   3.759   0.259
 4930HO4    HW219719   6.623   3.804   0.149
 4930HO4     MW19720   6.717   3.795   0.170
 4931HO4     OW19721   8.303   9.564   9.285
 4931HO4    HW119722   8.379   9.521   9.246
 4931HO4    HW219723   8.255   9.601   9.210
 4931HO4     MW19724   8.303   9.564   9.285
 4932HO4     OW19725   3.484   4.262   2.336
 4932HO4    HW119726   3.460   4.276   2.428
 4932HO4    HW219727   3.422   4.317   2.287
 4932HO4     MW19728   3.484   4.262   2.336
 4933HO4     OW19729   5.836   4.593   6.843
 4933HO4    HW119730   5.882   4.621   6.923
 4933HO4    HW219731   5.779   4.667   6.821
 4933HO4     MW19732   5.836   4.593   6.843
 4934HO4     OW19733   0.834   6.055   6.560
 4934HO4    HW119734   0.856   5.997   6.486
 4934HO4    HW219735   0.886   6.021   6.633
 4934HO4     MW19736   0.834   6.055   6.560
 4935HO4     OW19737   0.353   5.678   8.106
 4935HO4    HW119738   0.394   5.678   8.192
 4935HO4    HW219739   0.426   5.664   8.044
 4935HO4     MW19740   0.353   5.678   8.106
 4936HO4     OW19741   0.088   8.298   0.499
 4936HO4    HW119742   0.024   8.232   0.525
 4936HO4    HW219743   0.082   8.302   0.403
 4936HO4     MW19744   0.088   8.298   0.499
 4937HO4     OW19745   4.898   7.357   0.547
 4937HO4    HW119746   4.903   7.317   0.634
 4937HO4    HW219747   4.829   7.308   0.501
 4937HO4     MW19748   4.898   7.357   0.547
 4938HO4     OW19749   3.381   1.284   3.422
 4938HO4    HW119750   3.390   1.308   3.329
 4938HO4    HW219751   3.429   1.201   3.429
 4938HO4     MW19752   3.381   1.284   3.422
 4939HO4     OW19753   4.913   2.651   6.164
 4939HO4    HW119754   4.930   2.704   6.243
 4939HO4    HW219755   4.935   2.710   6.091
 4939HO4     MW19756   4.913   2.651   6.164
 4940HO4     OW19757   1.466   5.264   4.354
 4940HO4    HW119758   1.502   5.184   4.312
 4940HO4    HW219759   1.532   5.332   4.335
 4940HO4     MW19760   1.466   5.264   4.354
 4941HO4     OW19761   3.202   6.891   1.289
 4941HO4    HW119762   3.106   6.895   1.284
 4941HO4    HW219763   3.232   6.966   1.236
 4941HO4     MW19764   3.202   6.891   1.289
 4942HO4     OW19765   9.487   0.116   4.953
 4942HO4    HW119766   9.548   0.105   5.026
 4942HO4    HW219767   9.425   0.044   4.963
 4942HO4     MW19768   9.487   0.116   4.953
 4943HO4     OW19769   6.398   7.461   9.296
 4943HO4    HW119770   6.416   7.387   9.355
 4943HO4    HW219771   6.482   7.474   9.250
 4943HO4     MW19772   6.398   7.461   9.296
 4944HO4     OW19773   4.337   6.327   4.667
 4944HO4    HW119774   4.410   6.363   4.719
 4944HO4    HW219775   4.260   6.374   4.698
 4944HO4     MW19776   4.337   6.327   4.667
 4945HO4     OW19777   1.602   1.365   6.260
 4945HO4    HW119778   1.607   1.382   6.165
 4945HO4    HW219779   1.688   1.327   6.282
 4945HO4     MW19780   1.602   1.365   6.260
 4946HO4     OW19781   4.489   8.981   2.541
 4946HO4    HW119782   4.409   8.941   2.505
 4946HO4    HW219783   4.474   8.981   2.636
 4946HO4     MW19784   4.489   8.981   2.541
 4947HO4     OW19785   8.523   8.479   2.575
 4947HO4    HW119786   8.529   8.523   2.490
 4947HO4    HW219787   8.613   8.479   2.609
 4947HO4     MW19788   8.523   8.479   2.575
 4948HO4     OW19789   8.735   3.031   4.457
 4948HO4    HW119790   8.678   3.032   4.534
 4948HO4    HW219791   8.679   3.063   4.386
 4948HO4     MW19792   8.735   3.031   4.457
 4949HO4     OW19793   1.959   3.222   0.386
 4949HO4    HW119794   2.013   3.261   0.455
 4949HO4    HW219795   1.999   3.252   0.304
 4949HO4     MW19796   1.959   3.222   0.386
 4950HO4     OW19797   3.847   7.561   0.787
 4950HO4    HW119798   3.868   7.536   0.877
 4950HO4    HW219799   3.754   7.537   0.777
 4950HO4     MW19800   3.847   7.561   0.787
 4951HO4     OW19801   8.130   3.129   7.731
 4951HO4    HW119802   8.166   3.065   7.669
 4951HO4    HW219803   8.098   3.201   7.676
 4951HO4     MW19804   8.130   3.129   7.731
 4952HO4     OW19805   4.871   1.189   9.236
 4952HO4    HW119806   4.926   1.192   9.157
 4952HO4    HW219807   4.783   1.167   9.203
 4952HO4     MW19808   4.871   1.189   9.236
 4953HO4     OW19809   1.914   0.356   4.968
 4953HO4    HW119810   1.970   0.359   4.890
 4953HO4    HW219811   1.833   0.400   4.941
 4953HO4     MW19812   1.914   0.356   4.968
 4954HO4     OW19813   8.723   2.180   5.846
 4954HO4    HW119814   8.694   2.261   5.889
 4954HO4    HW219815   8.764   2.210   5.764
 4954HO4     MW19816   8.723   2.180   5.846
 4955HO4     OW19817   8.665   0.588   3.808
 4955HO4    HW119818   8.675   0.495   3.784
 4955HO4    HW219819   8.731   0.634   3.755
 4955HO4     MW19820   8.665   0.588   3.808
 4956HO4     OW19821   3.906   2.862   0.896
 4956HO4    HW119822   3.847   2.817   0.957
 4956HO4    HW219823   3.865   2.948   0.882
 4956HO4     MW19824   3.906   2.862   0.896
 4957HO4     OW19825   0.140   4.903   8.166
 4957HO4    HW119826   0.198   4.839   8.125
 4957HO4    HW219827   0.197   4.977   8.188
 4957HO4     MW19828   0.140   4.903   8.166
 4958HO4     OW19829   1.534   5.033   2.052
 4958HO4    HW119830   1.457   5.038   2.110
 4958HO4    HW219831   1.538   5.120   2.010
 4958HO4     MW19832   1.534   5.033   2.052
 4959HO4     OW19833   1.449   5.740   1.765
 4959HO4    HW119834   1.424   5.807   1.700
 4959HO4    HW219835   1.408   5.659   1.732
 4959HO4     MW19836   1.449   5.740   1.765
 4960HO4     OW19837   4.286   7.834   3.621
 4960HO4    HW119838   4.331   7.791   3.694
 4960HO4    HW219839   4.326   7.796   3.542
 4960HO4     MW19840   4.286   7.834   3.621
 4961HO4     OW19841   9.895   8.210  10.031
 4961HO4    HW119842   9.836   8.134  10.039
 4961HO4    HW219843   9.866   8.270  10.100
 4961HO4     MW19844   9.895   8.210  10.031
 4962HO4     OW19845   2.001   7.002   0.994
 4962HO4    HW119846   2.004   6.933   0.928
 4962HO4    HW219847   1.976   7.081   0.945
 4962HO4     MW19848   2.001   7.002   0.994
 4963HO4     OW19849   6.910   6.145   3.554
 4963HO4    HW119850   6.860   6.223   3.528
 4963HO4    HW219851   6.999   6.163   3.523
 4963HO4     MW19852   6.910   6.145   3.554
 4964HO4     OW19853   3.492   1.778   4.162
 4964HO4    HW119854   3.537   1.703   4.203
 4964HO4    HW219855   3.553   1.851   4.171
 4964HO4     MW19856   3.492   1.778   4.162
 4965HO4     OW19857   5.470   5.400   2.855
 4965HO4    HW119858   5.453   5.385   2.949
 4965HO4    HW219859   5.466   5.312   2.816
 4965HO4     MW19860   5.470   5.400   2.855
 4966HO4     OW19861   8.660   5.478   4.457
 4966HO4    HW119862   8.628   5.393   4.489
 4966HO4    HW219863   8.667   5.466   4.361
 4966HO4     MW19864   8.660   5.478   4.457
 4967HO4     OW19865   7.581   8.559   9.396
 4967HO4    HW119866   7.611   8.499   9.465
 4967HO4    HW219867   7.584   8.507   9.316
 4967HO4     MW19868   7.581   8.559   9.396
 4968HO4     OW19869   3.242   0.996   4.776
 4968HO4    HW119870   3.187   1.074   4.780
 4968HO4    HW219871   3.330   1.026   4.802
 4968HO4     MW19872   3.242   0.996   4.776
 4969HO4     OW19873   3.361   2.151   2.490
 4969HO4    HW119874   3.318   2.214   2.431
 4969HO4    HW219875   3.439   2.122   2.441
 4969HO4     MW19876   3.361   2.151   2.490
 4970HO4     OW19877   7.818   9.405   4.159
 4970HO4    HW119878   7.888   9.470   4.151
 4970HO4    HW219879   7.766   9.416   4.079
 4970HO4     MW19880   7.818   9.405   4.159
 4971HO4     OW19881   6.769   2.828   6.599
 4971HO4    HW119882   6.771   2.884   6.677
 4971HO4    HW219883   6.770   2.889   6.525
 4971HO4     MW19884   6.769   2.828   6.599
 4972HO4     OW19885   2.803   4.688   3.203
 4972HO4    HW119886   2.870   4.696   3.134
 4972HO4    HW219887   2.719   4.690   3.155
 4972HO4     MW19888   2.803   4.688   3.203
 4973HO4     OW19889   7.478   9.119   4.083
 4973HO4    HW119890   7.424   9.089   4.157
 4973HO4    HW219891   7.502   9.038   4.037
 4973HO4     MW19892   7.478   9.119   4.083
 4974HO4     OW19893   1.412   3.637   9.745
 4974HO4    HW119894   1.413   3.669   9.836
 4974HO4    HW219895   1.319   3.623   9.725
 4974HO4     MW19896   1.412   3.637   9.745
 4975HO4     OW19897   5.283   3.366   3.853
 4975HO4    HW119898   5.245   3.319   3.927
 4975HO4    HW219899   5.339   3.433   3.893
 4975HO4     MW19900   5.283   3.366   3.853
 4976HO4     OW19901   5.456   8.583   6.305
 4976HO4    HW119902   5.523   8.590   6.374
 4976HO4    HW219903   5.489   8.515   6.246
 4976HO4     MW19904   5.456   8.583   6.305
 4977HO4     OW19905   3.925   4.071   9.385
 4977HO4    HW119906   3.965   3.989   9.416
 4977HO4    HW219907   3.992   4.111   9.329
 4977HO4     MW19908   3.925   4.071   9.385
 4978HO4     OW19909   4.603   8.824   9.142
 4978HO4    HW119910   4.655   8.767   9.085
 4978HO4    HW219911   4.557   8.764   9.201
 4978HO4     MW19912   4.603   8.824   9.142
 4979HO4     OW19913   3.698   9.325   5.630
 4979HO4    HW119914   3.603   9.325   5.640
 4979HO4    HW219915   3.732   9.369   5.708
 4979HO4     MW19916   3.698   9.325   5.630
 4980HO4     OW19917   2.099   1.189   2.687
 4980HO4    HW119918   2.112   1.284   2.691
 4980HO4    HW219919   2.153   1.154   2.758
 4980HO4     MW19920   2.099   1.189   2.687
 4981HO4     OW19921   0.310   4.128   2.418
 4981HO4    HW119922   0.273   4.112   2.330
 4981HO4    HW219923   0.403   4.104   2.409
 4981HO4     MW19924   0.310   4.128   2.418
 4982HO4     OW19925   1.808   4.866   6.423
 4982HO4    HW119926   1.846   4.827   6.502
 4982HO4    HW219927   1.857   4.826   6.351
 4982HO4     MW19928   1.808   4.866   6.423
 4983HO4     OW19929   8.379   5.997   0.589
 4983HO4    HW119930   8.441   5.925   0.577
 4983HO4    HW219931   8.306   5.958   0.638
 4983HO4     MW19932   8.379   5.997   0.589
 4984HO4     OW19933   7.402   4.021   6.360
 4984HO4    HW119934   7.364   3.963   6.293
 4984HO4    HW219935   7.477   3.971   6.394
 4984HO4     MW19936   7.402   4.021   6.360
 4985HO4     OW19937   8.948   9.987   7.323
 4985HO4    HW119938   8.869   9.954   7.367
 4985HO4    HW219939   8.943  10.082   7.334
 4985HO4     MW19940   8.948   9.987   7.323
 4986HO4     OW19941   8.313   2.725   8.913
 4986HO4    HW119942   8.292   2.688   8.826
 4986HO4    HW219943   8.298   2.651   8.974
 4986HO4     MW19944   8.313   2.725   8.913
 4987HO4     OW19945   4.223   6.967   4.951
 4987HO4    HW119946   4.156   6.898   4.952
 4987HO4    HW219947   4.300   6.926   4.992
 4987HO4     MW19948   4.223   6.967   4.951
 4988HO4     OW19949  10.035   0.696   7.195
 4988HO4    HW119950  10.048   0.708   7.289
 4988HO4    HW219951  10.079   0.772   7.155
 4988HO4     MW19952  10.035   0.696   7.195
 4989HO4     OW19953   8.770   8.676   7.894
 4989HO4    HW119954   8.794   8.752   7.948
 4989HO4    HW219955   8.758   8.713   7.805
 4989HO4     MW19956   8.770   8.676   7.894
 4990HO4     OW19957   7.195   3.097   8.388
 4990HO4    HW119958   7.270   3.075   8.443
 4990HO4    HW219959   7.200   3.192   8.376
 4990HO4     MW19960   7.195   3.097   8.388
 4991HO4     OW19961   8.938   4.087   1.498
 4991HO4    HW119962   8.965   4.123   1.583
 4991HO4    HW219963   8.856   4.040   1.518
 4991HO4     MW19964   8.938   4.087   1.498
 4992HO4     OW19965   9.785   1.294   9.759
 4992HO4    HW119966   9.757   1.259   9.674
 4992HO4    HW219967   9.730   1.247   9.823
 4992HO4     MW19968   9.785   1.294   9.759
 4993HO4     OW19969   4.508   9.247   6.730
 4993HO4    HW119970   4.458   9.273   6.652
 4993HO4    HW219971   4.535   9.156   6.713
 4993HO4     MW19972   4.508   9.247   6.730
 4994HO4     OW19973   4.195   7.100   2.587
 4994HO4    HW119974   4.139   7.136   2.517
 4994HO4    HW219975   4.283   7.102   2.550
 4994HO4     MW19976   4.195   7.100   2.587
 4995HO4     OW19977   3.633   0.851   2.264
 4995HO4    HW119978   3.565   0.917   2.245
 4995HO4    HW219979   3.616   0.825   2.355
 4995HO4     MW19980   3.633   0.851   2.264
 4996HO4     OW19981   3.327   9.830   4.175
 4996HO4    HW119982   3.292   9.841   4.086
 4996HO4    HW219983   3.423   9.833   4.164
 4996HO4     MW19984   3.327   9.830   4.175
 4997HO4     OW19985   7.595   9.799   8.225
 4997HO4    HW119986   7.562   9.889   8.223
 4997HO4    HW219987   7.635   9.786   8.138
 4997HO4     MW19988   7.595   9.799   8.225
 4998HO4     OW19989   0.129   1.384   7.215
 4998HO4    HW119990   0.218   1.373   7.250
 4998HO4    HW219991   0.132   1.341   7.129
 4998HO4     MW19992   0.129   1.384   7.215
 4999HO4     OW19993   3.435   4.064   6.631
 4999HO4    HW119994   3.354   4.098   6.593
 4999HO4    HW219995   3.448   3.979   6.587
 4999HO4     MW19996   3.435   4.064   6.631
 5000HO4     OW19997   7.898   0.180   2.592
 5000HO4    HW119998   7.907   0.147   2.682
 5000HO4    HW219999   7.948   0.118   2.539
 5000HO4     MW20000   7.898   0.180   2.592
 5001HO4     OW20001   8.417   2.426  10.097
 5001HO4    HW120002   8.471   2.360  10.142
 5001HO4    HW220003   8.368   2.376  10.031
 5001HO4     MW20004   8.417   2.426  10.097
 5002HO4     OW20005   9.990   4.738   8.156
 5002HO4    HW120006   9.907   4.749   8.109
 5002HO4    HW220007  10.041   4.678   8.100
 5002HO4     MW20008   9.990   4.738   8.156
 5003HO4     OW20009   0.617   0.183   4.878
 5003HO4    HW120010   0.703   0.150   4.851
 5003HO4    HW220011   0.562   0.104   4.882
 5003HO4     MW20012   0.617   0.183   4.878
 5004HO4     OW20013   9.732   6.849   1.259
 5004HO4    HW120014   9.777   6.933   1.245
 5004HO4    HW220015   9.655   6.854   1.202
 5004HO4     MW20016   9.732   6.849   1.259
 5005HO4     OW20017   0.869   1.918   9.536
 5005HO4    HW120018   0.900   1.914   9.627
 5005HO4    HW220019   0.939   1.876   9.485
 5005HO4     MW20020   0.869   1.918   9.536
 5006HO4     OW20021   6.938   4.210   4.203
 5006HO4    HW120022   6.911   4.185   4.292
 5006HO4    HW220023   6.952   4.305   4.208
 5006HO4     MW20024   6.938   4.210   4.203
 5007HO4     OW20025  10.087   0.351   0.108
 5007HO4    HW120026  10.041   0.342   0.192
 5007HO4    HW220027  10.036   0.416   0.059
 5007HO4     MW20028  10.087   0.351   0.108
 5008HO4     OW20029   8.038   4.293   7.446
 5008HO4    HW120030   8.098   4.222   7.419
 5008HO4    HW220031   8.082   4.333   7.521
 5008HO4     MW20032   8.038   4.293   7.446
 5009HO4     OW20033   4.426   7.217   2.913
 5009HO4    HW120034   4.503   7.168   2.943
 5009HO4    HW220035   4.461   7.276   2.845
 5009HO4     MW20036   4.426   7.217   2.913
 5010HO4     OW20037   6.008   2.736   2.025
 5010HO4    HW120038   5.978   2.686   1.948
 5010HO4    HW220039   5.935   2.796   2.044
 5010HO4     MW20040   6.008   2.736   2.025
 5011HO4     OW20041   3.861   3.042   8.869
 5011HO4    HW120042   3.856   3.101   8.793
 5011HO4    HW220043   3.857   3.101   8.945
 5011HO4     MW20044   3.861   3.042   8.869
 5012HO4     OW20045   7.739   3.925   8.359
 5012HO4    HW120046   7.693   3.959   8.282
 5012HO4    HW220047   7.673   3.871   8.404
 5012HO4     MW20048   7.739   3.925   8.359
 5013HO4     OW20049   9.752   3.288   3.849
 5013HO4    HW120050   9.655   3.290   3.852
 5013HO4    HW220051   9.778   3.267   3.940
 5013HO4     MW20052   9.752   3.288   3.849
 5014HO4     OW20053   0.423   7.908   6.931
 5014HO4    HW120054   0.445   7.879   6.842
 5014HO4    HW220055   0.417   7.826   6.981
 5014HO4     MW20056   0.423   7.908   6.931
 5015HO4     OW20057   0.754   4.443   8.131
 5015HO4    HW120058   0.819   4.393   8.182
 5015HO4    HW220059   0.769   4.534   8.157
 5015HO4     MW20060   0.754   4.443   8.131
 5016HO4     OW20061   6.519   7.277   3.332
 5016HO4    HW120062   6.491   7.329   3.408
 5016HO4    HW220063   6.521   7.340   3.259
 5016HO4     MW20064   6.519   7.277   3.332
 5017HO4     OW20065   8.617   9.555   7.827
 5017HO4    HW120066   8.654   9.583   7.911
 5017HO4    HW220067   8.668   9.604   7.761
 5017HO4     MW20068   8.617   9.555   7.827
 5018HO4     OW20069   1.056   7.217   1.304
 5018HO4    HW120070   1.088   7.274   1.374
 5018HO4    HW220071   1.128   7.214   1.240
 5018HO4     MW20072   1.056   7.217   1.304
 5019HO4     OW20073   2.200   3.592   8.311
 5019HO4    HW120074   2.202   3.616   8.218
 5019HO4    HW220075   2.288   3.614   8.342
 5019HO4     MW20076   2.200   3.592   8.311
 5020HO4     OW20077   9.183   2.524   2.183
 5020HO4    HW120078   9.164   2.615   2.207
 5020HO4    HW220079   9.240   2.530   2.105
 5020HO4     MW20080   9.183   2.524   2.183
 5021HO4     OW20081   6.006   9.368   5.339
 5021HO4    HW120082   6.048   9.398   5.421
 5021HO4    HW220083   6.005   9.447   5.283
 5021HO4     MW20084   6.006   9.368   5.339
 5022HO4     OW20085   4.843   9.628   8.719
 5022HO4    HW120086   4.906   9.610   8.649
 5022HO4    HW220087   4.895   9.623   8.800
 5022HO4     MW20088   4.843   9.628   8.719
 5023HO4     OW20089   3.054   0.741   1.731
 5023HO4    HW120090   2.989   0.714   1.665
 5023HO4    HW220091   3.002   0.772   1.805
 5023HO4     MW20092   3.054   0.741   1.731
 5024HO4     OW20093   9.611   1.093   1.515
 5024HO4    HW120094   9.584   1.054   1.598
 5024HO4    HW220095   9.542   1.068   1.453
 5024HO4     MW20096   9.611   1.093   1.515
 5025HO4     OW20097   8.284   6.218   0.664
 5025HO4    HW120098   8.193   6.190   0.678
 5025HO4    HW220099   8.282   6.260   0.577
 5025HO4     MW20100   8.284   6.218   0.664
 5026HO4     OW20101   4.350   1.645   2.830
 5026HO4    HW120102   4.324   1.696   2.752
 5026HO4    HW220103   4.443   1.665   2.841
 5026HO4     MW20104   4.350   1.645   2.830
 5027HO4     OW20105   8.628   3.955   8.590
 5027HO4    HW120106   8.650   4.022   8.524
 5027HO4    HW220107   8.640   4.000   8.674
 5027HO4     MW20108   8.628   3.955   8.590
 5028HO4     OW20109   6.366   7.310   7.292
 5028HO4    HW120110   6.274   7.339   7.285
 5028HO4    HW220111   6.416   7.392   7.290
 5028HO4     MW20112   6.366   7.310   7.292
 5029HO4     OW20113   6.137   4.884   8.310
 5029HO4    HW120114   6.061   4.943   8.320
 5029HO4    HW220115   6.103   4.798   8.335
 5029HO4     MW20116   6.137   4.884   8.310
 5030HO4     OW20117   9.434   1.068   9.673
 5030HO4    HW120118   9.476   1.047   9.588
 5030HO4    HW220119   9.504   1.052   9.738
 5030HO4     MW20120   9.434   1.068   9.673
 5031HO4     OW20121   5.149  10.089   0.558
 5031HO4    HW120122   5.112  10.051   0.477
 5031HO4    HW220123   5.077  10.141   0.594
 5031HO4     MW20124   5.149  10.089   0.558
 5032HO4     OW20125   7.323   8.181   5.699
 5032HO4    HW120126   7.263   8.107   5.686
 5032HO4    HW220127   7.326   8.225   5.614
 5032HO4     MW20128   7.323   8.181   5.699
 5033HO4     OW20129   9.716   4.430   7.351
 5033HO4    HW120130   9.661   4.507   7.331
 5033HO4    HW220131   9.654   4.356   7.352
 5033HO4     MW20132   9.716   4.430   7.351
 5034HO4     OW20133   4.254   1.750   3.224
 5034HO4    HW120134   4.337   1.799   3.225
 5034HO4    HW220135   4.262   1.688   3.297
 5034HO4     MW20136   4.254   1.750   3.224
 5035HO4     OW20137   9.796   8.624   0.887
 5035HO4    HW120138   9.837   8.692   0.833
 5035HO4    HW220139   9.713   8.604   0.842
 5035HO4     MW20140   9.796   8.624   0.887
 5036HO4     OW20141   8.714   5.767   0.127
 5036HO4    HW120142   8.761   5.849   0.147
 5036HO4    HW220143   8.630   5.776   0.174
 5036HO4     MW20144   8.714   5.767   0.127
 5037HO4     OW20145   5.602   7.043   7.137
 5037HO4    HW120146   5.661   7.094   7.193
 5037HO4    HW220147   5.660   7.002   7.073
 5037HO4     MW20148   5.602   7.043   7.137
 5038HO4     OW20149   6.221   4.177   5.597
 5038HO4    HW120150   6.272   4.214   5.670
 5038HO4    HW220151   6.151   4.127   5.640
 5038HO4     MW20152   6.221   4.177   5.597
 5039HO4     OW20153   6.400   6.912   8.942
 5039HO4    HW120154   6.481   6.940   8.985
 5039HO4    HW220155   6.330   6.930   9.006
 5039HO4     MW20156   6.400   6.912   8.942
 5040HO4     OW20157   5.908   9.121   5.717
 5040HO4    HW120158   5.882   9.070   5.795
 5040HO4    HW220159   5.959   9.194   5.753
 5040HO4     MW20160   5.908   9.121   5.717
 5041HO4     OW20161   8.986   1.180   4.207
 5041HO4    HW120162   8.937   1.181   4.290
 5041HO4    HW220163   9.048   1.253   4.215
 5041HO4     MW20164   8.986   1.180   4.207
 5042HO4     OW20165   7.052   4.607   9.982
 5042HO4    HW120166   6.989   4.571  10.046
 5042HO4    HW220167   7.005   4.679   9.940
 5042HO4     MW20168   7.052   4.607   9.982
 5043HO4     OW20169   8.055   7.773   9.972
 5043HO4    HW120170   8.137   7.759   9.923
 5043HO4    HW220171   8.084   7.790  10.062
 5043HO4     MW20172   8.055   7.773   9.972
 5044HO4     OW20173   4.651   0.033   2.027
 5044HO4    HW120174   4.637  -0.013   2.111
 5044HO4    HW220175   4.653  -0.037   1.962
 5044HO4     MW20176   4.651   0.033   2.027
 5045HO4     OW20177   5.057   1.757   5.235
 5045HO4    HW120178   5.075   1.666   5.259
 5045HO4    HW220179   5.110   1.773   5.156
 5045HO4     MW20180   5.057   1.757   5.235
 5046HO4     OW20181   1.876   1.333   9.866
 5046HO4    HW120182   1.846   1.276   9.938
 5046HO4    HW220183   1.928   1.401   9.910
 5046HO4     MW20184   1.876   1.333   9.866
 5047HO4     OW20185   6.077   7.345   2.539
 5047HO4    HW120186   6.110   7.398   2.613
 5047HO4    HW220187   6.120   7.260   2.549
 5047HO4     MW20188   6.077   7.345   2.539
 5048HO4     OW20189   3.807   8.566   1.401
 5048HO4    HW120190   3.761   8.483   1.384
 5048HO4    HW220191   3.878   8.542   1.461
 5048HO4     MW20192   3.807   8.566   1.401
 5049HO4     OW20193   5.883   6.732   7.326
 5049HO4    HW120194   5.957   6.791   7.344
 5049HO4    HW220195   5.917   6.671   7.259
 5049HO4     MW20196   5.883   6.732   7.326
 5050HO4     OW20197   6.797   5.628   9.702
 5050HO4    HW120198   6.850   5.603   9.778
 5050HO4    HW220199   6.841   5.706   9.667
 5050HO4     MW20200   6.797   5.628   9.702
 5051HO4     OW20201   9.028   6.616   5.162
 5051HO4    HW120202   8.943   6.599   5.204
 5051HO4    HW220203   9.010   6.605   5.068
 5051HO4     MW20204   9.028   6.616   5.162
 5052HO4     OW20205   2.749   2.306   8.170
 5052HO4    HW120206   2.659   2.297   8.201
 5052HO4    HW220207   2.790   2.221   8.188
 5052HO4     MW20208   2.749   2.306   8.170
 5053HO4     OW20209   2.137   9.453   7.818
 5053HO4    HW120210   2.049   9.434   7.852
 5053HO4    HW220211   2.125   9.459   7.723
 5053HO4     MW20212   2.137   9.453   7.818
 5054HO4     OW20213   0.086   5.619   0.149
 5054HO4    HW120214   0.096   5.573   0.233
 5054HO4    HW220215   0.029   5.561   0.097
 5054HO4     MW20216   0.086   5.619   0.149
 5055HO4     OW20217   1.829   8.551   5.333
 5055HO4    HW120218   1.767   8.487   5.370
 5055HO4    HW220219   1.827   8.533   5.239
 5055HO4     MW20220   1.829   8.551   5.333
 5056HO4     OW20221   8.143   3.512   7.214
 5056HO4    HW120222   8.224   3.498   7.263
 5056HO4    HW220223   8.165   3.486   7.124
 5056HO4     MW20224   8.143   3.512   7.214
 5057HO4     OW20225   0.042   1.832   4.118
 5057HO4    HW120226   0.071   1.850   4.208
 5057HO4    HW220227   0.113   1.777   4.082
 5057HO4     MW20228   0.042   1.832   4.118
 5058HO4     OW20229   3.551   1.610   4.044
 5058HO4    HW120230   3.584   1.552   4.114
 5058HO4    HW220231   3.584   1.571   3.963
 5058HO4     MW20232   3.551   1.610   4.044
 5059HO4     OW20233   0.115   3.530   2.067
 5059HO4    HW120234   0.137   3.471   1.995
 5059HO4    HW220235   0.123   3.476   2.146
 5059HO4     MW20236   0.115   3.530   2.067
 5060HO4     OW20237   1.757   8.863   3.736
 5060HO4    HW120238   1.739   8.789   3.677
 5060HO4    HW220239   1.820   8.917   3.687
 5060HO4     MW20240   1.757   8.863   3.736
 5061HO4     OW20241   2.899   7.500   7.161
 5061HO4    HW120242   2.862   7.549   7.087
 5061HO4    HW220243   2.881   7.555   7.238
 5061HO4     MW20244   2.899   7.500   7.161
 5062HO4     OW20245   1.449   9.431   2.673
 5062HO4    HW120246   1.443   9.401   2.582
 5062HO4    HW220247   1.388   9.374   2.721
 5062HO4     MW20248   1.449   9.431   2.673
 5063HO4     OW20249   1.074   0.190   3.437
 5063HO4    HW120250   1.132   0.222   3.507
 5063HO4    HW220251   1.115   0.221   3.356
 5063HO4     MW20252   1.074   0.190   3.437
 5064HO4     OW20253   2.407   7.230   8.476
 5064HO4    HW120254   2.347   7.226   8.552
 5064HO4    HW220255   2.492   7.200   8.511
 5064HO4     MW20256   2.407   7.230   8.476
 5065HO4     OW20257   9.707   7.643   1.015
 5065HO4    HW120258   9.645   7.687   1.074
 5065HO4    HW220259   9.720   7.556   1.054
 5065HO4     MW20260   9.707   7.643   1.015
 5066HO4     OW20261   8.858   9.174   4.295
 5066HO4    HW120262   8.919   9.171   4.221
 5066HO4    HW220263   8.914   9.181   4.373
 5066HO4     MW20264   8.858   9.174   4.295
 5067HO4     OW20265   3.584   7.595   0.923
 5067HO4    HW120266   3.521   7.576   0.992
 5067HO4    HW220267   3.623   7.510   0.901
 5067HO4     MW20268   3.584   7.595   0.923
 5068HO4     OW20269   8.285   2.068   9.782
 5068HO4    HW120270   8.246   2.085   9.869
 5068HO4    HW220271   8.218   2.099   9.720
 5068HO4     MW20272   8.285   2.068   9.782
 5069HO4     OW20273   1.493   9.429   9.716
 5069HO4    HW120274   1.503   9.378   9.796
 5069HO4    HW220275   1.421   9.386   9.668
 5069HO4     MW20276   1.493   9.429   9.716
 5070HO4     OW20277   5.791   2.455   8.717
 5070HO4    HW120278   5.725   2.460   8.786
 5070HO4    HW220279   5.741   2.435   8.637
 5070HO4     MW20280   5.791   2.455   8.717
 5071HO4     OW20281   7.437   7.130   8.514
 5071HO4    HW120282   7.471   7.166   8.431
 5071HO4    HW220283   7.484   7.179   8.582
 5071HO4     MW20284   7.437   7.130   8.514
 5072HO4     OW20285   8.711   5.808   9.916
 5072HO4    HW120286   8.681   5.742   9.979
 5072HO4    HW220287   8.631   5.833   9.867
 5072HO4     MW20288   8.711   5.808   9.916
 5073HO4     OW20289   4.458   5.882   0.075
 5073HO4    HW120290   4.482   5.798   0.032
 5073HO4    HW220291   4.413   5.856   0.155
 5073HO4     MW20292   4.458   5.882   0.075
 5074HO4     OW20293   9.291   9.613   8.463
 5074HO4    HW120294   9.242   9.655   8.391
 5074HO4    HW220295   9.253   9.650   8.543
 5074HO4     MW20296   9.291   9.613   8.463
 5075HO4     OW20297   1.809   1.228   5.205
 5075HO4    HW120298   1.881   1.166   5.218
 5075HO4    HW220299   1.763   1.195   5.128
 5075HO4     MW20300   1.809   1.228   5.205
 5076HO4     OW20301  -0.028   0.662   9.286
 5076HO4    HW120302   0.034   0.718   9.333
 5076HO4    HW220303   0.027   0.599   9.239
 5076HO4     MW20304  -0.028   0.662   9.286
 5077HO4     OW20305   8.137   6.271   8.500
 5077HO4    HW120306   8.101   6.319   8.575
 5077HO4    HW220307   8.063   6.267   8.437
 5077HO4     MW20308   8.137   6.271   8.500
 5078HO4     OW20309   4.988   8.648   5.035
 5078HO4    HW120310   4.927   8.712   4.997
 5078HO4    HW220311   4.939   8.608   5.107
 5078HO4     MW20312   4.988   8.648   5.035
 5079HO4     OW20313   6.679   2.989   7.627
 5079HO4    HW120314   6.718   2.945   7.704
 5079HO4    HW220315   6.721   3.076   7.626
 5079HO4     MW20316   6.679   2.989   7.627
 5080HO4     OW20317   5.518   8.474   1.566
 5080HO4    HW120318   5.428   8.442   1.581
 5080HO4    HW220319   5.513   8.568   1.586
 5080HO4     MW20320   5.518   8.474   1.566
 5081HO4     OW20321   2.912   0.662   6.804
 5081HO4    HW120322   2.823   0.683   6.835
 5081HO4    HW220323   2.921   0.567   6.821
 5081HO4     MW20324   2.912   0.662   6.804
 5082HO4     OW20325   8.066   5.029   2.531
 5082HO4    HW120326   7.995   5.068   2.583
 5082HO4    HW220327   8.072   5.086   2.454
 5082HO4     MW20328   8.066   5.029   2.531
 5083HO4     OW20329   3.125   1.971   5.759
 5083HO4    HW120330   3.089   1.997   5.844
 5083HO4    HW220331   3.198   2.032   5.745
 5083HO4     MW20332   3.125   1.971   5.759
 5084HO4     OW20333   0.070   1.564   2.101
 5084HO4    HW120334   0.120   1.512   2.038
 5084HO4    HW220335   0.108   1.540   2.187
 5084HO4     MW20336   0.070   1.564   2.101
 5085HO4     OW20337   3.959   6.593   5.532
 5085HO4    HW120338   3.927   6.645   5.457
 5085HO4    HW220339   3.932   6.643   5.609
 5085HO4     MW20340   3.959   6.593   5.532
 5086HO4     OW20341   7.078   8.304   1.486
 5086HO4    HW120342   7.001   8.362   1.485
 5086HO4    HW220343   7.103   8.301   1.579
 5086HO4     MW20344   7.078   8.304   1.486
 5087HO4     OW20345   3.463   1.600   9.778
 5087HO4    HW120346   3.486   1.646   9.859
 5087HO4    HW220347   3.491   1.661   9.708
 5087HO4     MW20348   3.463   1.600   9.778
 5088HO4     OW20349   6.119   2.591   5.945
 5088HO4    HW120350   6.162   2.505   5.951
 5088HO4    HW220351   6.028   2.573   5.971
 5088HO4     MW20352   6.119   2.591   5.945
 5089HO4     OW20353   9.585   2.398   2.209
 5089HO4    HW120354   9.507   2.396   2.153
 5089HO4    HW220355   9.641   2.466   2.170
 5089HO4     MW20356   9.585   2.398   2.209
 5090HO4     OW20357   6.236   9.721   4.226
 5090HO4    HW120358   6.318   9.763   4.200
 5090HO4    HW220359   6.167   9.780   4.193
 5090HO4     MW20360   6.236   9.721   4.226
 5091HO4     OW20361   5.310   2.394   4.584
 5091HO4    HW120362   5.319   2.341   4.504
 5091HO4    HW220363   5.219   2.380   4.612
 5091HO4     MW20364   5.310   2.394   4.584
 5092HO4     OW20365   1.752   5.353   6.010
 5092HO4    HW120366   1.780   5.376   6.099
 5092HO4    HW220367   1.831   5.365   5.957
 5092HO4     MW20368   1.752   5.353   6.010
 5093HO4     OW20369   6.133   5.366   7.732
 5093HO4    HW120370   6.156   5.423   7.658
 5093HO4    HW220371   6.191   5.394   7.803
 5093HO4     MW20372   6.133   5.366   7.732
 5094HO4     OW20373   8.348   3.000   2.149
 5094HO4    HW120374   8.389   2.913   2.154
 5094HO4    HW220375   8.357   3.037   2.237
 5094HO4     MW20376   8.348   3.000   2.149
 5095HO4     OW20377   7.886   3.050   6.798
 5095HO4    HW120378   7.808   3.008   6.836
 5095HO4    HW220379   7.933   3.086   6.874
 5095HO4     MW20380   7.886   3.050   6.798
 5096HO4     OW20381   1.771   6.689   0.713
 5096HO4    HW120382   1.801   6.706   0.623
 5096HO4    HW220383   1.851   6.664   0.761
 5096HO4     MW20384   1.771   6.689   0.713
 5097HO4     OW20385   2.963   3.289   3.194
 5097HO4    HW120386   3.038   3.310   3.251
 5097HO4    HW220387   3.000   3.232   3.126
 5097HO4     MW20388   2.963   3.289   3.194
 5098HO4     OW20389   4.414   1.233   8.806
 5098HO4    HW120390   4.375   1.280   8.731
 5098HO4    HW220391   4.453   1.155   8.766
 5098HO4     MW20392   4.414   1.233   8.806
 5099HO4     OW20393   0.871   6.790   6.388
 5099HO4    HW120394   0.897   6.771   6.297
 5099HO4    HW220395   0.903   6.880   6.403
 5099HO4     MW20396   0.871   6.790   6.388
 5100HO4     OW20397   1.438   1.002   7.861
 5100HO4    HW120398   1.376   1.064   7.822
 5100HO4    HW220399   1.459   1.040   7.946
 5100HO4     MW20400   1.438   1.002   7.861
 5101HO4     OW20401   9.506   1.414   8.500
 5101HO4    HW120402   9.529   1.383   8.412
 5101HO4    HW220403   9.559   1.360   8.559
 5101HO4     MW20404   9.506   1.414   8.500
 5102HO4     OW20405   6.842   8.647   3.787
 5102HO4    HW120406   6.930   8.608   3.786
 5102HO4    HW220407   6.844   8.714   3.718
 5102HO4     MW20408   6.842   8.647   3.787
 5103HO4     OW20409   1.379   7.343   9.389
 5103HO4    HW120410   1.425   7.301   9.462
 5103HO4    HW220411   1.432   7.323   9.312
 5103HO4     MW20412   1.379   7.343   9.389
 5104HO4     OW20413   5.261   1.551   5.177
 5104HO4    HW120414   5.248   1.545   5.082
 5104HO4    HW220415   5.331   1.487   5.196
 5104HO4     MW20416   5.261   1.551   5.177
 5105HO4     OW20417   1.451   9.290   9.964
 5105HO4    HW120418   1.360   9.267   9.987
 5105HO4    HW220419   1.502   9.213   9.991
 5105HO4     MW20420   1.451   9.290   9.964
 5106HO4     OW20421   8.533   1.717   3.201
 5106HO4    HW120422   8.488   1.747   3.280
 5106HO4    HW220423   8.461   1.702   3.138
 5106HO4     MW20424   8.533   1.717   3.201
 5107HO4     OW20425   4.974   3.094   7.111
 5107HO4    HW120426   4.958   3.120   7.203
 5107HO4    HW220427   4.991   3.177   7.066
 5107HO4     MW20428   4.974   3.094   7.111
 5108HO4     OW20429   3.597   2.234   5.578
 5108HO4    HW120430   3.649   2.182   5.639
 5108HO4    HW220431   3.634   2.322   5.583
 5108HO4     MW20432   3.597   2.234   5.578
 5109HO4     OW20433   1.967   9.817   1.399
 5109HO4    HW120434   1.923   9.862   1.327
 5109HO4    HW220435   1.912   9.836   1.476
 5109HO4     MW20436   1.967   9.817   1.399
 5110HO4     OW20437   4.388   2.865   1.074
 5110HO4    HW120438   4.386   2.770   1.089
 5110HO4    HW220439   4.409   2.875   0.981
 5110HO4     MW20440   4.388   2.865   1.074
 5111HO4     OW20441   9.504   7.251   3.119
 5111HO4    HW120442   9.552   7.303   3.054
 5111HO4    HW220443   9.566   7.180   3.142
 5111HO4     MW20444   9.504   7.251   3.119
 5112HO4     OW20445   1.776   5.231   8.873
 5112HO4    HW120446   1.686   5.231   8.841
 5112HO4    HW220447   1.768   5.252   8.967
 5112HO4     MW20448   1.776   5.231   8.873
 5113HO4     OW20449   1.483   7.764   5.653
 5113HO4    HW120450   1.525   7.805   5.577
 5113HO4    HW220451   1.494   7.670   5.637
 5113HO4     MW20452   1.483   7.764   5.653
 5114HO4     OW20453   1.202   6.204   4.943
 5114HO4    HW120454   1.126   6.214   4.885
 5114HO4    HW220455   1.263   6.149   4.894
 5114HO4     MW20456   1.202   6.204   4.943
 5115HO4     OW20457   5.910   9.049   8.095
 5115HO4    HW120458   5.963   9.083   8.022
 5115HO4    HW220459   5.949   9.089   8.174
 5115HO4     MW20460   5.910   9.049   8.095
 5116HO4     OW20461   9.542   9.818   8.969
 5116HO4    HW120462   9.518   9.731   9.001
 5116HO4    HW220463   9.608   9.801   8.900
 5116HO4     MW20464   9.542   9.818   8.969
 5117HO4     OW20465   9.123   3.617   4.970
 5117HO4    HW120466   9.142   3.699   4.923
 5117HO4    HW220467   9.207   3.590   5.007
 5117HO4     MW20468   9.123   3.617   4.970
 5118HO4     OW20469   8.522   1.359   7.390
 5118HO4    HW120470   8.509   1.454   7.389
 5118HO4    HW220471   8.534   1.335   7.298
 5118HO4     MW20472   8.522   1.359   7.390
 5119HO4     OW20473   3.190   7.534   6.505
 5119HO4    HW120474   3.119   7.470   6.514
 5119HO4    HW220475   3.149   7.610   6.463
 5119HO4     MW20476   3.190   7.534   6.505
 5120HO4     OW20477   9.564   2.884   6.000
 5120HO4    HW120478   9.476   2.847   5.987
 5120HO4    HW220479   9.548   2.973   6.035
 5120HO4     MW20480   9.564   2.884   6.000
 5121HO4     OW20481   6.308   1.566   6.294
 5121HO4    HW120482   6.328   1.554   6.387
 5121HO4    HW220483   6.383   1.528   6.248
 5121HO4     MW20484   6.308   1.566   6.294
 5122HO4     OW20485   9.773   7.115   2.135
 5122HO4    HW120486   9.691   7.122   2.183
 5122HO4    HW220487   9.764   7.034   2.083
 5122HO4     MW20488   9.773   7.115   2.135
 5123HO4     OW20489   8.738   3.544   4.325
 5123HO4    HW120490   8.738   3.591   4.241
 5123HO4    HW220491   8.759   3.453   4.301
 5123HO4     MW20492   8.738   3.544   4.325
 5124HO4     OW20493   2.915   1.862   8.571
 5124HO4    HW120494   2.972   1.814   8.632
 5124HO4    HW220495   2.839   1.804   8.559
 5124HO4     MW20496   2.915   1.862   8.571
 5125HO4     OW20497   0.979   7.759   4.567
 5125HO4    HW120498   1.006   7.667   4.568
 5125HO4    HW220499   1.000   7.789   4.478
 5125HO4     MW20500   0.979   7.759   4.567
 5126HO4     OW20501   2.406   5.441   6.101
 5126HO4    HW120502   2.476   5.455   6.165
 5126HO4    HW220503   2.328   5.479   6.142
 5126HO4     MW20504   2.406   5.441   6.101
 5127HO4     OW20505  10.123   0.170   8.328
 5127HO4    HW120506  10.154   0.206   8.244
 5127HO4    HW220507  10.182   0.207   8.394
 5127HO4     MW20508  10.123   0.170   8.328
 5128HO4     OW20509   1.500   2.640   0.774
 5128HO4    HW120510   1.574   2.588   0.742
 5128HO4    HW220511   1.505   2.631   0.870
 5128HO4     MW20512   1.500   2.640   0.774
 5129HO4     OW20513   0.993   6.678   4.297
 5129HO4    HW120514   0.947   6.730   4.230
 5129HO4    HW220515   0.943   6.694   4.378
 5129HO4     MW20516   0.993   6.678   4.297
 5130HO4     OW20517   1.346   8.858   4.153
 5130HO4    HW120518   1.275   8.793   4.154
 5130HO4    HW220519   1.367   8.872   4.246
 5130HO4     MW20520   1.346   8.858   4.153
 5131HO4     OW20521   1.358   4.367   0.041
 5131HO4    HW120522   1.421   4.336   0.107
 5131HO4    HW220523   1.297   4.422   0.090
 5131HO4     MW20524   1.358   4.367   0.041
 5132HO4     OW20525   2.029   6.530   2.889
 5132HO4    HW120526   1.980   6.498   2.966
 5132HO4    HW220527   2.062   6.450   2.847
 5132HO4     MW20528   2.029   6.530   2.889
 5133HO4     OW20529   7.741   8.209   3.184
 5133HO4    HW120530   7.677   8.196   3.255
 5133HO4    HW220531   7.686   8.230   3.107
 5133HO4     MW20532   7.741   8.209   3.184
 5134HO4     OW20533   8.171   1.752   3.456
 5134HO4    HW120534   8.140   1.782   3.542
 5134HO4    HW220535   8.145   1.822   3.396
 5134HO4     MW20536   8.171   1.752   3.456
 5135HO4     OW20537   4.539   3.812   5.071
 5135HO4    HW120538   4.508   3.897   5.039
 5135HO4    HW220539   4.506   3.807   5.161
 5135HO4     MW20540   4.539   3.812   5.071
 5136HO4     OW20541   5.733   5.179   6.865
 5136HO4    HW120542   5.735   5.126   6.945
 5136HO4    HW220543   5.717   5.115   6.795
 5136HO4     MW20544   5.733   5.179   6.865
 5137HO4     OW20545   4.558   6.746   6.220
 5137HO4    HW120546   4.634   6.704   6.177
 5137HO4    HW220547   4.574   6.840   6.209
 5137HO4     MW20548   4.558   6.746   6.220
 5138HO4     OW20549   7.270   9.815   7.793
 5138HO4    HW120550   7.273   9.737   7.736
 5138HO4    HW220551   7.309   9.785   7.876
 5138HO4     MW20552   7.270   9.815   7.793
 5139HO4     OW20553   5.910   6.386   4.347
 5139HO4    HW120554   5.848   6.447   4.305
 5139HO4    HW220555   5.897   6.401   4.441
 5139HO4     MW20556   5.910   6.386   4.347
 5140HO4     OW20557   0.836   3.013   9.195
 5140HO4    HW120558   0.765   2.985   9.254
 5140HO4    HW220559   0.863   3.098   9.230
 5140HO4     MW20560   0.836   3.013   9.195
 5141HO4     OW20561   3.411   4.876   2.103
 5141HO4    HW120562   3.378   4.789   2.078
 5141HO4    HW220563   3.336   4.935   2.087
 5141HO4     MW20564   3.411   4.876   2.103
 5142HO4     OW20565   8.535   8.844   8.049
 5142HO4    HW120566   8.525   8.932   8.088
 5142HO4    HW220567   8.620   8.848   8.004
 5142HO4     MW20568   8.535   8.844   8.049
 5143HO4     OW20569   4.281   3.378   1.023
 5143HO4    HW120570   4.374   3.361   1.037
 5143HO4    HW220571   4.273   3.395   0.929
 5143HO4     MW20572   4.281   3.378   1.023
 5144HO4     OW20573   7.917   7.314   7.008
 5144HO4    HW120574   7.925   7.228   6.966
 5144HO4    HW220575   7.840   7.305   7.066
 5144HO4     MW20576   7.917   7.314   7.008
 5145HO4     OW20577   9.808   4.034   1.505
 5145HO4    HW120578   9.835   3.944   1.523
 5145HO4    HW220579   9.890   4.080   1.483
 5145HO4     MW20580   9.808   4.034   1.505
 5146HO4     OW20581   8.198   8.613   9.999
 5146HO4    HW120582   8.138   8.688   9.984
 5146HO4    HW220583   8.238   8.597   9.913
 5146HO4     MW20584   8.198   8.613   9.999
 5147HO4     OW20585   5.539   1.787   9.119
 5147HO4    HW120586   5.451   1.748   9.119
 5147HO4    HW220587   5.577   1.760   9.035
 5147HO4     MW20588   5.539   1.787   9.119
 5148HO4     OW20589   9.230   1.219   8.888
 5148HO4    HW120590   9.245   1.217   8.793
 5148HO4    HW220591   9.166   1.289   8.901
 5148HO4     MW20592   9.230   1.219   8.888
 5149HO4     OW20593   8.192   8.460   8.537
 5149HO4    HW120594   8.226   8.390   8.593
 5149HO4    HW220595   8.097   8.448   8.538
 5149HO4     MW20596   8.192   8.460   8.537
 5150HO4     OW20597   6.885   0.633   7.973
 5150HO4    HW120598   6.805   0.685   7.985
 5150HO4    HW220599   6.935   0.681   7.907
 5150HO4     MW20600   6.885   0.633   7.973
 5151HO4     OW20601   4.803   1.404   8.642
 5151HO4    HW120602   4.771   1.481   8.689
 5151HO4    HW220603   4.898   1.408   8.651
 5151HO4     MW20604   4.803   1.404   8.642
 5152HO4     OW20605   6.238   7.827   9.253
 5152HO4    HW120606   6.148   7.848   9.280
 5152HO4    HW220607   6.247   7.733   9.271
 5152HO4     MW20608   6.238   7.827   9.253
 5153HO4     OW20609   8.181   2.191   0.548
 5153HO4    HW120610   8.135   2.118   0.504
 5153HO4    HW220611   8.172   2.265   0.487
 5153HO4     MW20612   8.181   2.191   0.548
 5154HO4     OW20613   4.955   2.859   1.821
 5154HO4    HW120614   4.889   2.923   1.795
 5154HO4    HW220615   4.977   2.882   1.912
 5154HO4     MW20616   4.955   2.859   1.821
 5155HO4     OW20617   5.394   9.399   4.084
 5155HO4    HW120618   5.330   9.327   4.081
 5155HO4    HW220619   5.465   9.369   4.025
 5155HO4     MW20620   5.394   9.399   4.084
 5156HO4     OW20621   1.485   9.228   6.471
 5156HO4    HW120622   1.532   9.243   6.389
 5156HO4    HW220623   1.552   9.240   6.539
 5156HO4     MW20624   1.485   9.228   6.471
 5157HO4     OW20625   3.522   5.775   1.505
 5157HO4    HW120626   3.485   5.858   1.474
 5157HO4    HW220627   3.516   5.780   1.601
 5157HO4     MW20628   3.522   5.775   1.505
 5158HO4     OW20629   7.640   5.249   8.337
 5158HO4    HW120630   7.671   5.302   8.411
 5158HO4    HW220631   7.673   5.294   8.259
 5158HO4     MW20632   7.640   5.249   8.337
 5159HO4     OW20633   8.564   7.230  10.050
 5159HO4    HW120634   8.660   7.229  10.040
 5159HO4    HW220635   8.533   7.163   9.988
 5159HO4     MW20636   8.564   7.230  10.050
 5160HO4     OW20637   3.061   4.437   4.773
 5160HO4    HW120638   3.106   4.478   4.698
 5160HO4    HW220639   3.049   4.346   4.746
 5160HO4     MW20640   3.061   4.437   4.773
 5161HO4     OW20641   3.561   5.460   2.922
 5161HO4    HW120642   3.532   5.509   2.999
 5161HO4    HW220643   3.564   5.525   2.851
 5161HO4     MW20644   3.561   5.460   2.922
 5162HO4     OW20645   9.290   0.403   3.626
 5162HO4    HW120646   9.240   0.329   3.662
 5162HO4    HW220647   9.282   0.392   3.530
 5162HO4     MW20648   9.290   0.403   3.626
 5163HO4     OW20649   3.370   6.298  10.052
 5163HO4    HW120650   3.375   6.365   9.984
 5163HO4    HW220651   3.406   6.341  10.131
 5163HO4     MW20652   3.370   6.298  10.052
 5164HO4     OW20653   9.421   8.419   9.778
 5164HO4    HW120654   9.352   8.411   9.845
 5164HO4    HW220655   9.375   8.408   9.695
 5164HO4     MW20656   9.421   8.419   9.778
 5165HO4     OW20657   1.691   6.297   2.569
 5165HO4    HW120658   1.638   6.278   2.491
 5165HO4    HW220659   1.631   6.280   2.643
 5165HO4     MW20660   1.691   6.297   2.569
 5166HO4     OW20661   5.320   1.638   6.915
 5166HO4    HW120662   5.382   1.565   6.913
 5166HO4    HW220663   5.328   1.674   7.004
 5166HO4     MW20664   5.320   1.638   6.915
 5167HO4     OW20665   4.062   2.924   8.823
 5167HO4    HW120666   4.015   2.901   8.742
 5167HO4    HW220667   4.111   2.844   8.845
 5167HO4     MW20668   4.062   2.924   8.823
 5168HO4     OW20669   4.590   6.930   7.283
 5168HO4    HW120670   4.595   7.000   7.349
 5168HO4    HW220671   4.612   6.849   7.332
 5168HO4     MW20672   4.590   6.930   7.283
 5169HO4     OW20673   1.174   0.702   6.594
 5169HO4    HW120674   1.103   0.704   6.659
 5169HO4    HW220675   1.135   0.741   6.515
 5169HO4     MW20676   1.174   0.702   6.594
 5170HO4     OW20677   4.642   1.089   0.228
 5170HO4    HW120678   4.633   1.052   0.317
 5170HO4    HW220679   4.670   1.180   0.243
 5170HO4     MW20680   4.642   1.089   0.228
 5171HO4     OW20681   5.155   6.733   0.897
 5171HO4    HW120682   5.177   6.715   0.805
 5171HO4    HW220683   5.118   6.822   0.896
 5171HO4     MW20684   5.155   6.733   0.897
 5172HO4     OW20685   8.669   2.343   3.491
 5172HO4    HW120686   8.697   2.279   3.557
 5172HO4    HW220687   8.692   2.303   3.407
 5172HO4     MW20688   8.669   2.343   3.491
 5173HO4     OW20689   3.889   9.540   1.778
 5173HO4    HW120690   3.937   9.618   1.808
 5173HO4    HW220691   3.814   9.535   1.838
 5173HO4     MW20692   3.889   9.540   1.778
 5174HO4     OW20693   8.768   7.291   1.422
 5174HO4    HW120694   8.735   7.267   1.335
 5174HO4    HW220695   8.729   7.225   1.481
 5174HO4     MW20696   8.768   7.291   1.422
 5175HO4     OW20697   8.271   4.277   5.528
 5175HO4    HW120698   8.258   4.183   5.543
 5175HO4    HW220699   8.353   4.284   5.479
 5175HO4     MW20700   8.271   4.277   5.528
 5176HO4     OW20701   9.938   8.089   4.089
 5176HO4    HW120702  10.024   8.059   4.120
 5176HO4    HW220703   9.875   8.042   4.144
 5176HO4     MW20704   9.938   8.089   4.089
 5177HO4     OW20705   6.896   1.965   6.300
 5177HO4    HW120706   6.848   2.009   6.229
 5177HO4    HW220707   6.843   1.887   6.319
 5177HO4     MW20708   6.896   1.965   6.300
 5178HO4     OW20709   3.154   4.671   9.334
 5178HO4    HW120710   3.130   4.763   9.352
 5178HO4    HW220711   3.250   4.673   9.325
 5178HO4     MW20712   3.154   4.671   9.334
 5179HO4     OW20713   0.646   7.096   1.965
 5179HO4    HW120714   0.638   7.173   2.021
 5179HO4    HW220715   0.657   7.132   1.876
 5179HO4     MW20716   0.646   7.096   1.965
 5180HO4     OW20717   2.544   8.762   7.998
 5180HO4    HW120718   2.619   8.752   8.058
 5180HO4    HW220719   2.575   8.823   7.931
 5180HO4     MW20720   2.544   8.762   7.998
 5181HO4     OW20721   8.693   7.208   7.622
 5181HO4    HW120722   8.765   7.235   7.565
 5181HO4    HW220723   8.695   7.270   7.695
 5181HO4     MW20724   8.693   7.208   7.622
 5182HO4     OW20725   6.381   2.099   6.679
 5182HO4    HW120726   6.385   2.034   6.750
 5182HO4    HW220727   6.341   2.176   6.720
 5182HO4     MW20728   6.381   2.099   6.679
 5183HO4     OW20729   7.012   2.033   0.176
 5183HO4    HW120730   7.052   1.978   0.108
 5183HO4    HW220731   6.965   1.971   0.233
 5183HO4     MW20732   7.012   2.033   0.176
 5184HO4     OW20733   0.574   5.728   0.482
 5184HO4    HW120734   0.617   5.683   0.555
 5184HO4    HW220735   0.606   5.683   0.404
 5184HO4     MW20736   0.574   5.728   0.482
 5185HO4     OW20737   2.297   7.458   6.998
 5185HO4    HW120738   2.326   7.412   6.919
 5185HO4    HW220739   2.287   7.550   6.969
 5185HO4     MW20740   2.297   7.458   6.998
 5186HO4     OW20741   3.976   3.739   1.277
 5186HO4    HW120742   4.005   3.767   1.364
 5186HO4    HW220743   3.919   3.663   1.293
 5186HO4     MW20744   3.976   3.739   1.277
 5187HO4     OW20745   9.069   7.994   8.217
 5187HO4    HW120746   9.044   8.082   8.188
 5187HO4    HW220747   9.123   8.009   8.296
 5187HO4     MW20748   9.069   7.994   8.217
 5188HO4     OW20749   2.788   7.731   1.837
 5188HO4    HW120750   2.824   7.788   1.905
 5188HO4    HW220751   2.821   7.768   1.755
 5188HO4     MW20752   2.788   7.731   1.837
 5189HO4     OW20753   0.881   8.634   8.536
 5189HO4    HW120754   0.932   8.586   8.602
 5189HO4    HW220755   0.922   8.721   8.533
 5189HO4     MW20756   0.881   8.634   8.536
 5190HO4     OW20757   1.035   3.175   3.730
 5190HO4    HW120758   1.074   3.263   3.734
 5190HO4    HW220759   1.001   3.159   3.818
 5190HO4     MW20760   1.035   3.175   3.730
 5191HO4     OW20761   3.496   8.511   7.656
 5191HO4    HW120762   3.493   8.601   7.688
 5191HO4    HW220763   3.403   8.488   7.640
 5191HO4     MW20764   3.496   8.511   7.656
 5192HO4     OW20765   2.951   8.303   9.448
 5192HO4    HW120766   3.045   8.300   9.428
 5192HO4    HW220767   2.920   8.381   9.402
 5192HO4     MW20768   2.951   8.303   9.448
 5193HO4     OW20769   4.018   3.974   0.821
 5193HO4    HW120770   3.948   3.954   0.884
 5193HO4    HW220771   4.042   4.065   0.839
 5193HO4     MW20772   4.018   3.974   0.821
 5194HO4     OW20773   4.619   3.024   4.066
 5194HO4    HW120774   4.672   2.967   4.124
 5194HO4    HW220775   4.557   2.964   4.025
 5194HO4     MW20776   4.619   3.024   4.066
 5195HO4     OW20777   7.986   5.673   4.216
 5195HO4    HW120778   7.896   5.663   4.248
 5195HO4    HW220779   7.991   5.613   4.141
 5195HO4     MW20780   7.986   5.673   4.216
 5196HO4     OW20781   9.882   9.603   4.695
 5196HO4    HW120782   9.850   9.527   4.645
 5196HO4    HW220783   9.891   9.672   4.629
 5196HO4     MW20784   9.882   9.603   4.695
 5197HO4     OW20785   7.988   6.993   4.993
 5197HO4    HW120786   8.049   6.991   5.067
 5197HO4    HW220787   8.043   6.979   4.915
 5197HO4     MW20788   7.988   6.993   4.993
 5198HO4     OW20789   7.358   8.920   2.110
 5198HO4    HW120790   7.409   8.893   2.033
 5198HO4    HW220791   7.328   8.837   2.149
 5198HO4     MW20792   7.358   8.920   2.110
 5199HO4     OW20793   0.442   8.376   6.185
 5199HO4    HW120794   0.367   8.406   6.132
 5199HO4    HW220795   0.500   8.333   6.121
 5199HO4     MW20796   0.442   8.376   6.185
 5200HO4     OW20797   4.728   6.410   5.995
 5200HO4    HW120798   4.735   6.344   5.925
 5200HO4    HW220799   4.739   6.359   6.076
 5200HO4     MW20800   4.728   6.410   5.995
 5201HO4     OW20801   4.078   7.737   0.415
 5201HO4    HW120802   4.108   7.709   0.502
 5201HO4    HW220803   4.013   7.670   0.390
 5201HO4     MW20804   4.078   7.737   0.415
 5202HO4     OW20805   9.418   0.608   3.488
 5202HO4    HW120806   9.356   0.668   3.445
 5202HO4    HW220807   9.373   0.577   3.566
 5202HO4     MW20808   9.418   0.608   3.488
 5203HO4     OW20809   1.719   4.267   0.628
 5203HO4    HW120810   1.714   4.325   0.552
 5203HO4    HW220811   1.727   4.327   0.703
 5203HO4     MW20812   1.719   4.267   0.628
 5204HO4     OW20813   9.940   9.836   0.935
 5204HO4    HW120814   9.887   9.808   0.859
 5204HO4    HW220815   9.887   9.809   1.011
 5204HO4     MW20816   9.940   9.836   0.935
 5205HO4     OW20817   2.384   0.827   3.130
 5205HO4    HW120818   2.377   0.738   3.165
 5205HO4    HW220819   2.343   0.882   3.198
 5205HO4     MW20820   2.384   0.827   3.130
 5206HO4     OW20821   0.415   4.105   3.913
 5206HO4    HW120822   0.500   4.064   3.898
 5206HO4    HW220823   0.405   4.105   4.009
 5206HO4     MW20824   0.415   4.105   3.913
 5207HO4     OW20825   5.886   4.402   8.040
 5207HO4    HW120826   5.919   4.357   7.962
 5207HO4    HW220827   5.908   4.343   8.113
 5207HO4     MW20828   5.886   4.402   8.040
 5208HO4     OW20829   3.357   6.977   3.046
 5208HO4    HW120830   3.377   7.065   3.013
 5208HO4    HW220831   3.431   6.923   3.015
 5208HO4     MW20832   3.357   6.977   3.046
 5209HO4     OW20833   5.241   3.149   0.860
 5209HO4    HW120834   5.279   3.216   0.918
 5209HO4    HW220835   5.277   3.170   0.773
 5209HO4     MW20836   5.241   3.149   0.860
 5210HO4     OW20837   8.130   2.360   3.147
 5210HO4    HW120838   8.143   2.308   3.227
 5210HO4    HW220839   8.128   2.295   3.076
 5210HO4     MW20840   8.130   2.360   3.147
 5211HO4     OW20841   2.439   7.422   7.851
 5211HO4    HW120842   2.522   7.395   7.811
 5211HO4    HW220843   2.465   7.494   7.910
 5211HO4     MW20844   2.439   7.422   7.851
 5212HO4     OW20845   3.121   7.336   9.868
 5212HO4    HW120846   3.144   7.365   9.780
 5212HO4    HW220847   3.201   7.352   9.920
 5212HO4     MW20848   3.121   7.336   9.868
 5213HO4     OW20849   2.268   5.201   4.991
 5213HO4    HW120850   2.347   5.166   5.033
 5213HO4    HW220851   2.297   5.224   4.902
 5213HO4     MW20852   2.268   5.201   4.991
 5214HO4     OW20853   7.674   2.825   4.164
 5214HO4    HW120854   7.619   2.758   4.206
 5214HO4    HW220855   7.673   2.803   4.071
 5214HO4     MW20856   7.674   2.825   4.164
 5215HO4     OW20857   9.298   6.060   2.547
 5215HO4    HW120858   9.357   6.085   2.476
 5215HO4    HW220859   9.342   6.090   2.627
 5215HO4     MW20860   9.298   6.060   2.547
 5216HO4     OW20861   4.569   4.281   4.235
 5216HO4    HW120862   4.629   4.348   4.203
 5216HO4    HW220863   4.493   4.331   4.268
 5216HO4     MW20864   4.569   4.281   4.235
 5217HO4     OW20865   8.072   4.209   7.056
 5217HO4    HW120866   8.007   4.279   7.069
 5217HO4    HW220867   8.052   4.174   6.969
 5217HO4     MW20868   8.072   4.209   7.056
 5218HO4     OW20869   3.339   9.176   4.723
 5218HO4    HW120870   3.396   9.112   4.680
 5218HO4    HW220871   3.372   9.262   4.694
 5218HO4     MW20872   3.339   9.176   4.723
 5219HO4     OW20873   4.282   3.423   8.031
 5219HO4    HW120874   4.319   3.354   8.088
 5219HO4    HW220875   4.324   3.408   7.946
 5219HO4     MW20876   4.282   3.423   8.031
 5220HO4     OW20877   6.530   4.046   0.058
 5220HO4    HW120878   6.556   4.054   0.150
 5220HO4    HW220879   6.552   3.955   0.035
 5220HO4     MW20880   6.530   4.046   0.058
 5221HO4     OW20881   5.335   2.426   6.110
 5221HO4    HW120882   5.274   2.493   6.142
 5221HO4    HW220883   5.403   2.475   6.063
 5221HO4     MW20884   5.335   2.426   6.110
 5222HO4     OW20885   4.411   5.535   2.360
 5222HO4    HW120886   4.449   5.610   2.406
 5222HO4    HW220887   4.327   5.569   2.326
 5222HO4     MW20888   4.411   5.535   2.360
 5223HO4     OW20889   6.581   1.156   1.403
 5223HO4    HW120890   6.573   1.076   1.456
 5223HO4    HW220891   6.553   1.130   1.315
 5223HO4     MW20892   6.581   1.156   1.403
 5224HO4     OW20893   8.060   7.328   9.228
 5224HO4    HW120894   8.078   7.386   9.154
 5224HO4    HW220895   8.078   7.383   9.306
 5224HO4     MW20896   8.060   7.328   9.228
 5225HO4     OW20897   6.597   8.554   9.452
 5225HO4    HW120898   6.552   8.577   9.371
 5225HO4    HW220899   6.527   8.534   9.514
 5225HO4     MW20900   6.597   8.554   9.452
 5226HO4     OW20901   0.758   2.920   8.146
 5226HO4    HW120902   0.764   2.875   8.231
 5226HO4    HW220903   0.744   2.849   8.082
 5226HO4     MW20904   0.758   2.920   8.146
 5227HO4     OW20905   8.264   7.496   9.512
 5227HO4    HW120906   8.185   7.548   9.531
 5227HO4    HW220907   8.335   7.544   9.555
 5227HO4     MW20908   8.264   7.496   9.512
 5228HO4     OW20909   0.393   9.691   4.145
 5228HO4    HW120910   0.447   9.764   4.114
 5228HO4    HW220911   0.420   9.678   4.236
 5228HO4     MW20912   0.393   9.691   4.145
 5229HO4     OW20913   2.967   7.992   4.478
 5229HO4    HW120914   2.960   7.923   4.412
 5229HO4    HW220915   2.932   7.953   4.559
 5229HO4     MW20916   2.967   7.992   4.478
 5230HO4     OW20917   3.053   5.401   5.958
 5230HO4    HW120918   3.091   5.487   5.974
 5230HO4    HW220919   3.096   5.370   5.877
 5230HO4     MW20920   3.053   5.401   5.958
 5231HO4     OW20921   2.794   8.853   4.086
 5231HO4    HW120922   2.706   8.859   4.124
 5231HO4    HW220923   2.852   8.842   4.162
 5231HO4     MW20924   2.794   8.853   4.086
 5232HO4     OW20925   0.554   6.318   8.966
 5232HO4    HW120926   0.624   6.262   9.001
 5232HO4    HW220927   0.537   6.282   8.878
 5232HO4     MW20928   0.554   6.318   8.966
 5233HO4     OW20929   7.581   2.435   4.232
 5233HO4    HW120930   7.669   2.398   4.245
 5233HO4    HW220931   7.577   2.454   4.138
 5233HO4     MW20932   7.581   2.435   4.232
 5234HO4     OW20933   6.617   3.997   9.033
 5234HO4    HW120934   6.681   3.999   9.105
 5234HO4    HW220935   6.671   3.999   8.953
 5234HO4     MW20936   6.617   3.997   9.033
 5235HO4     OW20937   8.027   1.958   0.538
 5235HO4    HW120938   8.008   1.947   0.631
 5235HO4    HW220939   7.941   1.977   0.499
 5235HO4     MW20940   8.027   1.958   0.538
 5236HO4     OW20941   6.957   9.318   0.188
 5236HO4    HW120942   6.936   9.339   0.280
 5236HO4    HW220943   6.924   9.393   0.138
 5236HO4     MW20944   6.957   9.318   0.188
 5237HO4     OW20945   9.895   3.251   4.776
 5237HO4    HW120946   9.927   3.275   4.863
 5237HO4    HW220947   9.973   3.253   4.720
 5237HO4     MW20948   9.895   3.251   4.776
 5238HO4     OW20949   4.556   9.617   3.946
 5238HO4    HW120950   4.483   9.571   3.904
 5238HO4    HW220951   4.632   9.599   3.890
 5238HO4     MW20952   4.556   9.617   3.946
 5239HO4     OW20953   2.747   6.140   9.778
 5239HO4    HW120954   2.812   6.150   9.848
 5239HO4    HW220955   2.681   6.081   9.814
 5239HO4     MW20956   2.747   6.140   9.778
 5240HO4     OW20957   2.481   5.693   2.567
 5240HO4    HW120958   2.406   5.638   2.541
 5240HO4    HW220959   2.477   5.768   2.507
 5240HO4     MW20960   2.481   5.693   2.567
 5241HO4     OW20961   5.245   4.943   7.102
 5241HO4    HW120962   5.183   4.975   7.168
 5241HO4    HW220963   5.212   4.979   7.019
 5241HO4     MW20964   5.245   4.943   7.102
 5242HO4     OW20965   6.340   3.136   6.870
 5242HO4    HW120966   6.369   3.066   6.930
 5242HO4    HW220967   6.397   3.126   6.793
 5242HO4     MW20968   6.340   3.136   6.870
 5243HO4     OW20969  10.087   3.891   8.949
 5243HO4    HW120970  10.022   3.865   9.015
 5243HO4    HW220971  10.054   3.854   8.866
 5243HO4     MW20972  10.087   3.891   8.949
 5244HO4     OW20973   6.799   1.129   4.191
 5244HO4    HW120974   6.892   1.144   4.215
 5244HO4    HW220975   6.750   1.177   4.258
 5244HO4     MW20976   6.799   1.129   4.191
 5245HO4     OW20977   5.244   3.069   4.103
 5245HO4    HW120978   5.328   3.114   4.095
 5245HO4    HW220979   5.266   2.976   4.101
 5245HO4     MW20980   5.244   3.069   4.103
 5246HO4     OW20981   8.903   8.869   4.689
 5246HO4    HW120982   8.839   8.922   4.738
 5246HO4    HW220983   8.918   8.919   4.608
 5246HO4     MW20984   8.903   8.869   4.689
 5247HO4     OW20985   6.080   8.000   4.130
 5247HO4    HW120986   6.154   7.956   4.171
 5247HO4    HW220987   6.066   8.079   4.184
 5247HO4     MW20988   6.080   8.000   4.130
 5248HO4     OW20989   5.949   2.886   6.904
 5248HO4    HW120990   6.039   2.903   6.932
 5248HO4    HW220991   5.914   2.974   6.883
 5248HO4     MW20992   5.949   2.886   6.904
 5249HO4     OW20993   3.357   0.151   2.605
 5249HO4    HW120994   3.396   0.105   2.680
 5249HO4    HW220995   3.380   0.096   2.529
 5249HO4     MW20996   3.357   0.151   2.605
 5250HO4     OW20997   2.107   1.342   8.102
 5250HO4    HW120998   2.071   1.402   8.168
 5250HO4    HW220999   2.032   1.319   8.047
 5250HO4     MW21000   2.107   1.342   8.102
 5251HO4     OW21001   6.508   1.073   9.891
 5251HO4    HW121002   6.448   1.134   9.848
 5251HO4    HW221003   6.512   0.998   9.830
 5251HO4     MW21004   6.508   1.073   9.891
 5252HO4     OW21005   8.024   8.941   6.887
 5252HO4    HW121006   8.069   8.873   6.939
 5252HO4    HW221007   8.030   8.909   6.797
 5252HO4     MW21008   8.024   8.941   6.887
 5253HO4     OW21009   4.006   6.256   7.870
 5253HO4    HW121010   4.057   6.309   7.931
 5253HO4    HW221011   4.037   6.283   7.783
 5253HO4     MW21012   4.006   6.256   7.870
 5254HO4     OW21013   9.832   0.434   6.626
 5254HO4    HW121014   9.889   0.508   6.644
 5254HO4    HW221015   9.743   0.467   6.645
 5254HO4     MW21016   9.832   0.434   6.626
 5255HO4     OW21017   0.742   6.699   0.544
 5255HO4    HW121018   0.676   6.689   0.475
 5255HO4    HW221019   0.694   6.684   0.626
 5255HO4     MW21020   0.742   6.699   0.544
 5256HO4     OW21021   0.039   1.713   0.621
 5256HO4    HW121022   0.067   1.800   0.651
 5256HO4    HW221023   0.119   1.660   0.623
 5256HO4     MW21024   0.039   1.713   0.621
 5257HO4     OW21025   9.700   0.404   0.227
 5257HO4    HW121026   9.700   0.488   0.181
 5257HO4    HW221027   9.667   0.341   0.162
 5257HO4     MW21028   9.700   0.404   0.227
 5258HO4     OW21029   9.861   4.483   7.990
 5258HO4    HW121030   9.800   4.543   8.033
 5258HO4    HW221031   9.809   4.442   7.920
 5258HO4     MW21032   9.861   4.483   7.990
 5259HO4     OW21033   7.323   1.713   8.313
 5259HO4    HW121034   7.260   1.747   8.249
 5259HO4    HW221035   7.387   1.664   8.261
 5259HO4     MW21036   7.323   1.713   8.313
 5260HO4     OW21037   0.416   4.529   7.131
 5260HO4    HW121038   0.406   4.576   7.048
 5260HO4    HW221039   0.456   4.594   7.190
 5260HO4     MW21040   0.416   4.529   7.131
 5261HO4     OW21041   5.549   0.075   5.503
 5261HO4    HW121042   5.562   0.002   5.564
 5261HO4    HW221043   5.619   0.137   5.524
 5261HO4     MW21044   5.549   0.075   5.503
 5262HO4     OW21045   9.529   5.596   8.548
 5262HO4    HW121046   9.475   5.518   8.565
 5262HO4    HW221047   9.468   5.670   8.557
 5262HO4     MW21048   9.529   5.596   8.548
 5263HO4     OW21049   1.377   3.765   9.114
 5263HO4    HW121050   1.443   3.766   9.044
 5263HO4    HW221051   1.428   3.761   9.195
 5263HO4     MW21052   1.377   3.765   9.114
 5264HO4     OW21053   7.982   4.264   7.863
 5264HO4    HW121054   7.987   4.255   7.959
 5264HO4    HW221055   8.072   4.285   7.837
 5264HO4     MW21056   7.982   4.264   7.863
 5265HO4     OW21057   4.125   3.309   9.104
 5265HO4    HW121058   4.148   3.275   9.191
 5265HO4    HW221059   4.049   3.256   9.077
 5265HO4     MW21060   4.125   3.309   9.104
 5266HO4     OW21061   2.703   2.206   9.820
 5266HO4    HW121062   2.615   2.167   9.828
 5266HO4    HW221063   2.742   2.162   9.745
 5266HO4     MW21064   2.703   2.206   9.820
 5267HO4     OW21065   9.581   8.752   7.726
 5267HO4    HW121066   9.561   8.677   7.668
 5267HO4    HW221067   9.649   8.801   7.678
 5267HO4     MW21068   9.581   8.752   7.726
 5268HO4     OW21069   2.808   6.754   4.730
 5268HO4    HW121070   2.861   6.730   4.654
 5268HO4    HW221071   2.846   6.704   4.803
 5268HO4     MW21072   2.808   6.754   4.730
 5269HO4     OW21073   2.512   3.926   9.050
 5269HO4    HW121074   2.568   3.900   8.976
 5269HO4    HW221075   2.439   3.973   9.008
 5269HO4     MW21076   2.512   3.926   9.050
 5270HO4     OW21077   4.877   1.372   7.123
 5270HO4    HW121078   4.804   1.341   7.177
 5270HO4    HW221079   4.839   1.385   7.036
 5270HO4     MW21080   4.877   1.372   7.123
 5271HO4     OW21081   2.714   9.157   3.795
 5271HO4    HW121082   2.787   9.215   3.771
 5271HO4    HW221083   2.664   9.147   3.714
 5271HO4     MW21084   2.714   9.157   3.795
 5272HO4     OW21085   6.899   7.905   7.939
 5272HO4    HW121086   6.959   7.939   7.872
 5272HO4    HW221087   6.873   7.982   7.989
 5272HO4     MW21088   6.899   7.905   7.939
 5273HO4     OW21089   0.756   8.080   7.364
 5273HO4    HW121090   0.710   7.997   7.378
 5273HO4    HW221091   0.726   8.136   7.437
 5273HO4     MW21092   0.756   8.080   7.364
 5274HO4     OW21093   2.432   5.074   1.208
 5274HO4    HW121094   2.481   5.015   1.266
 5274HO4    HW221095   2.436   5.031   1.122
 5274HO4     MW21096   2.432   5.074   1.208
 5275HO4     OW21097   0.443   8.210   6.930
 5275HO4    HW121098   0.383   8.265   6.878
 5275HO4    HW221099   0.435   8.123   6.891
 5275HO4     MW21100   0.443   8.210   6.930
 5276HO4     OW21101   3.817   4.758   6.120
 5276HO4    HW121102   3.871   4.708   6.182
 5276HO4    HW221103   3.798   4.841   6.166
 5276HO4     MW21104   3.817   4.758   6.120
 5277HO4     OW21105   2.374   9.350   5.099
 5277HO4    HW121106   2.386   9.319   5.189
 5277HO4    HW221107   2.426   9.289   5.046
 5277HO4     MW21108   2.374   9.350   5.099
 5278HO4     OW21109   5.904   4.541  10.044
 5278HO4    HW121110   5.823   4.585  10.014
 5278HO4    HW221111   5.914   4.570  10.135
 5278HO4     MW21112   5.904   4.541  10.044
 5279HO4     OW21113   6.355   7.594   6.761
 5279HO4    HW121114   6.446   7.594   6.791
 5279HO4    HW221115   6.356   7.648   6.682
 5279HO4     MW21116   6.355   7.594   6.761
 5280HO4     OW21117   1.965   4.511   3.119
 5280HO4    HW121118   1.876   4.497   3.085
 5280HO4    HW221119   1.994   4.591   3.075
 5280HO4     MW21120   1.965   4.511   3.119
 5281HO4     OW21121   0.741   8.574   6.367
 5281HO4    HW121122   0.823   8.533   6.398
 5281HO4    HW221123   0.679   8.561   6.439
 5281HO4     MW21124   0.741   8.574   6.367
 5282HO4     OW21125   4.774   2.368   9.283
 5282HO4    HW121126   4.795   2.423   9.359
 5282HO4    HW221127   4.795   2.423   9.207
 5282HO4     MW21128   4.774   2.368   9.283
 5283HO4     OW21129   3.724   3.106   0.206
 5283HO4    HW121130   3.702   3.059   0.125
 5283HO4    HW221131   3.757   3.191   0.175
 5283HO4     MW21132   3.724   3.106   0.206
 5284HO4     OW21133   1.143   3.133   6.544
 5284HO4    HW121134   1.060   3.085   6.555
 5284HO4    HW221135   1.116   3.220   6.514
 5284HO4     MW21136   1.143   3.133   6.544
 5285HO4     OW21137   5.337   8.078   0.448
 5285HO4    HW121138   5.268   8.109   0.389
 5285HO4    HW221139   5.416   8.078   0.394
 5285HO4     MW21140   5.337   8.078   0.448
 5286HO4     OW21141   9.455   9.491  10.130
 5286HO4    HW121142   9.439   9.434  10.055
 5286HO4    HW221143   9.441   9.435  10.207
 5286HO4     MW21144   9.455   9.491  10.130
 5287HO4     OW21145   6.301   8.748   7.790
 5287HO4    HW121146   6.331   8.689   7.721
 5287HO4    HW221147   6.327   8.704   7.872
 5287HO4     MW21148   6.301   8.748   7.790
 5288HO4     OW21149   1.746   1.057   8.592
 5288HO4    HW121150   1.697   0.996   8.537
 5288HO4    HW221151   1.826   1.009   8.616
 5288HO4     MW21152   1.746   1.057   8.592
 5289HO4     OW21153   2.007   4.545   6.053
 5289HO4    HW121154   1.940   4.553   6.122
 5289HO4    HW221155   1.957   4.521   5.975
 5289HO4     MW21156   2.007   4.545   6.053
 5290HO4     OW21157   6.494   5.990   9.308
 5290HO4    HW121158   6.425   5.934   9.270
 5290HO4    HW221159   6.447   6.044   9.373
 5290HO4     MW21160   6.494   5.990   9.308
 5291HO4     OW21161   2.761   1.338   5.967
 5291HO4    HW121162   2.721   1.256   5.937
 5291HO4    HW221163   2.831   1.355   5.904
 5291HO4     MW21164   2.761   1.338   5.967
 5292HO4     OW21165   5.797   1.691   8.113
 5292HO4    HW121166   5.870   1.671   8.173
 5292HO4    HW221167   5.757   1.771   8.150
 5292HO4     MW21168   5.797   1.691   8.113
 5293HO4     OW21169   2.764   9.582   0.383
 5293HO4    HW121170   2.725   9.648   0.442
 5293HO4    HW221171   2.746   9.498   0.427
 5293HO4     MW21172   2.764   9.582   0.383
 5294HO4     OW21173   9.103   8.590   1.417
 5294HO4    HW121174   9.112   8.656   1.486
 5294HO4    HW221175   9.079   8.640   1.339
 5294HO4     MW21176   9.103   8.590   1.417
 5295HO4     OW21177   5.257   1.674   1.365
 5295HO4    HW121178   5.316   1.664   1.289
 5295HO4    HW221179   5.315   1.664   1.441
 5295HO4     MW21180   5.257   1.674   1.365
 5296HO4     OW21181   3.319   8.859   8.767
 5296HO4    HW121182   3.344   8.794   8.701
 5296HO4    HW221183   3.332   8.815   8.851
 5296HO4     MW21184   3.319   8.859   8.767
 5297HO4     OW21185   8.322   3.133   5.680
 5297HO4    HW121186   8.264   3.080   5.736
 5297HO4    HW221187   8.409   3.094   5.691
 5297HO4     MW21188   8.322   3.133   5.680
 5298HO4     OW21189   5.649   6.299   4.908
 5298HO4    HW121190   5.650   6.208   4.941
 5298HO4    HW221191   5.678   6.291   4.817
 5298HO4     MW21192   5.649   6.299   4.908
 5299HO4     OW21193   4.329   5.966   1.208
 5299HO4    HW121194   4.249   5.963   1.154
 5299HO4    HW221195   4.324   6.050   1.254
 5299HO4     MW21196   4.329   5.966   1.208
 5300HO4     OW21197   7.268   8.102   8.103
 5300HO4    HW121198   7.287   8.008   8.089
 5300HO4    HW221199   7.272   8.113   8.199
 5300HO4     MW21200   7.268   8.102   8.103
 5301HO4     OW21201   5.840   0.888   9.782
 5301HO4    HW121202   5.808   0.922   9.866
 5301HO4    HW221203   5.932   0.866   9.799
 5301HO4     MW21204   5.840   0.888   9.782
 5302HO4     OW21205   1.730   4.602   8.149
 5302HO4    HW121206   1.780   4.520   8.147
 5302HO4    HW221207   1.653   4.581   8.203
 5302HO4     MW21208   1.730   4.602   8.149
 5303HO4     OW21209   9.042   3.653   3.125
 5303HO4    HW121210   8.989   3.692   3.055
 5303HO4    HW221211   9.039   3.559   3.108
 5303HO4     MW21212   9.042   3.653   3.125
 5304HO4     OW21213   0.321   0.864   7.262
 5304HO4    HW121214   0.369   0.783   7.243
 5304HO4    HW221215   0.254   0.838   7.325
 5304HO4     MW21216   0.321   0.864   7.262
 5305HO4     OW21217   0.993   1.100   2.761
 5305HO4    HW121218   0.906   1.117   2.725
 5305HO4    HW221219   1.010   1.007   2.742
 5305HO4     MW21220   0.993   1.100   2.761
 5306HO4     OW21221   3.377   1.653   4.474
 5306HO4    HW121222   3.328   1.574   4.448
 5306HO4    HW221223   3.422   1.681   4.393
 5306HO4     MW21224   3.377   1.653   4.474
 5307HO4     OW21225   3.962  10.092   3.727
 5307HO4    HW121226   3.916  10.050   3.654
 5307HO4    HW221227   3.922  10.054   3.805
 5307HO4     MW21228   3.962  10.092   3.727
 5308HO4     OW21229   5.542   9.123   1.996
 5308HO4    HW121230   5.463   9.131   2.051
 5308HO4    HW221231   5.509   9.107   1.907
 5308HO4     MW21232   5.542   9.123   1.996
 5309HO4     OW21233   0.899   4.439   2.391
 5309HO4    HW121234   0.914   4.520   2.340
 5309HO4    HW221235   0.944   4.454   2.474
 5309HO4     MW21236   0.899   4.439   2.391
 5310HO4     OW21237   7.929   0.003   5.822
 5310HO4    HW121238   7.948   0.087   5.779
 5310HO4    HW221239   7.951   0.019   5.915
 5310HO4     MW21240   7.929   0.003   5.822
 5311HO4     OW21241   7.665   4.523   2.285
 5311HO4    HW121242   7.741   4.467   2.305
 5311HO4    HW221243   7.659   4.522   2.189
 5311HO4     MW21244   7.665   4.523   2.285
 5312HO4     OW21245   6.534   9.518   5.096
 5312HO4    HW121246   6.502   9.573   5.023
 5312HO4    HW221247   6.509   9.567   5.175
 5312HO4     MW21248   6.534   9.518   5.096
 5313HO4     OW21249   1.036   9.222   6.899
 5313HO4    HW121250   1.020   9.236   6.806
 5313HO4    HW221251   0.948   9.209   6.937
 5313HO4     MW21252   1.036   9.222   6.899
 5314HO4     OW21253   7.488   2.866   9.172
 5314HO4    HW121254   7.468   2.956   9.144
 5314HO4    HW221255   7.514   2.821   9.091
 5314HO4     MW21256   7.488   2.866   9.172
 5315HO4     OW21257   9.284   8.668   5.352
 5315HO4    HW121258   9.285   8.646   5.258
 5315HO4    HW221259   9.361   8.724   5.364
 5315HO4     MW21260   9.284   8.668   5.352
 5316HO4     OW21261   0.065   8.313   7.070
 5316HO4    HW121262   0.131   8.306   7.000
 5316HO4    HW221263   0.091   8.247   7.134
 5316HO4     MW21264   0.065   8.313   7.070
 5317HO4     OW21265   2.597   6.189   8.302
 5317HO4    HW121266   2.504   6.174   8.286
 5317HO4    HW221267   2.600   6.276   8.344
 5317HO4     MW21268   2.597   6.189   8.302
 5318HO4     OW21269   2.691   4.498   9.794
 5318HO4    HW121270   2.665   4.510   9.702
 5318HO4    HW221271   2.709   4.587   9.826
 5318HO4     MW21272   2.691   4.498   9.794
 5319HO4     OW21273  10.002   4.090   8.276
 5319HO4    HW121274   9.935   4.086   8.207
 5319HO4    HW221275  10.011   3.998   8.305
 5319HO4     MW21276  10.002   4.090   8.276
 5320HO4     OW21277   5.610   4.714   1.849
 5320HO4    HW121278   5.611   4.707   1.945
 5320HO4    HW221279   5.665   4.791   1.831
 5320HO4     MW21280   5.610   4.714   1.849
 5321HO4     OW21281   5.537  10.114   6.846
 5321HO4    HW121282   5.552  10.207   6.828
 5321HO4    HW221283   5.612  10.069   6.806
 5321HO4     MW21284   5.537  10.114   6.846
 5322HO4     OW21285   1.064   8.995   8.383
 5322HO4    HW121286   1.008   8.992   8.305
 5322HO4    HW221287   1.070   8.903   8.411
 5322HO4     MW21288   1.064   8.995   8.383
 5323HO4     OW21289   3.017   6.046   4.451
 5323HO4    HW121290   3.105   6.036   4.489
 5323HO4    HW221291   3.018   5.988   4.375
 5323HO4     MW21292   3.017   6.046   4.451
 5324HO4     OW21293   1.349   6.029   3.744
 5324HO4    HW121294   1.394   6.096   3.691
 5324HO4    HW221295   1.277   6.077   3.787
 5324HO4     MW21296   1.349   6.029   3.744
 5325HO4     OW21297   7.315   1.103   1.393
 5325HO4    HW121298   7.340   1.054   1.472
 5325HO4    HW221299   7.296   1.192   1.426
 5325HO4     MW21300   7.315   1.103   1.393
 5326HO4     OW21301   2.108   5.587   9.052
 5326HO4    HW121302   2.100   5.644   8.975
 5326HO4    HW221303   2.190   5.617   9.094
 5326HO4     MW21304   2.108   5.587   9.052
 5327HO4     OW21305   4.343   2.530   5.806
 5327HO4    HW121306   4.346   2.443   5.848
 5327HO4    HW221307   4.285   2.582   5.863
 5327HO4     MW21308   4.343   2.530   5.806
 5328HO4     OW21309   2.033   3.492   1.591
 5328HO4    HW121310   2.043   3.574   1.641
 5328HO4    HW221311   1.939   3.474   1.594
 5328HO4     MW21312   2.033   3.492   1.591
 5329HO4     OW21313   2.311   5.248   1.667
 5329HO4    HW121314   2.250   5.250   1.593
 5329HO4    HW221315   2.255   5.258   1.745
 5329HO4     MW21316   2.311   5.248   1.667
 5330HO4     OW21317   4.995   8.171   1.927
 5330HO4    HW121318   5.023   8.258   1.958
 5330HO4    HW221319   5.060   8.111   1.964
 5330HO4     MW21320   4.995   8.171   1.927
 5331HO4     OW21321   4.139   6.378   0.108
 5331HO4    HW121322   4.085   6.349   0.034
 5331HO4    HW221323   4.125   6.474   0.111
 5331HO4     MW21324   4.139   6.378   0.108
 5332HO4     OW21325   3.778   0.071   7.065
 5332HO4    HW121326   3.822   0.155   7.083
 5332HO4    HW221327   3.795   0.019   7.144
 5332HO4     MW21328   3.778   0.071   7.065
 5333HO4     OW21329   8.864   3.771   8.044
 5333HO4    HW121330   8.955   3.801   8.035
 5333HO4    HW221331   8.823   3.834   8.105
 5333HO4     MW21332   8.864   3.771   8.044
 5334HO4     OW21333   9.120   9.625   8.087
 5334HO4    HW121334   9.129   9.566   8.012
 5334HO4    HW221335   9.128   9.567   8.164
 5334HO4     MW21336   9.120   9.625   8.087
 5335HO4     OW21337   9.557   3.697   9.940
 5335HO4    HW121338   9.532   3.769   9.999
 5335HO4    HW221339   9.567   3.621   9.997
 5335HO4     MW21340   9.557   3.697   9.940
 5336HO4     OW21341   0.384   4.885   3.317
 5336HO4    HW121342   0.310   4.883   3.256
 5336HO4    HW221343   0.346   4.908   3.402
 5336HO4     MW21344   0.384   4.885   3.317
 5337HO4     OW21345   2.057   2.834   5.185
 5337HO4    HW121346   2.010   2.797   5.260
 5337HO4    HW221347   2.010   2.800   5.108
 5337HO4     MW21348   2.057   2.834   5.185
 5338HO4     OW21349  10.014   3.442   0.519
 5338HO4    HW121350  10.009   3.511   0.585
 5338HO4    HW221351  10.010   3.489   0.435
 5338HO4     MW21352  10.014   3.442   0.519
 5339HO4     OW21353   8.519   8.082   3.084
 5339HO4    HW121354   8.504   8.097   2.991
 5339HO4    HW221355   8.558   7.994   3.088
 5339HO4     MW21356   8.519   8.082   3.084
 5340HO4     OW21357   8.049   2.760   1.226
 5340HO4    HW121358   8.045   2.850   1.257
 5340HO4    HW221359   8.087   2.767   1.138
 5340HO4     MW21360   8.049   2.760   1.226
 5341HO4     OW21361   6.675   9.586   7.883
 5341HO4    HW121362   6.668   9.640   7.962
 5341HO4    HW221363   6.593   9.603   7.835
 5341HO4     MW21364   6.675   9.586   7.883
 5342HO4     OW21365   5.169   8.682   1.222
 5342HO4    HW121366   5.251   8.633   1.211
 5342HO4    HW221367   5.112   8.624   1.273
 5342HO4     MW21368   5.169   8.682   1.222
 5343HO4     OW21369   7.080   8.071   9.024
 5343HO4    HW121370   7.163   8.065   9.072
 5343HO4    HW221371   7.033   8.143   9.065
 5343HO4     MW21372   7.080   8.071   9.024
 5344HO4     OW21373   9.596   8.756   6.602
 5344HO4    HW121374   9.649   8.755   6.522
 5344HO4    HW221375   9.659   8.775   6.672
 5344HO4     MW21376   9.596   8.756   6.602
 5345HO4     OW21377   6.606   3.926   1.855
 5345HO4    HW121378   6.542   3.860   1.883
 5345HO4    HW221379   6.590   4.001   1.913
 5345HO4     MW21380   6.606   3.926   1.855
 5346HO4     OW21381   1.344   2.762   2.296
 5346HO4    HW121382   1.386   2.735   2.214
 5346HO4    HW221383   1.401   2.726   2.365
 5346HO4     MW21384   1.344   2.762   2.296
 5347HO4     OW21385   7.448   7.595   4.276
 5347HO4    HW121386   7.441   7.675   4.330
 5347HO4    HW221387   7.359   7.583   4.241
 5347HO4     MW21388   7.448   7.595   4.276
 5348HO4     OW21389   2.689   7.387   8.413
 5348HO4    HW121390   2.677   7.397   8.318
 5348HO4    HW221391   2.672   7.294   8.430
 5348HO4     MW21392   2.689   7.387   8.413
 5349HO4     OW21393   7.156   1.254   6.462
 5349HO4    HW121394   7.061   1.259   6.451
 5349HO4    HW221395   7.190   1.241   6.373
 5349HO4     MW21396   7.156   1.254   6.462
 5350HO4     OW21397   8.473   1.435   1.205
 5350HO4    HW121398   8.542   1.456   1.142
 5350HO4    HW221399   8.391   1.451   1.157
 5350HO4     MW21400   8.473   1.435   1.205
 5351HO4     OW21401   5.922   4.440   7.004
 5351HO4    HW121402   5.975   4.423   6.926
 5351HO4    HW221403   5.835   4.461   6.969
 5351HO4     MW21404   5.922   4.440   7.004
 5352HO4     OW21405   1.714   8.968   8.351
 5352HO4    HW121406   1.687   8.989   8.441
 5352HO4    HW221407   1.671   9.033   8.296
 5352HO4     MW21408   1.714   8.968   8.351
 5353HO4     OW21409   4.193   8.598   8.383
 5353HO4    HW121410   4.212   8.539   8.457
 5353HO4    HW221411   4.213   8.686   8.417
 5353HO4     MW21412   4.193   8.598   8.383
 5354HO4     OW21413   1.999   4.305   9.994
 5354HO4    HW121414   2.064   4.374  10.011
 5354HO4    HW221415   2.032   4.261   9.915
 5354HO4     MW21416   1.999   4.305   9.994
 5355HO4     OW21417   5.286   9.169   0.109
 5355HO4    HW121418   5.235   9.160   0.028
 5355HO4    HW221419   5.224   9.146   0.179
 5355HO4     MW21420   5.286   9.169   0.109
 5356HO4     OW21421   1.001   9.655   5.848
 5356HO4    HW121422   0.943   9.604   5.906
 5356HO4    HW221423   0.956   9.655   5.763
 5356HO4     MW21424   1.001   9.655   5.848
 5357HO4     OW21425   1.954   5.303   6.821
 5357HO4    HW121426   1.900   5.331   6.748
 5357HO4    HW221427   1.978   5.212   6.800
 5357HO4     MW21428   1.954   5.303   6.821
 5358HO4     OW21429   8.459   4.717   5.464
 5358HO4    HW121430   8.501   4.737   5.380
 5358HO4    HW221431   8.373   4.761   5.459
 5358HO4     MW21432   8.459   4.717   5.464
 5359HO4     OW21433   9.299   9.543   0.711
 5359HO4    HW121434   9.395   9.539   0.710
 5359HO4    HW221435   9.276   9.558   0.803
 5359HO4     MW21436   9.299   9.543   0.711
 5360HO4     OW21437   1.225   8.468   5.262
 5360HO4    HW121438   1.247   8.481   5.355
 5360HO4    HW221439   1.308   8.442   5.221
 5360HO4     MW21440   1.225   8.468   5.262
 5361HO4     OW21441   9.405   6.933   7.192
 5361HO4    HW121442   9.494   6.970   7.197
 5361HO4    HW221443   9.380   6.921   7.284
 5361HO4     MW21444   9.405   6.933   7.192
 5362HO4     OW21445   5.083   1.322   0.270
 5362HO4    HW121446   5.105   1.337   0.363
 5362HO4    HW221447   5.164   1.344   0.223
 5362HO4     MW21448   5.083   1.322   0.270
 5363HO4     OW21449   5.730   3.017   9.650
 5363HO4    HW121450   5.783   3.080   9.700
 5363HO4    HW221451   5.702   3.065   9.572
 5363HO4     MW21452   5.730   3.017   9.650
 5364HO4     OW21453   9.264   6.918   2.378
 5364HO4    HW121454   9.325   6.910   2.304
 5364HO4    HW221455   9.320   6.905   2.456
 5364HO4     MW21456   9.264   6.918   2.378
 5365HO4     OW21457   8.558   7.862   2.192
 5365HO4    HW121458   8.470   7.829   2.174
 5365HO4    HW221459   8.589   7.808   2.266
 5365HO4     MW21460   8.558   7.862   2.192
 5366HO4     OW21461   1.098   8.211   1.711
 5366HO4    HW121462   1.090   8.153   1.787
 5366HO4    HW221463   1.089   8.152   1.635
 5366HO4     MW21464   1.098   8.211   1.711
 5367HO4     OW21465   7.512   8.976   6.809
 5367HO4    HW121466   7.593   9.016   6.775
 5367HO4    HW221467   7.519   8.986   6.905
 5367HO4     MW21468   7.512   8.976   6.809
 5368HO4     OW21469   6.746   8.927   1.066
 5368HO4    HW121470   6.696   8.880   0.998
 5368HO4    HW221471   6.710   8.893   1.149
 5368HO4     MW21472   6.746   8.927   1.066
 5369HO4     OW21473   7.023   1.926   7.747
 5369HO4    HW121474   7.103   1.911   7.799
 5369HO4    HW221475   6.968   1.850   7.766
 5369HO4     MW21476   7.023   1.926   7.747
 5370HO4     OW21477   6.449   4.407   6.706
 5370HO4    HW121478   6.495   4.364   6.780
 5370HO4    HW221479   6.512   4.471   6.673
 5370HO4     MW21480   6.449   4.407   6.706
 5371HO4     OW21481   5.350   0.787   5.736
 5371HO4    HW121482   5.274   0.749   5.691
 5371HO4    HW221483   5.403   0.711   5.761
 5371HO4     MW21484   5.350   0.787   5.736
 5372HO4     OW21485   8.355   4.462   7.750
 5372HO4    HW121486   8.440   4.454   7.795
 5372HO4    HW221487   8.377   4.455   7.656
 5372HO4     MW21488   8.355   4.462   7.750
 5373HO4     OW21489   6.713   0.008   4.471
 5373HO4    HW121490   6.677   0.095   4.491
 5373HO4    HW221491   6.718  -0.036   4.556
 5373HO4     MW21492   6.713   0.008   4.471
 5374HO4     OW21493   4.450   6.527   7.465
 5374HO4    HW121494   4.429   6.577   7.386
 5374HO4    HW221495   4.426   6.586   7.538
 5374HO4     MW21496   4.450   6.527   7.465
 5375HO4     OW21497   2.372   0.907   9.835
 5375HO4    HW121498   2.460   0.901   9.797
 5375HO4    HW221499   2.373   0.844   9.908
 5375HO4     MW21500   2.372   0.907   9.835
 5376HO4     OW21501   2.764   2.177   7.279
 5376HO4    HW121502   2.687   2.230   7.302
 5376HO4    HW221503   2.750   2.154   7.186
 5376HO4     MW21504   2.764   2.177   7.279
 5377HO4     OW21505   4.706   4.279   5.361
 5377HO4    HW121506   4.696   4.305   5.453
 5377HO4    HW221507   4.724   4.362   5.315
 5377HO4     MW21508   4.706   4.279   5.361
 5378HO4     OW21509   1.320   7.684   2.478
 5378HO4    HW121510   1.414   7.666   2.492
 5378HO4    HW221511   1.284   7.600   2.449
 5378HO4     MW21512   1.320   7.684   2.478
 5379HO4     OW21513   8.832   9.159   7.796
 5379HO4    HW121514   8.912   9.211   7.784
 5379HO4    HW221515   8.778   9.180   7.720
 5379HO4     MW21516   8.832   9.159   7.796
 5380HO4     OW21517   0.207   4.042   7.617
 5380HO4    HW121518   0.245   3.955   7.607
 5380HO4    HW221519   0.198   4.075   7.527
 5380HO4     MW21520   0.207   4.042   7.617
 5381HO4     OW21521   0.181   6.143   2.774
 5381HO4    HW121522   0.271   6.161   2.805
 5381HO4    HW221523   0.159   6.058   2.813
 5381HO4     MW21524   0.181   6.143   2.774
 5382HO4     OW21525   6.264   8.217   3.172
 5382HO4    HW121526   6.193   8.208   3.235
 5382HO4    HW221527   6.220   8.214   3.086
 5382HO4     MW21528   6.264   8.217   3.172
 5383HO4     OW21529   3.671   4.404   7.555
 5383HO4    HW121530   3.706   4.428   7.468
 5383HO4    HW221531   3.735   4.440   7.617
 5383HO4     MW21532   3.671   4.404   7.555
 5384HO4     OW21533   3.452   7.841   2.780
 5384HO4    HW121534   3.451   7.767   2.840
 5384HO4    HW221535   3.421   7.805   2.696
 5384HO4     MW21536   3.452   7.841   2.780
 5385HO4     OW21537   2.219   2.390   6.342
 5385HO4    HW121538   2.275   2.435   6.406
 5385HO4    HW221539   2.146   2.451   6.327
 5385HO4     MW21540   2.219   2.390   6.342
 5386HO4     OW21541   6.859   0.398   0.421
 5386HO4    HW121542   6.828   0.474   0.470
 5386HO4    HW221543   6.914   0.349   0.483
 5386HO4     MW21544   6.859   0.398   0.421
 5387HO4     OW21545   6.223   8.570   3.656
 5387HO4    HW121546   6.296   8.537   3.709
 5387HO4    HW221547   6.179   8.634   3.713
 5387HO4     MW21548   6.223   8.570   3.656
 5388HO4     OW21549   1.385   0.309   2.072
 5388HO4    HW121550   1.414   0.259   2.149
 5388HO4    HW221551   1.417   0.258   1.997
 5388HO4     MW21552   1.385   0.309   2.072
 5389HO4     OW21553   9.396   2.504   5.080
 5389HO4    HW121554   9.424   2.569   5.015
 5389HO4    HW221555   9.418   2.545   5.165
 5389HO4     MW21556   9.396   2.504   5.080
 5390HO4     OW21557   9.117   9.356   6.260
 5390HO4    HW121558   9.185   9.298   6.224
 5390HO4    HW221559   9.092   9.413   6.187
 5390HO4     MW21560   9.117   9.356   6.260
 5391HO4     OW21561   2.329   7.998   0.850
 5391HO4    HW121562   2.324   8.038   0.937
 5391HO4    HW221563   2.406   8.038   0.809
 5391HO4     MW21564   2.329   7.998   0.850
 5392HO4     OW21565   1.754   2.224   8.047
 5392HO4    HW121566   1.777   2.191   8.134
 5392HO4    HW221567   1.661   2.247   8.054
 5392HO4     MW21568   1.754   2.224   8.047
 5393HO4     OW21569   6.821   7.051   7.261
 5393HO4    HW121570   6.894   7.098   7.303
 5393HO4    HW221571   6.755   7.120   7.247
 5393HO4     MW21572   6.821   7.051   7.261
 5394HO4     OW21573   7.115   5.633   1.656
 5394HO4    HW121574   7.095   5.725   1.677
 5394HO4    HW221575   7.030   5.589   1.658
 5394HO4     MW21576   7.115   5.633   1.656
 5395HO4     OW21577   1.617   6.112   1.598
 5395HO4    HW121578   1.565   6.173   1.545
 5395HO4    HW221579   1.563   6.097   1.676
 5395HO4     MW21580   1.617   6.112   1.598
 5396HO4     OW21581   7.222   4.736   5.793
 5396HO4    HW121582   7.250   4.648   5.820
 5396HO4    HW221583   7.164   4.722   5.718
 5396HO4     MW21584   7.222   4.736   5.793
 5397HO4     OW21585   4.286   1.983   2.384
 5397HO4    HW121586   4.240   2.005   2.466
 5397HO4    HW221587   4.228   2.014   2.315
 5397HO4     MW21588   4.286   1.983   2.384
 5398HO4     OW21589   8.945   2.321   5.501
 5398HO4    HW121590   8.871   2.329   5.440
 5398HO4    HW221591   8.905   2.285   5.581
 5398HO4     MW21592   8.945   2.321   5.501
 5399HO4     OW21593   8.285   2.557   1.522
 5399HO4    HW121594   8.272   2.571   1.616
 5399HO4    HW221595   8.298   2.645   1.486
 5399HO4     MW21596   8.285   2.557   1.522
 5400HO4     OW21597   7.853   3.888   2.453
 5400HO4    HW121598   7.800   3.812   2.475
 5400HO4    HW221599   7.817   3.919   2.370
 5400HO4     MW21600   7.853   3.888   2.453
 5401HO4     OW21601   2.749   4.912   0.367
 5401HO4    HW121602   2.737   4.859   0.447
 5401HO4    HW221603   2.805   4.858   0.311
 5401HO4     MW21604   2.749   4.912   0.367
 5402HO4     OW21605   1.121   6.648   6.624
 5402HO4    HW121606   1.111   6.644   6.529
 5402HO4    HW221607   1.139   6.557   6.650
 5402HO4     MW21608   1.121   6.648   6.624
 5403HO4     OW21609   6.239   1.732   3.666
 5403HO4    HW121610   6.224   1.660   3.604
 5403HO4    HW221611   6.154   1.747   3.707
 5403HO4     MW21612   6.239   1.732   3.666
 5404HO4     OW21613   2.402   9.067   5.049
 5404HO4    HW121614   2.392   9.120   5.128
 5404HO4    HW221615   2.496   9.068   5.031
 5404HO4     MW21616   2.402   9.067   5.049
 5405HO4     OW21617   2.649   8.625   0.465
 5405HO4    HW121618   2.666   8.613   0.371
 5405HO4    HW221619   2.730   8.596   0.508
 5405HO4     MW21620   2.649   8.625   0.465
 5406HO4     OW21621   6.734   6.251   7.835
 5406HO4    HW121622   6.782   6.258   7.918
 5406HO4    HW221623   6.798   6.276   7.769
 5406HO4     MW21624   6.734   6.251   7.835
 5407HO4     OW21625   3.742   2.478   2.223
 5407HO4    HW121626   3.681   2.502   2.293
 5407HO4    HW221627   3.692   2.490   2.141
 5407HO4     MW21628   3.742   2.478   2.223
 5408HO4     OW21629   6.864   3.284   2.581
 5408HO4    HW121630   6.941   3.330   2.545
 5408HO4    HW221631   6.794   3.304   2.519
 5408HO4     MW21632   6.864   3.284   2.581
 5409HO4     OW21633   5.721   3.260   8.510
 5409HO4    HW121634   5.710   3.222   8.597
 5409HO4    HW221635   5.733   3.183   8.452
 5409HO4     MW21636   5.721   3.260   8.510
 5410HO4     OW21637   3.277   2.251   1.837
 5410HO4    HW121638   3.332   2.294   1.771
 5410HO4    HW221639   3.294   2.299   1.919
 5410HO4     MW21640   3.277   2.251   1.837
 5411HO4     OW21641   6.369   9.074   5.766
 5411HO4    HW121642   6.327   9.032   5.842
 5411HO4    HW221643   6.347   9.017   5.692
 5411HO4     MW21644   6.369   9.074   5.766
 5412HO4     OW21645   5.158   3.233   9.609
 5412HO4    HW121646   5.157   3.251   9.703
 5412HO4    HW221647   5.219   3.297   9.572
 5412HO4     MW21648   5.158   3.233   9.609
 5413HO4     OW21649   7.515   6.384   0.332
 5413HO4    HW121650   7.592   6.441   0.334
 5413HO4    HW221651   7.511   6.346   0.421
 5413HO4     MW21652   7.515   6.384   0.332
 5414HO4     OW21653   3.268   3.312   2.209
 5414HO4    HW121654   3.253   3.273   2.122
 5414HO4    HW221655   3.238   3.403   2.201
 5414HO4     MW21656   3.268   3.312   2.209
 5415HO4     OW21657   1.581   5.993   5.966
 5415HO4    HW121658   1.564   5.910   5.921
 5415HO4    HW221659   1.588   6.058   5.895
 5415HO4     MW21660   1.581   5.993   5.966
 5416HO4     OW21661   8.038   7.176   5.136
 5416HO4    HW121662   8.013   7.269   5.135
 5416HO4    HW221663   7.966   7.133   5.183
 5416HO4     MW21664   8.038   7.176   5.136
 5417HO4     OW21665   7.717   1.205   6.155
 5417HO4    HW121666   7.646   1.230   6.216
 5417HO4    HW221667   7.688   1.121   6.118
 5417HO4     MW21668   7.717   1.205   6.155
 5418HO4     OW21669   6.918   7.910   1.786
 5418HO4    HW121670   6.920   7.935   1.693
 5418HO4    HW221671   6.875   7.824   1.787
 5418HO4     MW21672   6.918   7.910   1.786
 5419HO4     OW21673   6.494   5.495   1.591
 5419HO4    HW121674   6.548   5.572   1.611
 5419HO4    HW221675   6.405   5.521   1.619
 5419HO4     MW21676   6.494   5.495   1.591
 5420HO4     OW21677   1.090   1.231   5.365
 5420HO4    HW121678   1.131   1.259   5.283
 5420HO4    HW221679   1.062   1.141   5.350
 5420HO4     MW21680   1.090   1.231   5.365
 5421HO4     OW21681   5.388   8.761   3.294
 5421HO4    HW121682   5.300   8.792   3.314
 5421HO4    HW221683   5.374   8.687   3.233
 5421HO4     MW21684   5.388   8.761   3.294
 5422HO4     OW21685   7.875   2.107   7.484
 5422HO4    HW121686   7.780   2.123   7.491
 5422HO4    HW221687   7.887   2.076   7.394
 5422HO4     MW21688   7.875   2.107   7.484
 5423HO4     OW21689   8.624   2.926   6.237
 5423HO4    HW121690   8.627   2.985   6.313
 5423HO4    HW221691   8.627   2.985   6.161
 5423HO4     MW21692   8.624   2.926   6.237
 5424HO4     OW21693   4.483   6.342   0.361
 5424HO4    HW121694   4.508   6.268   0.416
 5424HO4    HW221695   4.519   6.321   0.274
 5424HO4     MW21696   4.483   6.342   0.361
 5425HO4     OW21697   1.693   5.395   4.712
 5425HO4    HW121698   1.753   5.334   4.669
 5425HO4    HW221699   1.662   5.348   4.789
 5425HO4     MW21700   1.693   5.395   4.712
 5426HO4     OW21701   3.151   3.457   8.475
 5426HO4    HW121702   3.197   3.485   8.395
 5426HO4    HW221703   3.185   3.514   8.544
 5426HO4     MW21704   3.151   3.457   8.475
 5427HO4     OW21705   9.584   1.268   4.317
 5427HO4    HW121706   9.606   1.215   4.394
 5427HO4    HW221707   9.594   1.208   4.243
 5427HO4     MW21708   9.584   1.268   4.317
 5428HO4     OW21709   0.250   5.095   0.228
 5428HO4    HW121710   0.284   5.029   0.167
 5428HO4    HW221711   0.303   5.173   0.212
 5428HO4     MW21712   0.250   5.095   0.228
 5429HO4     OW21713   3.731   1.663   3.733
 5429HO4    HW121714   3.664   1.645   3.800
 5429HO4    HW221715   3.681   1.676   3.652
 5429HO4     MW21716   3.731   1.663   3.733
 5430HO4     OW21717   7.949   7.742   9.244
 5430HO4    HW121718   8.009   7.785   9.182
 5430HO4    HW221719   8.000   7.735   9.325
 5430HO4     MW21720   7.949   7.742   9.244
 5431HO4     OW21721   8.842   4.592   6.747
 5431HO4    HW121722   8.787   4.618   6.673
 5431HO4    HW221723   8.790   4.613   6.825
 5431HO4     MW21724   8.842   4.592   6.747
 5432HO4     OW21725   5.181   7.086   9.369
 5432HO4    HW121726   5.233   7.041   9.302
 5432HO4    HW221727   5.221   7.173   9.375
 5432HO4     MW21728   5.181   7.086   9.369
 5433HO4     OW21729   0.846   6.226   0.725
 5433HO4    HW121730   0.768   6.187   0.765
 5433HO4    HW221731   0.814   6.265   0.643
 5433HO4     MW21732   0.846   6.226   0.725
 5434HO4     OW21733   4.946   2.262   7.555
 5434HO4    HW121734   4.868   2.212   7.529
 5434HO4    HW221735   4.944   2.260   7.651
 5434HO4     MW21736   4.946   2.262   7.555
 5435HO4     OW21737   6.855   9.411   9.148
 5435HO4    HW121738   6.944   9.395   9.181
 5435HO4    HW221739   6.850   9.363   9.065
 5435HO4     MW21740   6.855   9.411   9.148
 5436HO4     OW21741   7.766   7.037   2.007
 5436HO4    HW121742   7.711   6.996   2.075
 5436HO4    HW221743   7.719   7.019   1.925
 5436HO4     MW21744   7.766   7.037   2.007
 5437HO4     OW21745   1.708   1.647   0.024
 5437HO4    HW121746   1.699   1.581   0.094
 5437HO4    HW221747   1.734   1.596  -0.053
 5437HO4     MW21748   1.708   1.647   0.024
 5438HO4     OW21749   7.987   4.632   9.292
 5438HO4    HW121750   8.080   4.639   9.270
 5438HO4    HW221751   7.985   4.577   9.370
 5438HO4     MW21752   7.987   4.632   9.292
 5439HO4     OW21753   4.880  10.072   2.014
 5439HO4    HW121754   4.955  10.051   1.958
 5439HO4    HW221755   4.910  10.053   2.103
 5439HO4     MW21756   4.880  10.072   2.014
 5440HO4     OW21757   7.112   4.312   0.502
 5440HO4    HW121758   7.027   4.295   0.545
 5440HO4    HW221759   7.095   4.293   0.409
 5440HO4     MW21760   7.112   4.312   0.502
 5441HO4     OW21761   8.556   1.684   7.083
 5441HO4    HW121762   8.600   1.647   7.006
 5441HO4    HW221763   8.589   1.631   7.157
 5441HO4     MW21764   8.556   1.684   7.083
 5442HO4     OW21765   4.199   8.970   4.407
 5442HO4    HW121766   4.246   9.001   4.485
 5442HO4    HW221767   4.180   8.878   4.426
 5442HO4     MW21768   4.199   8.970   4.407
 5443HO4     OW21769   9.907   4.214   3.834
 5443HO4    HW121770   9.837   4.232   3.898
 5443HO4    HW221771   9.864   4.225   3.749
 5443HO4     MW21772   9.907   4.214   3.834
 5444HO4     OW21773   7.081   2.214   6.401
 5444HO4    HW121774   6.993   2.176   6.412
 5444HO4    HW221775   7.064   2.304   6.371
 5444HO4     MW21776   7.081   2.214   6.401
 5445HO4     OW21777   0.358   6.152   0.747
 5445HO4    HW121778   0.375   6.230   0.801
 5445HO4    HW221779   0.374   6.078   0.807
 5445HO4     MW21780   0.358   6.152   0.747
 5446HO4     OW21781   3.029   3.717   2.201
 5446HO4    HW121782   3.073   3.632   2.210
 5446HO4    HW221783   2.987   3.714   2.114
 5446HO4     MW21784   3.029   3.717   2.201
 5447HO4     OW21785   4.703   8.309   1.076
 5447HO4    HW121786   4.743   8.248   1.013
 5447HO4    HW221787   4.719   8.268   1.161
 5447HO4     MW21788   4.703   8.309   1.076
 5448HO4     OW21789   8.047   3.737   2.745
 5448HO4    HW121790   8.107   3.771   2.812
 5448HO4    HW221791   7.971   3.795   2.748
 5448HO4     MW21792   8.047   3.737   2.745
 5449HO4     OW21793   7.799   1.456   8.022
 5449HO4    HW121794   7.793   1.464   8.117
 5449HO4    HW221795   7.803   1.547   7.991
 5449HO4     MW21796   7.799   1.456   8.022
 5450HO4     OW21797   1.950   6.526   5.544
 5450HO4    HW121798   1.936   6.475   5.624
 5450HO4    HW221799   1.881   6.593   5.546
 5450HO4     MW21800   1.950   6.526   5.544
 5451HO4     OW21801   0.826   7.526   1.469
 5451HO4    HW121802   0.777   7.572   1.401
 5451HO4    HW221803   0.793   7.562   1.551
 5451HO4     MW21804   0.826   7.526   1.469
 5452HO4     OW21805   1.429   7.793   8.596
 5452HO4    HW121806   1.412   7.829   8.509
 5452HO4    HW221807   1.431   7.869   8.654
 5452HO4     MW21808   1.429   7.793   8.596
 5453HO4     OW21809   5.005   3.899   4.403
 5453HO4    HW121810   5.028   3.935   4.489
 5453HO4    HW221811   5.001   3.975   4.345
 5453HO4     MW21812   5.005   3.899   4.403
 5454HO4     OW21813   0.165   0.337   5.260
 5454HO4    HW121814   0.120   0.312   5.179
 5454HO4    HW221815   0.095   0.362   5.321
 5454HO4     MW21816   0.165   0.337   5.260
 5455HO4     OW21817   9.171   9.382   8.399
 5455HO4    HW121818   9.160   9.363   8.306
 5455HO4    HW221819   9.152   9.300   8.444
 5455HO4     MW21820   9.171   9.382   8.399
 5456HO4     OW21821   3.248   2.731   3.553
 5456HO4    HW121822   3.290   2.702   3.634
 5456HO4    HW221823   3.315   2.718   3.485
 5456HO4     MW21824   3.248   2.731   3.553
 5457HO4     OW21825   0.960   8.446   4.239
 5457HO4    HW121826   0.924   8.491   4.316
 5457HO4    HW221827   0.977   8.517   4.176
 5457HO4     MW21828   0.960   8.446   4.239
 5458HO4     OW21829   0.014   2.050   2.526
 5458HO4    HW121830   0.010   2.108   2.450
 5458HO4    HW221831   0.013   2.110   2.602
 5458HO4     MW21832   0.014   2.050   2.526
 5459HO4     OW21833   8.417   0.386   8.480
 5459HO4    HW121834   8.352   0.318   8.462
 5459HO4    HW221835   8.501   0.349   8.450
 5459HO4     MW21836   8.417   0.386   8.480
 5460HO4     OW21837   9.922   0.750   1.514
 5460HO4    HW121838   9.944   0.796   1.596
 5460HO4    HW221839   9.981   0.790   1.449
 5460HO4     MW21840   9.922   0.750   1.514
 5461HO4     OW21841   4.106   6.376   2.931
 5461HO4    HW121842   4.102   6.416   3.019
 5461HO4    HW221843   4.016   6.384   2.898
 5461HO4     MW21844   4.106   6.376   2.931
 5462HO4     OW21845   5.936   5.829   1.635
 5462HO4    HW121846   5.895   5.797   1.554
 5462HO4    HW221847   6.011   5.881   1.605
 5462HO4     MW21848   5.936   5.829   1.635
 5463HO4     OW21849   8.042   0.942   0.820
 5463HO4    HW121850   8.029   0.898   0.904
 5463HO4    HW221851   8.063   0.872   0.759
 5463HO4     MW21852   8.042   0.942   0.820
 5464HO4     OW21853   9.199   9.793   8.221
 5464HO4    HW121854   9.283   9.760   8.254
 5464HO4    HW221855   9.135   9.724   8.242
 5464HO4     MW21856   9.199   9.793   8.221
 5465HO4     OW21857   6.503   8.990   1.229
 5465HO4    HW121858   6.564   8.925   1.194
 5465HO4    HW221859   6.497   9.057   1.160
 5465HO4     MW21860   6.503   8.990   1.229
 5466HO4     OW21861   0.134   5.383   3.404
 5466HO4    HW121862   0.061   5.328   3.437
 5466HO4    HW221863   0.199   5.380   3.474
 5466HO4     MW21864   0.134   5.383   3.404
 5467HO4     OW21865   8.467   7.005   9.846
 5467HO4    HW121866   8.493   7.061   9.772
 5467HO4    HW221867   8.514   7.042   9.921
 5467HO4     MW21868   8.467   7.005   9.846
 5468HO4     OW21869   0.544   9.363   2.390
 5468HO4    HW121870   0.616   9.305   2.417
 5468HO4    HW221871   0.577   9.405   2.309
 5468HO4     MW21872   0.544   9.363   2.390
 5469HO4     OW21873   1.935   2.819   2.066
 5469HO4    HW121874   1.984   2.892   2.104
 5469HO4    HW221875   1.842   2.846   2.072
 5469HO4     MW21876   1.935   2.819   2.066
 5470HO4     OW21877   4.725   1.904   1.314
 5470HO4    HW121878   4.721   1.824   1.367
 5470HO4    HW221879   4.634   1.918   1.286
 5470HO4     MW21880   4.725   1.904   1.314
 5471HO4     OW21881   0.329   8.035   9.452
 5471HO4    HW121882   0.418   8.000   9.461
 5471HO4    HW221883   0.328   8.078   9.366
 5471HO4     MW21884   0.329   8.035   9.452
 5472HO4     OW21885   9.216   2.915   6.902
 5472HO4    HW121886   9.238   2.935   6.811
 5472HO4    HW221887   9.295   2.939   6.952
 5472HO4     MW21888   9.216   2.915   6.902
 5473HO4     OW21889   9.617   1.111   4.908
 5473HO4    HW121890   9.594   1.166   4.833
 5473HO4    HW221891   9.655   1.032   4.869
 5473HO4     MW21892   9.617   1.111   4.908
 5474HO4     OW21893   4.585   9.649   4.791
 5474HO4    HW121894   4.647   9.641   4.718
 5474HO4    HW221895   4.640   9.651   4.869
 5474HO4     MW21896   4.585   9.649   4.791
 5475HO4     OW21897   1.513   2.852   0.588
 5475HO4    HW121898   1.543   2.811   0.669
 5475HO4    HW221899   1.513   2.947   0.608
 5475HO4     MW21900   1.513   2.852   0.588
 5476HO4     OW21901   2.589   0.255   6.305
 5476HO4    HW121902   2.650   0.227   6.236
 5476HO4    HW221903   2.640   0.249   6.386
 5476HO4     MW21904   2.589   0.255   6.305
 5477HO4     OW21905   3.649   8.783   9.237
 5477HO4    HW121906   3.731   8.803   9.192
 5477HO4    HW221907   3.673   8.780   9.330
 5477HO4     MW21908   3.649   8.783   9.237
 5478HO4     OW21909   2.726   7.971   7.806
 5478HO4    HW121910   2.718   7.877   7.789
 5478HO4    HW221911   2.649   8.010   7.763
 5478HO4     MW21912   2.726   7.971   7.806
 5479HO4     OW21913   7.506   1.459   2.624
 5479HO4    HW121914   7.590   1.500   2.648
 5479HO4    HW221915   7.527   1.409   2.545
 5479HO4     MW21916   7.506   1.459   2.624
 5480HO4     OW21917   5.798   7.883   2.851
 5480HO4    HW121918   5.767   7.834   2.928
 5480HO4    HW221919   5.852   7.820   2.803
 5480HO4     MW21920   5.798   7.883   2.851
 5481HO4     OW21921   6.811   4.892   7.350
 5481HO4    HW121922   6.856   4.862   7.430
 5481HO4    HW221923   6.857   4.846   7.278
 5481HO4     MW21924   6.811   4.892   7.350
 5482HO4     OW21925   8.783   9.797   8.385
 5482HO4    HW121926   8.813   9.837   8.467
 5482HO4    HW221927   8.751   9.870   8.332
 5482HO4     MW21928   8.783   9.797   8.385
 5483HO4     OW21929   5.793   7.596   7.989
 5483HO4    HW121930   5.852   7.574   7.916
 5483HO4    HW221931   5.770   7.511   8.027
 5483HO4     MW21932   5.793   7.596   7.989
 5484HO4     OW21933   7.827   5.524   5.798
 5484HO4    HW121934   7.750   5.484   5.756
 5484HO4    HW221935   7.894   5.523   5.729
 5484HO4     MW21936   7.827   5.524   5.798
 5485HO4     OW21937   9.100   3.073   3.150
 5485HO4    HW121938   9.057   3.027   3.077
 5485HO4    HW221939   9.165   3.130   3.107
 5485HO4     MW21940   9.100   3.073   3.150
 5486HO4     OW21941   3.031   2.196   5.238
 5486HO4    HW121942   3.127   2.189   5.233
 5486HO4    HW221943   2.999   2.146   5.163
 5486HO4     MW21944   3.031   2.196   5.238
 5487HO4     OW21945   5.708   4.906   8.699
 5487HO4    HW121946   5.745   4.834   8.647
 5487HO4    HW221947   5.651   4.862   8.763
 5487HO4     MW21948   5.708   4.906   8.699
 5488HO4     OW21949   1.845   1.994   1.437
 5488HO4    HW121950   1.750   1.989   1.423
 5488HO4    HW221951   1.874   2.064   1.378
 5488HO4     MW21952   1.845   1.994   1.437
 5489HO4     OW21953   9.057   1.819   7.900
 5489HO4    HW121954   8.995   1.855   7.836
 5489HO4    HW221955   9.056   1.882   7.973
 5489HO4     MW21956   9.057   1.819   7.900
 5490HO4     OW21957   2.784   5.548   4.298
 5490HO4    HW121958   2.724   5.607   4.251
 5490HO4    HW221959   2.860   5.603   4.319
 5490HO4     MW21960   2.784   5.548   4.298
 5491HO4     OW21961   2.318   1.703   9.174
 5491HO4    HW121962   2.293   1.776   9.231
 5491HO4    HW221963   2.294   1.732   9.085
 5491HO4     MW21964   2.318   1.703   9.174
 5492HO4     OW21965   4.714   5.819   8.259
 5492HO4    HW121966   4.752   5.777   8.337
 5492HO4    HW221967   4.652   5.754   8.225
 5492HO4     MW21968   4.714   5.819   8.259
 5493HO4     OW21969   4.497   8.900   5.283
 5493HO4    HW121970   4.454   8.973   5.237
 5493HO4    HW221971   4.559   8.865   5.219
 5493HO4     MW21972   4.497   8.900   5.283
 5494HO4     OW21973   0.911   8.199   2.699
 5494HO4    HW121974   0.855   8.161   2.631
 5494HO4    HW221975   0.998   8.203   2.659
 5494HO4     MW21976   0.911   8.199   2.699
 5495HO4     OW21977   8.109   2.838   1.874
 5495HO4    HW121978   8.176   2.778   1.908
 5495HO4    HW221979   8.130   2.845   1.780
 5495HO4     MW21980   8.109   2.838   1.874
 5496HO4     OW21981   5.537   0.601   9.342
 5496HO4    HW121982   5.613   0.601   9.283
 5496HO4    HW221983   5.566   0.651   9.419
 5496HO4     MW21984   5.537   0.601   9.342
 5497HO4     OW21985   5.399   2.263   6.489
 5497HO4    HW121986   5.349   2.311   6.422
 5497HO4    HW221987   5.489   2.262   6.455
 5497HO4     MW21988   5.399   2.263   6.489
 5498HO4     OW21989  10.143   5.575   0.879
 5498HO4    HW121990  10.080   5.644   0.901
 5498HO4    HW221991  10.165   5.591   0.787
 5498HO4     MW21992  10.143   5.575   0.879
 5499HO4     OW21993   5.746   2.661   7.163
 5499HO4    HW121994   5.785   2.621   7.085
 5499HO4    HW221995   5.792   2.620   7.237
 5499HO4     MW21996   5.746   2.661   7.163
 5500HO4     OW21997   5.850   1.293   7.811
 5500HO4    HW121998   5.867   1.388   7.813
 5500HO4    HW221999   5.763   1.283   7.851
 5500HO4     MW22000   5.850   1.293   7.811
  10.15200  10.15200  10.15200
