Single water molecule with virtual site
22000
    1SOL     OW    1   4.889   4.997   5.274
    1SOL    HW1    2   4.935   5.022   5.354
    1SOL    HW2    3   4.924   5.057   5.207
    1SOL     MW    4   4.900   5.009   5.276
    2SOL     OW    5   1.664   7.800   6.205
    2SOL    HW1    6   1.579   7.773   6.239
    2SOL    HW2    7   1.676   7.890   6.238
    2SOL     MW    8   1.654   7.809   6.214
    3SOL     OW    9   6.205   4.759   1.792
    3SOL    HW1   10   6.264   4.830   1.818
    3SOL    HW2   11   6.221   4.748   1.698
    3SOL     MW   12   6.215   4.767   1.783
    4SOL     OW   13   1.727   3.469   9.221
    4SOL    HW1   14   1.711   3.500   9.132
    4SOL    HW2   15   1.771   3.385   9.210
    4SOL     MW   16   1.731   3.462   9.208
    5SOL     OW   17   4.313  10.144   9.213
    5SOL    HW1   18   4.249  10.207   9.181
    5SOL    HW2   19   4.262  10.081   9.263
    5SOL     MW   20   4.298  10.144   9.216
    6SOL     OW   21   4.193   6.865   6.560
    6SOL    HW1   22   4.192   6.797   6.493
    6SOL    HW2   23   4.206   6.947   6.511
    6SOL     MW   24   4.194   6.867   6.544
    7SOL     OW   25  10.066   8.885   8.052
    7SOL    HW1   26  10.053   8.978   8.031
    7SOL    HW2   27  10.023   8.838   7.981
    7SOL     MW   28  10.059   8.891   8.040
    8SOL     OW   29   1.940   0.021   2.445
    8SOL    HW1   30   1.946  -0.073   2.425
    8SOL    HW2   31   1.899   0.059   2.368
    8SOL     MW   32   1.935   0.013   2.432
    9SOL     OW   33   6.348   9.886   5.451
    9SOL    HW1   34   6.434   9.921   5.430
    9SOL    HW2   35   6.314   9.945   5.518
    9SOL     MW   36   6.355   9.899   5.457
   10SOL     OW   37   7.215   0.456   6.868
   10SOL    HW1   38   7.121   0.443   6.878
   10SOL    HW2   39   7.230   0.454   6.773
   10SOL     MW   40   7.204   0.454   6.856
   11SOL     OW   41   3.234   6.843   9.181
   11SOL    HW1   42   3.266   6.880   9.263
   11SOL    HW2   43   3.313   6.829   9.129
   11SOL     MW   44   3.249   6.846   9.185
   12SOL     OW   45   1.285   5.305   6.627
   12SOL    HW1   46   1.341   5.325   6.701
   12SOL    HW2   47   1.318   5.359   6.556
   12SOL     MW   48   1.297   5.315   6.627
   13SOL     OW   49   5.499   5.757   2.729
   13SOL    HW1   50   5.489   5.841   2.774
   13SOL    HW2   51   5.418   5.745   2.680
   13SOL     MW   52   5.487   5.766   2.728
   14SOL     OW   53   3.271   8.819   0.658
   14SOL    HW1   54   3.267   8.762   0.735
   14SOL    HW2   55   3.348   8.874   0.673
   14SOL     MW   56   3.281   8.819   0.670
   15SOL     OW   57   8.912   8.675   7.576
   15SOL    HW1   58   8.880   8.718   7.497
   15SOL    HW2   59   9.008   8.678   7.567
   15SOL     MW   60   8.921   8.681   7.564
   16SOL     OW   61   8.113   2.049   6.449
   16SOL    HW1   62   8.176   2.024   6.382
   16SOL    HW2   63   8.114   1.975   6.510
   16SOL     MW   64   8.122   2.036   6.448
   17SOL     OW   65   0.415   8.846   1.228
   17SOL    HW1   66   0.439   8.834   1.320
   17SOL    HW2   67   0.476   8.790   1.180
   17SOL     MW   68   0.426   8.837   1.234
   18SOL     OW   69   0.564   5.013   8.614
   18SOL    HW1   70   0.562   5.086   8.551
   18SOL    HW2   71   0.607   4.942   8.567
   18SOL     MW   72   0.569   5.013   8.599
   19SOL     OW   73   1.615   1.726   3.996
   19SOL    HW1   74   1.547   1.663   4.019
   19SOL    HW2   75   1.680   1.675   3.949
   19SOL     MW   76   1.614   1.711   3.992
   20SOL     OW   77   4.631   7.322   9.921
   20SOL    HW1   78   4.673   7.238   9.942
   20SOL    HW2   79   4.559   7.329   9.984
   20SOL     MW   80   4.627   7.312   9.933
   21SOL     OW   81   9.487   5.516   6.343
   21SOL    HW1   82   9.464   5.423   6.338
   21SOL    HW2   83   9.449   5.545   6.426
   21SOL     MW   84   9.479   5.507   6.354
   22SOL     OW   85   2.514   3.887   9.339
   22SOL    HW1   86   2.507   3.911   9.246
   22SOL    HW2   87   2.428   3.906   9.375
   22SOL     MW   88   2.501   3.893   9.331
   23SOL     OW   89   4.596   3.145   0.551
   23SOL    HW1   90   4.640   3.222   0.516
   23SOL    HW2   91   4.505   3.155   0.523
   23SOL     MW   92   4.589   3.157   0.543
   24SOL     OW   93   3.168   9.699   1.214
   24SOL    HW1   94   3.243   9.755   1.195
   24SOL    HW2   95   3.099   9.760   1.240
   24SOL     MW   96   3.169   9.715   1.215
   25SOL     OW   97   4.302   1.585   8.351
   25SOL    HW1   98   4.248   1.629   8.285
   25SOL    HW2   99   4.338   1.509   8.305
   25SOL     MW  100   4.300   1.581   8.336
   26SOL     OW  101   9.520   5.848   0.355
   26SOL    HW1  102   9.575   5.909   0.307
   26SOL    HW2  103   9.550   5.761   0.326
   26SOL     MW  104   9.532   5.844   0.345
   27SOL     OW  105   6.302   0.338   4.643
   27SOL    HW1  106   6.312   0.385   4.560
   27SOL    HW2  107   6.390   0.309   4.665
   27SOL     MW  108   6.315   0.340   4.635
   28SOL     OW  109   4.879   3.492   6.914
   28SOL    HW1  110   4.800   3.496   6.859
   28SOL    HW2  111   4.915   3.405   6.897
   28SOL     MW  112   4.873   3.481   6.904
   29SOL     OW  113   0.646   0.823   7.699
   29SOL    HW1  114   0.590   0.819   7.776
   29SOL    HW2  115   0.736   0.821   7.733
   29SOL     MW  116   0.651   0.822   7.714
   30SOL     OW  117   4.672   8.775   2.751
   30SOL    HW1  118   4.718   8.767   2.667
   30SOL    HW2  119   4.720   8.844   2.797
   30SOL     MW  120   4.685   8.784   2.746
   31SOL     OW  121   3.145   9.778   2.698
   31SOL    HW1  122   3.083   9.818   2.759
   31SOL    HW2  123   3.093   9.715   2.649
   31SOL     MW  124   3.130   9.775   2.700
   32SOL     OW  125   6.230   4.588   2.823
   32SOL    HW1  126   6.172   4.656   2.857
   32SOL    HW2  127   6.268   4.626   2.744
   32SOL     MW  128   6.227   4.602   2.817
   33SOL     OW  129   0.666   6.129   9.326
   33SOL    HW1  130   0.620   6.158   9.247
   33SOL    HW2  131   0.689   6.038   9.308
   33SOL     MW  132   0.663   6.120   9.313
   34SOL     OW  133   9.584   7.071   1.719
   34SOL    HW1  134   9.648   7.083   1.649
   34SOL    HW2  135   9.504   7.045   1.673
   34SOL     MW  136   9.582   7.069   1.703
   35SOL     OW  137   1.861   1.225   9.070
   35SOL    HW1  138   1.820   1.177   8.998
   35SOL    HW2  139   1.925   1.282   9.028
   35SOL     MW  140   1.864   1.226   9.055
   36SOL     OW  141   5.772   1.335   5.403
   36SOL    HW1  142   5.811   1.261   5.449
   36SOL    HW2  143   5.844   1.372   5.351
   36SOL     MW  144   5.787   1.330   5.402
   37SOL     OW  145   8.037   7.444   6.276
   37SOL    HW1  146   8.119   7.409   6.240
   37SOL    HW2  147   7.991   7.479   6.199
   37SOL     MW  148   8.042   7.444   6.261
   38SOL     OW  149   1.711   1.068   8.559
   38SOL    HW1  150   1.625   1.078   8.519
   38SOL    HW2  151   1.733   0.975   8.546
   38SOL     MW  152   1.702   1.057   8.552
   39SOL     OW  153   9.005   9.796   5.205
   39SOL    HW1  154   9.081   9.848   5.179
   39SOL    HW2  155   9.028   9.763   5.292
   39SOL     MW  156   9.018   9.799   5.213
   40SOL     OW  157   6.368   1.347   3.581
   40SOL    HW1  158   6.337   1.400   3.654
   40SOL    HW2  159   6.463   1.360   3.581
   40SOL     MW  160   6.377   1.356   3.591
   41SOL     OW  161   0.902   4.887   7.812
   41SOL    HW1  162   0.979   4.932   7.847
   41SOL    HW2  163   0.934   4.844   7.732
   41SOL     MW  164   0.917   4.887   7.806
   42SOL     OW  165   7.842   1.475   0.029
   42SOL    HW1  166   7.914   1.417   0.055
   42SOL    HW2  167   7.881   1.562   0.024
   42SOL     MW  168   7.857   1.479   0.032
   43SOL     OW  169   7.864   1.967   6.002
   43SOL    HW1  170   7.888   1.988   6.093
   43SOL    HW2  171   7.776   2.005   5.992
   43SOL     MW  172   7.855   1.975   6.013
   44SOL     OW  173   9.864   7.704   0.483
   44SOL    HW1  174   9.938   7.764   0.477
   44SOL    HW2  175   9.886   7.632   0.425
   44SOL     MW  176   9.877   7.703   0.475
   45SOL     OW  177   4.257   9.249   8.417
   45SOL    HW1  178   4.278   9.160   8.389
   45SOL    HW2  179   4.266   9.247   8.512
   45SOL     MW  180   4.261   9.237   8.426
   46SOL     OW  181   1.168   2.361   3.346
   46SOL    HW1  182   1.154   2.454   3.327
   46SOL    HW2  183   1.135   2.316   3.268
   46SOL     MW  184   1.162   2.367   3.333
   47SOL     OW  185   9.955   0.748   1.573
   47SOL    HW1  186  10.001   0.664   1.561
   47SOL    HW2  187   9.977   0.775   1.662
   47SOL     MW  188   9.964   0.740   1.583
   48SOL     OW  189   9.623   2.206   4.633
   48SOL    HW1  190   9.694   2.143   4.647
   48SOL    HW2  191   9.561   2.189   4.704
   48SOL     MW  192   9.624   2.195   4.644
   49SOL     OW  193   7.834   7.544   0.625
   49SOL    HW1  194   7.806   7.538   0.534
   49SOL    HW2  195   7.865   7.634   0.634
   49SOL     MW  196   7.835   7.556   0.614
   50SOL     OW  197   5.576   0.689   3.920
   50SOL    HW1  198   5.562   0.638   3.841
   50SOL    HW2  199   5.555   0.630   3.992
   50SOL     MW  200   5.571   0.674   3.919
   51SOL     OW  201   2.699   9.474   6.023
   51SOL    HW1  202   2.642   9.417   6.074
   51SOL    HW2  203   2.788   9.446   6.047
   51SOL     MW  204   2.704   9.463   6.033
   52SOL     OW  205   0.332   2.178   4.367
   52SOL    HW1  206   0.274   2.249   4.395
   52SOL    HW2  207   0.276   2.101   4.366
   52SOL     MW  208   0.317   2.177   4.371
   53SOL     OW  209   5.282   5.992   1.021
   53SOL    HW1  210   5.355   5.975   1.081
   53SOL    HW2  211   5.321   6.046   0.951
   53SOL     MW  212   5.297   5.997   1.020
   54SOL     OW  213  10.078   0.580   8.677
   54SOL    HW1  214  10.027   0.512   8.632
   54SOL    HW2  215  10.156   0.534   8.709
   54SOL     MW  216  10.081   0.565   8.675
   55SOL     OW  217   0.874   0.203   8.810
   55SOL    HW1  218   0.884   0.185   8.903
   55SOL    HW2  219   0.896   0.120   8.767
   55SOL     MW  220   0.879   0.189   8.817
   56SOL     OW  221   2.386   8.483   1.731
   56SOL    HW1  222   2.407   8.493   1.824
   56SOL    HW2  223   2.429   8.402   1.705
   56SOL     MW  224   2.395   8.474   1.740
   57SOL     OW  225   4.764   1.966   9.550
   57SOL    HW1  226   4.833   2.021   9.512
   57SOL    HW2  227   4.799   1.877   9.543
   57SOL     MW  228   4.778   1.961   9.544
   58SOL     OW  229   7.691   2.707   7.354
   58SOL    HW1  230   7.785   2.706   7.371
   58SOL    HW2  231   7.655   2.764   7.422
   58SOL     MW  232   7.699   2.715   7.365
   59SOL     OW  233   8.669   7.283   8.915
   59SOL    HW1  234   8.618   7.275   8.834
   59SOL    HW2  235   8.699   7.194   8.933
   59SOL     MW  236   8.666   7.270   8.907
   60SOL     OW  237   9.336   1.300   5.707
   60SOL    HW1  238   9.291   1.236   5.761
   60SOL    HW2  239   9.268   1.362   5.680
   60SOL     MW  240   9.321   1.300   5.711
   61SOL     OW  241   7.158   9.753   9.498
   61SOL    HW1  242   7.143   9.660   9.517
   61SOL    HW2  243   7.093   9.775   9.432
   61SOL     MW  244   7.147   9.743   9.492
   62SOL     OW  245   6.264   9.911   8.257
   62SOL    HW1  246   6.271  10.006   8.261
   62SOL    HW2  247   6.196   9.894   8.193
   62SOL     MW  248   6.256   9.921   8.249
   63SOL     OW  249   3.673   4.515   0.794
   63SOL    HW1  250   3.736   4.570   0.748
   63SOL    HW2  251   3.720   4.484   0.872
   63SOL     MW  252   3.688   4.518   0.798
   64SOL     OW  253   6.551   6.762   1.913
   64SOL    HW1  254   6.477   6.821   1.898
   64SOL    HW2  255   6.519   6.699   1.977
   64SOL     MW  256   6.537   6.761   1.920
   65SOL     OW  257   5.039   7.913   1.813
   65SOL    HW1  258   4.988   7.904   1.733
   65SOL    HW2  259   4.986   7.869   1.880
   65SOL     MW  260   5.025   7.906   1.811
   66SOL     OW  261   5.279   7.242   8.626
   66SOL    HW1  262   5.226   7.258   8.704
   66SOL    HW2  263   5.354   7.191   8.657
   66SOL     MW  264   5.282   7.237   8.640
   67SOL     OW  265   2.012   7.916   3.418
   67SOL    HW1  266   2.009   7.859   3.342
   67SOL    HW2  267   1.951   7.987   3.398
   67SOL     MW  268   2.003   7.918   3.405
   68SOL     OW  269   4.894   5.601   6.824
   68SOL    HW1  270   4.946   5.608   6.745
   68SOL    HW2  271   4.839   5.524   6.811
   68SOL     MW  272   4.893   5.591   6.812
   69SOL     OW  273   8.820  10.103   1.097
   69SOL    HW1  274   8.874  10.111   1.176
   69SOL    HW2  275   8.745  10.050   1.125
   69SOL     MW  276   8.817  10.097   1.112
   70SOL     OW  277   0.439   2.167   1.104
   70SOL    HW1  278   0.528   2.134   1.087
   70SOL    HW2  279   0.408   2.196   1.018
   70SOL     MW  280   0.447   2.166   1.090
   71SOL     OW  281   9.439   6.849   9.018
   71SOL    HW1  282   9.506   6.917   9.010
   71SOL    HW2  283   9.487   6.769   9.034
   71SOL     MW  284   9.454   6.848   9.019
   72SOL     OW  285   8.819   0.777   5.110
   72SOL    HW1  286   8.856   0.715   5.172
   72SOL    HW2  287   8.893   0.827   5.078
   72SOL     MW  288   8.834   0.775   5.114
   73SOL     OW  289   7.888   4.626   2.983
   73SOL    HW1  290   7.813   4.669   2.942
   73SOL    HW2  291   7.922   4.567   2.916
   73SOL     MW  292   7.882   4.624   2.968
   74SOL     OW  293   2.147   8.762   6.468
   74SOL    HW1  294   2.145   8.841   6.521
   74SOL    HW2  295   2.088   8.702   6.513
   74SOL     MW  296   2.139   8.765   6.481
   75SOL     OW  297   6.063   9.393   8.144
   75SOL    HW1  298   6.064   9.429   8.233
   75SOL    HW2  299   6.150   9.355   8.132
   75SOL     MW  300   6.075   9.393   8.154
   76SOL     OW  301   5.578   9.842   7.670
   76SOL    HW1  302   5.609   9.786   7.742
   76SOL    HW2  303   5.643   9.829   7.601
   76SOL     MW  304   5.591   9.833   7.670
   77SOL     OW  305   9.965   5.576   2.030
   77SOL    HW1  306  10.026   5.503   2.037
   77SOL    HW2  307  10.020   5.654   2.036
   77SOL     MW  308   9.981   5.577   2.032
   78SOL     OW  309   6.680   2.825   3.266
   78SOL    HW1  310   6.586   2.842   3.272
   78SOL    HW2  311   6.716   2.902   3.222
   78SOL     MW  312   6.672   2.838   3.261
   79SOL     OW  313   9.252   8.435   2.091
   79SOL    HW1  314   9.272   8.408   2.002
   79SOL    HW2  315   9.312   8.508   2.108
   79SOL     MW  316   9.263   8.441   2.081
   80SOL     OW  317   4.283   9.229   8.694
   80SOL    HW1  318   4.283   9.307   8.749
   80SOL    HW2  319   4.278   9.156   8.755
   80SOL     MW  320   4.282   9.230   8.709
   81SOL     OW  321   2.500   7.350   8.251
   81SOL    HW1  322   2.528   7.342   8.160
   81SOL    HW2  323   2.426   7.412   8.248
   81SOL     MW  324   2.494   7.357   8.238
   82SOL     OW  325   7.598   3.573   6.188
   82SOL    HW1  326   7.668   3.532   6.238
   82SOL    HW2  327   7.547   3.499   6.154
   82SOL     MW  328   7.600   3.558   6.190
   83SOL     OW  329   5.593   0.172   1.949
   83SOL    HW1  330   5.520   0.127   1.991
   83SOL    HW2  331   5.556   0.255   1.918
   83SOL     MW  332   5.578   0.178   1.951
   84SOL     OW  333   8.933   5.408   2.761
   84SOL    HW1  334   8.875   5.393   2.836
   84SOL    HW2  335   9.008   5.351   2.777
   84SOL     MW  336   8.935   5.398   2.773
   85SOL     OW  337   7.920   0.723   4.764
   85SOL    HW1  338   7.853   0.760   4.706
   85SOL    HW2  339   7.997   0.778   4.749
   85SOL     MW  340   7.921   0.736   4.754
   86SOL     OW  341   1.876   9.768   2.043
   86SOL    HW1  342   1.923   9.720   2.112
   86SOL    HW2  343   1.827   9.701   1.996
   86SOL     MW  344   1.876   9.752   2.046
   87SOL     OW  345   2.084   9.728   4.001
   87SOL    HW1  346   2.012   9.673   4.032
   87SOL    HW2  347   2.072   9.731   3.906
   87SOL     MW  348   2.072   9.721   3.992
   88SOL     OW  349   6.225   1.007   6.226
   88SOL    HW1  350   6.314   1.031   6.250
   88SOL    HW2  351   6.230   0.985   6.133
   88SOL     MW  352   6.238   1.007   6.217
   89SOL     OW  353   0.983  10.090   7.185
   89SOL    HW1  354   0.928  10.162   7.154
   89SOL    HW2  355   0.957  10.078   7.276
   89SOL     MW  356   0.973  10.098   7.193
   90SOL     OW  357   0.060   6.666   1.030
   90SOL    HW1  358   0.141   6.703   0.994
   90SOL    HW2  359   0.084   6.576   1.054
   90SOL     MW  360   0.074   6.659   1.029
   91SOL     OW  361   7.532   7.678   7.752
   91SOL    HW1  362   7.571   7.590   7.750
   91SOL    HW2  363   7.551   7.711   7.840
   91SOL     MW  364   7.540   7.670   7.763
   92SOL     OW  365   2.384   0.357   5.920
   92SOL    HW1  366   2.465   0.406   5.938
   92SOL    HW2  367   2.384   0.287   5.984
   92SOL     MW  368   2.395   0.354   5.931
   93SOL     OW  369   0.740   2.234   3.404
   93SOL    HW1  370   0.829   2.214   3.435
   93SOL    HW2  371   0.740   2.205   3.313
   93SOL     MW  372   0.752   2.227   3.396
   94SOL     OW  373   1.110   4.913   6.419
   94SOL    HW1  374   1.058   4.947   6.346
   94SOL    HW2  375   1.112   4.985   6.482
   94SOL     MW  376   1.103   4.927   6.418
   95SOL     OW  377   5.314   1.952   2.716
   95SOL    HW1  378   5.223   1.944   2.689
   95SOL    HW2  379   5.319   1.904   2.799
   95SOL     MW  380   5.302   1.944   2.724
   96SOL     OW  381   5.404   9.958   5.217
   96SOL    HW1  382   5.318   9.995   5.201
   96SOL    HW2  383   5.446  10.019   5.279
   96SOL     MW  384   5.398   9.971   5.223
   97SOL     OW  385   8.120   9.550   8.349
   97SOL    HW1  386   8.127   9.569   8.256
   97SOL    HW2  387   8.200   9.587   8.387
   97SOL     MW  388   8.132   9.558   8.342
   98SOL     OW  389   3.576   7.008   4.942
   98SOL    HW1  390   3.622   6.924   4.952
   98SOL    HW2  391   3.509   6.991   4.876
   98SOL     MW  392   3.573   6.994   4.935
   99SOL     OW  393   5.069   8.491   4.147
   99SOL    HW1  394   5.070   8.409   4.097
   99SOL    HW2  395   5.159   8.525   4.139
   99SOL     MW  396   5.082   8.484   4.139
  100SOL     OW  397   7.263   4.636   6.072
  100SOL    HW1  398   7.358   4.646   6.059
  100SOL    HW2  399   7.229   4.615   5.985
  100SOL     MW  400   7.271   4.634   6.058
  101SOL     OW  401   7.477   7.405   4.499
  101SOL    HW1  402   7.549   7.357   4.541
  101SOL    HW2  403   7.399   7.381   4.549
  101SOL     MW  404   7.476   7.395   4.511
  102SOL     OW  405   4.004   0.772   0.154
  102SOL    HW1  406   3.923   0.737   0.115
  102SOL    HW2  407   4.060   0.791   0.079
  102SOL     MW  408   4.000   0.770   0.139
  103SOL     OW  409   7.316   9.852   6.485
  103SOL    HW1  410   7.366   9.800   6.549
  103SOL    HW2  411   7.252   9.791   6.450
  103SOL     MW  412   7.314   9.837   6.489
  104SOL     OW  413   5.047   9.028   0.851
  104SOL    HW1  414   5.010   9.062   0.933
  104SOL    HW2  415   5.000   8.946   0.836
  104SOL     MW  416   5.035   9.022   0.860
  105SOL     OW  417   8.295   9.871   0.772
  105SOL    HW1  418   8.211   9.905   0.740
  105SOL    HW2  419   8.345   9.852   0.693
  105SOL     MW  420   8.290   9.873   0.757
  106SOL     OW  421   8.333   2.822   4.796
  106SOL    HW1  422   8.374   2.769   4.728
  106SOL    HW2  423   8.267   2.765   4.835
  106SOL     MW  424   8.330   2.807   4.792
  107SOL     OW  425   2.554   2.843   5.562
  107SOL    HW1  426   2.569   2.897   5.485
  107SOL    HW2  427   2.512   2.902   5.625
  107SOL     MW  428   2.550   2.858   5.560
  108SOL     OW  429   3.779   3.931   3.374
  108SOL    HW1  430   3.873   3.928   3.391
  108SOL    HW2  431   3.738   3.909   3.457
  108SOL     MW  432   3.787   3.928   3.387
  109SOL     OW  433   2.845   2.842   5.326
  109SOL    HW1  434   2.939   2.837   5.312
  109SOL    HW2  435   2.827   2.774   5.391
  109SOL     MW  436   2.855   2.832   5.333
  110SOL     OW  437   2.934   1.999   8.152
  110SOL    HW1  438   3.000   2.041   8.207
  110SOL    HW2  439   2.882   1.946   8.213
  110SOL     MW  440   2.936   1.998   8.168
  111SOL     OW  441   9.280   7.620   5.440
  111SOL    HW1  442   9.216   7.550   5.451
  111SOL    HW2  443   9.365   7.576   5.445
  111SOL     MW  444   9.282   7.605   5.442
  112SOL     OW  445   4.083   7.029   3.215
  112SOL    HW1  446   4.165   7.058   3.175
  112SOL    HW2  447   4.071   7.087   3.289
  112SOL     MW  448   4.092   7.040   3.220
  113SOL     OW  449   1.264   8.561   0.985
  113SOL    HW1  450   1.354   8.531   0.991
  113SOL    HW2  451   1.270   8.648   0.946
  113SOL     MW  452   1.277   8.569   0.981
  114SOL     OW  453   8.118   4.159   8.039
  114SOL    HW1  454   8.096   4.149   8.131
  114SOL    HW2  455   8.212   4.175   8.038
  114SOL     MW  456   8.128   4.160   8.051
  115SOL     OW  457   8.752   0.795   8.055
  115SOL    HW1  458   8.820   0.776   7.990
  115SOL    HW2  459   8.725   0.709   8.088
  115SOL     MW  460   8.757   0.781   8.050
  116SOL     OW  461   9.583   2.304   6.833
  116SOL    HW1  462   9.525   2.379   6.847
  116SOL    HW2  463   9.657   2.320   6.892
  116SOL     MW  464   9.585   2.316   6.843
  117SOL     OW  465   4.821   0.906   0.278
  117SOL    HW1  466   4.751   0.962   0.244
  117SOL    HW2  467   4.789   0.817   0.262
  117SOL     MW  468   4.807   0.901   0.271
  118SOL     OW  469   4.086   6.738   6.119
  118SOL    HW1  470   4.111   6.708   6.206
  118SOL    HW2  471   4.135   6.682   6.059
  118SOL     MW  472   4.096   6.727   6.123
  119SOL     OW  473   7.446   7.410   2.971
  119SOL    HW1  474   7.523   7.454   3.007
  119SOL    HW2  475   7.478   7.365   2.893
  119SOL     MW  476   7.460   7.410   2.966
  120SOL     OW  477   9.839   9.236   5.020
  120SOL    HW1  478   9.927   9.211   5.050
  120SOL    HW2  479   9.854   9.281   4.937
  120SOL     MW  480   9.853   9.239   5.013
  121SOL     OW  481   8.407   1.147   4.356
  121SOL    HW1  482   8.501   1.162   4.367
  121SOL    HW2  483   8.396   1.135   4.261
  121SOL     MW  484   8.418   1.147   4.345
  122SOL     OW  485   7.618   1.025   6.001
  122SOL    HW1  486   7.615   0.976   6.084
  122SOL    HW2  487   7.688   0.983   5.951
  122SOL     MW  488   7.627   1.012   6.006
  123SOL     OW  489   1.162   8.139   4.967
  123SOL    HW1  490   1.154   8.046   4.946
  123SOL    HW2  491   1.255   8.158   4.959
  123SOL     MW  492   1.173   8.129   4.963
  124SOL     OW  493   4.771   8.393   0.703
  124SOL    HW1  494   4.826   8.371   0.779
  124SOL    HW2  495   4.819   8.358   0.628
  124SOL     MW  496   4.785   8.385   0.703
  125SOL     OW  497   9.057   6.012   6.243
  125SOL    HW1  498   9.018   5.975   6.164
  125SOL    HW2  499   9.011   5.968   6.315
  125SOL     MW  500   9.045   6.001   6.243
  126SOL     OW  501   1.804   9.240   8.335
  126SOL    HW1  502   1.864   9.294   8.386
  126SOL    HW2  503   1.825   9.261   8.244
  126SOL     MW  504   1.815   9.250   8.330
  127SOL     OW  505   8.220   4.467   3.523
  127SOL    HW1  506   8.173   4.550   3.517
  127SOL    HW2  507   8.209   4.426   3.438
  127SOL     MW  508   8.212   4.473   3.511
  128SOL     OW  509   6.485   0.291   5.283
  128SOL    HW1  510   6.509   0.331   5.367
  128SOL    HW2  511   6.412   0.344   5.251
  128SOL     MW  512   6.479   0.303   5.290
  129SOL     OW  513   0.611   8.936   4.972
  129SOL    HW1  514   0.632   8.968   4.884
  129SOL    HW2  515   0.539   8.991   5.002
  129SOL     MW  516   0.604   8.948   4.964
  130SOL     OW  517   4.060   6.656   6.711
  130SOL    HW1  518   4.093   6.733   6.665
  130SOL    HW2  519   4.123   6.641   6.782
  130SOL     MW  520   4.073   6.664   6.714
  131SOL     OW  521   0.368   0.603   4.356
  131SOL    HW1  522   0.460   0.632   4.352
  131SOL    HW2  523   0.356   0.573   4.445
  131SOL     MW  524   0.379   0.603   4.367
  132SOL     OW  525   3.186   1.142   1.348
  132SOL    HW1  526   3.121   1.169   1.283
  132SOL    HW2  527   3.238   1.221   1.364
  132SOL     MW  528   3.184   1.156   1.342
  133SOL     OW  529  10.011   4.990   7.362
  133SOL    HW1  530  10.097   5.019   7.392
  133SOL    HW2  531   9.977   4.937   7.434
  133SOL     MW  532  10.018   4.987   7.376
  134SOL     OW  533   9.767   1.659   2.047
  134SOL    HW1  534   9.762   1.601   1.971
  134SOL    HW2  535   9.860   1.674   2.059
  134SOL     MW  536   9.779   1.654   2.038
  135SOL     OW  537   0.464   5.119   0.300
  135SOL    HW1  538   0.541   5.142   0.352
  135SOL    HW2  539   0.498   5.058   0.234
  135SOL     MW  540   0.479   5.114   0.298
  136SOL     OW  541   1.010   6.137   2.785
  136SOL    HW1  542   0.927   6.101   2.816
  136SOL    HW2  543   0.985   6.213   2.731
  136SOL     MW  544   0.995   6.143   2.782
  137SOL     OW  545   3.796   4.143   3.673
  137SOL    HW1  546   3.790   4.173   3.582
  137SOL    HW2  547   3.890   4.150   3.694
  137SOL     MW  548   3.808   4.148   3.664
  138SOL     OW  549   2.462   8.330   5.144
  138SOL    HW1  550   2.405   8.401   5.112
  138SOL    HW2  551   2.422   8.250   5.109
  138SOL     MW  552   2.449   8.329   5.135
  139SOL     OW  553   9.606   5.711   9.746
  139SOL    HW1  554   9.639   5.681   9.831
  139SOL    HW2  555   9.511   5.698   9.751
  139SOL     MW  556   9.598   5.705   9.758
  140SOL     OW  557   4.373   2.829   4.418
  140SOL    HW1  558   4.352   2.860   4.507
  140SOL    HW2  559   4.396   2.909   4.371
  140SOL     MW  560   4.374   2.844   4.424
  141SOL     OW  561   2.876   3.355   9.860
  141SOL    HW1  562   2.910   3.326   9.775
  141SOL    HW2  563   2.781   3.350   9.850
  141SOL     MW  564   2.868   3.350   9.847
  142SOL     OW  565   6.359   7.179   1.979
  142SOL    HW1  566   6.286   7.223   2.022
  142SOL    HW2  567   6.437   7.213   2.022
  142SOL     MW  568   6.359   7.189   1.990
  143SOL     OW  569   6.647   9.478   7.005
  143SOL    HW1  570   6.552   9.485   6.996
  143SOL    HW2  571   6.661   9.460   7.098
  143SOL     MW  572   6.636   9.477   7.016
  144SOL     OW  573   2.204   1.640   7.532
  144SOL    HW1  574   2.271   1.706   7.550
  144SOL    HW2  575   2.178   1.657   7.441
  144SOL     MW  576   2.210   1.651   7.522
  145SOL     OW  577   4.461   6.944   1.031
  145SOL    HW1  578   4.481   6.939   1.125
  145SOL    HW2  579   4.520   6.879   0.991
  145SOL     MW  580   4.472   6.934   1.039
  146SOL     OW  581   2.008   4.393   3.961
  146SOL    HW1  582   1.938   4.435   4.012
  146SOL    HW2  583   2.007   4.302   3.990
  146SOL     MW  584   1.999   4.386   3.972
  147SOL     OW  585   2.335   9.817   4.080
  147SOL    HW1  586   2.320   9.912   4.074
  147SOL    HW2  587   2.250   9.779   4.062
  147SOL     MW  588   2.322   9.825   4.077
  148SOL     OW  589   1.284   7.382   8.997
  148SOL    HW1  590   1.315   7.382   9.088
  148SOL    HW2  591   1.317   7.464   8.960
  148SOL     MW  592   1.292   7.393   9.004
  149SOL     OW  593   5.553   7.031   3.371
  149SOL    HW1  594   5.552   6.943   3.407
  149SOL    HW2  595   5.572   7.018   3.278
  149SOL     MW  596   5.556   7.018   3.363
  150SOL     OW  597   7.978   1.629   5.067
  150SOL    HW1  598   7.918   1.697   5.099
  150SOL    HW2  599   7.990   1.572   5.143
  150SOL     MW  600   7.972   1.631   5.082
  151SOL     OW  601   1.536   9.679   1.819
  151SOL    HW1  602   1.441   9.669   1.815
  151SOL    HW2  603   1.562   9.697   1.729
  151SOL     MW  604   1.527   9.680   1.807
  152SOL     OW  605   3.601   9.747   5.494
  152SOL    HW1  606   3.691   9.727   5.521
  152SOL    HW2  607   3.596   9.716   5.404
  152SOL     MW  608   3.613   9.740   5.486
  153SOL     OW  609   7.200   1.349   9.039
  153SOL    HW1  610   7.270   1.389   9.091
  153SOL    HW2  611   7.133   1.326   9.103
  153SOL     MW  612   7.200   1.352   9.054
  154SOL     OW  613   3.389   2.479   2.302
  154SOL    HW1  614   3.375   2.545   2.370
  154SOL    HW2  615   3.332   2.506   2.230
  154SOL     MW  616   3.380   2.491   2.301
  155SOL     OW  617   0.012   1.858   2.262
  155SOL    HW1  618   0.012   1.951   2.238
  155SOL    HW2  619   0.098   1.826   2.236
  155SOL     MW  620   0.023   1.867   2.255
  156SOL     OW  621   4.873   3.103   3.008
  156SOL    HW1  622   4.787   3.064   3.024
  156SOL    HW2  623   4.889   3.158   3.084
  156SOL     MW  624   4.864   3.105   3.020
  157SOL     OW  625   8.575   4.491   7.501
  157SOL    HW1  626   8.486   4.458   7.515
  157SOL    HW2  627   8.564   4.585   7.489
  157SOL     MW  628   8.562   4.499   7.501
  158SOL     OW  629   5.727   0.902   1.878
  158SOL    HW1  630   5.728   0.969   1.810
  158SOL    HW2  631   5.804   0.920   1.931
  158SOL     MW  632   5.737   0.913   1.876
  159SOL     OW  633   5.749   9.371   5.354
  159SOL    HW1  634   5.842   9.390   5.340
  159SOL    HW2  635   5.732   9.294   5.300
  159SOL     MW  636   5.760   9.363   5.345
  160SOL     OW  637   1.510   0.297   9.542
  160SOL    HW1  638   1.567   0.254   9.479
  160SOL    HW2  639   1.458   0.226   9.580
  160SOL     MW  640   1.511   0.282   9.539
  161SOL     OW  641   5.085   0.483   8.182
  161SOL    HW1  642   5.100   0.572   8.151
  161SOL    HW2  643   5.032   0.494   8.261
  161SOL     MW  644   5.080   0.496   8.189
  162SOL     OW  645   8.186   1.545   6.645
  162SOL    HW1  646   8.110   1.488   6.657
  162SOL    HW2  647   8.261   1.486   6.658
  162SOL     MW  648   8.186   1.529   6.649
  163SOL     OW  649   8.487   2.131   9.997
  163SOL    HW1  650   8.543   2.145   9.921
  163SOL    HW2  651   8.541   2.082  10.058
  163SOL     MW  652   8.502   2.127   9.995
  164SOL     OW  653   4.827   8.358   0.224
  164SOL    HW1  654   4.742   8.402   0.219
  164SOL    HW2  655   4.815   8.276   0.177
  164SOL     MW  656   4.814   8.353   0.217
  165SOL     OW  657   6.164   3.033   1.967
  165SOL    HW1  658   6.218   3.002   2.039
  165SOL    HW2  659   6.077   2.997   1.985
  165SOL     MW  660   6.159   3.024   1.980
  166SOL     OW  661   5.497   0.359   0.752
  166SOL    HW1  662   5.425   0.297   0.761
  166SOL    HW2  663   5.575   0.304   0.743
  166SOL     MW  664   5.498   0.343   0.752
  167SOL     OW  665   6.104   5.023   3.062
  167SOL    HW1  666   6.166   5.048   3.130
  167SOL    HW2  667   6.058   5.103   3.041
  167SOL     MW  668   6.106   5.037   3.069
  168SOL     OW  669   1.452   0.890   5.083
  168SOL    HW1  670   1.538   0.869   5.046
  168SOL    HW2  671   1.438   0.823   5.150
  168SOL     MW  672   1.462   0.878   5.087
  169SOL     OW  673   8.197  10.104   2.248
  169SOL    HW1  674   8.175  10.188   2.209
  169SOL    HW2  675   8.129  10.090   2.314
  169SOL     MW  676   8.184  10.113   2.252
  170SOL     OW  677   6.789   7.593   0.854
  170SOL    HW1  678   6.827   7.506   0.845
  170SOL    HW2  679   6.855   7.643   0.903
  170SOL     MW  680   6.803   7.588   0.859
  171SOL     OW  681   8.546   2.319   7.764
  171SOL    HW1  682   8.612   2.375   7.804
  171SOL    HW2  683   8.495   2.379   7.709
  171SOL     MW  684   8.548   2.335   7.762
  172SOL     OW  685   6.540   9.340   3.994
  172SOL    HW1  686   6.545   9.247   4.017
  172SOL    HW2  687   6.613   9.354   3.934
  172SOL     MW  688   6.551   9.329   3.989
  173SOL     OW  689   8.323   5.943   4.244
  173SOL    HW1  690   8.362   5.983   4.166
  173SOL    HW2  691   8.397   5.926   4.302
  173SOL     MW  692   8.338   5.946   4.241
  174SOL     OW  693   8.754   5.027   5.206
  174SOL    HW1  694   8.838   4.994   5.174
  174SOL    HW2  695   8.774   5.112   5.244
  174SOL     MW  696   8.768   5.034   5.207
  175SOL     OW  697   0.070   7.124   8.021
  175SOL    HW1  698   0.038   7.053   8.077
  175SOL    HW2  699   0.145   7.086   7.974
  175SOL     MW  700   0.076   7.110   8.022
  176SOL     OW  701   7.701   2.914   9.104
  176SOL    HW1  702   7.622   2.943   9.058
  176SOL    HW2  703   7.672   2.842   9.160
  176SOL     MW  704   7.687   2.908   9.106
  177SOL     OW  705   7.391   1.325   6.133
  177SOL    HW1  706   7.416   1.417   6.130
  177SOL    HW2  707   7.472   1.279   6.157
  177SOL     MW  708   7.405   1.331   6.136
  178SOL     OW  709   4.825   4.627   0.503
  178SOL    HW1  710   4.763   4.673   0.446
  178SOL    HW2  711   4.905   4.620   0.450
  178SOL     MW  712   4.828   4.632   0.488
  179SOL     OW  713   3.045   7.450   7.039
  179SOL    HW1  714   3.070   7.540   7.018
  179SOL    HW2  715   2.989   7.458   7.117
  179SOL     MW  716   3.040   7.463   7.047
  180SOL     OW  717   5.718   6.029   1.323
  180SOL    HW1  718   5.740   6.074   1.405
  180SOL    HW2  719   5.753   5.941   1.334
  180SOL     MW  720   5.726   6.024   1.335
  181SOL     OW  721   6.604   7.636   8.786
  181SOL    HW1  722   6.583   7.640   8.692
  181SOL    HW2  723   6.685   7.686   8.794
  181SOL     MW  724   6.612   7.643   8.774
  182SOL     OW  725   2.189   4.070   2.096
  182SOL    HW1  726   2.152   4.131   2.160
  182SOL    HW2  727   2.246   4.124   2.042
  182SOL     MW  728   2.192   4.086   2.097
  183SOL     OW  729   3.195   2.231   2.873
  183SOL    HW1  730   3.247   2.192   2.803
  183SOL    HW2  731   3.138   2.160   2.903
  183SOL     MW  732   3.194   2.216   2.867
  184SOL     OW  733   7.624   4.604   4.357
  184SOL    HW1  734   7.554   4.540   4.372
  184SOL    HW2  735   7.660   4.620   4.444
  184SOL     MW  736   7.619   4.598   4.371
  185SOL     OW  737   6.787   3.955   3.905
  185SOL    HW1  738   6.812   4.028   3.849
  185SOL    HW2  739   6.702   3.926   3.872
  185SOL     MW  740   6.779   3.961   3.893
  186SOL     OW  741   6.148   3.739   6.329
  186SOL    HW1  742   6.089   3.780   6.391
  186SOL    HW2  743   6.185   3.812   6.278
  186SOL     MW  744   6.145   3.754   6.330
  187SOL     OW  745   1.125   7.686   6.298
  187SOL    HW1  746   1.111   7.603   6.344
  187SOL    HW2  747   1.156   7.662   6.211
  187SOL     MW  748   1.127   7.672   6.293
  188SOL     OW  749   2.890   5.841   7.804
  188SOL    HW1  750   2.965   5.899   7.814
  188SOL    HW2  751   2.899   5.807   7.715
  188SOL     MW  752   2.901   5.845   7.793
  189SOL     OW  753   9.997   7.814   6.398
  189SOL    HW1  754   9.976   7.741   6.339
  189SOL    HW2  755   9.917   7.866   6.400
  189SOL     MW  756   9.983   7.811   6.390
  190SOL     OW  757   1.754   3.863   2.535
  190SOL    HW1  758   1.696   3.940   2.533
  190SOL    HW2  759   1.825   3.886   2.475
  190SOL     MW  760   1.756   3.877   2.527
  191SOL     OW  761   4.057   2.646   2.787
  191SOL    HW1  762   4.136   2.619   2.834
  191SOL    HW2  763   4.055   2.589   2.711
  191SOL     MW  764   4.068   2.634   2.783
  192SOL     OW  765   7.148   9.670   0.698
  192SOL    HW1  766   7.179   9.625   0.777
  192SOL    HW2  767   7.115   9.599   0.642
  192SOL     MW  768   7.147   9.654   0.701
  193SOL     OW  769   0.484   9.386   0.475
  193SOL    HW1  770   0.477   9.343   0.560
  193SOL    HW2  771   0.556   9.342   0.431
  193SOL     MW  772   0.493   9.375   0.481
  194SOL     OW  773   4.319   8.641   3.071
  194SOL    HW1  774   4.320   8.545   3.077
  194SOL    HW2  775   4.353   8.660   2.984
  194SOL     MW  776   4.324   8.630   3.060
  195SOL     OW  777   6.348   5.605   4.124
  195SOL    HW1  778   6.395   5.558   4.193
  195SOL    HW2  779   6.394   5.688   4.115
  195SOL     MW  780   6.360   5.610   4.132
  196SOL     OW  781   7.553   2.736   2.886
  196SOL    HW1  782   7.611   2.661   2.875
  196SOL    HW2  783   7.568   2.790   2.809
  196SOL     MW  784   7.563   2.733   2.874
  197SOL     OW  785   0.370   5.538   7.583
  197SOL    HW1  786   0.327   5.503   7.504
  197SOL    HW2  787   0.307   5.521   7.653
  197SOL     MW  788   0.355   5.531   7.582
  198SOL     OW  789   1.496   1.923   1.948
  198SOL    HW1  790   1.521   1.889   1.862
  198SOL    HW2  791   1.410   1.883   1.965
  198SOL     MW  792   1.488   1.913   1.939
  199SOL     OW  793   8.550   0.876  10.108
  199SOL    HW1  794   8.584   0.963  10.089
  199SOL    HW2  795   8.612   0.816  10.065
  199SOL     MW  796   8.563   0.879  10.100
  200SOL     OW  797   1.187   6.507   2.741
  200SOL    HW1  798   1.176   6.565   2.817
  200SOL    HW2  799   1.220   6.425   2.779
  200SOL     MW  800   1.190   6.504   2.757
  201SOL     OW  801   4.283   0.987   4.050
  201SOL    HW1  802   4.349   1.018   4.112
  201SOL    HW2  803   4.205   0.973   4.103
  201SOL     MW  804   4.281   0.990   4.066
  202SOL     OW  805   0.208   5.927  10.082
  202SOL    HW1  806   0.194   6.010  10.036
  202SOL    HW2  807   0.121   5.888  10.088
  202SOL     MW  808   0.195   5.933  10.076
  203SOL     OW  809   7.495   4.063   4.562
  203SOL    HW1  810   7.552   4.112   4.502
  203SOL    HW2  811   7.550   4.045   4.638
  203SOL     MW  812   7.510   4.067   4.564
  204SOL     OW  813   8.877   4.216   7.793
  204SOL    HW1  814   8.842   4.211   7.883
  204SOL    HW2  815   8.883   4.125   7.765
  204SOL     MW  816   8.873   4.203   7.802
  205SOL     OW  817   6.619   0.900   1.211
  205SOL    HW1  818   6.538   0.922   1.256
  205SOL    HW2  819   6.591   0.858   1.130
  205SOL     MW  820   6.605   0.897   1.206
  206SOL     OW  821  10.020   2.527   9.852
  206SOL    HW1  822  10.037   2.442   9.811
  206SOL    HW2  823  10.016   2.507   9.946
  206SOL     MW  824  10.022   2.513   9.859
  207SOL     OW  825   2.657   3.723   6.054
  207SOL    HW1  826   2.572   3.681   6.070
  207SOL    HW2  827   2.656   3.745   5.961
  207SOL     MW  828   2.646   3.720   6.044
  208SOL     OW  829   6.081   5.793   1.705
  208SOL    HW1  830   6.116   5.800   1.794
  208SOL    HW2  831   6.148   5.745   1.657
  208SOL     MW  832   6.095   5.788   1.710
  209SOL     OW  833   9.712   9.716   2.243
  209SOL    HW1  834   9.736   9.793   2.294
  209SOL    HW2  835   9.638   9.678   2.291
  209SOL     MW  836   9.705   9.721   2.257
  210SOL     OW  837   8.426   1.034   5.545
  210SOL    HW1  838   8.490   1.065   5.480
  210SOL    HW2  839   8.469   1.051   5.629
  210SOL     MW  840   8.440   1.041   5.547
  211SOL     OW  841   7.432   3.852   4.392
  211SOL    HW1  842   7.445   3.919   4.459
  211SOL    HW2  843   7.339   3.855   4.373
  211SOL     MW  844   7.421   3.861   4.398
  212SOL     OW  845   1.485   0.202   6.605
  212SOL    HW1  846   1.434   0.281   6.623
  212SOL    HW2  847   1.539   0.190   6.683
  212SOL     MW  848   1.486   0.211   6.618
  213SOL     OW  849   4.317   5.551   5.038
  213SOL    HW1  850   4.242   5.561   4.980
  213SOL    HW2  851   4.287   5.492   5.107
  213SOL     MW  852   4.303   5.544   5.039
  214SOL     OW  853   5.842   9.444   5.832
  214SOL    HW1  854   5.759   9.461   5.877
  214SOL    HW2  855   5.818   9.395   5.754
  214SOL     MW  856   5.828   9.439   5.828
  215SOL     OW  857   1.778   8.773   4.794
  215SOL    HW1  858   1.862   8.809   4.766
  215SOL    HW2  859   1.761   8.701   4.733
  215SOL     MW  860   1.787   8.768   4.782
  216SOL     OW  861   5.416   5.039   0.842
  216SOL    HW1  862   5.505   5.028   0.875
  216SOL    HW2  863   5.373   4.955   0.860
  216SOL     MW  864   5.422   5.026   0.849
  217SOL     OW  865   6.583   5.827   0.418
  217SOL    HW1  866   6.605   5.789   0.333
  217SOL    HW2  867   6.659   5.880   0.441
  217SOL     MW  868   6.596   5.829   0.409
  218SOL     OW  869   2.219   1.003   9.580
  218SOL    HW1  870   2.127   0.983   9.562
  218SOL    HW2  871   2.226   1.006   9.675
  218SOL     MW  872   2.208   1.001   9.590
  219SOL     OW  873   1.077   7.590   1.296
  219SOL    HW1  874   1.085   7.514   1.354
  219SOL    HW2  875   1.095   7.554   1.209
  219SOL     MW  876   1.080   7.575   1.292
  220SOL     OW  877   0.540   2.298   3.586
  220SOL    HW1  878   0.587   2.291   3.669
  220SOL    HW2  879   0.606   2.276   3.520
  220SOL     MW  880   0.555   2.294   3.588
  221SOL     OW  881   8.372   8.837   5.444
  221SOL    HW1  882   8.416   8.834   5.359
  221SOL    HW2  883   8.443   8.835   5.508
  221SOL     MW  884   8.388   8.836   5.441
  222SOL     OW  885   9.780   6.035   9.378
  222SOL    HW1  886   9.764   5.951   9.422
  222SOL    HW2  887   9.700   6.086   9.394
  222SOL     MW  888   9.767   6.030   9.386
  223SOL     OW  889   8.001   0.302   5.761
  223SOL    HW1  890   8.080   0.338   5.801
  223SOL    HW2  891   7.999   0.341   5.673
  223SOL     MW  892   8.011   0.312   5.754
  224SOL     OW  893   4.651   2.239   2.445
  224SOL    HW1  894   4.556   2.238   2.454
  224SOL    HW2  895   4.668   2.306   2.379
  224SOL     MW  896   4.640   2.248   2.437
  225SOL     OW  897   6.096   5.565   0.374
  225SOL    HW1  898   6.140   5.497   0.324
  225SOL    HW2  899   6.008   5.570   0.337
  225SOL     MW  900   6.090   5.557   0.363
  226SOL     OW  901   3.237   2.562   6.605
  226SOL    HW1  902   3.217   2.472   6.629
  226SOL    HW2  903   3.333   2.566   6.604
  226SOL     MW  904   3.247   2.551   6.608
  227SOL     OW  905   4.666   0.001   4.059
  227SOL    HW1  906   4.631  -0.025   3.974
  227SOL    HW2  907   4.598   0.059   4.095
  227SOL     MW  908   4.652   0.006   4.052
  228SOL     OW  909   2.775   9.450   2.496
  228SOL    HW1  910   2.778   9.357   2.474
  228SOL    HW2  911   2.700   9.458   2.555
  228SOL     MW  912   2.765   9.438   2.501
  229SOL     OW  913   3.164   9.690   9.790
  229SOL    HW1  914   3.187   9.598   9.775
  229SOL    HW2  915   3.070   9.689   9.808
  229SOL     MW  916   3.154   9.678   9.790
  230SOL     OW  917   2.119   3.007   0.079
  230SOL    HW1  918   2.076   2.932   0.039
  230SOL    HW2  919   2.128   3.071   0.008
  230SOL     MW  920   2.115   3.006   0.064
  231SOL     OW  921   8.660   4.634   2.298
  231SOL    HW1  922   8.613   4.562   2.342
  231SOL    HW2  923   8.591   4.686   2.257
  231SOL     MW  924   8.644   4.631   2.299
  232SOL     OW  925   2.127   3.549   6.086
  232SOL    HW1  926   2.060   3.480   6.083
  232SOL    HW2  927   2.079   3.629   6.102
  232SOL     MW  928   2.112   3.550   6.087
  233SOL     OW  929   5.456   2.493   5.528
  233SOL    HW1  930   5.534   2.550   5.531
  233SOL    HW2  931   5.392   2.544   5.479
  233SOL     MW  932   5.458   2.508   5.522
  234SOL     OW  933   3.654   1.335   3.557
  234SOL    HW1  934   3.674   1.393   3.630
  234SOL    HW2  935   3.600   1.388   3.498
  234SOL     MW  936   3.649   1.350   3.559
  235SOL     OW  937   9.576   5.870   4.477
  235SOL    HW1  938   9.574   5.797   4.539
  235SOL    HW2  939   9.546   5.833   4.395
  235SOL     MW  940   9.572   5.856   4.475
  236SOL     OW  941   6.157   9.503   8.385
  236SOL    HW1  942   6.244   9.489   8.348
  236SOL    HW2  943   6.157   9.452   8.466
  236SOL     MW  944   6.169   9.494   8.391
  237SOL     OW  945   1.870   2.187   6.577
  237SOL    HW1  946   1.837   2.100   6.553
  237SOL    HW2  947   1.829   2.205   6.662
  237SOL     MW  948   1.860   2.177   6.585
  238SOL     OW  949   5.965   7.194   7.835
  238SOL    HW1  950   6.053   7.157   7.824
  238SOL    HW2  951   5.924   7.139   7.902
  238SOL     MW  952   5.971   7.181   7.842
  239SOL     OW  953   5.814   0.718   3.776
  239SOL    HW1  954   5.820   0.808   3.745
  239SOL    HW2  955   5.744   0.720   3.842
  239SOL     MW  956   5.805   0.730   3.781
  240SOL     OW  957   4.808   8.040   3.575
  240SOL    HW1  958   4.746   7.989   3.627
  240SOL    HW2  959   4.854   8.094   3.639
  240SOL     MW  960   4.806   8.040   3.591
  241SOL     OW  961   5.872   2.816   9.486
  241SOL    HW1  962   5.944   2.785   9.540
  241SOL    HW2  963   5.832   2.887   9.537
  241SOL     MW  964   5.876   2.821   9.500
  242SOL     OW  965   7.365   5.921   2.283
  242SOL    HW1  966   7.281   5.952   2.252
  242SOL    HW2  967   7.357   5.825   2.281
  242SOL     MW  968   7.353   5.912   2.279
  243SOL     OW  969   9.936   7.489   0.319
  243SOL    HW1  970   9.985   7.478   0.237
  243SOL    HW2  971   9.927   7.400   0.353
  243SOL     MW  972   9.942   7.476   0.312
  244SOL     OW  973   2.038   7.962   2.944
  244SOL    HW1  974   2.025   7.935   2.853
  244SOL    HW2  975   2.130   7.986   2.949
  244SOL     MW  976   2.048   7.962   2.933
  245SOL     OW  977   7.486   5.282   8.214
  245SOL    HW1  978   7.407   5.309   8.166
  245SOL    HW2  979   7.501   5.192   8.186
  245SOL     MW  980   7.477   5.274   8.204
  246SOL     OW  981   9.596  10.017   1.031
  246SOL    HW1  982   9.534  10.088   1.047
  246SOL    HW2  983   9.629  10.032   0.943
  246SOL     MW  984   9.592  10.028   1.022
  247SOL     OW  985   0.725  10.099   9.787
  247SOL    HW1  986   0.710  10.005   9.783
  247SOL    HW2  987   0.638  10.137   9.778
  247SOL     MW  988   0.711  10.092   9.785
  248SOL     OW  989   5.684   2.719   9.307
  248SOL    HW1  990   5.724   2.741   9.223
  248SOL    HW2  991   5.747   2.749   9.372
  248SOL     MW  992   5.698   2.726   9.305
  249SOL     OW  993   4.164   5.099   5.163
  249SOL    HW1  994   4.184   5.019   5.211
  249SOL    HW2  995   4.222   5.097   5.087
  249SOL     MW  996   4.175   5.088   5.159
  250SOL     OW  997   7.882   5.458   8.761
  250SOL    HW1  998   7.835   5.413   8.690
  250SOL    HW2  999   7.930   5.528   8.717
  250SOL     MW 1000   7.882   5.462   8.745
  251SOL     OW 1001  10.083   8.106   8.002
  251SOL    HW1 1002  10.021   8.075   7.937
  251SOL    HW2 1003  10.030   8.124   8.079
  251SOL     MW 1004  10.068   8.105   8.003
  252SOL     OW 1005   7.226   6.226   9.546
  252SOL    HW1 1006   7.168   6.212   9.620
  252SOL    HW2 1007   7.272   6.307   9.567
  252SOL     MW 1008   7.224   6.235   9.559
  253SOL     OW 1009   8.984   2.041   3.327
  253SOL    HW1 1010   9.078   2.059   3.338
  253SOL    HW2 1011   8.981   1.950   3.296
  253SOL     MW 1012   8.997   2.031   3.324
  254SOL     OW 1013   5.325   7.868   9.976
  254SOL    HW1 1014   5.310   7.918  10.057
  254SOL    HW2 1015   5.318   7.932   9.906
  254SOL     MW 1016   5.322   7.883   9.978
  255SOL     OW 1017   9.158   7.097   2.452
  255SOL    HW1 1018   9.170   7.186   2.421
  255SOL    HW2 1019   9.066   7.078   2.434
  255SOL     MW 1020   9.147   7.106   2.445
  256SOL     OW 1021   5.167   6.739   1.311
  256SOL    HW1 1022   5.194   6.649   1.294
  256SOL    HW2 1023   5.146   6.740   1.404
  256SOL     MW 1024   5.168   6.727   1.321
  257SOL     OW 1025   1.413   7.711   6.288
  257SOL    HW1 1026   1.384   7.669   6.207
  257SOL    HW2 1027   1.332   7.745   6.326
  257SOL     MW 1028   1.398   7.710   6.282
  258SOL     OW 1029   4.643   5.291   6.703
  258SOL    HW1 1030   4.559   5.334   6.723
  258SOL    HW2 1031   4.637   5.271   6.610
  258SOL     MW 1032   4.631   5.294   6.694
  259SOL     OW 1033   2.742   6.334   1.544
  259SOL    HW1 1034   2.687   6.383   1.484
  259SOL    HW2 1035   2.814   6.394   1.565
  259SOL     MW 1036   2.745   6.349   1.539
  260SOL     OW 1037   1.945   7.184   3.092
  260SOL    HW1 1038   2.038   7.163   3.100
  260SOL    HW2 1039   1.900   7.108   3.130
  260SOL     MW 1040   1.952   7.171   3.098
  261SOL     OW 1041   1.644   5.974   0.039
  261SOL    HW1 1042   1.563   6.010   0.002
  261SOL    HW2 1043   1.684   5.925  -0.033
  261SOL     MW 1044   1.638   5.972   0.025
  262SOL     OW 1045   7.095   0.910   1.296
  262SOL    HW1 1046   7.013   0.952   1.270
  262SOL    HW2 1047   7.069   0.823   1.327
  262SOL     MW 1048   7.081   0.904   1.297
  263SOL     OW 1049   7.928   4.414   1.884
  263SOL    HW1 1050   7.982   4.493   1.881
  263SOL    HW2 1051   7.862   4.427   1.816
  263SOL     MW 1052   7.926   4.426   1.875
  264SOL     OW 1053   9.518   0.277   5.924
  264SOL    HW1 1054   9.423   0.281   5.913
  264SOL    HW2 1055   9.536   0.187   5.952
  264SOL     MW 1056   9.508   0.265   5.927
  265SOL     OW 1057   9.949   3.939   3.718
  265SOL    HW1 1058   9.991   4.024   3.715
  265SOL    HW2 1059  10.015   3.880   3.756
  265SOL     MW 1060   9.963   3.942   3.723
  266SOL     OW 1061  10.043   8.361   2.819
  266SOL    HW1 1062  10.037   8.316   2.903
  266SOL    HW2 1063   9.965   8.417   2.816
  266SOL     MW 1064  10.031   8.362   2.830
  267SOL     OW 1065   1.416   1.540   4.057
  267SOL    HW1 1066   1.438   1.475   4.124
  267SOL    HW2 1067   1.374   1.490   3.988
  267SOL     MW 1068   1.414   1.525   4.057
  268SOL     OW 1069   5.741   7.143   2.241
  268SOL    HW1 1070   5.780   7.102   2.163
  268SOL    HW2 1071   5.705   7.226   2.209
  268SOL     MW 1072   5.741   7.148   2.226
  269SOL     OW 1073   4.524   3.165   0.820
  269SOL    HW1 1074   4.562   3.152   0.733
  269SOL    HW2 1075   4.446   3.218   0.804
  269SOL     MW 1076   4.518   3.170   0.806
  270SOL     OW 1077   4.201   8.041   3.465
  270SOL    HW1 1078   4.200   7.987   3.386
  270SOL    HW2 1079   4.258   7.993   3.526
  270SOL     MW 1080   4.209   8.027   3.463
  271SOL     OW 1081   2.180   4.266   7.692
  271SOL    HW1 1082   2.140   4.252   7.607
  271SOL    HW2 1083   2.233   4.346   7.681
  271SOL     MW 1084   2.182   4.275   7.679
  272SOL     OW 1085   2.552   0.627   0.760
  272SOL    HW1 1086   2.525   0.637   0.851
  272SOL    HW2 1087   2.473   0.597   0.715
  272SOL     MW 1088   2.538   0.624   0.766
  273SOL     OW 1089   3.646   8.783   7.694
  273SOL    HW1 1090   3.708   8.843   7.654
  273SOL    HW2 1091   3.608   8.832   7.767
  273SOL     MW 1092   3.649   8.797   7.699
  274SOL     OW 1093   2.802   0.401   9.376
  274SOL    HW1 1094   2.784   0.307   9.366
  274SOL    HW2 1095   2.896   0.409   9.362
  274SOL     MW 1096   2.812   0.389   9.373
  275SOL     OW 1097   8.373   7.492   9.552
  275SOL    HW1 1098   8.369   7.444   9.635
  275SOL    HW2 1099   8.407   7.429   9.489
  275SOL     MW 1100   8.377   7.477   9.555
  276SOL     OW 1101   4.267   5.914   8.004
  276SOL    HW1 1102   4.355   5.884   8.026
  276SOL    HW2 1103   4.218   5.833   7.990
  276SOL     MW 1104   4.272   5.899   8.005
  277SOL     OW 1105   7.051   1.431   8.523
  277SOL    HW1 1106   7.106   1.497   8.481
  277SOL    HW2 1107   7.092   1.417   8.609
  277SOL     MW 1108   7.064   1.438   8.529
  278SOL     OW 1109   3.888   9.139   5.551
  278SOL    HW1 1110   3.975   9.131   5.512
  278SOL    HW2 1111   3.881   9.232   5.574
  278SOL     MW 1112   3.899   9.151   5.549
  279SOL     OW 1113   7.260   6.165   6.184
  279SOL    HW1 1114   7.305   6.083   6.207
  279SOL    HW2 1115   7.236   6.203   6.268
  279SOL     MW 1116   7.263   6.159   6.198
  280SOL     OW 1117   0.666   4.619   9.821
  280SOL    HW1 1118   0.625   4.635   9.906
  280SOL    HW2 1119   0.610   4.664   9.758
  280SOL     MW 1120   0.653   4.627   9.824
  281SOL     OW 1121   3.605   3.101   3.196
  281SOL    HW1 1122   3.512   3.087   3.179
  281SOL    HW2 1123   3.650   3.040   3.137
  281SOL     MW 1124   3.599   3.091   3.186
  282SOL     OW 1125   5.534   2.219  10.028
  282SOL    HW1 1126   5.498   2.277   9.961
  282SOL    HW2 1127   5.481   2.140  10.022
  282SOL     MW 1128   5.522   2.216  10.018
  283SOL     OW 1129   5.158   7.754   0.704
  283SOL    HW1 1130   5.064   7.758   0.690
  283SOL    HW2 1131   5.168   7.702   0.784
  283SOL     MW 1132   5.147   7.747   0.713
  284SOL     OW 1133   4.784   3.843   1.678
  284SOL    HW1 1134   4.838   3.779   1.725
  284SOL    HW2 1135   4.843   3.882   1.613
  284SOL     MW 1136   4.799   3.840   1.675
  285SOL     OW 1137   3.910   7.882   0.374
  285SOL    HW1 1138   3.936   7.883   0.282
  285SOL    HW2 1139   3.817   7.905   0.373
  285SOL     MW 1140   3.901   7.885   0.362
  286SOL     OW 1141   6.059   8.818   5.472
  286SOL    HW1 1142   6.079   8.733   5.432
  286SOL    HW2 1143   5.977   8.845   5.430
  286SOL     MW 1144   6.050   8.810   5.461
  287SOL     OW 1145   5.024   0.876   7.511
  287SOL    HW1 1146   5.088   0.855   7.578
  287SOL    HW2 1147   5.022   0.972   7.509
  287SOL     MW 1148   5.032   0.886   7.519
  288SOL     OW 1149   2.415   7.238   7.770
  288SOL    HW1 1150   2.337   7.182   7.776
  288SOL    HW2 1151   2.489   7.177   7.774
  288SOL     MW 1152   2.414   7.222   7.771
  289SOL     OW 1153   7.654   7.048   4.255
  289SOL    HW1 1154   7.644   7.062   4.161
  289SOL    HW2 1155   7.623   6.958   4.269
  289SOL     MW 1156   7.648   7.038   4.244
  290SOL     OW 1157   2.589   6.480   1.368
  290SOL    HW1 1158   2.542   6.420   1.311
  290SOL    HW2 1159   2.529   6.553   1.382
  290SOL     MW 1160   2.575   6.482   1.362
  291SOL     OW 1161   7.131   3.063   1.829
  291SOL    HW1 1162   7.044   3.025   1.833
  291SOL    HW2 1163   7.159   3.070   1.921
  291SOL     MW 1164   7.123   3.059   1.842
  292SOL     OW 1165   6.519   8.012   9.038
  292SOL    HW1 1166   6.497   7.967   8.956
  292SOL    HW2 1167   6.492   7.951   9.106
  292SOL     MW 1168   6.513   7.997   9.036
  293SOL     OW 1169   8.142   4.584   7.992
  293SOL    HW1 1170   8.158   4.615   8.081
  293SOL    HW2 1171   8.226   4.595   7.947
  293SOL     MW 1172   8.156   4.590   7.998
  294SOL     OW 1173   1.203   3.805   9.031
  294SOL    HW1 1174   1.270   3.738   9.020
  294SOL    HW2 1175   1.144   3.792   8.957
  294SOL     MW 1176   1.204   3.795   9.020
  295SOL     OW 1177  10.104   6.852   1.210
  295SOL    HW1 1178  10.183   6.870   1.261
  295SOL    HW2 1179  10.132   6.788   1.144
  295SOL     MW 1180  10.119   6.846   1.208
  296SOL     OW 1181   9.471   9.958   3.795
  296SOL    HW1 1182   9.560   9.971   3.828
  296SOL    HW2 1183   9.420   9.932   3.872
  296SOL     MW 1184   9.476   9.956   3.809
  297SOL     OW 1185   4.672   8.731   4.456
  297SOL    HW1 1186   4.747   8.712   4.400
  297SOL    HW2 1187   4.648   8.821   4.434
  297SOL     MW 1188   4.679   8.741   4.446
  298SOL     OW 1189   2.629   2.188   1.323
  298SOL    HW1 1190   2.563   2.174   1.255
  298SOL    HW2 1191   2.653   2.281   1.314
  298SOL     MW 1192   2.623   2.199   1.313
  299SOL     OW 1193   9.054   1.171   1.817
  299SOL    HW1 1194   9.009   1.225   1.882
  299SOL    HW2 1195   9.001   1.092   1.811
  299SOL     MW 1196   9.041   1.168   1.825
  300SOL     OW 1197   5.852   1.127   1.456
  300SOL    HW1 1198   5.843   1.099   1.547
  300SOL    HW2 1199   5.762   1.130   1.423
  300SOL     MW 1200   5.839   1.123   1.464
  301SOL     OW 1201   2.912   7.337   1.110
  301SOL    HW1 1202   2.893   7.247   1.136
  301SOL    HW2 1203   2.946   7.378   1.189
  301SOL     MW 1204   2.914   7.330   1.124
  302SOL     OW 1205   4.357   3.051   8.831
  302SOL    HW1 1206   4.379   3.043   8.924
  302SOL    HW2 1207   4.416   2.989   8.788
  302SOL     MW 1208   4.368   3.042   8.838
  303SOL     OW 1209   2.958   4.334   3.214
  303SOL    HW1 1210   2.938   4.428   3.218
  303SOL    HW2 1211   2.880   4.295   3.174
  303SOL     MW 1212   2.944   4.341   3.209
  304SOL     OW 1213   6.767   9.414   5.611
  304SOL    HW1 1214   6.692   9.409   5.552
  304SOL    HW2 1215   6.829   9.349   5.577
  304SOL     MW 1216   6.766   9.405   5.598
  305SOL     OW 1217   3.136   6.227   7.946
  305SOL    HW1 1218   3.070   6.297   7.945
  305SOL    HW2 1219   3.216   6.272   7.974
  305SOL     MW 1220   3.138   6.243   7.950
  306SOL     OW 1221   4.767   1.281   5.033
  306SOL    HW1 1222   4.683   1.326   5.049
  306SOL    HW2 1223   4.817   1.294   5.113
  306SOL     MW 1224   4.762   1.289   5.046
  307SOL     OW 1225   0.048   1.186   5.933
  307SOL    HW1 1226   0.095   1.269   5.941
  307SOL    HW2 1227  -0.023   1.193   5.997
  307SOL     MW 1228   0.045   1.198   5.943
  308SOL     OW 1229   2.276   4.408   1.274
  308SOL    HW1 1230   2.242   4.327   1.236
  308SOL    HW2 1231   2.368   4.411   1.248
  308SOL     MW 1232   2.284   4.397   1.266
  309SOL     OW 1233   9.732   2.462  10.165
  309SOL    HW1 1234   9.826   2.449  10.160
  309SOL    HW2 1235   9.704   2.473  10.074
  309SOL     MW 1236   9.741   2.462  10.152
  310SOL     OW 1237   9.074   4.129   6.449
  310SOL    HW1 1238   9.130   4.187   6.500
  310SOL    HW2 1239   9.135   4.074   6.400
  310SOL     MW 1240   9.090   4.129   6.449
  311SOL     OW 1241   7.351   6.539   0.187
  311SOL    HW1 1242   7.407   6.508   0.259
  311SOL    HW2 1243   7.407   6.598   0.137
  311SOL     MW 1244   7.366   6.543   0.190
  312SOL     OW 1245   3.663   6.606   2.192
  312SOL    HW1 1246   3.755   6.626   2.177
  312SOL    HW2 1247   3.623   6.610   2.106
  312SOL     MW 1248   3.670   6.610   2.179
  313SOL     OW 1249   6.878   4.145   0.470
  313SOL    HW1 1250   6.938   4.079   0.503
  313SOL    HW2 1251   6.821   4.097   0.409
  313SOL     MW 1252   6.878   4.130   0.466
  314SOL     OW 1253   8.285   0.001   9.487
  314SOL    HW1 1254   8.269   0.096   9.491
  314SOL    HW2 1255   8.238  -0.028   9.410
  314SOL     MW 1256   8.277   0.010   9.478
  315SOL     OW 1257   4.297   4.865   7.490
  315SOL    HW1 1258   4.348   4.839   7.413
  315SOL    HW2 1259   4.238   4.792   7.506
  315SOL     MW 1260   4.296   4.852   7.481
  316SOL     OW 1261   1.524   9.707   7.366
  316SOL    HW1 1262   1.494   9.672   7.282
  316SOL    HW2 1263   1.472   9.786   7.378
  316SOL     MW 1264   1.513   9.713   7.356
  317SOL     OW 1265   9.602   5.980   8.573
  317SOL    HW1 1266   9.537   5.989   8.643
  317SOL    HW2 1267   9.576   6.047   8.509
  317SOL     MW 1268   9.590   5.991   8.574
  318SOL     OW 1269   3.354   2.415   0.370
  318SOL    HW1 1270   3.414   2.354   0.412
  318SOL    HW2 1271   3.324   2.471   0.440
  318SOL     MW 1272   3.358   2.414   0.385
  319SOL     OW 1273   6.468   7.885   8.390
  319SOL    HW1 1274   6.524   7.946   8.342
  319SOL    HW2 1275   6.380   7.923   8.384
  319SOL     MW 1276   6.464   7.898   8.383
  320SOL     OW 1277   9.571   2.354   1.979
  320SOL    HW1 1278   9.486   2.391   2.002
  320SOL    HW2 1279   9.559   2.260   1.984
  320SOL     MW 1280   9.558   2.346   1.982
  321SOL     OW 1281   8.126   1.894   9.169
  321SOL    HW1 1282   8.135   1.864   9.259
  321SOL    HW2 1283   8.032   1.890   9.152
  321SOL     MW 1284   8.115   1.890   9.179
  322SOL     OW 1285   8.549   3.574   4.187
  322SOL    HW1 1286   8.531   3.654   4.136
  322SOL    HW2 1287   8.534   3.503   4.125
  322SOL     MW 1288   8.544   3.575   4.172
  323SOL     OW 1289   3.077   1.403   2.962
  323SOL    HW1 1290   3.116   1.490   2.950
  323SOL    HW2 1291   3.075   1.365   2.874
  323SOL     MW 1292   3.082   1.410   2.949
  324SOL     OW 1293   2.220   4.733   5.257
  324SOL    HW1 1294   2.314   4.712   5.254
  324SOL    HW2 1295   2.179   4.654   5.293
  324SOL     MW 1296   2.227   4.720   5.262
  325SOL     OW 1297   2.707   6.474   5.445
  325SOL    HW1 1298   2.614   6.493   5.458
  325SOL    HW2 1299   2.730   6.416   5.517
  325SOL     MW 1300   2.697   6.469   5.457
  326SOL     OW 1301   4.372   2.720   7.126
  326SOL    HW1 1302   4.340   2.808   7.105
  326SOL    HW2 1303   4.338   2.664   7.057
  326SOL     MW 1304   4.363   2.724   7.114
  327SOL     OW 1305   1.252  10.029   7.221
  327SOL    HW1 1306   1.163  10.063   7.210
  327SOL    HW2 1307   1.306  10.087   7.167
  327SOL     MW 1308   1.247  10.042   7.212
  328SOL     OW 1309   5.921   1.571   2.605
  328SOL    HW1 1310   5.985   1.513   2.647
  328SOL    HW2 1311   5.883   1.517   2.535
  328SOL     MW 1312   5.925   1.556   2.601
  329SOL     OW 1313   1.119   0.346   2.325
  329SOL    HW1 1314   1.076   0.272   2.282
  329SOL    HW2 1315   1.207   0.314   2.344
  329SOL     MW 1316   1.125   0.332   2.322
  330SOL     OW 1317   2.594   1.781   0.322
  330SOL    HW1 1318   2.668   1.740   0.276
  330SOL    HW2 1319   2.584   1.730   0.402
  330SOL     MW 1320   2.603   1.769   0.327
  331SOL     OW 1321   3.880   0.417   6.845
  331SOL    HW1 1322   3.847   0.427   6.756
  331SOL    HW2 1323   3.801   0.408   6.899
  331SOL     MW 1324   3.865   0.417   6.840
  332SOL     OW 1325   0.383   3.512   3.600
  332SOL    HW1 1326   0.406   3.456   3.675
  332SOL    HW2 1327   0.317   3.572   3.635
  332SOL     MW 1328   0.377   3.513   3.615
  333SOL     OW 1329   7.969   2.706   7.376
  333SOL    HW1 1330   8.014   2.768   7.433
  333SOL    HW2 1331   8.003   2.620   7.403
  333SOL     MW 1332   7.980   2.703   7.387
  334SOL     OW 1333   4.403   2.974   1.259
  334SOL    HW1 1334   4.354   3.056   1.260
  334SOL    HW2 1335   4.449   2.975   1.176
  334SOL     MW 1336   4.403   2.985   1.248
  335SOL     OW 1337   0.570   4.997   9.543
  335SOL    HW1 1338   0.628   4.982   9.469
  335SOL    HW2 1339   0.575   5.092   9.559
  335SOL     MW 1340   0.578   5.008   9.535
  336SOL     OW 1341   6.674   9.214   2.525
  336SOL    HW1 1342   6.710   9.219   2.613
  336SOL    HW2 1343   6.737   9.161   2.476
  336SOL     MW 1344   6.688   9.208   2.530
  337SOL     OW 1345   7.374   2.836   4.230
  337SOL    HW1 1346   7.381   2.897   4.157
  337SOL    HW2 1347   7.319   2.881   4.294
  337SOL     MW 1348   7.367   2.850   4.229
  338SOL     OW 1349   5.033   7.996   0.176
  338SOL    HW1 1350   5.066   8.048   0.249
  338SOL    HW2 1351   5.035   7.905   0.208
  338SOL     MW 1352   5.038   7.990   0.190
  339SOL     OW 1353   6.971   0.350   7.682
  339SOL    HW1 1354   6.920   0.405   7.741
  339SOL    HW2 1355   7.027   0.411   7.635
  339SOL     MW 1356   6.972   0.365   7.684
  340SOL     OW 1357   4.749   8.418   8.916
  340SOL    HW1 1358   4.661   8.451   8.903
  340SOL    HW2 1359   4.761   8.417   9.011
  340SOL     MW 1360   4.739   8.422   8.927
  341SOL     OW 1361   7.874   8.316   4.139
  341SOL    HW1 1362   7.919   8.233   4.124
  341SOL    HW2 1363   7.935   8.383   4.111
  341SOL     MW 1364   7.888   8.313   4.134
  342SOL     OW 1365   3.276   6.212   6.727
  342SOL    HW1 1366   3.212   6.277   6.756
  342SOL    HW2 1367   3.360   6.257   6.734
  342SOL     MW 1368   3.279   6.227   6.732
  343SOL     OW 1369   2.789   1.006   8.968
  343SOL    HW1 1370   2.719   1.071   8.967
  343SOL    HW2 1371   2.815   0.996   8.877
  343SOL     MW 1372   2.783   1.013   8.956
  344SOL     OW 1373   3.969   4.403   7.016
  344SOL    HW1 1374   4.009   4.442   6.938
  344SOL    HW2 1375   3.889   4.362   6.984
  344SOL     MW 1376   3.963   4.403   7.001
  345SOL     OW 1377   8.182   9.769   5.847
  345SOL    HW1 1378   8.156   9.748   5.758
  345SOL    HW2 1379   8.130   9.847   5.869
  345SOL     MW 1380   8.171   9.777   5.838
  346SOL     OW 1381   9.106   7.302   4.347
  346SOL    HW1 1382   9.121   7.333   4.258
  346SOL    HW2 1383   9.017   7.331   4.368
  346SOL     MW 1384   9.096   7.310   4.338
  347SOL     OW 1385   2.735   0.514   9.842
  347SOL    HW1 1386   2.789   0.480   9.771
  347SOL    HW2 1387   2.748   0.453   9.914
  347SOL     MW 1388   2.744   0.502   9.842
  348SOL     OW 1389   9.283   6.883   5.481
  348SOL    HW1 1390   9.313   6.828   5.553
  348SOL    HW2 1391   9.360   6.935   5.457
  348SOL     MW 1392   9.298   6.883   5.488
  349SOL     OW 1393   8.092   8.915   7.216
  349SOL    HW1 1394   8.028   8.964   7.269
  349SOL    HW2 1395   8.082   8.825   7.245
  349SOL     MW 1396   8.082   8.910   7.227
  350SOL     OW 1397   9.593   3.178   9.860
  350SOL    HW1 1398   9.550   3.245   9.807
  350SOL    HW2 1399   9.627   3.115   9.796
  350SOL     MW 1400   9.592   3.179   9.844
  351SOL     OW 1401   8.007  -0.022   4.442
  351SOL    HW1 1402   7.964  -0.005   4.526
  351SOL    HW2 1403   8.009   0.063   4.398
  351SOL     MW 1404   8.001  -0.008   4.447
  352SOL     OW 1405   6.287   8.207  10.085
  352SOL    HW1 1406   6.231   8.280  10.059
  352SOL    HW2 1407   6.334   8.183  10.005
  352SOL     MW 1408   6.286   8.214  10.071
  353SOL     OW 1409   6.316   9.780   5.198
  353SOL    HW1 1410   6.370   9.845   5.154
  353SOL    HW2 1411   6.308   9.812   5.288
  353SOL     MW 1412   6.322   9.793   5.204
  354SOL     OW 1413   0.237   7.784   0.096
  354SOL    HW1 1414   0.230   7.860   0.038
  354SOL    HW2 1415   0.325   7.749   0.079
  354SOL     MW 1416   0.248   7.790   0.086
  355SOL     OW 1417   4.799   8.288   2.889
  355SOL    HW1 1418   4.743   8.362   2.862
  355SOL    HW2 1419   4.770   8.215   2.834
  355SOL     MW 1420   4.787   8.288   2.878
  356SOL     OW 1421   6.358   2.059   4.594
  356SOL    HW1 1422   6.325   2.094   4.677
  356SOL    HW2 1423   6.453   2.070   4.601
  356SOL     MW 1424   6.367   2.065   4.606
  357SOL     OW 1425   7.758   4.796   9.061
  357SOL    HW1 1426   7.761   4.883   9.099
  357SOL    HW2 1427   7.799   4.739   9.126
  357SOL     MW 1428   7.764   4.800   9.075
  358SOL     OW 1429   0.309   0.054   7.095
  358SOL    HW1 1430   0.404   0.055   7.085
  358SOL    HW2 1431   0.292   0.112   7.169
  358SOL     MW 1432   0.320   0.062   7.104
  359SOL     OW 1433   3.290   5.595   6.418
  359SOL    HW1 1434   3.297   5.549   6.501
  359SOL    HW2 1435   3.283   5.687   6.442
  359SOL     MW 1436   3.290   5.601   6.432
  360SOL     OW 1437   8.202   7.291   5.138
  360SOL    HW1 1438   8.262   7.220   5.159
  360SOL    HW2 1439   8.251   7.371   5.157
  360SOL     MW 1440   8.217   7.293   5.144
  361SOL     OW 1441   8.430   4.484   2.391
  361SOL    HW1 1442   8.394   4.491   2.479
  361SOL    HW2 1443   8.432   4.390   2.374
  361SOL     MW 1444   8.426   4.472   2.400
  362SOL     OW 1445   8.616   8.998   5.023
  362SOL    HW1 1446   8.633   9.075   5.077
  362SOL    HW2 1447   8.580   8.933   5.084
  362SOL     MW 1448   8.614   8.999   5.039
  363SOL     OW 1449   9.344   7.901   5.030
  363SOL    HW1 1450   9.419   7.943   4.988
  363SOL    HW2 1451   9.383   7.847   5.099
  363SOL     MW 1452   9.359   7.900   5.034
  364SOL     OW 1453   5.125   5.358   9.967
  364SOL    HW1 1454   5.083   5.276   9.942
  364SOL    HW2 1455   5.145   5.401   9.884
  364SOL     MW 1456   5.122   5.353   9.952
  365SOL     OW 1457   8.502   7.902   7.355
  365SOL    HW1 1458   8.587   7.920   7.314
  365SOL    HW2 1459   8.519   7.907   7.449
  365SOL     MW 1460   8.516   7.905   7.362
  366SOL     OW 1461   5.292   2.228   2.757
  366SOL    HW1 1462   5.316   2.137   2.742
  366SOL    HW2 1463   5.362   2.263   2.813
  366SOL     MW 1464   5.304   2.220   2.763
  367SOL     OW 1465   5.875   7.040   8.056
  367SOL    HW1 1466   5.833   6.956   8.076
  367SOL    HW2 1467   5.849   7.097   8.128
  367SOL     MW 1468   5.865   7.036   8.068
  368SOL     OW 1469   1.144   0.996   3.460
  368SOL    HW1 1470   1.053   1.020   3.477
  368SOL    HW2 1471   1.139   0.922   3.400
  368SOL     MW 1472   1.131   0.990   3.454
  369SOL     OW 1473   6.184   1.918   0.612
  369SOL    HW1 1474   6.226   1.834   0.593
  369SOL    HW2 1475   6.110   1.922   0.551
  369SOL     MW 1476   6.180   1.907   0.601
  370SOL     OW 1477   0.711   8.614   1.592
  370SOL    HW1 1478   0.762   8.690   1.564
  370SOL    HW2 1479   0.776   8.553   1.625
  370SOL     MW 1480   0.727   8.616   1.592
  371SOL     OW 1481   9.253   3.658   9.887
  371SOL    HW1 1482   9.223   3.577   9.847
  371SOL    HW2 1483   9.341   3.672   9.852
  371SOL     MW 1484   9.261   3.649   9.876
  372SOL     OW 1485   6.850   8.205   4.818
  372SOL    HW1 1486   6.866   8.112   4.832
  372SOL    HW2 1487   6.782   8.227   4.882
  372SOL     MW 1488   6.843   8.196   4.829
  373SOL     OW 1489   9.107   1.784   3.247
  373SOL    HW1 1490   9.122   1.725   3.322
  373SOL    HW2 1491   9.107   1.726   3.171
  373SOL     MW 1492   9.109   1.768   3.247
  374SOL     OW 1493   7.267   7.663   7.657
  374SOL    HW1 1494   7.357   7.673   7.688
  374SOL    HW2 1495   7.276   7.632   7.567
  374SOL     MW 1496   7.281   7.660   7.649
  375SOL     OW 1497   7.217   9.940   0.702
  375SOL    HW1 1498   7.266   9.949   0.620
  375SOL    HW2 1499   7.189   9.848   0.703
  375SOL     MW 1500   7.220   9.929   0.691
  376SOL     OW 1501   6.371   7.066   7.593
  376SOL    HW1 1502   6.316   7.065   7.672
  376SOL    HW2 1503   6.312   7.093   7.523
  376SOL     MW 1504   6.356   7.070   7.594
  377SOL     OW 1505   5.800   2.245   3.295
  377SOL    HW1 1506   5.833   2.164   3.256
  377SOL    HW2 1507   5.799   2.227   3.389
  377SOL     MW 1508   5.804   2.232   3.302
  378SOL     OW 1509  10.083   8.880   5.921
  378SOL    HW1 1510  10.125   8.848   5.841
  378SOL    HW2 1511  10.139   8.847   5.991
  378SOL     MW 1512  10.096   8.872   5.919
  379SOL     OW 1513   9.179   2.773   6.195
  379SOL    HW1 1514   9.103   2.716   6.189
  379SOL    HW2 1515   9.225   2.743   6.273
  379SOL     MW 1516   9.175   2.761   6.204
  380SOL     OW 1517   6.884   0.300   9.854
  380SOL    HW1 1518   6.836   0.377   9.822
  380SOL    HW2 1519   6.837   0.225   9.817
  380SOL     MW 1520   6.871   0.300   9.844
  381SOL     OW 1521   1.217   6.662   4.785
  381SOL    HW1 1522   1.310   6.665   4.809
  381SOL    HW2 1523   1.173   6.629   4.864
  381SOL     MW 1524   1.224   6.658   4.799
  382SOL     OW 1525   8.317   8.679   0.405
  382SOL    HW1 1526   8.371   8.622   0.459
  382SOL    HW2 1527   8.345   8.660   0.315
  382SOL     MW 1528   8.328   8.669   0.400
  383SOL     OW 1529   9.770   4.645   0.049
  383SOL    HW1 1530   9.827   4.693   0.109
  383SOL    HW2 1531   9.727   4.580   0.104
  383SOL     MW 1532   9.772   4.643   0.065
  384SOL     OW 1533   4.639   8.495   2.798
  384SOL    HW1 1534   4.547   8.517   2.807
  384SOL    HW2 1535   4.683   8.579   2.783
  384SOL     MW 1536   4.633   8.510   2.797
  385SOL     OW 1537   4.415   2.618  10.078
  385SOL    HW1 1538   4.455   2.536  10.106
  385SOL    HW2 1539   4.374   2.598   9.994
  385SOL     MW 1540   4.415   2.604  10.070
  386SOL     OW 1541   8.447   1.386   4.513
  386SOL    HW1 1542   8.413   1.360   4.599
  386SOL    HW2 1543   8.405   1.326   4.451
  386SOL     MW 1544   8.436   1.375   4.516
  387SOL     OW 1545   3.498   6.695   0.610
  387SOL    HW1 1546   3.517   6.666   0.521
  387SOL    HW2 1547   3.406   6.722   0.607
  387SOL     MW 1548   3.488   6.695   0.597
  388SOL     OW 1549   8.336   7.822   7.825
  388SOL    HW1 1550   8.405   7.852   7.766
  388SOL    HW2 1551   8.380   7.763   7.885
  388SOL     MW 1552   8.351   7.818   7.825
  389SOL     OW 1553   2.106   7.239   6.105
  389SOL    HW1 1554   2.128   7.211   6.016
  389SOL    HW2 1555   2.015   7.266   6.100
  389SOL     MW 1556   2.097   7.239   6.092
  390SOL     OW 1557   4.473   8.809   6.986
  390SOL    HW1 1558   4.401   8.793   7.048
  390SOL    HW2 1559   4.552   8.787   7.035
  390SOL     MW 1560   4.474   8.804   7.001
  391SOL     OW 1561   5.510   7.128   8.730
  391SOL    HW1 1562   5.575   7.058   8.729
  391SOL    HW2 1563   5.558   7.204   8.763
  391SOL     MW 1564   5.525   7.129   8.735
  392SOL     OW 1565   5.016   8.099   7.452
  392SOL    HW1 1566   5.063   8.080   7.371
  392SOL    HW2 1567   4.955   8.026   7.462
  392SOL     MW 1568   5.015   8.087   7.442
  393SOL     OW 1569   7.241   1.195   0.726
  393SOL    HW1 1570   7.220   1.158   0.811
  393SOL    HW2 1571   7.321   1.149   0.699
  393SOL     MW 1572   7.249   1.184   0.734
  394SOL     OW 1573   3.639   0.719   8.315
  394SOL    HW1 1574   3.698   0.760   8.251
  394SOL    HW2 1575   3.670   0.628   8.320
  394SOL     MW 1576   3.651   0.712   8.307
  395SOL     OW 1577   4.381   0.344   1.095
  395SOL    HW1 1578   4.365   0.251   1.081
  395SOL    HW2 1579   4.462   0.347   1.145
  395SOL     MW 1580   4.389   0.332   1.100
  396SOL     OW 1581   0.186   4.080   7.273
  396SOL    HW1 1582   0.117   4.050   7.215
  396SOL    HW2 1583   0.237   4.142   7.220
  396SOL     MW 1584   0.184   4.085   7.258
  397SOL     OW 1585   7.932   0.636   3.402
  397SOL    HW1 1586   7.861   0.609   3.460
  397SOL    HW2 1587   7.909   0.599   3.316
  397SOL     MW 1588   7.919   0.627   3.398
  398SOL     OW 1589   8.565   6.286   3.969
  398SOL    HW1 1590   8.531   6.337   3.895
  398SOL    HW2 1591   8.599   6.351   4.030
  398SOL     MW 1592   8.565   6.301   3.967
  399SOL     OW 1593   4.375   2.000   6.434
  399SOL    HW1 1594   4.469   2.018   6.434
  399SOL    HW2 1595   4.369   1.904   6.431
  399SOL     MW 1596   4.387   1.989   6.434
  400SOL     OW 1597   6.320   8.659   1.246
  400SOL    HW1 1598   6.367   8.742   1.239
  400SOL    HW2 1599   6.233   8.683   1.278
  400SOL     MW 1600   6.315   8.673   1.249
  401SOL     OW 1601   5.955   6.122   7.690
  401SOL    HW1 1602   6.016   6.161   7.627
  401SOL    HW2 1603   6.009   6.068   7.746
  401SOL     MW 1604   5.970   6.120   7.689
  402SOL     OW 1605   2.335   7.565   9.178
  402SOL    HW1 1606   2.426   7.550   9.151
  402SOL    HW2 1607   2.316   7.654   9.148
  402SOL     MW 1608   2.345   7.575   9.171
  403SOL     OW 1609   7.053   4.635   4.019
  403SOL    HW1 1610   7.149   4.634   4.020
  403SOL    HW2 1611   7.030   4.654   3.928
  403SOL     MW 1612   7.063   4.637   4.007
  404SOL     OW 1613   7.118   4.804   8.995
  404SOL    HW1 1614   7.208   4.778   8.974
  404SOL    HW2 1615   7.064   4.734   8.959
  404SOL     MW 1616   7.122   4.791   8.987
  405SOL     OW 1617   8.542   3.107   5.037
  405SOL    HW1 1618   8.487   3.111   4.959
  405SOL    HW2 1619   8.504   3.173   5.096
  405SOL     MW 1620   8.529   3.116   5.035
  406SOL     OW 1621  10.091   4.813   4.966
  406SOL    HW1 1622  10.152   4.821   4.893
  406SOL    HW2 1623  10.015   4.866   4.940
  406SOL     MW 1624  10.089   4.821   4.953
  407SOL     OW 1625   0.081   3.286   2.041
  407SOL    HW1 1626   0.152   3.222   2.046
  407SOL    HW2 1627   0.001   3.233   2.038
  407SOL     MW 1628   0.080   3.270   2.042
  408SOL     OW 1629   0.376   2.786   9.012
  408SOL    HW1 1630   0.470   2.769   9.006
  408SOL    HW2 1631   0.346   2.780   8.921
  408SOL     MW 1632   0.385   2.783   8.999
  409SOL     OW 1633   0.891   2.104   5.932
  409SOL    HW1 1634   0.938   2.043   5.876
  409SOL    HW2 1635   0.813   2.057   5.959
  409SOL     MW 1636   0.887   2.090   5.928
  410SOL     OW 1637   3.331   6.087   0.610
  410SOL    HW1 1638   3.255   6.034   0.585
  410SOL    HW2 1639   3.303   6.131   0.691
  410SOL     MW 1640   3.317   6.086   0.618
  411SOL     OW 1641   9.541   6.106   1.592
  411SOL    HW1 1642   9.531   6.187   1.642
  411SOL    HW2 1643   9.503   6.038   1.648
  411SOL     MW 1644   9.535   6.108   1.607
  412SOL     OW 1645   0.966   5.988   0.827
  412SOL    HW1 1646   1.043   6.040   0.802
  412SOL    HW2 1647   0.892   6.047   0.811
  412SOL     MW 1648   0.967   6.003   0.821
  413SOL     OW 1649   0.176   8.722   5.136
  413SOL    HW1 1650   0.141   8.688   5.053
  413SOL    HW2 1651   0.270   8.725   5.123
  413SOL     MW 1652   0.184   8.717   5.123
  414SOL     OW 1653   6.914   1.049   9.318
  414SOL    HW1 1654   6.914   0.980   9.251
  414SOL    HW2 1655   6.905   1.002   9.401
  414SOL     MW 1656   6.913   1.033   9.320
  415SOL     OW 1657   0.255   9.226   0.460
  415SOL    HW1 1658   0.259   9.167   0.384
  415SOL    HW2 1659   0.324   9.291   0.443
  415SOL     MW 1660   0.265   9.227   0.447
  416SOL     OW 1661   7.671   6.745   0.908
  416SOL    HW1 1662   7.723   6.712   0.981
  416SOL    HW2 1663   7.704   6.833   0.892
  416SOL     MW 1664   7.682   6.752   0.916
  417SOL     OW 1665   4.937   5.304   2.154
  417SOL    HW1 1666   4.930   5.234   2.219
  417SOL    HW2 1667   5.013   5.280   2.102
  417SOL     MW 1668   4.946   5.291   2.156
  418SOL     OW 1669   6.865   9.353   6.054
  418SOL    HW1 1670   6.886   9.265   6.023
  418SOL    HW2 1671   6.787   9.378   6.005
  418SOL     MW 1672   6.857   9.345   6.043
  419SOL     OW 1673   4.893  10.055   4.607
  419SOL    HW1 1674   4.885  10.146   4.635
  419SOL    HW2 1675   4.880  10.058   4.512
  419SOL     MW 1676   4.891  10.068   4.598
  420SOL     OW 1677   9.408   7.236   2.183
  420SOL    HW1 1678   9.373   7.148   2.194
  420SOL    HW2 1679   9.452   7.233   2.097
  420SOL     MW 1680   9.409   7.224   2.173
  421SOL     OW 1681   4.821   9.894   2.424
  421SOL    HW1 1682   4.895   9.915   2.365
  421SOL    HW2 1683   4.827   9.799   2.436
  421SOL     MW 1684   4.832   9.884   2.417
  422SOL     OW 1685   0.329   9.620   2.903
  422SOL    HW1 1686   0.349   9.713   2.914
  422SOL    HW2 1687   0.321   9.607   2.809
  422SOL     MW 1688   0.330   9.631   2.892
  423SOL     OW 1689   6.449   1.994   0.559
  423SOL    HW1 1690   6.358   1.988   0.588
  423SOL    HW2 1691   6.491   2.053   0.622
  423SOL     MW 1692   6.442   2.001   0.571
  424SOL     OW 1693   3.869   9.663   5.528
  424SOL    HW1 1694   3.864   9.575   5.563
  424SOL    HW2 1695   3.933   9.708   5.584
  424SOL     MW 1696   3.877   9.657   5.540
  425SOL     OW 1697   9.147   0.334   7.610
  425SOL    HW1 1698   9.239   0.340   7.585
  425SOL    HW2 1699   9.143   0.259   7.669
  425SOL     MW 1700   9.158   0.325   7.614
  426SOL     OW 1701   3.595   0.268   2.613
  426SOL    HW1 1702   3.663   0.311   2.665
  426SOL    HW2 1703   3.525   0.332   2.607
  426SOL     MW 1704   3.595   0.282   2.619
  427SOL     OW 1705   3.453   2.276   4.841
  427SOL    HW1 1706   3.374   2.238   4.879
  427SOL    HW2 1707   3.506   2.301   4.917
  427SOL     MW 1708   3.450   2.274   4.857
  428SOL     OW 1709   9.826   1.179   1.029
  428SOL    HW1 1710   9.762   1.177   1.100
  428SOL    HW2 1711   9.773   1.169   0.950
  428SOL     MW 1712   9.810   1.177   1.028
  429SOL     OW 1713   1.312   4.774   2.494
  429SOL    HW1 1714   1.294   4.834   2.422
  429SOL    HW2 1715   1.230   4.725   2.504
  429SOL     MW 1716   1.298   4.775   2.486
  430SOL     OW 1717   5.503   9.878   9.373
  430SOL    HW1 1718   5.485   9.884   9.279
  430SOL    HW2 1719   5.473   9.961   9.409
  430SOL     MW 1720   5.497   9.890   9.365
  431SOL     OW 1721   7.492   0.983   6.477
  431SOL    HW1 1722   7.452   0.933   6.549
  431SOL    HW2 1723   7.472   1.075   6.498
  431SOL     MW 1724   7.484   0.989   6.490
  432SOL     OW 1725   8.863   4.740   8.030
  432SOL    HW1 1726   8.934   4.769   7.972
  432SOL    HW2 1727   8.873   4.795   8.108
  432SOL     MW 1728   8.874   4.751   8.033
  433SOL     OW 1729   3.252   5.490   5.039
  433SOL    HW1 1730   3.243   5.557   4.971
  433SOL    HW2 1731   3.265   5.540   5.119
  433SOL     MW 1732   3.252   5.506   5.040
  434SOL     OW 1733   5.227   8.563   2.982
  434SOL    HW1 1734   5.215   8.654   2.953
  434SOL    HW2 1735   5.266   8.519   2.906
  434SOL     MW 1736   5.231   8.570   2.968
  435SOL     OW 1737   1.044   0.713   5.793
  435SOL    HW1 1738   1.070   0.629   5.755
  435SOL    HW2 1739   0.996   0.689   5.873
  435SOL     MW 1740   1.041   0.699   5.799
  436SOL     OW 1741   7.230   7.331   4.612
  436SOL    HW1 1742   7.174   7.323   4.535
  436SOL    HW2 1743   7.174   7.305   4.685
  436SOL     MW 1744   7.215   7.327   4.611
  437SOL     OW 1745   2.946   1.825   5.739
  437SOL    HW1 1746   2.906   1.873   5.811
  437SOL    HW2 1747   2.876   1.767   5.708
  437SOL     MW 1748   2.931   1.824   5.744
  438SOL     OW 1749   1.336   0.693   9.823
  438SOL    HW1 1750   1.377   0.607   9.814
  438SOL    HW2 1751   1.357   0.737   9.741
  438SOL     MW 1752   1.344   0.687   9.811
  439SOL     OW 1753   5.141   7.577   0.476
  439SOL    HW1 1754   5.143   7.634   0.399
  439SOL    HW2 1755   5.164   7.633   0.549
  439SOL     MW 1756   5.144   7.592   0.475
  440SOL     OW 1757   7.299   4.338   0.915
  440SOL    HW1 1758   7.389   4.332   0.882
  440SOL    HW2 1759   7.254   4.264   0.873
  440SOL     MW 1760   7.305   4.327   0.905
  441SOL     OW 1761   7.585   2.873   7.548
  441SOL    HW1 1762   7.577   2.968   7.561
  441SOL    HW2 1763   7.526   2.835   7.613
  441SOL     MW 1764   7.576   2.881   7.559
  442SOL     OW 1765   8.440   9.450   0.268
  442SOL    HW1 1766   8.446   9.399   0.187
  442SOL    HW2 1767   8.369   9.409   0.317
  442SOL     MW 1768   8.431   9.438   0.263
  443SOL     OW 1769   0.222   2.515   0.356
  443SOL    HW1 1770   0.317   2.521   0.361
  443SOL    HW2 1771   0.191   2.552   0.439
  443SOL     MW 1772   0.231   2.520   0.368
  444SOL     OW 1773   4.851   7.209   7.354
  444SOL    HW1 1774   4.933   7.184   7.312
  444SOL    HW2 1775   4.876   7.234   7.443
  444SOL     MW 1776   4.865   7.209   7.360
  445SOL     OW 1777   8.898   2.479   6.417
  445SOL    HW1 1778   8.909   2.537   6.341
  445SOL    HW2 1779   8.910   2.391   6.382
  445SOL     MW 1780   8.901   2.475   6.402
  446SOL     OW 1781   2.241   5.995   8.142
  446SOL    HW1 1782   2.285   6.010   8.058
  446SOL    HW2 1783   2.312   5.998   8.207
  446SOL     MW 1784   2.257   5.998   8.139
  447SOL     OW 1785   3.016   2.196   5.499
  447SOL    HW1 1786   3.002   2.184   5.405
  447SOL    HW2 1787   2.995   2.287   5.515
  447SOL     MW 1788   3.011   2.206   5.488
  448SOL     OW 1789   4.269   5.455   6.475
  448SOL    HW1 1790   4.270   5.359   6.470
  448SOL    HW2 1791   4.211   5.481   6.403
  448SOL     MW 1792   4.261   5.446   6.465
  449SOL     OW 1793   8.370   9.937   4.933
  449SOL    HW1 1794   8.346  10.021   4.972
  449SOL    HW2 1795   8.287   9.896   4.911
  449SOL     MW 1796   8.356   9.943   4.935
  450SOL     OW 1797   0.222   9.443   8.557
  450SOL    HW1 1798   0.205   9.415   8.647
  450SOL    HW2 1799   0.258   9.365   8.515
  450SOL     MW 1800   0.225   9.428   8.564
  451SOL     OW 1801   6.903   2.903   1.856
  451SOL    HW1 1802   6.913   2.892   1.951
  451SOL    HW2 1803   6.956   2.833   1.819
  451SOL     MW 1804   6.911   2.892   1.864
  452SOL     OW 1805   5.687   6.829   5.129
  452SOL    HW1 1806   5.698   6.741   5.094
  452SOL    HW2 1807   5.744   6.832   5.206
  452SOL     MW 1808   5.696   6.818   5.134
  453SOL     OW 1809   7.549   4.686   8.571
  453SOL    HW1 1810   7.601   4.709   8.648
  453SOL    HW2 1811   7.528   4.593   8.582
  453SOL     MW 1812   7.553   4.676   8.583
  454SOL     OW 1813   0.551   7.564   3.514
  454SOL    HW1 1814   0.474   7.621   3.508
  454SOL    HW2 1815   0.552   7.517   3.431
  454SOL     MW 1816   0.540   7.565   3.502
  455SOL     OW 1817   9.643   9.732   1.976
  455SOL    HW1 1818   9.621   9.824   1.966
  455SOL    HW2 1819   9.674   9.725   2.067
  455SOL     MW 1820   9.644   9.743   1.987
  456SOL     OW 1821   2.101   0.248   4.802
  456SOL    HW1 1822   2.077   0.234   4.893
  456SOL    HW2 1823   2.174   0.188   4.786
  456SOL     MW 1824   2.108   0.238   4.812
  457SOL     OW 1825   4.979   3.612   7.140
  457SOL    HW1 1826   4.939   3.569   7.064
  457SOL    HW2 1827   5.032   3.683   7.102
  457SOL     MW 1828   4.981   3.616   7.124
  458SOL     OW 1829   0.869   1.850   8.814
  458SOL    HW1 1830   0.876   1.772   8.759
  458SOL    HW2 1831   0.960   1.873   8.834
  458SOL     MW 1832   0.882   1.843   8.810
  459SOL     OW 1833   1.994   4.890   3.510
  459SOL    HW1 1834   2.082   4.874   3.544
  459SOL    HW2 1835   1.997   4.978   3.474
  459SOL     MW 1836   2.006   4.899   3.509
  460SOL     OW 1837   7.581   6.239   3.772
  460SOL    HW1 1838   7.516   6.179   3.737
  460SOL    HW2 1839   7.557   6.324   3.735
  460SOL     MW 1840   7.569   6.243   3.762
  461SOL     OW 1841   4.250   7.550   5.100
  461SOL    HW1 1842   4.313   7.617   5.124
  461SOL    HW2 1843   4.303   7.481   5.060
  461SOL     MW 1844   4.265   7.549   5.098
  462SOL     OW 1845   5.104   8.261   3.976
  462SOL    HW1 1846   5.162   8.186   3.966
  462SOL    HW2 1847   5.032   8.245   3.914
  462SOL     MW 1848   5.102   8.249   3.966
  463SOL     OW 1849   0.031   4.812   6.694
  463SOL    HW1 1850   0.049   4.839   6.604
  463SOL    HW2 1851  -0.024   4.882   6.729
  463SOL     MW 1852   0.026   4.826   6.686
  464SOL     OW 1853   4.721   8.724   6.234
  464SOL    HW1 1854   4.652   8.697   6.173
  464SOL    HW2 1855   4.720   8.655   6.301
  464SOL     MW 1856   4.711   8.711   6.234
  465SOL     OW 1857   0.080   2.466   0.119
  465SOL    HW1 1858   0.118   2.480   0.206
  465SOL    HW2 1859   0.151   2.487   0.058
  465SOL     MW 1860   0.095   2.471   0.122
  466SOL     OW 1861   7.291  10.109   6.582
  466SOL    HW1 1862   7.292  10.091   6.676
  466SOL    HW2 1863   7.298  10.023   6.541
  466SOL     MW 1864   7.292  10.095   6.590
  467SOL     OW 1865   0.677   6.492   2.365
  467SOL    HW1 1866   0.677   6.488   2.460
  467SOL    HW2 1867   0.677   6.585   2.344
  467SOL     MW 1868   0.677   6.504   2.375
  468SOL     OW 1869   1.692   9.568   7.540
  468SOL    HW1 1870   1.638   9.622   7.481
  468SOL    HW2 1871   1.664   9.478   7.522
  468SOL     MW 1872   1.681   9.563   7.529
  469SOL     OW 1873   8.489   3.448   2.832
  469SOL    HW1 1874   8.522   3.364   2.800
  469SOL    HW2 1875   8.398   3.430   2.856
  469SOL     MW 1876   8.481   3.434   2.831
  470SOL     OW 1877   6.134   6.830   0.466
  470SOL    HW1 1878   6.226   6.856   0.467
  470SOL    HW2 1879   6.088   6.899   0.515
  470SOL     MW 1880   6.140   6.843   0.473
  471SOL     OW 1881   6.226   8.617   9.833
  471SOL    HW1 1882   6.156   8.606   9.769
  471SOL    HW2 1883   6.204   8.556   9.903
  471SOL     MW 1884   6.213   8.607   9.834
  472SOL     OW 1885   5.865   1.352   7.495
  472SOL    HW1 1886   5.874   1.415   7.567
  472SOL    HW2 1887   5.824   1.402   7.425
  472SOL     MW 1888   5.861   1.368   7.495
  473SOL     OW 1889   4.920  10.100   1.674
  473SOL    HW1 1890   4.899  10.139   1.590
  473SOL    HW2 1891   4.892  10.008   1.665
  473SOL     MW 1892   4.913  10.093   1.662
  474SOL     OW 1893   8.324   4.546   7.291
  474SOL    HW1 1894   8.309   4.493   7.370
  474SOL    HW2 1895   8.409   4.515   7.259
  474SOL     MW 1896   8.334   4.535   7.297
  475SOL     OW 1897   0.386   2.675   7.760
  475SOL    HW1 1898   0.305   2.702   7.803
  475SOL    HW2 1899   0.410   2.593   7.803
  475SOL     MW 1900   0.378   2.668   7.771
  476SOL     OW 1901   9.533   2.353   2.396
  476SOL    HW1 1902   9.569   2.312   2.475
  476SOL    HW2 1903   9.596   2.331   2.327
  476SOL     MW 1904   9.546   2.344   2.397
  477SOL     OW 1905   3.424   7.050   4.003
  477SOL    HW1 1906   3.516   7.074   3.990
  477SOL    HW2 1907   3.427   6.980   4.068
  477SOL     MW 1908   3.437   7.044   4.010
  478SOL     OW 1909   2.663   3.144   6.928
  478SOL    HW1 1910   2.624   3.095   6.856
  478SOL    HW2 1911   2.758   3.134   6.916
  478SOL     MW 1912   2.671   3.136   6.917
  479SOL     OW 1913   4.183   0.838  10.102
  479SOL    HW1 1914   4.233   0.791  10.035
  479SOL    HW2 1915   4.249   0.889  10.149
  479SOL     MW 1916   4.198   0.839  10.099
  480SOL     OW 1917   0.063   3.024   7.410
  480SOL    HW1 1918   0.120   2.960   7.369
  480SOL    HW2 1919  -0.026   2.997   7.386
  480SOL     MW 1920   0.058   3.012   7.401
  481SOL     OW 1921   1.454   4.187   7.403
  481SOL    HW1 1922   1.379   4.234   7.439
  481SOL    HW2 1923   1.418   4.142   7.326
  481SOL     MW 1924   1.439   4.187   7.397
  482SOL     OW 1925   3.349   6.508   5.465
  482SOL    HW1 1926   3.272   6.496   5.410
  482SOL    HW2 1927   3.323   6.473   5.550
  482SOL     MW 1928   3.335   6.502   5.469
  483SOL     OW 1929   0.702   9.260   0.363
  483SOL    HW1 1930   0.743   9.254   0.277
  483SOL    HW2 1931   0.774   9.277   0.423
  483SOL     MW 1932   0.717   9.262   0.359
  484SOL     OW 1933   7.805   8.792   3.040
  484SOL    HW1 1934   7.894   8.811   3.009
  484SOL    HW2 1935   7.817   8.753   3.126
  484SOL     MW 1936   7.819   8.789   3.047
  485SOL     OW 1937   3.252   3.890   1.406
  485SOL    HW1 1938   3.327   3.950   1.403
  485SOL    HW2 1939   3.187   3.930   1.348
  485SOL     MW 1940   3.253   3.904   1.398
  486SOL     OW 1941   2.034   3.090   5.372
  486SOL    HW1 1942   1.969   3.057   5.310
  486SOL    HW2 1943   2.103   3.023   5.373
  486SOL     MW 1944   2.035   3.077   5.364
  487SOL     OW 1945   3.314   8.703   8.544
  487SOL    HW1 1946   3.352   8.615   8.537
  487SOL    HW2 1947   3.317   8.723   8.637
  487SOL     MW 1948   3.320   8.694   8.555
  488SOL     OW 1949   4.426   1.708   8.562
  488SOL    HW1 1950   4.370   1.783   8.583
  488SOL    HW2 1951   4.384   1.666   8.487
  488SOL     MW 1952   4.413   1.712   8.555
  489SOL     OW 1953   2.941   0.168   5.705
  489SOL    HW1 1954   2.907   0.255   5.727
  489SOL    HW2 1955   2.875   0.130   5.646
  489SOL     MW 1956   2.927   0.175   5.700
  490SOL     OW 1957   6.501   5.980   4.997
  490SOL    HW1 1958   6.413   5.999   5.030
  490SOL    HW2 1959   6.539   6.066   4.979
  490SOL     MW 1960   6.494   5.994   4.999
  491SOL     OW 1961   7.083   6.682   3.756
  491SOL    HW1 1962   7.140   6.753   3.728
  491SOL    HW2 1963   7.006   6.689   3.700
  491SOL     MW 1964   7.081   6.692   3.745
  492SOL     OW 1965   0.131   0.655   1.360
  492SOL    HW1 1966   0.206   0.692   1.407
  492SOL    HW2 1967   0.072   0.730   1.347
  492SOL     MW 1968   0.133   0.670   1.364
  493SOL     OW 1969   9.221   7.457   8.804
  493SOL    HW1 1970   9.186   7.467   8.716
  493SOL    HW2 1971   9.149   7.419   8.855
  493SOL     MW 1972   9.207   7.453   8.799
  494SOL     OW 1973   5.966   1.021   1.978
  494SOL    HW1 1974   5.964   1.073   2.059
  494SOL    HW2 1975   6.039   0.961   1.990
  494SOL     MW 1976   5.975   1.020   1.991
  495SOL     OW 1977   1.859   5.227   3.666
  495SOL    HW1 1978   1.836   5.138   3.694
  495SOL    HW2 1979   1.917   5.259   3.734
  495SOL     MW 1980   1.864   5.219   3.679
  496SOL     OW 1981   2.980   0.404   6.307
  496SOL    HW1 1982   2.928   0.457   6.368
  496SOL    HW2 1983   3.009   0.329   6.359
  496SOL     MW 1984   2.977   0.401   6.322
  497SOL     OW 1985   2.255   4.069   0.727
  497SOL    HW1 1986   2.168   4.029   0.729
  497SOL    HW2 1987   2.315   3.996   0.739
  497SOL     MW 1988   2.251   4.054   0.729
  498SOL     OW 1989   5.945   3.404   8.524
  498SOL    HW1 1990   5.865   3.357   8.499
  498SOL    HW2 1991   5.913   3.477   8.577
  498SOL     MW 1992   5.930   3.407   8.528
  499SOL     OW 1993   3.820   1.677   5.386
  499SOL    HW1 1994   3.847   1.652   5.297
  499SOL    HW2 1995   3.814   1.773   5.382
  499SOL     MW 1996   3.823   1.687   5.373
  500SOL     OW 1997   0.552   6.056   8.859
  500SOL    HW1 1998   0.611   6.030   8.788
  500SOL    HW2 1999   0.474   6.088   8.814
  500SOL     MW 2000   0.549   6.057   8.843
  501SOL     OW 2001   4.635   9.501   8.241
  501SOL    HW1 2002   4.616   9.556   8.317
  501SOL    HW2 2003   4.628   9.560   8.166
  501SOL     MW 2004   4.632   9.516   8.241
  502SOL     OW 2005   9.002   5.932   1.677
  502SOL    HW1 2006   9.049   5.984   1.742
  502SOL    HW2 2007   9.069   5.907   1.614
  502SOL     MW 2008   9.017   5.936   1.677
  503SOL     OW 2009   1.048   2.706   4.673
  503SOL    HW1 2010   1.014   2.674   4.589
  503SOL    HW2 2011   1.062   2.627   4.725
  503SOL     MW 2012   1.046   2.691   4.668
  504SOL     OW 2013   0.009   6.635   0.085
  504SOL    HW1 2014   0.036   6.554   0.043
  504SOL    HW2 2015   0.079   6.697   0.065
  504SOL     MW 2016   0.022   6.633   0.076
  505SOL     OW 2017   4.245   6.654   6.921
  505SOL    HW1 2018   4.245   6.748   6.901
  505SOL    HW2 2019   4.336   6.634   6.942
  505SOL     MW 2020   4.257   6.664   6.921
  506SOL     OW 2021   1.527   0.940   4.418
  506SOL    HW1 2022   1.434   0.960   4.425
  506SOL    HW2 2023   1.536   0.897   4.333
  506SOL     MW 2024   1.516   0.937   4.408
  507SOL     OW 2025   2.264   7.281   5.664
  507SOL    HW1 2026   2.261   7.309   5.572
  507SOL    HW2 2027   2.314   7.349   5.708
  507SOL     MW 2028   2.271   7.294   5.657
  508SOL     OW 2029   8.129   0.590  10.108
  508SOL    HW1 2030   8.184   0.664  10.136
  508SOL    HW2 2031   8.084   0.622  10.030
  508SOL     MW 2032   8.130   0.604  10.102
  509SOL     OW 2033   4.520   8.474   0.609
  509SOL    HW1 2034   4.603   8.440   0.643
  509SOL    HW2 2035   4.527   8.569   0.622
  509SOL     MW 2036   4.532   8.483   0.615
  510SOL     OW 2037   2.650   2.173   7.724
  510SOL    HW1 2038   2.689   2.172   7.636
  510SOL    HW2 2039   2.720   2.142   7.782
  510SOL     MW 2040   2.664   2.169   7.720
  511SOL     OW 2041   6.799   9.230   2.769
  511SOL    HW1 2042   6.791   9.197   2.859
  511SOL    HW2 2043   6.868   9.297   2.775
  511SOL     MW 2044   6.807   9.235   2.782
  512SOL     OW 2045   3.535   8.844   5.403
  512SOL    HW1 2046   3.566   8.899   5.475
  512SOL    HW2 2047   3.604   8.779   5.392
  512SOL     MW 2048   3.549   8.843   5.411
  513SOL     OW 2049   8.268   6.966   2.678
  513SOL    HW1 2050   8.315   7.020   2.742
  513SOL    HW2 2051   8.240   7.027   2.610
  513SOL     MW 2052   8.270   6.981   2.678
  514SOL     OW 2053   9.872   4.740   9.735
  514SOL    HW1 2054   9.955   4.700   9.761
  514SOL    HW2 2055   9.809   4.706   9.799
  514SOL     MW 2056   9.874   4.730   9.747
  515SOL     OW 2057   3.623   8.572   7.506
  515SOL    HW1 2058   3.618   8.649   7.563
  515SOL    HW2 2059   3.550   8.516   7.534
  515SOL     MW 2060   3.612   8.575   7.518
  516SOL     OW 2061   7.657   3.941   4.259
  516SOL    HW1 2062   7.578   3.902   4.295
  516SOL    HW2 2063   7.723   3.872   4.267
  516SOL     MW 2064   7.656   3.926   4.265
  517SOL     OW 2065   1.596   3.040   6.161
  517SOL    HW1 2066   1.501   3.032   6.168
  517SOL    HW2 2067   1.630   2.981   6.228
  517SOL     MW 2068   1.588   3.031   6.171
  518SOL     OW 2069   9.226   6.794   7.516
  518SOL    HW1 2070   9.144   6.816   7.472
  518SOL    HW2 2071   9.221   6.839   7.600
  518SOL     MW 2072   9.214   6.803   7.521
  519SOL     OW 2073   6.432   3.940   2.723
  519SOL    HW1 2074   6.404   3.858   2.683
  519SOL    HW2 2075   6.514   3.920   2.767
  519SOL     MW 2076   6.439   3.926   2.724
  520SOL     OW 2077   2.390   2.078   7.717
  520SOL    HW1 2078   2.483   2.102   7.717
  520SOL    HW2 2079   2.362   2.090   7.808
  520SOL     MW 2080   2.399   2.083   7.729
  521SOL     OW 2081   1.086   2.025   6.130
  521SOL    HW1 2082   1.022   2.067   6.074
  521SOL    HW2 2083   1.140   1.973   6.070
  521SOL     MW 2084   1.085   2.024   6.114
  522SOL     OW 2085   4.438   7.745   5.156
  522SOL    HW1 2086   4.443   7.815   5.092
  522SOL    HW2 2087   4.482   7.781   5.234
  522SOL     MW 2088   4.445   7.759   5.158
  523SOL     OW 2089   5.625   3.589   5.423
  523SOL    HW1 2090   5.574   3.647   5.480
  523SOL    HW2 2091   5.664   3.525   5.482
  523SOL     MW 2092   5.624   3.588   5.438
  524SOL     OW 2093   0.914   7.957   2.705
  524SOL    HW1 2094   0.841   7.934   2.647
  524SOL    HW2 2095   0.972   7.881   2.701
  524SOL     MW 2096   0.912   7.943   2.696
  525SOL     OW 2097   9.137   1.616   0.339
  525SOL    HW1 2098   9.064   1.636   0.280
  525SOL    HW2 2099   9.215   1.640   0.289
  525SOL     MW 2100   9.137   1.622   0.324
  526SOL     OW 2101   4.138   4.247   9.569
  526SOL    HW1 2102   4.232   4.242   9.585
  526SOL    HW2 2103   4.104   4.301   9.639
  526SOL     MW 2104   4.146   4.253   9.581
  527SOL     OW 2105   3.408   0.254   5.609
  527SOL    HW1 2106   3.331   0.290   5.652
  527SOL    HW2 2107   3.413   0.164   5.641
  527SOL     MW 2108   3.399   0.247   5.619
  528SOL     OW 2109   9.480   0.093   1.861
  528SOL    HW1 2110   9.464   0.122   1.771
  528SOL    HW2 2111   9.540   0.159   1.897
  528SOL     MW 2112   9.486   0.106   1.854
  529SOL     OW 2113   2.468   8.972   7.673
  529SOL    HW1 2114   2.450   9.065   7.687
  529SOL    HW2 2115   2.495   8.967   7.581
  529SOL     MW 2116   2.469   8.984   7.662
  530SOL     OW 2117   5.271   8.693   2.632
  530SOL    HW1 2118   5.268   8.742   2.715
  530SOL    HW2 2119   5.278   8.601   2.659
  530SOL     MW 2120   5.272   8.687   2.647
  531SOL     OW 2121   0.812   3.813   3.027
  531SOL    HW1 2122   0.851   3.727   3.013
  531SOL    HW2 2123   0.776   3.809   3.116
  531SOL     MW 2124   0.813   3.801   3.037
  532SOL     OW 2125   5.543   0.350   0.475
  532SOL    HW1 2126   5.486   0.278   0.448
  532SOL    HW2 2127   5.510   0.375   0.562
  532SOL     MW 2128   5.531   0.344   0.483
  533SOL     OW 2129   2.539   9.066   3.239
  533SOL    HW1 2130   2.499   9.143   3.198
  533SOL    HW2 2131   2.465   9.013   3.268
  533SOL     MW 2132   2.524   9.069   3.237
  534SOL     OW 2133   5.488   7.958   1.744
  534SOL    HW1 2134   5.520   7.972   1.833
  534SOL    HW2 2135   5.561   7.916   1.698
  534SOL     MW 2136   5.502   7.954   1.750
  535SOL     OW 2137   9.334   5.107   6.275
  535SOL    HW1 2138   9.240   5.088   6.279
  535SOL    HW2 2139   9.363   5.064   6.194
  535SOL     MW 2140   9.325   5.099   6.264
  536SOL     OW 2141   3.981   6.577   7.676
  536SOL    HW1 2142   3.934   6.632   7.614
  536SOL    HW2 2143   3.913   6.548   7.738
  536SOL     MW 2144   3.965   6.580   7.676
  537SOL     OW 2145   9.927   7.431   5.680
  537SOL    HW1 2146   9.985   7.357   5.694
  537SOL    HW2 2147   9.982   7.499   5.641
  537SOL     MW 2148   9.942   7.431   5.677
  538SOL     OW 2149   0.981   7.984   6.611
  538SOL    HW1 2150   1.019   8.072   6.600
  538SOL    HW2 2151   0.921   7.993   6.685
  538SOL     MW 2152   0.978   7.997   6.619
  539SOL     OW 2153   4.808   3.703   7.343
  539SOL    HW1 2154   4.857   3.671   7.267
  539SOL    HW2 2155   4.862   3.680   7.418
  539SOL     MW 2156   4.822   3.695   7.343
  540SOL     OW 2157   9.200   7.344   2.335
  540SOL    HW1 2158   9.206   7.439   2.345
  540SOL    HW2 2159   9.272   7.321   2.276
  540SOL     MW 2160   9.210   7.354   2.329
  541SOL     OW 2161   0.714   8.561   3.821
  541SOL    HW1 2162   0.741   8.603   3.739
  541SOL    HW2 2163   0.618   8.555   3.814
  541SOL     MW 2164   0.705   8.566   3.809
  542SOL     OW 2165   4.152   0.113   5.931
  542SOL    HW1 2166   4.130   0.113   6.024
  542SOL    HW2 2167   4.142   0.204   5.904
  542SOL     MW 2168   4.148   0.125   5.940
  543SOL     OW 2169   6.891   3.522   3.757
  543SOL    HW1 2170   6.850   3.482   3.680
  543SOL    HW2 2171   6.977   3.482   3.763
  543SOL     MW 2172   6.897   3.511   3.747
  544SOL     OW 2173   0.451   2.435   7.888
  544SOL    HW1 2174   0.503   2.371   7.840
  544SOL    HW2 2175   0.430   2.391   7.971
  544SOL     MW 2176   0.455   2.420   7.893
  545SOL     OW 2177   9.085   9.993   1.856
  545SOL    HW1 2178   9.027  10.051   1.906
  545SOL    HW2 2179   9.031   9.960   1.785
  545SOL     MW 2180   9.070   9.996   1.853
  546SOL     OW 2181   5.129   3.405   7.255
  546SOL    HW1 2182   5.077   3.477   7.217
  546SOL    HW2 2183   5.214   3.445   7.274
  546SOL     MW 2184   5.133   3.420   7.252
  547SOL     OW 2185   9.230   8.410   6.127
  547SOL    HW1 2186   9.278   8.450   6.054
  547SOL    HW2 2187   9.137   8.422   6.104
  547SOL     MW 2188   9.224   8.417   6.114
  548SOL     OW 2189   1.874   4.661   8.180
  548SOL    HW1 2190   1.894   4.701   8.095
  548SOL    HW2 2191   1.866   4.567   8.161
  548SOL     MW 2192   1.875   4.654   8.166
  549SOL     OW 2193   9.802   7.473   5.433
  549SOL    HW1 2194   9.831   7.454   5.522
  549SOL    HW2 2195   9.776   7.388   5.397
  549SOL     MW 2196   9.803   7.459   5.440
  550SOL     OW 2197   9.418   0.589   6.218
  550SOL    HW1 2198   9.483   0.570   6.151
  550SOL    HW2 2199   9.423   0.684   6.230
  550SOL     MW 2200   9.427   0.599   6.211
  551SOL     OW 2201   2.009   1.758   6.502
  551SOL    HW1 2202   2.031   1.738   6.593
  551SOL    HW2 2203   2.077   1.820   6.474
  551SOL     MW 2204   2.021   1.764   6.510
  552SOL     OW 2205   5.460   3.329   8.014
  552SOL    HW1 2206   5.442   3.303   7.923
  552SOL    HW2 2207   5.375   3.358   8.047
  552SOL     MW 2208   5.446   3.329   8.006
  553SOL     OW 2209   5.279   5.755   9.765
  553SOL    HW1 2210   5.292   5.838   9.811
  553SOL    HW2 2211   5.348   5.698   9.798
  553SOL     MW 2212   5.290   5.759   9.776
  554SOL     OW 2213   4.754   5.858   3.533
  554SOL    HW1 2214   4.705   5.870   3.614
  554SOL    HW2 2215   4.687   5.835   3.468
  554SOL     MW 2216   4.738   5.856   3.535
  555SOL     OW 2217   8.100   2.070   5.589
  555SOL    HW1 2218   8.184   2.108   5.567
  555SOL    HW2 2219   8.041   2.145   5.598
  555SOL     MW 2220   8.103   2.085   5.587
  556SOL     OW 2221   6.148   3.117   1.473
  556SOL    HW1 2222   6.172   3.071   1.553
  556SOL    HW2 2223   6.104   3.051   1.419
  556SOL     MW 2224   6.145   3.102   1.476
  557SOL     OW 2225   8.611   1.141   5.364
  557SOL    HW1 2226   8.582   1.226   5.333
  557SOL    HW2 2227   8.649   1.098   5.287
  557SOL     MW 2228   8.613   1.146   5.350
  558SOL     OW 2229   1.866   2.563   9.033
  558SOL    HW1 2230   1.849   2.471   9.014
  558SOL    HW2 2231   1.933   2.589   8.969
  558SOL     MW 2232   1.873   2.554   9.022
  559SOL     OW 2233   4.650   2.036   6.438
  559SOL    HW1 2234   4.729   2.010   6.392
  559SOL    HW2 2235   4.681   2.091   6.511
  559SOL     MW 2236   4.664   2.040   6.442
  560SOL     OW 2237   0.625   0.754   2.912
  560SOL    HW1 2238   0.537   0.790   2.896
  560SOL    HW2 2239   0.613   0.659   2.912
  560SOL     MW 2240   0.612   0.746   2.910
  561SOL     OW 2241   9.817   6.120   1.550
  561SOL    HW1 2242   9.723   6.106   1.560
  561SOL    HW2 2243   9.835   6.198   1.603
  561SOL     MW 2244   9.807   6.128   1.559
  562SOL     OW 2245   3.770   6.451   7.818
  562SOL    HW1 2246   3.731   6.454   7.731
  562SOL    HW2 2247   3.814   6.366   7.821
  562SOL     MW 2248   3.771   6.440   7.806
  563SOL     OW 2249   0.411   9.507   9.654
  563SOL    HW1 2250   0.398   9.427   9.705
  563SOL    HW2 2251   0.491   9.492   9.604
  563SOL     MW 2252   0.420   9.495   9.654
  564SOL     OW 2253   3.336   2.404   0.084
  564SOL    HW1 2254   3.410   2.446   0.041
  564SOL    HW2 2255   3.351   2.420   0.177
  564SOL     MW 2256   3.348   2.412   0.091
  565SOL     OW 2257   8.365   7.866  10.018
  565SOL    HW1 2258   8.433   7.869   9.951
  565SOL    HW2 2259   8.313   7.945  10.003
  565SOL     MW 2260   8.367   7.877  10.007
  566SOL     OW 2261   2.109   1.769   0.258
  566SOL    HW1 2262   2.049   1.843   0.255
  566SOL    HW2 2263   2.194   1.806   0.232
  566SOL     MW 2264   2.113   1.784   0.254
  567SOL     OW 2265   9.581   1.829   2.160
  567SOL    HW1 2266   9.648   1.775   2.118
  567SOL    HW2 2267   9.530   1.768   2.213
  567SOL     MW 2268   9.583   1.813   2.162
  568SOL     OW 2269   3.782   3.095   1.100
  568SOL    HW1 2270   3.785   3.096   1.196
  568SOL    HW2 2271   3.808   3.184   1.075
  568SOL     MW 2272   3.786   3.108   1.110
  569SOL     OW 2273   7.800   6.918   8.632
  569SOL    HW1 2274   7.800   6.937   8.725
  569SOL    HW2 2275   7.728   6.970   8.596
  569SOL     MW 2276   7.790   6.927   8.640
  570SOL     OW 2277   2.614   7.779   3.263
  570SOL    HW1 2278   2.667   7.857   3.277
  570SOL    HW2 2279   2.668   7.722   3.208
  570SOL     MW 2280   2.628   7.782   3.257
  571SOL     OW 2281   7.259   9.299   8.929
  571SOL    HW1 2282   7.245   9.386   8.892
  571SOL    HW2 2283   7.348   9.302   8.964
  571SOL     MW 2284   7.269   9.311   8.929
  572SOL     OW 2285   9.433   9.692   3.719
  572SOL    HW1 2286   9.375   9.697   3.643
  572SOL    HW2 2287   9.463   9.782   3.732
  572SOL     MW 2288   9.429   9.705   3.710
  573SOL     OW 2289   1.186   6.830   2.099
  573SOL    HW1 2290   1.139   6.786   2.170
  573SOL    HW2 2291   1.222   6.758   2.047
  573SOL     MW 2292   1.185   6.814   2.102
  574SOL     OW 2293   9.019   0.578   7.662
  574SOL    HW1 2294   8.961   0.588   7.587
  574SOL    HW2 2295   9.059   0.491   7.650
  574SOL     MW 2296   9.017   0.568   7.651
  575SOL     OW 2297   9.645   5.048   9.229
  575SOL    HW1 2298   9.676   5.068   9.141
  575SOL    HW2 2299   9.720   5.008   9.273
  575SOL     MW 2300   9.659   5.046   9.223
  576SOL     OW 2301   1.045   5.171   3.630
  576SOL    HW1 2302   0.972   5.227   3.601
  576SOL    HW2 2303   1.116   5.233   3.647
  576SOL     MW 2304   1.045   5.187   3.628
  577SOL     OW 2305   7.983   5.762   6.933
  577SOL    HW1 2306   7.948   5.760   6.843
  577SOL    HW2 2307   7.982   5.854   6.957
  577SOL     MW 2308   7.978   5.774   6.924
  578SOL     OW 2309   9.293   7.821   1.041
  578SOL    HW1 2310   9.257   7.902   1.077
  578SOL    HW2 2311   9.253   7.751   1.094
  578SOL     MW 2312   9.283   7.822   1.053
  579SOL     OW 2313   4.905   8.675   4.305
  579SOL    HW1 2314   4.978   8.708   4.357
  579SOL    HW2 2315   4.944   8.607   4.249
  579SOL     MW 2316   4.920   8.670   4.305
  580SOL     OW 2317   1.253   4.863   4.895
  580SOL    HW1 2318   1.179   4.844   4.952
  580SOL    HW2 2319   1.269   4.957   4.907
  580SOL     MW 2320   1.245   4.873   4.904
  581SOL     OW 2321   5.994   7.703   5.301
  581SOL    HW1 2322   6.059   7.772   5.316
  581SOL    HW2 2323   5.967   7.716   5.210
  581SOL     MW 2324   5.999   7.714   5.291
  582SOL     OW 2325   6.850   2.181   3.795
  582SOL    HW1 2326   6.806   2.216   3.872
  582SOL    HW2 2327   6.872   2.258   3.742
  582SOL     MW 2328   6.847   2.196   3.798
  583SOL     OW 2329   8.764   7.934   7.243
  583SOL    HW1 2330   8.807   7.849   7.248
  583SOL    HW2 2331   8.816   7.984   7.180
  583SOL     MW 2332   8.777   7.929   7.235
  584SOL     OW 2333   7.996   0.691   9.884
  584SOL    HW1 2334   8.029   0.752   9.818
  584SOL    HW2 2335   7.901   0.700   9.878
  584SOL     MW 2336   7.988   0.700   9.874
  585SOL     OW 2337   8.619   2.454   4.229
  585SOL    HW1 2338   8.629   2.376   4.283
  585SOL    HW2 2339   8.707   2.492   4.226
  585SOL     MW 2340   8.632   2.448   4.236
  586SOL     OW 2341   8.369   6.461   0.648
  586SOL    HW1 2342   8.305   6.498   0.708
  586SOL    HW2 2343   8.332   6.378   0.620
  586SOL     MW 2344   8.356   6.455   0.652
  587SOL     OW 2345   0.870   8.944   5.069
  587SOL    HW1 2346   0.779   8.934   5.041
  587SOL    HW2 2347   0.865   8.951   5.165
  587SOL     MW 2348   0.857   8.944   5.078
  588SOL     OW 2349   9.369   7.431   1.154
  588SOL    HW1 2350   9.440   7.409   1.213
  588SOL    HW2 2351   9.410   7.442   1.069
  588SOL     MW 2352   9.384   7.430   1.151
  589SOL     OW 2353   9.222   5.880   1.508
  589SOL    HW1 2354   9.244   5.966   1.475
  589SOL    HW2 2355   9.209   5.826   1.430
  589SOL     MW 2356   9.223   5.884   1.493
  590SOL     OW 2357   9.310   2.620   5.368
  590SOL    HW1 2358   9.347   2.665   5.444
  590SOL    HW2 2359   9.235   2.673   5.343
  590SOL     MW 2360   9.305   2.633   5.375
  591SOL     OW 2361   7.224   6.443   3.780
  591SOL    HW1 2362   7.264   6.441   3.867
  591SOL    HW2 2363   7.172   6.523   3.779
  591SOL     MW 2364   7.222   6.453   3.791
  592SOL     OW 2365   3.997   3.650   5.343
  592SOL    HW1 2366   3.996   3.602   5.260
  592SOL    HW2 2367   4.087   3.643   5.373
  592SOL     MW 2368   4.009   3.643   5.336
  593SOL     OW 2369   3.402   9.890   2.678
  593SOL    HW1 2370   3.463   9.825   2.644
  593SOL    HW2 2371   3.320   9.842   2.689
  593SOL     MW 2372   3.399   9.875   2.675
  594SOL     OW 2373   7.925   0.833   3.601
  594SOL    HW1 2374   7.951   0.781   3.525
  594SOL    HW2 2375   7.953   0.922   3.579
  594SOL     MW 2376   7.932   0.838   3.588
  595SOL     OW 2377   7.984   1.358   6.690
  595SOL    HW1 2378   7.904   1.320   6.653
  595SOL    HW2 2379   8.007   1.299   6.762
  595SOL     MW 2380   7.977   1.345   6.695
  596SOL     OW 2381   6.388   5.743   8.102
  596SOL    HW1 2382   6.297   5.723   8.124
  596SOL    HW2 2383   6.436   5.662   8.120
  596SOL     MW 2384   6.382   5.730   8.108
  597SOL     OW 2385   7.753   4.527   9.476
  597SOL    HW1 2386   7.678   4.573   9.512
  597SOL    HW2 2387   7.790   4.588   9.411
  597SOL     MW 2388   7.748   4.542   9.472
  598SOL     OW 2389   9.033   0.173   4.963
  598SOL    HW1 2390   8.951   0.129   4.939
  598SOL    HW2 2391   9.005   0.248   5.015
  598SOL     MW 2392   9.018   0.177   4.967
  599SOL     OW 2393   5.906   4.759   6.455
  599SOL    HW1 2394   5.863   4.749   6.540
  599SOL    HW2 2395   5.996   4.729   6.471
  599SOL     MW 2396   5.912   4.754   6.469
  600SOL     OW 2397   5.470   1.793   0.956
  600SOL    HW1 2398   5.501   1.883   0.950
  600SOL    HW2 2399   5.544   1.740   0.925
  600SOL     MW 2400   5.484   1.798   0.951
  601SOL     OW 2401   7.934   5.118   1.136
  601SOL    HW1 2402   8.007   5.111   1.074
  601SOL    HW2 2403   7.870   5.172   1.091
  601SOL     MW 2404   7.935   5.124   1.122
  602SOL     OW 2405   1.800   4.589   9.645
  602SOL    HW1 2406   1.779   4.616   9.734
  602SOL    HW2 2407   1.851   4.508   9.655
  602SOL     MW 2408   1.804   4.581   9.658
  603SOL     OW 2409   8.475   3.417   1.181
  603SOL    HW1 2410   8.412   3.394   1.112
  603SOL    HW2 2411   8.556   3.435   1.134
  603SOL     MW 2412   8.477   3.416   1.165
  604SOL     OW 2413   9.140   0.990   4.807
  604SOL    HW1 2414   9.121   0.903   4.775
  604SOL    HW2 2415   9.082   1.002   4.882
  604SOL     MW 2416   9.130   0.980   4.813
  605SOL     OW 2417   1.191   9.767   7.158
  605SOL    HW1 2418   1.218   9.856   7.183
  605SOL    HW2 2419   1.099   9.776   7.133
  605SOL     MW 2420   1.182   9.780   7.158
  606SOL     OW 2421   3.426   8.872   8.339
  606SOL    HW1 2422   3.342   8.856   8.295
  606SOL    HW2 2423   3.418   8.826   8.422
  606SOL     MW 2424   3.413   8.864   8.344
  607SOL     OW 2425   8.082   4.643   1.857
  607SOL    HW1 2426   8.117   4.696   1.929
  607SOL    HW2 2427   8.127   4.675   1.779
  607SOL     MW 2428   8.092   4.654   1.856
  608SOL     OW 2429   9.877   0.342   0.324
  608SOL    HW1 2430   9.823   0.391   0.386
  608SOL    HW2 2431   9.830   0.348   0.241
  608SOL     MW 2432   9.863   0.350   0.321
  609SOL     OW 2433   3.405   6.977   4.728
  609SOL    HW1 2434   3.453   7.033   4.669
  609SOL    HW2 2435   3.313   6.995   4.709
  609SOL     MW 2436   3.399   6.987   4.718
  610SOL     OW 2437   1.352   0.618   1.266
  610SOL    HW1 2438   1.298   0.683   1.221
  610SOL    HW2 2439   1.407   0.581   1.197
  610SOL     MW 2440   1.352   0.622   1.251
  611SOL     OW 2441   0.132   7.712   3.703
  611SOL    HW1 2442   0.134   7.646   3.772
  611SOL    HW2 2443   0.095   7.790   3.745
  611SOL     MW 2444   0.127   7.714   3.718
  612SOL     OW 2445   1.254   1.723   4.192
  612SOL    HW1 2446   1.308   1.661   4.143
  612SOL    HW2 2447   1.259   1.692   4.283
  612SOL     MW 2448   1.262   1.710   4.198
  613SOL     OW 2449   9.146   0.348   3.589
  613SOL    HW1 2450   9.070   0.404   3.575
  613SOL    HW2 2451   9.119   0.262   3.556
  613SOL     MW 2452   9.132   0.344   3.583
  614SOL     OW 2453   6.990   2.661   8.882
  614SOL    HW1 2454   7.051   2.589   8.867
  614SOL    HW2 2455   7.045   2.733   8.914
  614SOL     MW 2456   7.006   2.661   8.884
  615SOL     OW 2457   5.558   9.956   2.515
  615SOL    HW1 2458   5.648   9.938   2.542
  615SOL    HW2 2459   5.531  10.029   2.570
  615SOL     MW 2460   5.567   9.963   2.526
  616SOL     OW 2461   3.813   5.369   4.615
  616SOL    HW1 2462   3.834   5.313   4.540
  616SOL    HW2 2463   3.765   5.312   4.675
  616SOL     MW 2464   3.810   5.354   4.613
  617SOL     OW 2465   0.082   8.810   8.263
  617SOL    HW1 2466   0.029   8.836   8.188
  617SOL    HW2 2467   0.020   8.767   8.322
  617SOL     MW 2468   0.066   8.808   8.261
  618SOL     OW 2469   8.146   5.268   5.652
  618SOL    HW1 2470   8.079   5.199   5.649
  618SOL    HW2 2471   8.115   5.327   5.721
  618SOL     MW 2472   8.133   5.267   5.661
  619SOL     OW 2473   7.195   3.466   8.474
  619SOL    HW1 2474   7.139   3.463   8.396
  619SOL    HW2 2475   7.187   3.379   8.511
  619SOL     MW 2476   7.186   3.454   8.468
  620SOL     OW 2477  10.112   0.025   5.253
  620SOL    HW1 2478  10.146  -0.063   5.239
  620SOL    HW2 2479  10.163   0.059   5.327
  620SOL     MW 2480  10.123   0.018   5.261
  621SOL     OW 2481   3.419   0.144   7.319
  621SOL    HW1 2482   3.324   0.147   7.316
  621SOL    HW2 2483   3.440   0.052   7.331
  621SOL     MW 2484   3.409   0.132   7.320
  622SOL     OW 2485   1.888   1.862   2.273
  622SOL    HW1 2486   1.843   1.924   2.331
  622SOL    HW2 2487   1.820   1.832   2.213
  622SOL     MW 2488   1.873   1.867   2.273
  623SOL     OW 2489   8.390   0.065   7.630
  623SOL    HW1 2490   8.374   0.052   7.537
  623SOL    HW2 2491   8.483   0.045   7.641
  623SOL     MW 2492   8.400   0.060   7.619
  624SOL     OW 2493   7.937   5.267   9.219
  624SOL    HW1 2494   8.012   5.226   9.176
  624SOL    HW2 2495   7.903   5.329   9.154
  624SOL     MW 2496   7.942   5.270   9.204
  625SOL     OW 2497   0.129   7.189   4.184
  625SOL    HW1 2498   0.177   7.249   4.241
  625SOL    HW2 2499   0.169   7.103   4.200
  625SOL     MW 2500   0.141   7.185   4.194
  626SOL     OW 2501   8.278   4.676   0.914
  626SOL    HW1 2502   8.231   4.635   0.987
  626SOL    HW2 2503   8.333   4.606   0.878
  626SOL     MW 2504   8.279   4.661   0.919
  627SOL     OW 2505   5.909   0.947   7.429
  627SOL    HW1 2506   5.864   0.908   7.354
  627SOL    HW2 2507   5.948   1.027   7.395
  627SOL     MW 2508   5.908   0.952   7.414
  628SOL     OW 2509   0.828   1.209   5.165
  628SOL    HW1 2510   0.812   1.183   5.256
  628SOL    HW2 2511   0.923   1.207   5.155
  628SOL     MW 2512   0.839   1.205   5.176
  629SOL     OW 2513   6.207   5.687   6.860
  629SOL    HW1 2514   6.139   5.741   6.899
  629SOL    HW2 2515   6.284   5.700   6.915
  629SOL     MW 2516   6.208   5.696   6.873
  630SOL     OW 2517   1.823   0.266   4.738
  630SOL    HW1 2518   1.806   0.325   4.812
  630SOL    HW2 2519   1.917   0.246   4.745
  630SOL     MW 2520   1.834   0.271   4.749
  631SOL     OW 2521   2.605   3.397   9.827
  631SOL    HW1 2522   2.635   3.486   9.843
  631SOL    HW2 2523   2.522   3.391   9.873
  631SOL     MW 2524   2.598   3.408   9.835
  632SOL     OW 2525   6.825   2.737   0.594
  632SOL    HW1 2526   6.764   2.736   0.521
  632SOL    HW2 2527   6.792   2.805   0.653
  632SOL     MW 2528   6.812   2.746   0.592
  633SOL     OW 2529   6.618   1.082   8.349
  633SOL    HW1 2530   6.709   1.075   8.320
  633SOL    HW2 2531   6.621   1.141   8.424
  633SOL     MW 2532   6.631   1.089   8.355
  634SOL     OW 2533   4.687   8.536   6.443
  634SOL    HW1 2534   4.629   8.467   6.411
  634SOL    HW2 2535   4.630   8.596   6.490
  634SOL     MW 2536   4.672   8.535   6.445
  635SOL     OW 2537   5.632   4.704   6.407
  635SOL    HW1 2538   5.722   4.722   6.381
  635SOL    HW2 2539   5.637   4.693   6.502
  635SOL     MW 2540   5.645   4.705   6.416
  636SOL     OW 2541   5.154   8.856   2.215
  636SOL    HW1 2542   5.105   8.837   2.135
  636SOL    HW2 2543   5.203   8.936   2.194
  636SOL     MW 2544   5.154   8.865   2.201
  637SOL     OW 2545   2.508   1.759   3.389
  637SOL    HW1 2546   2.465   1.689   3.340
  637SOL    HW2 2547   2.601   1.741   3.382
  637SOL     MW 2548   2.515   1.747   3.381
  638SOL     OW 2549   4.927   0.651   1.973
  638SOL    HW1 2550   4.916   0.568   2.019
  638SOL    HW2 2551   4.865   0.711   2.016
  638SOL     MW 2552   4.917   0.648   1.985
  639SOL     OW 2553  10.078   7.442   0.079
  639SOL    HW1 2554  10.111   7.355   0.058
  639SOL    HW2 2555  10.153   7.500   0.064
  639SOL     MW 2556  10.093   7.438   0.074
  640SOL     OW 2557   4.086   9.672   5.945
  640SOL    HW1 2558   4.173   9.651   5.979
  640SOL    HW2 2559   4.062   9.754   5.989
  640SOL     MW 2560   4.094   9.680   5.955
  641SOL     OW 2561   7.667   1.069   4.434
  641SOL    HW1 2562   7.667   1.165   4.427
  641SOL    HW2 2563   7.642   1.039   4.346
  641SOL     MW 2564   7.663   1.078   4.421
  642SOL     OW 2565   3.531   4.754   0.760
  642SOL    HW1 2566   3.604   4.809   0.788
  642SOL    HW2 2567   3.556   4.666   0.789
  642SOL     MW 2568   3.544   4.750   0.768
  643SOL     OW 2569   4.902   5.623   3.532
  643SOL    HW1 2570   4.853   5.705   3.533
  643SOL    HW2 2571   4.993   5.649   3.524
  643SOL     MW 2572   4.907   5.637   3.531
  644SOL     OW 2573   6.519   5.796   5.740
  644SOL    HW1 2574   6.605   5.836   5.721
  644SOL    HW2 2575   6.477   5.788   5.655
  644SOL     MW 2576   6.525   5.801   5.726
  645SOL     OW 2577   7.306   7.614  10.096
  645SOL    HW1 2578   7.297   7.621  10.191
  645SOL    HW2 2579   7.347   7.529  10.081
  645SOL     MW 2580   7.310   7.604  10.107
  646SOL     OW 2581   8.513   6.588   0.217
  646SOL    HW1 2582   8.582   6.653   0.231
  646SOL    HW2 2583   8.468   6.619   0.139
  646SOL     MW 2584   8.517   6.601   0.208
  647SOL     OW 2585   8.270   0.045   4.960
  647SOL    HW1 2586   8.184   0.015   4.930
  647SOL    HW2 2587   8.322   0.053   4.880
  647SOL     MW 2588   8.266   0.042   4.945
  648SOL     OW 2589   2.174   6.769   2.362
  648SOL    HW1 2590   2.226   6.778   2.282
  648SOL    HW2 2591   2.098   6.825   2.347
  648SOL     MW 2592   2.171   6.778   2.349
  649SOL     OW 2593   5.367   8.223   2.027
  649SOL    HW1 2594   5.348   8.293   2.089
  649SOL    HW2 2595   5.281   8.197   1.993
  649SOL     MW 2596   5.353   8.229   2.030
  650SOL     OW 2597   8.552   7.919   8.720
  650SOL    HW1 2598   8.597   7.939   8.638
  650SOL    HW2 2599   8.578   7.829   8.739
  650SOL     MW 2600   8.562   7.909   8.711
  651SOL     OW 2601   3.513   8.499   8.832
  651SOL    HW1 2602   3.469   8.415   8.834
  651SOL    HW2 2603   3.606   8.478   8.823
  651SOL     MW 2604   3.520   8.485   8.831
  652SOL     OW 2605   4.057   7.614   4.911
  652SOL    HW1 2606   4.128   7.606   4.975
  652SOL    HW2 2607   4.075   7.545   4.847
  652SOL     MW 2608   4.069   7.604   4.911
  653SOL     OW 2609   2.001  10.035   6.929
  653SOL    HW1 2610   1.928   9.980   6.902
  653SOL    HW2 2611   2.079   9.985   6.905
  653SOL     MW 2612   2.001  10.021   6.922
  654SOL     OW 2613   5.107   0.234   8.061
  654SOL    HW1 2614   5.143   0.182   8.133
  654SOL    HW2 2615   5.097   0.322   8.098
  654SOL     MW 2616   5.110   0.239   8.076
  655SOL     OW 2617   9.395   9.160   1.543
  655SOL    HW1 2618   9.361   9.165   1.454
  655SOL    HW2 2619   9.394   9.250   1.574
  655SOL     MW 2620   9.390   9.173   1.535
  656SOL     OW 2621   7.694   2.200   9.340
  656SOL    HW1 2622   7.655   2.286   9.355
  656SOL    HW2 2623   7.763   2.217   9.276
  656SOL     MW 2624   7.698   2.214   9.334
  657SOL     OW 2625   9.332   6.363   8.418
  657SOL    HW1 2626   9.255   6.358   8.475
  657SOL    HW2 2627   9.327   6.451   8.379
  657SOL     MW 2628   9.321   6.374   8.421
  658SOL     OW 2629   0.570   0.036   6.995
  658SOL    HW1 2630   0.525   0.057   6.914
  658SOL    HW2 2631   0.575  -0.059   6.996
  658SOL     MW 2632   0.565   0.026   6.984
  659SOL     OW 2633   3.515   2.611   6.566
  659SOL    HW1 2634   3.550   2.678   6.624
  659SOL    HW2 2635   3.588   2.551   6.551
  659SOL     MW 2636   3.529   2.612   6.572
  660SOL     OW 2637   1.171   2.556   7.209
  660SOL    HW1 2638   1.242   2.596   7.259
  660SOL    HW2 2639   1.098   2.618   7.219
  660SOL     MW 2640   1.171   2.570   7.217
  661SOL     OW 2641   9.276   5.414   3.017
  661SOL    HW1 2642   9.298   5.393   3.108
  661SOL    HW2 2643   9.209   5.350   2.993
  661SOL     MW 2644   9.270   5.403   3.026
  662SOL     OW 2645   3.122   2.046   8.583
  662SOL    HW1 2646   3.111   2.077   8.493
  662SOL    HW2 2647   3.215   2.061   8.601
  662SOL     MW 2648   3.133   2.052   8.573
  663SOL     OW 2649   7.938   4.922   0.812
  663SOL    HW1 2650   8.001   4.984   0.849
  663SOL    HW2 2651   7.864   4.925   0.873
  663SOL     MW 2652   7.936   4.931   0.825
  664SOL     OW 2653   5.708   2.460   2.779
  664SOL    HW1 2654   5.650   2.397   2.822
  664SOL    HW2 2655   5.720   2.425   2.690
  664SOL     MW 2656   5.701   2.447   2.772
  665SOL     OW 2657   1.843   3.905   9.875
  665SOL    HW1 2658   1.793   3.871   9.800
  665SOL    HW2 2659   1.823   3.845   9.947
  665SOL     MW 2660   1.834   3.892   9.874
  666SOL     OW 2661   2.828   7.536   9.924
  666SOL    HW1 2662   2.757   7.577   9.973
  666SOL    HW2 2663   2.790   7.516   9.839
  666SOL     MW 2664   2.814   7.539   9.919
  667SOL     OW 2665   4.052   9.790   5.692
  667SOL    HW1 2666   4.069   9.736   5.770
  667SOL    HW2 2667   4.048   9.879   5.725
  667SOL     MW 2668   4.054   9.795   5.707
  668SOL     OW 2669   6.661   9.318   5.851
  668SOL    HW1 2670   6.566   9.306   5.843
  668SOL    HW2 2671   6.687   9.357   5.768
  668SOL     MW 2672   6.651   9.321   5.839
  669SOL     OW 2673   2.748   2.200   1.581
  669SOL    HW1 2674   2.713   2.180   1.495
  669SOL    HW2 2675   2.697   2.275   1.611
  669SOL     MW 2676   2.736   2.207   1.574
  670SOL     OW 2677   7.366   9.610   9.367
  670SOL    HW1 2678   7.312   9.540   9.402
  670SOL    HW2 2679   7.337   9.689   9.413
  670SOL     MW 2680   7.355   9.611   9.378
  671SOL     OW 2681   8.294   0.323   7.630
  671SOL    HW1 2682   8.328   0.235   7.641
  671SOL    HW2 2683   8.228   0.333   7.699
  671SOL     MW 2684   8.289   0.313   7.641
  672SOL     OW 2685   3.685   0.013   9.294
  672SOL    HW1 2686   3.626   0.072   9.249
  672SOL    HW2 2687   3.652   0.008   9.384
  672SOL     MW 2688   3.673   0.020   9.300
  673SOL     OW 2689   9.191   8.688   7.545
  673SOL    HW1 2690   9.242   8.623   7.497
  673SOL    HW2 2691   9.252   8.726   7.608
  673SOL     MW 2692   9.206   8.684   7.547
  674SOL     OW 2693   3.347   9.366  10.007
  674SOL    HW1 2694   3.403   9.442  10.021
  674SOL    HW2 2695   3.308   9.349  10.093
  674SOL     MW 2696   3.349   9.374  10.021
  675SOL     OW 2697   6.650   2.952   1.746
  675SOL    HW1 2698   6.735   2.931   1.785
  675SOL    HW2 2699   6.656   3.045   1.724
  675SOL     MW 2700   6.663   2.961   1.748
  676SOL     OW 2701   2.522   4.637   1.017
  676SOL    HW1 2702   2.428   4.653   1.021
  676SOL    HW2 2703   2.534   4.587   0.937
  676SOL     MW 2704   2.511   4.632   1.007
  677SOL     OW 2705   3.279   1.379   6.834
  677SOL    HW1 2706   3.374   1.375   6.848
  677SOL    HW2 2707   3.255   1.468   6.861
  677SOL     MW 2708   3.289   1.391   6.840
  678SOL     OW 2709   0.373   5.152   5.812
  678SOL    HW1 2710   0.353   5.074   5.760
  678SOL    HW2 2711   0.464   5.139   5.840
  678SOL     MW 2712   0.383   5.139   5.809
  679SOL     OW 2713   3.039   5.894   4.813
  679SOL    HW1 2714   2.959   5.846   4.835
  679SOL    HW2 2715   3.037   5.971   4.870
  679SOL     MW 2716   3.028   5.898   4.824
  680SOL     OW 2717   6.142   4.500   1.881
  680SOL    HW1 2718   6.166   4.493   1.973
  680SOL    HW2 2719   6.175   4.586   1.854
  680SOL     MW 2720   6.150   4.511   1.890
  681SOL     OW 2721   1.854   0.196   9.005
  681SOL    HW1 2722   1.891   0.201   9.094
  681SOL    HW2 2723   1.925   0.158   8.953
  681SOL     MW 2724   1.869   0.192   9.010
  682SOL     OW 2725   8.476   4.954   3.016
  682SOL    HW1 2726   8.463   4.900   3.094
  682SOL    HW2 2727   8.414   4.920   2.952
  682SOL     MW 2728   8.466   4.942   3.018
  683SOL     OW 2729   3.686   7.147   4.047
  683SOL    HW1 2730   3.642   7.229   4.066
  683SOL    HW2 2731   3.692   7.103   4.132
  683SOL     MW 2732   3.681   7.152   4.061
  684SOL     OW 2733   8.458   7.886   3.353
  684SOL    HW1 2734   8.437   7.979   3.352
  684SOL    HW2 2735   8.434   7.857   3.442
  684SOL     MW 2736   8.452   7.894   3.365
  685SOL     OW 2737   5.395   1.359   4.705
  685SOL    HW1 2738   5.359   1.402   4.627
  685SOL    HW2 2739   5.344   1.278   4.713
  685SOL     MW 2740   5.383   1.354   4.695
  686SOL     OW 2741   4.394   7.354   4.965
  686SOL    HW1 2742   4.407   7.395   4.880
  686SOL    HW2 2743   4.483   7.332   4.994
  686SOL     MW 2744   4.408   7.356   4.957
  687SOL     OW 2745   2.762   6.794   5.081
  687SOL    HW1 2746   2.807   6.772   5.000
  687SOL    HW2 2747   2.790   6.726   5.143
  687SOL     MW 2748   2.772   6.782   5.079
  688SOL     OW 2749   1.727   6.319   8.748
  688SOL    HW1 2750   1.708   6.249   8.686
  688SOL    HW2 2751   1.643   6.362   8.764
  688SOL     MW 2752   1.713   6.315   8.742
  689SOL     OW 2753   7.491   5.674   0.528
  689SOL    HW1 2754   7.504   5.696   0.620
  689SOL    HW2 2755   7.550   5.733   0.481
  689SOL     MW 2756   7.500   5.685   0.534
  690SOL     OW 2757   7.636   5.736   8.309
  690SOL    HW1 2758   7.545   5.749   8.283
  690SOL    HW2 2759   7.646   5.641   8.312
  690SOL     MW 2760   7.625   5.725   8.306
  691SOL     OW 2761   0.125   8.073   6.699
  691SOL    HW1 2762   0.116   8.002   6.635
  691SOL    HW2 2763   0.053   8.059   6.760
  691SOL     MW 2764   0.114   8.061   6.698
  692SOL     OW 2765   9.274   9.894   8.194
  692SOL    HW1 2766   9.343   9.854   8.247
  692SOL    HW2 2767   9.302   9.985   8.182
  692SOL     MW 2768   9.287   9.901   8.200
  693SOL     OW 2769   3.198   9.013   9.091
  693SOL    HW1 2770   3.117   8.969   9.066
  693SOL    HW2 2771   3.195   9.097   9.045
  693SOL     MW 2772   3.187   9.018   9.081
  694SOL     OW 2773   1.339   2.129   3.288
  694SOL    HW1 2774   1.257   2.106   3.244
  694SOL    HW2 2775   1.323   2.215   3.325
  694SOL     MW 2776   1.326   2.137   3.287
  695SOL     OW 2777   2.973   1.576   4.240
  695SOL    HW1 2778   2.946   1.503   4.296
  695SOL    HW2 2779   2.897   1.633   4.237
  695SOL     MW 2780   2.959   1.574   4.247
  696SOL     OW 2781   2.798   0.712   0.658
  696SOL    HW1 2782   2.711   0.688   0.691
  696SOL    HW2 2783   2.842   0.628   0.647
  696SOL     MW 2784   2.792   0.697   0.661
  697SOL     OW 2785   9.728   9.993   3.893
  697SOL    HW1 2786   9.808   9.988   3.841
  697SOL    HW2 2787   9.758  10.009   3.983
  697SOL     MW 2788   9.743   9.994   3.898
  698SOL     OW 2789   0.067   7.699   8.156
  698SOL    HW1 2790   0.061   7.755   8.079
  698SOL    HW2 2791   0.065   7.610   8.121
  698SOL     MW 2792   0.066   7.694   8.141
  699SOL     OW 2793   9.480   1.911   7.728
  699SOL    HW1 2794   9.553   1.851   7.711
  699SOL    HW2 2795   9.429   1.868   7.797
  699SOL     MW 2796   9.483   1.897   7.735
  700SOL     OW 2797   8.157   6.100   6.396
  700SOL    HW1 2798   8.155   6.005   6.413
  700SOL    HW2 2799   8.156   6.108   6.301
  700SOL     MW 2800   8.157   6.088   6.386
  701SOL     OW 2801   2.775   7.716   8.701
  701SOL    HW1 2802   2.717   7.745   8.630
  701SOL    HW2 2803   2.799   7.626   8.677
  701SOL     MW 2804   2.770   7.708   8.688
  702SOL     OW 2805   9.264   5.903   0.453
  702SOL    HW1 2806   9.349   5.882   0.415
  702SOL    HW2 2807   9.284   5.928   0.543
  702SOL     MW 2808   9.278   5.903   0.460
  703SOL     OW 2809   6.108   5.953   7.839
  703SOL    HW1 2810   6.081   5.865   7.812
  703SOL    HW2 2811   6.202   5.946   7.853
  703SOL     MW 2812   6.117   5.940   7.837
  704SOL     OW 2813   2.814   7.387   8.933
  704SOL    HW1 2814   2.804   7.297   8.962
  704SOL    HW2 2815   2.908   7.395   8.915
  704SOL     MW 2816   2.826   7.376   8.935
  705SOL     OW 2817   3.732   4.291   6.915
  705SOL    HW1 2818   3.673   4.236   6.967
  705SOL    HW2 2819   3.714   4.267   6.824
  705SOL     MW 2820   3.722   4.280   6.910
  706SOL     OW 2821   8.537   4.324   8.051
  706SOL    HW1 2822   8.571   4.414   8.045
  706SOL    HW2 2823   8.488   4.311   7.970
  706SOL     MW 2824   8.535   4.334   8.039
  707SOL     OW 2825   5.694   2.181   5.747
  707SOL    HW1 2826   5.616   2.155   5.797
  707SOL    HW2 2827   5.748   2.102   5.744
  707SOL     MW 2828   5.691   2.167   5.753
  708SOL     OW 2829   3.254   3.954   8.118
  708SOL    HW1 2830   3.269   3.980   8.027
  708SOL    HW2 2831   3.184   4.012   8.148
  708SOL     MW 2832   3.246   3.966   8.110
  709SOL     OW 2833   9.590   8.368   1.226
  709SOL    HW1 2834   9.496   8.372   1.208
  709SOL    HW2 2835   9.629   8.339   1.144
  709SOL     MW 2836   9.583   8.365   1.213
  710SOL     OW 2837   3.989   7.817   7.367
  710SOL    HW1 2838   3.977   7.725   7.344
  710SOL    HW2 2839   3.967   7.865   7.288
  710SOL     MW 2840   3.984   7.811   7.353
  711SOL     OW 2841   7.900   8.656   5.385
  711SOL    HW1 2842   7.904   8.698   5.300
  711SOL    HW2 2843   7.973   8.693   5.434
  711SOL     MW 2844   7.910   8.666   5.380
  712SOL     OW 2845   0.593   9.539   2.918
  712SOL    HW1 2846   0.600   9.464   2.976
  712SOL    HW2 2847   0.500   9.563   2.921
  712SOL     MW 2848   0.581   9.532   2.926
  713SOL     OW 2849   1.402   6.074  10.095
  713SOL    HW1 2850   1.366   6.076  10.006
  713SOL    HW2 2851   1.348   6.011  10.141
  713SOL     MW 2852   1.390   6.066  10.089
  714SOL     OW 2853   9.957   7.936   7.817
  714SOL    HW1 2854  10.038   7.891   7.840
  714SOL    HW2 2855   9.900   7.868   7.781
  714SOL     MW 2856   9.960   7.921   7.815
  715SOL     OW 2857   0.283   8.943   8.403
  715SOL    HW1 2858   0.364   8.902   8.374
  715SOL    HW2 2859   0.215   8.900   8.352
  715SOL     MW 2860   0.285   8.932   8.392
  716SOL     OW 2861   0.495   7.698   0.031
  716SOL    HW1 2862   0.511   7.613  -0.009
  716SOL    HW2 2863   0.578   7.720   0.075
  716SOL     MW 2864   0.509   7.690   0.032
  717SOL     OW 2865   5.749   5.105   2.905
  717SOL    HW1 2866   5.703   5.172   2.853
  717SOL    HW2 2867   5.823   5.151   2.944
  717SOL     MW 2868   5.753   5.120   2.903
  718SOL     OW 2869   4.126   7.422   4.726
  718SOL    HW1 2870   4.079   7.409   4.643
  718SOL    HW2 2871   4.139   7.334   4.761
  718SOL     MW 2872   4.121   7.408   4.719
  719SOL     OW 2873   9.087   0.962   9.473
  719SOL    HW1 2874   9.023   1.032   9.481
  719SOL    HW2 2875   9.100   0.951   9.379
  719SOL     MW 2876   9.080   0.970   9.462
  720SOL     OW 2877   5.428   1.676   9.506
  720SOL    HW1 2878   5.438   1.620   9.429
  720SOL    HW2 2879   5.334   1.690   9.514
  720SOL     MW 2880   5.417   1.670   9.497
  721SOL     OW 2881   3.648   2.885   6.114
  721SOL    HW1 2882   3.689   2.881   6.028
  721SOL    HW2 2883   3.603   2.969   6.116
  721SOL     MW 2884   3.648   2.896   6.103
  722SOL     OW 2885   8.931   8.074   7.063
  722SOL    HW1 2886   8.926   8.169   7.074
  722SOL    HW2 2887   8.970   8.062   6.977
  722SOL     MW 2888   8.936   8.085   7.053
  723SOL     OW 2889   0.096   0.384   3.454
  723SOL    HW1 2890   0.019   0.433   3.480
  723SOL    HW2 2891   0.160   0.451   3.429
  723SOL     MW 2892   0.095   0.400   3.454
  724SOL     OW 2893   1.704   3.350   7.707
  724SOL    HW1 2894   1.772   3.304   7.756
  724SOL    HW2 2895   1.719   3.325   7.616
  724SOL     MW 2896   1.715   3.341   7.701
  725SOL     OW 2897   4.449   9.546   4.936
  725SOL    HW1 2898   4.531   9.567   4.891
  725SOL    HW2 2899   4.423   9.627   4.978
  725SOL     MW 2900   4.457   9.560   4.936
  726SOL     OW 2901   3.367   2.953   6.756
  726SOL    HW1 2902   3.367   3.041   6.791
  726SOL    HW2 2903   3.329   2.961   6.668
  726SOL     MW 2904   3.362   2.966   6.749
  727SOL     OW 2905   9.623   5.695   6.700
  727SOL    HW1 2906   9.677   5.732   6.630
  727SOL    HW2 2907   9.686   5.670   6.768
  727SOL     MW 2908   9.639   5.697   6.699
  728SOL     OW 2909   7.246   4.107   0.767
  728SOL    HW1 2910   7.339   4.123   0.752
  728SOL    HW2 2911   7.213   4.079   0.682
  728SOL     MW 2912   7.254   4.105   0.754
  729SOL     OW 2913   3.413   2.449   8.353
  729SOL    HW1 2914   3.459   2.464   8.436
  729SOL    HW2 2915   3.390   2.356   8.355
  729SOL     MW 2916   3.416   2.438   8.365
  730SOL     OW 2917   2.442  10.115   7.913
  730SOL    HW1 2918   2.487  10.103   7.829
  730SOL    HW2 2919   2.349  10.114   7.891
  730SOL     MW 2920   2.436  10.114   7.899
  731SOL     OW 2921   9.191   3.420   9.750
  731SOL    HW1 2922   9.139   3.446   9.674
  731SOL    HW2 2923   9.129   3.374   9.806
  731SOL     MW 2924   9.175   3.418   9.747
  732SOL     OW 2925   2.315   8.659   1.529
  732SOL    HW1 2926   2.344   8.600   1.598
  732SOL    HW2 2927   2.220   8.648   1.526
  732SOL     MW 2928   2.306   8.650   1.538
  733SOL     OW 2929   5.153   3.912   2.590
  733SOL    HW1 2930   5.219   3.885   2.654
  733SOL    HW2 2931   5.119   3.829   2.556
  733SOL     MW 2932   5.158   3.897   2.594
  734SOL     OW 2933   7.932   3.509   8.972
  734SOL    HW1 2934   7.934   3.413   8.966
  734SOL    HW2 2935   8.008   3.532   9.025
  734SOL     MW 2936   7.942   3.499   8.978
  735SOL     OW 2937   2.460   6.829   1.163
  735SOL    HW1 2938   2.374   6.852   1.126
  735SOL    HW2 2939   2.501   6.774   1.096
  735SOL     MW 2940   2.454   6.825   1.149
  736SOL     OW 2941   9.703   0.767   2.501
  736SOL    HW1 2942   9.752   0.745   2.580
  736SOL    HW2 2943   9.674   0.683   2.466
  736SOL     MW 2944   9.705   0.753   2.507
  737SOL     OW 2945   9.819   2.670   9.722
  737SOL    HW1 2946   9.871   2.725   9.663
  737SOL    HW2 2947   9.884   2.620   9.772
  737SOL     MW 2948   9.835   2.671   9.721
  738SOL     OW 2949   4.314   6.946   0.684
  738SOL    HW1 2950   4.376   6.909   0.746
  738SOL    HW2 2951   4.229   6.940   0.728
  738SOL     MW 2952   4.311   6.940   0.698
  739SOL     OW 2953   5.462   6.002   2.860
  739SOL    HW1 2954   5.528   6.030   2.924
  739SOL    HW2 2955   5.436   6.082   2.815
  739SOL     MW 2956   5.468   6.016   2.863
  740SOL     OW 2957   6.051   5.167   5.192
  740SOL    HW1 2958   6.059   5.088   5.138
  740SOL    HW2 2959   6.126   5.164   5.250
  740SOL     MW 2960   6.062   5.156   5.192
  741SOL     OW 2961   6.077   2.638   8.496
  741SOL    HW1 2962   6.069   2.546   8.520
  741SOL    HW2 2963   6.015   2.649   8.424
  741SOL     MW 2964   6.068   2.627   8.489
  742SOL     OW 2965   9.189   9.666   8.752
  742SOL    HW1 2966   9.269   9.710   8.783
  742SOL    HW2 2967   9.121   9.733   8.758
  742SOL     MW 2968   9.191   9.681   8.757
  743SOL     OW 2969   9.216   0.395   6.171
  743SOL    HW1 2970   9.232   0.368   6.081
  743SOL    HW2 2971   9.273   0.471   6.184
  743SOL     MW 2972   9.226   0.401   6.161
  744SOL     OW 2973   8.391   3.730   2.436
  744SOL    HW1 2974   8.308   3.684   2.442
  744SOL    HW2 2975   8.434   3.713   2.520
  744SOL     MW 2976   8.386   3.721   2.448
  745SOL     OW 2977   1.911   5.679   9.352
  745SOL    HW1 2978   1.914   5.616   9.424
  745SOL    HW2 2979   1.927   5.626   9.273
  745SOL     MW 2980   1.913   5.663   9.351
  746SOL     OW 2981   5.750   1.761   2.713
  746SOL    HW1 2982   5.810   1.696   2.676
  746SOL    HW2 2983   5.801   1.805   2.780
  746SOL     MW 2984   5.765   1.758   2.717
  747SOL     OW 2985   6.836   8.292   8.814
  747SOL    HW1 2986   6.765   8.285   8.878
  747SOL    HW2 2987   6.908   8.241   8.853
  747SOL     MW 2988   6.836   8.284   8.828
  748SOL     OW 2989   9.260   7.118   8.410
  748SOL    HW1 2990   9.222   7.196   8.368
  748SOL    HW2 2991   9.340   7.149   8.452
  748SOL     MW 2992   9.265   7.133   8.410
  749SOL     OW 2993   0.787   0.416   7.117
  749SOL    HW1 2994   0.828   0.456   7.040
  749SOL    HW2 2995   0.705   0.464   7.129
  749SOL     MW 2996   0.782   0.428   7.108
  750SOL     OW 2997   4.115   0.710   1.568
  750SOL    HW1 2998   4.200   0.703   1.526
  750SOL    HW2 2999   4.115   0.797   1.609
  750SOL     MW 3000   4.126   0.721   1.568
  751SOL     OW 3001   0.431   2.979   9.418
  751SOL    HW1 3002   0.439   2.904   9.477
  751SOL    HW2 3003   0.386   3.045   9.470
  751SOL     MW 3004   0.426   2.978   9.433
  752SOL     OW 3005   2.832   7.450   8.657
  752SOL    HW1 3006   2.803   7.418   8.742
  752SOL    HW2 3007   2.771   7.411   8.594
  752SOL     MW 3008   2.820   7.440   8.660
  753SOL     OW 3009   1.035   4.764   6.643
  753SOL    HW1 3010   1.063   4.826   6.710
  753SOL    HW2 3011   1.049   4.810   6.560
  753SOL     MW 3012   1.041   4.779   6.641
  754SOL     OW 3013   2.721   8.353   5.608
  754SOL    HW1 3014   2.811   8.388   5.607
  754SOL    HW2 3015   2.696   8.348   5.516
  754SOL     MW 3016   2.730   8.357   5.596
  755SOL     OW 3017   6.099   9.618   7.986
  755SOL    HW1 3018   6.082   9.544   8.044
  755SOL    HW2 3019   6.051   9.596   7.905
  755SOL     MW 3020   6.090   9.605   7.983
  756SOL     OW 3021   5.184   5.131   5.711
  756SOL    HW1 3022   5.194   5.224   5.730
  756SOL    HW2 3023   5.225   5.087   5.786
  756SOL     MW 3024   5.191   5.137   5.724
  757SOL     OW 3025   3.637   9.222   3.812
  757SOL    HW1 3026   3.728   9.207   3.838
  757SOL    HW2 3027   3.638   9.308   3.770
  757SOL     MW 3028   3.649   9.231   3.810
  758SOL     OW 3029   2.019   1.291   6.335
  758SOL    HW1 3030   2.002   1.385   6.330
  758SOL    HW2 3031   2.079   1.282   6.409
  758SOL     MW 3032   2.025   1.303   6.344
  759SOL     OW 3033   0.098   6.204   9.235
  759SOL    HW1 3034   0.008   6.173   9.224
  759SOL    HW2 3035   0.120   6.183   9.326
  759SOL     MW 3036   0.089   6.197   9.246
  760SOL     OW 3037   2.456   6.292   1.213
  760SOL    HW1 3038   2.498   6.208   1.231
  760SOL    HW2 3039   2.380   6.270   1.159
  760SOL     MW 3040   2.451   6.278   1.208
  761SOL     OW 3041   5.933   4.700   8.553
  761SOL    HW1 3042   5.997   4.629   8.556
  761SOL    HW2 3043   5.850   4.659   8.579
  761SOL     MW 3044   5.930   4.685   8.557
  762SOL     OW 3045   3.280   6.242   0.833
  762SOL    HW1 3046   3.329   6.319   0.801
  762SOL    HW2 3047   3.319   6.224   0.919
  762SOL     MW 3048   3.292   6.250   0.841
  763SOL     OW 3049   3.121   1.029   2.835
  763SOL    HW1 3050   3.181   0.957   2.818
  763SOL    HW2 3051   3.155   1.071   2.913
  763SOL     MW 3052   3.134   1.025   2.843
  764SOL     OW 3053   0.578   3.954   5.370
  764SOL    HW1 3054   0.490   3.966   5.335
  764SOL    HW2 3055   0.635   4.000   5.308
  764SOL     MW 3056   0.574   3.962   5.357
  765SOL     OW 3057   5.656   4.906   8.299
  765SOL    HW1 3058   5.610   4.912   8.215
  765SOL    HW2 3059   5.614   4.833   8.345
  765SOL     MW 3060   5.644   4.897   8.294
  766SOL     OW 3061   5.031   7.383   5.722
  766SOL    HW1 3062   5.075   7.368   5.638
  766SOL    HW2 3063   5.075   7.460   5.758
  766SOL     MW 3064   5.043   7.392   5.715
  767SOL     OW 3065   6.867   8.155   8.148
  767SOL    HW1 3066   6.937   8.144   8.212
  767SOL    HW2 3067   6.902   8.120   8.067
  767SOL     MW 3068   6.881   8.149   8.146
  768SOL     OW 3069   1.068   9.301   0.291
  768SOL    HW1 3070   1.033   9.306   0.380
  768SOL    HW2 3071   1.124   9.224   0.291
  768SOL     MW 3072   1.071   9.292   0.303
  769SOL     OW 3073   1.654   3.652   2.688
  769SOL    HW1 3074   1.727   3.632   2.746
  769SOL    HW2 3075   1.687   3.721   2.630
  769SOL     MW 3076   1.668   3.658   2.688
  770SOL     OW 3077   1.098   3.246   9.462
  770SOL    HW1 3078   1.131   3.237   9.552
  770SOL    HW2 3079   1.145   3.178   9.413
  770SOL     MW 3080   1.109   3.236   9.468
  771SOL     OW 3081   3.561   9.646   3.152
  771SOL    HW1 3082   3.546   9.696   3.072
  771SOL    HW2 3083   3.523   9.560   3.134
  771SOL     MW 3084   3.554   9.642   3.139
  772SOL     OW 3085   6.201   1.968   8.295
  772SOL    HW1 3086   6.287   1.927   8.300
  772SOL    HW2 3087   6.153   1.916   8.231
  772SOL     MW 3088   6.206   1.956   8.287
  773SOL     OW 3089   4.454   3.493   7.694
  773SOL    HW1 3090   4.503   3.419   7.659
  773SOL    HW2 3091   4.474   3.493   7.787
  773SOL     MW 3092   4.464   3.483   7.702
  774SOL     OW 3093   7.543   1.609   4.405
  774SOL    HW1 3094   7.586   1.682   4.448
  774SOL    HW2 3095   7.513   1.644   4.321
  774SOL     MW 3096   7.545   1.623   4.399
  775SOL     OW 3097   5.031   3.144   2.784
  775SOL    HW1 3098   5.050   3.055   2.754
  775SOL    HW2 3099   4.973   3.132   2.859
  775SOL     MW 3100   5.025   3.130   2.790
  776SOL     OW 3101   7.297  -0.004   1.112
  776SOL    HW1 3102   7.291  -0.015   1.017
  776SOL    HW2 3103   7.299   0.091   1.125
  776SOL     MW 3104   7.297   0.007   1.101
  777SOL     OW 3105   0.750   5.428   0.521
  777SOL    HW1 3106   0.820   5.490   0.501
  777SOL    HW2 3107   0.762   5.408   0.614
  777SOL     MW 3108   0.761   5.434   0.531
  778SOL     OW 3109   9.600   8.786   9.703
  778SOL    HW1 3110   9.660   8.712   9.708
  778SOL    HW2 3111   9.562   8.780   9.615
  778SOL     MW 3112   9.603   8.775   9.692
  779SOL     OW 3113   4.194   0.485   4.809
  779SOL    HW1 3114   4.249   0.450   4.880
  779SOL    HW2 3115   4.129   0.416   4.793
  779SOL     MW 3116   4.193   0.471   4.816
  780SOL     OW 3117   1.447   0.251   7.820
  780SOL    HW1 3118   1.358   0.261   7.787
  780SOL    HW2 3119   1.455   0.157   7.837
  780SOL     MW 3120   1.436   0.239   7.818
  781SOL     OW 3121   9.578   8.722   1.626
  781SOL    HW1 3122   9.540   8.721   1.538
  781SOL    HW2 3123   9.553   8.807   1.662
  781SOL     MW 3124   9.569   8.733   1.619
  782SOL     OW 3125   5.929   4.686   1.821
  782SOL    HW1 3126   6.007   4.740   1.806
  782SOL    HW2 3127   5.964   4.599   1.841
  782SOL     MW 3128   5.945   4.681   1.822
  783SOL     OW 3129   6.433   1.456   8.551
  783SOL    HW1 3130   6.341   1.479   8.553
  783SOL    HW2 3131   6.473   1.519   8.491
  783SOL     MW 3132   6.426   1.467   8.543
  784SOL     OW 3133   6.017   0.974   4.684
  784SOL    HW1 3134   6.112   0.977   4.699
  784SOL    HW2 3135   5.980   0.958   4.770
  784SOL     MW 3136   6.025   0.972   4.698
  785SOL     OW 3137   9.488   6.344   1.721
  785SOL    HW1 3138   9.394   6.335   1.708
  785SOL    HW2 3139   9.499   6.426   1.769
  785SOL     MW 3140   9.477   6.353   1.726
  786SOL     OW 3141   1.724   9.481   4.263
  786SOL    HW1 3142   1.703   9.393   4.293
  786SOL    HW2 3143   1.677   9.538   4.323
  786SOL     MW 3144   1.715   9.477   4.275
  787SOL     OW 3145   9.712   4.286   9.110
  787SOL    HW1 3146   9.802   4.259   9.094
  787SOL    HW2 3147   9.718   4.350   9.181
  787SOL     MW 3148   9.725   4.291   9.118
  788SOL     OW 3149   1.469   8.047   9.691
  788SOL    HW1 3150   1.493   7.979   9.629
  788SOL    HW2 3151   1.440   8.121   9.637
  788SOL     MW 3152   1.468   8.048   9.676
  789SOL     OW 3153   1.538   0.547   9.654
  789SOL    HW1 3154   1.523   0.461   9.612
  789SOL    HW2 3155   1.627   0.541   9.689
  789SOL     MW 3156   1.548   0.534   9.653
  790SOL     OW 3157   6.667   9.711   4.639
  790SOL    HW1 3158   6.673   9.714   4.544
  790SOL    HW2 3159   6.651   9.619   4.660
  790SOL     MW 3160   6.666   9.699   4.629
  791SOL     OW 3161   3.401   2.077   8.612
  791SOL    HW1 3162   3.401   2.003   8.673
  791SOL    HW2 3163   3.450   2.146   8.657
  791SOL     MW 3164   3.408   2.076   8.626
  792SOL     OW 3165   2.597   1.409   3.115
  792SOL    HW1 3166   2.610   1.315   3.128
  792SOL    HW2 3167   2.665   1.435   3.053
  792SOL     MW 3168   2.608   1.400   3.108
  793SOL     OW 3169   7.011   2.842   6.902
  793SOL    HW1 3170   7.103   2.829   6.877
  793SOL    HW2 3171   7.015   2.887   6.986
  793SOL     MW 3172   7.024   2.846   6.910
  794SOL     OW 3173   1.382   8.680   0.601
  794SOL    HW1 3174   1.468   8.641   0.614
  794SOL    HW2 3175   1.323   8.606   0.586
  794SOL     MW 3176   1.385   8.665   0.601
  795SOL     OW 3177   3.561   9.862   3.580
  795SOL    HW1 3178   3.608   9.810   3.515
  795SOL    HW2 3179   3.518   9.931   3.529
  795SOL     MW 3180   3.561   9.864   3.564
  796SOL     OW 3181   2.425   2.823   5.166
  796SOL    HW1 3182   2.449   2.747   5.220
  796SOL    HW2 3183   2.337   2.846   5.195
  796SOL     MW 3184   2.417   2.816   5.177
  797SOL     OW 3185   3.881   3.385   9.549
  797SOL    HW1 3186   3.953   3.441   9.576
  797SOL    HW2 3187   3.808   3.410   9.605
  797SOL     MW 3188   3.881   3.396   9.560
  798SOL     OW 3189   3.108   4.546   0.281
  798SOL    HW1 3190   3.203   4.550   0.276
  798SOL    HW2 3191   3.090   4.498   0.362
  798SOL     MW 3192   3.118   4.540   0.291
  799SOL     OW 3193   1.223   2.286   7.206
  799SOL    HW1 3194   1.197   2.378   7.207
  799SOL    HW2 3195   1.277   2.277   7.127
  799SOL     MW 3196   1.227   2.297   7.195
  800SOL     OW 3197   0.296   2.760   8.746
  800SOL    HW1 3198   0.320   2.809   8.667
  800SOL    HW2 3199   0.211   2.720   8.724
  800SOL     MW 3200   0.287   2.761   8.732
  801SOL     OW 3201   2.541   3.143   2.612
  801SOL    HW1 3202   2.603   3.086   2.567
  801SOL    HW2 3203   2.540   3.224   2.561
  801SOL     MW 3204   2.549   3.146   2.599
  802SOL     OW 3205   1.421   4.069   6.926
  802SOL    HW1 3206   1.483   4.025   6.867
  802SOL    HW2 3207   1.391   4.145   6.877
  802SOL     MW 3208   1.425   4.073   6.911
  803SOL     OW 3209   5.350   5.157   1.823
  803SOL    HW1 3210   5.387   5.225   1.767
  803SOL    HW2 3211   5.394   5.077   1.795
  803SOL     MW 3212   5.361   5.155   1.812
  804SOL     OW 3213   9.380   0.734  10.133
  804SOL    HW1 3214   9.474   0.724  10.143
  804SOL    HW2 3215   9.367   0.758  10.041
  804SOL     MW 3216   9.391   0.736  10.122
  805SOL     OW 3217   1.148   7.867   4.910
  805SOL    HW1 3218   1.095   7.811   4.967
  805SOL    HW2 3219   1.130   7.835   4.822
  805SOL     MW 3220   1.139   7.855   4.906
  806SOL     OW 3221   9.667   0.987   6.984
  806SOL    HW1 3222   9.676   0.927   7.058
  806SOL    HW2 3223   9.755   0.998   6.950
  806SOL     MW 3224   9.680   0.981   6.990
  807SOL     OW 3225   2.586   4.562   1.455
  807SOL    HW1 3226   2.618   4.653   1.453
  807SOL    HW2 3227   2.495   4.570   1.483
  807SOL     MW 3228   2.578   4.576   1.459
  808SOL     OW 3229   5.821   9.928   2.596
  808SOL    HW1 3230   5.888   9.960   2.536
  808SOL    HW2 3231   5.870   9.887   2.667
  808SOL     MW 3232   5.836   9.926   2.597
  809SOL     OW 3233   7.547   4.180   7.321
  809SOL    HW1 3234   7.529   4.166   7.414
  809SOL    HW2 3235   7.634   4.220   7.319
  809SOL     MW 3236   7.556   4.183   7.333
  810SOL     OW 3237   3.500  10.033   7.341
  810SOL    HW1 3238   3.525   9.966   7.404
  810SOL    HW2 3239   3.580  10.050   7.291
  810SOL     MW 3240   3.514  10.027   7.343
  811SOL     OW 3241   7.491   4.114   7.589
  811SOL    HW1 3242   7.563   4.066   7.628
  811SOL    HW2 3243   7.486   4.195   7.639
  811SOL     MW 3244   7.500   4.119   7.601
  812SOL     OW 3245   4.795   6.346   5.028
  812SOL    HW1 3246   4.862   6.286   5.062
  812SOL    HW2 3247   4.776   6.406   5.101
  812SOL     MW 3248   4.801   6.346   5.042
  813SOL     OW 3249   1.176   2.220   9.265
  813SOL    HW1 3250   1.081   2.208   9.261
  813SOL    HW2 3251   1.196   2.282   9.194
  813SOL     MW 3252   1.166   2.227   9.255
  814SOL     OW 3253   5.495   1.326   5.376
  814SOL    HW1 3254   5.476   1.245   5.425
  814SOL    HW2 3255   5.590   1.336   5.381
  814SOL     MW 3256   5.505   1.316   5.383
  815SOL     OW 3257   0.911   8.430   6.476
  815SOL    HW1 3258   0.960   8.400   6.399
  815SOL    HW2 3259   0.941   8.375   6.548
  815SOL     MW 3260   0.921   8.419   6.475
  816SOL     OW 3261   2.680   5.603   1.246
  816SOL    HW1 3262   2.634   5.519   1.245
  816SOL    HW2 3263   2.738   5.598   1.170
  816SOL     MW 3264   2.682   5.591   1.235
  817SOL     OW 3265   7.014   1.193   4.820
  817SOL    HW1 3266   7.039   1.251   4.892
  817SOL    HW2 3267   7.079   1.211   4.752
  817SOL     MW 3268   7.027   1.203   4.821
  818SOL     OW 3269   4.930   9.895   5.023
  818SOL    HW1 3270   4.993   9.933   5.084
  818SOL    HW2 3271   4.965   9.807   5.004
  818SOL     MW 3272   4.943   9.888   5.028
  819SOL     OW 3273   5.492   5.603   7.686
  819SOL    HW1 3274   5.446   5.626   7.767
  819SOL    HW2 3275   5.427   5.615   7.617
  819SOL     MW 3276   5.477   5.608   7.687
  820SOL     OW 3277   8.344   7.316   9.765
  820SOL    HW1 3278   8.346   7.235   9.714
  820SOL    HW2 3279   8.287   7.297   9.840
  820SOL     MW 3280   8.337   7.303   9.768
  821SOL     OW 3281   6.348   4.468   1.487
  821SOL    HW1 3282   6.317   4.414   1.559
  821SOL    HW2 3283   6.427   4.423   1.455
  821SOL     MW 3284   6.355   4.455   1.492
  822SOL     OW 3285   1.956   4.363   9.681
  822SOL    HW1 3286   1.954   4.290   9.743
  822SOL    HW2 3287   2.045   4.362   9.645
  822SOL     MW 3288   1.968   4.353   9.685
  823SOL     OW 3289   8.869   7.274   6.080
  823SOL    HW1 3290   8.895   7.365   6.062
  823SOL    HW2 3291   8.911   7.253   6.163
  823SOL     MW 3292   8.879   7.283   6.089
  824SOL     OW 3293   8.787   6.358   5.171
  824SOL    HW1 3294   8.832   6.436   5.204
  824SOL    HW2 3295   8.769   6.378   5.079
  824SOL     MW 3296   8.791   6.371   5.163
  825SOL     OW 3297   8.076   5.560   5.264
  825SOL    HW1 3298   8.155   5.614   5.273
  825SOL    HW2 3299   8.082   5.524   5.175
  825SOL     MW 3300   8.087   5.562   5.253
  826SOL     OW 3301   4.493   1.483   2.157
  826SOL    HW1 3302   4.437   1.405   2.155
  826SOL    HW2 3303   4.581   1.448   2.170
  826SOL     MW 3304   4.497   1.468   2.158
  827SOL     OW 3305   7.089   4.750   6.252
  827SOL    HW1 3306   7.094   4.686   6.323
  827SOL    HW2 3307   7.150   4.716   6.186
  827SOL     MW 3308   7.098   4.737   6.253
  828SOL     OW 3309   6.886   7.789   5.102
  828SOL    HW1 3310   6.972   7.804   5.141
  828SOL    HW2 3311   6.877   7.693   5.101
  828SOL     MW 3312   6.896   7.778   5.107
  829SOL     OW 3313   1.572   3.622   0.908
  829SOL    HW1 3314   1.590   3.529   0.920
  829SOL    HW2 3315   1.522   3.647   0.986
  829SOL     MW 3316   1.568   3.613   0.920
  830SOL     OW 3317   1.261   3.504   9.764
  830SOL    HW1 3318   1.190   3.548   9.717
  830SOL    HW2 3319   1.253   3.534   9.854
  830SOL     MW 3320   1.251   3.514   9.770
  831SOL     OW 3321   5.849   7.036   2.008
  831SOL    HW1 3322   5.804   6.988   1.939
  831SOL    HW2 3323   5.937   6.997   2.012
  831SOL     MW 3324   5.855   7.024   2.000
  832SOL     OW 3325   9.249   4.012   1.631
  832SOL    HW1 3326   9.342   4.021   1.608
  832SOL    HW2 3327   9.250   3.964   1.713
  832SOL     MW 3328   9.262   4.007   1.639
  833SOL     OW 3329   9.713   0.094   3.313
  833SOL    HW1 3330   9.802   0.109   3.280
  833SOL    HW2 3331   9.714   0.004   3.346
  833SOL     MW 3332   9.725   0.084   3.313
  834SOL     OW 3333   0.914   4.502   9.783
  834SOL    HW1 3334   0.963   4.573   9.742
  834SOL    HW2 3335   0.826   4.537   9.796
  834SOL     MW 3336   0.909   4.516   9.780
  835SOL     OW 3337   2.035   4.551   3.088
  835SOL    HW1 3338   2.041   4.599   3.171
  835SOL    HW2 3339   2.100   4.481   3.097
  835SOL     MW 3340   2.045   4.548   3.101
  836SOL     OW 3341   3.313   9.487   1.748
  836SOL    HW1 3342   3.364   9.542   1.688
  836SOL    HW2 3343   3.225   9.485   1.711
  836SOL     MW 3344   3.308   9.494   1.735
  837SOL     OW 3345   9.032   9.161   4.904
  837SOL    HW1 3346   9.107   9.106   4.926
  837SOL    HW2 3347   8.962   9.100   4.883
  837SOL     MW 3348   9.033   9.146   4.904
  838SOL     OW 3349   7.824   7.459   0.103
  838SOL    HW1 3350   7.807   7.521   0.033
  838SOL    HW2 3351   7.915   7.432   0.089
  838SOL     MW 3352   7.834   7.464   0.092
  839SOL     OW 3353   1.885   6.640   4.481
  839SOL    HW1 3354   1.858   6.560   4.526
  839SOL    HW2 3355   1.835   6.639   4.399
  839SOL     MW 3356   1.874   6.629   4.476
  840SOL     OW 3357   6.064   5.332   2.747
  840SOL    HW1 3358   6.023   5.273   2.684
  840SOL    HW2 3359   6.158   5.326   2.729
  840SOL     MW 3360   6.071   5.323   2.736
  841SOL     OW 3361   9.016   7.152   6.284
  841SOL    HW1 3362   8.997   7.098   6.361
  841SOL    HW2 3363   9.021   7.090   6.212
  841SOL     MW 3364   9.014   7.136   6.285
  842SOL     OW 3365   6.295   4.234   0.358
  842SOL    HW1 3366   6.361   4.211   0.293
  842SOL    HW2 3367   6.297   4.162   0.422
  842SOL     MW 3368   6.304   4.221   0.358
  843SOL     OW 3369   7.722   5.442   7.284
  843SOL    HW1 3370   7.735   5.367   7.226
  843SOL    HW2 3371   7.750   5.517   7.232
  843SOL     MW 3372   7.727   5.442   7.269
  844SOL     OW 3373   6.966   3.064   4.513
  844SOL    HW1 3374   6.906   3.127   4.473
  844SOL    HW2 3375   6.941   3.063   4.605
  844SOL     MW 3376   6.954   3.073   4.520
  845SOL     OW 3377   2.382   0.780   9.573
  845SOL    HW1 3378   2.448   0.788   9.504
  845SOL    HW2 3379   2.328   0.858   9.564
  845SOL     MW 3380   2.384   0.791   9.563
  846SOL     OW 3381   3.552   1.370   6.885
  846SOL    HW1 3382   3.593   1.287   6.908
  846SOL    HW2 3383   3.625   1.430   6.868
  846SOL     MW 3384   3.567   1.367   6.886
  847SOL     OW 3385   9.405   2.517   6.877
  847SOL    HW1 3386   9.398   2.612   6.871
  847SOL    HW2 3387   9.314   2.487   6.882
  847SOL     MW 3388   9.392   2.525   6.877
  848SOL     OW 3389   1.388   6.977   2.221
  848SOL    HW1 3390   1.412   7.048   2.162
  848SOL    HW2 3391   1.315   6.933   2.177
  848SOL     MW 3392   1.381   6.981   2.207
  849SOL     OW 3393   3.609   6.842   9.315
  849SOL    HW1 3394   3.655   6.775   9.366
  849SOL    HW2 3395   3.629   6.924   9.360
  849SOL     MW 3396   3.618   6.844   9.328
  850SOL     OW 3397   5.996   0.349   8.508
  850SOL    HW1 3398   5.905   0.325   8.495
  850SOL    HW2 3399   5.999   0.444   8.491
  850SOL     MW 3400   5.984   0.359   8.504
  851SOL     OW 3401   7.073   5.739   0.295
  851SOL    HW1 3402   7.032   5.668   0.245
  851SOL    HW2 3403   7.018   5.816   0.277
  851SOL     MW 3404   7.060   5.740   0.286
  852SOL     OW 3405   8.126   5.096   0.929
  852SOL    HW1 3406   8.206   5.044   0.930
  852SOL    HW2 3407   8.149   5.176   0.883
  852SOL     MW 3408   8.140   5.100   0.923
  853SOL     OW 3409   7.695   7.363   7.092
  853SOL    HW1 3410   7.742   7.429   7.142
  853SOL    HW2 3411   7.602   7.384   7.106
  853SOL     MW 3412   7.689   7.374   7.101
  854SOL     OW 3413  10.149   4.069   1.494
  854SOL    HW1 3414  10.089   3.997   1.515
  854SOL    HW2 3415  10.091   4.144   1.478
  854SOL     MW 3416  10.133   4.069   1.494
  855SOL     OW 3417   4.794   4.088   4.315
  855SOL    HW1 3418   4.712   4.133   4.292
  855SOL    HW2 3419   4.828   4.057   4.231
  855SOL     MW 3420   4.787   4.090   4.300
  856SOL     OW 3421   9.898   7.018   8.919
  856SOL    HW1 3422   9.895   7.074   8.842
  856SOL    HW2 3423   9.969   6.956   8.901
  856SOL     MW 3424   9.907   7.017   8.907
  857SOL     OW 3425   1.932   3.228   5.594
  857SOL    HW1 3426   1.934   3.318   5.560
  857SOL    HW2 3427   1.968   3.175   5.523
  857SOL     MW 3428   1.937   3.233   5.580
  858SOL     OW 3429   9.026   0.147   5.950
  858SOL    HW1 3430   8.949   0.111   5.906
  858SOL    HW2 3431   8.992   0.184   6.031
  858SOL     MW 3432   9.011   0.147   5.955
  859SOL     OW 3433   6.257   3.963   6.197
  859SOL    HW1 3434   6.236   3.975   6.104
  859SOL    HW2 3435   6.352   3.952   6.198
  859SOL     MW 3436   6.267   3.963   6.185
  860SOL     OW 3437   6.327   1.763   4.190
  860SOL    HW1 3438   6.300   1.834   4.247
  860SOL    HW2 3439   6.358   1.694   4.249
  860SOL     MW 3440   6.328   1.763   4.206
  861SOL     OW 3441   5.174   9.274   1.402
  861SOL    HW1 3442   5.263   9.289   1.369
  861SOL    HW2 3443   5.176   9.184   1.434
  861SOL     MW 3444   5.187   9.264   1.402
  862SOL     OW 3445   4.508   2.073   9.580
  862SOL    HW1 3446   4.596   2.037   9.576
  862SOL    HW2 3447   4.513   2.155   9.531
  862SOL     MW 3448   4.520   2.079   9.573
  863SOL     OW 3449   5.194   0.001   2.256
  863SOL    HW1 3450   5.269   0.006   2.196
  863SOL    HW2 3451   5.211   0.070   2.320
  863SOL     MW 3452   5.206   0.011   2.256
  864SOL     OW 3453   5.899   4.942   2.735
  864SOL    HW1 3454   5.841   4.988   2.796
  864SOL    HW2 3455   5.954   4.887   2.791
  864SOL     MW 3456   5.899   4.941   2.751
  865SOL     OW 3457   1.981   6.381   8.837
  865SOL    HW1 3458   1.891   6.367   8.810
  865SOL    HW2 3459   2.009   6.298   8.875
  865SOL     MW 3460   1.973   6.368   8.839
  866SOL     OW 3461   7.376   6.456   9.600
  866SOL    HW1 3462   7.440   6.424   9.537
  866SOL    HW2 3463   7.425   6.468   9.681
  866SOL     MW 3464   7.391   6.453   9.602
  867SOL     OW 3465   8.599   3.184   0.745
  867SOL    HW1 3466   8.645   3.133   0.678
  867SOL    HW2 3467   8.624   3.275   0.726
  867SOL     MW 3468   8.609   3.190   0.733
  868SOL     OW 3469   1.459   6.731   4.907
  868SOL    HW1 3470   1.540   6.771   4.878
  868SOL    HW2 3471   1.401   6.805   4.926
  868SOL     MW 3472   1.462   6.747   4.906
  869SOL     OW 3473   7.346   0.057   3.232
  869SOL    HW1 3474   7.359   0.048   3.327
  869SOL    HW2 3475   7.263   0.013   3.215
  869SOL     MW 3476   7.337   0.050   3.243
  870SOL     OW 3477   6.783   2.490   5.204
  870SOL    HW1 3478   6.836   2.483   5.125
  870SOL    HW2 3479   6.792   2.406   5.247
  870SOL     MW 3480   6.791   2.478   5.199
  871SOL     OW 3481   9.874   0.673   2.705
  871SOL    HW1 3482   9.908   0.726   2.777
  871SOL    HW2 3483   9.944   0.673   2.640
  871SOL     MW 3484   9.888   0.680   2.706
  872SOL     OW 3485   0.734   5.054   9.075
  872SOL    HW1 3486   0.662   5.038   9.014
  872SOL    HW2 3487   0.775   5.134   9.043
  872SOL     MW 3488   0.730   5.063   9.063
  873SOL     OW 3489   3.671   4.134   0.435
  873SOL    HW1 3490   3.701   4.205   0.492
  873SOL    HW2 3491   3.651   4.062   0.495
  873SOL     MW 3492   3.672   4.134   0.451
  874SOL     OW 3493   4.346   3.012   9.781
  874SOL    HW1 3494   4.284   3.003   9.710
  874SOL    HW2 3495   4.293   3.007   9.861
  874SOL     MW 3496   4.331   3.010   9.782
  875SOL     OW 3497   0.041   7.942   3.829
  875SOL    HW1 3498  -0.029   7.961   3.891
  875SOL    HW2 3499   0.087   8.026   3.819
  875SOL     MW 3500   0.038   7.956   3.836
  876SOL     OW 3501   8.093   8.271   2.693
  876SOL    HW1 3502   8.070   8.359   2.661
  876SOL    HW2 3503   8.175   8.250   2.649
  876SOL     MW 3504   8.101   8.280   2.683
  877SOL     OW 3505   4.085   1.886   4.689
  877SOL    HW1 3506   4.021   1.820   4.663
  877SOL    HW2 3507   4.165   1.838   4.708
  877SOL     MW 3508   4.087   1.871   4.688
  878SOL     OW 3509   9.563   2.099   2.108
  878SOL    HW1 3510   9.571   2.004   2.119
  878SOL    HW2 3511   9.642   2.134   2.147
  878SOL     MW 3512   9.574   2.091   2.115
  879SOL     OW 3513   6.353   1.713   0.535
  879SOL    HW1 3514   6.420   1.781   0.530
  879SOL    HW2 3515   6.382   1.646   0.473
  879SOL     MW 3516   6.366   1.713   0.526
  880SOL     OW 3517   0.013   2.756   5.035
  880SOL    HW1 3518   0.011   2.745   5.130
  880SOL    HW2 3519   0.104   2.778   5.015
  880SOL     MW 3520   0.025   2.757   5.045
  881SOL     OW 3521   7.048   2.576   4.746
  881SOL    HW1 3522   6.995   2.529   4.682
  881SOL    HW2 3523   7.114   2.622   4.694
  881SOL     MW 3524   7.050   2.576   4.731
  882SOL     OW 3525   7.740   1.264   6.576
  882SOL    HW1 3526   7.709   1.343   6.530
  882SOL    HW2 3527   7.661   1.227   6.616
  882SOL     MW 3528   7.725   1.270   6.575
  883SOL     OW 3529   7.715   4.729   8.793
  883SOL    HW1 3530   7.806   4.733   8.764
  883SOL    HW2 3531   7.718   4.751   8.886
  883SOL     MW 3532   7.727   4.733   8.801
  884SOL     OW 3533   2.865   7.418   6.834
  884SOL    HW1 3534   2.873   7.325   6.813
  884SOL    HW2 3535   2.927   7.432   6.905
  884SOL     MW 3536   2.875   7.408   6.840
  885SOL     OW 3537   6.139   7.397   6.654
  885SOL    HW1 3538   6.229   7.394   6.685
  885SOL    HW2 3539   6.091   7.339   6.713
  885SOL     MW 3540   6.145   7.389   6.666
  886SOL     OW 3541   9.010   4.386   2.298
  886SOL    HW1 3542   9.085   4.378   2.239
  886SOL    HW2 3543   8.979   4.476   2.286
  886SOL     MW 3544   9.016   4.397   2.289
  887SOL     OW 3545   8.945   8.371   6.192
  887SOL    HW1 3546   9.007   8.330   6.252
  887SOL    HW2 3547   8.897   8.298   6.154
  887SOL     MW 3548   8.947   8.356   6.195
  888SOL     OW 3549   8.300   3.204   3.926
  888SOL    HW1 3550   8.251   3.205   3.844
  888SOL    HW2 3551   8.272   3.124   3.970
  888SOL     MW 3552   8.289   3.194   3.921
  889SOL     OW 3553   0.196   2.395   6.266
  889SOL    HW1 3554   0.131   2.379   6.335
  889SOL    HW2 3555   0.275   2.421   6.314
  889SOL     MW 3556   0.198   2.397   6.282
  890SOL     OW 3557   8.059   8.918   3.197
  890SOL    HW1 3558   8.016   8.845   3.241
  890SOL    HW2 3559   8.146   8.922   3.235
  890SOL     MW 3560   8.065   8.909   3.208
  891SOL     OW 3561   1.132   4.121   1.541
  891SOL    HW1 3562   1.202   4.070   1.583
  891SOL    HW2 3563   1.093   4.060   1.478
  891SOL     MW 3564   1.136   4.106   1.538
  892SOL     OW 3565   7.171   8.441   2.020
  892SOL    HW1 3566   7.140   8.390   2.095
  892SOL    HW2 3567   7.108   8.423   1.951
  892SOL     MW 3568   7.159   8.432   2.021
  893SOL     OW 3569   5.676   4.145   9.029
  893SOL    HW1 3570   5.599   4.135   8.973
  893SOL    HW2 3571   5.747   4.104   8.981
  893SOL     MW 3572   5.675   4.138   9.015
  894SOL     OW 3573   0.334   4.031   5.265
  894SOL    HW1 3574   0.329   4.125   5.285
  894SOL    HW2 3575   0.323   4.026   5.170
  894SOL     MW 3576   0.332   4.043   5.255
  895SOL     OW 3577   4.040   9.415   8.351
  895SOL    HW1 3578   3.966   9.361   8.379
  895SOL    HW2 3579   4.117   9.362   8.372
  895SOL     MW 3580   4.041   9.400   8.358
  896SOL     OW 3581   4.153   9.488   9.646
  896SOL    HW1 3582   4.157   9.532   9.731
  896SOL    HW2 3583   4.085   9.422   9.656
  896SOL     MW 3584   4.144   9.485   9.658
  897SOL     OW 3585   7.300   0.206   6.462
  897SOL    HW1 3586   7.354   0.188   6.385
  897SOL    HW2 3587   7.292   0.122   6.506
  897SOL     MW 3588   7.306   0.192   6.457
  898SOL     OW 3589   4.419   2.294   5.687
  898SOL    HW1 3590   4.376   2.239   5.752
  898SOL    HW2 3591   4.507   2.255   5.678
  898SOL     MW 3592   4.425   2.281   5.694
  899SOL     OW 3593   3.123   7.699   1.205
  899SOL    HW1 3594   3.050   7.761   1.203
  899SOL    HW2 3595   3.187   7.739   1.264
  899SOL     MW 3596   3.122   7.713   1.213
  900SOL     OW 3597   6.120   2.365   4.141
  900SOL    HW1 3598   6.090   2.383   4.052
  900SOL    HW2 3599   6.107   2.447   4.188
  900SOL     MW 3600   6.114   2.379   4.135
  901SOL     OW 3601   4.697   5.504   5.188
  901SOL    HW1 3602   4.722   5.508   5.281
  901SOL    HW2 3603   4.647   5.585   5.173
  901SOL     MW 3604   4.693   5.516   5.199
  902SOL     OW 3605   4.064   0.735   4.401
  902SOL    HW1 3606   3.986   0.765   4.449
  902SOL    HW2 3607   4.122   0.702   4.470
  902SOL     MW 3608   4.061   0.735   4.417
  903SOL     OW 3609   0.561   7.796   3.710
  903SOL    HW1 3610   0.618   7.743   3.654
  903SOL    HW2 3611   0.479   7.802   3.661
  903SOL     MW 3612   0.558   7.789   3.696
  904SOL     OW 3613   7.461   0.773   1.069
  904SOL    HW1 3614   7.431   0.794   0.980
  904SOL    HW2 3615   7.427   0.845   1.123
  904SOL     MW 3616   7.452   0.786   1.064
  905SOL     OW 3617   6.439   1.958   3.751
  905SOL    HW1 3618   6.422   1.925   3.663
  905SOL    HW2 3619   6.414   1.886   3.809
  905SOL     MW 3620   6.433   1.944   3.747
  906SOL     OW 3621   4.928   8.395   8.706
  906SOL    HW1 3622   4.870   8.408   8.780
  906SOL    HW2 3623   4.892   8.320   8.659
  906SOL     MW 3624   4.916   8.387   8.709
  907SOL     OW 3625   5.393   8.221   1.742
  907SOL    HW1 3626   5.425   8.131   1.731
  907SOL    HW2 3627   5.404   8.238   1.836
  907SOL     MW 3628   5.399   8.211   1.753
  908SOL     OW 3629   8.345   0.060   7.357
  908SOL    HW1 3630   8.273   0.025   7.306
  908SOL    HW2 3631   8.337   0.155   7.347
  908SOL     MW 3632   8.334   0.068   7.349
  909SOL     OW 3633   8.007   1.915   5.371
  909SOL    HW1 3634   8.041   1.964   5.446
  909SOL    HW2 3635   8.052   1.954   5.296
  909SOL     MW 3636   8.018   1.927   5.371
  910SOL     OW 3637   0.236   4.556   4.434
  910SOL    HW1 3638   0.174   4.492   4.468
  910SOL    HW2 3639   0.292   4.505   4.374
  910SOL     MW 3640   0.235   4.540   4.430
  911SOL     OW 3641   4.231   0.794   3.858
  911SOL    HW1 3642   4.251   0.829   3.771
  911SOL    HW2 3643   4.259   0.863   3.919
  911SOL     MW 3644   4.237   0.808   3.855
  912SOL     OW 3645   8.089   3.518   8.332
  912SOL    HW1 3646   8.179   3.547   8.349
  912SOL    HW2 3647   8.036   3.568   8.394
  912SOL     MW 3648   8.094   3.528   8.343
  913SOL     OW 3649   0.791   8.839   8.362
  913SOL    HW1 3650   0.874   8.879   8.336
  913SOL    HW2 3651   0.816   8.776   8.430
  913SOL     MW 3652   0.806   8.836   8.368
  914SOL     OW 3653   8.166   4.671   6.689
  914SOL    HW1 3654   8.079   4.697   6.659
  914SOL    HW2 3655   8.212   4.754   6.703
  914SOL     MW 3656   8.161   4.686   6.687
  915SOL     OW 3657   2.782   4.548   8.284
  915SOL    HW1 3658   2.815   4.635   8.305
  915SOL    HW2 3659   2.687   4.553   8.299
  915SOL     MW 3660   2.773   4.560   8.289
  916SOL     OW 3661   9.425   1.960   7.056
  916SOL    HW1 3662   9.353   2.018   7.033
  916SOL    HW2 3663   9.422   1.891   6.990
  916SOL     MW 3664   9.415   1.959   7.044
  917SOL     OW 3665   7.168   5.547   9.725
  917SOL    HW1 3666   7.247   5.568   9.774
  917SOL    HW2 3667   7.195   5.552   9.633
  917SOL     MW 3668   7.182   5.550   9.719
  918SOL     OW 3669   0.030   2.722   5.313
  918SOL    HW1 3670   0.021   2.631   5.342
  918SOL    HW2 3671  -0.006   2.774   5.385
  918SOL     MW 3672   0.024   2.717   5.327
  919SOL     OW 3673   1.839   5.103   6.902
  919SOL    HW1 3674   1.745   5.116   6.915
  919SOL    HW2 3675   1.845   5.025   6.846
  919SOL     MW 3676   1.827   5.094   6.896
  920SOL     OW 3677   9.536   9.313   0.591
  920SOL    HW1 3678   9.543   9.217   0.590
  920SOL    HW2 3679   9.548   9.338   0.500
  920SOL     MW 3680   9.539   9.303   0.579
  921SOL     OW 3681   7.190   0.759   7.425
  921SOL    HW1 3682   7.238   0.702   7.366
  921SOL    HW2 3683   7.163   0.703   7.498
  921SOL     MW 3684   7.193   0.744   7.427
  922SOL     OW 3685   6.324   9.320   8.127
  922SOL    HW1 3686   6.352   9.400   8.081
  922SOL    HW2 3687   6.355   9.249   8.070
  922SOL     MW 3688   6.332   9.321   8.113
  923SOL     OW 3689   2.416   1.003   4.781
  923SOL    HW1 3690   2.455   1.033   4.863
  923SOL    HW2 3691   2.485   0.952   4.738
  923SOL     MW 3692   2.430   1.000   4.786
  924SOL     OW 3693   2.716   0.613   4.597
  924SOL    HW1 3694   2.756   0.544   4.650
  924SOL    HW2 3695   2.719   0.579   4.507
  924SOL     MW 3696   2.722   0.599   4.592
  925SOL     OW 3697   8.415  10.122   4.727
  925SOL    HW1 3698   8.353  10.097   4.659
  925SOL    HW2 3699   8.417  10.046   4.786
  925SOL     MW 3700   8.407  10.108   4.726
  926SOL     OW 3701   5.132   2.047   0.817
  926SOL    HW1 3702   5.059   2.065   0.757
  926SOL    HW2 3703   5.094   2.060   0.904
  926SOL     MW 3704   5.117   2.051   0.820
  927SOL     OW 3705   2.033   3.329   7.330
  927SOL    HW1 3706   2.124   3.338   7.304
  927SOL    HW2 3707   1.985   3.390   7.273
  927SOL     MW 3708   2.039   3.339   7.319
  928SOL     OW 3709   4.511   3.883   1.688
  928SOL    HW1 3710   4.606   3.874   1.684
  928SOL    HW2 3711   4.478   3.793   1.686
  928SOL     MW 3712   4.519   3.869   1.687
  929SOL     OW 3713   2.327  10.092   3.631
  929SOL    HW1 3714   2.416  10.080   3.599
  929SOL    HW2 3715   2.314  10.187   3.631
  929SOL     MW 3716   2.337  10.103   3.627
  930SOL     OW 3717   5.301   5.022   5.939
  930SOL    HW1 3718   5.368   5.046   6.003
  930SOL    HW2 3719   5.270   4.936   5.968
  930SOL     MW 3720   5.306   5.013   5.951
  931SOL     OW 3721   1.551   8.599   0.950
  931SOL    HW1 3722   1.499   8.675   0.925
  931SOL    HW2 3723   1.611   8.632   1.017
  931SOL     MW 3724   1.552   8.613   0.956
  932SOL     OW 3725   3.018   3.255   8.322
  932SOL    HW1 3726   3.092   3.315   8.309
  932SOL    HW2 3727   2.959   3.303   8.381
  932SOL     MW 3728   3.020   3.270   8.328
  933SOL     OW 3729   4.891   1.317   5.282
  933SOL    HW1 3730   4.956   1.379   5.315
  933SOL    HW2 3731   4.898   1.241   5.340
  933SOL     MW 3732   4.901   1.315   5.295
  934SOL     OW 3733   7.018   4.868   3.545
  934SOL    HW1 3734   7.021   4.829   3.457
  934SOL    HW2 3735   7.006   4.961   3.529
  934SOL     MW 3736   7.017   4.875   3.531
  935SOL     OW 3737   0.267   3.405   3.376
  935SOL    HW1 3738   0.333   3.397   3.308
  935SOL    HW2 3739   0.315   3.436   3.453
  935SOL     MW 3740   0.282   3.408   3.377
  936SOL     OW 3741   2.823   5.096   4.344
  936SOL    HW1 3742   2.848   5.004   4.345
  936SOL    HW2 3743   2.843   5.125   4.255
  936SOL     MW 3744   2.829   5.087   4.332
  937SOL     OW 3745   2.321   0.062   6.938
  937SOL    HW1 3746   2.307  -0.033   6.934
  937SOL    HW2 3747   2.245   0.099   6.894
  937SOL     MW 3748   2.309   0.054   6.932
  938SOL     OW 3749   6.638   4.918   6.551
  938SOL    HW1 3750   6.674   4.978   6.485
  938SOL    HW2 3751   6.715   4.886   6.598
  938SOL     MW 3752   6.653   4.922   6.548
  939SOL     OW 3753   5.237   0.332   5.700
  939SOL    HW1 3754   5.290   0.264   5.741
  939SOL    HW2 3755   5.208   0.294   5.617
  939SOL     MW 3756   5.240   0.318   5.695
  940SOL     OW 3757   2.033   8.861   4.738
  940SOL    HW1 3758   2.089   8.928   4.697
  940SOL    HW2 3759   2.071   8.848   4.824
  940SOL     MW 3760   2.046   8.869   4.744
  941SOL     OW 3761   1.034   1.919   5.788
  941SOL    HW1 3762   1.107   1.893   5.844
  941SOL    HW2 3763   1.070   1.918   5.699
  941SOL     MW 3764   1.049   1.916   5.783
  942SOL     OW 3765   0.445   5.867   0.777
  942SOL    HW1 3766   0.470   5.807   0.706
  942SOL    HW2 3767   0.349   5.868   0.774
  942SOL     MW 3768   0.435   5.859   0.767
  943SOL     OW 3769   2.283   7.406   6.239
  943SOL    HW1 3770   2.229   7.478   6.271
  943SOL    HW2 3771   2.221   7.346   6.198
  943SOL     MW 3772   2.267   7.408   6.238
  944SOL     OW 3773   3.387   4.548   0.299
  944SOL    HW1 3774   3.464   4.530   0.246
  944SOL    HW2 3775   3.419   4.602   0.371
  944SOL     MW 3776   3.402   4.553   0.302
  945SOL     OW 3777   3.497   7.866   8.046
  945SOL    HW1 3778   3.495   7.961   8.055
  945SOL    HW2 3779   3.586   7.841   8.071
  945SOL     MW 3780   3.509   7.876   8.051
  946SOL     OW 3781   6.460   0.725   3.825
  946SOL    HW1 3782   6.384   0.680   3.862
  946SOL    HW2 3783   6.523   0.728   3.896
  946SOL     MW 3784   6.458   0.719   3.839
  947SOL     OW 3785   2.690   0.264   8.527
  947SOL    HW1 3786   2.641   0.330   8.577
  947SOL    HW2 3787   2.654   0.270   8.439
  947SOL     MW 3788   2.678   0.273   8.522
  948SOL     OW 3789   5.094   1.479   5.387
  948SOL    HW1 3790   5.167   1.437   5.341
  948SOL    HW2 3791   5.087   1.566   5.347
  948SOL     MW 3792   5.103   1.485   5.375
  949SOL     OW 3793   1.238   8.693   3.204
  949SOL    HW1 3794   1.303   8.762   3.190
  949SOL    HW2 3795   1.215   8.663   3.116
  949SOL     MW 3796   1.244   8.698   3.190
  950SOL     OW 3797   1.845   9.577   4.033
  950SOL    HW1 3798   1.813   9.537   4.114
  950SOL    HW2 3799   1.776   9.637   4.006
  950SOL     MW 3800   1.832   9.580   4.040
  951SOL     OW 3801   0.510   1.400   4.812
  951SOL    HW1 3802   0.447   1.472   4.812
  951SOL    HW2 3803   0.556   1.409   4.895
  951SOL     MW 3804   0.508   1.411   4.823
  952SOL     OW 3805   0.168   2.604   2.255
  952SOL    HW1 3806   0.245   2.652   2.288
  952SOL    HW2 3807   0.103   2.672   2.238
  952SOL     MW 3808   0.170   2.619   2.257
  953SOL     OW 3809   5.855   5.832   2.903
  953SOL    HW1 3810   5.817   5.911   2.866
  953SOL    HW2 3811   5.943   5.826   2.863
  953SOL     MW 3812   5.862   5.842   2.892
  954SOL     OW 3813   1.012   8.265   6.675
  954SOL    HW1 3814   1.073   8.306   6.738
  954SOL    HW2 3815   0.947   8.221   6.730
  954SOL     MW 3816   1.012   8.265   6.691
  955SOL     OW 3817   1.543   1.124   5.207
  955SOL    HW1 3818   1.637   1.118   5.189
  955SOL    HW2 3819   1.506   1.047   5.163
  955SOL     MW 3820   1.551   1.113   5.198
  956SOL     OW 3821   5.361   5.433  10.090
  956SOL    HW1 3822   5.344   5.448  10.183
  956SOL    HW2 3823   5.278   5.402  10.055
  956SOL     MW 3824   5.348   5.431  10.097
  957SOL     OW 3825   2.856   3.107   0.170
  957SOL    HW1 3826   2.888   3.147   0.090
  957SOL    HW2 3827   2.833   3.018   0.145
  957SOL     MW 3828   2.857   3.101   0.156
  958SOL     OW 3829   5.657   0.965   5.657
  958SOL    HW1 3830   5.613   0.881   5.669
  958SOL    HW2 3831   5.595   1.018   5.607
  958SOL     MW 3832   5.643   0.961   5.652
  959SOL     OW 3833   2.627   8.206   3.455
  959SOL    HW1 3834   2.602   8.151   3.381
  959SOL    HW2 3835   2.639   8.293   3.418
  959SOL     MW 3836   2.625   8.210   3.440
  960SOL     OW 3837   6.497   9.954   5.083
  960SOL    HW1 3838   6.551   9.919   5.012
  960SOL    HW2 3839   6.520  10.047   5.086
  960SOL     MW 3840   6.507   9.962   5.074
  961SOL     OW 3841   9.851   3.222   4.370
  961SOL    HW1 3842   9.907   3.285   4.417
  961SOL    HW2 3843   9.859   3.141   4.420
  961SOL     MW 3844   9.859   3.220   4.383
  962SOL     OW 3845   2.082   0.230   0.882
  962SOL    HW1 3846   2.086   0.239   0.977
  962SOL    HW2 3847   2.028   0.152   0.868
  962SOL     MW 3848   2.075   0.220   0.893
  963SOL     OW 3849   0.686   0.801   5.148
  963SOL    HW1 3850   0.700   0.876   5.089
  963SOL    HW2 3851   0.759   0.742   5.129
  963SOL     MW 3852   0.698   0.803   5.137
  964SOL     OW 3853   7.386   5.052   4.408
  964SOL    HW1 3854   7.298   5.033   4.376
  964SOL    HW2 3855   7.441   4.985   4.367
  964SOL     MW 3856   7.381   5.041   4.398
  965SOL     OW 3857   9.220   7.620   2.381
  965SOL    HW1 3858   9.278   7.624   2.457
  965SOL    HW2 3859   9.133   7.639   2.417
  965SOL     MW 3860   9.216   7.623   2.396
  966SOL     OW 3861   5.257   4.084   5.755
  966SOL    HW1 3862   5.172   4.124   5.733
  966SOL    HW2 3863   5.322   4.150   5.730
  966SOL     MW 3864   5.254   4.099   5.749
  967SOL     OW 3865   8.237   7.834   2.950
  967SOL    HW1 3866   8.234   7.922   2.914
  967SOL    HW2 3867   8.321   7.829   2.995
  967SOL     MW 3868   8.248   7.845   2.951
  968SOL     OW 3869   7.662   3.119   7.008
  968SOL    HW1 3870   7.740   3.112   6.953
  968SOL    HW2 3871   7.674   3.050   7.074
  968SOL     MW 3872   7.674   3.109   7.009
  969SOL     OW 3873   3.585   2.168   0.757
  969SOL    HW1 3874   3.508   2.150   0.810
  969SOL    HW2 3875   3.598   2.263   0.765
  969SOL     MW 3876   3.577   2.178   0.765
  970SOL     OW 3877   4.637   9.705   8.431
  970SOL    HW1 3878   4.712   9.663   8.473
  970SOL    HW2 3879   4.673   9.744   8.352
  970SOL     MW 3880   4.652   9.704   8.426
  971SOL     OW 3881   0.377   8.437   6.508
  971SOL    HW1 3882   0.467   8.467   6.520
  971SOL    HW2 3883   0.368   8.363   6.568
  971SOL     MW 3884   0.388   8.431   6.517
  972SOL     OW 3885   7.830   1.840   5.175
  972SOL    HW1 3886   7.739   1.859   5.199
  972SOL    HW2 3887   7.880   1.859   5.254
  972SOL     MW 3888   7.824   1.845   5.189
  973SOL     OW 3889   4.006   7.839   2.541
  973SOL    HW1 3890   4.093   7.855   2.576
  973SOL    HW2 3891   4.017   7.839   2.446
  973SOL     MW 3892   4.019   7.841   2.533
  974SOL     OW 3893   0.611   3.987   5.766
  974SOL    HW1 3894   0.643   3.921   5.705
  974SOL    HW2 3895   0.525   3.956   5.793
  974SOL     MW 3896   0.604   3.974   5.762
  975SOL     OW 3897   2.251   5.836   3.435
  975SOL    HW1 3898   2.292   5.772   3.377
  975SOL    HW2 3899   2.278   5.921   3.399
  975SOL     MW 3900   2.260   5.839   3.422
  976SOL     OW 3901   7.934   0.779   0.871
  976SOL    HW1 3902   7.960   0.700   0.920
  976SOL    HW2 3903   7.844   0.796   0.898
  976SOL     MW 3904   7.926   0.770   0.881
  977SOL     OW 3905   3.472   8.564   4.047
  977SOL    HW1 3906   3.449   8.639   3.992
  977SOL    HW2 3907   3.552   8.591   4.092
  977SOL     MW 3908   3.479   8.578   4.045
  978SOL     OW 3909   3.369   0.553   4.003
  978SOL    HW1 3910   3.411   0.496   3.939
  978SOL    HW2 3911   3.441   0.583   4.059
  978SOL     MW 3912   3.384   0.549   4.002
  979SOL     OW 3913   4.629   7.848   3.680
  979SOL    HW1 3914   4.641   7.800   3.598
  979SOL    HW2 3915   4.666   7.791   3.747
  979SOL     MW 3916   4.635   7.834   3.678
  980SOL     OW 3917   1.278   7.590   6.076
  980SOL    HW1 3918   1.307   7.620   5.990
  980SOL    HW2 3919   1.275   7.495   6.068
  980SOL     MW 3920   1.281   7.582   6.063
  981SOL     OW 3921   4.076   3.770   8.649
  981SOL    HW1 3922   4.061   3.676   8.638
  981SOL    HW2 3923   4.164   3.784   8.613
  981SOL     MW 3924   4.086   3.759   8.643
  982SOL     OW 3925   7.584   9.372   1.286
  982SOL    HW1 3926   7.542   9.286   1.283
  982SOL    HW2 3927   7.531   9.426   1.227
  982SOL     MW 3928   7.571   9.367   1.277
  983SOL     OW 3929   3.432   1.502   9.492
  983SOL    HW1 3930   3.449   1.514   9.585
  983SOL    HW2 3931   3.365   1.434   9.488
  983SOL     MW 3932   3.425   1.494   9.504
  984SOL     OW 3933   7.150   7.752   5.191
  984SOL    HW1 3934   7.185   7.797   5.267
  984SOL    HW2 3935   7.217   7.762   5.124
  984SOL     MW 3936   7.164   7.759   5.192
  985SOL     OW 3937   4.899   9.584   1.756
  985SOL    HW1 3938   4.956   9.538   1.695
  985SOL    HW2 3939   4.934   9.561   1.843
  985SOL     MW 3940   4.911   9.575   1.760
  986SOL     OW 3941   3.819   3.185   1.370
  986SOL    HW1 3942   3.752   3.201   1.436
  986SOL    HW2 3943   3.894   3.151   1.418
  986SOL     MW 3944   3.820   3.183   1.385
  987SOL     OW 3945   6.016   0.614   6.330
  987SOL    HW1 3946   6.041   0.556   6.402
  987SOL    HW2 3947   6.045   0.701   6.358
  987SOL     MW 3948   6.023   0.618   6.344
  988SOL     OW 3949   5.978   6.659   0.309
  988SOL    HW1 3950   6.031   6.722   0.358
  988SOL    HW2 3951   6.018   6.574   0.328
  988SOL     MW 3952   5.991   6.656   0.318
  989SOL     OW 3953   3.233   5.696   4.850
  989SOL    HW1 3954   3.171   5.768   4.840
  989SOL    HW2 3955   3.291   5.704   4.774
  989SOL     MW 3956   3.232   5.707   4.838
  990SOL     OW 3957   7.225   9.544   0.933
  990SOL    HW1 3958   7.156   9.561   0.997
  990SOL    HW2 3959   7.305   9.534   0.985
  990SOL     MW 3960   7.226   9.545   0.948
  991SOL     OW 3961   1.226   8.209   3.421
  991SOL    HW1 3962   1.156   8.167   3.371
  991SOL    HW2 3963   1.209   8.303   3.412
  991SOL     MW 3964   1.214   8.216   3.413
  992SOL     OW 3965   4.446   7.274   6.320
  992SOL    HW1 3966   4.489   7.351   6.284
  992SOL    HW2 3967   4.518   7.214   6.342
  992SOL     MW 3968   4.462   7.276   6.318
  993SOL     OW 3969   5.849   6.014   4.184
  993SOL    HW1 3970   5.908   6.086   4.207
  993SOL    HW2 3971   5.900   5.960   4.123
  993SOL     MW 3972   5.864   6.016   4.179
  994SOL     OW 3973   1.751   7.843   3.861
  994SOL    HW1 3974   1.669   7.866   3.817
  994SOL    HW2 3975   1.730   7.762   3.908
  994SOL     MW 3976   1.737   7.835   3.861
  995SOL     OW 3977   3.397  10.145   5.705
  995SOL    HW1 3978   3.406  10.069   5.648
  995SOL    HW2 3979   3.337  10.117   5.774
  995SOL     MW 3980   3.390  10.131   5.707
  996SOL     OW 3981   8.191   8.575   0.976
  996SOL    HW1 3982   8.199   8.536   0.889
  996SOL    HW2 3983   8.097   8.578   0.993
  996SOL     MW 3984   8.179   8.570   0.967
  997SOL     OW 3985   8.053   3.918   7.916
  997SOL    HW1 3986   8.071   4.003   7.958
  997SOL    HW2 3987   8.044   3.857   7.989
  997SOL     MW 3988   8.054   3.921   7.932
  998SOL     OW 3989   6.618   0.474   8.025
  998SOL    HW1 3990   6.564   0.395   8.030
  998SOL    HW2 3991   6.568   0.540   8.074
  998SOL     MW 3992   6.604   0.473   8.032
  999SOL     OW 3993   4.029   2.479   2.564
  999SOL    HW1 3994   3.938   2.494   2.540
  999SOL    HW2 3995   4.061   2.414   2.502
  999SOL     MW 3996   4.021   2.472   2.553
 1000SOL     OW 3997   6.240   9.533   9.976
 1000SOL    HW1 3998   6.203   9.618   9.954
 1000SOL    HW2 3999   6.334   9.549   9.985
 1000SOL     MW 4000   6.248   9.546   9.974
 1001SOL     OW 4001   2.063   4.236   7.442
 1001SOL    HW1 4002   1.968   4.222   7.437
 1001SOL    HW2 4003   2.096   4.203   7.359
 1001SOL     MW 4004   2.055   4.230   7.430
 1002SOL     OW 4005   6.978   9.865   3.266
 1002SOL    HW1 4006   6.975   9.782   3.218
 1002SOL    HW2 4007   6.932   9.847   3.348
 1002SOL     MW 4008   6.971   9.851   3.270
 1003SOL     OW 4009   3.105   9.930   2.464
 1003SOL    HW1 4010   3.120   9.879   2.544
 1003SOL    HW2 4011   3.169  10.001   2.467
 1003SOL     MW 4012   3.115   9.933   2.475
 1004SOL     OW 4013   8.397   8.153   3.322
 1004SOL    HW1 4014   8.319   8.207   3.330
 1004SOL    HW2 4015   8.419   8.157   3.229
 1004SOL     MW 4016   8.390   8.161   3.311
 1005SOL     OW 4017   8.972   5.531   3.647
 1005SOL    HW1 4018   8.966   5.608   3.590
 1005SOL    HW2 4019   9.066   5.514   3.652
 1005SOL     MW 4020   8.984   5.539   3.640
 1006SOL     OW 4021   2.112   4.784   6.712
 1006SOL    HW1 4022   2.193   4.826   6.739
 1006SOL    HW2 4023   2.133   4.740   6.630
 1006SOL     MW 4024   2.125   4.784   6.705
 1007SOL     OW 4025   8.180   9.856   9.092
 1007SOL    HW1 4026   8.098   9.834   9.047
 1007SOL    HW2 4027   8.190   9.788   9.158
 1007SOL     MW 4028   8.171   9.844   9.094
 1008SOL     OW 4029   0.440   5.393   5.693
 1008SOL    HW1 4030   0.400   5.314   5.730
 1008SOL    HW2 4031   0.389   5.465   5.730
 1008SOL     MW 4032   0.428   5.392   5.703
 1009SOL     OW 4033   4.307   1.726   4.734
 1009SOL    HW1 4034   4.277   1.637   4.717
 1009SOL    HW2 4035   4.400   1.725   4.714
 1009SOL     MW 4036   4.315   1.714   4.729
 1010SOL     OW 4037   8.311   0.779   0.057
 1010SOL    HW1 4038   8.317   0.806   0.149
 1010SOL    HW2 4039   8.389   0.817   0.015
 1010SOL     MW 4040   8.322   0.788   0.064
 1011SOL     OW 4041   7.590   2.943   0.079
 1011SOL    HW1 4042   7.496   2.925   0.073
 1011SOL    HW2 4043   7.627   2.866   0.123
 1011SOL     MW 4044   7.582   2.930   0.084
 1012SOL     OW 4045   4.751   0.448   0.996
 1012SOL    HW1 4046   4.671   0.454   0.944
 1012SOL    HW2 4047   4.799   0.528   0.974
 1012SOL     MW 4048   4.747   0.460   0.986
 1013SOL     OW 4049   0.125   3.672   6.599
 1013SOL    HW1 4050   0.220   3.668   6.605
 1013SOL    HW2 4051   0.094   3.608   6.663
 1013SOL     MW 4052   0.133   3.663   6.608
 1014SOL     OW 4053   9.945   6.282   4.082
 1014SOL    HW1 4054   9.939   6.216   4.152
 1014SOL    HW2 4055   9.859   6.281   4.040
 1014SOL     MW 4056   9.933   6.273   4.086
 1015SOL     OW 4057   9.148   8.326   6.380
 1015SOL    HW1 4058   9.108   8.408   6.409
 1015SOL    HW2 4059   9.201   8.350   6.304
 1015SOL     MW 4060   9.150   8.340   6.374
 1016SOL     OW 4061   4.227   0.466   3.115
 1016SOL    HW1 4062   4.257   0.406   3.046
 1016SOL    HW2 4063   4.239   0.417   3.196
 1016SOL     MW 4064   4.232   0.451   3.117
 1017SOL     OW 4065   5.345   6.613   3.550
 1017SOL    HW1 4066   5.299   6.635   3.631
 1017SOL    HW2 4067   5.355   6.518   3.553
 1017SOL     MW 4068   5.340   6.603   3.562
 1018SOL     OW 4069   9.028   2.207   1.306
 1018SOL    HW1 4070   9.120   2.209   1.282
 1018SOL    HW2 4071   8.984   2.255   1.235
 1018SOL     MW 4072   9.034   2.214   1.293
 1019SOL     OW 4073   8.090   1.877   5.864
 1019SOL    HW1 4074   8.092   1.920   5.778
 1019SOL    HW2 4075   8.008   1.906   5.903
 1019SOL     MW 4076   8.079   1.887   5.858
 1020SOL     OW 4077   5.224   0.021   7.725
 1020SOL    HW1 4078   5.214   0.024   7.630
 1020SOL    HW2 4079   5.282   0.094   7.746
 1020SOL     MW 4080   5.230   0.032   7.715
 1021SOL     OW 4081   4.692   2.703   9.121
 1021SOL    HW1 4082   4.646   2.783   9.146
 1021SOL    HW2 4083   4.764   2.696   9.184
 1021SOL     MW 4084   4.696   2.713   9.133
 1022SOL     OW 4085   6.589   8.851   0.967
 1022SOL    HW1 4086   6.639   8.909   0.911
 1022SOL    HW2 4087   6.515   8.823   0.912
 1022SOL     MW 4088   6.586   8.855   0.952
 1023SOL     OW 4089   0.062   0.490   9.914
 1023SOL    HW1 4090   0.008   0.478   9.835
 1023SOL    HW2 4091   0.112   0.570   9.897
 1023SOL     MW 4092   0.062   0.499   9.901
 1024SOL     OW 4093   0.752   8.360   8.774
 1024SOL    HW1 4094   0.842   8.376   8.745
 1024SOL    HW2 4095   0.761   8.306   8.853
 1024SOL     MW 4096   0.765   8.355   8.781
 1025SOL     OW 4097   1.414   1.050   9.661
 1025SOL    HW1 4098   1.422   0.960   9.628
 1025SOL    HW2 4099   1.487   1.097   9.620
 1025SOL     MW 4100   1.425   1.044   9.651
 1026SOL     OW 4101   2.863   6.578   5.240
 1026SOL    HW1 4102   2.808   6.544   5.311
 1026SOL    HW2 4103   2.883   6.501   5.186
 1026SOL     MW 4104   2.858   6.563   5.242
 1027SOL     OW 4105   9.068   0.090   7.472
 1027SOL    HW1 4106   9.075   0.186   7.476
 1027SOL    HW2 4107   9.081   0.061   7.562
 1027SOL     MW 4108   9.071   0.099   7.484
 1028SOL     OW 4109   6.988   9.463   6.279
 1028SOL    HW1 4110   6.952   9.404   6.345
 1028SOL    HW2 4111   6.951   9.433   6.197
 1028SOL     MW 4112   6.978   9.451   6.277
 1029SOL     OW 4113   7.599   1.489   3.780
 1029SOL    HW1 4114   7.596   1.560   3.716
 1029SOL    HW2 4115   7.577   1.410   3.730
 1029SOL     MW 4116   7.595   1.488   3.765
 1030SOL     OW 4117   9.987   3.911   1.672
 1030SOL    HW1 4118   9.986   3.822   1.707
 1030SOL    HW2 4119  10.053   3.957   1.724
 1030SOL     MW 4120   9.995   3.905   1.684
 1031SOL     OW 4121   9.098   2.083   1.558
 1031SOL    HW1 4122   9.058   2.127   1.483
 1031SOL    HW2 4123   9.115   2.154   1.620
 1031SOL     MW 4124   9.095   2.099   1.556
 1032SOL     OW 4125   2.966   0.311   1.782
 1032SOL    HW1 4126   2.933   0.394   1.746
 1032SOL    HW2 4127   3.057   0.330   1.805
 1032SOL     MW 4128   2.974   0.325   1.780
 1033SOL     OW 4129   0.085   4.414   5.260
 1033SOL    HW1 4130   0.058   4.503   5.237
 1033SOL    HW2 4131   0.006   4.361   5.248
 1033SOL     MW 4132   0.071   4.419   5.255
 1034SOL     OW 4133   4.798   2.910   1.421
 1034SOL    HW1 4134   4.708   2.896   1.449
 1034SOL    HW2 4135   4.791   2.928   1.327
 1034SOL     MW 4136   4.785   2.911   1.412
 1035SOL     OW 4137   9.337   7.152   4.373
 1035SOL    HW1 4138   9.254   7.198   4.375
 1035SOL    HW2 4139   9.370   7.158   4.462
 1035SOL     MW 4140   9.330   7.159   4.385
 1036SOL     OW 4141   9.446   1.854   4.775
 1036SOL    HW1 4142   9.442   1.763   4.805
 1036SOL    HW2 4143   9.398   1.854   4.692
 1036SOL     MW 4144   9.439   1.841   4.768
 1037SOL     OW 4145   1.863   6.610   2.860
 1037SOL    HW1 4146   1.854   6.695   2.904
 1037SOL    HW2 4147   1.955   6.588   2.869
 1037SOL     MW 4148   1.874   6.619   2.867
 1038SOL     OW 4149   8.166   5.358   7.560
 1038SOL    HW1 4150   8.099   5.402   7.509
 1038SOL    HW2 4151   8.219   5.428   7.597
 1038SOL     MW 4152   8.164   5.373   7.558
 1039SOL     OW 4153   6.464   1.876   5.960
 1039SOL    HW1 4154   6.431   1.799   6.007
 1039SOL    HW2 4155   6.439   1.950   6.016
 1039SOL     MW 4156   6.456   1.876   5.974
 1040SOL     OW 4157   6.303   9.749   6.906
 1040SOL    HW1 4158   6.382   9.802   6.920
 1040SOL    HW2 4159   6.275   9.772   6.817
 1040SOL     MW 4160   6.310   9.759   6.896
 1041SOL     OW 4161   5.779   3.689   9.752
 1041SOL    HW1 4162   5.769   3.735   9.836
 1041SOL    HW2 4163   5.871   3.697   9.731
 1041SOL     MW 4164   5.790   3.696   9.761
 1042SOL     OW 4165   7.656   8.476   0.556
 1042SOL    HW1 4166   7.640   8.570   0.566
 1042SOL    HW2 4167   7.742   8.471   0.515
 1042SOL     MW 4168   7.665   8.488   0.552
 1043SOL     OW 4169   2.579  10.035   3.540
 1043SOL    HW1 4170   2.650  10.083   3.498
 1043SOL    HW2 4171   2.622   9.965   3.589
 1043SOL     MW 4172   2.594  10.032   3.541
 1044SOL     OW 4173   0.068   6.655   5.619
 1044SOL    HW1 4174   0.121   6.735   5.616
 1044SOL    HW2 4175   0.064   6.626   5.528
 1044SOL     MW 4176   0.075   6.662   5.606
 1045SOL     OW 4177   0.698   9.060   4.738
 1045SOL    HW1 4178   0.703   9.080   4.644
 1045SOL    HW2 4179   0.767   9.114   4.777
 1045SOL     MW 4180   0.708   9.070   4.730
 1046SOL     OW 4181   9.192   7.803   2.173
 1046SOL    HW1 4182   9.229   7.882   2.211
 1046SOL    HW2 4183   9.212   7.734   2.236
 1046SOL     MW 4184   9.200   7.805   2.186
 1047SOL     OW 4185   2.819   3.818   9.699
 1047SOL    HW1 4186   2.807   3.879   9.773
 1047SOL    HW2 4187   2.913   3.820   9.681
 1047SOL     MW 4188   2.830   3.827   9.707
 1048SOL     OW 4189   6.925   7.517   5.162
 1048SOL    HW1 4190   6.931   7.436   5.112
 1048SOL    HW2 4191   7.016   7.543   5.177
 1048SOL     MW 4192   6.938   7.510   5.157
 1049SOL     OW 4193   7.037   5.862   6.848
 1049SOL    HW1 4194   7.114   5.893   6.896
 1049SOL    HW2 4195   7.070   5.789   6.795
 1049SOL     MW 4196   7.052   5.857   6.847
 1050SOL     OW 4197   7.046   2.806   2.086
 1050SOL    HW1 4198   7.017   2.738   2.146
 1050SOL    HW2 4199   7.075   2.759   2.008
 1050SOL     MW 4200   7.046   2.790   2.083
 1051SOL     OW 4201   9.607   1.563   6.810
 1051SOL    HW1 4202   9.548   1.491   6.788
 1051SOL    HW2 4203   9.653   1.533   6.888
 1051SOL     MW 4204   9.605   1.549   6.818
 1052SOL     OW 4205   4.372   7.149   0.155
 1052SOL    HW1 4206   4.312   7.128   0.227
 1052SOL    HW2 4207   4.439   7.082   0.159
 1052SOL     MW 4208   4.373   7.137   0.165
 1053SOL     OW 4209   3.602   8.636   3.674
 1053SOL    HW1 4210   3.617   8.563   3.735
 1053SOL    HW2 4211   3.686   8.648   3.631
 1053SOL     MW 4212   3.616   8.628   3.677
 1054SOL     OW 4213   4.505   8.924   6.734
 1054SOL    HW1 4214   4.510   8.848   6.676
 1054SOL    HW2 4215   4.490   8.886   6.821
 1054SOL     MW 4216   4.504   8.908   6.738
 1055SOL     OW 4217   3.073   9.508   1.598
 1055SOL    HW1 4218   2.990   9.462   1.611
 1055SOL    HW2 4219   3.049   9.600   1.596
 1055SOL     MW 4220   3.059   9.514   1.600
 1056SOL     OW 4221   4.790   0.223   7.690
 1056SOL    HW1 4222   4.803   0.314   7.717
 1056SOL    HW2 4223   4.853   0.173   7.741
 1056SOL     MW 4224   4.800   0.229   7.701
 1057SOL     OW 4225   4.966   1.640   3.114
 1057SOL    HW1 4226   4.989   1.664   3.024
 1057SOL    HW2 4227   4.894   1.578   3.105
 1057SOL     MW 4228   4.960   1.635   3.100
 1058SOL     OW 4229   1.958   4.971   9.334
 1058SOL    HW1 4230   1.900   4.907   9.375
 1058SOL    HW2 4231   2.012   4.921   9.274
 1058SOL     MW 4232   1.958   4.956   9.332
 1059SOL     OW 4233   9.087   6.950   7.001
 1059SOL    HW1 4234   9.183   6.942   7.007
 1059SOL    HW2 4235   9.065   7.017   7.065
 1059SOL     MW 4236   9.097   6.958   7.011
 1060SOL     OW 4237   8.021   1.390   2.326
 1060SOL    HW1 4238   8.109   1.414   2.354
 1060SOL    HW2 4239   8.000   1.453   2.257
 1060SOL     MW 4240   8.030   1.402   2.320
 1061SOL     OW 4241   8.643   0.630   8.271
 1061SOL    HW1 4242   8.594   0.712   8.276
 1061SOL    HW2 4243   8.611   0.578   8.344
 1061SOL     MW 4244   8.632   0.634   8.281
 1062SOL     OW 4245   5.809   1.274   9.462
 1062SOL    HW1 4246   5.891   1.255   9.417
 1062SOL    HW2 4247   5.793   1.366   9.446
 1062SOL     MW 4248   5.818   1.284   9.454
 1063SOL     OW 4249   1.099   9.302   4.773
 1063SOL    HW1 4250   1.156   9.230   4.747
 1063SOL    HW2 4251   1.029   9.260   4.822
 1063SOL     MW 4252   1.097   9.287   4.776
 1064SOL     OW 4253   9.686   5.585   1.999
 1064SOL    HW1 4254   9.782   5.582   2.002
 1064SOL    HW2 4255   9.659   5.569   2.090
 1064SOL     MW 4256   9.695   5.583   2.012
 1065SOL     OW 4257   9.181   9.476   6.648
 1065SOL    HW1 4258   9.179   9.454   6.555
 1065SOL    HW2 4259   9.102   9.435   6.684
 1065SOL     MW 4260   9.170   9.468   6.640
 1066SOL     OW 4261   7.108   9.697   6.377
 1066SOL    HW1 4262   7.043   9.761   6.347
 1066SOL    HW2 4263   7.077   9.613   6.341
 1066SOL     MW 4264   7.095   9.694   6.368
 1067SOL     OW 4265   9.889   0.654   8.335
 1067SOL    HW1 4266   9.845   0.658   8.250
 1067SOL    HW2 4267   9.866   0.737   8.378
 1067SOL     MW 4268   9.880   0.666   8.330
 1068SOL     OW 4269   8.981   0.997   5.036
 1068SOL    HW1 4270   9.033   1.008   5.116
 1068SOL    HW2 4271   8.895   1.034   5.058
 1068SOL     MW 4272   8.976   1.003   5.050
 1069SOL     OW 4273   2.313   4.560   1.503
 1069SOL    HW1 4274   2.291   4.504   1.428
 1069SOL    HW2 4275   2.233   4.611   1.518
 1069SOL     MW 4276   2.299   4.559   1.495
 1070SOL     OW 4277   1.243   5.871   4.123
 1070SOL    HW1 4278   1.229   5.935   4.053
 1070SOL    HW2 4279   1.270   5.792   4.078
 1070SOL     MW 4280   1.245   5.869   4.108
 1071SOL     OW 4281   3.492   9.598  10.039
 1071SOL    HW1 4282   3.431   9.669  10.018
 1071SOL    HW2 4283   3.572   9.621   9.991
 1071SOL     MW 4284   3.494   9.611  10.030
 1072SOL     OW 4285   8.267   3.286   1.036
 1072SOL    HW1 4286   8.268   3.251   1.125
 1072SOL    HW2 4287   8.175   3.306   1.020
 1072SOL     MW 4288   8.255   3.284   1.046
 1073SOL     OW 4289   3.623   2.743   5.436
 1073SOL    HW1 4290   3.620   2.697   5.520
 1073SOL    HW2 4291   3.716   2.755   5.418
 1073SOL     MW 4292   3.635   2.739   5.445
 1074SOL     OW 4293   1.909   2.937   1.424
 1074SOL    HW1 4294   1.814   2.924   1.427
 1074SOL    HW2 4295   1.933   2.965   1.512
 1074SOL     MW 4296   1.900   2.939   1.436
 1075SOL     OW 4297   9.612   4.470   2.659
 1075SOL    HW1 4298   9.681   4.452   2.595
 1075SOL    HW2 4299   9.659   4.493   2.739
 1075SOL     MW 4300   9.628   4.471   2.661
 1076SOL     OW 4301   9.352   9.841   6.895
 1076SOL    HW1 4302   9.347   9.903   6.967
 1076SOL    HW2 4303   9.418   9.777   6.922
 1076SOL     MW 4304   9.360   9.841   6.908
 1077SOL     OW 4305   0.450   8.952   3.428
 1077SOL    HW1 4306   0.471   8.883   3.366
 1077SOL    HW2 4307   0.359   8.934   3.453
 1077SOL     MW 4308   0.440   8.940   3.423
 1078SOL     OW 4309   6.830   9.858   5.390
 1078SOL    HW1 4310   6.920   9.889   5.379
 1078SOL    HW2 4311   6.837   9.791   5.458
 1078SOL     MW 4312   6.843   9.853   5.398
 1079SOL     OW 4313   0.942   0.614   0.568
 1079SOL    HW1 4314   0.934   0.630   0.662
 1079SOL    HW2 4315   0.880   0.676   0.529
 1079SOL     MW 4316   0.933   0.625   0.576
 1080SOL     OW 4317   1.617   0.798   4.200
 1080SOL    HW1 4318   1.683   0.857   4.163
 1080SOL    HW2 4319   1.664   0.751   4.269
 1080SOL     MW 4320   1.632   0.800   4.204
 1081SOL     OW 4321   7.578   1.113   2.335
 1081SOL    HW1 4322   7.519   1.176   2.376
 1081SOL    HW2 4323   7.666   1.146   2.355
 1081SOL     MW 4324   7.582   1.126   2.343
 1082SOL     OW 4325   1.160   6.378   6.228
 1082SOL    HW1 4326   1.158   6.359   6.134
 1082SOL    HW2 4327   1.077   6.343   6.261
 1082SOL     MW 4328   1.148   6.371   6.220
 1083SOL     OW 4329   9.705   9.174   7.676
 1083SOL    HW1 4330   9.648   9.221   7.736
 1083SOL    HW2 4331   9.773   9.237   7.651
 1083SOL     MW 4332   9.707   9.189   7.680
 1084SOL     OW 4333   4.714   0.330   1.962
 1084SOL    HW1 4334   4.622   0.308   1.976
 1084SOL    HW2 4335   4.756   0.247   1.940
 1084SOL     MW 4336   4.707   0.316   1.961
 1085SOL     OW 4337   5.383   4.791   8.902
 1085SOL    HW1 4338   5.331   4.808   8.981
 1085SOL    HW2 4339   5.325   4.815   8.830
 1085SOL     MW 4340   5.368   4.796   8.903
 1086SOL     OW 4341   1.819   9.258   3.620
 1086SOL    HW1 4342   1.849   9.332   3.672
 1086SOL    HW2 4343   1.840   9.281   3.530
 1086SOL     MW 4344   1.826   9.271   3.615
 1087SOL     OW 4345   0.561   0.552   7.720
 1087SOL    HW1 4346   0.589   0.636   7.683
 1087SOL    HW2 4347   0.629   0.490   7.694
 1087SOL     MW 4348   0.574   0.555   7.711
 1088SOL     OW 4349   7.897   4.484   3.985
 1088SOL    HW1 4350   7.970   4.501   4.044
 1088SOL    HW2 4351   7.935   4.490   3.897
 1088SOL     MW 4352   7.912   4.487   3.981
 1089SOL     OW 4353   1.794   9.874   6.847
 1089SOL    HW1 4354   1.786   9.859   6.753
 1089SOL    HW2 4355   1.724   9.822   6.886
 1089SOL     MW 4356   1.784   9.865   6.840
 1090SOL     OW 4357   6.887   7.271   5.032
 1090SOL    HW1 4358   6.902   7.196   5.090
 1090SOL    HW2 4359   6.793   7.287   5.038
 1090SOL     MW 4360   6.877   7.263   5.041
 1091SOL     OW 4361   1.855   7.278   5.977
 1091SOL    HW1 4362   1.922   7.248   5.916
 1091SOL    HW2 4363   1.796   7.203   5.986
 1091SOL     MW 4364   1.856   7.264   5.970
 1092SOL     OW 4365   3.176   4.768   6.080
 1092SOL    HW1 4366   3.170   4.852   6.035
 1092SOL    HW2 4367   3.100   4.765   6.138
 1092SOL     MW 4368   3.165   4.779   6.082
 1093SOL     OW 4369   8.535   2.652   8.881
 1093SOL    HW1 4370   8.533   2.586   8.812
 1093SOL    HW2 4371   8.626   2.654   8.910
 1093SOL     MW 4372   8.547   2.643   8.876
 1094SOL     OW 4373   4.049   8.516   1.719
 1094SOL    HW1 4374   4.101   8.436   1.721
 1094SOL    HW2 4375   4.005   8.519   1.804
 1094SOL     MW 4376   4.050   8.506   1.731
 1095SOL     OW 4377   7.829   3.441   7.164
 1095SOL    HW1 4378   7.896   3.379   7.194
 1095SOL    HW2 4379   7.765   3.387   7.117
 1095SOL     MW 4380   7.830   3.425   7.161
 1096SOL     OW 4381   9.150   2.929   3.392
 1096SOL    HW1 4382   9.056   2.922   3.409
 1096SOL    HW2 4383   9.158   3.008   3.337
 1096SOL     MW 4384   9.139   2.939   3.387
 1097SOL     OW 4385   8.400   2.777   1.349
 1097SOL    HW1 4386   8.463   2.708   1.328
 1097SOL    HW2 4387   8.433   2.854   1.303
 1097SOL     MW 4388   8.413   2.778   1.340
 1098SOL     OW 4389   4.366   3.284   0.458
 1098SOL    HW1 4390   4.336   3.254   0.372
 1098SOL    HW2 4391   4.444   3.336   0.440
 1098SOL     MW 4392   4.372   3.287   0.444
 1099SOL     OW 4393   8.786   7.308   9.955
 1099SOL    HW1 4394   8.856   7.317  10.020
 1099SOL    HW2 4395   8.829   7.270   9.878
 1099SOL     MW 4396   8.801   7.304   9.954
 1100SOL     OW 4397  10.103   6.327   9.867
 1100SOL    HW1 4398  10.118   6.399   9.806
 1100SOL    HW2 4399  10.009   6.308   9.858
 1100SOL     MW 4400  10.092   6.334   9.857
 1101SOL     OW 4401   3.097   5.996   0.495
 1101SOL    HW1 4402   3.017   6.011   0.545
 1101SOL    HW2 4403   3.099   6.066   0.430
 1101SOL     MW 4404   3.086   6.007   0.493
 1102SOL     OW 4405   8.506   7.947   7.635
 1102SOL    HW1 4406   8.565   8.020   7.653
 1102SOL    HW2 4407   8.423   7.988   7.611
 1102SOL     MW 4408   8.502   7.962   7.634
 1103SOL     OW 4409   8.827   7.942   9.810
 1103SOL    HW1 4410   8.851   7.994   9.733
 1103SOL    HW2 4411   8.881   7.864   9.804
 1103SOL     MW 4412   8.837   7.939   9.799
 1104SOL     OW 4413   3.085   3.900   9.746
 1104SOL    HW1 4414   3.115   3.979   9.701
 1104SOL    HW2 4415   3.029   3.932   9.817
 1104SOL     MW 4416   3.081   3.915   9.749
 1105SOL     OW 4417   9.926   7.607   6.226
 1105SOL    HW1 4418   9.922   7.607   6.130
 1105SOL    HW2 4419   9.915   7.515   6.250
 1105SOL     MW 4420   9.924   7.594   6.216
 1106SOL     OW 4421   0.506   0.734   7.924
 1106SOL    HW1 4422   0.446   0.712   7.995
 1106SOL    HW2 4423   0.514   0.653   7.873
 1106SOL     MW 4424   0.499   0.720   7.927
 1107SOL     OW 4425   2.533   5.367   1.267
 1107SOL    HW1 4426   2.450   5.360   1.221
 1107SOL    HW2 4427   2.574   5.281   1.255
 1107SOL     MW 4428   2.528   5.355   1.259
 1108SOL     OW 4429   5.359  10.070   6.227
 1108SOL    HW1 4430   5.353   9.979   6.199
 1108SOL    HW2 4431   5.407  10.066   6.309
 1108SOL     MW 4432   5.365  10.057   6.234
 1109SOL     OW 4433   1.910   4.157   8.252
 1109SOL    HW1 4434   1.815   4.146   8.246
 1109SOL    HW2 4435   1.925   4.246   8.221
 1109SOL     MW 4436   1.899   4.167   8.247
 1110SOL     OW 4437   2.778   3.079   0.671
 1110SOL    HW1 4438   2.865   3.092   0.709
 1110SOL    HW2 4439   2.783   3.119   0.584
 1110SOL     MW 4440   2.791   3.086   0.664
 1111SOL     OW 4441   0.329   7.866   5.505
 1111SOL    HW1 4442   0.342   7.955   5.472
 1111SOL    HW2 4443   0.407   7.848   5.557
 1111SOL     MW 4444   0.341   7.876   5.507
 1112SOL     OW 4445   4.337   6.700   8.676
 1112SOL    HW1 4446   4.243   6.707   8.693
 1112SOL    HW2 4447   4.370   6.641   8.744
 1112SOL     MW 4448   4.329   6.693   8.688
 1113SOL     OW 4449   6.074   7.667   4.498
 1113SOL    HW1 4450   6.051   7.599   4.561
 1113SOL    HW2 4451   6.170   7.663   4.492
 1113SOL     MW 4452   6.084   7.658   4.506
 1114SOL     OW 4453   7.932   3.789   2.081
 1114SOL    HW1 4454   7.903   3.852   2.015
 1114SOL    HW2 4455   7.954   3.710   2.031
 1114SOL     MW 4456   7.931   3.787   2.066
 1115SOL     OW 4457   4.729   5.410   3.511
 1115SOL    HW1 4458   4.793   5.480   3.521
 1115SOL    HW2 4459   4.744   5.377   3.422
 1115SOL     MW 4460   4.740   5.415   3.500
 1116SOL     OW 4461   4.877   4.390   5.761
 1116SOL    HW1 4462   4.917   4.304   5.771
 1116SOL    HW2 4463   4.928   4.433   5.693
 1116SOL     MW 4464   4.889   4.384   5.753
 1117SOL     OW 4465   2.503   2.026   0.418
 1117SOL    HW1 4466   2.548   1.948   0.385
 1117SOL    HW2 4467   2.569   2.095   0.414
 1117SOL     MW 4468   2.518   2.025   0.413
 1118SOL     OW 4469   6.462   2.897   0.485
 1118SOL    HW1 4470   6.409   2.913   0.563
 1118SOL    HW2 4471   6.418   2.946   0.416
 1118SOL     MW 4472   6.449   2.906   0.486
 1119SOL     OW 4473   9.281   6.841   0.408
 1119SOL    HW1 4474   9.374   6.849   0.427
 1119SOL    HW2 4475   9.247   6.783   0.475
 1119SOL     MW 4476   9.289   6.835   0.419
 1120SOL     OW 4477   4.528   2.875   1.482
 1120SOL    HW1 4478   4.484   2.909   1.404
 1120SOL    HW2 4479   4.489   2.789   1.496
 1120SOL     MW 4480   4.517   2.868   1.473
 1121SOL     OW 4481   2.677   2.459   1.294
 1121SOL    HW1 4482   2.762   2.504   1.296
 1121SOL    HW2 4483   2.625   2.504   1.361
 1121SOL     MW 4484   2.682   2.471   1.303
 1122SOL     OW 4485   9.661   2.250   2.619
 1122SOL    HW1 4486   9.625   2.250   2.708
 1122SOL    HW2 4487   9.721   2.176   2.617
 1122SOL     MW 4488   9.664   2.240   2.631
 1123SOL     OW 4489   2.122   5.318   0.640
 1123SOL    HW1 4490   2.151   5.279   0.558
 1123SOL    HW2 4491   2.176   5.275   0.707
 1123SOL     MW 4492   2.133   5.307   0.638
 1124SOL     OW 4493   2.683   7.618   6.884
 1124SOL    HW1 4494   2.689   7.623   6.979
 1124SOL    HW2 4495   2.739   7.544   6.860
 1124SOL     MW 4496   2.691   7.609   6.893
 1125SOL     OW 4497   6.104   5.796   0.531
 1125SOL    HW1 4498   6.099   5.754   0.616
 1125SOL    HW2 4499   6.104   5.724   0.468
 1125SOL     MW 4500   6.104   5.781   0.534
 1126SOL     OW 4501   2.150   1.395   7.652
 1126SOL    HW1 4502   2.166   1.479   7.609
 1126SOL    HW2 4503   2.233   1.373   7.694
 1126SOL     MW 4504   2.163   1.403   7.652
 1127SOL     OW 4505   8.044   9.098   6.333
 1127SOL    HW1 4506   7.972   9.155   6.308
 1127SOL    HW2 4507   8.114   9.118   6.271
 1127SOL     MW 4508   8.043   9.108   6.321
 1128SOL     OW 4509   6.596   2.242   0.638
 1128SOL    HW1 4510   6.568   2.247   0.546
 1128SOL    HW2 4511   6.649   2.321   0.651
 1128SOL     MW 4512   6.599   2.254   0.627
 1129SOL     OW 4513   0.488   3.341   5.725
 1129SOL    HW1 4514   0.538   3.402   5.671
 1129SOL    HW2 4515   0.503   3.370   5.815
 1129SOL     MW 4516   0.497   3.353   5.730
 1130SOL     OW 4517   4.283   4.563   6.613
 1130SOL    HW1 4518   4.210   4.524   6.660
 1130SOL    HW2 4519   4.256   4.565   6.521
 1130SOL     MW 4520   4.270   4.558   6.607
 1131SOL     OW 4521   9.987   4.683   7.755
 1131SOL    HW1 4522  10.029   4.600   7.735
 1131SOL    HW2 4523   9.922   4.662   7.822
 1131SOL     MW 4524   9.984   4.669   7.762
 1132SOL     OW 4525   7.562   2.061   7.395
 1132SOL    HW1 4526   7.601   2.037   7.311
 1132SOL    HW2 4527   7.635   2.098   7.445
 1132SOL     MW 4528   7.577   2.063   7.390
 1133SOL     OW 4529   4.083   2.577   5.331
 1133SOL    HW1 4530   4.148   2.549   5.396
 1133SOL    HW2 4531   4.049   2.495   5.296
 1133SOL     MW 4532   4.087   2.562   5.335
 1134SOL     OW 4533   9.418   8.521   7.480
 1134SOL    HW1 4534   9.419   8.436   7.525
 1134SOL    HW2 4535   9.454   8.502   7.393
 1134SOL     MW 4536   9.423   8.507   7.474
 1135SOL     OW 4537   8.835   4.244   6.528
 1135SOL    HW1 4538   8.784   4.261   6.448
 1135SOL    HW2 4539   8.911   4.195   6.498
 1135SOL     MW 4540   8.838   4.240   6.513
 1136SOL     OW 4541   1.400   6.302   0.108
 1136SOL    HW1 4542   1.493   6.309   0.127
 1136SOL    HW2 4543   1.392   6.227   0.049
 1136SOL     MW 4544   1.411   6.293   0.102
 1137SOL     OW 4545   1.032   4.833   4.031
 1137SOL    HW1 4546   1.031   4.871   3.943
 1137SOL    HW2 4547   1.059   4.906   4.087
 1137SOL     MW 4548   1.036   4.848   4.026
 1138SOL     OW 4549   5.144   9.706   4.687
 1138SOL    HW1 4550   5.102   9.641   4.631
 1138SOL    HW2 4551   5.093   9.705   4.768
 1138SOL     MW 4552   5.132   9.697   4.690
 1139SOL     OW 4553   5.386   0.739   1.060
 1139SOL    HW1 4554   5.458   0.803   1.057
 1139SOL    HW2 4555   5.426   0.657   1.032
 1139SOL     MW 4556   5.401   0.737   1.056
 1140SOL     OW 4557   8.202   4.803   2.049
 1140SOL    HW1 4558   8.241   4.878   2.004
 1140SOL    HW2 4559   8.276   4.758   2.090
 1140SOL     MW 4560   8.217   4.807   2.049
 1141SOL     OW 4561   6.118   6.907   8.018
 1141SOL    HW1 4562   6.037   6.954   8.035
 1141SOL    HW2 4563   6.098   6.816   8.041
 1141SOL     MW 4564   6.104   6.901   8.023
 1142SOL     OW 4565   8.064   1.321   0.100
 1142SOL    HW1 4566   8.110   1.330   0.183
 1142SOL    HW2 4567   8.085   1.233   0.070
 1142SOL     MW 4568   8.073   1.311   0.107
 1143SOL     OW 4569   8.565   4.425   7.229
 1143SOL    HW1 4570   8.517   4.342   7.228
 1143SOL    HW2 4571   8.590   4.437   7.321
 1143SOL     MW 4572   8.562   4.416   7.241
 1144SOL     OW 4573   0.320   8.388   1.810
 1144SOL    HW1 4574   0.251   8.378   1.745
 1144SOL    HW2 4575   0.394   8.426   1.762
 1144SOL     MW 4576   0.321   8.392   1.795
 1145SOL     OW 4577   4.493   6.812   8.190
 1145SOL    HW1 4578   4.416   6.866   8.174
 1145SOL    HW2 4579   4.496   6.802   8.285
 1145SOL     MW 4580   4.483   6.818   8.201
 1146SOL     OW 4581   0.719   7.083   8.837
 1146SOL    HW1 4582   0.650   7.017   8.830
 1146SOL    HW2 4583   0.735   7.111   8.747
 1146SOL     MW 4584   0.712   7.078   8.824
 1147SOL     OW 4585   3.343   2.681   2.486
 1147SOL    HW1 4586   3.359   2.774   2.495
 1147SOL    HW2 4587   3.285   2.659   2.559
 1147SOL     MW 4588   3.337   2.690   2.497
 1148SOL     OW 4589   7.944   8.057   4.056
 1148SOL    HW1 4590   7.856   8.066   4.020
 1148SOL    HW2 4591   7.955   7.963   4.068
 1148SOL     MW 4592   7.934   8.046   4.053
 1149SOL     OW 4593   2.139   4.994   5.340
 1149SOL    HW1 4594   2.169   4.904   5.327
 1149SOL    HW2 4595   2.183   5.045   5.272
 1149SOL     MW 4596   2.149   4.989   5.329
 1150SOL     OW 4597   6.292   3.456   4.924
 1150SOL    HW1 4598   6.198   3.459   4.945
 1150SOL    HW2 4599   6.330   3.527   4.975
 1150SOL     MW 4600   6.284   3.466   4.934
 1151SOL     OW 4601   0.899   3.480   5.471
 1151SOL    HW1 4602   0.921   3.568   5.499
 1151SOL    HW2 4603   0.940   3.423   5.536
 1151SOL     MW 4604   0.907   3.484   5.483
 1152SOL     OW 4605   1.669   3.555   8.965
 1152SOL    HW1 4606   1.707   3.638   8.934
 1152SOL    HW2 4607   1.576   3.574   8.974
 1152SOL     MW 4608   1.662   3.569   8.962
 1153SOL     OW 4609   1.991   4.266   7.897
 1153SOL    HW1 4610   2.056   4.266   7.826
 1153SOL    HW2 4611   1.990   4.175   7.928
 1153SOL     MW 4612   2.000   4.254   7.891
 1154SOL     OW 4613   4.427   7.947   1.511
 1154SOL    HW1 4614   4.390   7.899   1.437
 1154SOL    HW2 4615   4.502   7.894   1.538
 1154SOL     MW 4616   4.432   7.933   1.505
 1155SOL     OW 4617   5.139   2.923   3.876
 1155SOL    HW1 4618   5.156   2.992   3.813
 1155SOL    HW2 4619   5.047   2.901   3.863
 1155SOL     MW 4620   5.129   2.929   3.866
 1156SOL     OW 4621   6.941   5.769   2.200
 1156SOL    HW1 4622   7.000   5.844   2.205
 1156SOL    HW2 4623   6.854   5.807   2.209
 1156SOL     MW 4624   6.938   5.784   2.202
 1157SOL     OW 4625   8.502   3.002   1.218
 1157SOL    HW1 4626   8.593   3.026   1.233
 1157SOL    HW2 4627   8.487   3.022   1.125
 1157SOL     MW 4628   8.512   3.008   1.207
 1158SOL     OW 4629   8.353   7.061   5.170
 1158SOL    HW1 4630   8.325   7.026   5.085
 1158SOL    HW2 4631   8.437   7.018   5.187
 1158SOL     MW 4632   8.361   7.050   5.161
 1159SOL     OW 4633   7.099   6.118   1.310
 1159SOL    HW1 4634   7.105   6.064   1.231
 1159SOL    HW2 4635   7.150   6.196   1.289
 1159SOL     MW 4636   7.107   6.121   1.297
 1160SOL     OW 4637   4.561   2.968   9.601
 1160SOL    HW1 4638   4.498   2.975   9.673
 1160SOL    HW2 4639   4.516   3.008   9.527
 1160SOL     MW 4640   4.546   2.974   9.601
 1161SOL     OW 4641   9.213   4.313   6.601
 1161SOL    HW1 4642   9.258   4.392   6.570
 1161SOL    HW2 4643   9.136   4.346   6.647
 1161SOL     MW 4644   9.209   4.328   6.603
 1162SOL     OW 4645   0.156   2.627   0.603
 1162SOL    HW1 4646   0.111   2.710   0.618
 1162SOL    HW2 4647   0.153   2.583   0.688
 1162SOL     MW 4648   0.150   2.632   0.617
 1163SOL     OW 4649   5.710   8.950   3.040
 1163SOL    HW1 4650   5.770   8.942   3.113
 1163SOL    HW2 4651   5.752   8.903   2.968
 1163SOL     MW 4652   5.724   8.943   3.040
 1164SOL     OW 4653   5.963   3.853   6.505
 1164SOL    HW1 4654   5.978   3.796   6.581
 1164SOL    HW2 4655   5.882   3.820   6.466
 1164SOL     MW 4656   5.954   3.841   6.510
 1165SOL     OW 4657  10.037   5.059   6.707
 1165SOL    HW1 4658   9.942   5.052   6.721
 1165SOL    HW2 4659  10.063   5.136   6.758
 1165SOL     MW 4660  10.027   5.069   6.716
 1166SOL     OW 4661   3.619   4.853   7.502
 1166SOL    HW1 4662   3.651   4.942   7.518
 1166SOL    HW2 4663   3.536   4.848   7.548
 1166SOL     MW 4664   3.612   4.864   7.510
 1167SOL     OW 4665   8.155   7.922   1.526
 1167SOL    HW1 4666   8.209   7.843   1.532
 1167SOL    HW2 4667   8.078   7.904   1.580
 1167SOL     MW 4668   8.152   7.909   1.534
 1168SOL     OW 4669   3.218   1.176   3.046
 1168SOL    HW1 4670   3.275   1.190   3.122
 1168SOL    HW2 4671   3.172   1.259   3.035
 1168SOL     MW 4672   3.219   1.189   3.055
 1169SOL     OW 4673   7.539   9.348   3.683
 1169SOL    HW1 4674   7.552   9.290   3.758
 1169SOL    HW2 4675   7.602   9.419   3.697
 1169SOL     MW 4676   7.550   9.350   3.695
 1170SOL     OW 4677   0.573   6.009   7.450
 1170SOL    HW1 4678   0.505   6.065   7.488
 1170SOL    HW2 4679   0.568   5.928   7.500
 1170SOL     MW 4680   0.563   6.005   7.462
 1171SOL     OW 4681   9.484   8.174   7.164
 1171SOL    HW1 4682   9.401   8.136   7.133
 1171SOL    HW2 4683   9.543   8.099   7.169
 1171SOL     MW 4684   9.481   8.159   7.160
 1172SOL     OW 4685   4.256   7.893   2.647
 1172SOL    HW1 4686   4.243   7.890   2.742
 1172SOL    HW2 4687   4.314   7.967   2.633
 1172SOL     MW 4688   4.262   7.902   2.658
 1173SOL     OW 4689   0.873   9.583   5.197
 1173SOL    HW1 4690   0.956   9.624   5.173
 1173SOL    HW2 4691   0.807   9.648   5.176
 1173SOL     MW 4692   0.875   9.597   5.191
 1174SOL     OW 4693   5.038   7.733   0.260
 1174SOL    HW1 4694   5.037   7.686   0.177
 1174SOL    HW2 4695   4.961   7.700   0.307
 1174SOL     MW 4696   5.027   7.722   0.255
 1175SOL     OW 4697   5.229   8.224   9.988
 1175SOL    HW1 4698   5.278   8.307   9.983
 1175SOL    HW2 4699   5.256   8.176   9.909
 1175SOL     MW 4700   5.239   8.229   9.976
 1176SOL     OW 4701   8.401   5.510   4.251
 1176SOL    HW1 4702   8.404   5.443   4.183
 1176SOL    HW2 4703   8.334   5.572   4.221
 1176SOL     MW 4704   8.392   5.510   4.238
 1177SOL     OW 4705   0.531   8.737   3.266
 1177SOL    HW1 4706   0.518   8.739   3.172
 1177SOL    HW2 4707   0.626   8.732   3.277
 1177SOL     MW 4708   0.542   8.737   3.255
 1178SOL     OW 4709   3.774   4.203   3.401
 1178SOL    HW1 4710   3.690   4.237   3.371
 1178SOL    HW2 4711   3.770   4.109   3.382
 1178SOL     MW 4712   3.762   4.195   3.395
 1179SOL     OW 4713   0.922   3.397   3.232
 1179SOL    HW1 4714   0.896   3.419   3.322
 1179SOL    HW2 4715   0.949   3.306   3.236
 1179SOL     MW 4716   0.922   3.388   3.245
 1180SOL     OW 4717   9.585   9.365   0.321
 1180SOL    HW1 4718   9.533   9.349   0.243
 1180SOL    HW2 4719   9.665   9.406   0.289
 1180SOL     MW 4720   9.588   9.368   0.306
 1181SOL     OW 4721   0.069   6.487   6.685
 1181SOL    HW1 4722   0.039   6.518   6.601
 1181SOL    HW2 4723   0.142   6.428   6.664
 1181SOL     MW 4724   0.075   6.483   6.671
 1182SOL     OW 4725   9.599   0.522   6.023
 1182SOL    HW1 4726   9.690   0.533   5.995
 1182SOL    HW2 4727   9.574   0.437   5.988
 1182SOL     MW 4728   9.608   0.512   6.015
 1183SOL     OW 4729   5.286   0.183   0.766
 1183SOL    HW1 4730   5.211   0.181   0.825
 1183SOL    HW2 4731   5.249   0.165   0.680
 1183SOL     MW 4732   5.271   0.180   0.762
 1184SOL     OW 4733   5.801   0.993   9.511
 1184SOL    HW1 4734   5.824   0.973   9.602
 1184SOL    HW2 4735   5.801   1.089   9.507
 1184SOL     MW 4736   5.804   1.003   9.523
 1185SOL     OW 4737   4.056   6.459   6.516
 1185SOL    HW1 4738   4.049   6.524   6.587
 1185SOL    HW2 4739   4.112   6.390   6.553
 1185SOL     MW 4740   4.063   6.459   6.531
 1186SOL     OW 4741   4.654   4.322   5.619
 1186SOL    HW1 4742   4.725   4.350   5.676
 1186SOL    HW2 4743   4.578   4.371   5.650
 1186SOL     MW 4744   4.653   4.333   5.631
 1187SOL     OW 4745   3.977   5.775   8.708
 1187SOL    HW1 4746   4.018   5.856   8.679
 1187SOL    HW2 4747   3.888   5.778   8.672
 1187SOL     MW 4748   3.971   5.786   8.699
 1188SOL     OW 4749   5.800   5.901   3.166
 1188SOL    HW1 4750   5.827   5.863   3.082
 1188SOL    HW2 4751   5.875   5.886   3.223
 1188SOL     MW 4752   5.814   5.894   3.162
 1189SOL     OW 4753   1.525   3.826   7.295
 1189SOL    HW1 4754   1.570   3.878   7.362
 1189SOL    HW2 4755   1.522   3.738   7.333
 1189SOL     MW 4756   1.531   3.821   7.309
 1190SOL     OW 4757   3.964   6.786   7.241
 1190SOL    HW1 4758   3.949   6.869   7.285
 1190SOL    HW2 4759   3.957   6.806   7.148
 1190SOL     MW 4760   3.961   6.800   7.234
 1191SOL     OW 4761   0.182   4.920   4.259
 1191SOL    HW1 4762   0.264   4.874   4.245
 1191SOL    HW2 4763   0.144   4.879   4.337
 1191SOL     MW 4764   0.188   4.908   4.268
 1192SOL     OW 4765   7.375   6.533   2.334
 1192SOL    HW1 4766   7.411   6.580   2.409
 1192SOL    HW2 4767   7.445   6.473   2.308
 1192SOL     MW 4768   7.389   6.531   2.340
 1193SOL     OW 4769   6.758   2.886   7.918
 1193SOL    HW1 4770   6.803   2.956   7.965
 1193SOL    HW2 4771   6.697   2.850   7.982
 1193SOL     MW 4772   6.756   2.890   7.933
 1194SOL     OW 4773   2.979   5.972   9.599
 1194SOL    HW1 4774   3.036   5.988   9.674
 1194SOL    HW2 4775   3.037   5.975   9.523
 1194SOL     MW 4776   2.994   5.975   9.599
 1195SOL     OW 4777   0.552   7.421   3.274
 1195SOL    HW1 4778   0.630   7.375   3.242
 1195SOL    HW2 4779   0.479   7.367   3.244
 1195SOL     MW 4780   0.553   7.407   3.266
 1196SOL     OW 4781   4.361   4.289   7.609
 1196SOL    HW1 4782   4.387   4.203   7.576
 1196SOL    HW2 4783   4.266   4.284   7.617
 1196SOL     MW 4784   4.352   4.277   7.605
 1197SOL     OW 4785   1.839   0.648   5.148
 1197SOL    HW1 4786   1.849   0.615   5.237
 1197SOL    HW2 4787   1.929   0.668   5.120
 1197SOL     MW 4788   1.853   0.646   5.156
 1198SOL     OW 4789   2.130   6.611   2.588
 1198SOL    HW1 4790   2.155   6.661   2.511
 1198SOL    HW2 4791   2.037   6.590   2.575
 1198SOL     MW 4792   2.120   6.615   2.576
 1199SOL     OW 4793   1.993   5.344   5.696
 1199SOL    HW1 4794   2.053   5.399   5.646
 1199SOL    HW2 4795   1.982   5.266   5.641
 1199SOL     MW 4796   2.000   5.341   5.682
 1200SOL     OW 4797   7.689   8.157   3.995
 1200SOL    HW1 4798   7.737   8.232   4.030
 1200SOL    HW2 4799   7.632   8.129   4.067
 1200SOL     MW 4800   7.688   8.163   4.009
 1201SOL     OW 4801   5.369   0.912   4.783
 1201SOL    HW1 4802   5.439   0.921   4.847
 1201SOL    HW2 4803   5.362   0.818   4.767
 1201SOL     MW 4804   5.377   0.901   4.790
 1202SOL     OW 4805   0.064   0.818   7.288
 1202SOL    HW1 4806   0.152   0.780   7.287
 1202SOL    HW2 4807   0.078   0.909   7.312
 1202SOL     MW 4808   0.078   0.825   7.291
 1203SOL     OW 4809   2.538   4.161   8.770
 1203SOL    HW1 4810   2.456   4.155   8.819
 1203SOL    HW2 4811   2.526   4.234   8.710
 1203SOL     MW 4812   2.525   4.170   8.769
 1204SOL     OW 4813   8.224   5.663   9.852
 1204SOL    HW1 4814   8.213   5.758   9.852
 1204SOL    HW2 4815   8.179   5.633   9.773
 1204SOL     MW 4816   8.216   5.672   9.842
 1205SOL     OW 4817   2.359   6.075   3.336
 1205SOL    HW1 4818   2.323   6.163   3.337
 1205SOL    HW2 4819   2.408   6.070   3.254
 1205SOL     MW 4820   2.360   6.086   3.325
 1206SOL     OW 4821   1.578   4.690   6.332
 1206SOL    HW1 4822   1.486   4.706   6.354
 1206SOL    HW2 4823   1.582   4.596   6.313
 1206SOL     MW 4824   1.566   4.679   6.332
 1207SOL     OW 4825   3.799   5.780   7.338
 1207SOL    HW1 4826   3.744   5.760   7.262
 1207SOL    HW2 4827   3.833   5.868   7.319
 1207SOL     MW 4828   3.796   5.789   7.325
 1208SOL     OW 4829   1.138   0.002   3.537
 1208SOL    HW1 4830   1.208  -0.058   3.511
 1208SOL    HW2 4831   1.172   0.089   3.518
 1208SOL     MW 4832   1.152   0.005   3.531
 1209SOL     OW 4833   2.034   9.728   3.724
 1209SOL    HW1 4834   2.120   9.755   3.690
 1209SOL    HW2 4835   1.973   9.791   3.687
 1209SOL     MW 4836   2.037   9.740   3.715
 1210SOL     OW 4837   4.488   4.387   7.845
 1210SOL    HW1 4838   4.441   4.357   7.768
 1210SOL    HW2 4839   4.580   4.370   7.825
 1210SOL     MW 4840   4.494   4.381   7.832
 1211SOL     OW 4841   4.373   4.314   7.323
 1211SOL    HW1 4842   4.372   4.328   7.418
 1211SOL    HW2 4843   4.282   4.326   7.296
 1211SOL     MW 4844   4.361   4.317   7.332
 1212SOL     OW 4845   3.153   1.161   5.791
 1212SOL    HW1 4846   3.190   1.234   5.742
 1212SOL    HW2 4847   3.229   1.106   5.812
 1212SOL     MW 4848   3.168   1.163   5.787
 1213SOL     OW 4849   6.256   3.918   8.295
 1213SOL    HW1 4850   6.250   3.825   8.271
 1213SOL    HW2 4851   6.318   3.920   8.367
 1213SOL     MW 4852   6.263   3.906   8.301
 1214SOL     OW 4853   0.534   0.388   1.448
 1214SOL    HW1 4854   0.496   0.454   1.390
 1214SOL    HW2 4855   0.627   0.386   1.426
 1214SOL     MW 4856   0.541   0.396   1.437
 1215SOL     OW 4857   9.373   8.684  10.079
 1215SOL    HW1 4858   9.342   8.734  10.155
 1215SOL    HW2 4859   9.418   8.749  10.025
 1215SOL     MW 4860   9.375   8.700  10.082
 1216SOL     OW 4861   0.598   6.414   0.784
 1216SOL    HW1 4862   0.684   6.375   0.768
 1216SOL    HW2 4863   0.538   6.339   0.793
 1216SOL     MW 4864   0.601   6.399   0.783
 1217SOL     OW 4865   7.726   0.837   4.594
 1217SOL    HW1 4866   7.640   0.797   4.590
 1217SOL    HW2 4867   7.716   0.920   4.548
 1217SOL     MW 4868   7.713   0.843   4.587
 1218SOL     OW 4869   7.577   7.140   4.003
 1218SOL    HW1 4870   7.531   7.203   4.058
 1218SOL    HW2 4871   7.655   7.187   3.972
 1218SOL     MW 4872   7.581   7.155   4.006
 1219SOL     OW 4873   4.491   5.550   3.545
 1219SOL    HW1 4874   4.573   5.501   3.543
 1219SOL    HW2 4875   4.509   5.631   3.497
 1219SOL     MW 4876   4.504   5.555   3.539
 1220SOL     OW 4877   1.002   4.764   7.585
 1220SOL    HW1 4878   0.978   4.775   7.493
 1220SOL    HW2 4879   1.073   4.700   7.583
 1220SOL     MW 4880   1.008   4.756   7.572
 1221SOL     OW 4881   7.397   9.830   8.817
 1221SOL    HW1 4882   7.437   9.850   8.733
 1221SOL    HW2 4883   7.449   9.880   8.881
 1221SOL     MW 4884   7.410   9.839   8.814
 1222SOL     OW 4885   0.525   7.527   3.791
 1222SOL    HW1 4886   0.534   7.512   3.697
 1222SOL    HW2 4887   0.530   7.622   3.800
 1222SOL     MW 4888   0.527   7.538   3.779
 1223SOL     OW 4889   3.558   7.154   4.579
 1223SOL    HW1 4890   3.501   7.224   4.548
 1223SOL    HW2 4891   3.609   7.193   4.649
 1223SOL     MW 4892   3.557   7.169   4.584
 1224SOL     OW 4893   4.794   5.980   1.123
 1224SOL    HW1 4894   4.886   5.976   1.150
 1224SOL    HW2 4895   4.781   5.902   1.069
 1224SOL     MW 4896   4.805   5.969   1.119
 1225SOL     OW 4897   0.266   0.735   8.365
 1225SOL    HW1 4898   0.177   0.703   8.377
 1225SOL    HW2 4899   0.257   0.831   8.367
 1225SOL     MW 4900   0.253   0.744   8.367
 1226SOL     OW 4901   4.244   7.082   6.385
 1226SOL    HW1 4902   4.300   7.158   6.369
 1226SOL    HW2 4903   4.210   7.058   6.298
 1226SOL     MW 4904   4.247   7.089   6.371
 1227SOL     OW 4905   8.253   5.977   1.762
 1227SOL    HW1 4906   8.320   5.998   1.697
 1227SOL    HW2 4907   8.170   5.987   1.715
 1227SOL     MW 4908   8.251   5.981   1.747
 1228SOL     OW 4909   0.661   7.789   1.214
 1228SOL    HW1 4910   0.712   7.847   1.158
 1228SOL    HW2 4911   0.576   7.782   1.170
 1228SOL     MW 4912   0.657   7.796   1.200
 1229SOL     OW 4913   3.951   6.889   5.925
 1229SOL    HW1 4914   3.978   6.975   5.956
 1229SOL    HW2 4915   3.975   6.829   5.996
 1229SOL     MW 4916   3.958   6.892   5.939
 1230SOL     OW 4917   0.814   0.135   7.090
 1230SOL    HW1 4918   0.729   0.105   7.057
 1230SOL    HW2 4919   0.803   0.229   7.103
 1230SOL     MW 4920   0.801   0.144   7.087
 1231SOL     OW 4921   6.054   4.792   2.916
 1231SOL    HW1 4922   5.990   4.748   2.972
 1231SOL    HW2 4923   6.080   4.869   2.966
 1231SOL     MW 4924   6.049   4.796   2.930
 1232SOL     OW 4925   1.139   4.671   8.249
 1232SOL    HW1 4926   1.136   4.624   8.332
 1232SOL    HW2 4927   1.220   4.640   8.207
 1232SOL     MW 4928   1.150   4.660   8.254
 1233SOL     OW 4929   3.188   2.835   3.084
 1233SOL    HW1 4930   3.268   2.786   3.064
 1233SOL    HW2 4931   3.164   2.806   3.173
 1233SOL     MW 4932   3.196   2.824   3.094
 1234SOL     OW 4933   0.553   5.752   7.569
 1234SOL    HW1 4934   0.473   5.699   7.566
 1234SOL    HW2 4935   0.608   5.709   7.635
 1234SOL     MW 4936   0.549   5.739   7.578
 1235SOL     OW 4937   4.981   1.828   4.663
 1235SOL    HW1 4938   5.014   1.758   4.607
 1235SOL    HW2 4939   4.994   1.796   4.752
 1235SOL     MW 4940   4.987   1.815   4.667
 1236SOL     OW 4941   4.954   3.058   1.597
 1236SOL    HW1 4942   4.904   3.003   1.536
 1236SOL    HW2 4943   5.001   2.996   1.652
 1236SOL     MW 4944   4.953   3.042   1.596
 1237SOL     OW 4945   4.184   4.913   9.252
 1237SOL    HW1 4946   4.246   4.859   9.301
 1237SOL    HW2 4947   4.124   4.947   9.318
 1237SOL     MW 4948   4.184   4.910   9.267
 1238SOL     OW 4949   7.937   3.670   8.513
 1238SOL    HW1 4950   7.846   3.670   8.483
 1238SOL    HW2 4951   7.932   3.640   8.604
 1238SOL     MW 4952   7.924   3.666   8.521
 1239SOL     OW 4953   5.758   2.449   5.806
 1239SOL    HW1 4954   5.685   2.470   5.864
 1239SOL    HW2 4955   5.743   2.358   5.781
 1239SOL     MW 4956   5.746   2.439   5.810
 1240SOL     OW 4957   2.087   0.067   2.682
 1240SOL    HW1 4958   2.046   0.060   2.595
 1240SOL    HW2 4959   2.181   0.072   2.664
 1240SOL     MW 4960   2.094   0.067   2.668
 1241SOL     OW 4961   6.420   9.108   2.472
 1241SOL    HW1 4962   6.505   9.146   2.496
 1241SOL    HW2 4963   6.358   9.179   2.482
 1241SOL     MW 4964   6.423   9.122   2.477
 1242SOL     OW 4965   2.402   7.485   5.791
 1242SOL    HW1 4966   2.401   7.579   5.777
 1242SOL    HW2 4967   2.428   7.475   5.883
 1242SOL     MW 4968   2.406   7.496   5.802
 1243SOL     OW 4969   4.767   1.441   3.110
 1243SOL    HW1 4970   4.797   1.382   3.179
 1243SOL    HW2 4971   4.788   1.396   3.028
 1243SOL     MW 4972   4.774   1.427   3.108
 1244SOL     OW 4973   4.502   6.618   7.018
 1244SOL    HW1 4974   4.548   6.702   7.026
 1244SOL    HW2 4975   4.487   6.591   7.109
 1244SOL     MW 4976   4.506   6.625   7.031
 1245SOL     OW 4977   0.281   0.850   0.355
 1245SOL    HW1 4978   0.231   0.771   0.373
 1245SOL    HW2 4979   0.246   0.883   0.272
 1245SOL     MW 4980   0.269   0.844   0.346
 1246SOL     OW 4981   6.169   4.668   6.509
 1246SOL    HW1 4982   6.237   4.733   6.528
 1246SOL    HW2 4983   6.170   4.609   6.585
 1246SOL     MW 4984   6.178   4.669   6.522
 1247SOL     OW 4985   8.259   8.104   2.856
 1247SOL    HW1 4986   8.310   8.116   2.776
 1247SOL    HW2 4987   8.179   8.154   2.841
 1247SOL     MW 4988   8.255   8.112   2.843
 1248SOL     OW 4989   4.835   5.193   3.654
 1248SOL    HW1 4990   4.869   5.230   3.735
 1248SOL    HW2 4991   4.793   5.267   3.609
 1248SOL     MW 4992   4.834   5.208   3.659
 1249SOL     OW 4993   6.898   4.663   8.890
 1249SOL    HW1 4994   6.864   4.651   8.801
 1249SOL    HW2 4995   6.863   4.748   8.918
 1249SOL     MW 4996   6.889   4.673   8.882
 1250SOL     OW 4997   2.370   3.694   9.007
 1250SOL    HW1 4998   2.395   3.637   9.079
 1250SOL    HW2 4999   2.400   3.781   9.034
 1250SOL     MW 5000   2.378   3.698   9.020
 1251SOL     OW 5001   0.425   6.921  10.069
 1251SOL    HW1 5002   0.494   6.859  10.092
 1251SOL    HW2 5003   0.352   6.899  10.127
 1251SOL     MW 5004   0.424   6.910  10.080
 1252SOL     OW 5005   4.397   9.025   8.315
 1252SOL    HW1 5006   4.459   8.990   8.379
 1252SOL    HW2 5007   4.440   9.102   8.279
 1252SOL     MW 5008   4.411   9.030   8.319
 1253SOL     OW 5009   4.426   0.245   7.494
 1253SOL    HW1 5010   4.521   0.249   7.478
 1253SOL    HW2 5011   4.418   0.226   7.587
 1253SOL     MW 5012   4.438   0.243   7.504
 1254SOL     OW 5013   1.922   9.902   2.382
 1254SOL    HW1 5014   1.853   9.924   2.318
 1254SOL    HW2 5015   1.875   9.881   2.462
 1254SOL     MW 5016   1.907   9.902   2.384
 1255SOL     OW 5017   9.285   7.801   1.905
 1255SOL    HW1 5018   9.255   7.791   1.996
 1255SOL    HW2 5019   9.295   7.895   1.894
 1255SOL     MW 5020   9.283   7.812   1.916
 1256SOL     OW 5021   4.900   6.273   8.840
 1256SOL    HW1 5022   4.895   6.178   8.828
 1256SOL    HW2 5023   4.987   6.287   8.877
 1256SOL     MW 5024   4.911   6.262   8.844
 1257SOL     OW 5025   0.791   7.343   1.483
 1257SOL    HW1 5026   0.735   7.286   1.430
 1257SOL    HW2 5027   0.784   7.429   1.441
 1257SOL     MW 5028   0.783   7.347   1.470
 1258SOL     OW 5029   5.949   5.158   2.573
 1258SOL    HW1 5030   5.862   5.178   2.537
 1258SOL    HW2 5031   5.937   5.076   2.621
 1258SOL     MW 5032   5.935   5.149   2.575
 1259SOL     OW 5033   6.407   2.885   3.266
 1259SOL    HW1 5034   6.347   2.818   3.231
 1259SOL    HW2 5035   6.349   2.952   3.302
 1259SOL     MW 5036   6.391   2.885   3.266
 1260SOL     OW 5037   9.941   6.106   4.293
 1260SOL    HW1 5038  10.019   6.139   4.337
 1260SOL    HW2 5039   9.876   6.098   4.363
 1260SOL     MW 5040   9.943   6.109   4.308
 1261SOL     OW 5041   7.547   0.183   7.052
 1261SOL    HW1 5042   7.562   0.112   7.115
 1261SOL    HW2 5043   7.619   0.176   6.990
 1261SOL     MW 5044   7.559   0.172   7.052
 1262SOL     OW 5045   2.374   7.093   2.911
 1262SOL    HW1 5046   2.384   7.148   2.833
 1262SOL    HW2 5047   2.400   7.005   2.882
 1262SOL     MW 5048   2.379   7.088   2.896
 1263SOL     OW 5049   6.865   4.923   8.988
 1263SOL    HW1 5050   6.959   4.908   8.994
 1263SOL    HW2 5051   6.837   4.937   9.078
 1263SOL     MW 5052   6.874   4.923   9.001
 1264SOL     OW 5053   3.165   7.670   8.916
 1264SOL    HW1 5054   3.094   7.734   8.917
 1264SOL    HW2 5055   3.125   7.590   8.883
 1264SOL     MW 5056   3.151   7.668   8.912
 1265SOL     OW 5057   3.207   8.350   6.047
 1265SOL    HW1 5058   3.131   8.368   5.993
 1265SOL    HW2 5059   3.175   8.290   6.115
 1265SOL     MW 5060   3.192   8.344   6.049
 1266SOL     OW 5061   3.513   4.715   0.489
 1266SOL    HW1 5062   3.509   4.729   0.583
 1266SOL    HW2 5063   3.499   4.801   0.451
 1266SOL     MW 5064   3.510   4.728   0.496
 1267SOL     OW 5065   2.130   6.465   8.615
 1267SOL    HW1 5066   2.078   6.433   8.688
 1267SOL    HW2 5067   2.075   6.452   8.538
 1267SOL     MW 5068   2.116   6.459   8.614
 1268SOL     OW 5069   9.612   2.511   0.511
 1268SOL    HW1 5070   9.687   2.453   0.527
 1268SOL    HW2 5071   9.598   2.506   0.417
 1268SOL     MW 5072   9.620   2.502   0.501
 1269SOL     OW 5073   1.963   9.698   6.427
 1269SOL    HW1 5074   1.982   9.638   6.499
 1269SOL    HW2 5075   2.011   9.663   6.352
 1269SOL     MW 5076   1.972   9.685   6.427
 1270SOL     OW 5077   3.279   4.873   9.789
 1270SOL    HW1 5078   3.259   4.822   9.710
 1270SOL    HW2 5079   3.309   4.808   9.852
 1270SOL     MW 5080   3.281   4.857   9.787
 1271SOL     OW 5081   5.316   9.629   4.900
 1271SOL    HW1 5082   5.372   9.702   4.928
 1271SOL    HW2 5083   5.285   9.655   4.813
 1271SOL     MW 5084   5.319   9.642   4.892
 1272SOL     OW 5085   6.238   0.260   8.411
 1272SOL    HW1 5086   6.151   0.281   8.444
 1272SOL    HW2 5087   6.286   0.229   8.488
 1272SOL     MW 5088   6.233   0.258   8.426
 1273SOL     OW 5089   9.823   3.227   0.781
 1273SOL    HW1 5090   9.767   3.257   0.853
 1273SOL    HW2 5091   9.789   3.140   0.760
 1273SOL     MW 5092   9.811   3.219   0.788
 1274SOL     OW 5093   7.293   4.257   4.581
 1274SOL    HW1 5094   7.352   4.182   4.583
 1274SOL    HW2 5095   7.209   4.220   4.552
 1274SOL     MW 5096   7.289   4.242   4.578
 1275SOL     OW 5097   1.339   9.688   4.556
 1275SOL    HW1 5098   1.270   9.633   4.593
 1275SOL    HW2 5099   1.318   9.777   4.585
 1275SOL     MW 5100   1.327   9.693   4.565
 1276SOL     OW 5101   0.844   9.575   0.596
 1276SOL    HW1 5102   0.891   9.659   0.594
 1276SOL    HW2 5103   0.753   9.598   0.578
 1276SOL     MW 5104   0.838   9.589   0.593
 1277SOL     OW 5105   6.459   0.805   0.997
 1277SOL    HW1 5106   6.462   0.731   0.936
 1277SOL    HW2 5107   6.449   0.882   0.941
 1277SOL     MW 5108   6.458   0.805   0.981
 1278SOL     OW 5109   3.384   5.174   8.620
 1278SOL    HW1 5110   3.436   5.197   8.697
 1278SOL    HW2 5111   3.444   5.123   8.565
 1278SOL     MW 5112   3.399   5.170   8.623
 1279SOL     OW 5113   8.125   2.168   0.138
 1279SOL    HW1 5114   8.173   2.205   0.064
 1279SOL    HW2 5115   8.061   2.109   0.098
 1279SOL     MW 5116   8.123   2.165   0.123
 1280SOL     OW 5117   9.344   8.884   1.939
 1280SOL    HW1 5118   9.362   8.947   2.009
 1280SOL    HW2 5119   9.397   8.915   1.866
 1280SOL     MW 5120   9.353   8.897   1.939
 1281SOL     OW 5121   8.721   1.029   1.381
 1281SOL    HW1 5122   8.807   1.062   1.356
 1281SOL    HW2 5123   8.659   1.087   1.336
 1281SOL     MW 5124   8.724   1.041   1.372
 1282SOL     OW 5125   0.583   5.773   7.284
 1282SOL    HW1 5126   0.585   5.738   7.373
 1282SOL    HW2 5127   0.584   5.868   7.295
 1282SOL     MW 5128   0.583   5.781   7.297
 1283SOL     OW 5129   9.662   1.114   1.251
 1283SOL    HW1 5130   9.653   1.022   1.225
 1283SOL    HW2 5131   9.638   1.115   1.344
 1283SOL     MW 5132   9.658   1.101   1.260
 1284SOL     OW 5133   1.441   9.102   9.772
 1284SOL    HW1 5134   1.367   9.060   9.817
 1284SOL    HW2 5135   1.418   9.195   9.769
 1284SOL     MW 5136   1.428   9.109   9.777
 1285SOL     OW 5137   4.507   4.489   7.153
 1285SOL    HW1 5138   4.554   4.425   7.099
 1285SOL    HW2 5139   4.458   4.435   7.215
 1285SOL     MW 5140   4.506   4.473   7.154
 1286SOL     OW 5141   2.036   5.690   2.508
 1286SOL    HW1 5142   2.007   5.723   2.422
 1286SOL    HW2 5143   1.955   5.663   2.551
 1286SOL     MW 5144   2.021   5.691   2.502
 1287SOL     OW 5145   1.163   9.799   9.684
 1287SOL    HW1 5146   1.244   9.775   9.729
 1287SOL    HW2 5147   1.167   9.894   9.676
 1287SOL     MW 5148   1.175   9.809   9.689
 1288SOL     OW 5149   8.883   8.154   9.981
 1288SOL    HW1 5150   8.866   8.076   9.929
 1288SOL    HW2 5151   8.829   8.144  10.059
 1288SOL     MW 5152   8.874   8.142   9.985
 1289SOL     OW 5153   9.379   1.649   8.160
 1289SOL    HW1 5154   9.351   1.683   8.245
 1289SOL    HW2 5155   9.444   1.582   8.182
 1289SOL     MW 5156   9.384   1.644   8.175
 1290SOL     OW 5157   3.590   2.678   0.894
 1290SOL    HW1 5158   3.661   2.740   0.910
 1290SOL    HW2 5159   3.519   2.707   0.951
 1290SOL     MW 5160   3.590   2.690   0.904
 1291SOL     OW 5161   8.309   6.589   0.408
 1291SOL    HW1 5162   8.383   6.582   0.348
 1291SOL    HW2 5163   8.339   6.549   0.489
 1291SOL     MW 5164   8.323   6.583   0.411
 1292SOL     OW 5165   4.317   5.187   6.542
 1292SOL    HW1 5166   4.403   5.171   6.503
 1292SOL    HW2 5167   4.335   5.241   6.619
 1292SOL     MW 5168   4.331   5.192   6.547
 1293SOL     OW 5169   8.456   9.792   1.927
 1293SOL    HW1 5170   8.371   9.827   1.956
 1293SOL    HW2 5171   8.448   9.784   1.832
 1293SOL     MW 5172   8.443   9.795   1.918
 1294SOL     OW 5173   6.330   0.825   2.254
 1294SOL    HW1 5174   6.308   0.783   2.337
 1294SOL    HW2 5175   6.414   0.867   2.270
 1294SOL     MW 5176   6.338   0.825   2.267
 1295SOL     OW 5177   5.448   3.570   1.464
 1295SOL    HW1 5178   5.463   3.511   1.390
 1295SOL    HW2 5179   5.402   3.517   1.528
 1295SOL     MW 5180   5.444   3.555   1.463
 1296SOL     OW 5181   3.802   6.359   6.443
 1296SOL    HW1 5182   3.887   6.394   6.472
 1296SOL    HW2 5183   3.784   6.404   6.360
 1296SOL     MW 5184   3.811   6.370   6.436
 1297SOL     OW 5185   0.823   5.838   4.303
 1297SOL    HW1 5186   0.791   5.846   4.393
 1297SOL    HW2 5187   0.917   5.853   4.310
 1297SOL     MW 5188   0.832   5.841   4.316
 1298SOL     OW 5189   5.035   9.476   1.537
 1298SOL    HW1 5190   5.083   9.405   1.494
 1298SOL    HW2 5191   4.995   9.525   1.465
 1298SOL     MW 5192   5.036   9.473   1.521
 1299SOL     OW 5193   0.997   8.447   8.678
 1299SOL    HW1 5194   1.091   8.467   8.681
 1299SOL    HW2 5195   0.959   8.520   8.630
 1299SOL     MW 5196   1.004   8.460   8.672
 1300SOL     OW 5197   9.738   2.836   7.446
 1300SOL    HW1 5198   9.681   2.767   7.413
 1300SOL    HW2 5199   9.726   2.833   7.541
 1300SOL     MW 5200   9.729   2.826   7.454
 1301SOL     OW 5201   1.305   1.189   3.585
 1301SOL    HW1 5202   1.346   1.233   3.511
 1301SOL    HW2 5203   1.255   1.118   3.547
 1301SOL     MW 5204   1.304   1.186   3.570
 1302SOL     OW 5205   6.250   0.034   8.243
 1302SOL    HW1 5206   6.241   0.115   8.294
 1302SOL    HW2 5207   6.169   0.029   8.191
 1302SOL     MW 5208   6.238   0.045   8.243
 1303SOL     OW 5209   2.704   9.870   9.112
 1303SOL    HW1 5210   2.742   9.794   9.157
 1303SOL    HW2 5211   2.624   9.836   9.072
 1303SOL     MW 5212   2.699   9.855   9.113
 1304SOL     OW 5213   3.777   1.528   6.839
 1304SOL    HW1 5214   3.824   1.542   6.757
 1304SOL    HW2 5215   3.839   1.557   6.906
 1304SOL     MW 5216   3.792   1.534   6.837
 1305SOL     OW 5217   6.801   7.296   7.015
 1305SOL    HW1 5218   6.797   7.201   7.024
 1305SOL    HW2 5219   6.754   7.315   6.933
 1305SOL     MW 5220   6.794   7.286   7.005
 1306SOL     OW 5221   5.268   7.788   1.712
 1306SOL    HW1 5222   5.195   7.829   1.759
 1306SOL    HW2 5223   5.342   7.846   1.727
 1306SOL     MW 5224   5.268   7.801   1.720
 1307SOL     OW 5225   2.106   9.985   7.183
 1307SOL    HW1 5226   2.052   9.927   7.236
 1307SOL    HW2 5227   2.049  10.011   7.110
 1307SOL     MW 5228   2.091   9.981   7.181
 1308SOL     OW 5229   7.051   3.574   7.369
 1308SOL    HW1 5230   7.088   3.531   7.291
 1308SOL    HW2 5231   7.073   3.667   7.357
 1308SOL     MW 5232   7.059   3.581   7.357
 1309SOL     OW 5233   8.523   6.026   4.059
 1309SOL    HW1 5234   8.546   5.972   3.983
 1309SOL    HW2 5235   8.536   6.116   4.029
 1309SOL     MW 5236   8.528   6.031   4.044
 1310SOL     OW 5237   9.161   5.632   4.983
 1310SOL    HW1 5238   9.119   5.547   4.970
 1310SOL    HW2 5239   9.101   5.695   4.942
 1310SOL     MW 5240   9.147   5.629   4.976
 1311SOL     OW 5241   8.334   2.619   5.150
 1311SOL    HW1 5242   8.401   2.551   5.164
 1311SOL    HW2 5243   8.384   2.697   5.126
 1311SOL     MW 5244   8.350   2.620   5.149
 1312SOL     OW 5245   2.759   6.144   3.376
 1312SOL    HW1 5246   2.715   6.210   3.322
 1312SOL    HW2 5247   2.784   6.075   3.314
 1312SOL     MW 5248   2.757   6.144   3.360
 1313SOL     OW 5249   3.841   3.093   3.340
 1313SOL    HW1 5250   3.751   3.108   3.312
 1313SOL    HW2 5251   3.891   3.164   3.302
 1313SOL     MW 5252   3.836   3.104   3.331
 1314SOL     OW 5253   0.008   9.377   3.267
 1314SOL    HW1 5254   0.073   9.321   3.309
 1314SOL    HW2 5255   0.052   9.411   3.189
 1314SOL     MW 5256   0.023   9.374   3.262
 1315SOL     OW 5257   9.715   5.794   9.502
 1315SOL    HW1 5258   9.723   5.710   9.457
 1315SOL    HW2 5259   9.682   5.772   9.589
 1315SOL     MW 5260   9.712   5.780   9.508
 1316SOL     OW 5261  10.155   1.726   8.727
 1316SOL    HW1 5262  10.163   1.643   8.774
 1316SOL    HW2 5263  10.080   1.769   8.767
 1316SOL     MW 5264  10.146   1.720   8.739
 1317SOL     OW 5265   5.777   2.160   3.564
 1317SOL    HW1 5266   5.704   2.206   3.604
 1317SOL    HW2 5267   5.844   2.158   3.632
 1317SOL     MW 5268   5.776   2.166   3.578
 1318SOL     OW 5269   7.907   5.636   0.360
 1318SOL    HW1 5270   7.987   5.588   0.382
 1318SOL    HW2 5271   7.837   5.571   0.368
 1318SOL     MW 5272   7.909   5.621   0.364
 1319SOL     OW 5273   6.731   1.838   9.426
 1319SOL    HW1 5274   6.728   1.873   9.337
 1319SOL    HW2 5275   6.730   1.916   9.482
 1319SOL     MW 5276   6.730   1.853   9.422
 1320SOL     OW 5277   1.726   2.813   2.106
 1320SOL    HW1 5278   1.794   2.794   2.170
 1320SOL    HW2 5279   1.649   2.768   2.139
 1320SOL     MW 5280   1.725   2.804   2.119
 1321SOL     OW 5281   0.039   6.384   4.160
 1321SOL    HW1 5282   0.099   6.357   4.091
 1321SOL    HW2 5283  -0.048   6.359   4.128
 1321SOL     MW 5284   0.035   6.377   4.147
 1322SOL     OW 5285   7.159   9.457   9.471
 1322SOL    HW1 5286   7.160   9.368   9.505
 1322SOL    HW2 5287   7.100   9.454   9.395
 1322SOL     MW 5288   7.151   9.445   9.466
 1323SOL     OW 5289   4.931   4.739   5.473
 1323SOL    HW1 5290   4.989   4.808   5.443
 1323SOL    HW2 5291   4.853   4.747   5.417
 1323SOL     MW 5292   4.928   4.750   5.462
 1324SOL     OW 5293   6.936   8.367   4.609
 1324SOL    HW1 5294   7.019   8.400   4.643
 1324SOL    HW2 5295   6.904   8.308   4.677
 1324SOL     MW 5296   6.943   8.363   4.623
 1325SOL     OW 5297   7.489   5.144   4.865
 1325SOL    HW1 5298   7.485   5.177   4.776
 1325SOL    HW2 5299   7.400   5.111   4.882
 1325SOL     MW 5300   7.476   5.144   4.856
 1326SOL     OW 5301   2.045   8.565   8.160
 1326SOL    HW1 5302   2.015   8.632   8.223
 1326SOL    HW2 5303   2.095   8.614   8.095
 1326SOL     MW 5304   2.047   8.581   8.160
 1327SOL     OW 5305   9.587   1.218   5.303
 1327SOL    HW1 5306   9.677   1.183   5.300
 1327SOL    HW2 5307   9.579   1.253   5.392
 1327SOL     MW 5308   9.598   1.218   5.315
 1328SOL     OW 5309   2.740   7.586   3.431
 1328SOL    HW1 5310   2.675   7.652   3.407
 1328SOL    HW2 5311   2.775   7.616   3.514
 1328SOL     MW 5312   2.736   7.599   3.439
 1329SOL     OW 5313   1.307   6.793   7.271
 1329SOL    HW1 5314   1.353   6.737   7.334
 1329SOL    HW2 5315   1.365   6.796   7.195
 1329SOL     MW 5316   1.321   6.786   7.269
 1330SOL     OW 5317   7.746   7.547   0.362
 1330SOL    HW1 5318   7.782   7.519   0.278
 1330SOL    HW2 5319   7.653   7.525   0.357
 1330SOL     MW 5320   7.738   7.540   0.350
 1331SOL     OW 5321   6.444   7.921   5.390
 1331SOL    HW1 5322   6.483   7.937   5.476
 1331SOL    HW2 5323   6.513   7.879   5.339
 1331SOL     MW 5324   6.459   7.918   5.395
 1332SOL     OW 5325   1.651   1.161   9.556
 1332SOL    HW1 5326   1.721   1.193   9.613
 1332SOL    HW2 5327   1.693   1.149   9.471
 1332SOL     MW 5328   1.666   1.164   9.552
 1333SOL     OW 5329   3.636   4.196   4.084
 1333SOL    HW1 5330   3.695   4.133   4.125
 1333SOL    HW2 5331   3.625   4.266   4.148
 1333SOL     MW 5332   3.642   4.197   4.098
 1334SOL     OW 5333   4.045   4.227   3.325
 1334SOL    HW1 5334   3.951   4.238   3.343
 1334SOL    HW2 5335   4.059   4.276   3.244
 1334SOL     MW 5336   4.034   4.235   3.317
 1335SOL     OW 5337   2.891   3.824   6.179
 1335SOL    HW1 5338   2.817   3.778   6.140
 1335SOL    HW2 5339   2.854   3.904   6.215
 1335SOL     MW 5340   2.876   3.829   6.179
 1336SOL     OW 5341   3.562   5.026   8.467
 1336SOL    HW1 5342   3.611   5.057   8.390
 1336SOL    HW2 5343   3.549   4.932   8.450
 1336SOL     MW 5344   3.567   5.017   8.454
 1337SOL     OW 5345   0.737   1.016   4.983
 1337SOL    HW1 5346   0.775   1.082   5.041
 1337SOL    HW2 5347   0.656   1.056   4.952
 1337SOL     MW 5348   0.731   1.030   4.987
 1338SOL     OW 5349   4.325   5.461   1.173
 1338SOL    HW1 5350   4.301   5.436   1.263
 1338SOL    HW2 5351   4.298   5.552   1.166
 1338SOL     MW 5352   4.318   5.470   1.185
 1339SOL     OW 5353   9.906   6.760   3.347
 1339SOL    HW1 5354   9.915   6.833   3.408
 1339SOL    HW2 5355   9.947   6.792   3.266
 1339SOL     MW 5356   9.913   6.774   3.344
 1340SOL     OW 5357   5.544   5.016   8.937
 1340SOL    HW1 5358   5.623   4.988   8.983
 1340SOL    HW2 5359   5.493   4.936   8.926
 1340SOL     MW 5360   5.547   5.001   8.942
 1341SOL     OW 5361   8.874   3.490   0.507
 1341SOL    HW1 5362   8.918   3.465   0.425
 1341SOL    HW2 5363   8.945   3.522   0.563
 1341SOL     MW 5364   8.890   3.491   0.504
 1342SOL     OW 5365   5.046   6.897   1.117
 1342SOL    HW1 5366   5.087   6.841   1.183
 1342SOL    HW2 5367   5.067   6.986   1.145
 1342SOL     MW 5368   5.055   6.901   1.130
 1343SOL     OW 5369   3.759   4.346   0.593
 1343SOL    HW1 5370   3.709   4.386   0.665
 1343SOL    HW2 5371   3.850   4.349   0.623
 1343SOL     MW 5372   3.764   4.352   0.607
 1344SOL     OW 5373   9.807   1.548   6.614
 1344SOL    HW1 5374   9.770   1.593   6.538
 1344SOL    HW2 5375   9.738   1.552   6.680
 1344SOL     MW 5376   9.793   1.555   6.613
 1345SOL     OW 5377   2.772   9.091   3.400
 1345SOL    HW1 5378   2.749   9.110   3.491
 1345SOL    HW2 5379   2.688   9.089   3.354
 1345SOL     MW 5380   2.757   9.093   3.406
 1346SOL     OW 5381   4.373   5.053   7.681
 1346SOL    HW1 5382   4.326   5.132   7.652
 1346SOL    HW2 5383   4.349   4.986   7.617
 1346SOL     MW 5384   4.363   5.055   7.668
 1347SOL     OW 5385   3.674   4.221   0.173
 1347SOL    HW1 5386   3.677   4.187   0.263
 1347SOL    HW2 5387   3.608   4.168   0.129
 1347SOL     MW 5388   3.666   4.209   0.179
 1348SOL     OW 5389   1.326   3.482   4.919
 1348SOL    HW1 5390   1.243   3.451   4.954
 1348SOL    HW2 5391   1.378   3.504   4.996
 1348SOL     MW 5392   1.322   3.481   4.934
 1349SOL     OW 5393   9.178   7.625   1.207
 1349SOL    HW1 5394   9.243   7.556   1.193
 1349SOL    HW2 5395   9.094   7.579   1.208
 1349SOL     MW 5396   9.176   7.609   1.205
 1350SOL     OW 5397   5.153  10.111   1.831
 1350SOL    HW1 5398   5.181  10.202   1.819
 1350SOL    HW2 5399   5.081  10.100   1.769
 1350SOL     MW 5400   5.147  10.122   1.821
 1351SOL     OW 5401   2.511   4.163   9.948
 1351SOL    HW1 5402   2.509   4.071   9.920
 1351SOL    HW2 5403   2.595   4.173   9.993
 1351SOL     MW 5404   2.522   4.152   9.950
 1352SOL     OW 5405   3.948   0.407   1.062
 1352SOL    HW1 5406   3.946   0.491   1.016
 1352SOL    HW2 5407   3.881   0.416   1.130
 1352SOL     MW 5408   3.939   0.420   1.065
 1353SOL     OW 5409   0.726   4.120   5.208
 1353SOL    HW1 5410   0.819   4.140   5.197
 1353SOL    HW2 5411   0.689   4.201   5.243
 1353SOL     MW 5412   0.734   4.134   5.211
 1354SOL     OW 5413   6.280   8.263   9.623
 1354SOL    HW1 5414   6.285   8.228   9.535
 1354SOL    HW2 5415   6.318   8.351   9.617
 1354SOL     MW 5416   6.286   8.270   9.611
 1355SOL     OW 5417   2.531   9.030   2.464
 1355SOL    HW1 5418   2.462   8.968   2.441
 1355SOL    HW2 5419   2.595   8.979   2.513
 1355SOL     MW 5420   2.530   9.015   2.467
 1356SOL     OW 5421   5.120   9.970   6.337
 1356SOL    HW1 5422   5.185  10.030   6.301
 1356SOL    HW2 5423   5.037  10.015   6.329
 1356SOL     MW 5424   5.118   9.984   6.331
 1357SOL     OW 5425   4.898   2.874   5.825
 1357SOL    HW1 5426   4.833   2.812   5.790
 1357SOL    HW2 5427   4.898   2.947   5.762
 1357SOL     MW 5428   4.889   2.876   5.812
 1358SOL     OW 5429   8.225   3.214   1.830
 1358SOL    HW1 5430   8.258   3.271   1.761
 1358SOL    HW2 5431   8.145   3.176   1.793
 1358SOL     MW 5432   8.219   3.217   1.816
 1359SOL     OW 5433   8.135   1.195   9.409
 1359SOL    HW1 5434   8.040   1.197   9.420
 1359SOL    HW2 5435   8.169   1.251   9.479
 1359SOL     MW 5436   8.127   1.203   9.420
 1360SOL     OW 5437   5.757   0.099   5.881
 1360SOL    HW1 5438   5.827   0.155   5.916
 1360SOL    HW2 5439   5.685   0.109   5.944
 1360SOL     MW 5440   5.756   0.108   5.894
 1361SOL     OW 5441   2.113   6.057   6.333
 1361SOL    HW1 5442   2.165   5.981   6.360
 1361SOL    HW2 5443   2.116   6.116   6.409
 1361SOL     MW 5444   2.121   6.055   6.347
 1362SOL     OW 5445   2.893   6.267   4.728
 1362SOL    HW1 5446   2.799   6.262   4.712
 1362SOL    HW2 5447   2.931   6.201   4.670
 1362SOL     MW 5448   2.886   6.257   4.718
 1363SOL     OW 5449   0.253   2.836   9.257
 1363SOL    HW1 5450   0.316   2.893   9.301
 1363SOL    HW2 5451   0.290   2.823   9.170
 1363SOL     MW 5452   0.266   2.842   9.251
 1364SOL     OW 5453   3.206   2.205   0.246
 1364SOL    HW1 5454   3.228   2.240   0.159
 1364SOL    HW2 5455   3.233   2.273   0.307
 1364SOL     MW 5456   3.213   2.219   0.242
 1365SOL     OW 5457   0.773   7.522   8.844
 1365SOL    HW1 5458   0.863   7.499   8.865
 1365SOL    HW2 5459   0.760   7.608   8.883
 1365SOL     MW 5460   0.783   7.530   8.852
 1366SOL     OW 5461   2.073   7.171   5.830
 1366SOL    HW1 5462   2.128   7.225   5.773
 1366SOL    HW2 5463   2.102   7.081   5.813
 1366SOL     MW 5464   2.085   7.166   5.820
 1367SOL     OW 5465   0.200   6.843   0.072
 1367SOL    HW1 5466   0.137   6.899   0.117
 1367SOL    HW2 5467   0.249   6.801   0.143
 1367SOL     MW 5468   0.198   6.845   0.088
 1368SOL     OW 5469   8.983   7.020   6.040
 1368SOL    HW1 5470   8.931   7.100   6.029
 1368SOL    HW2 5471   9.035   7.016   5.960
 1368SOL     MW 5472   8.983   7.031   6.027
 1369SOL     OW 5473   5.250   9.747   5.305
 1369SOL    HW1 5474   5.323   9.805   5.284
 1369SOL    HW2 5475   5.276   9.662   5.268
 1369SOL     MW 5476   5.263   9.743   5.297
 1370SOL     OW 5477   2.417   5.382   7.050
 1370SOL    HW1 5478   2.374   5.301   7.077
 1370SOL    HW2 5479   2.352   5.450   7.063
 1370SOL     MW 5480   2.403   5.380   7.055
 1371SOL     OW 5481   4.547   2.642   5.984
 1371SOL    HW1 5482   4.528   2.726   6.026
 1371SOL    HW2 5483   4.605   2.597   6.045
 1371SOL     MW 5484   4.552   2.647   5.998
 1372SOL     OW 5485   3.223   2.948   6.523
 1372SOL    HW1 5486   3.166   2.897   6.580
 1372SOL    HW2 5487   3.261   2.884   6.464
 1372SOL     MW 5488   3.220   2.933   6.523
 1373SOL     OW 5489   4.760   7.947   3.320
 1373SOL    HW1 5490   4.781   8.012   3.253
 1373SOL    HW2 5491   4.784   7.989   3.402
 1373SOL     MW 5492   4.766   7.961   3.322
 1374SOL     OW 5493   7.900   6.758   8.220
 1374SOL    HW1 5494   7.854   6.793   8.143
 1374SOL    HW2 5495   7.954   6.687   8.185
 1374SOL     MW 5496   7.901   6.753   8.205
 1375SOL     OW 5497   9.435   2.128   4.818
 1375SOL    HW1 5498   9.442   2.032   4.819
 1375SOL    HW2 5499   9.424   2.152   4.910
 1375SOL     MW 5500   9.434   2.118   4.831
 1376SOL     OW 5501   2.269   9.939   6.957
 1376SOL    HW1 5502   2.233   9.939   7.046
 1376SOL    HW2 5503   2.360   9.911   6.969
 1376SOL     MW 5504   2.277   9.936   6.971
 1377SOL     OW 5505   5.297   1.379   1.331
 1377SOL    HW1 5506   5.233   1.320   1.291
 1377SOL    HW2 5507   5.279   1.376   1.424
 1377SOL     MW 5508   5.286   1.371   1.338
 1378SOL     OW 5509   9.140   0.798   7.543
 1378SOL    HW1 5510   9.232   0.786   7.521
 1378SOL    HW2 5511   9.116   0.720   7.593
 1378SOL     MW 5512   9.149   0.786   7.547
 1379SOL     OW 5513   6.771   1.192   7.234
 1379SOL    HW1 5514   6.828   1.116   7.225
 1379SOL    HW2 5515   6.711   1.186   7.160
 1379SOL     MW 5516   6.770   1.181   7.223
 1380SOL     OW 5517   1.093   8.656   1.618
 1380SOL    HW1 5518   1.164   8.661   1.681
 1380SOL    HW2 5519   1.039   8.584   1.647
 1380SOL     MW 5520   1.095   8.647   1.630
 1381SOL     OW 5521   1.939   9.988   1.026
 1381SOL    HW1 5522   1.928  10.048   0.952
 1381SOL    HW2 5523   2.008  10.028   1.079
 1381SOL     MW 5524   1.947  10.001   1.023
 1382SOL     OW 5525   6.520   8.705   7.618
 1382SOL    HW1 5526   6.576   8.714   7.541
 1382SOL    HW2 5527   6.552   8.627   7.662
 1382SOL     MW 5528   6.532   8.696   7.613
 1383SOL     OW 5529   2.633   7.597   7.160
 1383SOL    HW1 5530   2.560   7.549   7.120
 1383SOL    HW2 5531   2.593   7.675   7.198
 1383SOL     MW 5532   2.618   7.601   7.160
 1384SOL     OW 5533   2.897   7.189   7.298
 1384SOL    HW1 5534   2.878   7.280   7.276
 1384SOL    HW2 5535   2.890   7.142   7.215
 1384SOL     MW 5536   2.894   7.195   7.284
 1385SOL     OW 5537   2.368   7.051   4.840
 1385SOL    HW1 5538   2.439   7.028   4.900
 1385SOL    HW2 5539   2.406   7.115   4.780
 1385SOL     MW 5540   2.383   7.056   4.840
 1386SOL     OW 5541   9.998   8.124   2.678
 1386SOL    HW1 5542  10.067   8.120   2.612
 1386SOL    HW2 5543  10.012   8.208   2.722
 1386SOL     MW 5544  10.009   8.135   2.675
 1387SOL     OW 5545   4.470   9.027   9.320
 1387SOL    HW1 5546   4.492   9.115   9.352
 1387SOL    HW2 5547   4.484   8.970   9.396
 1387SOL     MW 5548   4.475   9.031   9.335
 1388SOL     OW 5549   2.321   6.814   2.129
 1388SOL    HW1 5550   2.327   6.780   2.039
 1388SOL    HW2 5551   2.406   6.855   2.145
 1388SOL     MW 5552   2.333   6.815   2.119
 1389SOL     OW 5553   7.988   3.670   7.136
 1389SOL    HW1 5554   7.939   3.750   7.154
 1389SOL    HW2 5555   7.923   3.600   7.140
 1389SOL     MW 5556   7.973   3.671   7.139
 1390SOL     OW 5557   4.942   8.217   3.746
 1390SOL    HW1 5558   4.900   8.298   3.717
 1390SOL    HW2 5559   5.031   8.222   3.711
 1390SOL     MW 5560   4.948   8.228   3.737
 1391SOL     OW 5561   3.893   5.108   2.306
 1391SOL    HW1 5562   3.981   5.143   2.290
 1391SOL    HW2 5563   3.899   5.016   2.281
 1391SOL     MW 5564   3.906   5.100   2.301
 1392SOL     OW 5565   1.255   6.923   4.892
 1392SOL    HW1 5566   1.226   6.852   4.834
 1392SOL    HW2 5567   1.316   6.974   4.839
 1392SOL     MW 5568   1.259   6.921   4.877
 1393SOL     OW 5569   4.195   8.065   8.042
 1393SOL    HW1 5570   4.291   8.069   8.045
 1393SOL    HW2 5571   4.167   8.154   8.061
 1393SOL     MW 5572   4.204   8.078   8.045
 1394SOL     OW 5573   3.794   7.891   2.715
 1394SOL    HW1 5574   3.864   7.871   2.653
 1394SOL    HW2 5575   3.840   7.917   2.795
 1394SOL     MW 5576   3.810   7.892   2.718
 1395SOL     OW 5577   7.786   1.719   8.057
 1395SOL    HW1 5578   7.758   1.792   8.001
 1395SOL    HW2 5579   7.872   1.748   8.091
 1395SOL     MW 5580   7.794   1.733   8.054
 1396SOL     OW 5581   7.984   5.818   5.339
 1396SOL    HW1 5582   7.988   5.727   5.308
 1396SOL    HW2 5583   7.934   5.813   5.421
 1396SOL     MW 5584   7.978   5.805   5.346
 1397SOL     OW 5585   4.134   3.007   3.750
 1397SOL    HW1 5586   4.074   2.953   3.801
 1397SOL    HW2 5587   4.078   3.059   3.693
 1397SOL     MW 5588   4.119   3.006   3.749
 1398SOL     OW 5589   4.218   1.471   4.678
 1398SOL    HW1 5590   4.172   1.454   4.597
 1398SOL    HW2 5591   4.203   1.393   4.732
 1398SOL     MW 5592   4.210   1.458   4.675
 1399SOL     OW 5593   7.656   1.507   4.050
 1399SOL    HW1 5594   7.745   1.540   4.050
 1399SOL    HW2 5595   7.634   1.496   3.957
 1399SOL     MW 5596   7.665   1.510   4.038
 1400SOL     OW 5597  10.117   0.933   8.529
 1400SOL    HW1 5598  10.127   0.918   8.623
 1400SOL    HW2 5599  10.134   0.847   8.489
 1400SOL     MW 5600  10.121   0.919   8.536
 1401SOL     OW 5601   2.613   9.801   0.575
 1401SOL    HW1 5602   2.581   9.874   0.522
 1401SOL    HW2 5603   2.646   9.841   0.655
 1401SOL     MW 5604   2.613   9.816   0.578
 1402SOL     OW 5605   9.734   2.926   9.794
 1402SOL    HW1 5606   9.718   2.935   9.888
 1402SOL    HW2 5607   9.744   2.832   9.779
 1402SOL     MW 5608   9.733   2.915   9.804
 1403SOL     OW 5609  10.057   2.192   9.985
 1403SOL    HW1 5610  10.083   2.212   9.895
 1403SOL    HW2 5611  10.119   2.124  10.013
 1403SOL     MW 5612  10.069   2.185   9.977
 1404SOL     OW 5613   6.124   9.447   1.542
 1404SOL    HW1 5614   6.170   9.426   1.460
 1404SOL    HW2 5615   6.055   9.508   1.515
 1404SOL     MW 5616   6.121   9.452   1.527
 1405SOL     OW 5617   1.973   4.018   8.025
 1405SOL    HW1 5618   2.049   3.961   8.040
 1405SOL    HW2 5619   1.958   4.061   8.109
 1405SOL     MW 5620   1.981   4.016   8.038
 1406SOL     OW 5621   1.313   2.740   7.621
 1406SOL    HW1 5622   1.386   2.696   7.664
 1406SOL    HW2 5623   1.235   2.712   7.670
 1406SOL     MW 5624   1.312   2.731   7.633
 1407SOL     OW 5625   0.691   4.170   1.548
 1407SOL    HW1 5626   0.774   4.196   1.589
 1407SOL    HW2 5627   0.648   4.252   1.527
 1407SOL     MW 5628   0.697   4.184   1.551
 1408SOL     OW 5629   9.777   7.948   0.369
 1408SOL    HW1 5630   9.871   7.966   0.364
 1408SOL    HW2 5631   9.771   7.859   0.403
 1408SOL     MW 5632   9.789   7.939   0.373
 1409SOL     OW 5633   8.114   9.630   8.079
 1409SOL    HW1 5634   8.184   9.693   8.060
 1409SOL    HW2 5635   8.128   9.560   8.015
 1409SOL     MW 5636   8.125   9.629   8.068
 1410SOL     OW 5637   2.293   8.059   2.956
 1410SOL    HW1 5638   2.332   8.052   2.869
 1410SOL    HW2 5639   2.366   8.042   3.016
 1410SOL     MW 5640   2.308   8.056   2.952
 1411SOL     OW 5641   9.127   7.585   3.195
 1411SOL    HW1 5642   9.078   7.546   3.268
 1411SOL    HW2 5643   9.155   7.510   3.143
 1411SOL     MW 5644   9.124   7.570   3.198
 1412SOL     OW 5645   3.749   8.785   2.287
 1412SOL    HW1 5646   3.815   8.718   2.305
 1412SOL    HW2 5647   3.676   8.761   2.344
 1412SOL     MW 5648   3.748   8.772   2.297
 1413SOL     OW 5649   8.989   5.755   3.207
 1413SOL    HW1 5650   8.913   5.717   3.162
 1413SOL    HW2 5651   9.063   5.735   3.151
 1413SOL     MW 5652   8.988   5.747   3.193
 1414SOL     OW 5653   0.821   6.935   4.889
 1414SOL    HW1 5654   0.896   6.972   4.934
 1414SOL    HW2 5655   0.764   7.009   4.872
 1414SOL     MW 5656   0.823   6.950   4.893
 1415SOL     OW 5657   4.868   0.711   7.352
 1415SOL    HW1 5658   4.915   0.711   7.269
 1415SOL    HW2 5659   4.919   0.769   7.409
 1415SOL     MW 5660   4.881   0.719   7.349
 1416SOL     OW 5661   0.324   3.272   7.645
 1416SOL    HW1 5662   0.393   3.320   7.691
 1416SOL    HW2 5663   0.347   3.280   7.552
 1416SOL     MW 5664   0.336   3.280   7.639
 1417SOL     OW 5665   9.745   7.909   4.026
 1417SOL    HW1 5666   9.661   7.950   4.049
 1417SOL    HW2 5667   9.728   7.815   4.031
 1417SOL     MW 5668   9.731   7.902   4.030
 1418SOL     OW 5669   4.897   0.639   8.886
 1418SOL    HW1 5670   4.973   0.625   8.942
 1418SOL    HW2 5671   4.823   0.602   8.935
 1418SOL     MW 5672   4.897   0.632   8.900
 1419SOL     OW 5673   4.809   8.406   5.549
 1419SOL    HW1 5674   4.717   8.433   5.554
 1419SOL    HW2 5675   4.827   8.369   5.636
 1419SOL     MW 5676   4.799   8.405   5.562
 1420SOL     OW 5677   3.289   6.918   1.309
 1420SOL    HW1 5678   3.339   6.983   1.259
 1420SOL    HW2 5679   3.204   6.914   1.265
 1420SOL     MW 5680   3.284   6.926   1.297
 1421SOL     OW 5681   4.090   5.684   0.125
 1421SOL    HW1 5682   4.001   5.693   0.092
 1421SOL    HW2 5683   4.100   5.756   0.187
 1421SOL     MW 5684   4.079   5.695   0.129
 1422SOL     OW 5685   1.767   8.749   9.663
 1422SOL    HW1 5686   1.707   8.821   9.644
 1422SOL    HW2 5687   1.766   8.696   9.583
 1422SOL     MW 5688   1.759   8.752   9.649
 1423SOL     OW 5689   7.471   3.249   8.534
 1423SOL    HW1 5690   7.478   3.344   8.531
 1423SOL    HW2 5691   7.553   3.217   8.496
 1423SOL     MW 5692   7.483   3.258   8.529
 1424SOL     OW 5693   2.715   8.905   3.082
 1424SOL    HW1 5694   2.782   8.884   3.147
 1424SOL    HW2 5695   2.653   8.961   3.128
 1424SOL     MW 5696   2.715   8.910   3.097
 1425SOL     OW 5697   9.867   4.945   9.361
 1425SOL    HW1 5698   9.897   5.012   9.423
 1425SOL    HW2 5699   9.942   4.931   9.303
 1425SOL     MW 5700   9.881   4.952   9.362
 1426SOL     OW 5701   6.021  10.132   8.092
 1426SOL    HW1 5702   5.997  10.151   8.002
 1426SOL    HW2 5703   6.014  10.037   8.099
 1426SOL     MW 5704   6.017  10.122   8.081
 1427SOL     OW 5705   6.020   0.328   3.352
 1427SOL    HW1 5706   6.048   0.256   3.407
 1427SOL    HW2 5707   6.043   0.407   3.401
 1427SOL     MW 5708   6.027   0.329   3.366
 1428SOL     OW 5709   4.875   7.729   0.667
 1428SOL    HW1 5710   4.821   7.806   0.654
 1428SOL    HW2 5711   4.864   7.677   0.587
 1428SOL     MW 5712   4.867   7.732   0.654
 1429SOL     OW 5713   5.590   4.488   6.916
 1429SOL    HW1 5714   5.555   4.577   6.907
 1429SOL    HW2 5715   5.538   4.436   6.855
 1429SOL     MW 5716   5.578   4.493   6.907
 1430SOL     OW 5717   2.785   4.219  10.012
 1430SOL    HW1 5718   2.820   4.283  10.073
 1430SOL    HW2 5719   2.762   4.270   9.934
 1430SOL     MW 5720   2.787   4.234  10.010
 1431SOL     OW 5721   8.953   0.051   1.974
 1431SOL    HW1 5722   8.920   0.100   2.049
 1431SOL    HW2 5723   9.025   0.104   1.940
 1431SOL     MW 5724   8.958   0.065   1.979
 1432SOL     OW 5725   9.207   3.604   3.407
 1432SOL    HW1 5726   9.197   3.589   3.501
 1432SOL    HW2 5727   9.300   3.623   3.395
 1432SOL     MW 5728   9.218   3.605   3.418
 1433SOL     OW 5729   1.702   0.721   4.459
 1433SOL    HW1 5730   1.647   0.799   4.471
 1433SOL    HW2 5731   1.653   0.650   4.501
 1433SOL     MW 5732   1.688   0.722   4.466
 1434SOL     OW 5733   7.166  10.122   7.639
 1434SOL    HW1 5734   7.115  10.145   7.561
 1434SOL    HW2 5735   7.177  10.204   7.686
 1434SOL     MW 5736   7.160  10.136   7.635
 1435SOL     OW 5737   4.575   0.105   5.120
 1435SOL    HW1 5738   4.501   0.072   5.171
 1435SOL    HW2 5739   4.613   0.027   5.080
 1435SOL     MW 5740   4.570   0.090   5.121
 1436SOL     OW 5741   0.793   5.655   1.158
 1436SOL    HW1 5742   0.698   5.665   1.159
 1436SOL    HW2 5743   0.827   5.741   1.133
 1436SOL     MW 5744   0.785   5.668   1.155
 1437SOL     OW 5745   6.723   4.607   9.753
 1437SOL    HW1 5746   6.740   4.564   9.669
 1437SOL    HW2 5747   6.631   4.588   9.771
 1437SOL     MW 5748   6.713   4.599   9.744
 1438SOL     OW 5749   5.953   5.581   1.222
 1438SOL    HW1 5750   5.988   5.534   1.298
 1438SOL    HW2 5751   5.873   5.535   1.200
 1438SOL     MW 5752   5.947   5.569   1.230
 1439SOL     OW 5753   4.134   9.511   5.220
 1439SOL    HW1 5754   4.050   9.558   5.223
 1439SOL    HW2 5755   4.145   9.476   5.309
 1439SOL     MW 5756   4.124   9.513   5.233
 1440SOL     OW 5757   9.439   1.354   6.759
 1440SOL    HW1 5758   9.438   1.271   6.807
 1440SOL    HW2 5759   9.356   1.354   6.710
 1440SOL     MW 5760   9.428   1.343   6.759
 1441SOL     OW 5761   5.041   9.656   4.941
 1441SOL    HW1 5762   4.997   9.581   4.901
 1441SOL    HW2 5763   5.132   9.629   4.949
 1441SOL     MW 5764   5.047   9.643   4.937
 1442SOL     OW 5765   5.269   8.036   0.036
 1442SOL    HW1 5766   5.250   8.108  -0.024
 1442SOL    HW2 5767   5.185   8.018   0.078
 1442SOL     MW 5768   5.255   8.043   0.034
 1443SOL     OW 5769   6.417   2.280   5.051
 1443SOL    HW1 5770   6.438   2.253   5.140
 1443SOL    HW2 5771   6.467   2.361   5.038
 1443SOL     MW 5772   6.427   2.287   5.061
 1444SOL     OW 5773   0.586   0.478   2.915
 1444SOL    HW1 5774   0.586   0.422   2.837
 1444SOL    HW2 5775   0.620   0.423   2.985
 1444SOL     MW 5776   0.590   0.463   2.914
 1445SOL     OW 5777   9.691   4.694   9.937
 1445SOL    HW1 5778   9.717   4.674  10.028
 1445SOL    HW2 5779   9.684   4.790   9.935
 1445SOL     MW 5780   9.694   4.704   9.949
 1446SOL     OW 5781   9.068   4.810   1.558
 1446SOL    HW1 5782   9.110   4.757   1.490
 1446SOL    HW2 5783   9.044   4.748   1.626
 1446SOL     MW 5784   9.070   4.795   1.558
 1447SOL     OW 5785   9.162   5.100   8.940
 1447SOL    HW1 5786   9.111   5.029   8.978
 1447SOL    HW2 5787   9.237   5.057   8.900
 1447SOL     MW 5788   9.165   5.085   8.940
 1448SOL     OW 5789   9.458   2.828   0.010
 1448SOL    HW1 5790   9.528   2.883  -0.026
 1448SOL    HW2 5791   9.504   2.763   0.064
 1448SOL     MW 5792   9.474   2.826   0.012
 1449SOL     OW 5793   1.995   0.198   5.656
 1449SOL    HW1 5794   2.040   0.237   5.731
 1449SOL    HW2 5795   2.015   0.257   5.583
 1449SOL     MW 5796   2.004   0.211   5.656
 1450SOL     OW 5797   0.076   4.559   6.794
 1450SOL    HW1 5798   0.064   4.648   6.763
 1450SOL    HW2 5799   0.030   4.505   6.730
 1450SOL     MW 5800   0.068   4.563   6.781
 1451SOL     OW 5801   6.028   6.962   7.278
 1451SOL    HW1 5802   6.098   7.017   7.314
 1451SOL    HW2 5803   5.947   7.007   7.303
 1451SOL     MW 5804   6.027   6.976   7.286
 1452SOL     OW 5805   9.773   8.571   9.720
 1452SOL    HW1 5806   9.847   8.572   9.781
 1452SOL    HW2 5807   9.732   8.485   9.734
 1452SOL     MW 5808   9.778   8.559   9.730
 1453SOL     OW 5809   8.804   9.384   3.124
 1453SOL    HW1 5810   8.899   9.373   3.119
 1453SOL    HW2 5811   8.775   9.388   3.033
 1453SOL     MW 5812   8.813   9.383   3.111
 1454SOL     OW 5813   7.167   0.517   7.575
 1454SOL    HW1 5814   7.217   0.503   7.494
 1454SOL    HW2 5815   7.229   0.496   7.645
 1454SOL     MW 5816   7.182   0.512   7.573
 1455SOL     OW 5817   7.800   3.428   0.078
 1455SOL    HW1 5818   7.754   3.449   0.159
 1455SOL    HW2 5819   7.780   3.336   0.063
 1455SOL     MW 5820   7.791   3.419   0.087
 1456SOL     OW 5821   6.365   4.143   2.534
 1456SOL    HW1 5822   6.335   4.213   2.593
 1456SOL    HW2 5823   6.398   4.075   2.593
 1456SOL     MW 5824   6.366   4.143   2.550
 1457SOL     OW 5825   1.656   0.439   0.426
 1457SOL    HW1 5826   1.563   0.430   0.450
 1457SOL    HW2 5827   1.656   0.503   0.355
 1457SOL     MW 5828   1.643   0.446   0.420
 1458SOL     OW 5829   2.437   6.834   2.827
 1458SOL    HW1 5830   2.397   6.804   2.745
 1458SOL    HW2 5831   2.393   6.784   2.895
 1458SOL     MW 5832   2.425   6.823   2.825
 1459SOL     OW 5833   5.684   5.019   0.907
 1459SOL    HW1 5834   5.723   5.081   0.968
 1459SOL    HW2 5835   5.712   5.050   0.821
 1459SOL     MW 5836   5.693   5.032   0.903
 1460SOL     OW 5837   3.244   5.857   6.507
 1460SOL    HW1 5838   3.290   5.938   6.484
 1460SOL    HW2 5839   3.154   5.872   6.480
 1460SOL     MW 5840   3.238   5.870   6.501
 1461SOL     OW 5841   7.383   2.322   6.140
 1461SOL    HW1 5842   7.306   2.288   6.185
 1461SOL    HW2 5843   7.363   2.414   6.124
 1461SOL     MW 5844   7.370   2.330   6.144
 1462SOL     OW 5845   0.845   9.868   4.815
 1462SOL    HW1 5846   0.938   9.842   4.812
 1462SOL    HW2 5847   0.814   9.833   4.898
 1462SOL     MW 5848   0.853   9.860   4.826
 1463SOL     OW 5849   1.365   0.092   9.662
 1463SOL    HW1 5850   1.332   0.119   9.747
 1463SOL    HW2 5851   1.301   0.029   9.629
 1463SOL     MW 5852   1.352   0.087   9.669
 1464SOL     OW 5853   9.191   8.129   3.933
 1464SOL    HW1 5854   9.211   8.080   3.853
 1464SOL    HW2 5855   9.274   8.132   3.981
 1464SOL     MW 5856   9.205   8.123   3.929
 1465SOL     OW 5857   1.195   0.800   1.132
 1465SOL    HW1 5858   1.100   0.794   1.144
 1465SOL    HW2 5859   1.215   0.893   1.142
 1465SOL     MW 5860   1.184   0.812   1.135
 1466SOL     OW 5861   8.963   7.240   3.951
 1466SOL    HW1 5862   9.035   7.286   3.993
 1466SOL    HW2 5863   8.958   7.156   3.997
 1466SOL     MW 5864   8.972   7.235   3.963
 1467SOL     OW 5865   7.821   6.435   8.524
 1467SOL    HW1 5866   7.863   6.416   8.609
 1467SOL    HW2 5867   7.827   6.531   8.515
 1467SOL     MW 5868   7.828   6.446   8.535
 1468SOL     OW 5869   4.535   4.523   6.740
 1468SOL    HW1 5870   4.460   4.534   6.681
 1468SOL    HW2 5871   4.595   4.594   6.715
 1468SOL     MW 5872   4.533   4.534   6.729
 1469SOL     OW 5873   3.583   9.707   2.573
 1469SOL    HW1 5874   3.559   9.658   2.494
 1469SOL    HW2 5875   3.670   9.743   2.552
 1469SOL     MW 5876   3.592   9.705   2.559
 1470SOL     OW 5877   1.621   1.439   6.026
 1470SOL    HW1 5878   1.528   1.428   6.006
 1470SOL    HW2 5879   1.654   1.349   6.034
 1470SOL     MW 5880   1.613   1.425   6.025
 1471SOL     OW 5881   2.229   0.703   0.209
 1471SOL    HW1 5882   2.211   0.609   0.210
 1471SOL    HW2 5883   2.236   0.725   0.117
 1471SOL     MW 5884   2.228   0.693   0.197
 1472SOL     OW 5885   8.911   1.690   0.190
 1472SOL    HW1 5886   8.926   1.764   0.131
 1472SOL    HW2 5887   8.864   1.728   0.264
 1472SOL     MW 5888   8.907   1.705   0.192
 1473SOL     OW 5889   9.112   0.946   9.198
 1473SOL    HW1 5890   9.079   1.022   9.151
 1473SOL    HW2 5891   9.135   0.883   9.129
 1473SOL     MW 5892   9.110   0.947   9.182
 1474SOL     OW 5893   1.068   2.129   3.206
 1474SOL    HW1 5894   0.997   2.093   3.153
 1474SOL    HW2 5895   1.037   2.119   3.296
 1474SOL     MW 5896   1.054   2.123   3.211
 1475SOL     OW 5897   4.198   2.185   6.541
 1475SOL    HW1 5898   4.259   2.119   6.507
 1475SOL    HW2 5899   4.196   2.252   6.472
 1475SOL     MW 5900   4.206   2.185   6.527
 1476SOL     OW 5901   2.361   4.329   0.709
 1476SOL    HW1 5902   2.362   4.337   0.614
 1476SOL    HW2 5903   2.321   4.244   0.725
 1476SOL     MW 5904   2.356   4.319   0.698
 1477SOL     OW 5905   7.206   9.654   9.149
 1477SOL    HW1 5906   7.270   9.642   9.219
 1477SOL    HW2 5907   7.140   9.712   9.186
 1477SOL     MW 5908   7.206   9.660   9.163
 1478SOL     OW 5909   6.115   2.420   6.910
 1478SOL    HW1 5910   6.124   2.412   6.815
 1478SOL    HW2 5911   6.026   2.454   6.923
 1478SOL     MW 5912   6.104   2.423   6.899
 1479SOL     OW 5913   7.104  10.095   3.173
 1479SOL    HW1 5914   7.066  10.013   3.206
 1479SOL    HW2 5915   7.029  10.153   3.161
 1479SOL     MW 5916   7.089  10.092   3.176
 1480SOL     OW 5917   1.325   3.010   6.199
 1480SOL    HW1 5918   1.241   2.982   6.163
 1480SOL    HW2 5919   1.302   3.065   6.273
 1480SOL     MW 5920   1.311   3.014   6.204
 1481SOL     OW 5921   2.940   8.718   2.671
 1481SOL    HW1 5922   2.923   8.769   2.750
 1481SOL    HW2 5923   2.888   8.762   2.603
 1481SOL     MW 5924   2.930   8.731   2.672
 1482SOL     OW 5925   6.329   4.429   6.449
 1482SOL    HW1 5926   6.277   4.505   6.426
 1482SOL    HW2 5927   6.285   4.355   6.406
 1482SOL     MW 5928   6.316   4.429   6.440
 1483SOL     OW 5929   1.265   8.805   7.412
 1483SOL    HW1 5930   1.344   8.760   7.444
 1483SOL    HW2 5931   1.198   8.784   7.476
 1483SOL     MW 5932   1.267   8.796   7.425
 1484SOL     OW 5933   2.758   5.616   1.515
 1484SOL    HW1 5934   2.704   5.542   1.543
 1484SOL    HW2 5935   2.749   5.618   1.420
 1484SOL     MW 5936   2.750   5.606   1.506
 1485SOL     OW 5937   8.274   5.155   7.716
 1485SOL    HW1 5938   8.211   5.083   7.726
 1485SOL    HW2 5939   8.231   5.216   7.656
 1485SOL     MW 5940   8.260   5.153   7.709
 1486SOL     OW 5941   7.717   5.731   1.955
 1486SOL    HW1 5942   7.693   5.713   2.046
 1486SOL    HW2 5943   7.795   5.678   1.940
 1486SOL     MW 5944   7.725   5.722   1.965
 1487SOL     OW 5945   6.976   6.987   0.522
 1487SOL    HW1 5946   6.995   6.893   0.519
 1487SOL    HW2 5947   7.030   7.025   0.453
 1487SOL     MW 5948   6.986   6.980   0.513
 1488SOL     OW 5949   4.208   1.428   5.614
 1488SOL    HW1 5950   4.282   1.444   5.555
 1488SOL    HW2 5951   4.147   1.499   5.596
 1488SOL     MW 5952   4.210   1.440   5.604
 1489SOL     OW 5953   1.067   9.773   5.105
 1489SOL    HW1 5954   1.092   9.775   5.012
 1489SOL    HW2 5955   1.146   9.802   5.151
 1489SOL     MW 5956   1.081   9.777   5.099
 1490SOL     OW 5957   4.846   9.837   1.639
 1490SOL    HW1 5958   4.890   9.769   1.691
 1490SOL    HW2 5959   4.765   9.796   1.609
 1490SOL     MW 5960   4.841   9.822   1.642
 1491SOL     OW 5961   7.466   1.115   1.417
 1491SOL    HW1 5962   7.403   1.171   1.462
 1491SOL    HW2 5963   7.509   1.066   1.487
 1491SOL     MW 5964   7.464   1.116   1.432
 1492SOL     OW 5965   9.716   2.978   0.721
 1492SOL    HW1 5966   9.658   2.930   0.780
 1492SOL    HW2 5967   9.704   2.937   0.636
 1492SOL     MW 5968   9.707   2.966   0.718
 1493SOL     OW 5969   3.797   2.038   0.883
 1493SOL    HW1 5970   3.727   2.084   0.837
 1493SOL    HW2 5971   3.845   1.992   0.813
 1493SOL     MW 5972   3.794   2.038   0.867
 1494SOL     OW 5973   5.330   9.791   6.281
 1494SOL    HW1 5974   5.244   9.825   6.303
 1494SOL    HW2 5975   5.388   9.828   6.348
 1494SOL     MW 5976   5.326   9.801   6.293
 1495SOL     OW 5977   0.790   5.511   2.038
 1495SOL    HW1 5978   0.796   5.453   1.962
 1495SOL    HW2 5979   0.863   5.485   2.094
 1495SOL     MW 5980   0.800   5.500   2.035
 1496SOL     OW 5981   1.106   0.776   3.292
 1496SOL    HW1 5982   1.047   0.769   3.217
 1496SOL    HW2 5983   1.131   0.686   3.311
 1496SOL     MW 5984   1.101   0.763   3.284
 1497SOL     OW 5985   1.348   3.724   1.063
 1497SOL    HW1 5986   1.316   3.697   0.977
 1497SOL    HW2 5987   1.355   3.819   1.057
 1497SOL     MW 5988   1.345   3.733   1.050
 1498SOL     OW 5989   6.300   1.373   0.149
 1498SOL    HW1 5990   6.388   1.337   0.143
 1498SOL    HW2 5991   6.297   1.440   0.081
 1498SOL     MW 5992   6.311   1.377   0.139
 1499SOL     OW 5993   6.361   2.081   5.504
 1499SOL    HW1 5994   6.266   2.078   5.518
 1499SOL    HW2 5995   6.396   2.017   5.566
 1499SOL     MW 5996   6.353   2.072   5.514
 1500SOL     OW 5997   7.864   7.420   0.874
 1500SOL    HW1 5998   7.919   7.487   0.917
 1500SOL    HW2 5999   7.851   7.454   0.785
 1500SOL     MW 6000   7.870   7.434   0.868
 1501SOL     OW 6001   8.100   5.832   1.943
 1501SOL    HW1 6002   8.102   5.877   2.028
 1501SOL    HW2 6003   8.172   5.871   1.893
 1501SOL     MW 6004   8.110   5.843   1.948
 1502SOL     OW 6005   8.461  10.099   0.473
 1502SOL    HW1 6006   8.487  10.163   0.539
 1502SOL    HW2 6007   8.428  10.152   0.400
 1502SOL     MW 6008   8.460  10.114   0.472
 1503SOL     OW 6009   8.252   9.868   2.115
 1503SOL    HW1 6010   8.325   9.831   2.164
 1503SOL    HW2 6011   8.234   9.951   2.159
 1503SOL     MW 6012   8.259   9.874   2.128
 1504SOL     OW 6013   7.096   0.121   3.580
 1504SOL    HW1 6014   7.023   0.138   3.640
 1504SOL    HW2 6015   7.130   0.208   3.558
 1504SOL     MW 6016   7.091   0.135   3.585
 1505SOL     OW 6017   1.768   4.602   3.152
 1505SOL    HW1 6018   1.709   4.629   3.081
 1505SOL    HW2 6019   1.848   4.574   3.108
 1505SOL     MW 6020   1.771   4.602   3.137
 1506SOL     OW 6021   3.774   2.008   1.158
 1506SOL    HW1 6022   3.800   2.095   1.188
 1506SOL    HW2 6023   3.782   2.012   1.063
 1506SOL     MW 6024   3.779   2.020   1.149
 1507SOL     OW 6025   6.054   1.232   0.147
 1507SOL    HW1 6026   6.137   1.279   0.145
 1507SOL    HW2 6027   6.051   1.191   0.233
 1507SOL     MW 6028   6.065   1.233   0.158
 1508SOL     OW 6029   4.222   7.867   3.244
 1508SOL    HW1 6030   4.279   7.906   3.177
 1508SOL    HW2 6031   4.280   7.811   3.295
 1508SOL     MW 6032   4.237   7.865   3.242
 1509SOL     OW 6033   7.156   2.276   7.396
 1509SOL    HW1 6034   7.106   2.285   7.315
 1509SOL    HW2 6035   7.094   2.300   7.465
 1509SOL     MW 6036   7.141   2.281   7.394
 1510SOL     OW 6037   0.769   0.394   7.623
 1510SOL    HW1 6038   0.776   0.300   7.607
 1510SOL    HW2 6039   0.786   0.434   7.537
 1510SOL     MW 6040   0.772   0.387   7.609
 1511SOL     OW 6041   8.328   5.541   7.691
 1511SOL    HW1 6042   8.308   5.605   7.759
 1511SOL    HW2 6043   8.381   5.474   7.735
 1511SOL     MW 6044   8.333   5.541   7.706
 1512SOL     OW 6045   5.517   9.317   4.501
 1512SOL    HW1 6046   5.475   9.370   4.568
 1512SOL    HW2 6047   5.505   9.367   4.420
 1512SOL     MW 6048   5.510   9.331   4.499
 1513SOL     OW 6049   1.915   3.175   7.777
 1513SOL    HW1 6050   1.884   3.094   7.818
 1513SOL    HW2 6051   1.992   3.201   7.827
 1513SOL     MW 6052   1.921   3.168   7.789
 1514SOL     OW 6053   9.749   9.277   3.538
 1514SOL    HW1 6054   9.800   9.327   3.474
 1514SOL    HW2 6055   9.695   9.342   3.582
 1514SOL     MW 6056   9.749   9.292   3.536
 1515SOL     OW 6057   3.087   3.349   1.800
 1515SOL    HW1 6058   3.040   3.286   1.746
 1515SOL    HW2 6059   3.130   3.407   1.738
 1515SOL     MW 6060   3.087   3.348   1.785
 1516SOL     OW 6061   7.162   2.446   8.847
 1516SOL    HW1 6062   7.247   2.432   8.888
 1516SOL    HW2 6063   7.148   2.369   8.792
 1516SOL     MW 6064   7.171   2.434   8.845
 1517SOL     OW 6065   3.230   6.701   9.555
 1517SOL    HW1 6066   3.153   6.714   9.609
 1517SOL    HW2 6067   3.196   6.662   9.474
 1517SOL     MW 6068   3.215   6.698   9.551
 1518SOL     OW 6069   7.121   2.687   1.546
 1518SOL    HW1 6070   7.103   2.707   1.454
 1518SOL    HW2 6071   7.179   2.758   1.574
 1518SOL     MW 6072   7.126   2.700   1.537
 1519SOL     OW 6073   8.219   9.533   9.556
 1519SOL    HW1 6074   8.261   9.452   9.584
 1519SOL    HW2 6075   8.244   9.598   9.622
 1519SOL     MW 6076   8.228   9.531   9.568
 1520SOL     OW 6077   5.207   1.974   3.423
 1520SOL    HW1 6078   5.159   1.903   3.379
 1520SOL    HW2 6079   5.279   1.995   3.363
 1520SOL     MW 6080   5.210   1.967   3.409
 1521SOL     OW 6081   3.264   6.491   0.497
 1521SOL    HW1 6082   3.311   6.470   0.577
 1521SOL    HW2 6083   3.242   6.406   0.459
 1521SOL     MW 6084   3.267   6.477   0.502
 1522SOL     OW 6085   9.541   2.828   0.874
 1522SOL    HW1 6086   9.543   2.784   0.959
 1522SOL    HW2 6087   9.507   2.763   0.813
 1522SOL     MW 6088   9.537   2.813   0.877
 1523SOL     OW 6089   8.624   9.006   5.817
 1523SOL    HW1 6090   8.567   9.083   5.808
 1523SOL    HW2 6091   8.693   9.035   5.877
 1523SOL     MW 6092   8.625   9.020   5.824
 1524SOL     OW 6093   7.250   6.877   3.653
 1524SOL    HW1 6094   7.328   6.826   3.631
 1524SOL    HW2 6095   7.207   6.892   3.569
 1524SOL     MW 6096   7.255   6.872   3.639
 1525SOL     OW 6097   7.744   3.168  10.166
 1525SOL    HW1 6098   7.751   3.167  10.071
 1525SOL    HW2 6099   7.691   3.091  10.187
 1525SOL     MW 6100   7.738   3.157  10.156
 1526SOL     OW 6101   9.434   1.121   6.912
 1526SOL    HW1 6102   9.516   1.075   6.931
 1526SOL    HW2 6103   9.380   1.106   6.989
 1526SOL     MW 6104   9.438   1.113   6.925
 1527SOL     OW 6105   4.839   7.397  10.094
 1527SOL    HW1 6106   4.777   7.402  10.021
 1527SOL    HW2 6107   4.785   7.407  10.172
 1527SOL     MW 6108   4.823   7.399  10.095
 1528SOL     OW 6109   3.642   3.880   2.584
 1528SOL    HW1 6110   3.662   3.888   2.677
 1528SOL    HW2 6111   3.599   3.795   2.575
 1528SOL     MW 6112   3.639   3.869   2.595
 1529SOL     OW 6113   1.282   4.266   1.015
 1529SOL    HW1 6114   1.248   4.234   1.098
 1529SOL    HW2 6115   1.372   4.293   1.035
 1529SOL     MW 6116   1.290   4.265   1.029
 1530SOL     OW 6117   3.025   9.780   1.582
 1530SOL    HW1 6118   3.112   9.812   1.605
 1530SOL    HW2 6119   3.013   9.803   1.490
 1530SOL     MW 6120   3.035   9.787   1.573
 1531SOL     OW 6121   5.898   0.738   4.608
 1531SOL    HW1 6122   5.949   0.818   4.619
 1531SOL    HW2 6123   5.891   0.726   4.513
 1531SOL     MW 6124   5.904   0.747   4.597
 1532SOL     OW 6125   8.351   8.188   2.601
 1532SOL    HW1 6126   8.422   8.252   2.599
 1532SOL    HW2 6127   8.373   8.126   2.531
 1532SOL     MW 6128   8.363   8.188   2.591
 1533SOL     OW 6129   6.045   1.548   1.417
 1533SOL    HW1 6130   6.012   1.484   1.480
 1533SOL    HW2 6131   5.966   1.585   1.378
 1533SOL     MW 6132   6.030   1.544   1.420
 1534SOL     OW 6133   5.243   4.774   6.056
 1534SOL    HW1 6134   5.303   4.776   6.130
 1534SOL    HW2 6135   5.234   4.681   6.034
 1534SOL     MW 6136   5.250   4.762   6.063
 1535SOL     OW 6137   5.982   2.434  10.128
 1535SOL    HW1 6138   6.023   2.379  10.061
 1535SOL    HW2 6139   5.901   2.389  10.150
 1535SOL     MW 6140   5.977   2.421  10.122
 1536SOL     OW 6141   3.146   8.530   2.649
 1536SOL    HW1 6142   3.115   8.465   2.712
 1536SOL    HW2 6143   3.078   8.598   2.650
 1536SOL     MW 6144   3.133   8.530   2.658
 1537SOL     OW 6145   9.764   1.123   8.316
 1537SOL    HW1 6146   9.843   1.174   8.297
 1537SOL    HW2 6147   9.797   1.044   8.360
 1537SOL     MW 6148   9.779   1.119   8.320
 1538SOL     OW 6149   8.769   4.550   4.389
 1538SOL    HW1 6150   8.691   4.604   4.401
 1538SOL    HW2 6151   8.752   4.472   4.443
 1538SOL     MW 6152   8.756   4.547   4.398
 1539SOL     OW 6153   6.977   8.987   5.689
 1539SOL    HW1 6154   6.988   8.929   5.613
 1539SOL    HW2 6155   7.039   8.954   5.754
 1539SOL     MW 6156   6.987   8.975   5.687
 1540SOL     OW 6157   6.992   9.426   2.789
 1540SOL    HW1 6158   6.979   9.486   2.716
 1540SOL    HW2 6159   7.087   9.427   2.805
 1540SOL     MW 6160   7.003   9.434   2.782
 1541SOL     OW 6161   3.384   9.907   5.558
 1541SOL    HW1 6162   3.343   9.913   5.472
 1541SOL    HW2 6163   3.462   9.852   5.543
 1541SOL     MW 6164   3.389   9.900   5.544
 1542SOL     OW 6165   9.234   2.053   5.257
 1542SOL    HW1 6166   9.269   2.050   5.346
 1542SOL    HW2 6167   9.241   1.962   5.226
 1542SOL     MW 6168   9.240   2.040   5.265
 1543SOL     OW 6169   0.772   7.289   9.016
 1543SOL    HW1 6170   0.756   7.213   8.960
 1543SOL    HW2 6171   0.744   7.364   8.963
 1543SOL     MW 6172   0.766   7.289   9.002
 1544SOL     OW 6173   3.798   9.846   9.655
 1544SOL    HW1 6174   3.743   9.821   9.729
 1544SOL    HW2 6175   3.886   9.850   9.691
 1544SOL     MW 6176   3.802   9.843   9.670
 1545SOL     OW 6177   8.423   5.315   4.053
 1545SOL    HW1 6178   8.485   5.328   3.981
 1545SOL    HW2 6179   8.414   5.220   4.061
 1545SOL     MW 6180   8.430   5.304   4.045
 1546SOL     OW 6181   2.802   7.390   0.866
 1546SOL    HW1 6182   2.878   7.389   0.807
 1546SOL    HW2 6183   2.840   7.381   0.953
 1546SOL     MW 6184   2.818   7.389   0.870
 1547SOL     OW 6185   1.897   1.822   1.884
 1547SOL    HW1 6186   1.875   1.875   1.807
 1547SOL    HW2 6187   1.952   1.879   1.938
 1547SOL     MW 6188   1.901   1.837   1.881
 1548SOL     OW 6189   7.357   0.056   3.512
 1548SOL    HW1 6190   7.398  -0.008   3.570
 1548SOL    HW2 6191   7.265   0.055   3.537
 1548SOL     MW 6192   7.350   0.047   3.524
 1549SOL     OW 6193   9.034   5.612   9.155
 1549SOL    HW1 6194   8.942   5.635   9.150
 1549SOL    HW2 6195   9.060   5.594   9.065
 1549SOL     MW 6196   9.025   5.613   9.142
 1550SOL     OW 6197   4.118   8.957   9.107
 1550SOL    HW1 6198   4.043   8.902   9.131
 1550SOL    HW2 6199   4.168   8.964   9.188
 1550SOL     MW 6200   4.114   8.950   9.121
 1551SOL     OW 6201   3.621   9.656   5.232
 1551SOL    HW1 6202   3.717   9.649   5.229
 1551SOL    HW2 6203   3.591   9.581   5.181
 1551SOL     MW 6204   3.630   9.645   5.225
 1552SOL     OW 6205   1.671   0.158   9.361
 1552SOL    HW1 6206   1.649   0.067   9.382
 1552SOL    HW2 6207   1.636   0.172   9.274
 1552SOL     MW 6208   1.664   0.148   9.352
 1553SOL     OW 6209   4.885  10.066   4.330
 1553SOL    HW1 6210   4.969  10.023   4.312
 1553SOL    HW2 6211   4.825  10.029   4.266
 1553SOL     MW 6212   4.889  10.055   4.319
 1554SOL     OW 6213   4.615   2.850   3.930
 1554SOL    HW1 6214   4.583   2.766   3.965
 1554SOL    HW2 6215   4.539   2.890   3.889
 1554SOL     MW 6216   4.601   2.844   3.929
 1555SOL     OW 6217   9.178   6.585   9.969
 1555SOL    HW1 6218   9.196   6.614  10.059
 1555SOL    HW2 6219   9.116   6.649   9.935
 1555SOL     MW 6220   9.172   6.597   9.977
 1556SOL     OW 6221   6.530   9.909   6.864
 1556SOL    HW1 6222   6.546   9.984   6.922
 1556SOL    HW2 6223   6.605   9.851   6.878
 1556SOL     MW 6224   6.542   9.911   6.874
 1557SOL     OW 6225   1.154   0.460   1.383
 1557SOL    HW1 6226   1.222   0.517   1.346
 1557SOL    HW2 6227   1.200   0.378   1.404
 1557SOL     MW 6228   1.170   0.457   1.381
 1558SOL     OW 6229   6.734   9.726   6.910
 1558SOL    HW1 6230   6.706   9.640   6.942
 1558SOL    HW2 6231   6.820   9.710   6.871
 1558SOL     MW 6232   6.742   9.712   6.909
 1559SOL     OW 6233   9.591   1.252   9.389
 1559SOL    HW1 6234   9.680   1.262   9.354
 1559SOL    HW2 6235   9.535   1.252   9.311
 1559SOL     MW 6236   9.596   1.253   9.374
 1560SOL     OW 6237   0.541   7.829   5.694
 1560SOL    HW1 6238   0.574   7.743   5.720
 1560SOL    HW2 6239   0.615   7.888   5.708
 1560SOL     MW 6240   0.556   7.826   5.699
 1561SOL     OW 6241   9.492   2.769   8.837
 1561SOL    HW1 6242   9.470   2.722   8.757
 1561SOL    HW2 6243   9.561   2.831   8.811
 1561SOL     MW 6244   9.498   2.771   8.823
 1562SOL     OW 6245   8.915   0.678   7.420
 1562SOL    HW1 6246   8.883   0.702   7.333
 1562SOL    HW2 6247   8.987   0.738   7.437
 1562SOL     MW 6248   8.920   0.689   7.410
 1563SOL     OW 6249   0.327   8.336   9.295
 1563SOL    HW1 6250   0.290   8.275   9.231
 1563SOL    HW2 6251   0.398   8.380   9.248
 1563SOL     MW 6252   0.332   8.334   9.280
 1564SOL     OW 6253   3.373   1.886   5.429
 1564SOL    HW1 6254   3.403   1.796   5.443
 1564SOL    HW2 6255   3.299   1.896   5.488
 1564SOL     MW 6256   3.367   1.875   5.439
 1565SOL     OW 6257   5.790   6.790   8.136
 1565SOL    HW1 6258   5.869   6.736   8.131
 1565SOL    HW2 6259   5.728   6.736   8.186
 1565SOL     MW 6260   5.792   6.775   8.142
 1566SOL     OW 6261   5.100   1.217   1.224
 1566SOL    HW1 6262   5.032   1.257   1.170
 1566SOL    HW2 6263   5.091   1.123   1.207
 1566SOL     MW 6264   5.090   1.210   1.214
 1567SOL     OW 6265  10.114   0.525   1.534
 1567SOL    HW1 6266  10.177   0.560   1.470
 1567SOL    HW2 6267  10.146   0.437   1.552
 1567SOL     MW 6268  10.127   0.518   1.528
 1568SOL     OW 6269   9.594   3.157   4.474
 1568SOL    HW1 6270   9.516   3.169   4.420
 1568SOL    HW2 6271   9.663   3.204   4.427
 1568SOL     MW 6272   9.593   3.165   4.460
 1569SOL     OW 6273   2.605   7.602   7.878
 1569SOL    HW1 6274   2.674   7.667   7.880
 1569SOL    HW2 6275   2.569   7.608   7.790
 1569SOL     MW 6276   2.609   7.612   7.867
 1570SOL     OW 6277   5.214   1.848   6.321
 1570SOL    HW1 6278   5.261   1.773   6.356
 1570SOL    HW2 6279   5.204   1.907   6.395
 1570SOL     MW 6280   5.219   1.846   6.336
 1571SOL     OW 6281   8.993   9.735   9.829
 1571SOL    HW1 6282   9.005   9.785   9.909
 1571SOL    HW2 6283   8.932   9.788   9.777
 1571SOL     MW 6284   8.986   9.749   9.833
 1572SOL     OW 6285   3.398   8.488   2.532
 1572SOL    HW1 6286   3.411   8.393   2.534
 1572SOL    HW2 6287   3.310   8.501   2.568
 1572SOL     MW 6288   3.388   8.477   2.537
 1573SOL     OW 6289   4.656   7.720   3.434
 1573SOL    HW1 6290   4.690   7.795   3.385
 1573SOL    HW2 6291   4.714   7.648   3.409
 1573SOL     MW 6292   4.668   7.720   3.424
 1574SOL     OW 6293   3.135   7.064   5.977
 1574SOL    HW1 6294   3.045   7.065   6.009
 1574SOL    HW2 6295   3.170   7.150   5.999
 1574SOL     MW 6296   3.128   7.075   5.984
 1575SOL     OW 6297   0.243   8.104   9.163
 1575SOL    HW1 6298   0.282   8.070   9.244
 1575SOL    HW2 6299   0.168   8.045   9.147
 1575SOL     MW 6300   0.238   8.091   9.172
 1576SOL     OW 6301   3.704   3.973   4.503
 1576SOL    HW1 6302   3.617   3.943   4.530
 1576SOL    HW2 6303   3.764   3.923   4.559
 1576SOL     MW 6304   3.701   3.962   4.514
 1577SOL     OW 6305   4.317   5.432   3.375
 1577SOL    HW1 6306   4.375   5.468   3.442
 1577SOL    HW2 6307   4.316   5.338   3.392
 1577SOL     MW 6308   4.325   5.424   3.386
 1578SOL     OW 6309   4.874   2.850   3.823
 1578SOL    HW1 6310   4.788   2.857   3.864
 1578SOL    HW2 6311   4.870   2.769   3.772
 1578SOL     MW 6312   4.862   2.840   3.822
 1579SOL     OW 6313   5.334   0.855   5.449
 1579SOL    HW1 6314   5.338   0.816   5.362
 1579SOL    HW2 6315   5.253   0.821   5.487
 1579SOL     MW 6316   5.323   0.846   5.442
 1580SOL     OW 6317   7.666   8.323   4.326
 1580SOL    HW1 6318   7.744   8.323   4.270
 1580SOL    HW2 6319   7.617   8.246   4.299
 1580SOL     MW 6320   7.670   8.313   4.315
 1581SOL     OW 6321   9.360   9.180   1.269
 1581SOL    HW1 6322   9.344   9.229   1.188
 1581SOL    HW2 6323   9.453   9.158   1.266
 1581SOL     MW 6324   9.370   9.184   1.258
 1582SOL     OW 6325   7.012   5.839   3.411
 1582SOL    HW1 6326   7.020   5.838   3.316
 1582SOL    HW2 6327   7.096   5.803   3.442
 1582SOL     MW 6328   7.025   5.834   3.402
 1583SOL     OW 6329   5.056   8.613   8.591
 1583SOL    HW1 6330   5.145   8.580   8.582
 1583SOL    HW2 6331   5.007   8.542   8.632
 1583SOL     MW 6332   5.061   8.599   8.596
 1584SOL     OW 6333   0.522   4.955   3.156
 1584SOL    HW1 6334   0.597   5.014   3.158
 1584SOL    HW2 6335   0.473   4.975   3.235
 1584SOL     MW 6336   0.525   4.965   3.167
 1585SOL     OW 6337   0.216   5.479   7.800
 1585SOL    HW1 6338   0.159   5.405   7.822
 1585SOL    HW2 6339   0.279   5.483   7.872
 1585SOL     MW 6340   0.217   5.470   7.813
 1586SOL     OW 6341   1.531   9.481   1.065
 1586SOL    HW1 6342   1.605   9.534   1.095
 1586SOL    HW2 6343   1.454   9.533   1.085
 1586SOL     MW 6344   1.531   9.495   1.072
 1587SOL     OW 6345   0.146   2.948   5.562
 1587SOL    HW1 6346   0.194   2.912   5.486
 1587SOL    HW2 6347   0.197   3.025   5.587
 1587SOL     MW 6348   0.160   2.953   5.555
 1588SOL     OW 6349   5.037   1.449   2.752
 1588SOL    HW1 6350   5.040   1.539   2.783
 1588SOL    HW2 6351   5.128   1.426   2.736
 1588SOL     MW 6352   5.050   1.458   2.754
 1589SOL     OW 6353   8.467   8.269   0.688
 1589SOL    HW1 6354   8.484   8.304   0.775
 1589SOL    HW2 6355   8.523   8.191   0.682
 1589SOL     MW 6356   8.477   8.263   0.699
 1590SOL     OW 6357   1.215   8.709   9.955
 1590SOL    HW1 6358   1.132   8.746   9.986
 1590SOL    HW2 6359   1.189   8.650   9.883
 1590SOL     MW 6360   1.200   8.706   9.949
 1591SOL     OW 6361   3.381   2.174   8.349
 1591SOL    HW1 6362   3.400   2.133   8.434
 1591SOL    HW2 6363   3.455   2.150   8.294
 1591SOL     MW 6364   3.394   2.165   8.353
 1592SOL     OW 6365   0.407   0.685   8.596
 1592SOL    HW1 6366   0.485   0.634   8.575
 1592SOL    HW2 6367   0.362   0.696   8.512
 1592SOL     MW 6368   0.411   0.680   8.582
 1593SOL     OW 6369   4.863   9.632   2.491
 1593SOL    HW1 6370   4.920   9.658   2.564
 1593SOL    HW2 6371   4.923   9.617   2.418
 1593SOL     MW 6372   4.879   9.633   2.491
 1594SOL     OW 6373   2.795   0.983   8.680
 1594SOL    HW1 6374   2.838   0.936   8.609
 1594SOL    HW2 6375   2.786   1.073   8.649
 1594SOL     MW 6376   2.800   0.989   8.667
 1595SOL     OW 6377   6.546   0.416   5.526
 1595SOL    HW1 6378   6.631   0.453   5.551
 1595SOL    HW2 6379   6.495   0.419   5.607
 1595SOL     MW 6380   6.551   0.421   5.540
 1596SOL     OW 6381   9.240   8.139   4.305
 1596SOL    HW1 6382   9.157   8.139   4.258
 1596SOL    HW2 6383   9.221   8.091   4.386
 1596SOL     MW 6384   9.226   8.133   4.310
 1597SOL     OW 6385   6.261   6.918   6.188
 1597SOL    HW1 6386   6.263   7.009   6.217
 1597SOL    HW2 6387   6.172   6.889   6.205
 1597SOL     MW 6388   6.250   6.926   6.194
 1598SOL     OW 6389   7.049   5.899   7.213
 1598SOL    HW1 6390   7.041   5.813   7.254
 1598SOL    HW2 6391   6.971   5.907   7.158
 1598SOL     MW 6392   7.037   5.889   7.211
 1599SOL     OW 6393   1.964   9.027   3.125
 1599SOL    HW1 6394   1.949   8.932   3.123
 1599SOL    HW2 6395   1.932   9.058   3.040
 1599SOL     MW 6396   1.958   9.018   3.113
 1600SOL     OW 6397   1.160  10.064   9.601
 1600SOL    HW1 6398   1.119  10.030   9.522
 1600SOL    HW2 6399   1.091  10.116   9.643
 1600SOL     MW 6400   1.145  10.066   9.596
 1601SOL     OW 6401   1.193   9.053   0.245
 1601SOL    HW1 6402   1.219   8.983   0.306
 1601SOL    HW2 6403   1.112   9.020   0.205
 1601SOL     MW 6404   1.185   9.039   0.248
 1602SOL     OW 6405   7.190   2.928   4.418
 1602SOL    HW1 6406   7.116   2.980   4.448
 1602SOL    HW2 6407   7.203   2.862   4.486
 1602SOL     MW 6408   7.182   2.926   4.431
 1603SOL     OW 6409   6.172   7.916   5.330
 1603SOL    HW1 6410   6.267   7.912   5.345
 1603SOL    HW2 6411   6.144   7.994   5.378
 1603SOL     MW 6412   6.181   7.926   5.339
 1604SOL     OW 6413   9.143   9.243   8.531
 1604SOL    HW1 6414   9.155   9.290   8.613
 1604SOL    HW2 6415   9.066   9.188   8.545
 1604SOL     MW 6416   9.134   9.242   8.544
 1605SOL     OW 6417   7.066   4.799  10.071
 1605SOL    HW1 6418   7.050   4.791  10.165
 1605SOL    HW2 6419   7.005   4.738  10.030
 1605SOL     MW 6420   7.056   4.790  10.078
 1606SOL     OW 6421   2.087   2.748   1.323
 1606SOL    HW1 6422   2.132   2.790   1.250
 1606SOL    HW2 6423   2.025   2.813   1.355
 1606SOL     MW 6424   2.085   2.762   1.318
 1607SOL     OW 6425   1.306   6.436   8.297
 1607SOL    HW1 6426   1.383   6.385   8.275
 1607SOL    HW2 6427   1.323   6.467   8.386
 1607SOL     MW 6428   1.319   6.434   8.306
 1608SOL     OW 6429   6.901   3.233   9.439
 1608SOL    HW1 6430   6.809   3.253   9.421
 1608SOL    HW2 6431   6.898   3.168   9.509
 1608SOL     MW 6432   6.888   3.227   9.446
 1609SOL     OW 6433   7.863   5.957   3.521
 1609SOL    HW1 6434   7.854   6.023   3.590
 1609SOL    HW2 6435   7.902   6.005   3.448
 1609SOL     MW 6436   7.867   5.973   3.521
 1610SOL     OW 6437   7.566   6.099   2.350
 1610SOL    HW1 6438   7.497   6.040   2.320
 1610SOL    HW2 6439   7.570   6.086   2.445
 1610SOL     MW 6440   7.558   6.090   2.359
 1611SOL     OW 6441   6.235   5.498   3.893
 1611SOL    HW1 6442   6.165   5.441   3.923
 1611SOL    HW2 6443   6.273   5.534   3.973
 1611SOL     MW 6444   6.231   5.495   3.908
 1612SOL     OW 6445   8.215   9.621   1.592
 1612SOL    HW1 6446   8.219   9.536   1.547
 1612SOL    HW2 6447   8.130   9.621   1.635
 1612SOL     MW 6448   8.204   9.610   1.591
 1613SOL     OW 6449   4.422   6.752   2.686
 1613SOL    HW1 6450   4.361   6.687   2.719
 1613SOL    HW2 6451   4.474   6.778   2.762
 1613SOL     MW 6452   4.421   6.747   2.700
 1614SOL     OW 6453   7.852   5.452   9.038
 1614SOL    HW1 6454   7.860   5.451   8.942
 1614SOL    HW2 6455   7.788   5.520   9.056
 1614SOL     MW 6456   7.845   5.461   9.027
 1615SOL     OW 6457   6.378   5.746   0.588
 1615SOL    HW1 6458   6.449   5.777   0.532
 1615SOL    HW2 6459   6.300   5.791   0.555
 1615SOL     MW 6460   6.377   5.756   0.576
 1616SOL     OW 6461   8.711   2.744   7.988
 1616SOL    HW1 6462   8.690   2.817   7.930
 1616SOL    HW2 6463   8.679   2.772   8.074
 1616SOL     MW 6464   8.704   2.757   7.992
 1617SOL     OW 6465   0.440   1.277   8.880
 1617SOL    HW1 6466   0.378   1.205   8.895
 1617SOL    HW2 6467   0.513   1.257   8.939
 1617SOL     MW 6468   0.442   1.264   8.890
 1618SOL     OW 6469   5.409   6.444   3.862
 1618SOL    HW1 6470   5.412   6.411   3.772
 1618SOL    HW2 6471   5.351   6.383   3.908
 1618SOL     MW 6472   5.401   6.431   3.856
 1619SOL     OW 6473   0.238   1.012   1.747
 1619SOL    HW1 6474   0.219   1.019   1.654
 1619SOL    HW2 6475   0.288   0.931   1.755
 1619SOL     MW 6476   0.242   1.002   1.736
 1620SOL     OW 6477   4.536   8.835   3.492
 1620SOL    HW1 6478   4.465   8.820   3.429
 1620SOL    HW2 6479   4.572   8.748   3.509
 1620SOL     MW 6480   4.532   8.821   3.486
 1621SOL     OW 6481   4.389   4.279   0.911
 1621SOL    HW1 6482   4.478   4.314   0.907
 1621SOL    HW2 6483   4.391   4.215   0.982
 1621SOL     MW 6484   4.401   4.275   0.920
 1622SOL     OW 6485   8.915   5.239   5.583
 1622SOL    HW1 6486   8.890   5.274   5.668
 1622SOL    HW2 6487   8.949   5.152   5.602
 1622SOL     MW 6488   8.916   5.232   5.597
 1623SOL     OW 6489   7.129   2.058   8.034
 1623SOL    HW1 6490   7.093   2.067   7.946
 1623SOL    HW2 6491   7.056   2.078   8.093
 1623SOL     MW 6492   7.114   2.062   8.030
 1624SOL     OW 6493   8.129   3.942   7.646
 1624SOL    HW1 6494   8.102   3.941   7.738
 1624SOL    HW2 6495   8.130   3.850   7.620
 1624SOL     MW 6496   8.126   3.929   7.655
 1625SOL     OW 6497   0.559   0.860   7.212
 1625SOL    HW1 6498   0.552   0.944   7.166
 1625SOL    HW2 6499   0.604   0.882   7.294
 1625SOL     MW 6500   0.564   0.874   7.217
 1626SOL     OW 6501   5.757   9.927   9.485
 1626SOL    HW1 6502   5.761   9.858   9.551
 1626SOL    HW2 6503   5.680   9.905   9.433
 1626SOL     MW 6504   5.747   9.915   9.487
 1627SOL     OW 6505   5.780   1.473   7.261
 1627SOL    HW1 6506   5.765   1.560   7.223
 1627SOL    HW2 6507   5.837   1.429   7.199
 1627SOL     MW 6508   5.785   1.479   7.248
 1628SOL     OW 6509   1.583   9.699   6.913
 1628SOL    HW1 6510   1.530   9.673   6.989
 1628SOL    HW2 6511   1.518   9.721   6.845
 1628SOL     MW 6512   1.567   9.699   6.914
 1629SOL     OW 6513   3.362   8.276   8.775
 1629SOL    HW1 6514   3.311   8.195   8.778
 1629SOL    HW2 6515   3.361   8.301   8.683
 1629SOL     MW 6516   3.355   8.268   8.763
 1630SOL     OW 6517   9.521   4.013   1.566
 1630SOL    HW1 6518   9.605   4.050   1.590
 1630SOL    HW2 6519   9.538   3.964   1.485
 1630SOL     MW 6520   9.534   4.011   1.558
 1631SOL     OW 6521   0.659   8.616   8.752
 1631SOL    HW1 6522   0.682   8.524   8.765
 1631SOL    HW2 6523   0.566   8.615   8.728
 1631SOL     MW 6524   0.650   8.604   8.751
 1632SOL     OW 6525   2.435   3.165   4.695
 1632SOL    HW1 6526   2.433   3.101   4.767
 1632SOL    HW2 6527   2.456   3.113   4.618
 1632SOL     MW 6528   2.437   3.149   4.695
 1633SOL     OW 6529   7.349   0.381   7.101
 1633SOL    HW1 6530   7.414   0.315   7.076
 1633SOL    HW2 6531   7.309   0.407   7.018
 1633SOL     MW 6532   7.352   0.376   7.086
 1634SOL     OW 6533   5.586   4.078   0.445
 1634SOL    HW1 6534   5.663   4.111   0.399
 1634SOL    HW2 6535   5.586   4.123   0.529
 1634SOL     MW 6536   5.596   4.088   0.450
 1635SOL     OW 6537   1.841   2.671   9.291
 1635SOL    HW1 6538   1.854   2.633   9.204
 1635SOL    HW2 6539   1.753   2.708   9.288
 1635SOL     MW 6540   1.831   2.671   9.279
 1636SOL     OW 6541   9.063   0.607   8.136
 1636SOL    HW1 6542   9.017   0.657   8.203
 1636SOL    HW2 6543   9.040   0.649   8.053
 1636SOL     MW 6544   9.054   0.619   8.134
 1637SOL     OW 6545   3.518   7.596   0.714
 1637SOL    HW1 6546   3.612   7.612   0.727
 1637SOL    HW2 6547   3.497   7.641   0.633
 1637SOL     MW 6548   3.528   7.604   0.705
 1638SOL     OW 6549   3.756   8.570   4.091
 1638SOL    HW1 6550   3.740   8.519   4.012
 1638SOL    HW2 6551   3.842   8.611   4.077
 1638SOL     MW 6552   3.765   8.569   4.079
 1639SOL     OW 6553   9.954   6.802   0.157
 1639SOL    HW1 6554  10.019   6.735   0.139
 1639SOL    HW2 6555   9.882   6.784   0.096
 1639SOL     MW 6556   9.953   6.791   0.146
 1640SOL     OW 6557   7.555   6.082   9.305
 1640SOL    HW1 6558   7.612   6.005   9.295
 1640SOL    HW2 6559   7.592   6.147   9.245
 1640SOL     MW 6560   7.568   6.080   9.295
 1641SOL     OW 6561   4.231   3.195   1.665
 1641SOL    HW1 6562   4.317   3.154   1.666
 1641SOL    HW2 6563   4.231   3.253   1.740
 1641SOL     MW 6564   4.243   3.197   1.675
 1642SOL     OW 6565   6.140   5.654   0.771
 1642SOL    HW1 6566   6.214   5.708   0.799
 1642SOL    HW2 6567   6.179   5.585   0.718
 1642SOL     MW 6568   6.155   5.652   0.767
 1643SOL     OW 6569   7.043   4.163   4.498
 1643SOL    HW1 6570   7.011   4.200   4.416
 1643SOL    HW2 6571   6.979   4.190   4.564
 1643SOL     MW 6572   7.030   4.172   4.496
 1644SOL     OW 6573   7.371   1.452   8.217
 1644SOL    HW1 6574   7.431   1.398   8.270
 1644SOL    HW2 6575   7.427   1.489   8.149
 1644SOL     MW 6576   7.387   1.450   8.215
 1645SOL     OW 6577   0.134   0.621   0.399
 1645SOL    HW1 6578   0.147   0.551   0.464
 1645SOL    HW2 6579   0.062   0.589   0.344
 1645SOL     MW 6580   0.126   0.607   0.401
 1646SOL     OW 6581  10.115   7.180  10.127
 1646SOL    HW1 6582  10.159   7.118  10.068
 1646SOL    HW2 6583  10.038   7.209  10.078
 1646SOL     MW 6584  10.110   7.175  10.113
 1647SOL     OW 6585   8.334   9.591   4.728
 1647SOL    HW1 6586   8.368   9.507   4.699
 1647SOL    HW2 6587   8.393   9.618   4.798
 1647SOL     MW 6588   8.347   9.584   4.733
 1648SOL     OW 6589   8.250   5.698   6.888
 1648SOL    HW1 6590   8.278   5.646   6.963
 1648SOL    HW2 6591   8.159   5.722   6.908
 1648SOL     MW 6592   8.242   5.694   6.901
 1649SOL     OW 6593   1.329   1.819   6.318
 1649SOL    HW1 6594   1.289   1.868   6.247
 1649SOL    HW2 6595   1.286   1.852   6.397
 1649SOL     MW 6596   1.318   1.830   6.319
 1650SOL     OW 6597   4.268   0.288   2.901
 1650SOL    HW1 6598   4.287   0.195   2.887
 1650SOL    HW2 6599   4.287   0.330   2.817
 1650SOL     MW 6600   4.273   0.281   2.888
 1651SOL     OW 6601  10.144   6.539   9.696
 1651SOL    HW1 6602  10.126   6.556   9.604
 1651SOL    HW2 6603  10.184   6.619   9.729
 1651SOL     MW 6604  10.147   6.552   9.688
 1652SOL     OW 6605   2.180   6.846   3.199
 1652SOL    HW1 6606   2.201   6.840   3.292
 1652SOL    HW2 6607   2.191   6.938   3.178
 1652SOL     MW 6608   2.184   6.857   3.209
 1653SOL     OW 6609   6.805   7.024   7.078
 1653SOL    HW1 6610   6.799   7.041   7.172
 1653SOL    HW2 6611   6.892   6.986   7.067
 1653SOL     MW 6612   6.816   7.021   7.089
 1654SOL     OW 6613   3.844   8.938   7.583
 1654SOL    HW1 6614   3.859   8.964   7.492
 1654SOL    HW2 6615   3.922   8.889   7.607
 1654SOL     MW 6616   3.856   8.935   7.574
 1655SOL     OW 6617   0.205   8.875   3.531
 1655SOL    HW1 6618   0.231   8.801   3.585
 1655SOL    HW2 6619   0.112   8.887   3.550
 1655SOL     MW 6620   0.196   8.867   3.541
 1656SOL     OW 6621   5.797   9.282   5.609
 1656SOL    HW1 6622   5.768   9.318   5.526
 1656SOL    HW2 6623   5.891   9.268   5.597
 1656SOL     MW 6624   5.806   9.285   5.596
 1657SOL     OW 6625   0.687   3.802   5.576
 1657SOL    HW1 6626   0.651   3.844   5.498
 1657SOL    HW2 6627   0.781   3.792   5.557
 1657SOL     MW 6628   0.695   3.806   5.563
 1658SOL     OW 6629   7.147   2.882   8.940
 1658SOL    HW1 6630   7.116   2.928   8.862
 1658SOL    HW2 6631   7.152   2.951   9.007
 1658SOL     MW 6632   7.144   2.898   8.938
 1659SOL     OW 6633   0.859   9.241   0.131
 1659SOL    HW1 6634   0.934   9.269   0.183
 1659SOL    HW2 6635   0.851   9.307   0.062
 1659SOL     MW 6636   0.868   9.254   0.128
 1660SOL     OW 6637   5.227   8.463   6.922
 1660SOL    HW1 6638   5.193   8.553   6.927
 1660SOL    HW2 6639   5.310   8.471   6.876
 1660SOL     MW 6640   5.233   8.476   6.917
 1661SOL     OW 6641   5.715   4.044   3.708
 1661SOL    HW1 6642   5.693   3.957   3.676
 1661SOL    HW2 6643   5.653   4.102   3.665
 1661SOL     MW 6644   5.704   4.040   3.698
 1662SOL     OW 6645   0.493   4.755   9.652
 1662SOL    HW1 6646   0.432   4.723   9.586
 1662SOL    HW2 6647   0.520   4.841   9.620
 1662SOL     MW 6648   0.489   4.763   9.639
 1663SOL     OW 6649   4.751   2.190   6.644
 1663SOL    HW1 6650   4.714   2.226   6.725
 1663SOL    HW2 6651   4.840   2.165   6.668
 1663SOL     MW 6652   4.758   2.191   6.658
 1664SOL     OW 6653   0.685   5.293   5.768
 1664SOL    HW1 6654   0.605   5.338   5.742
 1664SOL    HW2 6655   0.751   5.322   5.705
 1664SOL     MW 6656   0.683   5.303   5.756
 1665SOL     OW 6657   5.047   8.299   7.647
 1665SOL    HW1 6658   5.050   8.378   7.594
 1665SOL    HW2 6659   5.039   8.228   7.583
 1665SOL     MW 6660   5.047   8.300   7.631
 1666SOL     OW 6661   1.467   7.175   2.036
 1666SOL    HW1 6662   1.420   7.235   1.977
 1666SOL    HW2 6663   1.553   7.165   1.996
 1666SOL     MW 6664   1.472   7.182   2.023
 1667SOL     OW 6665   2.147   5.929   7.796
 1667SOL    HW1 6666   2.104   5.894   7.873
 1667SOL    HW2 6667   2.078   5.978   7.750
 1667SOL     MW 6668   2.132   5.931   7.800
 1668SOL     OW 6669   3.605   2.811   6.731
 1668SOL    HW1 6670   3.525   2.862   6.746
 1668SOL    HW2 6671   3.676   2.872   6.752
 1668SOL     MW 6672   3.604   2.826   6.736
 1669SOL     OW 6673   3.728   8.322   6.130
 1669SOL    HW1 6674   3.727   8.303   6.224
 1669SOL    HW2 6675   3.640   8.352   6.111
 1669SOL     MW 6676   3.716   8.324   6.140
 1670SOL     OW 6677   3.903   6.514   4.275
 1670SOL    HW1 6678   3.852   6.525   4.355
 1670SOL    HW2 6679   3.973   6.453   4.299
 1670SOL     MW 6680   3.906   6.507   4.289
 1671SOL     OW 6681   1.487   9.206   2.664
 1671SOL    HW1 6682   1.574   9.233   2.633
 1671SOL    HW2 6683   1.505   9.153   2.741
 1671SOL     MW 6684   1.501   9.203   2.670
 1672SOL     OW 6685   4.807   7.307   6.117
 1672SOL    HW1 6686   4.808   7.308   6.021
 1672SOL    HW2 6687   4.839   7.219   6.140
 1672SOL     MW 6688   4.812   7.295   6.107
 1673SOL     OW 6689   5.439   8.879   3.062
 1673SOL    HW1 6690   5.532   8.904   3.057
 1673SOL    HW2 6691   5.439   8.797   3.111
 1673SOL     MW 6692   5.452   8.871   3.068
 1674SOL     OW 6693   2.159   8.498   6.840
 1674SOL    HW1 6694   2.091   8.541   6.788
 1674SOL    HW2 6695   2.112   8.450   6.908
 1674SOL     MW 6696   2.144   8.497   6.842
 1675SOL     OW 6697   9.073   5.240   2.955
 1675SOL    HW1 6698   8.991   5.275   2.989
 1675SOL    HW2 6699   9.052   5.150   2.931
 1675SOL     MW 6700   9.059   5.233   2.956
 1676SOL     OW 6701   2.843   6.951   7.710
 1676SOL    HW1 6702   2.834   6.871   7.658
 1676SOL    HW2 6703   2.898   7.008   7.656
 1676SOL     MW 6704   2.849   6.948   7.696
 1677SOL     OW 6705   6.172   9.245   2.463
 1677SOL    HW1 6706   6.106   9.250   2.532
 1677SOL    HW2 6707   6.159   9.159   2.424
 1677SOL     MW 6708   6.161   9.234   2.467
 1678SOL     OW 6709   4.438   7.351  10.124
 1678SOL    HW1 6710   4.358   7.397  10.099
 1678SOL    HW2 6711   4.407   7.277  10.178
 1678SOL     MW 6712   4.423   7.347  10.128
 1679SOL     OW 6713   0.167   4.051   8.106
 1679SOL    HW1 6714   0.171   4.041   8.011
 1679SOL    HW2 6715   0.228   4.122   8.125
 1679SOL     MW 6716   0.175   4.059   8.096
 1680SOL     OW 6717   1.154   3.032   9.285
 1680SOL    HW1 6718   1.063   3.056   9.271
 1680SOL    HW2 6719   1.158   2.938   9.265
 1680SOL     MW 6720   1.142   3.022   9.280
 1681SOL     OW 6721   5.104   1.234   4.494
 1681SOL    HW1 6722   5.145   1.193   4.571
 1681SOL    HW2 6723   5.021   1.269   4.527
 1681SOL     MW 6724   5.098   1.233   4.509
 1682SOL     OW 6725   5.958   9.519   7.769
 1682SOL    HW1 6726   6.009   9.486   7.695
 1682SOL    HW2 6727   5.933   9.440   7.818
 1682SOL     MW 6728   5.961   9.504   7.765
 1683SOL     OW 6729   1.248   8.632   0.207
 1683SOL    HW1 6730   1.305   8.671   0.141
 1683SOL    HW2 6731   1.216   8.551   0.167
 1683SOL     MW 6732   1.251   8.626   0.193
 1684SOL     OW 6733   3.858   6.973   3.064
 1684SOL    HW1 6734   3.935   6.994   3.117
 1684SOL    HW2 6735   3.829   7.057   3.029
 1684SOL     MW 6736   3.865   6.987   3.066
 1685SOL     OW 6737   6.924   7.268   3.066
 1685SOL    HW1 6738   6.886   7.288   2.981
 1685SOL    HW2 6739   7.013   7.303   3.062
 1685SOL     MW 6740   6.931   7.276   3.054
 1686SOL     OW 6741   2.775   7.410   9.674
 1686SOL    HW1 6742   2.842   7.360   9.721
 1686SOL    HW2 6743   2.712   7.345   9.644
 1686SOL     MW 6744   2.776   7.395   9.676
 1687SOL     OW 6745   7.798   8.318   8.764
 1687SOL    HW1 6746   7.755   8.274   8.691
 1687SOL    HW2 6747   7.752   8.288   8.841
 1687SOL     MW 6748   7.786   8.308   8.764
 1688SOL     OW 6749   0.595   5.523   7.749
 1688SOL    HW1 6750   0.649   5.446   7.730
 1688SOL    HW2 6751   0.521   5.516   7.688
 1688SOL     MW 6752   0.592   5.511   7.738
 1689SOL     OW 6753   3.557   8.578   5.847
 1689SOL    HW1 6754   3.505   8.634   5.789
 1689SOL    HW2 6755   3.640   8.568   5.802
 1689SOL     MW 6756   3.561   8.584   5.833
 1690SOL     OW 6757   9.313   5.990   6.340
 1690SOL    HW1 6758   9.228   5.999   6.297
 1690SOL    HW2 6759   9.331   6.077   6.376
 1690SOL     MW 6760   9.304   6.003   6.339
 1691SOL     OW 6761   5.390   7.476   8.726
 1691SOL    HW1 6762   5.360   7.407   8.667
 1691SOL    HW2 6763   5.475   7.446   8.758
 1691SOL     MW 6764   5.397   7.463   8.722
 1692SOL     OW 6765   5.773   9.237   4.436
 1692SOL    HW1 6766   5.685   9.257   4.466
 1692SOL    HW2 6767   5.817   9.200   4.513
 1692SOL     MW 6768   5.767   9.235   4.451
 1693SOL     OW 6769   3.468   9.432   0.696
 1693SOL    HW1 6770   3.474   9.440   0.791
 1693SOL    HW2 6771   3.374   9.437   0.678
 1693SOL     MW 6772   3.456   9.434   0.707
 1694SOL     OW 6773   3.579   9.856   3.987
 1694SOL    HW1 6774   3.643   9.811   4.043
 1694SOL    HW2 6775   3.554   9.791   3.922
 1694SOL     MW 6776   3.584   9.841   3.986
 1695SOL     OW 6777   7.521   4.185   0.793
 1695SOL    HW1 6778   7.544   4.139   0.873
 1695SOL    HW2 6779   7.605   4.208   0.753
 1695SOL     MW 6780   7.535   4.182   0.798
 1696SOL     OW 6781   4.283   5.345   5.220
 1696SOL    HW1 6782   4.373   5.324   5.194
 1696SOL    HW2 6783   4.234   5.264   5.207
 1696SOL     MW 6784   4.288   5.331   5.215
 1697SOL     OW 6785   2.846   0.064   1.755
 1697SOL    HW1 6786   2.835   0.040   1.847
 1697SOL    HW2 6787   2.888   0.150   1.756
 1697SOL     MW 6788   2.850   0.072   1.767
 1698SOL     OW 6789   3.953   0.206   8.356
 1698SOL    HW1 6790   3.983   0.188   8.445
 1698SOL    HW2 6791   3.956   0.121   8.312
 1698SOL     MW 6792   3.957   0.192   8.362
 1699SOL     OW 6793   1.016   8.292   5.151
 1699SOL    HW1 6794   1.072   8.368   5.162
 1699SOL    HW2 6795   1.061   8.237   5.087
 1699SOL     MW 6796   1.029   8.295   5.144
 1700SOL     OW 6797   1.862   9.654   8.534
 1700SOL    HW1 6798   1.846   9.713   8.607
 1700SOL    HW2 6799   1.774   9.632   8.502
 1700SOL     MW 6800   1.848   9.659   8.539
 1701SOL     OW 6801   5.425   4.292   5.676
 1701SOL    HW1 6802   5.461   4.362   5.731
 1701SOL    HW2 6803   5.375   4.338   5.609
 1701SOL     MW 6804   5.423   4.307   5.675
 1702SOL     OW 6805   3.982   3.499   8.621
 1702SOL    HW1 6806   4.025   3.440   8.559
 1702SOL    HW2 6807   3.976   3.448   8.702
 1702SOL     MW 6808   3.987   3.484   8.624
 1703SOL     OW 6809   5.440   6.094   3.959
 1703SOL    HW1 6810   5.363   6.148   3.977
 1703SOL    HW2 6811   5.500   6.115   4.031
 1703SOL     MW 6812   5.438   6.104   3.971
 1704SOL     OW 6813   7.112   1.385   0.563
 1704SOL    HW1 6814   7.095   1.454   0.626
 1704SOL    HW2 6815   7.155   1.316   0.613
 1704SOL     MW 6816   7.116   1.385   0.578
 1705SOL     OW 6817   3.813   8.565   5.734
 1705SOL    HW1 6818   3.834   8.481   5.776
 1705SOL    HW2 6819   3.849   8.631   5.793
 1705SOL     MW 6820   3.820   8.562   5.748
 1706SOL     OW 6821   0.595   3.183   1.136
 1706SOL    HW1 6822   0.573   3.214   1.048
 1706SOL    HW2 6823   0.513   3.192   1.185
 1706SOL     MW 6824   0.581   3.189   1.131
 1707SOL     OW 6825   3.327   2.727   6.386
 1707SOL    HW1 6826   3.262   2.668   6.425
 1707SOL    HW2 6827   3.410   2.703   6.428
 1707SOL     MW 6828   3.329   2.716   6.397
 1708SOL     OW 6829   1.517   3.649   4.804
 1708SOL    HW1 6830   1.446   3.587   4.819
 1708SOL    HW2 6831   1.477   3.721   4.755
 1708SOL     MW 6832   1.502   3.650   4.799
 1709SOL     OW 6833   9.775   5.970   5.055
 1709SOL    HW1 6834   9.783   5.958   5.150
 1709SOL    HW2 6835   9.729   6.053   5.045
 1709SOL     MW 6836   9.770   5.979   5.067
 1710SOL     OW 6837   9.152   7.345   8.286
 1710SOL    HW1 6838   9.094   7.333   8.212
 1710SOL    HW2 6839   9.182   7.436   8.279
 1710SOL     MW 6840   9.148   7.356   8.275
 1711SOL     OW 6841   8.142   2.146   9.269
 1711SOL    HW1 6842   8.231   2.180   9.264
 1711SOL    HW2 6843   8.146   2.062   9.223
 1711SOL     MW 6844   8.154   2.139   9.262
 1712SOL     OW 6845   5.816   5.311   5.231
 1712SOL    HW1 6846   5.790   5.278   5.317
 1712SOL    HW2 6847   5.899   5.267   5.212
 1712SOL     MW 6848   5.824   5.301   5.240
 1713SOL     OW 6849   2.232   5.468   3.885
 1713SOL    HW1 6850   2.271   5.555   3.888
 1713SOL    HW2 6851   2.305   5.408   3.898
 1713SOL     MW 6852   2.247   5.472   3.887
 1714SOL     OW 6853   8.929   6.771   7.138
 1714SOL    HW1 6854   8.906   6.695   7.084
 1714SOL    HW2 6855   8.983   6.826   7.081
 1714SOL     MW 6856   8.933   6.768   7.123
 1715SOL     OW 6857   4.543   9.143   4.211
 1715SOL    HW1 6858   4.569   9.098   4.131
 1715SOL    HW2 6859   4.516   9.072   4.270
 1715SOL     MW 6860   4.543   9.127   4.208
 1716SOL     OW 6861   5.726   7.282   7.133
 1716SOL    HW1 6862   5.728   7.375   7.157
 1716SOL    HW2 6863   5.779   7.239   7.201
 1716SOL     MW 6864   5.734   7.289   7.146
 1717SOL     OW 6865   6.805   8.833   5.852
 1717SOL    HW1 6866   6.847   8.863   5.772
 1717SOL    HW2 6867   6.781   8.913   5.898
 1717SOL     MW 6868   6.808   8.847   5.848
 1718SOL     OW 6869   0.791   7.991   1.632
 1718SOL    HW1 6870   0.784   7.914   1.689
 1718SOL    HW2 6871   0.724   7.978   1.565
 1718SOL     MW 6872   0.781   7.979   1.631
 1719SOL     OW 6873   7.683   9.858   2.100
 1719SOL    HW1 6874   7.637   9.922   2.045
 1719SOL    HW2 6875   7.731   9.804   2.038
 1719SOL     MW 6876   7.683   9.859   2.084
 1720SOL     OW 6877   0.986   2.203   8.793
 1720SOL    HW1 6878   1.064   2.223   8.741
 1720SOL    HW2 6879   0.926   2.161   8.731
 1720SOL     MW 6880   0.988   2.200   8.777
 1721SOL     OW 6881   4.622   2.996   3.066
 1721SOL    HW1 6882   4.547   2.997   3.007
 1721SOL    HW2 6883   4.598   2.933   3.134
 1721SOL     MW 6884   4.608   2.988   3.067
 1722SOL     OW 6885   4.470   0.795   9.982
 1722SOL    HW1 6886   4.498   0.709   9.951
 1722SOL    HW2 6887   4.499   0.856   9.914
 1722SOL     MW 6888   4.478   0.792   9.968
 1723SOL     OW 6889   6.049   3.087   3.572
 1723SOL    HW1 6890   5.956   3.067   3.576
 1723SOL    HW2 6891   6.079   3.082   3.663
 1723SOL     MW 6892   6.041   3.084   3.585
 1724SOL     OW 6893   1.656   1.155   4.293
 1724SOL    HW1 6894   1.711   1.108   4.231
 1724SOL    HW2 6895   1.615   1.086   4.345
 1724SOL     MW 6896   1.658   1.140   4.292
 1725SOL     OW 6897   4.171   4.890   5.347
 1725SOL    HW1 6898   4.110   4.948   5.393
 1725SOL    HW2 6899   4.128   4.805   5.344
 1725SOL     MW 6900   4.157   4.887   5.352
 1726SOL     OW 6901   5.237   7.608  10.001
 1726SOL    HW1 6902   5.263   7.699   9.988
 1726SOL    HW2 6903   5.315   7.564  10.034
 1726SOL     MW 6904   5.251   7.614  10.003
 1727SOL     OW 6905   5.262   8.038   3.874
 1727SOL    HW1 6906   5.223   7.953   3.852
 1727SOL    HW2 6907   5.346   8.015   3.913
 1727SOL     MW 6908   5.268   8.023   3.876
 1728SOL     OW 6909   4.018   0.280   4.753
 1728SOL    HW1 6910   4.050   0.240   4.672
 1728SOL    HW2 6911   3.925   0.259   4.756
 1728SOL     MW 6912   4.010   0.272   4.743
 1729SOL     OW 6913   3.569   1.412   9.997
 1729SOL    HW1 6914   3.662   1.395  10.008
 1729SOL    HW2 6915   3.527   1.369  10.071
 1729SOL     MW 6916   3.575   1.404  10.009
 1730SOL     OW 6917   3.362   9.822   9.927
 1730SOL    HW1 6918   3.297   9.779   9.872
 1730SOL    HW2 6919   3.314   9.890   9.974
 1730SOL     MW 6920   3.347   9.825   9.926
 1731SOL     OW 6921   2.684   9.822   3.684
 1731SOL    HW1 6922   2.716   9.736   3.658
 1731SOL    HW2 6923   2.615   9.803   3.748
 1731SOL     MW 6924   2.679   9.808   3.689
 1732SOL     OW 6925   1.699   3.983   7.972
 1732SOL    HW1 6926   1.676   3.892   7.991
 1732SOL    HW2 6927   1.794   3.985   7.976
 1732SOL     MW 6928   1.709   3.971   7.975
 1733SOL     OW 6929   7.480   8.901   4.777
 1733SOL    HW1 6930   7.426   8.945   4.712
 1733SOL    HW2 6931   7.534   8.840   4.727
 1733SOL     MW 6932   7.480   8.899   4.762
 1734SOL     OW 6933   6.960   2.049   5.298
 1734SOL    HW1 6934   7.011   2.011   5.370
 1734SOL    HW2 6935   7.024   2.065   5.229
 1734SOL     MW 6936   6.975   2.046   5.298
 1735SOL     OW 6937   6.233   7.643   9.294
 1735SOL    HW1 6938   6.314   7.596   9.273
 1735SOL    HW2 6939   6.211   7.614   9.382
 1735SOL     MW 6940   6.241   7.632   9.303
 1736SOL     OW 6941   8.448   9.755   1.649
 1736SOL    HW1 6942   8.513   9.685   1.639
 1736SOL    HW2 6943   8.365   9.712   1.628
 1736SOL     MW 6944   8.446   9.740   1.645
 1737SOL     OW 6945   0.762   4.712   7.974
 1737SOL    HW1 6946   0.809   4.777   7.922
 1737SOL    HW2 6947   0.726   4.651   7.909
 1737SOL     MW 6948   0.764   4.712   7.958
 1738SOL     OW 6949   8.905   8.110   9.609
 1738SOL    HW1 6950   8.902   8.192   9.658
 1738SOL    HW2 6951   8.878   8.134   9.520
 1738SOL     MW 6952   8.901   8.124   9.604
 1739SOL     OW 6953   8.851   0.192   2.193
 1739SOL    HW1 6954   8.867   0.180   2.286
 1739SOL    HW2 6955   8.764   0.230   2.187
 1739SOL     MW 6956   8.842   0.195   2.205
 1740SOL     OW 6957   5.791   8.153   2.118
 1740SOL    HW1 6958   5.810   8.136   2.210
 1740SOL    HW2 6959   5.847   8.227   2.095
 1740SOL     MW 6960   5.801   8.161   2.127
 1741SOL     OW 6961   7.914   7.339   6.503
 1741SOL    HW1 6962   7.900   7.414   6.562
 1741SOL    HW2 6963   7.954   7.377   6.425
 1741SOL     MW 6964   7.917   7.354   6.501
 1742SOL     OW 6965   0.567   2.036   4.400
 1742SOL    HW1 6966   0.493   2.095   4.390
 1742SOL    HW2 6967   0.641   2.083   4.360
 1742SOL     MW 6968   0.567   2.050   4.393
 1743SOL     OW 6969   4.057   8.771   7.640
 1743SOL    HW1 6970   4.096   8.778   7.727
 1743SOL    HW2 6971   3.999   8.695   7.646
 1743SOL     MW 6972   4.054   8.762   7.652
 1744SOL     OW 6973   4.544   9.276   9.417
 1744SOL    HW1 6974   4.630   9.316   9.431
 1744SOL    HW2 6975   4.482   9.346   9.436
 1744SOL     MW 6976   4.548   9.291   9.422
 1745SOL     OW 6977   5.798   8.581   6.339
 1745SOL    HW1 6978   5.856   8.520   6.294
 1745SOL    HW2 6979   5.849   8.611   6.414
 1745SOL     MW 6980   5.813   8.577   6.343
 1746SOL     OW 6981   7.745   9.069   7.592
 1746SOL    HW1 6982   7.658   9.028   7.592
 1746SOL    HW2 6983   7.769   9.074   7.685
 1746SOL     MW 6984   7.736   9.064   7.605
 1747SOL     OW 6985   0.166   8.029   0.849
 1747SOL    HW1 6986   0.124   8.066   0.927
 1747SOL    HW2 6987   0.100   8.039   0.780
 1747SOL     MW 6988   0.151   8.036   0.850
 1748SOL     OW 6989   8.916   4.750   9.795
 1748SOL    HW1 6990   8.965   4.802   9.730
 1748SOL    HW2 6991   8.984   4.709   9.849
 1748SOL     MW 6992   8.932   4.752   9.793
 1749SOL     OW 6993   6.280   0.846   6.637
 1749SOL    HW1 6994   6.352   0.905   6.613
 1749SOL    HW2 6995   6.221   0.848   6.562
 1749SOL     MW 6996   6.282   0.854   6.624
 1750SOL     OW 6997   7.056   6.519   5.624
 1750SOL    HW1 6998   7.050   6.434   5.668
 1750SOL    HW2 6999   7.079   6.581   5.693
 1750SOL     MW 7000   7.058   6.516   5.639
 1751SOL     OW 7001   3.393   7.521   8.982
 1751SOL    HW1 7002   3.469   7.557   8.938
 1751SOL    HW2 7003   3.324   7.587   8.969
 1751SOL     MW 7004   3.394   7.535   8.974
 1752SOL     OW 7005   1.591   8.953   9.591
 1752SOL    HW1 7006   1.603   9.015   9.520
 1752SOL    HW2 7007   1.540   9.000   9.656
 1752SOL     MW 7008   1.586   8.968   9.590
 1753SOL     OW 7009   1.901   1.033   3.872
 1753SOL    HW1 7010   1.986   1.064   3.840
 1753SOL    HW2 7011   1.848   1.025   3.793
 1753SOL     MW 7012   1.905   1.036   3.857
 1754SOL     OW 7013   4.208   3.003  10.025
 1754SOL    HW1 7014   4.190   2.911  10.045
 1754SOL    HW2 7015   4.290   3.021  10.071
 1754SOL     MW 7016   4.217   2.993  10.034
 1755SOL     OW 7017   7.687   8.213   8.532
 1755SOL    HW1 7018   7.694   8.123   8.500
 1755SOL    HW2 7019   7.750   8.262   8.479
 1755SOL     MW 7020   7.697   8.208   8.521
 1756SOL     OW 7021   5.499   9.678   9.570
 1756SOL    HW1 7022   5.409   9.664   9.597
 1756SOL    HW2 7023   5.493   9.741   9.497
 1756SOL     MW 7024   5.486   9.685   9.563
 1757SOL     OW 7025   0.136   5.761   5.621
 1757SOL    HW1 7026   0.053   5.806   5.635
 1757SOL    HW2 7027   0.137   5.743   5.527
 1757SOL     MW 7028   0.125   5.765   5.610
 1758SOL     OW 7029   5.961   5.579   2.667
 1758SOL    HW1 7030   5.871   5.581   2.701
 1758SOL    HW2 7031   5.994   5.493   2.692
 1758SOL     MW 7032   5.953   5.568   2.675
 1759SOL     OW 7033   2.441   3.184   5.225
 1759SOL    HW1 7034   2.492   3.119   5.274
 1759SOL    HW2 7035   2.496   3.206   5.150
 1759SOL     MW 7036   2.455   3.178   5.222
 1760SOL     OW 7037   1.483   7.912   3.785
 1760SOL    HW1 7038   1.480   7.974   3.857
 1760SOL    HW2 7039   1.424   7.949   3.719
 1760SOL     MW 7040   1.474   7.925   3.786
 1761SOL     OW 7041   4.205   9.993   2.637
 1761SOL    HW1 7042   4.207   9.960   2.547
 1761SOL    HW2 7043   4.285   9.958   2.677
 1761SOL     MW 7044   4.216   9.984   2.630
 1762SOL     OW 7045   9.744   7.385   0.826
 1762SOL    HW1 7046   9.780   7.468   0.797
 1762SOL    HW2 7047   9.815   7.345   0.877
 1762SOL     MW 7048   9.758   7.391   0.829
 1763SOL     OW 7049   4.005   0.756   1.881
 1763SOL    HW1 7050   4.007   0.680   1.823
 1763SOL    HW2 7051   4.051   0.824   1.833
 1763SOL     MW 7052   4.012   0.755   1.867
 1764SOL     OW 7053   3.883   8.135   0.502
 1764SOL    HW1 7054   3.921   8.057   0.463
 1764SOL    HW2 7055   3.938   8.207   0.471
 1764SOL     MW 7056   3.895   8.134   0.493
 1765SOL     OW 7057   3.043   4.122   8.190
 1765SOL    HW1 7058   3.010   4.209   8.168
 1765SOL    HW2 7059   2.982   4.089   8.256
 1765SOL     MW 7060   3.030   4.129   8.196
 1766SOL     OW 7061   7.499   6.976   3.785
 1766SOL    HW1 7062   7.405   6.986   3.773
 1766SOL    HW2 7063   7.520   7.031   3.861
 1766SOL     MW 7064   7.490   6.985   3.794
 1767SOL     OW 7065   4.905   9.473   4.786
 1767SOL    HW1 7066   4.822   9.521   4.782
 1767SOL    HW2 7067   4.881   9.381   4.778
 1767SOL     MW 7068   4.891   9.467   4.784
 1768SOL     OW 7069   3.589   1.112   3.395
 1768SOL    HW1 7070   3.674   1.120   3.352
 1768SOL    HW2 7071   3.596   1.169   3.472
 1768SOL     MW 7072   3.602   1.120   3.400
 1769SOL     OW 7073   7.285   2.807   6.855
 1769SOL    HW1 7074   7.327   2.723   6.877
 1769SOL    HW2 7075   7.358   2.869   6.847
 1769SOL     MW 7076   7.301   2.804   6.857
 1770SOL     OW 7077   6.373   0.168   6.980
 1770SOL    HW1 7078   6.379   0.263   6.971
 1770SOL    HW2 7079   6.304   0.143   6.918
 1770SOL     MW 7080   6.364   0.178   6.971
 1771SOL     OW 7081   3.497   0.183   9.176
 1771SOL    HW1 7082   3.466   0.181   9.086
 1771SOL    HW2 7083   3.438   0.245   9.220
 1771SOL     MW 7084   3.485   0.191   9.170
 1772SOL     OW 7085   7.842   2.618   1.296
 1772SOL    HW1 7086   7.894   2.694   1.321
 1772SOL    HW2 7087   7.841   2.619   1.201
 1772SOL     MW 7088   7.849   2.629   1.287
 1773SOL     OW 7089   2.601   9.556   5.774
 1773SOL    HW1 7090   2.547   9.631   5.798
 1773SOL    HW2 7091   2.641   9.528   5.857
 1773SOL     MW 7092   2.599   9.562   5.789
 1774SOL     OW 7093   3.676   3.893   3.629
 1774SOL    HW1 7094   3.726   3.969   3.658
 1774SOL    HW2 7095   3.585   3.916   3.645
 1774SOL     MW 7096   3.671   3.906   3.635
 1775SOL     OW 7097   0.464   6.886   4.369
 1775SOL    HW1 7098   0.417   6.812   4.408
 1775SOL    HW2 7099   0.408   6.915   4.297
 1775SOL     MW 7100   0.450   6.880   4.365
 1776SOL     OW 7101   4.517   1.278   0.676
 1776SOL    HW1 7102   4.564   1.294   0.594
 1776SOL    HW2 7103   4.451   1.212   0.653
 1776SOL     MW 7104   4.515   1.271   0.662
 1777SOL     OW 7105   6.692   6.639   1.705
 1777SOL    HW1 7106   6.645   6.684   1.776
 1777SOL    HW2 7107   6.751   6.706   1.670
 1777SOL     MW 7108   6.693   6.654   1.710
 1778SOL     OW 7109   0.289   8.329   2.083
 1778SOL    HW1 7110   0.297   8.346   1.989
 1778SOL    HW2 7111   0.364   8.373   2.123
 1778SOL     MW 7112   0.300   8.337   2.076
 1779SOL     OW 7113   5.405   9.567   6.132
 1779SOL    HW1 7114   5.351   9.499   6.172
 1779SOL    HW2 7115   5.381   9.647   6.180
 1779SOL     MW 7116   5.394   9.569   6.144
 1780SOL     OW 7117   9.565   1.455   8.233
 1780SOL    HW1 7118   9.545   1.368   8.197
 1780SOL    HW2 7119   9.648   1.479   8.192
 1780SOL     MW 7120   9.573   1.447   8.222
 1781SOL     OW 7121   7.807   1.113   6.347
 1781SOL    HW1 7122   7.787   1.151   6.433
 1781SOL    HW2 7123   7.754   1.034   6.342
 1781SOL     MW 7124   7.797   1.108   6.358
 1782SOL     OW 7125   4.224   7.078   1.032
 1782SOL    HW1 7126   4.245   7.163   0.994
 1782SOL    HW2 7127   4.305   7.026   1.022
 1782SOL     MW 7128   4.238   7.082   1.025
 1783SOL     OW 7129   7.883   9.046   7.339
 1783SOL    HW1 7130   7.827   9.088   7.273
 1783SOL    HW2 7131   7.838   9.062   7.422
 1783SOL     MW 7132   7.869   9.054   7.341
 1784SOL     OW 7133   9.294   2.169   1.258
 1784SOL    HW1 7134   9.289   2.088   1.309
 1784SOL    HW2 7135   9.379   2.163   1.213
 1784SOL     MW 7136   9.305   2.158   1.258
 1785SOL     OW 7137   3.696   8.945   5.607
 1785SOL    HW1 7138   3.760   9.014   5.589
 1785SOL    HW2 7139   3.737   8.866   5.573
 1785SOL     MW 7140   3.710   8.944   5.600
 1786SOL     OW 7141   8.588   1.373  -0.017
 1786SOL    HW1 7142   8.673   1.404   0.014
 1786SOL    HW2 7143   8.535   1.364   0.062
 1786SOL     MW 7144   8.592   1.376  -0.002
 1787SOL     OW 7145   8.982   8.434   9.296
 1787SOL    HW1 7146   9.065   8.455   9.339
 1787SOL    HW2 7147   8.923   8.505   9.322
 1787SOL     MW 7148   8.986   8.447   9.305
 1788SOL     OW 7149   0.274   6.242   9.021
 1788SOL    HW1 7150   0.212   6.231   9.093
 1788SOL    HW2 7151   0.360   6.232   9.062
 1788SOL     MW 7152   0.277   6.239   9.036
 1789SOL     OW 7153   0.618   6.738  10.142
 1789SOL    HW1 7154   0.637   6.667  10.080
 1789SOL    HW2 7155   0.704   6.762  10.177
 1789SOL     MW 7156   0.633   6.731  10.139
 1790SOL     OW 7157  10.009   3.120   2.025
 1790SOL    HW1 7158  10.008   3.067   1.946
 1790SOL    HW2 7159   9.929   3.096   2.072
 1790SOL     MW 7160   9.998   3.110   2.021
 1791SOL     OW 7161   8.663   4.652   9.735
 1791SOL    HW1 7162   8.604   4.721   9.765
 1791SOL    HW2 7163   8.751   4.684   9.756
 1791SOL     MW 7164   8.667   4.665   9.742
 1792SOL     OW 7165   3.806   4.871   5.404
 1792SOL    HW1 7166   3.856   4.953   5.392
 1792SOL    HW2 7167   3.718   4.892   5.373
 1792SOL     MW 7168   3.801   4.885   5.399
 1793SOL     OW 7169   6.245   4.721   1.524
 1793SOL    HW1 7170   6.176   4.725   1.459
 1793SOL    HW2 7171   6.287   4.636   1.510
 1793SOL     MW 7172   6.242   4.710   1.514
 1794SOL     OW 7173   7.079   0.304  10.051
 1794SOL    HW1 7174   7.010   0.305   9.985
 1794SOL    HW2 7175   7.128   0.224  10.033
 1794SOL     MW 7176   7.077   0.293  10.040
 1795SOL     OW 7177   1.523   7.316   4.725
 1795SOL    HW1 7178   1.501   7.394   4.775
 1795SOL    HW2 7179   1.531   7.346   4.635
 1795SOL     MW 7180   1.521   7.330   4.720
 1796SOL     OW 7181   0.088   4.049   3.934
 1796SOL    HW1 7182   0.021   4.105   3.896
 1796SOL    HW2 7183   0.063   3.960   3.909
 1796SOL     MW 7184   0.076   4.044   3.926
 1797SOL     OW 7185   9.025   3.009   9.124
 1797SOL    HW1 7186   8.941   3.047   9.149
 1797SOL    HW2 7187   9.090   3.070   9.159
 1797SOL     MW 7188   9.022   3.022   9.132
 1798SOL     OW 7189   1.214   4.585   7.563
 1798SOL    HW1 7190   1.306   4.611   7.566
 1798SOL    HW2 7191   1.215   4.491   7.546
 1798SOL     MW 7192   1.227   4.576   7.561
 1799SOL     OW 7193   4.709   6.199   9.762
 1799SOL    HW1 7194   4.661   6.163   9.837
 1799SOL    HW2 7195   4.698   6.133   9.693
 1799SOL     MW 7196   4.701   6.185   9.763
 1800SOL     OW 7197   6.581   7.274   2.113
 1800SOL    HW1 7198   6.662   7.225   2.121
 1800SOL    HW2 7199   6.603   7.362   2.145
 1800SOL     MW 7200   6.595   7.279   2.119
 1801SOL     OW 7201   4.216   0.817   5.797
 1801SOL    HW1 7202   4.178   0.893   5.752
 1801SOL    HW2 7203   4.278   0.854   5.859
 1801SOL     MW 7204   4.219   0.832   5.799
 1802SOL     OW 7205   1.398   8.748  10.161
 1802SOL    HW1 7206   1.481   8.704  10.146
 1802SOL    HW2 7207   1.344   8.725  10.085
 1802SOL     MW 7208   1.402   8.739  10.149
 1803SOL     OW 7209   7.544   2.847   3.142
 1803SOL    HW1 7210   7.547   2.809   3.055
 1803SOL    HW2 7211   7.451   2.851   3.163
 1803SOL     MW 7212   7.532   2.842   3.133
 1804SOL     OW 7213   9.207   8.361   8.161
 1804SOL    HW1 7214   9.137   8.425   8.177
 1804SOL    HW2 7215   9.255   8.397   8.086
 1804SOL     MW 7216   9.204   8.375   8.153
 1805SOL     OW 7217   7.958   9.574   9.441
 1805SOL    HW1 7218   7.906   9.495   9.423
 1805SOL    HW2 7219   8.030   9.542   9.495
 1805SOL     MW 7220   7.960   9.559   9.446
 1806SOL     OW 7221   4.065   0.908   0.385
 1806SOL    HW1 7222   3.993   0.968   0.404
 1806SOL    HW2 7223   4.036   0.860   0.307
 1806SOL     MW 7224   4.051   0.909   0.377
 1807SOL     OW 7225   9.557   3.144   2.296
 1807SOL    HW1 7226   9.626   3.135   2.362
 1807SOL    HW2 7227   9.476   3.140   2.347
 1807SOL     MW 7228   9.555   3.142   2.312
 1808SOL     OW 7229   8.314   7.445   8.121
 1808SOL    HW1 7230   8.270   7.379   8.068
 1808SOL    HW2 7231   8.251   7.467   8.190
 1808SOL     MW 7232   8.299   7.439   8.123
 1809SOL     OW 7233   5.517   3.670   3.020
 1809SOL    HW1 7234   5.559   3.611   3.082
 1809SOL    HW2 7235   5.436   3.626   2.995
 1809SOL     MW 7236   5.511   3.656   3.025
 1810SOL     OW 7237   8.600   9.821   8.466
 1810SOL    HW1 7238   8.563   9.908   8.451
 1810SOL    HW2 7239   8.564   9.794   8.550
 1810SOL     MW 7240   8.590   9.829   8.475
 1811SOL     OW 7241   8.983   6.715   9.813
 1811SOL    HW1 7242   8.979   6.623   9.786
 1811SOL    HW2 7243   9.028   6.759   9.741
 1811SOL     MW 7244   8.989   6.708   9.800
 1812SOL     OW 7245   7.578   1.874   9.094
 1812SOL    HW1 7246   7.547   1.823   9.019
 1812SOL    HW2 7247   7.670   1.892   9.075
 1812SOL     MW 7248   7.586   1.869   9.082
 1813SOL     OW 7249   3.743   4.572   0.429
 1813SOL    HW1 7250   3.738   4.488   0.474
 1813SOL    HW2 7251   3.661   4.616   0.450
 1813SOL     MW 7252   3.732   4.567   0.438
 1814SOL     OW 7253   4.006   4.435   2.830
 1814SOL    HW1 7254   3.980   4.371   2.763
 1814SOL    HW2 7255   4.025   4.381   2.907
 1814SOL     MW 7256   4.005   4.419   2.831
 1815SOL     OW 7257   7.069   8.309   2.242
 1815SOL    HW1 7258   7.045   8.358   2.321
 1815SOL    HW2 7259   7.055   8.217   2.265
 1815SOL     MW 7260   7.064   8.303   2.256
 1816SOL     OW 7261   3.086   4.970   1.237
 1816SOL    HW1 7262   3.077   5.021   1.318
 1816SOL    HW2 7263   3.116   5.033   1.172
 1816SOL     MW 7264   3.089   4.986   1.240
 1817SOL     OW 7265   1.374   2.664   7.363
 1817SOL    HW1 7266   1.348   2.700   7.448
 1817SOL    HW2 7267   1.432   2.730   7.326
 1817SOL     MW 7268   1.378   2.678   7.369
 1818SOL     OW 7269   2.596   2.971   5.325
 1818SOL    HW1 7270   2.686   2.938   5.312
 1818SOL    HW2 7271   2.544   2.920   5.263
 1818SOL     MW 7272   2.601   2.959   5.315
 1819SOL     OW 7273   6.274   2.168   4.838
 1819SOL    HW1 7274   6.328   2.200   4.911
 1819SOL    HW2 7275   6.186   2.197   4.860
 1819SOL     MW 7276   6.270   2.176   4.851
 1820SOL     OW 7277   7.139   4.100   2.492
 1820SOL    HW1 7278   7.071   4.167   2.492
 1820SOL    HW2 7279   7.195   4.124   2.418
 1820SOL     MW 7280   7.137   4.113   2.482
 1821SOL     OW 7281   0.224   5.175   3.837
 1821SOL    HW1 7282   0.170   5.137   3.906
 1821SOL    HW2 7283   0.295   5.220   3.884
 1821SOL     MW 7284   0.226   5.176   3.852
 1822SOL     OW 7285   4.167   2.740  10.097
 1822SOL    HW1 7286   4.124   2.729  10.182
 1822SOL    HW2 7287   4.254   2.702  10.109
 1822SOL     MW 7288   4.173   2.733  10.110
 1823SOL     OW 7289   3.163   3.823   6.257
 1823SOL    HW1 7290   3.072   3.818   6.228
 1823SOL    HW2 7291   3.198   3.736   6.241
 1823SOL     MW 7292   3.155   3.811   6.251
 1824SOL     OW 7293   3.320   9.294   4.856
 1824SOL    HW1 7294   3.387   9.284   4.787
 1824SOL    HW2 7295   3.237   9.301   4.808
 1824SOL     MW 7296   3.318   9.293   4.840
 1825SOL     OW 7297   1.747   2.062   5.230
 1825SOL    HW1 7298   1.835   2.063   5.193
 1825SOL    HW2 7299   1.699   1.999   5.176
 1825SOL     MW 7300   1.752   2.053   5.218
 1826SOL     OW 7301   9.471   8.462   1.639
 1826SOL    HW1 7302   9.539   8.405   1.602
 1826SOL    HW2 7303   9.518   8.543   1.660
 1826SOL     MW 7304   9.487   8.465   1.636
 1827SOL     OW 7305   1.230   4.310   7.520
 1827SOL    HW1 7306   1.214   4.263   7.601
 1827SOL    HW2 7307   1.157   4.286   7.463
 1827SOL     MW 7308   1.218   4.301   7.523
 1828SOL     OW 7309   0.133   7.706   5.383
 1828SOL    HW1 7310   0.199   7.759   5.428
 1828SOL    HW2 7311   0.172   7.686   5.298
 1828SOL     MW 7312   0.147   7.711   5.378
 1829SOL     OW 7313   1.737   8.004   8.471
 1829SOL    HW1 7314   1.757   8.096   8.452
 1829SOL    HW2 7315   1.821   7.959   8.464
 1829SOL     MW 7316   1.751   8.010   8.468
 1830SOL     OW 7317   4.382   4.097   1.547
 1830SOL    HW1 7318   4.351   4.125   1.633
 1830SOL    HW2 7319   4.435   4.019   1.564
 1830SOL     MW 7320   4.385   4.090   1.561
 1831SOL     OW 7321   3.185   2.632   2.707
 1831SOL    HW1 7322   3.108   2.666   2.752
 1831SOL    HW2 7323   3.228   2.576   2.772
 1831SOL     MW 7324   3.181   2.629   2.722
 1832SOL     OW 7325   3.895   5.278   4.363
 1832SOL    HW1 7326   3.849   5.267   4.280
 1832SOL    HW2 7327   3.919   5.371   4.365
 1832SOL     MW 7328   3.892   5.289   4.352
 1833SOL     OW 7329   0.952   4.170   8.405
 1833SOL    HW1 7330   0.910   4.089   8.436
 1833SOL    HW2 7331   1.015   4.192   8.473
 1833SOL     MW 7332   0.955   4.162   8.418
 1834SOL     OW 7333   5.316   3.308   9.914
 1834SOL    HW1 7334   5.329   3.339   9.824
 1834SOL    HW2 7335   5.238   3.252   9.909
 1834SOL     MW 7336   5.307   3.304   9.901
 1835SOL     OW 7337   9.165   5.671   3.006
 1835SOL    HW1 7338   9.087   5.659   2.952
 1835SOL    HW2 7339   9.206   5.584   3.009
 1835SOL     MW 7340   9.160   5.657   2.999
 1836SOL     OW 7341   3.288   9.871   1.608
 1836SOL    HW1 7342   3.326   9.906   1.688
 1836SOL    HW2 7343   3.341   9.795   1.586
 1836SOL     MW 7344   3.300   9.865   1.616
 1837SOL     OW 7345   2.090   0.429   5.520
 1837SOL    HW1 7346   2.174   0.424   5.474
 1837SOL    HW2 7347   2.113   0.433   5.613
 1837SOL     MW 7348   2.104   0.429   5.526
 1838SOL     OW 7349   2.978   9.639   2.531
 1838SOL    HW1 7350   2.912   9.573   2.514
 1838SOL    HW2 7351   2.973   9.698   2.455
 1838SOL     MW 7352   2.968   9.638   2.518
 1839SOL     OW 7353   7.213   5.731   0.533
 1839SOL    HW1 7354   7.304   5.705   0.518
 1839SOL    HW2 7355   7.173   5.729   0.446
 1839SOL     MW 7356   7.220   5.727   0.519
 1840SOL     OW 7357   4.321   9.439   4.712
 1840SOL    HW1 7358   4.361   9.479   4.790
 1840SOL    HW2 7359   4.255   9.379   4.747
 1840SOL     MW 7360   4.318   9.436   4.727
 1841SOL     OW 7361   4.111   0.175   4.517
 1841SOL    HW1 7362   4.153   0.249   4.472
 1841SOL    HW2 7363   4.172   0.102   4.506
 1841SOL     MW 7364   4.125   0.175   4.509
 1842SOL     OW 7365   6.316   4.015   0.538
 1842SOL    HW1 7366   6.238   3.970   0.569
 1842SOL    HW2 7367   6.367   4.033   0.618
 1842SOL     MW 7368   6.313   4.011   0.553
 1843SOL     OW 7369   6.774   2.466   0.654
 1843SOL    HW1 7370   6.858   2.430   0.681
 1843SOL    HW2 7371   6.791   2.559   0.639
 1843SOL     MW 7372   6.788   2.474   0.656
 1844SOL     OW 7373   6.018   6.326   5.600
 1844SOL    HW1 7374   6.043   6.233   5.594
 1844SOL    HW2 7375   6.039   6.350   5.690
 1844SOL     MW 7376   6.024   6.317   5.611
 1845SOL     OW 7377   4.048   2.161   4.676
 1845SOL    HW1 7378   4.056   2.065   4.681
 1845SOL    HW2 7379   4.138   2.193   4.690
 1845SOL     MW 7380   4.061   2.152   4.678
 1846SOL     OW 7381   4.094   7.685   7.808
 1846SOL    HW1 7382   4.190   7.681   7.815
 1846SOL    HW2 7383   4.078   7.753   7.743
 1846SOL     MW 7384   4.105   7.694   7.800
 1847SOL     OW 7385   6.730   0.860   4.283
 1847SOL    HW1 7386   6.741   0.864   4.378
 1847SOL    HW2 7387   6.801   0.804   4.253
 1847SOL     MW 7388   6.741   0.853   4.292
 1848SOL     OW 7389  10.058   7.610   5.517
 1848SOL    HW1 7390  10.135   7.644   5.470
 1848SOL    HW2 7391   9.993   7.595   5.448
 1848SOL     MW 7392  10.060   7.612   5.501
 1849SOL     OW 7393   0.794   9.841   5.090
 1849SOL    HW1 7394   0.889   9.832   5.105
 1849SOL    HW2 7395   0.781   9.935   5.075
 1849SOL     MW 7396   0.805   9.853   5.090
 1850SOL     OW 7397   3.172   0.911   1.504
 1850SOL    HW1 7398   3.173   0.992   1.454
 1850SOL    HW2 7399   3.232   0.853   1.458
 1850SOL     MW 7400   3.180   0.914   1.491
 1851SOL     OW 7401   5.304   7.992   0.802
 1851SOL    HW1 7402   5.257   7.919   0.762
 1851SOL    HW2 7403   5.390   7.990   0.762
 1851SOL     MW 7404   5.309   7.982   0.791
 1852SOL     OW 7405   2.386   6.025   7.909
 1852SOL    HW1 7406   2.316   5.991   7.853
 1852SOL    HW2 7407   2.461   5.968   7.890
 1852SOL     MW 7408   2.387   6.013   7.899
 1853SOL     OW 7409   3.494   9.688   3.786
 1853SOL    HW1 7410   3.400   9.688   3.802
 1853SOL    HW2 7411   3.507   9.748   3.713
 1853SOL     MW 7412   3.483   9.696   3.779
 1854SOL     OW 7413   3.919   1.128   1.728
 1854SOL    HW1 7414   3.926   1.210   1.778
 1854SOL    HW2 7415   3.840   1.087   1.761
 1854SOL     MW 7416   3.910   1.134   1.739
 1855SOL     OW 7417   1.504   2.454   7.492
 1855SOL    HW1 7418   1.447   2.378   7.483
 1855SOL    HW2 7419   1.465   2.520   7.436
 1855SOL     MW 7420   1.491   2.452   7.483
 1856SOL     OW 7421   2.988   0.103   5.972
 1856SOL    HW1 7422   3.056   0.035   5.980
 1856SOL    HW2 7423   2.975   0.112   5.878
 1856SOL     MW 7424   2.996   0.095   5.961
 1857SOL     OW 7425   1.237   1.855   0.734
 1857SOL    HW1 7426   1.332   1.867   0.744
 1857SOL    HW2 7427   1.220   1.878   0.642
 1857SOL     MW 7428   1.248   1.860   0.723
 1858SOL     OW 7429   2.279   9.822   3.639
 1858SOL    HW1 7430   2.287   9.917   3.640
 1858SOL    HW2 7431   2.326   9.795   3.560
 1858SOL     MW 7432   2.287   9.831   3.628
 1859SOL     OW 7433   8.067   5.558   9.638
 1859SOL    HW1 7434   8.040   5.480   9.687
 1859SOL    HW2 7435   8.066   5.531   9.546
 1859SOL     MW 7436   8.063   5.544   9.632
 1860SOL     OW 7437   2.072   2.167   5.400
 1860SOL    HW1 7438   1.983   2.165   5.436
 1860SOL    HW2 7439   2.129   2.161   5.477
 1860SOL     MW 7440   2.068   2.166   5.415
 1861SOL     OW 7441   3.870   4.657   0.658
 1861SOL    HW1 7442   3.935   4.589   0.675
 1861SOL    HW2 7443   3.841   4.641   0.569
 1861SOL     MW 7444   3.875   4.646   0.649
 1862SOL     OW 7445   8.853   3.542   0.877
 1862SOL    HW1 7446   8.783   3.508   0.820
 1862SOL    HW2 7447   8.922   3.568   0.816
 1862SOL     MW 7448   8.853   3.541   0.861
 1863SOL     OW 7449   4.194   6.189   3.358
 1863SOL    HW1 7450   4.181   6.256   3.291
 1863SOL    HW2 7451   4.167   6.232   3.440
 1863SOL     MW 7452   4.189   6.204   3.360
 1864SOL     OW 7453   5.795   5.767   1.359
 1864SOL    HW1 7454   5.861   5.721   1.308
 1864SOL    HW2 7455   5.712   5.730   1.330
 1864SOL     MW 7456   5.792   5.756   1.348
 1865SOL     OW 7457   8.567   0.905   8.233
 1865SOL    HW1 7458   8.491   0.946   8.192
 1865SOL    HW2 7459   8.627   0.887   8.161
 1865SOL     MW 7460   8.565   0.908   8.218
 1866SOL     OW 7461   4.406   4.217   9.626
 1866SOL    HW1 7462   4.485   4.217   9.572
 1866SOL    HW2 7463   4.409   4.134   9.673
 1866SOL     MW 7464   4.417   4.206   9.625
 1867SOL     OW 7465   7.369   8.284   6.403
 1867SOL    HW1 7466   7.386   8.194   6.434
 1867SOL    HW2 7467   7.455   8.326   6.406
 1867SOL     MW 7468   7.383   8.277   6.408
 1868SOL     OW 7469   9.666   8.320   9.777
 1868SOL    HW1 7470   9.686   8.238   9.732
 1868SOL    HW2 7471   9.570   8.324   9.779
 1868SOL     MW 7472   9.656   8.309   9.771
 1869SOL     OW 7473   0.638   2.742   3.411
 1869SOL    HW1 7474   0.637   2.653   3.447
 1869SOL    HW2 7475   0.558   2.748   3.360
 1869SOL     MW 7476   0.627   2.731   3.409
 1870SOL     OW 7477   4.400   3.011   3.832
 1870SOL    HW1 7478   4.309   3.004   3.803
 1870SOL    HW2 7479   4.438   3.081   3.779
 1870SOL     MW 7480   4.393   3.019   3.821
 1871SOL     OW 7481   2.796   8.655   0.965
 1871SOL    HW1 7482   2.796   8.708   0.885
 1871SOL    HW2 7483   2.715   8.680   1.011
 1871SOL     MW 7484   2.785   8.665   0.960
 1872SOL     OW 7485   0.612   8.571   5.525
 1872SOL    HW1 7486   0.561   8.551   5.604
 1872SOL    HW2 7487   0.572   8.651   5.491
 1872SOL     MW 7488   0.599   8.579   5.531
 1873SOL     OW 7489   2.220   5.200   0.410
 1873SOL    HW1 7490   2.277   5.122   0.410
 1873SOL    HW2 7491   2.213   5.224   0.317
 1873SOL     MW 7492   2.227   5.193   0.397
 1874SOL     OW 7493   9.683   5.088   7.021
 1874SOL    HW1 7494   9.650   5.168   7.060
 1874SOL    HW2 7495   9.712   5.035   7.095
 1874SOL     MW 7496   9.683   5.092   7.036
 1875SOL     OW 7497   2.032   5.579   0.635
 1875SOL    HW1 7498   2.064   5.489   0.634
 1875SOL    HW2 7499   1.955   5.576   0.692
 1875SOL     MW 7500   2.026   5.567   0.642
 1876SOL     OW 7501   1.159   6.166   0.741
 1876SOL    HW1 7502   1.136   6.239   0.798
 1876SOL    HW2 7503   1.121   6.189   0.656
 1876SOL     MW 7504   1.151   6.179   0.737
 1877SOL     OW 7505   0.568   4.164   2.991
 1877SOL    HW1 7506   0.539   4.111   2.917
 1877SOL    HW2 7507   0.528   4.250   2.976
 1877SOL     MW 7508   0.559   4.168   2.979
 1878SOL     OW 7509   1.757   9.801   6.581
 1878SOL    HW1 7510   1.680   9.829   6.531
 1878SOL    HW2 7511   1.822   9.780   6.514
 1878SOL     MW 7512   1.755   9.802   6.565
 1879SOL     OW 7513   6.867   2.793   8.669
 1879SOL    HW1 7514   6.775   2.791   8.696
 1879SOL    HW2 7515   6.912   2.742   8.737
 1879SOL     MW 7516   6.861   2.786   8.682
 1880SOL     OW 7517   3.869   8.341   5.888
 1880SOL    HW1 7518   3.823   8.345   5.971
 1880SOL    HW2 7519   3.900   8.250   5.882
 1880SOL     MW 7520   3.867   8.329   5.898
 1881SOL     OW 7521   5.276   4.433   5.490
 1881SOL    HW1 7522   5.282   4.442   5.395
 1881SOL    HW2 7523   5.184   4.450   5.511
 1881SOL     MW 7524   5.265   4.436   5.480
 1882SOL     OW 7525   1.911   3.550   3.881
 1882SOL    HW1 7526   1.869   3.467   3.901
 1882SOL    HW2 7527   1.962   3.571   3.960
 1882SOL     MW 7528   1.913   3.542   3.895
 1883SOL     OW 7529   9.750   4.962   9.870
 1883SOL    HW1 7530   9.811   5.025   9.907
 1883SOL    HW2 7531   9.804   4.909   9.811
 1883SOL     MW 7532   9.765   4.963   9.867
 1884SOL     OW 7533   3.080   0.426   9.430
 1884SOL    HW1 7534   3.036   0.420   9.515
 1884SOL    HW2 7535   3.117   0.514   9.428
 1884SOL     MW 7536   3.079   0.437   9.441
 1885SOL     OW 7537   0.053   3.566   3.444
 1885SOL    HW1 7538  -0.029   3.529   3.411
 1885SOL    HW2 7539   0.121   3.507   3.411
 1885SOL     MW 7540   0.051   3.553   3.435
 1886SOL     OW 7541   3.661   7.995   0.393
 1886SOL    HW1 7542   3.710   8.063   0.440
 1886SOL    HW2 7543   3.624   8.040   0.317
 1886SOL     MW 7544   3.663   8.010   0.389
 1887SOL     OW 7545   9.449   8.022   3.123
 1887SOL    HW1 7546   9.387   7.951   3.139
 1887SOL    HW2 7547   9.496   8.031   3.206
 1887SOL     MW 7548   9.447   8.014   3.136
 1888SOL     OW 7549   3.062   9.372   6.356
 1888SOL    HW1 7550   3.154   9.354   6.375
 1888SOL    HW2 7551   3.027   9.407   6.437
 1888SOL     MW 7552   3.070   9.374   6.369
 1889SOL     OW 7553   0.630   7.157   9.468
 1889SOL    HW1 7554   0.641   7.207   9.388
 1889SOL    HW2 7555   0.689   7.082   9.458
 1889SOL     MW 7556   0.639   7.154   9.456
 1890SOL     OW 7557   5.119   6.543   8.763
 1890SOL    HW1 7558   5.034   6.521   8.725
 1890SOL    HW2 7559   5.138   6.471   8.823
 1890SOL     MW 7560   5.110   6.530   8.766
 1891SOL     OW 7561   1.041   7.047   5.014
 1891SOL    HW1 7562   1.117   7.010   4.969
 1891SOL    HW2 7563   1.067   7.052   5.106
 1891SOL     MW 7564   1.055   7.043   5.020
 1892SOL     OW 7565   0.447   8.011   0.887
 1892SOL    HW1 7566   0.356   8.024   0.861
 1892SOL    HW2 7567   0.491   8.093   0.865
 1892SOL     MW 7568   0.441   8.024   0.880
 1893SOL     OW 7569   0.596   7.933   1.443
 1893SOL    HW1 7570   0.620   7.879   1.367
 1893SOL    HW2 7571   0.506   7.960   1.426
 1893SOL     MW 7572   0.587   7.929   1.430
 1894SOL     OW 7573   1.817   0.091   2.203
 1894SOL    HW1 7574   1.797  -0.001   2.185
 1894SOL    HW2 7575   1.879   0.116   2.134
 1894SOL     MW 7576   1.823   0.082   2.192
 1895SOL     OW 7577   9.450   9.766   8.363
 1895SOL    HW1 7578   9.374   9.733   8.412
 1895SOL    HW2 7579   9.500   9.687   8.341
 1895SOL     MW 7580   9.446   9.751   8.367
 1896SOL     OW 7581   9.204   7.355   3.060
 1896SOL    HW1 7582   9.298   7.346   3.072
 1896SOL    HW2 7583   9.184   7.309   2.979
 1896SOL     MW 7584   9.214   7.348   3.051
 1897SOL     OW 7585   5.514   0.377   0.195
 1897SOL    HW1 7586   5.536   0.400   0.285
 1897SOL    HW2 7587   5.508   0.460   0.149
 1897SOL     MW 7588   5.516   0.391   0.201
 1898SOL     OW 7589   9.156   1.395   4.479
 1898SOL    HW1 7590   9.151   1.482   4.518
 1898SOL    HW2 7591   9.183   1.337   4.550
 1898SOL     MW 7592   9.159   1.399   4.494
 1899SOL     OW 7593   8.540   3.668   2.663
 1899SOL    HW1 7594   8.623   3.643   2.622
 1899SOL    HW2 7595   8.520   3.596   2.723
 1899SOL     MW 7596   8.549   3.655   2.665
 1900SOL     OW 7597   5.048   7.094   7.196
 1900SOL    HW1 7598   5.137   7.061   7.208
 1900SOL    HW2 7599   4.993   7.017   7.201
 1900SOL     MW 7600   5.053   7.079   7.198
 1901SOL     OW 7601   6.844   7.308   6.551
 1901SOL    HW1 7602   6.839   7.259   6.469
 1901SOL    HW2 7603   6.936   7.336   6.556
 1901SOL     MW 7604   6.856   7.305   6.540
 1902SOL     OW 7605   4.523   4.536   8.089
 1902SOL    HW1 7606   4.502   4.629   8.082
 1902SOL    HW2 7607   4.497   4.498   8.005
 1902SOL     MW 7608   4.517   4.543   8.077
 1903SOL     OW 7609   4.055   7.885   7.627
 1903SOL    HW1 7610   4.034   7.865   7.536
 1903SOL    HW2 7611   4.009   7.966   7.645
 1903SOL     MW 7612   4.046   7.893   7.617
 1904SOL     OW 7613   3.991  10.072   7.135
 1904SOL    HW1 7614   4.010  10.039   7.048
 1904SOL    HW2 7615   4.076  10.080   7.178
 1904SOL     MW 7616   4.005  10.069   7.129
 1905SOL     OW 7617   4.062   3.922   5.354
 1905SOL    HW1 7618   4.115   3.923   5.274
 1905SOL    HW2 7619   4.011   3.841   5.348
 1905SOL     MW 7620   4.062   3.911   5.342
 1906SOL     OW 7621   2.904   8.879   3.283
 1906SOL    HW1 7622   2.867   8.954   3.331
 1906SOL    HW2 7623   2.983   8.857   3.332
 1906SOL     MW 7624   2.910   8.886   3.296
 1907SOL     OW 7625   7.741   5.690   0.137
 1907SOL    HW1 7626   7.775   5.717   0.052
 1907SOL    HW2 7627   7.819   5.681   0.192
 1907SOL     MW 7628   7.756   5.693   0.133
 1908SOL     OW 7629   6.623   4.600   4.033
 1908SOL    HW1 7630   6.573   4.523   4.006
 1908SOL    HW2 7631   6.696   4.565   4.083
 1908SOL     MW 7632   6.626   4.585   4.036
 1909SOL     OW 7633   0.732   9.836   7.453
 1909SOL    HW1 7634   0.704   9.825   7.362
 1909SOL    HW2 7635   0.653   9.863   7.499
 1909SOL     MW 7636   0.718   9.838   7.447
 1910SOL     OW 7637   6.839   9.110   5.907
 1910SOL    HW1 7638   6.883   9.091   5.824
 1910SOL    HW2 7639   6.771   9.173   5.883
 1910SOL     MW 7640   6.835   9.116   5.893
 1911SOL     OW 7641   2.465   6.737   1.883
 1911SOL    HW1 7642   2.475   6.645   1.858
 1911SOL    HW2 7643   2.459   6.783   1.799
 1911SOL     MW 7644   2.465   6.731   1.868
 1912SOL     OW 7645   9.418   8.133   4.093
 1912SOL    HW1 7646   9.364   8.131   4.172
 1912SOL    HW2 7647   9.474   8.210   4.103
 1912SOL     MW 7648   9.419   8.143   4.105
 1913SOL     OW 7649   7.229   4.358   1.182
 1913SOL    HW1 7650   7.217   4.453   1.193
 1913SOL    HW2 7651   7.254   4.348   1.090
 1913SOL     MW 7652   7.231   4.370   1.171
 1914SOL     OW 7653   4.023  10.036   5.826
 1914SOL    HW1 7654   4.073  10.111   5.857
 1914SOL    HW2 7655   3.934  10.069   5.815
 1914SOL     MW 7656   4.018  10.050   5.828
 1915SOL     OW 7657   0.290   7.003   7.896
 1915SOL    HW1 7658   0.300   6.969   7.807
 1915SOL    HW2 7659   0.379   7.025   7.922
 1915SOL     MW 7660   0.303   7.001   7.887
 1916SOL     OW 7661   1.791   9.863   2.619
 1916SOL    HW1 7662   1.796   9.950   2.659
 1916SOL    HW2 7663   1.751   9.808   2.686
 1916SOL     MW 7664   1.787   9.867   2.634
 1917SOL     OW 7665   4.172   3.777   2.120
 1917SOL    HW1 7666   4.212   3.764   2.206
 1917SOL    HW2 7667   4.078   3.775   2.137
 1917SOL     MW 7668   4.165   3.775   2.133
 1918SOL     OW 7669   5.441  10.117   9.493
 1918SOL    HW1 7670   5.369  10.160   9.540
 1918SOL    HW2 7671   5.518  10.133   9.548
 1918SOL     MW 7672   5.441  10.125   9.507
 1919SOL     OW 7673   1.004   2.175   3.476
 1919SOL    HW1 7674   1.047   2.132   3.551
 1919SOL    HW2 7675   1.062   2.248   3.455
 1919SOL     MW 7676   1.018   2.179   3.484
 1920SOL     OW 7677   7.435   9.545   1.124
 1920SOL    HW1 7678   7.501   9.610   1.099
 1920SOL    HW2 7679   7.381   9.590   1.189
 1920SOL     MW 7680   7.437   9.560   1.129
 1921SOL     OW 7681   1.597   5.712   7.056
 1921SOL    HW1 7682   1.533   5.778   7.082
 1921SOL    HW2 7683   1.669   5.722   7.118
 1921SOL     MW 7684   1.598   5.722   7.068
 1922SOL     OW 7685   8.987   2.375   6.064
 1922SOL    HW1 7686   8.978   2.315   6.138
 1922SOL    HW2 7687   8.982   2.318   5.987
 1922SOL     MW 7688   8.985   2.359   6.063
 1923SOL     OW 7689   2.619   4.437   5.155
 1923SOL    HW1 7690   2.656   4.374   5.216
 1923SOL    HW2 7691   2.648   4.408   5.068
 1923SOL     MW 7692   2.628   4.425   5.151
 1924SOL     OW 7693   4.712   2.711   8.842
 1924SOL    HW1 7694   4.725   2.619   8.818
 1924SOL    HW2 7695   4.709   2.710   8.938
 1924SOL     MW 7696   4.713   2.699   8.852
 1925SOL     OW 7697   2.465   9.757   3.838
 1925SOL    HW1 7698   2.393   9.777   3.777
 1925SOL    HW2 7699   2.427   9.771   3.925
 1925SOL     MW 7700   2.450   9.761   3.842
 1926SOL     OW 7701   5.137   1.705   5.882
 1926SOL    HW1 7702   5.060   1.659   5.916
 1926SOL    HW2 7703   5.156   1.662   5.799
 1926SOL     MW 7704   5.129   1.693   5.876
 1927SOL     OW 7705   9.102   7.099   7.239
 1927SOL    HW1 7706   9.084   7.019   7.288
 1927SOL    HW2 7707   9.191   7.088   7.208
 1927SOL     MW 7708   9.111   7.087   7.241
 1928SOL     OW 7709   1.818  10.124   2.702
 1928SOL    HW1 7710   1.820  10.155   2.612
 1928SOL    HW2 7711   1.902  10.150   2.739
 1928SOL     MW 7712   1.829  10.132   2.695
 1929SOL     OW 7713   6.635   0.733   4.042
 1929SOL    HW1 7714   6.623   0.776   4.128
 1929SOL    HW2 7715   6.729   0.719   4.035
 1929SOL     MW 7716   6.646   0.737   4.053
 1930SOL     OW 7717   6.828   7.112   7.722
 1930SOL    HW1 7718   6.889   7.146   7.657
 1930SOL    HW2 7719   6.756   7.076   7.670
 1930SOL     MW 7720   6.826   7.112   7.706
 1931SOL     OW 7721   3.064   7.820   7.805
 1931SOL    HW1 7722   3.135   7.785   7.858
 1931SOL    HW2 7723   3.107   7.858   7.729
 1931SOL     MW 7724   3.079   7.820   7.802
 1932SOL     OW 7725   8.974   5.352   9.260
 1932SOL    HW1 7726   9.047   5.289   9.255
 1932SOL    HW2 7727   9.012   5.435   9.234
 1932SOL     MW 7728   8.989   5.355   9.256
 1933SOL     OW 7729   3.801   1.951   5.378
 1933SOL    HW1 7730   3.817   2.009   5.303
 1933SOL    HW2 7731   3.722   1.985   5.419
 1933SOL     MW 7732   3.793   1.963   5.373
 1934SOL     OW 7733   9.421   2.632   8.608
 1934SOL    HW1 7734   9.422   2.614   8.514
 1934SOL    HW2 7735   9.343   2.586   8.640
 1934SOL     MW 7736   9.410   2.623   8.600
 1935SOL     OW 7737   5.244   6.654   3.811
 1935SOL    HW1 7738   5.308   6.587   3.834
 1935SOL    HW2 7739   5.280   6.735   3.846
 1935SOL     MW 7740   5.257   6.656   3.818
 1936SOL     OW 7741   0.406   7.121   6.261
 1936SOL    HW1 7742   0.420   7.151   6.351
 1936SOL    HW2 7743   0.490   7.138   6.217
 1936SOL     MW 7744   0.419   7.128   6.267
 1937SOL     OW 7745  10.048   4.751   8.966
 1937SOL    HW1 7746  10.095   4.701   9.033
 1937SOL    HW2 7747  10.075   4.712   8.884
 1937SOL     MW 7748  10.058   4.739   8.964
 1938SOL     OW 7749   5.983   1.438   5.251
 1938SOL    HW1 7750   6.029   1.521   5.260
 1938SOL    HW2 7751   6.006   1.407   5.163
 1938SOL     MW 7752   5.993   1.445   5.240
 1939SOL     OW 7753   0.282   6.951   4.164
 1939SOL    HW1 7754   0.300   7.002   4.085
 1939SOL    HW2 7755   0.236   6.873   4.132
 1939SOL     MW 7756   0.278   6.948   4.149
 1940SOL     OW 7757   2.094   0.265   1.157
 1940SOL    HW1 7758   2.123   0.352   1.186
 1940SOL    HW2 7759   2.118   0.207   1.229
 1940SOL     MW 7760   2.101   0.269   1.170
 1941SOL     OW 7761   2.634   5.769   3.959
 1941SOL    HW1 7762   2.656   5.816   3.878
 1941SOL    HW2 7763   2.544   5.741   3.946
 1941SOL     MW 7764   2.625   5.771   3.946
 1942SOL     OW 7765   3.989   2.336   9.387
 1942SOL    HW1 7766   3.992   2.381   9.471
 1942SOL    HW2 7767   4.080   2.328   9.360
 1942SOL     MW 7768   4.002   2.341   9.394
 1943SOL     OW 7769   7.527   8.958   7.997
 1943SOL    HW1 7770   7.560   8.911   8.073
 1943SOL    HW2 7771   7.606   8.992   7.954
 1943SOL     MW 7772   7.542   8.956   8.001
 1944SOL     OW 7773   3.121   2.801   5.287
 1944SOL    HW1 7774   3.208   2.824   5.320
 1944SOL    HW2 7775   3.138   2.757   5.204
 1944SOL     MW 7776   3.135   2.798   5.280
 1945SOL     OW 7777   5.303   8.060   9.770
 1945SOL    HW1 7778   5.233   8.031   9.712
 1945SOL    HW2 7779   5.383   8.053   9.717
 1945SOL     MW 7780   5.304   8.055   9.755
 1946SOL     OW 7781   2.315   0.553   0.636
 1946SOL    HW1 7782   2.297   0.630   0.581
 1946SOL    HW2 7783   2.229   0.520   0.661
 1946SOL     MW 7784   2.301   0.559   0.632
 1947SOL     OW 7785   7.481   9.730   6.676
 1947SOL    HW1 7786   7.493   9.639   6.701
 1947SOL    HW2 7787   7.570   9.762   6.659
 1947SOL     MW 7788   7.494   9.722   6.677
 1948SOL     OW 7789   1.771   3.908   0.581
 1948SOL    HW1 7790   1.745   3.998   0.562
 1948SOL    HW2 7791   1.741   3.857   0.506
 1948SOL     MW 7792   1.764   3.913   0.569
 1949SOL     OW 7793   9.793   9.819   1.005
 1949SOL    HW1 7794   9.720   9.871   1.040
 1949SOL    HW2 7795   9.861   9.826   1.072
 1949SOL     MW 7796   9.792   9.827   1.019
 1950SOL     OW 7797   9.456   9.154  10.018
 1950SOL    HW1 7798   9.458   9.066   9.980
 1950SOL    HW2 7799   9.376   9.194   9.982
 1950SOL     MW 7800   9.445   9.148  10.008
 1951SOL     OW 7801   9.855   7.178   8.698
 1951SOL    HW1 7802   9.759   7.184   8.708
 1951SOL    HW2 7803   9.873   7.221   8.615
 1951SOL     MW 7804   9.844   7.184   8.688
 1952SOL     OW 7805   6.619   1.279   7.007
 1952SOL    HW1 7806   6.536   1.317   6.978
 1952SOL    HW2 7807   6.667   1.353   7.044
 1952SOL     MW 7808   6.614   1.294   7.008
 1953SOL     OW 7809   3.398   1.685   8.998
 1953SOL    HW1 7810   3.416   1.598   8.964
 1953SOL    HW2 7811   3.423   1.680   9.090
 1953SOL     MW 7812   3.404   1.673   9.006
 1954SOL     OW 7813   0.132   1.812   0.480
 1954SOL    HW1 7814   0.224   1.788   0.469
 1954SOL    HW2 7815   0.114   1.796   0.573
 1954SOL     MW 7816   0.142   1.806   0.491
 1955SOL     OW 7817   6.945   7.532   7.944
 1955SOL    HW1 7818   6.977   7.530   7.854
 1955SOL    HW2 7819   6.905   7.446   7.957
 1955SOL     MW 7820   6.944   7.520   7.934
 1956SOL     OW 7821   6.270   9.220   0.549
 1956SOL    HW1 7822   6.191   9.238   0.498
 1956SOL    HW2 7823   6.259   9.130   0.579
 1956SOL     MW 7824   6.257   9.211   0.546
 1957SOL     OW 7825   2.997   9.896   1.334
 1957SOL    HW1 7826   3.077   9.947   1.340
 1957SOL    HW2 7827   2.931   9.949   1.378
 1957SOL     MW 7828   2.999   9.910   1.340
 1958SOL     OW 7829   9.625   8.918   7.593
 1958SOL    HW1 7830   9.653   9.003   7.625
 1958SOL    HW2 7831   9.636   8.923   7.498
 1958SOL     MW 7832   9.630   8.930   7.585
 1959SOL     OW 7833   2.751   0.125   9.381
 1959SOL    HW1 7834   2.768   0.076   9.301
 1959SOL    HW2 7835   2.657   0.114   9.397
 1959SOL     MW 7836   2.740   0.117   9.372
 1960SOL     OW 7837   0.811   2.049   8.640
 1960SOL    HW1 7838   0.822   1.980   8.705
 1960SOL    HW2 7839   0.718   2.073   8.645
 1960SOL     MW 7840   0.800   2.043   8.649
 1961SOL     OW 7841   8.803   8.619   9.396
 1961SOL    HW1 7842   8.729   8.670   9.366
 1961SOL    HW2 7843   8.765   8.554   9.455
 1961SOL     MW 7844   8.788   8.617   9.400
 1962SOL     OW 7845   1.119   6.346   4.142
 1962SOL    HW1 7846   1.039   6.394   4.162
 1962SOL    HW2 7847   1.139   6.298   4.223
 1962SOL     MW 7848   1.111   6.346   4.156
 1963SOL     OW 7849   0.777   9.275   4.067
 1963SOL    HW1 7850   0.831   9.227   4.129
 1963SOL    HW2 7851   0.813   9.253   3.981
 1963SOL     MW 7852   0.789   9.266   4.064
 1964SOL     OW 7853   6.458   9.722   8.204
 1964SOL    HW1 7854   6.541   9.768   8.196
 1964SOL    HW2 7855   6.394   9.790   8.226
 1964SOL     MW 7856   6.460   9.737   8.206
 1965SOL     OW 7857   8.837   1.444   0.079
 1965SOL    HW1 7858   8.856   1.530   0.116
 1965SOL    HW2 7859   8.906   1.387   0.115
 1965SOL     MW 7860   8.849   1.448   0.089
 1966SOL     OW 7861   1.371   8.791   0.853
 1966SOL    HW1 7862   1.371   8.760   0.763
 1966SOL    HW2 7863   1.367   8.887   0.845
 1966SOL     MW 7864   1.371   8.800   0.840
 1967SOL     OW 7865   5.886   6.805   6.495
 1967SOL    HW1 7866   5.810   6.758   6.528
 1967SOL    HW2 7867   5.927   6.842   6.574
 1967SOL     MW 7868   5.881   6.804   6.510
 1968SOL     OW 7869   8.733   7.381   3.884
 1968SOL    HW1 7870   8.811   7.332   3.910
 1968SOL    HW2 7871   8.747   7.402   3.792
 1968SOL     MW 7872   8.745   7.378   3.875
 1969SOL     OW 7873   9.141   1.480   5.624
 1969SOL    HW1 7874   9.100   1.549   5.676
 1969SOL    HW2 7875   9.149   1.517   5.536
 1969SOL     MW 7876   9.136   1.494   5.619
 1970SOL     OW 7877   5.184   8.339   6.672
 1970SOL    HW1 7878   5.178   8.365   6.764
 1970SOL    HW2 7879   5.099   8.361   6.634
 1970SOL     MW 7880   5.172   8.345   6.679
 1971SOL     OW 7881   2.883   0.373   8.355
 1971SOL    HW1 7882   2.845   0.334   8.434
 1971SOL    HW2 7883   2.817   0.358   8.287
 1971SOL     MW 7884   2.869   0.366   8.357
 1972SOL     OW 7885   4.686   0.531   7.455
 1972SOL    HW1 7886   4.753   0.590   7.420
 1972SOL    HW2 7887   4.607   0.585   7.459
 1972SOL     MW 7888   4.684   0.547   7.451
 1973SOL     OW 7889   3.896   4.066   2.073
 1973SOL    HW1 7890   3.990   4.063   2.053
 1973SOL    HW2 7891   3.855   4.094   1.992
 1973SOL     MW 7892   3.903   4.069   2.060
 1974SOL     OW 7893   3.893   8.109   0.779
 1974SOL    HW1 7894   3.887   8.128   0.685
 1974SOL    HW2 7895   3.887   8.013   0.784
 1974SOL     MW 7896   3.891   8.099   0.767
 1975SOL     OW 7897   0.581   9.637   0.536
 1975SOL    HW1 7898   0.544   9.552   0.510
 1975SOL    HW2 7899   0.505   9.691   0.557
 1975SOL     MW 7900   0.566   9.633   0.535
 1976SOL     OW 7901   0.416   0.581   1.293
 1976SOL    HW1 7902   0.415   0.658   1.350
 1976SOL    HW2 7903   0.324   0.565   1.273
 1976SOL     MW 7904   0.403   0.590   1.298
 1977SOL     OW 7905   1.134   0.912  10.107
 1977SOL    HW1 7906   1.228   0.895  10.095
 1977SOL    HW2 7907   1.115   0.882  10.196
 1977SOL     MW 7908   1.144   0.905  10.117
 1978SOL     OW 7909   9.465   3.382   9.710
 1978SOL    HW1 7910   9.370   3.384   9.725
 1978SOL    HW2 7911   9.476   3.421   9.623
 1978SOL     MW 7912   9.453   3.387   9.701
 1979SOL     OW 7913   3.776   0.449   1.274
 1979SOL    HW1 7914   3.718   0.387   1.319
 1979SOL    HW2 7915   3.842   0.471   1.339
 1979SOL     MW 7916   3.777   0.443   1.289
 1980SOL     OW 7917   1.004   4.227   2.801
 1980SOL    HW1 7918   0.936   4.166   2.830
 1980SOL    HW2 7919   1.064   4.233   2.875
 1980SOL     MW 7920   1.003   4.220   2.815
 1981SOL     OW 7921   0.599   8.557   5.239
 1981SOL    HW1 7922   0.616   8.529   5.329
 1981SOL    HW2 7923   0.671   8.519   5.188
 1981SOL     MW 7924   0.611   8.548   5.244
 1982SOL     OW 7925   7.571   1.546   1.356
 1982SOL    HW1 7926   7.607   1.457   1.349
 1982SOL    HW2 7927   7.602   1.590   1.277
 1982SOL     MW 7928   7.580   1.540   1.345
 1983SOL     OW 7929   6.500   2.198   0.379
 1983SOL    HW1 7930   6.559   2.163   0.313
 1983SOL    HW2 7931   6.471   2.122   0.429
 1983SOL     MW 7932   6.504   2.183   0.377
 1984SOL     OW 7933   3.598   2.156   8.175
 1984SOL    HW1 7934   3.585   2.161   8.081
 1984SOL    HW2 7935   3.640   2.239   8.198
 1984SOL     MW 7936   3.602   2.168   8.166
 1985SOL     OW 7937   9.500   5.676   1.813
 1985SOL    HW1 7938   9.468   5.592   1.780
 1985SOL    HW2 7939   9.568   5.654   1.876
 1985SOL     MW 7940   9.505   5.662   1.817
 1986SOL     OW 7941   3.927   5.547   4.431
 1986SOL    HW1 7942   3.882   5.510   4.507
 1986SOL    HW2 7943   3.996   5.602   4.468
 1986SOL     MW 7944   3.930   5.550   4.446
 1987SOL     OW 7945   3.168   6.858   4.168
 1987SOL    HW1 7946   3.108   6.786   4.147
 1987SOL    HW2 7947   3.149   6.925   4.102
 1987SOL     MW 7948   3.157   6.857   4.156
 1988SOL     OW 7949   1.220   2.280   9.532
 1988SOL    HW1 7950   1.235   2.374   9.534
 1988SOL    HW2 7951   1.213   2.259   9.439
 1988SOL     MW 7952   1.221   2.290   9.520
 1989SOL     OW 7953   6.240   9.408   5.171
 1989SOL    HW1 7954   6.323   9.443   5.204
 1989SOL    HW2 7955   6.216   9.467   5.099
 1989SOL     MW 7956   6.248   9.421   5.166
 1990SOL     OW 7957   0.793   2.283   5.739
 1990SOL    HW1 7958   0.784   2.366   5.785
 1990SOL    HW2 7959   0.831   2.224   5.804
 1990SOL     MW 7960   0.797   2.286   5.754
 1991SOL     OW 7961   7.480   7.762   9.945
 1991SOL    HW1 7962   7.439   7.845   9.919
 1991SOL    HW2 7963   7.415   7.719  10.001
 1991SOL     MW 7964   7.466   7.768   9.949
 1992SOL     OW 7965   4.997   3.849   6.136
 1992SOL    HW1 7966   5.030   3.867   6.048
 1992SOL    HW2 7967   4.990   3.935   6.178
 1992SOL     MW 7968   5.001   3.863   6.130
 1993SOL     OW 7969   6.530   9.313   0.547
 1993SOL    HW1 7970   6.531   9.374   0.621
 1993SOL    HW2 7971   6.440   9.280   0.544
 1993SOL     MW 7972   6.518   9.317   0.557
 1994SOL     OW 7973   9.373   5.007   7.778
 1994SOL    HW1 7974   9.382   5.099   7.805
 1994SOL    HW2 7975   9.455   4.966   7.805
 1994SOL     MW 7976   9.385   5.014   7.785
 1995SOL     OW 7977   9.393   8.972   2.208
 1995SOL    HW1 7978   9.482   8.974   2.245
 1995SOL    HW2 7979   9.369   8.879   2.209
 1995SOL     MW 7980   9.402   8.960   2.213
 1996SOL     OW 7981   5.587   8.629   1.445
 1996SOL    HW1 7982   5.510   8.631   1.387
 1996SOL    HW2 7983   5.573   8.553   1.501
 1996SOL     MW 7984   5.574   8.619   1.444
 1997SOL     OW 7985   4.611   7.478   6.209
 1997SOL    HW1 7986   4.653   7.551   6.254
 1997SOL    HW2 7987   4.683   7.421   6.182
 1997SOL     MW 7988   4.626   7.480   6.212
 1998SOL     OW 7989   3.283   5.933   6.777
 1998SOL    HW1 7990   3.271   5.896   6.690
 1998SOL    HW2 7991   3.274   6.028   6.764
 1998SOL     MW 7992   3.280   5.941   6.763
 1999SOL     OW 7993   6.239   3.278   6.978
 1999SOL    HW1 7994   6.262   3.275   7.071
 1999SOL    HW2 7995   6.233   3.371   6.958
 1999SOL     MW 7996   6.241   3.290   6.988
 2000SOL     OW 7997   6.418   7.322   0.787
 2000SOL    HW1 7998   6.325   7.341   0.787
 2000SOL    HW2 7999   6.461   7.407   0.780
 2000SOL     MW 8000   6.411   7.336   0.786
 2001SOL     OW 8001   8.858   5.428   3.879
 2001SOL    HW1 8002   8.891   5.470   3.799
 2001SOL    HW2 8003   8.923   5.360   3.899
 2001SOL     MW 8004   8.871   5.425   3.871
 2002SOL     OW 8005   9.891   8.005   2.909
 2002SOL    HW1 8006   9.797   8.021   2.906
 2002SOL    HW2 8007   9.923   8.031   2.823
 2002SOL     MW 8008   9.883   8.011   2.897
 2003SOL     OW 8009   3.382   2.868   5.364
 2003SOL    HW1 8010   3.400   2.958   5.390
 2003SOL    HW2 8011   3.464   2.821   5.383
 2003SOL     MW 8012   3.395   2.874   5.370
 2004SOL     OW 8013   5.428   2.235   1.087
 2004SOL    HW1 8014   5.387   2.253   1.003
 2004SOL    HW2 8015   5.355   2.213   1.145
 2004SOL     MW 8016   5.412   2.234   1.084
 2005SOL     OW 8017   1.768   2.980   7.361
 2005SOL    HW1 8018   1.786   3.059   7.411
 2005SOL    HW2 8019   1.853   2.954   7.325
 2005SOL     MW 8020   1.782   2.987   7.363
 2006SOL     OW 8021   5.455   5.557   9.860
 2006SOL    HW1 8022   5.543   5.523   9.843
 2006SOL    HW2 8023   5.431   5.519   9.945
 2006SOL     MW 8024   5.464   5.547   9.870
 2007SOL     OW 8025   8.590   8.817   5.620
 2007SOL    HW1 8026   8.601   8.885   5.687
 2007SOL    HW2 8027   8.589   8.735   5.669
 2007SOL     MW 8028   8.592   8.815   5.636
 2008SOL     OW 8029   5.958   0.257   5.990
 2008SOL    HW1 8030   5.949   0.347   6.021
 2008SOL    HW2 8031   6.053   0.243   5.984
 2008SOL     MW 8032   5.970   0.267   5.993
 2009SOL     OW 8033   9.011   1.926   1.272
 2009SOL    HW1 8034   9.006   2.021   1.273
 2009SOL    HW2 8035   8.955   1.899   1.345
 2009SOL     MW 8036   9.003   1.935   1.282
 2010SOL     OW 8037   4.515   5.347   5.046
 2010SOL    HW1 8038   4.579   5.390   5.103
 2010SOL    HW2 8039   4.457   5.417   5.018
 2010SOL     MW 8040   4.516   5.362   5.050
 2011SOL     OW 8041   2.420   9.022   5.317
 2011SOL    HW1 8042   2.437   8.938   5.359
 2011SOL    HW2 8043   2.332   9.014   5.281
 2011SOL     MW 8044   2.411   9.010   5.318
 2012SOL     OW 8045   3.008   9.520   4.492
 2012SOL    HW1 8046   2.982   9.598   4.443
 2012SOL    HW2 8047   2.927   9.487   4.530
 2012SOL     MW 8048   2.994   9.526   4.491
 2013SOL     OW 8049   7.517   0.919   2.143
 2013SOL    HW1 8050   7.543   0.991   2.201
 2013SOL    HW2 8051   7.473   0.857   2.201
 2013SOL     MW 8052   7.514   0.920   2.159
 2014SOL     OW 8053   9.381   6.724   5.689
 2014SOL    HW1 8054   9.328   6.664   5.742
 2014SOL    HW2 8055   9.471   6.706   5.716
 2014SOL     MW 8056   9.386   6.714   5.700
 2015SOL     OW 8057   5.205   1.998   6.560
 2015SOL    HW1 8058   5.229   1.936   6.629
 2015SOL    HW2 8059   5.271   2.067   6.566
 2015SOL     MW 8060   5.217   1.999   6.570
 2016SOL     OW 8061   4.250   2.290   9.317
 2016SOL    HW1 8062   4.249   2.198   9.288
 2016SOL    HW2 8063   4.336   2.301   9.359
 2016SOL     MW 8064   4.262   2.279   9.319
 2017SOL     OW 8065   0.673   8.682   9.025
 2017SOL    HW1 8066   0.674   8.667   8.930
 2017SOL    HW2 8067   0.598   8.632   9.056
 2017SOL     MW 8068   0.663   8.673   9.016
 2018SOL     OW 8069   2.756   4.785   1.476
 2018SOL    HW1 8070   2.798   4.721   1.534
 2018SOL    HW2 8071   2.805   4.779   1.395
 2018SOL     MW 8072   2.768   4.776   1.473
 2019SOL     OW 8073   4.803   5.356   4.972
 2019SOL    HW1 8074   4.715   5.324   4.955
 2019SOL    HW2 8075   4.793   5.419   5.043
 2019SOL     MW 8076   4.790   5.360   4.979
 2020SOL     OW 8077   5.756   0.422   0.056
 2020SOL    HW1 8078   5.689   0.376   0.107
 2020SOL    HW2 8079   5.714   0.505   0.033
 2020SOL     MW 8080   5.741   0.427   0.060
 2021SOL     OW 8081   6.182   2.963   1.701
 2021SOL    HW1 8082   6.186   2.993   1.792
 2021SOL    HW2 8083   6.260   2.908   1.691
 2021SOL     MW 8084   6.193   2.959   1.712
 2022SOL     OW 8085   7.275   5.209   6.499
 2022SOL    HW1 8086   7.229   5.128   6.477
 2022SOL    HW2 8087   7.362   5.180   6.528
 2022SOL     MW 8088   7.281   5.194   6.500
 2023SOL     OW 8089   3.960   7.837   0.811
 2023SOL    HW1 8090   4.033   7.886   0.850
 2023SOL    HW2 8091   3.996   7.804   0.728
 2023SOL     MW 8092   3.975   7.839   0.805
 2024SOL     OW 8093   2.208   8.390   6.586
 2024SOL    HW1 8094   2.218   8.410   6.679
 2024SOL    HW2 8095   2.271   8.446   6.542
 2024SOL     MW 8096   2.218   8.400   6.593
 2025SOL     OW 8097   5.139   2.551   5.163
 2025SOL    HW1 8098   5.113   2.459   5.158
 2025SOL    HW2 8099   5.152   2.577   5.072
 2025SOL     MW 8100   5.137   2.542   5.150
 2026SOL     OW 8101   8.633   0.519   3.059
 2026SOL    HW1 8102   8.687   0.597   3.074
 2026SOL    HW2 8103   8.568   0.548   2.995
 2026SOL     MW 8104   8.632   0.534   3.052
 2027SOL     OW 8105   2.946   7.857   3.132
 2027SOL    HW1 8106   2.915   7.767   3.142
 2027SOL    HW2 8107   3.034   7.847   3.095
 2027SOL     MW 8108   2.954   7.843   3.129
 2028SOL     OW 8109   4.646   5.005   6.694
 2028SOL    HW1 8110   4.653   5.094   6.729
 2028SOL    HW2 8111   4.553   4.985   6.698
 2028SOL     MW 8112   4.635   5.014   6.699
 2029SOL     OW 8113   1.418   9.616   7.124
 2029SOL    HW1 8114   1.389   9.525   7.115
 2029SOL    HW2 8115   1.337   9.666   7.129
 2029SOL     MW 8116   1.403   9.610   7.123
 2030SOL     OW 8117   2.551   0.006   7.104
 2030SOL    HW1 8118   2.484   0.013   7.172
 2030SOL    HW2 8119   2.511   0.046   7.027
 2030SOL     MW 8120   2.537   0.013   7.103
 2031SOL     OW 8121   0.199   0.724   9.861
 2031SOL    HW1 8122   0.262   0.766   9.920
 2031SOL    HW2 8123   0.149   0.797   9.825
 2031SOL     MW 8124   0.201   0.740   9.864
 2032SOL     OW 8125   7.845   5.237   5.636
 2032SOL    HW1 8126   7.874   5.302   5.573
 2032SOL    HW2 8127   7.765   5.201   5.598
 2032SOL     MW 8128   7.838   5.241   5.623
 2033SOL     OW 8129   1.360   1.420   7.429
 2033SOL    HW1 8130   1.377   1.339   7.477
 2033SOL    HW2 8131   1.426   1.422   7.360
 2033SOL     MW 8132   1.371   1.410   7.426
 2034SOL     OW 8133   5.213   2.171   1.257
 2034SOL    HW1 8134   5.225   2.099   1.319
 2034SOL    HW2 8135   5.187   2.245   1.313
 2034SOL     MW 8136   5.211   2.171   1.273
 2035SOL     OW 8137   1.246   6.262   2.857
 2035SOL    HW1 8138   1.166   6.211   2.840
 2035SOL    HW2 8139   1.317   6.200   2.843
 2035SOL     MW 8140   1.245   6.247   2.853
 2036SOL     OW 8141   9.139   4.862   4.259
 2036SOL    HW1 8142   9.226   4.828   4.282
 2036SOL    HW2 8143   9.084   4.784   4.254
 2036SOL     MW 8144   9.144   4.847   4.261
 2037SOL     OW 8145   2.157   5.796   0.512
 2037SOL    HW1 8146   2.235   5.754   0.476
 2037SOL    HW2 8147   2.111   5.725   0.556
 2037SOL     MW 8148   2.161   5.781   0.513
 2038SOL     OW 8149   8.963   2.230   6.304
 2038SOL    HW1 8150   9.045   2.206   6.349
 2038SOL    HW2 8151   8.909   2.151   6.310
 2038SOL     MW 8152   8.967   2.216   6.311
 2039SOL     OW 8153   4.905   0.704   8.615
 2039SOL    HW1 8154   4.904   0.679   8.707
 2039SOL    HW2 8155   4.895   0.799   8.615
 2039SOL     MW 8156   4.904   0.713   8.627
 2040SOL     OW 8157   2.957   7.167   6.758
 2040SOL    HW1 8158   2.988   7.217   6.682
 2040SOL    HW2 8159   3.031   7.169   6.819
 2040SOL     MW 8160   2.971   7.174   6.756
 2041SOL     OW 8161   2.722   5.851   9.606
 2041SOL    HW1 8162   2.817   5.863   9.605
 2041SOL    HW2 8163   2.688   5.926   9.558
 2041SOL     MW 8164   2.731   5.862   9.599
 2042SOL     OW 8165   1.803   5.744   7.243
 2042SOL    HW1 8166   1.778   5.762   7.334
 2042SOL    HW2 8167   1.869   5.675   7.250
 2042SOL     MW 8168   1.808   5.737   7.256
 2043SOL     OW 8169   3.721   3.607   8.559
 2043SOL    HW1 8170   3.736   3.693   8.598
 2043SOL    HW2 8171   3.803   3.560   8.572
 2043SOL     MW 8172   3.734   3.612   8.566
 2044SOL     OW 8173   1.906   9.479   3.771
 2044SOL    HW1 8174   1.957   9.556   3.746
 2044SOL    HW2 8175   1.887   9.492   3.864
 2044SOL     MW 8176   1.910   9.491   3.780
 2045SOL     OW 8177   7.265   9.671   1.305
 2045SOL    HW1 8178   7.279   9.663   1.400
 2045SOL    HW2 8179   7.250   9.765   1.292
 2045SOL     MW 8180   7.265   9.683   1.316
 2046SOL     OW 8181   2.678   9.506   5.265
 2046SOL    HW1 8182   2.763   9.462   5.274
 2046SOL    HW2 8183   2.637   9.499   5.351
 2046SOL     MW 8184   2.684   9.499   5.277
 2047SOL     OW 8185   5.992   6.243   4.239
 2047SOL    HW1 8186   6.042   6.289   4.307
 2047SOL    HW2 8187   5.919   6.301   4.220
 2047SOL     MW 8188   5.989   6.257   4.246
 2048SOL     OW 8189   2.700   4.123   7.426
 2048SOL    HW1 8190   2.659   4.069   7.494
 2048SOL    HW2 8191   2.743   4.193   7.475
 2048SOL     MW 8192   2.700   4.125   7.442
 2049SOL     OW 8193   9.434   2.146   4.434
 2049SOL    HW1 8194   9.436   2.224   4.379
 2049SOL    HW2 8195   9.504   2.159   4.497
 2049SOL     MW 8196   9.444   2.158   4.435
 2050SOL     OW 8197   1.737   7.354   3.003
 2050SOL    HW1 8198   1.814   7.304   3.029
 2050SOL    HW2 8199   1.750   7.440   3.044
 2050SOL     MW 8200   1.749   7.359   3.012
 2051SOL     OW 8201   2.921   6.248   3.092
 2051SOL    HW1 8202   2.991   6.257   3.027
 2051SOL    HW2 8203   2.964   6.263   3.176
 2051SOL     MW 8204   2.936   6.251   3.095
 2052SOL     OW 8205   8.107   8.024   1.271
 2052SOL    HW1 8206   8.144   8.113   1.271
 2052SOL    HW2 8207   8.124   7.991   1.359
 2052SOL     MW 8208   8.114   8.032   1.283
 2053SOL     OW 8209   5.776   9.737   5.898
 2053SOL    HW1 8210   5.844   9.682   5.860
 2053SOL    HW2 8211   5.704   9.677   5.917
 2053SOL     MW 8212   5.776   9.721   5.895
 2054SOL     OW 8213   8.581   7.195   9.171
 2054SOL    HW1 8214   8.595   7.255   9.098
 2054SOL    HW2 8215   8.626   7.115   9.145
 2054SOL     MW 8216   8.589   7.192   9.158
 2055SOL     OW 8217   7.335   2.193   7.900
 2055SOL    HW1 8218   7.287   2.141   7.965
 2055SOL    HW2 8219   7.357   2.273   7.947
 2055SOL     MW 8220   7.332   2.197   7.915
 2056SOL     OW 8221   8.541   1.703   2.709
 2056SOL    HW1 8222   8.602   1.644   2.753
 2056SOL    HW2 8223   8.498   1.750   2.780
 2056SOL     MW 8224   8.543   1.701   2.724
 2057SOL     OW 8225   2.600   6.859   2.097
 2057SOL    HW1 8226   2.629   6.783   2.148
 2057SOL    HW2 8227   2.564   6.821   2.017
 2057SOL     MW 8228   2.599   6.844   2.093
 2058SOL     OW 8229   7.899   6.701   8.491
 2058SOL    HW1 8230   7.897   6.729   8.400
 2058SOL    HW2 8231   7.866   6.776   8.540
 2058SOL     MW 8232   7.894   6.715   8.485
 2059SOL     OW 8233   8.901   9.931   8.076
 2059SOL    HW1 8234   8.944   9.888   8.150
 2059SOL    HW2 8235   8.843   9.864   8.040
 2059SOL     MW 8236   8.899   9.916   8.081
 2060SOL     OW 8237  10.006   6.839   3.101
 2060SOL    HW1 8238  10.089   6.829   3.055
 2060SOL    HW2 8239   9.943   6.788   3.050
 2060SOL     MW 8240  10.008   6.831   3.088
 2061SOL     OW 8241   1.912   9.718   0.959
 2061SOL    HW1 8242   1.896   9.715   0.865
 2061SOL    HW2 8243   1.928   9.810   0.978
 2061SOL     MW 8244   1.912   9.730   0.949
 2062SOL     OW 8245   1.075   7.731   2.695
 2062SOL    HW1 8246   1.106   7.686   2.773
 2062SOL    HW2 8247   1.127   7.696   2.624
 2062SOL     MW 8248   1.086   7.720   2.696
 2063SOL     OW 8249   6.976   9.869   9.003
 2063SOL    HW1 8250   6.920   9.920   8.944
 2063SOL    HW2 8251   7.049   9.841   8.949
 2063SOL     MW 8252   6.978   9.872   8.988
 2064SOL     OW 8253   9.275   9.664   2.201
 2064SOL    HW1 8254   9.270   9.748   2.155
 2064SOL    HW2 8255   9.183   9.640   2.216
 2064SOL     MW 8256   9.262   9.672   2.196
 2065SOL     OW 8257   8.555   9.483   5.863
 2065SOL    HW1 8258   8.499   9.546   5.908
 2065SOL    HW2 8259   8.628   9.535   5.829
 2065SOL     MW 8260   8.557   9.498   5.864
 2066SOL     OW 8261   3.141   7.198   6.971
 2066SOL    HW1 8262   3.233   7.188   6.992
 2066SOL    HW2 8263   3.119   7.287   6.999
 2066SOL     MW 8264   3.150   7.209   6.977
 2067SOL     OW 8265   4.722   7.834   6.065
 2067SOL    HW1 8266   4.735   7.800   6.154
 2067SOL    HW2 8267   4.672   7.765   6.021
 2067SOL     MW 8268   4.717   7.820   6.071
 2068SOL     OW 8269   2.491   1.976   9.667
 2068SOL    HW1 8270   2.544   1.900   9.645
 2068SOL    HW2 8271   2.448   1.953   9.749
 2068SOL     MW 8272   2.492   1.963   9.675
 2069SOL     OW 8273   2.834   7.682   3.673
 2069SOL    HW1 8274   2.836   7.637   3.757
 2069SOL    HW2 8275   2.847   7.775   3.696
 2069SOL     MW 8276   2.836   7.689   3.687
 2070SOL     OW 8277   3.511   2.224   0.492
 2070SOL    HW1 8278   3.473   2.145   0.452
 2070SOL    HW2 8279   3.538   2.196   0.579
 2070SOL     MW 8280   3.509   2.210   0.498
 2071SOL     OW 8281   5.956   1.321   7.106
 2071SOL    HW1 8282   5.916   1.254   7.050
 2071SOL    HW2 8283   5.986   1.274   7.183
 2071SOL     MW 8284   5.955   1.306   7.109
 2072SOL     OW 8285   2.306   4.108   8.915
 2072SOL    HW1 8286   2.245   4.056   8.863
 2072SOL    HW2 8287   2.250   4.173   8.959
 2072SOL     MW 8288   2.290   4.110   8.914
 2073SOL     OW 8289   4.553   6.848   2.908
 2073SOL    HW1 8290   4.516   6.936   2.916
 2073SOL    HW2 8291   4.644   6.857   2.938
 2073SOL     MW 8292   4.560   6.861   2.913
 2074SOL     OW 8293   1.621   5.180   6.399
 2074SOL    HW1 8294   1.546   5.123   6.419
 2074SOL    HW2 8295   1.696   5.135   6.438
 2074SOL     MW 8296   1.621   5.166   6.407
 2075SOL     OW 8297   3.899   8.802   9.187
 2075SOL    HW1 8298   3.814   8.846   9.181
 2075SOL    HW2 8299   3.880   8.711   9.162
 2075SOL     MW 8300   3.885   8.796   9.183
 2076SOL     OW 8301   5.270   3.584   2.928
 2076SOL    HW1 8302   5.285   3.651   2.861
 2076SOL    HW2 8303   5.233   3.510   2.880
 2076SOL     MW 8304   5.267   3.583   2.912
 2077SOL     OW 8305   1.106   4.266   8.619
 2077SOL    HW1 8306   1.132   4.206   8.688
 2077SOL    HW2 8307   1.030   4.313   8.655
 2077SOL     MW 8308   1.099   4.264   8.633
 2078SOL     OW 8309  10.149   2.143   2.240
 2078SOL    HW1 8310  10.221   2.206   2.227
 2078SOL    HW2 8311  10.074   2.184   2.197
 2078SOL     MW 8312  10.149   2.157   2.232
 2079SOL     OW 8313   0.996   6.032   4.571
 2079SOL    HW1 8314   1.017   6.126   4.564
 2079SOL    HW2 8315   1.039   5.993   4.495
 2079SOL     MW 8316   1.005   6.040   4.560
 2080SOL     OW 8317   6.498   2.230   5.314
 2080SOL    HW1 8318   6.509   2.315   5.357
 2080SOL    HW2 8319   6.451   2.177   5.378
 2080SOL     MW 8320   6.493   2.234   5.328
 2081SOL     OW 8321   9.939   2.894   9.602
 2081SOL    HW1 8322   9.878   2.930   9.666
 2081SOL    HW2 8323   9.937   2.956   9.528
 2081SOL     MW 8324   9.931   2.907   9.600
 2082SOL     OW 8325   7.875   8.652   8.458
 2082SOL    HW1 8326   7.921   8.604   8.527
 2082SOL    HW2 8327   7.800   8.692   8.501
 2082SOL     MW 8328   7.871   8.651   8.473
 2083SOL     OW 8329   4.167   5.880   0.310
 2083SOL    HW1 8330   4.162   5.858   0.403
 2083SOL    HW2 8331   4.172   5.975   0.309
 2083SOL     MW 8332   4.167   5.890   0.323
 2084SOL     OW 8333   9.587   7.054   5.148
 2084SOL    HW1 8334   9.663   7.026   5.097
 2084SOL    HW2 8335   9.614   7.138   5.186
 2084SOL     MW 8336   9.601   7.061   5.146
 2085SOL     OW 8337   3.567   3.627   8.105
 2085SOL    HW1 8338   3.473   3.644   8.108
 2085SOL    HW2 8339   3.606   3.710   8.078
 2085SOL     MW 8340   3.560   3.640   8.102
 2086SOL     OW 8341  10.050   6.463   0.891
 2086SOL    HW1 8342  10.109   6.421   0.954
 2086SOL    HW2 8343  10.071   6.556   0.898
 2086SOL     MW 8344  10.061   6.470   0.900
 2087SOL     OW 8345   9.202   2.915  10.099
 2087SOL    HW1 8346   9.182   2.863  10.021
 2087SOL    HW2 8347   9.289   2.885  10.127
 2087SOL     MW 8348   9.211   2.904  10.093
 2088SOL     OW 8349   1.911   2.614   2.839
 2088SOL    HW1 8350   2.000   2.643   2.819
 2088SOL    HW2 8351   1.912   2.595   2.932
 2088SOL     MW 8352   1.923   2.615   2.849
 2089SOL     OW 8353   9.450   0.163   3.376
 2089SOL    HW1 8354   9.434   0.098   3.444
 2089SOL    HW2 8355   9.539   0.146   3.346
 2089SOL     MW 8356   9.460   0.152   3.382
 2090SOL     OW 8357   6.000   3.670   6.708
 2090SOL    HW1 8358   6.040   3.676   6.795
 2090SOL    HW2 8359   6.021   3.582   6.678
 2090SOL     MW 8360   6.008   3.659   6.716
 2091SOL     OW 8361   2.995   6.132   4.951
 2091SOL    HW1 8362   3.005   6.199   5.019
 2091SOL    HW2 8363   2.954   6.178   4.878
 2091SOL     MW 8364   2.991   6.147   4.950
 2092SOL     OW 8365   0.575   3.135   4.094
 2092SOL    HW1 8366   0.542   3.170   4.177
 2092SOL    HW2 8367   0.600   3.045   4.114
 2092SOL     MW 8368   0.574   3.128   4.108
 2093SOL     OW 8369   7.032   3.017   8.726
 2093SOL    HW1 8370   7.077   3.053   8.649
 2093SOL    HW2 8371   6.972   2.952   8.690
 2093SOL     MW 8372   7.030   3.013   8.711
 2094SOL     OW 8373   8.448   4.210   2.371
 2094SOL    HW1 8374   8.387   4.136   2.369
 2094SOL    HW2 8375   8.530   4.172   2.403
 2094SOL     MW 8376   8.450   4.195   2.375
 2095SOL     OW 8377   1.649   4.195   8.139
 2095SOL    HW1 8378   1.658   4.123   8.076
 2095SOL    HW2 8379   1.555   4.199   8.157
 2095SOL     MW 8380   1.638   4.186   8.133
 2096SOL     OW 8381   9.963   4.277   1.477
 2096SOL    HW1 8382   9.924   4.306   1.394
 2096SOL    HW2 8383  10.013   4.352   1.508
 2096SOL     MW 8384   9.964   4.291   1.470
 2097SOL     OW 8385   1.097   5.101   6.621
 2097SOL    HW1 8386   1.021   5.141   6.662
 2097SOL    HW2 8387   1.166   5.167   6.625
 2097SOL     MW 8388   1.096   5.115   6.627
 2098SOL     OW 8389   9.956   0.058   8.223
 2098SOL    HW1 8390   9.869   0.057   8.261
 2098SOL    HW2 8391   9.993   0.143   8.248
 2098SOL     MW 8392   9.950   0.069   8.232
 2099SOL     OW 8393   1.737   1.269   6.347
 2099SOL    HW1 8394   1.722   1.229   6.261
 2099SOL    HW2 8395   1.832   1.267   6.358
 2099SOL     MW 8396   1.748   1.263   6.337
 2100SOL     OW 8397  10.048   0.074   6.643
 2100SOL    HW1 8398   9.983   0.142   6.626
 2100SOL    HW2 8399   9.997   0.000   6.675
 2100SOL     MW 8400  10.033   0.074   6.645
 2101SOL     OW 8401   8.367   1.580   9.663
 2101SOL    HW1 8402   8.421   1.559   9.739
 2101SOL    HW2 8403   8.360   1.675   9.663
 2101SOL     MW 8404   8.373   1.590   9.673
 2102SOL     OW 8405   0.644   9.604   2.652
 2102SOL    HW1 8406   0.642   9.577   2.744
 2102SOL    HW2 8407   0.695   9.537   2.608
 2102SOL     MW 8408   0.650   9.592   2.658
 2103SOL     OW 8409   2.619   2.820   1.317
 2103SOL    HW1 8410   2.619   2.914   1.338
 2103SOL    HW2 8411   2.576   2.815   1.232
 2103SOL     MW 8412   2.613   2.832   1.308
 2104SOL     OW 8413   3.239   4.037   6.422
 2104SOL    HW1 8414   3.218   3.965   6.362
 2104SOL    HW2 8415   3.183   4.022   6.498
 2104SOL     MW 8416   3.229   4.025   6.424
 2105SOL     OW 8417   9.140   3.184  10.123
 2105SOL    HW1 8418   9.155   3.090  10.119
 2105SOL    HW2 8419   9.225   3.221  10.147
 2105SOL     MW 8420   9.153   3.176  10.126
 2106SOL     OW 8421   9.528   7.505   5.380
 2106SOL    HW1 8422   9.513   7.559   5.302
 2106SOL    HW2 8423   9.618   7.523   5.405
 2106SOL     MW 8424   9.538   7.515   5.373
 2107SOL     OW 8425   2.891   0.886   2.909
 2107SOL    HW1 8426   2.965   0.941   2.885
 2107SOL    HW2 8427   2.849   0.864   2.826
 2107SOL     MW 8428   2.896   0.890   2.895
 2108SOL     OW 8429   8.056   8.510   4.057
 2108SOL    HW1 8430   8.079   8.525   3.965
 2108SOL    HW2 8431   8.138   8.526   4.104
 2108SOL     MW 8432   8.070   8.514   4.051
 2109SOL     OW 8433   2.770   2.668   5.531
 2109SOL    HW1 8434   2.837   2.678   5.600
 2109SOL    HW2 8435   2.700   2.728   5.557
 2109SOL     MW 8436   2.770   2.678   5.544
 2110SOL     OW 8437   1.414   0.783   9.573
 2110SOL    HW1 8438   1.362   0.765   9.495
 2110SOL    HW2 8439   1.467   0.704   9.586
 2110SOL     MW 8440   1.414   0.770   9.564
 2111SOL     OW 8441   6.182   8.705   1.011
 2111SOL    HW1 8442   6.107   8.743   1.056
 2111SOL    HW2 8443   6.239   8.672   1.081
 2111SOL     MW 8444   6.180   8.706   1.026
 2112SOL     OW 8445   0.917   9.318   0.530
 2112SOL    HW1 8446   0.921   9.274   0.614
 2112SOL    HW2 8447   0.896   9.409   0.551
 2112SOL     MW 8448   0.915   9.324   0.544
 2113SOL     OW 8449   2.166   7.735   3.990
 2113SOL    HW1 8450   2.106   7.802   3.956
 2113SOL    HW2 8451   2.222   7.712   3.915
 2113SOL     MW 8452   2.166   7.741   3.975
 2114SOL     OW 8453   4.282   7.949   4.761
 2114SOL    HW1 8454   4.320   7.884   4.702
 2114SOL    HW2 8455   4.190   7.924   4.767
 2114SOL     MW 8456   4.275   7.937   4.754
 2115SOL     OW 8457   9.728   6.590   3.221
 2115SOL    HW1 8458   9.783   6.648   3.273
 2115SOL    HW2 8459   9.734   6.505   3.265
 2115SOL     MW 8460   9.736   6.586   3.234
 2116SOL     OW 8461   3.990   2.057   9.415
 2116SOL    HW1 8462   4.057   2.039   9.350
 2116SOL    HW2 8463   3.975   2.152   9.409
 2116SOL     MW 8464   3.997   2.068   9.406
 2117SOL     OW 8465   3.480   8.414   6.059
 2117SOL    HW1 8466   3.500   8.472   5.986
 2117SOL    HW2 8467   3.387   8.395   6.051
 2117SOL     MW 8468   3.470   8.419   6.048
 2118SOL     OW 8469   0.750   6.220   4.024
 2118SOL    HW1 8470   0.722   6.136   4.060
 2118SOL    HW2 8471   0.757   6.278   4.100
 2118SOL     MW 8472   0.747   6.217   4.039
 2119SOL     OW 8473   1.255   9.661   1.784
 2119SOL    HW1 8474   1.198   9.737   1.785
 2119SOL    HW2 8475   1.196   9.586   1.775
 2119SOL     MW 8476   1.240   9.661   1.783
 2120SOL     OW 8477   6.621   7.327   5.090
 2120SOL    HW1 8478   6.628   7.391   5.161
 2120SOL    HW2 8479   6.527   7.318   5.075
 2120SOL     MW 8480   6.610   7.335   5.097
 2121SOL     OW 8481   6.768   5.913   5.680
 2121SOL    HW1 8482   6.807   5.998   5.702
 2121SOL    HW2 8483   6.824   5.878   5.610
 2121SOL     MW 8484   6.781   5.920   5.674
 2122SOL     OW 8485  10.058   0.667   2.505
 2122SOL    HW1 8486  10.031   0.585   2.465
 2122SOL    HW2 8487  10.026   0.735   2.445
 2122SOL     MW 8488  10.050   0.665   2.492
 2123SOL     OW 8489   1.019   4.230   7.364
 2123SOL    HW1 8490   0.939   4.267   7.325
 2123SOL    HW2 8491   1.039   4.154   7.310
 2123SOL     MW 8492   1.011   4.225   7.352
 2124SOL     OW 8493   5.742   9.740   9.687
 2124SOL    HW1 8494   5.658   9.707   9.656
 2124SOL    HW2 8495   5.720   9.806   9.752
 2124SOL     MW 8496   5.728   9.744   9.691
 2125SOL     OW 8497   5.693   9.953   9.852
 2125SOL    HW1 8498   5.776   9.965   9.898
 2125SOL    HW2 8499   5.687  10.027   9.792
 2125SOL     MW 8500   5.703   9.965   9.850
 2126SOL     OW 8501   0.415   5.825   0.086
 2126SOL    HW1 8502   0.342   5.864   0.038
 2126SOL    HW2 8503   0.481   5.805   0.019
 2126SOL     MW 8504   0.414   5.828   0.071
 2127SOL     OW 8505   3.330   9.330   6.426
 2127SOL    HW1 8506   3.383   9.260   6.390
 2127SOL    HW2 8507   3.377   9.410   6.403
 2127SOL     MW 8508   3.343   9.332   6.418
 2128SOL     OW 8509   6.095   1.801   8.089
 2128SOL    HW1 8510   6.082   1.865   8.019
 2128SOL    HW2 8511   6.184   1.768   8.074
 2128SOL     MW 8512   6.106   1.805   8.077
 2129SOL     OW 8513   8.890   0.762   8.301
 2129SOL    HW1 8514   8.870   0.804   8.217
 2129SOL    HW2 8515   8.823   0.695   8.311
 2129SOL     MW 8516   8.878   0.759   8.291
 2130SOL     OW 8517   7.772   3.209   9.891
 2130SOL    HW1 8518   7.766   3.195   9.797
 2130SOL    HW2 8519   7.792   3.302   9.901
 2130SOL     MW 8520   7.774   3.220   9.880
 2131SOL     OW 8521   7.825   3.474   9.944
 2131SOL    HW1 8522   7.779   3.478  10.027
 2131SOL    HW2 8523   7.917   3.483   9.967
 2131SOL     MW 8524   7.831   3.475   9.958
 2132SOL     OW 8525   0.719   3.553   4.133
 2132SOL    HW1 8526   0.713   3.483   4.068
 2132SOL    HW2 8527   0.813   3.567   4.144
 2132SOL     MW 8528   0.731   3.545   4.126
 2133SOL     OW 8529   4.157   6.389   3.163
 2133SOL    HW1 8530   4.237   6.400   3.112
 2133SOL    HW2 8531   4.126   6.478   3.178
 2133SOL     MW 8532   4.164   6.402   3.158
 2134SOL     OW 8533   3.500   2.141   2.579
 2134SOL    HW1 8534   3.568   2.106   2.522
 2134SOL    HW2 8535   3.431   2.170   2.520
 2134SOL     MW 8536   3.500   2.140   2.564
 2135SOL     OW 8537   5.789   1.779   7.794
 2135SOL    HW1 8538   5.776   1.705   7.735
 2135SOL    HW2 8539   5.822   1.740   7.875
 2135SOL     MW 8540   5.792   1.764   7.797
 2136SOL     OW 8541   5.155   1.710   9.563
 2136SOL    HW1 8542   5.153   1.689   9.656
 2136SOL    HW2 8543   5.063   1.711   9.536
 2136SOL     MW 8544   5.142   1.707   9.572
 2137SOL     OW 8545   5.996   6.852   6.243
 2137SOL    HW1 8546   5.923   6.833   6.184
 2137SOL    HW2 8547   5.960   6.835   6.331
 2137SOL     MW 8548   5.981   6.847   6.247
 2138SOL     OW 8549   8.967   7.693   2.462
 2138SOL    HW1 8550   8.889   7.696   2.517
 2138SOL    HW2 8551   8.937   7.725   2.376
 2138SOL     MW 8552   8.953   7.698   2.458
 2139SOL     OW 8553   0.807   5.344   1.817
 2139SOL    HW1 8554   0.775   5.254   1.808
 2139SOL    HW2 8555   0.841   5.367   1.730
 2139SOL     MW 8556   0.808   5.335   1.804
 2140SOL     OW 8557   6.037   1.975   7.883
 2140SOL    HW1 8558   6.049   2.068   7.864
 2140SOL    HW2 8559   5.960   1.950   7.831
 2140SOL     MW 8560   6.028   1.984   7.873
 2141SOL     OW 8561   9.063   3.578   0.692
 2141SOL    HW1 8562   9.113   3.506   0.730
 2141SOL    HW2 8563   9.124   3.652   0.693
 2141SOL     MW 8564   9.078   3.578   0.697
 2142SOL     OW 8565   8.921   9.314   5.108
 2142SOL    HW1 8566   8.975   9.392   5.118
 2142SOL    HW2 8567   8.962   9.266   5.035
 2142SOL     MW 8568   8.934   9.318   5.099
 2143SOL     OW 8569   4.723   7.710   6.322
 2143SOL    HW1 8570   4.799   7.698   6.378
 2143SOL    HW2 8571   4.660   7.757   6.377
 2143SOL     MW 8572   4.725   7.715   6.337
 2144SOL     OW 8573   4.559   3.825   7.398
 2144SOL    HW1 8574   4.644   3.790   7.371
 2144SOL    HW2 8575   4.520   3.754   7.449
 2144SOL     MW 8576   4.566   3.811   7.401
 2145SOL     OW 8577   0.501   0.880   0.521
 2145SOL    HW1 8578   0.429   0.870   0.459
 2145SOL    HW2 8579   0.457   0.893   0.606
 2145SOL     MW 8580   0.485   0.881   0.524
 2146SOL     OW 8581   5.192   8.197   0.962
 2146SOL    HW1 8582   5.227   8.131   0.902
 2146SOL    HW2 8583   5.244   8.186   1.042
 2146SOL     MW 8584   5.204   8.186   0.965
 2147SOL     OW 8585   0.350   2.897   8.509
 2147SOL    HW1 8586   0.418   2.870   8.447
 2147SOL    HW2 8587   0.309   2.973   8.468
 2147SOL     MW 8588   0.353   2.903   8.495
 2148SOL     OW 8589   4.534   9.537   4.555
 2148SOL    HW1 8590   4.550   9.486   4.476
 2148SOL    HW2 8591   4.454   9.498   4.592
 2148SOL     MW 8592   4.525   9.525   4.550
 2149SOL     OW 8593   6.457   4.547   9.801
 2149SOL    HW1 8594   6.381   4.596   9.770
 2149SOL    HW2 8595   6.437   4.529   9.893
 2149SOL     MW 8596   6.444   4.552   9.810
 2150SOL     OW 8597   6.585   0.053   5.173
 2150SOL    HW1 8598   6.598  -0.001   5.251
 2150SOL    HW2 8599   6.551   0.136   5.207
 2150SOL     MW 8600   6.582   0.057   5.188
 2151SOL     OW 8601   7.909   8.469   0.442
 2151SOL    HW1 8602   7.959   8.388   0.431
 2151SOL    HW2 8603   7.959   8.535   0.393
 2151SOL     MW 8604   7.923   8.467   0.434
 2152SOL     OW 8605   5.230   7.522   1.355
 2152SOL    HW1 8606   5.243   7.484   1.269
 2152SOL    HW2 8607   5.262   7.455   1.416
 2152SOL     MW 8608   5.236   7.508   1.352
 2153SOL     OW 8609   9.551   0.759   0.322
 2153SOL    HW1 8610   9.533   0.838   0.373
 2153SOL    HW2 8611   9.465   0.724   0.300
 2153SOL     MW 8612   9.537   0.765   0.326
 2154SOL     OW 8613   0.444   7.173   9.676
 2154SOL    HW1 8614   0.505   7.162   9.603
 2154SOL    HW2 8615   0.372   7.224   9.639
 2154SOL     MW 8616   0.443   7.178   9.661
 2155SOL     OW 8617   4.212   5.716   1.237
 2155SOL    HW1 8618   4.127   5.741   1.201
 2155SOL    HW2 8619   4.261   5.798   1.242
 2155SOL     MW 8620   4.207   5.730   1.232
 2156SOL     OW 8621   2.160   4.865   5.018
 2156SOL    HW1 8622   2.065   4.875   5.024
 2156SOL    HW2 8623   2.184   4.811   5.094
 2156SOL     MW 8624   2.151   4.859   5.029
 2157SOL     OW 8625   3.263   0.318   5.386
 2157SOL    HW1 8626   3.325   0.285   5.451
 2157SOL    HW2 8627   3.306   0.395   5.348
 2157SOL     MW 8628   3.277   0.324   5.389
 2158SOL     OW 8629   9.509   1.947   1.255
 2158SOL    HW1 8630   9.552   1.863   1.247
 2158SOL    HW2 8631   9.432   1.929   1.310
 2158SOL     MW 8632   9.504   1.934   1.261
 2159SOL     OW 8633   9.794   0.454   3.393
 2159SOL    HW1 8634   9.719   0.492   3.440
 2159SOL    HW2 8635   9.767   0.365   3.373
 2159SOL     MW 8636   9.780   0.447   3.396
 2160SOL     OW 8637   8.260   8.045   7.567
 2160SOL    HW1 8638   8.193   8.007   7.624
 2160SOL    HW2 8639   8.246   8.004   7.482
 2160SOL     MW 8640   8.249   8.034   7.563
 2161SOL     OW 8641   1.252   1.067   1.178
 2161SOL    HW1 8642   1.306   1.069   1.257
 2161SOL    HW2 8643   1.262   1.154   1.140
 2161SOL     MW 8644   1.261   1.079   1.184
 2162SOL     OW 8645   2.549   6.540   3.073
 2162SOL    HW1 8646   2.464   6.583   3.067
 2162SOL    HW2 8647   2.604   6.587   3.009
 2162SOL     MW 8648   2.545   6.552   3.063
 2163SOL     OW 8649   4.799   9.894   8.563
 2163SOL    HW1 8650   4.766   9.931   8.645
 2163SOL    HW2 8651   4.723   9.850   8.524
 2163SOL     MW 8652   4.784   9.893   8.568
 2164SOL     OW 8653   3.018   8.378   9.007
 2164SOL    HW1 8654   2.939   8.399   8.958
 2164SOL    HW2 8655   3.041   8.289   8.978
 2164SOL     MW 8656   3.011   8.369   8.996
 2165SOL     OW 8657   3.031   6.481   4.838
 2165SOL    HW1 8658   3.120   6.477   4.802
 2165SOL    HW2 8659   2.985   6.410   4.793
 2165SOL     MW 8660   3.037   6.471   4.827
 2166SOL     OW 8661   8.755   2.204   3.427
 2166SOL    HW1 8662   8.775   2.243   3.342
 2166SOL    HW2 8663   8.821   2.135   3.438
 2166SOL     MW 8664   8.767   2.200   3.417
 2167SOL     OW 8665   1.529  -0.000   7.912
 2167SOL    HW1 8666   1.590  -0.059   7.868
 2167SOL    HW2 8667   1.585   0.061   7.959
 2167SOL     MW 8668   1.545   0.000   7.912
 2168SOL     OW 8669   4.124   4.624   2.997
 2168SOL    HW1 8670   4.079   4.582   2.924
 2168SOL    HW2 8671   4.164   4.702   2.959
 2168SOL     MW 8672   4.123   4.629   2.982
 2169SOL     OW 8673   2.364   5.715   3.902
 2169SOL    HW1 8674   2.376   5.757   3.817
 2169SOL    HW2 8675   2.318   5.781   3.955
 2169SOL     MW 8676   2.360   5.730   3.898
 2170SOL     OW 8677   8.009   2.849   7.139
 2170SOL    HW1 8678   8.018   2.793   7.061
 2170SOL    HW2 8679   8.004   2.788   7.212
 2170SOL     MW 8680   8.009   2.833   7.138
 2171SOL     OW 8681   1.360   9.025   0.024
 2171SOL    HW1 8682   1.309   9.041   0.103
 2171SOL    HW2 8683   1.386   8.933   0.030
 2171SOL     MW 8684   1.356   9.015   0.035
 2172SOL     OW 8685   6.230   2.098   2.299
 2172SOL    HW1 8686   6.145   2.140   2.307
 2172SOL    HW2 8687   6.228   2.025   2.361
 2172SOL     MW 8688   6.219   2.094   2.308
 2173SOL     OW 8689   1.831   8.081   3.272
 2173SOL    HW1 8690   1.749   8.130   3.277
 2173SOL    HW2 8691   1.886   8.133   3.213
 2173SOL     MW 8692   1.827   8.095   3.265
 2174SOL     OW 8693   6.516   2.717   6.928
 2174SOL    HW1 8694   6.539   2.726   7.020
 2174SOL    HW2 8695   6.597   2.735   6.881
 2174SOL     MW 8696   6.530   2.721   6.934
 2175SOL     OW 8697   8.706   3.382   2.349
 2175SOL    HW1 8698   8.715   3.321   2.276
 2175SOL    HW2 8699   8.661   3.458   2.312
 2175SOL     MW 8700   8.701   3.384   2.334
 2176SOL     OW 8701   2.000   0.239   5.057
 2176SOL    HW1 8702   1.939   0.310   5.038
 2176SOL    HW2 8703   1.955   0.185   5.122
 2176SOL     MW 8704   1.986   0.242   5.063
 2177SOL     OW 8705   2.089   7.114   1.401
 2177SOL    HW1 8706   2.179   7.142   1.419
 2177SOL    HW2 8707   2.070   7.051   1.471
 2177SOL     MW 8708   2.099   7.109   1.413
 2178SOL     OW 8709   9.941   0.424   8.495
 2178SOL    HW1 8710   9.908   0.495   8.440
 2178SOL    HW2 8711   9.996   0.372   8.437
 2178SOL     MW 8712   9.944   0.427   8.480
 2179SOL     OW 8713   8.315   5.020   1.918
 2179SOL    HW1 8714   8.273   5.097   1.881
 2179SOL    HW2 8715   8.409   5.034   1.903
 2179SOL     MW 8716   8.322   5.032   1.911
 2180SOL     OW 8717   1.373   8.685   2.227
 2180SOL    HW1 8718   1.443   8.717   2.283
 2180SOL    HW2 8719   1.294   8.729   2.259
 2180SOL     MW 8720   1.372   8.695   2.239
 2181SOL     OW 8721   8.848   4.186   2.406
 2181SOL    HW1 8722   8.846   4.124   2.333
 2181SOL    HW2 8723   8.902   4.259   2.375
 2181SOL     MW 8724   8.855   4.187   2.392
 2182SOL     OW 8725   5.368   6.337   3.607
 2182SOL    HW1 8726   5.280   6.303   3.623
 2182SOL    HW2 8727   5.425   6.260   3.613
 2182SOL     MW 8728   5.364   6.322   3.610
 2183SOL     OW 8729   6.042   5.472   1.464
 2183SOL    HW1 8730   6.032   5.384   1.499
 2183SOL    HW2 8731   5.981   5.526   1.514
 2183SOL     MW 8732   6.033   5.468   1.475
 2184SOL     OW 8733   6.558   7.654   8.513
 2184SOL    HW1 8734   6.602   7.609   8.440
 2184SOL    HW2 8735   6.526   7.736   8.475
 2184SOL     MW 8736   6.559   7.659   8.498
 2185SOL     OW 8737   1.703   2.998   5.908
 2185SOL    HW1 8738   1.628   2.987   5.850
 2185SOL    HW2 8739   1.664   3.010   5.995
 2185SOL     MW 8740   1.688   2.998   5.912
 2186SOL     OW 8741   1.809   8.372   9.711
 2186SOL    HW1 8742   1.773   8.441   9.766
 2186SOL    HW2 8743   1.775   8.291   9.748
 2186SOL     MW 8744   1.800   8.370   9.723
 2187SOL     OW 8745   3.615   7.061   4.315
 2187SOL    HW1 8746   3.605   7.078   4.409
 2187SOL    HW2 8747   3.559   6.986   4.297
 2187SOL     MW 8748   3.606   7.053   4.325
 2188SOL     OW 8749   6.070   8.780   1.291
 2188SOL    HW1 8750   6.100   8.864   1.327
 2188SOL    HW2 8751   5.981   8.770   1.324
 2188SOL     MW 8752   6.062   8.790   1.300
 2189SOL     OW 8753   5.065   9.232   0.403
 2189SOL    HW1 8754   5.054   9.327   0.402
 2189SOL    HW2 8755   5.093   9.213   0.493
 2189SOL     MW 8756   5.067   9.243   0.415
 2190SOL     OW 8757   2.473   9.806   4.329
 2190SOL    HW1 8758   2.432   9.804   4.243
 2190SOL    HW2 8759   2.428   9.738   4.379
 2190SOL     MW 8760   2.461   9.797   4.324
 2191SOL     OW 8761   7.886   0.031   4.683
 2191SOL    HW1 8762   7.815   0.083   4.720
 2191SOL    HW2 8763   7.932  -0.005   4.760
 2191SOL     MW 8764   7.883   0.033   4.699
 2192SOL     OW 8765   4.649   7.405   2.048
 2192SOL    HW1 8766   4.646   7.311   2.066
 2192SOL    HW2 8767   4.591   7.444   2.113
 2192SOL     MW 8768   4.641   7.397   2.059
 2193SOL     OW 8769   3.608   6.189   6.555
 2193SOL    HW1 8770   3.671   6.251   6.517
 2193SOL    HW2 8771   3.662   6.120   6.593
 2193SOL     MW 8772   3.624   6.188   6.555
 2194SOL     OW 8773   1.949   3.956   2.355
 2194SOL    HW1 8774   2.035   3.915   2.352
 2194SOL    HW2 8775   1.919   3.956   2.264
 2194SOL     MW 8776   1.957   3.951   2.343
 2195SOL     OW 8777   9.946   1.342   8.314
 2195SOL    HW1 8778  10.029   1.366   8.355
 2195SOL    HW2 8779   9.879   1.364   8.379
 2195SOL     MW 8780   9.948   1.348   8.328
 2196SOL     OW 8781   3.707   5.256   2.159
 2196SOL    HW1 8782   3.773   5.201   2.199
 2196SOL    HW2 8783   3.637   5.196   2.133
 2196SOL     MW 8784   3.706   5.241   2.160
 2197SOL     OW 8785   2.628   7.054   1.537
 2197SOL    HW1 8786   2.613   7.054   1.443
 2197SOL    HW2 8787   2.718   7.022   1.547
 2197SOL     MW 8788   2.638   7.050   1.526
 2198SOL     OW 8789   9.064   0.727   3.112
 2198SOL    HW1 8790   9.045   0.721   3.205
 2198SOL    HW2 8791   9.141   0.671   3.100
 2198SOL     MW 8792   9.072   0.719   3.123
 2199SOL     OW 8793   6.111   8.582   7.752
 2199SOL    HW1 8794   6.026   8.541   7.735
 2199SOL    HW2 8795   6.121   8.578   7.847
 2199SOL     MW 8796   6.101   8.576   7.762
 2200SOL     OW 8797   0.526   9.913   6.955
 2200SOL    HW1 8798   0.449   9.956   6.919
 2200SOL    HW2 8799   0.549   9.846   6.891
 2200SOL     MW 8800   0.519   9.910   6.942
 2201SOL     OW 8801   9.709   0.809   7.191
 2201SOL    HW1 8802   9.800   0.780   7.198
 2201SOL    HW2 8803   9.658   0.729   7.196
 2201SOL     MW 8804   9.715   0.794   7.192
 2202SOL     OW 8805   0.134   8.207   4.377
 2202SOL    HW1 8806   0.207   8.244   4.328
 2202SOL    HW2 8807   0.161   8.213   4.468
 2202SOL     MW 8808   0.147   8.213   4.383
 2203SOL     OW 8809   7.960   6.228   6.810
 2203SOL    HW1 8810   7.887   6.283   6.782
 2203SOL    HW2 8811   8.027   6.240   6.743
 2203SOL     MW 8812   7.959   6.237   6.797
 2204SOL     OW 8813   6.032   2.405   3.881
 2204SOL    HW1 8814   6.065   2.454   3.806
 2204SOL    HW2 8815   6.002   2.322   3.845
 2204SOL     MW 8816   6.033   2.401   3.866
 2205SOL     OW 8817   1.455   7.047   4.752
 2205SOL    HW1 8818   1.480   7.139   4.744
 2205SOL    HW2 8819   1.538   7.001   4.768
 2205SOL     MW 8820   1.470   7.053   4.753
 2206SOL     OW 8821   4.441   9.157   7.968
 2206SOL    HW1 8822   4.451   9.206   8.050
 2206SOL    HW2 8823   4.397   9.218   7.909
 2206SOL     MW 8824   4.437   9.172   7.971
 2207SOL     OW 8825   3.756   7.814   8.132
 2207SOL    HW1 8826   3.838   7.832   8.086
 2207SOL    HW2 8827   3.783   7.785   8.219
 2207SOL     MW 8828   3.771   7.813   8.137
 2208SOL     OW 8829   5.627   5.428   5.064
 2208SOL    HW1 8830   5.693   5.392   5.123
 2208SOL    HW2 8831   5.655   5.402   4.976
 2208SOL     MW 8832   5.640   5.420   5.060
 2209SOL     OW 8833   2.182   0.430   0.212
 2209SOL    HW1 8834   2.199   0.398   0.301
 2209SOL    HW2 8835   2.179   0.351   0.158
 2209SOL     MW 8836   2.184   0.415   0.217
 2210SOL     OW 8837   3.572   0.842   8.557
 2210SOL    HW1 8838   3.490   0.887   8.538
 2210SOL    HW2 8839   3.595   0.800   8.474
 2210SOL     MW 8840   3.564   0.842   8.543
 2211SOL     OW 8841   8.872   8.339   9.762
 2211SOL    HW1 8842   8.839   8.290   9.837
 2211SOL    HW2 8843   8.963   8.359   9.784
 2211SOL     MW 8844   8.879   8.335   9.775
 2212SOL     OW 8845   9.563   8.022   4.906
 2212SOL    HW1 8846   9.630   7.982   4.850
 2212SOL    HW2 8847   9.571   8.116   4.889
 2212SOL     MW 8848   9.573   8.030   4.896
 2213SOL     OW 8849   3.332   8.968   5.248
 2213SOL    HW1 8850   3.365   9.043   5.200
 2213SOL    HW2 8851   3.408   8.935   5.296
 2213SOL     MW 8852   3.347   8.973   5.248
 2214SOL     OW 8853   8.756   8.110   9.124
 2214SOL    HW1 8854   8.812   8.142   9.053
 2214SOL    HW2 8855   8.699   8.045   9.082
 2214SOL     MW 8856   8.756   8.105   9.108
 2215SOL     OW 8857   7.974   0.372   5.490
 2215SOL    HW1 8858   7.965   0.449   5.433
 2215SOL    HW2 8859   7.890   0.327   5.482
 2215SOL     MW 8860   7.961   0.376   5.481
 2216SOL     OW 8861   9.069   4.267   4.963
 2216SOL    HW1 8862   9.029   4.235   5.044
 2216SOL    HW2 8863   9.097   4.188   4.917
 2216SOL     MW 8864   9.068   4.252   4.968
 2217SOL     OW 8865   5.498   4.366   9.065
 2217SOL    HW1 8866   5.579   4.319   9.083
 2217SOL    HW2 8867   5.444   4.304   9.016
 2217SOL     MW 8868   5.502   4.351   9.061
 2218SOL     OW 8869   7.975   5.933   1.711
 2218SOL    HW1 8870   7.997   5.901   1.799
 2218SOL    HW2 8871   7.879   5.934   1.710
 2218SOL     MW 8872   7.965   5.929   1.723
 2219SOL     OW 8873   9.007   5.897   9.140
 2219SOL    HW1 8874   9.022   5.944   9.222
 2219SOL    HW2 8875   9.044   5.810   9.155
 2219SOL     MW 8876   9.014   5.892   9.153
 2220SOL     OW 8877   6.193   8.983   2.371
 2220SOL    HW1 8878   6.209   8.953   2.282
 2220SOL    HW2 8879   6.280   9.001   2.407
 2220SOL     MW 8880   6.207   8.981   2.364
 2221SOL     OW 8881  10.024   0.527   3.526
 2221SOL    HW1 8882   9.947   0.502   3.475
 2221SOL    HW2 8883   9.989   0.578   3.599
 2221SOL     MW 8884  10.009   0.530   3.529
 2222SOL     OW 8885   8.813   6.841   5.354
 2222SOL    HW1 8886   8.807   6.843   5.450
 2222SOL    HW2 8887   8.906   6.849   5.336
 2222SOL     MW 8888   8.824   6.842   5.364
 2223SOL     OW 8889   4.926   6.624   9.785
 2223SOL    HW1 8890   5.014   6.593   9.808
 2223SOL    HW2 8891   4.917   6.706   9.835
 2223SOL     MW 8892   4.937   6.631   9.795
 2224SOL     OW 8893   8.972   6.902   9.026
 2224SOL    HW1 8894   9.049   6.906   8.969
 2224SOL    HW2 8895   9.005   6.863   9.107
 2224SOL     MW 8896   8.987   6.897   9.029
 2225SOL     OW 8897   3.105   5.978   3.303
 2225SOL    HW1 8898   3.027   5.965   3.250
 2225SOL    HW2 8899   3.101   5.909   3.369
 2225SOL     MW 8900   3.094   5.967   3.305
 2226SOL     OW 8901   2.065   6.623   8.957
 2226SOL    HW1 8902   2.118   6.594   9.031
 2226SOL    HW2 8903   2.029   6.542   8.919
 2226SOL     MW 8904   2.067   6.608   8.962
 2227SOL     OW 8905   4.732   1.615   9.312
 2227SOL    HW1 8906   4.730   1.535   9.259
 2227SOL    HW2 8907   4.651   1.660   9.290
 2227SOL     MW 8908   4.721   1.611   9.302
 2228SOL     OW 8909   0.633   7.412   6.583
 2228SOL    HW1 8910   0.711   7.443   6.538
 2228SOL    HW2 8911   0.626   7.468   6.660
 2228SOL     MW 8912   0.643   7.423   6.588
 2229SOL     OW 8913   4.710   9.863   2.673
 2229SOL    HW1 8914   4.670   9.779   2.650
 2229SOL    HW2 8915   4.743   9.898   2.590
 2229SOL     MW 8916   4.709   9.857   2.658
 2230SOL     OW 8917   8.206   1.357   9.624
 2230SOL    HW1 8918   8.259   1.437   9.625
 2230SOL    HW2 8919   8.199   1.331   9.716
 2230SOL     MW 8920   8.212   1.364   9.636
 2231SOL     OW 8921   5.351   2.218   0.821
 2231SOL    HW1 8922   5.424   2.156   0.822
 2231SOL    HW2 8923   5.273   2.163   0.814
 2231SOL     MW 8924   5.350   2.202   0.820
 2232SOL     OW 8925   1.964   1.565   0.127
 2232SOL    HW1 8926   1.931   1.519   0.204
 2232SOL    HW2 8927   2.022   1.633   0.162
 2232SOL     MW 8928   1.967   1.568   0.142
 2233SOL     OW 8929   2.230   2.050   4.972
 2233SOL    HW1 8930   2.265   1.962   4.983
 2233SOL    HW2 8931   2.205   2.055   4.880
 2233SOL     MW 8932   2.231   2.039   4.961
 2234SOL     OW 8933   8.152   2.398   3.886
 2234SOL    HW1 8934   8.136   2.304   3.890
 2234SOL    HW2 8935   8.238   2.407   3.847
 2234SOL     MW 8936   8.161   2.387   3.881
 2235SOL     OW 8937   1.660   0.230   8.002
 2235SOL    HW1 8938   1.597   0.264   7.938
 2235SOL    HW2 8939   1.652   0.290   8.076
 2235SOL     MW 8940   1.651   0.243   8.003
 2236SOL     OW 8941   5.791   4.928   9.029
 2236SOL    HW1 8942   5.815   4.898   8.941
 2236SOL    HW2 8943   5.875   4.946   9.071
 2236SOL     MW 8944   5.805   4.926   9.023
 2237SOL     OW 8945   1.678   7.600   3.976
 2237SOL    HW1 8946   1.594   7.603   3.932
 2237SOL    HW2 8947   1.729   7.534   3.928
 2237SOL     MW 8948   1.674   7.592   3.964
 2238SOL     OW 8949   8.110   8.784   5.516
 2238SOL    HW1 8950   8.101   8.842   5.591
 2238SOL    HW2 8951   8.199   8.798   5.485
 2238SOL     MW 8952   8.120   8.794   5.522
 2239SOL     OW 8953   1.440   6.850   2.464
 2239SOL    HW1 8954   1.472   6.922   2.518
 2239SOL    HW2 8955   1.424   6.889   2.379
 2239SOL     MW 8956   1.442   6.865   2.460
 2240SOL     OW 8957   2.807   5.788   4.181
 2240SOL    HW1 8958   2.746   5.783   4.107
 2240SOL    HW2 8959   2.826   5.697   4.203
 2240SOL     MW 8960   2.801   5.775   4.174
 2241SOL     OW 8961   9.786   9.105   3.914
 2241SOL    HW1 8962   9.760   9.020   3.949
 2241SOL    HW2 8963   9.811   9.087   3.824
 2241SOL     MW 8964   9.786   9.091   3.907
 2242SOL     OW 8965   7.460   9.366   3.016
 2242SOL    HW1 8966   7.551   9.336   3.017
 2242SOL    HW2 8967   7.428   9.349   3.104
 2242SOL     MW 8968   7.468   9.360   3.028
 2243SOL     OW 8969   4.739   3.132   1.757
 2243SOL    HW1 8970   4.812   3.113   1.698
 2243SOL    HW2 8971   4.776   3.126   1.845
 2243SOL     MW 8972   4.754   3.128   1.761
 2244SOL     OW 8973   7.786   1.283   2.433
 2244SOL    HW1 8974   7.790   1.285   2.529
 2244SOL    HW2 8975   7.870   1.320   2.405
 2244SOL     MW 8976   7.797   1.288   2.442
 2245SOL     OW 8977  10.160   4.981   6.465
 2245SOL    HW1 8978  10.147   5.045   6.395
 2245SOL    HW2 8979  10.112   5.017   6.540
 2245SOL     MW 8980  10.152   4.994   6.466
 2246SOL     OW 8981   9.006   3.298   9.912
 2246SOL    HW1 8982   9.051   3.254   9.984
 2246SOL    HW2 8983   8.930   3.339   9.953
 2246SOL     MW 8984   9.001   3.298   9.927
 2247SOL     OW 8985   5.445   2.961   4.361
 2247SOL    HW1 8986   5.418   2.876   4.395
 2247SOL    HW2 8987   5.364   3.012   4.358
 2247SOL     MW 8988   5.431   2.956   4.365
 2248SOL     OW 8989   1.859   2.834   3.833
 2248SOL    HW1 8990   1.794   2.833   3.762
 2248SOL    HW2 8991   1.869   2.741   3.857
 2248SOL     MW 8992   1.851   2.821   3.827
 2249SOL     OW 8993   8.588   4.952   0.348
 2249SOL    HW1 8994   8.627   4.885   0.291
 2249SOL    HW2 8995   8.662   5.006   0.377
 2249SOL     MW 8996   8.603   4.950   0.344
 2250SOL     OW 8997   3.128   6.624   9.309
 2250SOL    HW1 8998   3.163   6.696   9.256
 2250SOL    HW2 8999   3.055   6.589   9.258
 2250SOL     MW 9000   3.123   6.629   9.295
 2251SOL     OW 9001   9.832   5.535   8.475
 2251SOL    HW1 9002   9.908   5.591   8.460
 2251SOL    HW2 9003   9.757   5.595   8.471
 2251SOL     MW 9004   9.832   5.551   8.472
 2252SOL     OW 9005   9.843   9.043   3.648
 2252SOL    HW1 9006   9.771   8.983   3.626
 2252SOL    HW2 9007   9.816   9.127   3.609
 2252SOL     MW 9008   9.829   9.046   3.640
 2253SOL     OW 9009   0.976   8.688   5.028
 2253SOL    HW1 9010   0.942   8.776   5.042
 2253SOL    HW2 9011   1.002   8.686   4.935
 2253SOL     MW 9012   0.975   8.699   5.017
 2254SOL     OW 9013   2.744   7.540   1.442
 2254SOL    HW1 9014   2.813   7.504   1.387
 2254SOL    HW2 9015   2.704   7.464   1.484
 2254SOL     MW 9016   2.748   7.525   1.440
 2255SOL     OW 9017   3.975   6.521   9.487
 2255SOL    HW1 9018   4.055   6.548   9.533
 2255SOL    HW2 9019   4.001   6.444   9.437
 2255SOL     MW 9020   3.990   6.514   9.487
 2256SOL     OW 9021   8.659   6.152   5.309
 2256SOL    HW1 9022   8.698   6.225   5.261
 2256SOL    HW2 9023   8.731   6.116   5.360
 2256SOL     MW 9024   8.674   6.157   5.309
 2257SOL     OW 9025   5.579   3.641  10.133
 2257SOL    HW1 9026   5.498   3.653  10.182
 2257SOL    HW2 9027   5.571   3.555  10.093
 2257SOL     MW 9028   5.567   3.631  10.134
 2258SOL     OW 9029   1.550   3.527   7.855
 2258SOL    HW1 9030   1.461   3.506   7.826
 2258SOL    HW2 9031   1.606   3.470   7.803
 2258SOL     MW 9032   1.546   3.517   7.844
 2259SOL     OW 9033   5.197   3.143   1.487
 2259SOL    HW1 9034   5.110   3.124   1.521
 2259SOL    HW2 9035   5.184   3.151   1.392
 2259SOL     MW 9036   5.184   3.141   1.479
 2260SOL     OW 9037   1.399   1.020   8.174
 2260SOL    HW1 9038   1.439   1.073   8.105
 2260SOL    HW2 9039   1.360   0.946   8.127
 2260SOL     MW 9040   1.399   1.017   8.158
 2261SOL     OW 9041   3.143   5.012   5.951
 2261SOL    HW1 9042   3.137   5.100   5.989
 2261SOL    HW2 9043   3.149   5.027   5.857
 2261SOL     MW 9044   3.143   5.026   5.943
 2262SOL     OW 9045   5.608   0.546   3.684
 2262SOL    HW1 9046   5.600   0.525   3.591
 2262SOL    HW2 9047   5.692   0.590   3.691
 2262SOL     MW 9048   5.618   0.549   3.672
 2263SOL     OW 9049   9.044   5.224   3.917
 2263SOL    HW1 9050   9.022   5.147   3.865
 2263SOL    HW2 9051   9.059   5.191   4.005
 2263SOL     MW 9052   9.043   5.209   3.922
 2264SOL     OW 9053   9.852   0.901   8.462
 2264SOL    HW1 9054   9.942   0.923   8.487
 2264SOL    HW2 9055   9.802   0.906   8.543
 2264SOL     MW 9056   9.858   0.904   8.476
 2265SOL     OW 9057   8.519   8.398   0.925
 2265SOL    HW1 9058   8.472   8.407   1.008
 2265SOL    HW2 9059   8.527   8.488   0.892
 2265SOL     MW 9060   8.514   8.412   0.932
 2266SOL     OW 9061   6.367   4.850   6.589
 2266SOL    HW1 9062   6.460   4.866   6.572
 2266SOL    HW2 9063   6.338   4.927   6.636
 2266SOL     MW 9064   6.376   4.862   6.593
 2267SOL     OW 9065   0.464   7.202   6.520
 2267SOL    HW1 9066   0.478   7.144   6.595
 2267SOL    HW2 9067   0.520   7.278   6.537
 2267SOL     MW 9068   0.474   7.204   6.532
 2268SOL     OW 9069   8.529  10.056   4.465
 2268SOL    HW1 9070   8.539  10.090   4.554
 2268SOL    HW2 9071   8.435  10.040   4.456
 2268SOL     MW 9072   8.517  10.058   4.476
 2269SOL     OW 9073   7.486   4.817   8.328
 2269SOL    HW1 9074   7.421   4.878   8.362
 2269SOL    HW2 9075   7.518   4.770   8.405
 2269SOL     MW 9076   7.482   4.819   8.343
 2270SOL     OW 9077   0.906   0.129   3.453
 2270SOL    HW1 9078   0.975   0.068   3.480
 2270SOL    HW2 9079   0.854   0.143   3.532
 2270SOL     MW 9080   0.908   0.123   3.467
 2271SOL     OW 9081   2.543   1.138   8.905
 2271SOL    HW1 9082   2.452   1.165   8.916
 2271SOL    HW2 9083   2.538   1.049   8.869
 2271SOL     MW 9084   2.530   1.130   8.901
 2272SOL     OW 9085   4.973   3.971   3.133
 2272SOL    HW1 9086   4.918   4.012   3.066
 2272SOL    HW2 9087   5.036   3.919   3.084
 2272SOL     MW 9088   4.974   3.970   3.117
 2273SOL     OW 9089   0.278   8.610   9.335
 2273SOL    HW1 9090   0.273   8.514   9.338
 2273SOL    HW2 9091   0.187   8.638   9.324
 2273SOL     MW 9092   0.265   8.601   9.334
 2274SOL     OW 9093   3.634   2.472   8.531
 2274SOL    HW1 9094   3.674   2.446   8.448
 2274SOL    HW2 9095   3.677   2.555   8.554
 2274SOL     MW 9096   3.645   2.480   8.523
 2275SOL     OW 9097   6.736   3.881   8.760
 2275SOL    HW1 9098   6.645   3.909   8.745
 2275SOL    HW2 9099   6.750   3.811   8.696
 2275SOL     MW 9100   6.725   3.875   8.749
 2276SOL     OW 9101   4.861   1.453   0.658
 2276SOL    HW1 9102   4.807   1.421   0.731
 2276SOL    HW2 9103   4.931   1.502   0.700
 2276SOL     MW 9104   4.863   1.455   0.674
 2277SOL     OW 9105   1.413   9.738   6.699
 2277SOL    HW1 9106   1.441   9.792   6.626
 2277SOL    HW2 9107   1.419   9.648   6.666
 2277SOL     MW 9108   1.417   9.733   6.685
 2278SOL     OW 9109   6.458   2.240   2.223
 2278SOL    HW1 9110   6.479   2.202   2.138
 2278SOL    HW2 9111   6.380   2.193   2.252
 2278SOL     MW 9112   6.450   2.228   2.215
 2279SOL     OW 9113   0.981   6.381   0.820
 2279SOL    HW1 9114   0.951   6.437   0.892
 2279SOL    HW2 9115   0.913   6.313   0.814
 2279SOL     MW 9116   0.968   6.379   0.829
 2280SOL     OW 9117   6.778   2.252   5.347
 2280SOL    HW1 9118   6.692   2.217   5.326
 2280SOL    HW2 9119   6.839   2.180   5.329
 2280SOL     MW 9120   6.775   2.238   5.342
 2281SOL     OW 9121   5.155   7.620   0.952
 2281SOL    HW1 9122   5.155   7.689   1.018
 2281SOL    HW2 9123   5.062   7.598   0.941
 2281SOL     MW 9124   5.142   7.626   0.960
 2282SOL     OW 9125   4.785   0.713   6.633
 2282SOL    HW1 9126   4.754   0.626   6.659
 2282SOL    HW2 9127   4.706   0.764   6.620
 2282SOL     MW 9128   4.771   0.708   6.635
 2283SOL     OW 9129   7.771   6.221   8.348
 2283SOL    HW1 9130   7.772   6.287   8.417
 2283SOL    HW2 9131   7.733   6.266   8.273
 2283SOL     MW 9132   7.766   6.236   8.347
 2284SOL     OW 9133   9.492   7.461   0.905
 2284SOL    HW1 9134   9.578   7.425   0.882
 2284SOL    HW2 9135   9.437   7.443   0.828
 2284SOL     MW 9136   9.496   7.453   0.891
 2285SOL     OW 9137   1.926   2.937   5.156
 2285SOL    HW1 9138   1.947   3.001   5.088
 2285SOL    HW2 9139   1.842   2.900   5.129
 2285SOL     MW 9140   1.918   2.941   5.143
 2286SOL     OW 9141   7.146   4.920   2.308
 2286SOL    HW1 9142   7.199   4.895   2.383
 2286SOL    HW2 9143   7.174   5.009   2.288
 2286SOL     MW 9144   7.157   4.929   2.315
 2287SOL     OW 9145   6.130   1.806   1.348
 2287SOL    HW1 9146   6.124   1.718   1.385
 2287SOL    HW2 9147   6.205   1.802   1.289
 2287SOL     MW 9148   6.139   1.793   1.345
 2288SOL     OW 9149   2.078   0.125   6.817
 2288SOL    HW1 9150   2.061   0.116   6.723
 2288SOL    HW2 9151   2.038   0.048   6.857
 2288SOL     MW 9152   2.071   0.113   6.809
 2289SOL     OW 9153   6.419   1.038   0.858
 2289SOL    HW1 9154   6.465   1.106   0.809
 2289SOL    HW2 9155   6.370   1.085   0.925
 2289SOL     MW 9156   6.418   1.053   0.860
 2290SOL     OW 9157   6.669   8.392   3.743
 2290SOL    HW1 9158   6.741   8.398   3.679
 2290SOL    HW2 9159   6.689   8.461   3.806
 2290SOL     MW 9160   6.681   8.402   3.743
 2291SOL     OW 9161   0.315   6.162   8.762
 2291SOL    HW1 9162   0.290   6.192   8.850
 2291SOL    HW2 9163   0.240   6.112   8.732
 2291SOL     MW 9164   0.301   6.160   8.770
 2292SOL     OW 9165   8.648   4.571   7.973
 2292SOL    HW1 9166   8.676   4.527   7.893
 2292SOL    HW2 9167   8.720   4.630   7.995
 2292SOL     MW 9168   8.661   4.573   7.965
 2293SOL     OW 9169   9.281   9.869   2.011
 2293SOL    HW1 9170   9.310   9.793   1.960
 2293SOL    HW2 9171   9.212   9.908   1.958
 2293SOL     MW 9172   9.276   9.864   1.997
 2294SOL     OW 9173   9.640   8.298   1.491
 2294SOL    HW1 9174   9.629   8.315   1.398
 2294SOL    HW2 9175   9.646   8.203   1.498
 2294SOL     MW 9176   9.639   8.287   1.480
 2295SOL     OW 9177   8.613   3.636   2.293
 2295SOL    HW1 9178   8.530   3.670   2.327
 2295SOL    HW2 9179   8.677   3.659   2.361
 2295SOL     MW 9180   8.611   3.644   2.307
 2296SOL     OW 9181   2.011   2.066   5.148
 2296SOL    HW1 9182   2.044   2.101   5.231
 2296SOL    HW2 9183   2.086   2.067   5.089
 2296SOL     MW 9184   2.026   2.071   5.151
 2297SOL     OW 9185   4.853   8.234   5.324
 2297SOL    HW1 9186   4.910   8.303   5.290
 2297SOL    HW2 9187   4.828   8.264   5.411
 2297SOL     MW 9188   4.857   8.248   5.331
 2298SOL     OW 9189   2.604   4.327   4.664
 2298SOL    HW1 9190   2.576   4.239   4.637
 2298SOL    HW2 9191   2.556   4.386   4.606
 2298SOL     MW 9192   2.594   4.323   4.652
 2299SOL     OW 9193   8.350   3.124   8.988
 2299SOL    HW1 9194   8.389   3.161   8.909
 2299SOL    HW2 9195   8.353   3.029   8.975
 2299SOL     MW 9196   8.356   3.116   8.976
 2300SOL     OW 9197   9.571   7.229   1.950
 2300SOL    HW1 9198   9.594   7.318   1.924
 2300SOL    HW2 9199   9.570   7.179   1.868
 2300SOL     MW 9200   9.574   7.234   1.935
 2301SOL     OW 9201   9.107   4.693   5.437
 2301SOL    HW1 9202   9.127   4.695   5.344
 2301SOL    HW2 9203   9.017   4.726   5.443
 2301SOL     MW 9204   9.097   4.698   5.425
 2302SOL     OW 9205   0.915   1.831   1.618
 2302SOL    HW1 9206   0.962   1.858   1.539
 2302SOL    HW2 9207   0.846   1.773   1.586
 2302SOL     MW 9208   0.912   1.827   1.603
 2303SOL     OW 9209   2.755   3.712   7.313
 2303SOL    HW1 9210   2.841   3.670   7.320
 2303SOL    HW2 9211   2.706   3.656   7.253
 2303SOL     MW 9212   2.760   3.699   7.306
 2304SOL     OW 9213   1.279   6.658   8.125
 2304SOL    HW1 9214   1.294   6.586   8.185
 2304SOL    HW2 9215   1.185   6.656   8.107
 2304SOL     MW 9216   1.268   6.648   8.131
 2305SOL     OW 9217   6.237   8.958   0.630
 2305SOL    HW1 9218   6.231   8.877   0.579
 2305SOL    HW2 9219   6.277   8.932   0.713
 2305SOL     MW 9220   6.241   8.944   0.634
 2306SOL     OW 9221   9.577   8.641   5.463
 2306SOL    HW1 9222   9.657   8.593   5.442
 2306SOL    HW2 9223   9.592   8.729   5.428
 2306SOL     MW 9224   9.590   8.647   5.455
 2307SOL     OW 9225   1.464   1.352   4.250
 2307SOL    HW1 9226   1.536   1.290   4.257
 2307SOL    HW2 9227   1.413   1.338   4.330
 2307SOL     MW 9228   1.467   1.342   4.262
 2308SOL     OW 9229   0.917   2.139   9.212
 2308SOL    HW1 9230   0.885   2.108   9.296
 2308SOL    HW2 9231   0.962   2.064   9.174
 2308SOL     MW 9232   0.919   2.125   9.218
 2309SOL     OW 9233   8.467   1.847   7.175
 2309SOL    HW1 9234   8.488   1.885   7.260
 2309SOL    HW2 9235   8.373   1.863   7.164
 2309SOL     MW 9236   8.457   1.854   7.185
 2310SOL     OW 9237   1.323   1.267   5.295
 2310SOL    HW1 9238   1.353   1.357   5.307
 2310SOL    HW2 9239   1.401   1.219   5.269
 2310SOL     MW 9240   1.337   1.272   5.293
 2311SOL     OW 9241   0.382   9.679   2.626
 2311SOL    HW1 9242   0.357   9.680   2.534
 2311SOL    HW2 9243   0.474   9.651   2.625
 2311SOL     MW 9244   0.391   9.675   2.614
 2312SOL     OW 9245   1.111   1.404  10.083
 2312SOL    HW1 9246   1.196   1.417  10.042
 2312SOL    HW2 9247   1.081   1.319  10.052
 2312SOL     MW 9248   1.118   1.394  10.074
 2313SOL     OW 9249   3.326   8.657   5.417
 2313SOL    HW1 9250   3.262   8.693   5.356
 2313SOL    HW2 9251   3.396   8.722   5.420
 2313SOL     MW 9252   3.327   8.670   5.410
 2314SOL     OW 9253   2.306   6.679   5.701
 2314SOL    HW1 9254   2.245   6.606   5.695
 2314SOL    HW2 9255   2.319   6.692   5.795
 2314SOL     MW 9256   2.300   6.671   5.713
 2315SOL     OW 9257   6.346   5.867   5.941
 2315SOL    HW1 9258   6.407   5.844   5.871
 2315SOL    HW2 9259   6.373   5.812   6.015
 2315SOL     MW 9260   6.358   5.856   5.941
 2316SOL     OW 9261   8.467   1.633   2.446
 2316SOL    HW1 9262   8.490   1.659   2.535
 2316SOL    HW2 9263   8.503   1.701   2.390
 2316SOL     MW 9264   8.475   1.645   2.451
 2317SOL     OW 9265   4.221   6.604   5.920
 2317SOL    HW1 9266   4.171   6.640   5.846
 2317SOL    HW2 9267   4.312   6.624   5.899
 2317SOL     MW 9268   4.226   6.611   5.907
 2318SOL     OW 9269   0.520   3.513   4.321
 2318SOL    HW1 9270   0.475   3.597   4.330
 2318SOL    HW2 9271   0.590   3.530   4.258
 2318SOL     MW 9272   0.524   3.527   4.314
 2319SOL     OW 9273   7.538   2.248   7.712
 2319SOL    HW1 9274   7.490   2.271   7.632
 2319SOL    HW2 9275   7.472   2.213   7.771
 2319SOL     MW 9276   7.523   2.247   7.709
 2320SOL     OW 9277   8.081   7.444  10.129
 2320SOL    HW1 9278   8.134   7.522  10.146
 2320SOL    HW2 9279   8.143   7.379  10.095
 2320SOL     MW 9280   8.097   7.445  10.127
 2321SOL     OW 9281   4.802   6.778   7.770
 2321SOL    HW1 9282   4.879   6.797   7.822
 2321SOL    HW2 9283   4.734   6.755   7.834
 2321SOL     MW 9284   4.803   6.777   7.785
 2322SOL     OW 9285   3.786   8.465   8.824
 2322SOL    HW1 9286   3.786   8.524   8.900
 2322SOL    HW2 9287   3.861   8.408   8.839
 2322SOL     MW 9288   3.796   8.466   8.837
 2323SOL     OW 9289   5.945   6.515   5.403
 2323SOL    HW1 9290   5.961   6.444   5.466
 2323SOL    HW2 9291   6.017   6.577   5.419
 2323SOL     MW 9292   5.957   6.514   5.414
 2324SOL     OW 9293   2.993   0.808   1.693
 2324SOL    HW1 9294   2.964   0.881   1.747
 2324SOL    HW2 9295   3.054   0.847   1.630
 2324SOL     MW 9296   2.997   0.823   1.692
 2325SOL     OW 9297   1.083   0.797   9.858
 2325SOL    HW1 9298   1.089   0.834   9.947
 2325SOL    HW2 9299   1.166   0.752   9.846
 2325SOL     MW 9300   1.095   0.796   9.869
 2326SOL     OW 9301   9.654   4.049   7.015
 2326SOL    HW1 9302   9.696   4.025   6.932
 2326SOL    HW2 9303   9.572   4.090   6.988
 2326SOL     MW 9304   9.649   4.051   7.000
 2327SOL     OW 9305   9.321   0.642   0.238
 2327SOL    HW1 9306   9.323   0.666   0.145
 2327SOL    HW2 9307   9.340   0.548   0.238
 2327SOL     MW 9308   9.324   0.632   0.225
 2328SOL     OW 9309   0.712   9.645   7.657
 2328SOL    HW1 9310   0.740   9.696   7.581
 2328SOL    HW2 9311   0.708   9.555   7.625
 2328SOL     MW 9312   0.715   9.640   7.643
 2329SOL     OW 9313   5.750   1.534   9.418
 2329SOL    HW1 9314   5.671   1.534   9.365
 2329SOL    HW2 9315   5.722   1.567   9.503
 2329SOL     MW 9316   5.736   1.538   9.422
 2330SOL     OW 9317   2.793   1.859   8.346
 2330SOL    HW1 9318   2.800   1.764   8.355
 2330SOL    HW2 9319   2.822   1.893   8.431
 2330SOL     MW 9320   2.798   1.851   8.359
 2331SOL     OW 9321   1.001   5.741   0.709
 2331SOL    HW1 9322   0.986   5.827   0.747
 2331SOL    HW2 9323   1.038   5.689   0.781
 2331SOL     MW 9324   1.004   5.746   0.724
 2332SOL     OW 9325   1.687   0.160   0.401
 2332SOL    HW1 9326   1.598   0.136   0.425
 2332SOL    HW2 9327   1.685   0.255   0.392
 2332SOL     MW 9328   1.675   0.169   0.403
 2333SOL     OW 9329   2.577   0.875   8.825
 2333SOL    HW1 9330   2.636   0.896   8.753
 2333SOL    HW2 9331   2.633   0.873   8.903
 2333SOL     MW 9332   2.592   0.877   8.826
 2334SOL     OW 9333   3.708   3.616   3.587
 2334SOL    HW1 9334   3.702   3.707   3.616
 2334SOL    HW2 9335   3.681   3.618   3.495
 2334SOL     MW 9336   3.703   3.628   3.579
 2335SOL     OW 9337   5.764   9.217   3.117
 2335SOL    HW1 9338   5.685   9.260   3.149
 2335SOL    HW2 9339   5.731   9.140   3.071
 2335SOL     MW 9340   5.749   9.212   3.115
 2336SOL     OW 9341   5.832   7.126   2.501
 2336SOL    HW1 9342   5.805   7.131   2.410
 2336SOL    HW2 9343   5.763   7.077   2.544
 2336SOL     MW 9344   5.819   7.120   2.495
 2337SOL     OW 9345   4.156   6.151   7.909
 2337SOL    HW1 9346   4.232   6.206   7.886
 2337SOL    HW2 9347   4.195   6.071   7.944
 2337SOL     MW 9348   4.172   6.148   7.911
 2338SOL     OW 9349   4.625   0.347   1.221
 2338SOL    HW1 9350   4.659   0.394   1.297
 2338SOL    HW2 9351   4.679   0.378   1.148
 2338SOL     MW 9352   4.637   0.358   1.221
 2339SOL     OW 9353   0.683   6.537   9.960
 2339SOL    HW1 9354   0.641   6.532   9.874
 2339SOL    HW2 9355   0.721   6.450   9.973
 2339SOL     MW 9356   0.683   6.525   9.950
 2340SOL     OW 9357   3.827   6.714   7.480
 2340SOL    HW1 9358   3.807   6.807   7.495
 2340SOL    HW2 9359   3.871   6.713   7.395
 2340SOL     MW 9360   3.830   6.726   7.471
 2341SOL     OW 9361   9.041   1.765   0.549
 2341SOL    HW1 9362   9.082   1.711   0.482
 2341SOL    HW2 9363   9.077   1.732   0.632
 2341SOL     MW 9364   9.051   1.753   0.551
 2342SOL     OW 9365   5.850  10.107   2.227
 2342SOL    HW1 9366   5.891  10.051   2.161
 2342SOL    HW2 9367   5.847  10.194   2.186
 2342SOL     MW 9368   5.855  10.111   2.213
 2343SOL     OW 9369   7.062   0.749   3.616
 2343SOL    HW1 9370   7.136   0.689   3.616
 2343SOL    HW2 9371   6.997   0.707   3.558
 2343SOL     MW 9372   7.063   0.735   3.608
 2344SOL     OW 9373   3.844   1.291   4.383
 2344SOL    HW1 9374   3.780   1.345   4.335
 2344SOL    HW2 9375   3.832   1.203   4.348
 2344SOL     MW 9376   3.834   1.287   4.372
 2345SOL     OW 9377   0.844   9.720   5.761
 2345SOL    HW1 9378   0.820   9.810   5.739
 2345SOL    HW2 9379   0.776   9.666   5.720
 2345SOL     MW 9380   0.832   9.725   5.752
 2346SOL     OW 9381   0.652   1.185   9.043
 2346SOL    HW1 9382   0.715   1.142   8.985
 2346SOL    HW2 9383   0.693   1.182   9.129
 2346SOL     MW 9384   0.666   1.179   9.047
 2347SOL     OW 9385   6.858   5.498  10.043
 2347SOL    HW1 9386   6.863   5.410  10.005
 2347SOL    HW2 9387   6.766   5.523  10.032
 2347SOL     MW 9388   6.846   5.489  10.036
 2348SOL     OW 9389   7.539   4.396   7.140
 2348SOL    HW1 9390   7.515   4.325   7.199
 2348SOL    HW2 9391   7.532   4.358   7.053
 2348SOL     MW 9392   7.535   4.381   7.136
 2349SOL     OW 9393   6.886   3.205   7.683
 2349SOL    HW1 9394   6.948   3.157   7.628
 2349SOL    HW2 9395   6.888   3.295   7.648
 2349SOL     MW 9396   6.895   3.211   7.671
 2350SOL     OW 9397   2.624   5.856   7.900
 2350SOL    HW1 9398   2.714   5.863   7.868
 2350SOL    HW2 9399   2.604   5.763   7.894
 2350SOL     MW 9400   2.634   5.845   7.895
 2351SOL     OW 9401   0.074   6.618   5.894
 2351SOL    HW1 9402   0.062   6.625   5.799
 2351SOL    HW2 9403   0.124   6.537   5.906
 2351SOL     MW 9404   0.079   6.608   5.883
 2352SOL     OW 9405   5.735   3.419   5.615
 2352SOL    HW1 9406   5.794   3.454   5.682
 2352SOL    HW2 9407   5.733   3.325   5.632
 2352SOL     MW 9408   5.743   3.411   5.627
 2353SOL     OW 9409   3.950   7.201   4.980
 2353SOL    HW1 9410   3.871   7.208   4.927
 2353SOL    HW2 9411   3.951   7.280   5.034
 2353SOL     MW 9412   3.940   7.212   4.980
 2354SOL     OW 9413   1.968   8.107   7.116
 2354SOL    HW1 9414   1.882   8.073   7.139
 2354SOL    HW2 9415   2.016   8.031   7.084
 2354SOL     MW 9416   1.963   8.092   7.115
 2355SOL     OW 9417   2.133   4.285   9.037
 2355SOL    HW1 9418   2.148   4.378   9.050
 2355SOL    HW2 9419   2.046   4.269   9.076
 2355SOL     MW 9420   2.123   4.295   9.044
 2356SOL     OW 9421   1.972   5.536   6.962
 2356SOL    HW1 9422   1.967   5.462   6.902
 2356SOL    HW2 9423   1.895   5.589   6.942
 2356SOL     MW 9424   1.961   5.533   6.952
 2357SOL     OW 9425   7.898  10.113   2.685
 2357SOL    HW1 9426   7.834  10.087   2.752
 2357SOL    HW2 9427   7.948  10.183   2.726
 2357SOL     MW 9428   7.896  10.119   2.700
 2358SOL     OW 9429   4.636   5.653   8.524
 2358SOL    HW1 9430   4.672   5.565   8.534
 2358SOL    HW2 9431   4.553   5.651   8.571
 2358SOL     MW 9432   4.630   5.641   8.532
 2359SOL     OW 9433   5.169   6.155   3.696
 2359SOL    HW1 9434   5.250   6.105   3.687
 2359SOL    HW2 9435   5.105   6.105   3.646
 2359SOL     MW 9436   5.171   6.141   3.688
 2360SOL     OW 9437   2.665   4.870   1.107
 2360SOL    HW1 9438   2.619   4.792   1.074
 2360SOL    HW2 9439   2.746   4.835   1.145
 2360SOL     MW 9440   2.669   4.854   1.107
 2361SOL     OW 9441   9.043   8.045   6.807
 2361SOL    HW1 9442   9.094   8.096   6.744
 2361SOL    HW2 9443   9.013   7.969   6.758
 2361SOL     MW 9444   9.046   8.041   6.792
 2362SOL     OW 9445   6.343   2.714   8.492
 2362SOL    HW1 9446   6.252   2.685   8.490
 2362SOL    HW2 9447   6.347   2.776   8.564
 2362SOL     MW 9448   6.331   2.718   8.501
 2363SOL     OW 9449   5.829   0.193   2.088
 2363SOL    HW1 9450   5.839   0.288   2.097
 2363SOL    HW2 9451   5.749   0.183   2.036
 2363SOL     MW 9452   5.820   0.205   2.082
 2364SOL     OW 9453   7.012   2.844   0.411
 2364SOL    HW1 9454   6.971   2.804   0.334
 2364SOL    HW2 9455   6.963   2.808   0.485
 2364SOL     MW 9456   7.000   2.834   0.410
 2365SOL     OW 9457   1.490   1.076   9.930
 2365SOL    HW1 9458   1.573   1.122   9.937
 2365SOL    HW2 9459   1.470   1.075   9.836
 2365SOL     MW 9460   1.498   1.082   9.918
 2366SOL     OW 9461   3.135   6.255   2.919
 2366SOL    HW1 9462   3.150   6.265   2.825
 2366SOL    HW2 9463   3.223   6.238   2.955
 2366SOL     MW 9464   3.149   6.254   2.912
 2367SOL     OW 9465   3.320   7.313   8.824
 2367SOL    HW1 9466   3.345   7.384   8.884
 2367SOL    HW2 9467   3.323   7.234   8.878
 2367SOL     MW 9468   3.324   7.312   8.839
 2368SOL     OW 9469   5.991   4.131   6.533
 2368SOL    HW1 9470   5.984   4.035   6.531
 2368SOL    HW2 9471   5.913   4.161   6.487
 2368SOL     MW 9472   5.979   4.122   6.526
 2369SOL     OW 9473   9.525   7.009   5.412
 2369SOL    HW1 9474   9.536   7.006   5.317
 2369SOL    HW2 9475   9.586   6.943   5.446
 2369SOL     MW 9476   9.534   6.999   5.404
 2370SOL     OW 9477   0.282   6.321   6.609
 2370SOL    HW1 9478   0.371   6.337   6.641
 2370SOL    HW2 9479   0.280   6.228   6.588
 2370SOL     MW 9480   0.294   6.310   6.611
 2371SOL     OW 9481   6.481   3.995   8.790
 2371SOL    HW1 9482   6.396   3.973   8.826
 2371SOL    HW2 9483   6.531   4.027   8.865
 2371SOL     MW 9484   6.476   3.997   8.805
 2372SOL     OW 9485   4.486   1.439   3.126
 2372SOL    HW1 9486   4.454   1.476   3.043
 2372SOL    HW2 9487   4.581   1.445   3.121
 2372SOL     MW 9488   4.494   1.445   3.114
 2373SOL     OW 9489   8.990   4.629   4.238
 2373SOL    HW1 9490   8.917   4.604   4.295
 2373SOL    HW2 9491   8.970   4.588   4.154
 2373SOL     MW 9492   8.978   4.620   4.235
 2374SOL     OW 9493   4.890   3.923   4.108
 2374SOL    HW1 9494   4.889   3.866   4.185
 2374SOL    HW2 9495   4.876   3.863   4.035
 2374SOL     MW 9496   4.888   3.907   4.109
 2375SOL     OW 9497   0.583   0.579   7.217
 2375SOL    HW1 9498   0.637   0.568   7.295
 2375SOL    HW2 9499   0.579   0.673   7.203
 2375SOL     MW 9500   0.590   0.590   7.225
 2376SOL     OW 9501   8.264   4.200   3.085
 2376SOL    HW1 9502   8.223   4.142   3.022
 2376SOL    HW2 9503   8.358   4.189   3.070
 2376SOL     MW 9504   8.271   4.191   3.075
 2377SOL     OW 9505   1.071   2.763   3.287
 2377SOL    HW1 9506   1.133   2.836   3.296
 2377SOL    HW2 9507   1.042   2.767   3.196
 2377SOL     MW 9508   1.075   2.773   3.276
 2378SOL     OW 9509   4.021   0.702   4.011
 2378SOL    HW1 9510   4.089   0.726   3.948
 2378SOL    HW2 9511   4.065   0.644   4.073
 2378SOL     MW 9512   4.036   0.697   4.011
 2379SOL     OW 9513   4.345   3.313   9.102
 2379SOL    HW1 9514   4.369   3.351   9.017
 2379SOL    HW2 9515   4.250   3.325   9.106
 2379SOL     MW 9516   4.335   3.320   9.091
 2380SOL     OW 9517   7.899   1.823   9.494
 2380SOL    HW1 9518   7.873   1.740   9.535
 2380SOL    HW2 9519   7.818   1.856   9.454
 2380SOL     MW 9520   7.884   1.816   9.494
 2381SOL     OW 9521   4.669   0.468   6.695
 2381SOL    HW1 9522   4.625   0.412   6.632
 2381SOL    HW2 9523   4.682   0.412   6.772
 2381SOL     MW 9524   4.665   0.453   6.697
 2382SOL     OW 9525   4.267   0.804   0.552
 2382SOL    HW1 9526   4.183   0.824   0.512
 2382SOL    HW2 9527   4.332   0.825   0.485
 2382SOL     MW 9528   4.265   0.809   0.538
 2383SOL     OW 9529   1.569   5.151   6.936
 2383SOL    HW1 9530   1.541   5.230   6.888
 2383SOL    HW2 9531   1.539   5.166   7.025
 2383SOL     MW 9532   1.561   5.164   6.941
 2384SOL     OW 9533   2.147   7.911   3.659
 2384SOL    HW1 9534   2.096   7.907   3.579
 2384SOL    HW2 9535   2.231   7.948   3.633
 2384SOL     MW 9536   2.152   7.915   3.645
 2385SOL     OW 9537   2.895   4.774   1.236
 2385SOL    HW1 9538   2.960   4.844   1.235
 2385SOL    HW2 9539   2.944   4.695   1.212
 2385SOL     MW 9540   2.910   4.772   1.232
 2386SOL     OW 9541   4.658   9.626   1.614
 2386SOL    HW1 9542   4.583   9.608   1.671
 2386SOL    HW2 9543   4.734   9.599   1.666
 2386SOL     MW 9544   4.658   9.620   1.629
 2387SOL     OW 9545   6.899   3.461   7.572
 2387SOL    HW1 9546   6.829   3.525   7.583
 2387SOL    HW2 9547   6.955   3.498   7.504
 2387SOL     MW 9548   6.897   3.474   7.564
 2388SOL     OW 9549   3.900   9.661   5.255
 2388SOL    HW1 9550   3.893   9.661   5.350
 2388SOL    HW2 9551   3.922   9.752   5.233
 2388SOL     MW 9552   3.902   9.674   5.264
 2389SOL     OW 9553   8.712   3.172   2.162
 2389SOL    HW1 9554   8.640   3.156   2.100
 2389SOL    HW2 9555   8.790   3.138   2.118
 2389SOL     MW 9556   8.712   3.166   2.148
 2390SOL     OW 9557   6.152   3.414   8.341
 2390SOL    HW1 9558   6.078   3.414   8.403
 2390SOL    HW2 9559   6.198   3.332   8.358
 2390SOL     MW 9560   6.148   3.403   8.352
 2391SOL     OW 9561   2.036   1.322   8.865
 2391SOL    HW1 9562   2.049   1.408   8.826
 2391SOL    HW2 9563   2.124   1.290   8.883
 2391SOL     MW 9564   2.049   1.329   8.862
 2392SOL     OW 9565   6.787   1.040   4.772
 2392SOL    HW1 9566   6.794   0.968   4.835
 2392SOL    HW2 9567   6.865   1.093   4.787
 2392SOL     MW 9568   6.798   1.037   4.782
 2393SOL     OW 9569   4.053   0.256   0.331
 2393SOL    HW1 9570   4.107   0.288   0.404
 2393SOL    HW2 9571   4.022   0.336   0.288
 2393SOL     MW 9572   4.056   0.271   0.335
 2394SOL     OW 9573   6.587   9.982   5.348
 2394SOL    HW1 9574   6.564   9.953   5.260
 2394SOL    HW2 9575   6.671   9.939   5.367
 2394SOL     MW 9576   6.595   9.973   5.339
 2395SOL     OW 9577   8.250   7.244  10.023
 2395SOL    HW1 9578   8.220   7.158  10.052
 2395SOL    HW2 9579   8.346   7.240  10.030
 2395SOL     MW 9580   8.259   7.232  10.028
 2396SOL     OW 9581   4.873   1.708   9.529
 2396SOL    HW1 9582   4.831   1.655   9.597
 2396SOL    HW2 9583   4.834   1.676   9.448
 2396SOL     MW 9584   4.862   1.696   9.527
 2397SOL     OW 9585   2.357   2.123   7.989
 2397SOL    HW1 9586   2.388   2.053   8.046
 2397SOL    HW2 9587   2.426   2.189   7.992
 2397SOL     MW 9588   2.370   2.123   7.997
 2398SOL     OW 9589   2.907   7.874   1.227
 2398SOL    HW1 9590   2.844   7.834   1.287
 2398SOL    HW2 9591   2.860   7.881   1.144
 2398SOL     MW 9592   2.892   7.870   1.224
 2399SOL     OW 9593   6.599   5.572   9.989
 2399SOL    HW1 9594   6.526   5.621  10.027
 2399SOL    HW2 9595   6.611   5.611   9.902
 2399SOL     MW 9596   6.591   5.584   9.982
 2400SOL     OW 9597   5.560   2.286   3.676
 2400SOL    HW1 9598   5.484   2.261   3.623
 2400SOL    HW2 9599   5.532   2.366   3.722
 2400SOL     MW 9600   5.546   2.294   3.675
 2401SOL     OW 9601   5.328   1.754   2.916
 2401SOL    HW1 9602   5.382   1.754   2.995
 2401SOL    HW2 9603   5.385   1.722   2.847
 2401SOL     MW 9604   5.343   1.750   2.917
 2402SOL     OW 9605   0.189   6.335   8.582
 2402SOL    HW1 9606   0.246   6.296   8.649
 2402SOL    HW2 9607   0.250   6.369   8.516
 2402SOL     MW 9608   0.205   6.335   8.582
 2403SOL     OW 9609   5.418   3.793   7.366
 2403SOL    HW1 9610   5.436   3.870   7.312
 2403SOL    HW2 9611   5.419   3.826   7.456
 2403SOL     MW 9612   5.421   3.808   7.371
 2404SOL     OW 9613   4.462   9.282   8.220
 2404SOL    HW1 9614   4.392   9.302   8.283
 2404SOL    HW2 9615   4.525   9.353   8.230
 2404SOL     MW 9616   4.461   9.294   8.230
 2405SOL     OW 9617   7.915   4.466   0.629
 2405SOL    HW1 9618   7.884   4.509   0.550
 2405SOL    HW2 9619   7.961   4.534   0.677
 2405SOL     MW 9620   7.917   4.481   0.625
 2406SOL     OW 9621   9.761   4.951   7.250
 2406SOL    HW1 9622   9.711   4.971   7.329
 2406SOL    HW2 9623   9.852   4.971   7.274
 2406SOL     MW 9624   9.767   4.956   7.264
 2407SOL     OW 9625   8.337   9.038   6.662
 2407SOL    HW1 9626   8.417   8.986   6.674
 2407SOL    HW2 9627   8.316   9.070   6.750
 2407SOL     MW 9628   8.345   9.035   6.675
 2408SOL     OW 9629   9.238   8.111   8.281
 2408SOL    HW1 9630   9.225   8.194   8.236
 2408SOL    HW2 9631   9.290   8.133   8.359
 2408SOL     MW 9632   9.244   8.125   8.286
 2409SOL     OW 9633   8.068   2.001   5.114
 2409SOL    HW1 9634   8.122   1.939   5.066
 2409SOL    HW2 9635   7.978   1.972   5.099
 2409SOL     MW 9636   8.063   1.989   5.105
 2410SOL     OW 9637   0.086   6.134   0.685
 2410SOL    HW1 9638   0.098   6.150   0.592
 2410SOL    HW2 9639  -0.002   6.166   0.704
 2410SOL     MW 9640   0.076   6.141   0.675
 2411SOL     OW 9641   8.819   8.224   9.370
 2411SOL    HW1 9642   8.881   8.291   9.340
 2411SOL    HW2 9643   8.790   8.180   9.290
 2411SOL     MW 9644   8.824   8.227   9.355
 2412SOL     OW 9645   9.822   4.691   9.465
 2412SOL    HW1 9646   9.830   4.706   9.559
 2412SOL    HW2 9647   9.830   4.778   9.425
 2412SOL     MW 9648   9.824   4.705   9.472
 2413SOL     OW 9649   2.946   9.374   6.102
 2413SOL    HW1 9650   2.989   9.300   6.059
 2413SOL    HW2 9651   2.985   9.376   6.190
 2413SOL     MW 9652   2.957   9.364   6.108
 2414SOL     OW 9653   7.839   6.153   3.716
 2414SOL    HW1 9654   7.751   6.186   3.734
 2414SOL    HW2 9655   7.884   6.157   3.800
 2414SOL     MW 9656   7.833   6.158   3.730
 2415SOL     OW 9657   5.933   9.945   9.995
 2415SOL    HW1 9658   5.902   9.892  10.068
 2415SOL    HW2 9659   5.969  10.024  10.036
 2415SOL     MW 9660   5.934   9.949  10.010
 2416SOL     OW 9661   8.086   4.099   1.630
 2416SOL    HW1 9662   8.083   4.127   1.722
 2416SOL    HW2 9663   8.179   4.107   1.607
 2416SOL     MW 9664   8.098   4.104   1.639
 2417SOL     OW 9665   2.775   1.614   5.664
 2417SOL    HW1 9666   2.780   1.559   5.742
 2417SOL    HW2 9667   2.698   1.582   5.617
 2417SOL     MW 9668   2.765   1.603   5.668
 2418SOL     OW 9669   3.889   7.023   7.367
 2418SOL    HW1 9670   3.924   7.099   7.414
 2418SOL    HW2 9671   3.867   7.057   7.280
 2418SOL     MW 9672   3.890   7.038   7.362
 2419SOL     OW 9673   2.772   9.922   4.923
 2419SOL    HW1 9674   2.769   9.849   4.986
 2419SOL    HW2 9675   2.864   9.946   4.919
 2419SOL     MW 9676   2.784   9.916   4.931
 2420SOL     OW 9677   5.401  10.160   2.074
 2420SOL    HW1 9678   5.465  10.120   2.132
 2420SOL    HW2 9679   5.382  10.092   2.009
 2420SOL     MW 9680   5.407  10.145   2.073
 2421SOL     OW 9681   4.280   8.745   7.178
 2421SOL    HW1 9682   4.258   8.786   7.261
 2421SOL    HW2 9683   4.228   8.665   7.176
 2421SOL     MW 9684   4.270   8.740   7.189
 2422SOL     OW 9685   0.607   1.354   5.069
 2422SOL    HW1 9686   0.559   1.274   5.048
 2422SOL    HW2 9687   0.691   1.324   5.101
 2422SOL     MW 9688   0.612   1.339   5.070
 2423SOL     OW 9689   2.396   1.901   0.644
 2423SOL    HW1 9690   2.427   1.956   0.573
 2423SOL    HW2 9691   2.320   1.855   0.608
 2423SOL     MW 9692   2.390   1.902   0.630
 2424SOL     OW 9693   4.249   0.611   4.571
 2424SOL    HW1 9694   4.226   0.571   4.655
 2424SOL    HW2 9695   4.336   0.647   4.585
 2424SOL     MW 9696   4.257   0.610   4.584
 2425SOL     OW 9697   4.166   2.969   9.574
 2425SOL    HW1 9698   4.092   3.021   9.543
 2425SOL    HW2 9699   4.131   2.880   9.582
 2425SOL     MW 9700   4.152   2.964   9.571
 2426SOL     OW 9701   0.197   3.026   7.656
 2426SOL    HW1 9702   0.139   3.030   7.580
 2426SOL    HW2 9703   0.236   3.113   7.660
 2426SOL     MW 9704   0.194   3.038   7.646
 2427SOL     OW 9705   0.770   5.420   1.315
 2427SOL    HW1 9706   0.680   5.432   1.345
 2427SOL    HW2 9707   0.793   5.502   1.272
 2427SOL     MW 9708   0.761   5.432   1.313
 2428SOL     OW 9709   2.463   2.993   4.917
 2428SOL    HW1 9710   2.519   3.060   4.957
 2428SOL    HW2 9711   2.446   2.931   4.987
 2428SOL     MW 9712   2.468   2.994   4.932
 2429SOL     OW 9713   2.312   2.802   0.075
 2429SOL    HW1 9714   2.343   2.778   0.162
 2429SOL    HW2 9715   2.263   2.883   0.088
 2429SOL     MW 9716   2.310   2.809   0.089
 2430SOL     OW 9717   0.699   9.077   4.443
 2430SOL    HW1 9718   0.661   8.990   4.429
 2430SOL    HW2 9719   0.649   9.135   4.385
 2430SOL     MW 9720   0.687   9.073   4.433
 2431SOL     OW 9721   5.915   2.949   5.758
 2431SOL    HW1 9722   6.008   2.970   5.768
 2431SOL    HW2 9723   5.912   2.854   5.756
 2431SOL     MW 9724   5.927   2.939   5.759
 2432SOL     OW 9725   6.988   3.775   3.820
 2432SOL    HW1 9726   6.919   3.830   3.858
 2432SOL    HW2 9727   6.944   3.692   3.800
 2432SOL     MW 9728   6.973   3.771   3.823
 2433SOL     OW 9729   9.904   7.338  10.031
 2433SOL    HW1 9730   9.811   7.360  10.037
 2433SOL    HW2 9731   9.947   7.397  10.092
 2433SOL     MW 9732   9.898   7.349  10.040
 2434SOL     OW 9733   5.547   4.693   8.434
 2434SOL    HW1 9734   5.588   4.678   8.519
 2434SOL    HW2 9735   5.520   4.605   8.405
 2434SOL     MW 9736   5.549   4.679   8.442
 2435SOL     OW 9737   7.328   0.518   7.340
 2435SOL    HW1 9738   7.326   0.471   7.257
 2435SOL    HW2 9739   7.421   0.528   7.360
 2435SOL     MW 9740   7.340   0.513   7.332
 2436SOL     OW 9741   1.722   1.181   6.080
 2436SOL    HW1 9742   1.817   1.182   6.071
 2436SOL    HW2 9743   1.696   1.092   6.055
 2436SOL     MW 9744   1.731   1.169   6.075
 2437SOL     OW 9745   8.667   0.318   3.245
 2437SOL    HW1 9746   8.722   0.256   3.198
 2437SOL    HW2 9747   8.650   0.388   3.182
 2437SOL     MW 9748   8.672   0.319   3.230
 2438SOL     OW 9749   4.959   2.102   4.612
 2438SOL    HW1 9750   4.870   2.110   4.577
 2438SOL    HW2 9751   4.970   2.009   4.629
 2438SOL     MW 9752   4.948   2.091   4.609
 2439SOL     OW 9753   2.833   5.245   4.108
 2439SOL    HW1 9754   2.766   5.290   4.158
 2439SOL    HW2 9755   2.899   5.312   4.090
 2439SOL     MW 9756   2.833   5.260   4.112
 2440SOL     OW 9757   8.576   1.702   7.567
 2440SOL    HW1 9758   8.568   1.688   7.662
 2440SOL    HW2 9759   8.660   1.663   7.544
 2440SOL     MW 9760   8.586   1.695   7.577
 2441SOL     OW 9761   4.605   2.901   8.438
 2441SOL    HW1 9762   4.543   2.874   8.370
 2441SOL    HW2 9763   4.624   2.993   8.418
 2441SOL     MW 9764   4.599   2.910   8.426
 2442SOL     OW 9765   5.914   4.749   4.958
 2442SOL    HW1 9766   5.854   4.726   5.028
 2442SOL    HW2 9767   5.892   4.689   4.886
 2442SOL     MW 9768   5.903   4.738   4.958
 2443SOL     OW 9769   1.446   9.059   2.907
 2443SOL    HW1 9770   1.356   9.088   2.893
 2443SOL    HW2 9771   1.442   9.006   2.987
 2443SOL     MW 9772   1.434   9.055   2.916
 2444SOL     OW 9773   2.395   7.780   4.411
 2444SOL    HW1 9774   2.322   7.805   4.354
 2444SOL    HW2 9775   2.365   7.702   4.456
 2444SOL     MW 9776   2.381   7.773   4.409
 2445SOL     OW 9777   0.705   3.236   3.689
 2445SOL    HW1 9778   0.614   3.263   3.699
 2445SOL    HW2 9779   0.701   3.145   3.662
 2445SOL     MW 9780   0.693   3.228   3.686
 2446SOL     OW 9781   2.784   9.685   5.068
 2446SOL    HW1 9782   2.771   9.626   4.994
 2446SOL    HW2 9783   2.740   9.642   5.142
 2446SOL     MW 9784   2.777   9.671   5.068
 2447SOL     OW 9785   4.673  10.018   5.015
 2447SOL    HW1 9786   4.757   9.983   5.046
 2447SOL    HW2 9787   4.666   9.985   4.925
 2447SOL     MW 9788   4.683  10.009   5.007
 2448SOL     OW 9789   9.403   7.675   5.192
 2448SOL    HW1 9790   9.351   7.644   5.118
 2448SOL    HW2 9791   9.343   7.672   5.267
 2448SOL     MW 9792   9.388   7.670   5.192
 2449SOL     OW 9793   4.361   8.907   8.064
 2449SOL    HW1 9794   4.396   8.981   8.015
 2449SOL    HW2 9795   4.364   8.935   8.155
 2449SOL     MW 9796   4.366   8.920   8.070
 2450SOL     OW 9797   2.013   3.930   0.731
 2450SOL    HW1 9798   1.950   3.934   0.660
 2450SOL    HW2 9799   1.967   3.884   0.802
 2450SOL     MW 9800   1.998   3.925   0.731
 2451SOL     OW 9801   0.377   2.304   8.537
 2451SOL    HW1 9802   0.377   2.377   8.598
 2451SOL    HW2 9803   0.293   2.260   8.551
 2451SOL     MW 9804   0.366   2.308   8.547
 2452SOL     OW 9805   4.467   8.173   8.069
 2452SOL    HW1 9806   4.527   8.163   8.142
 2452SOL    HW2 9807   4.523   8.194   7.994
 2452SOL     MW 9808   4.482   8.175   8.069
 2453SOL     OW 9809   9.192   7.819   5.617
 2453SOL    HW1 9810   9.231   7.901   5.586
 2453SOL    HW2 9811   9.226   7.753   5.557
 2453SOL     MW 9812   9.202   7.821   5.605
 2454SOL     OW 9813   9.744   4.443   9.343
 2454SOL    HW1 9814   9.699   4.400   9.416
 2454SOL    HW2 9815   9.756   4.533   9.372
 2454SOL     MW 9816   9.740   4.449   9.357
 2455SOL     OW 9817   4.262   3.488   6.159
 2455SOL    HW1 9818   4.356   3.470   6.163
 2455SOL    HW2 9819   4.256   3.580   6.134
 2455SOL     MW 9820   4.274   3.498   6.156
 2456SOL     OW 9821   4.439   6.533   8.878
 2456SOL    HW1 9822   4.519   6.482   8.863
 2456SOL    HW2 9823   4.442   6.554   8.971
 2456SOL     MW 9824   4.450   6.529   8.888
 2457SOL     OW 9825   2.574   9.454   5.517
 2457SOL    HW1 9826   2.530   9.371   5.536
 2457SOL    HW2 9827   2.589   9.493   5.603
 2457SOL     MW 9828   2.570   9.448   5.531
 2458SOL     OW 9829   4.242   2.055   2.298
 2458SOL    HW1 9830   4.308   2.094   2.355
 2458SOL    HW2 9831   4.286   1.979   2.258
 2458SOL     MW 9832   4.257   2.050   2.300
 2459SOL     OW 9833   4.111   4.359   3.085
 2459SOL    HW1 9834   4.117   4.454   3.080
 2459SOL    HW2 9835   4.202   4.329   3.076
 2459SOL     MW 9836   4.124   4.368   3.083
 2460SOL     OW 9837   0.083   4.777   4.479
 2460SOL    HW1 9838   0.143   4.704   4.465
 2460SOL    HW2 9839  -0.004   4.741   4.461
 2460SOL     MW 9840   0.080   4.763   4.475
 2461SOL     OW 9841   8.216   4.448   6.850
 2461SOL    HW1 9842   8.280   4.400   6.799
 2461SOL    HW2 9843   8.196   4.526   6.797
 2461SOL     MW 9844   8.222   4.452   6.836
 2462SOL     OW 9845   2.392   1.844   7.561
 2462SOL    HW1 9846   2.446   1.882   7.492
 2462SOL    HW2 9847   2.385   1.914   7.627
 2462SOL     MW 9848   2.398   1.859   7.561
 2463SOL     OW 9849   3.864   9.749   9.404
 2463SOL    HW1 9850   3.826   9.779   9.486
 2463SOL    HW2 9851   3.859   9.825   9.346
 2463SOL     MW 9852   3.858   9.764   9.407
 2464SOL     OW 9853   1.970   1.817   8.802
 2464SOL    HW1 9854   1.995   1.900   8.760
 2464SOL    HW2 9855   1.884   1.835   8.840
 2464SOL     MW 9856   1.962   1.831   8.801
 2465SOL     OW 9857   6.515   1.492   8.129
 2465SOL    HW1 9858   6.590   1.485   8.070
 2465SOL    HW2 9859   6.489   1.401   8.145
 2465SOL     MW 9860   6.522   1.479   8.124
 2466SOL     OW 9861   0.284   5.597   5.801
 2466SOL    HW1 9862   0.227   5.643   5.739
 2466SOL    HW2 9863   0.229   5.583   5.878
 2466SOL     MW 9864   0.269   5.602   5.803
 2467SOL     OW 9865   3.244   8.657   0.882
 2467SOL    HW1 9866   3.155   8.655   0.918
 2467SOL    HW2 9867   3.282   8.572   0.906
 2467SOL     MW 9868   3.237   8.645   0.890
 2468SOL     OW 9869   0.958   5.791   8.635
 2468SOL    HW1 9870   1.007   5.742   8.701
 2468SOL    HW2 9871   0.983   5.750   8.552
 2468SOL     MW 9872   0.968   5.779   8.632
 2469SOL     OW 9873   7.892   0.526   4.960
 2469SOL    HW1 9874   7.966   0.469   4.942
 2469SOL    HW2 9875   7.897   0.594   4.893
 2469SOL     MW 9876   7.902   0.527   4.948
 2470SOL     OW 9877   2.817   4.543   1.609
 2470SOL    HW1 9878   2.847   4.456   1.634
 2470SOL    HW2 9879   2.734   4.528   1.564
 2470SOL     MW 9880   2.810   4.529   1.606
 2471SOL     OW 9881   2.810   3.209   0.425
 2471SOL    HW1 9882   2.831   3.171   0.340
 2471SOL    HW2 9883   2.762   3.289   0.405
 2471SOL     MW 9884   2.807   3.215   0.411
 2472SOL     OW 9885   5.982   0.633   4.861
 2472SOL    HW1 9886   6.036   0.554   4.863
 2472SOL    HW2 9887   5.962   0.645   4.768
 2472SOL     MW 9888   5.987   0.624   4.849
 2473SOL     OW 9889   6.729   5.412   8.943
 2473SOL    HW1 9890   6.821   5.423   8.920
 2473SOL    HW2 9891   6.705   5.326   8.907
 2473SOL     MW 9892   6.738   5.402   8.935
 2474SOL     OW 9893   1.124   5.011   4.225
 2474SOL    HW1 9894   1.118   4.941   4.290
 2474SOL    HW2 9895   1.217   5.031   4.219
 2474SOL     MW 9896   1.136   5.004   4.233
 2475SOL     OW 9897   7.066   8.988   1.436
 2475SOL    HW1 9898   7.133   8.951   1.493
 2475SOL    HW2 9899   7.004   9.031   1.497
 2475SOL     MW 9900   7.066   8.989   1.452
 2476SOL     OW 9901   4.729   4.519   5.201
 2476SOL    HW1 9902   4.718   4.522   5.106
 2476SOL    HW2 9903   4.726   4.610   5.229
 2476SOL     MW 9904   4.727   4.531   5.192
 2477SOL     OW 9905   3.791   9.521   2.099
 2477SOL    HW1 9906   3.862   9.480   2.149
 2477SOL    HW2 9907   3.751   9.449   2.051
 2477SOL     MW 9908   3.795   9.506   2.100
 2478SOL     OW 9909   5.516   0.504   0.988
 2478SOL    HW1 9910   5.508   0.461   0.903
 2478SOL    HW2 9911   5.510   0.432   1.051
 2478SOL     MW 9912   5.514   0.488   0.985
 2479SOL     OW 9913   9.884   2.751   4.638
 2479SOL    HW1 9914   9.854   2.835   4.602
 2479SOL    HW2 9915   9.950   2.721   4.575
 2479SOL     MW 9916   9.889   2.758   4.625
 2480SOL     OW 9917   5.106   7.211   3.397
 2480SOL    HW1 9918   5.198   7.222   3.420
 2480SOL    HW2 9919   5.093   7.116   3.394
 2480SOL     MW 9920   5.117   7.200   3.399
 2481SOL     OW 9921   9.991   6.241   0.739
 2481SOL    HW1 9922   9.908   6.209   0.776
 2481SOL    HW2 9923  10.006   6.324   0.784
 2481SOL     MW 9924   9.982   6.248   0.750
 2482SOL     OW 9925   2.354   1.885   0.213
 2482SOL    HW1 9926   2.371   1.961   0.269
 2482SOL    HW2 9927   2.430   1.828   0.226
 2482SOL     MW 9928   2.367   1.887   0.223
 2483SOL     OW 9929   7.757   5.339   8.542
 2483SOL    HW1 9930   7.730   5.386   8.463
 2483SOL    HW2 9931   7.728   5.249   8.528
 2483SOL     MW 9932   7.750   5.333   8.530
 2484SOL     OW 9933   4.130   8.042   0.902
 2484SOL    HW1 9934   4.057   8.086   0.859
 2484SOL    HW2 9935   4.131   8.078   0.991
 2484SOL     MW 9936   4.120   8.053   0.908
 2485SOL     OW 9937   0.295   1.780   4.168
 2485SOL    HW1 9938   0.351   1.772   4.245
 2485SOL    HW2 9939   0.356   1.797   4.096
 2485SOL     MW 9940   0.311   1.781   4.168
 2486SOL     OW 9941   0.631   0.689   4.323
 2486SOL    HW1 9942   0.674   0.626   4.264
 2486SOL    HW2 9943   0.621   0.768   4.271
 2486SOL     MW 9944   0.636   0.691   4.308
 2487SOL     OW 9945   5.410   4.745   4.356
 2487SOL    HW1 9946   5.402   4.650   4.367
 2487SOL    HW2 9947   5.500   4.765   4.383
 2487SOL     MW 9948   5.421   4.735   4.361
 2488SOL     OW 9949   5.982   4.111   3.762
 2488SOL    HW1 9950   5.891   4.088   3.741
 2488SOL    HW2 9951   5.980   4.134   3.855
 2488SOL     MW 9952   5.970   4.111   3.772
 2489SOL     OW 9953   0.054   7.868   7.933
 2489SOL    HW1 9954   0.027   7.952   7.971
 2489SOL    HW2 9955   0.139   7.885   7.894
 2489SOL     MW 9956   0.062   7.882   7.933
 2490SOL     OW 9957   1.008   6.620   8.080
 2490SOL    HW1 9958   0.970   6.596   7.995
 2490SOL    HW2 9959   1.008   6.537   8.129
 2490SOL     MW 9960   1.003   6.605   8.075
 2491SOL     OW 9961   6.559   8.537   1.332
 2491SOL    HW1 9962   6.471   8.566   1.306
 2491SOL    HW2 9963   6.618   8.600   1.290
 2491SOL     MW 9964   6.555   8.549   1.323
 2492SOL     OW 9965   0.650   6.352   3.798
 2492SOL    HW1 9966   0.734   6.392   3.777
 2492SOL    HW2 9967   0.667   6.300   3.877
 2492SOL     MW 9968   0.663   6.350   3.805
 2493SOL     OW 9969   1.774   8.588   9.886
 2493SOL    HW1 9970   1.773   8.653   9.816
 2493SOL    HW2 9971   1.866   8.563   9.895
 2493SOL     MW 9972   1.786   8.593   9.878
 2494SOL     OW 9973   6.401   4.497  10.069
 2494SOL    HW1 9974   6.444   4.552  10.134
 2494SOL    HW2 9975   6.309   4.495  10.095
 2494SOL     MW 9976   6.394   4.504  10.081
 2495SOL     OW 9977   9.962   2.950   7.325
 2495SOL    HW1 9978   9.887   2.910   7.369
 2495SOL    HW2 9979   9.927   2.981   7.241
 2495SOL     MW 9980   9.947   2.949   7.320
 2496SOL     OW 9981   9.085   1.384   8.891
 2496SOL    HW1 9982   8.995   1.355   8.875
 2496SOL    HW2 9983   9.123   1.391   8.804
 2496SOL     MW 9984   9.078   1.381   8.877
 2497SOL     OW 9985   7.053   2.783   0.006
 2497SOL    HW1 9986   6.976   2.784   0.062
 2497SOL    HW2 9987   7.060   2.692  -0.023
 2497SOL     MW 9988   7.043   2.771   0.009
 2498SOL     OW 9989   5.571   4.116   0.940
 2498SOL    HW1 9990   5.507   4.051   0.969
 2498SOL    HW2 9991   5.632   4.124   1.014
 2498SOL     MW 9992   5.571   4.108   0.954
 2499SOL     OW 9993   4.235   3.813   9.602
 2499SOL    HW1 9994   4.266   3.761   9.528
 2499SOL    HW2 9995   4.171   3.873   9.564
 2499SOL     MW 9996   4.231   3.814   9.587
 2500SOL     OW 9997   0.095   8.314   2.279
 2500SOL    HW1 9998   0.025   8.370   2.247
 2500SOL    HW2 9999   0.158   8.310   2.207
 2500SOL     MW10000   0.094   8.321   2.265
 2501SOL     OW10001   1.471  -0.009   6.423
 2501SOL    HW110002   1.471   0.060   6.489
 2501SOL    HW210003   1.500   0.034   6.343
 2501SOL     MW10004   1.475   0.006   6.421
 2502SOL     OW10005   8.970   0.730   7.896
 2502SOL    HW110006   8.979   0.667   7.825
 2502SOL    HW210007   9.007   0.812   7.861
 2502SOL     MW10008   8.976   0.733   7.882
 2503SOL     OW10009   4.333   0.069   2.734
 2503SOL    HW110010   4.272   0.004   2.699
 2503SOL    HW210011   4.321   0.146   2.679
 2503SOL     MW10012   4.323   0.070   2.722
 2504SOL     OW10013   1.903   8.755   3.113
 2504SOL    HW110014   1.940   8.672   3.083
 2504SOL    HW210015   1.815   8.733   3.143
 2504SOL     MW10016   1.896   8.741   3.113
 2505SOL     OW10017   4.051   8.339   0.420
 2505SOL    HW110018   4.130   8.340   0.473
 2505SOL    HW210019   4.029   8.431   0.406
 2505SOL     MW10020   4.058   8.351   0.425
 2506SOL     OW10021   4.351   3.852   8.577
 2506SOL    HW110022   4.367   3.900   8.659
 2506SOL    HW210023   4.417   3.884   8.517
 2506SOL     MW10024   4.362   3.863   8.580
 2507SOL     OW10025   4.415   8.667   4.381
 2507SOL    HW110026   4.387   8.577   4.396
 2507SOL    HW210027   4.506   8.668   4.411
 2507SOL     MW10028   4.424   8.655   4.387
 2508SOL     OW10029   2.686   5.338   4.338
 2508SOL    HW110030   2.596   5.330   4.367
 2508SOL    HW210031   2.727   5.255   4.362
 2508SOL     MW10032   2.680   5.326   4.345
 2509SOL     OW10033   1.035   5.944   5.684
 2509SOL    HW110034   1.083   5.862   5.670
 2509SOL    HW210035   0.944   5.916   5.698
 2509SOL     MW10036   1.029   5.929   5.684
 2510SOL     OW10037   2.210   4.569   4.042
 2510SOL    HW110038   2.148   4.503   4.011
 2510SOL    HW210039   2.172   4.653   4.014
 2510SOL     MW10040   2.196   4.572   4.034
 2511SOL     OW10041   4.724   4.501   1.156
 2511SOL    HW110042   4.733   4.455   1.240
 2511SOL    HW210043   4.688   4.587   1.179
 2511SOL     MW10044   4.720   4.507   1.170
 2512SOL     OW10045   0.032   0.389  10.170
 2512SOL    HW110046   0.037   0.427  10.083
 2512SOL    HW210047   0.104   0.326  10.173
 2512SOL     MW10048   0.042   0.385  10.159
 2513SOL     OW10049   4.976   7.310   4.401
 2513SOL    HW110050   4.895   7.274   4.366
 2513SOL    HW210051   5.037   7.308   4.327
 2513SOL     MW10052   4.973   7.305   4.386
 2514SOL     OW10053   3.621   1.832   1.311
 2514SOL    HW110054   3.688   1.769   1.337
 2514SOL    HW210055   3.668   1.894   1.255
 2514SOL     MW10056   3.636   1.832   1.307
 2515SOL     OW10057   2.789  10.133   9.150
 2515SOL    HW110058   2.760  10.042   9.137
 2515SOL    HW210059   2.825  10.158   9.065
 2515SOL     MW10060   2.790  10.124   9.137
 2516SOL     OW10061   1.827   8.260   8.406
 2516SOL    HW110062   1.905   8.266   8.350
 2516SOL    HW210063   1.787   8.347   8.401
 2516SOL     MW10064   1.832   8.273   8.398
 2517SOL     OW10065   4.674   2.182   5.679
 2517SOL    HW110066   4.751   2.228   5.710
 2517SOL    HW210067   4.709   2.104   5.635
 2517SOL     MW10068   4.689   2.177   5.677
 2518SOL     OW10069   5.329   3.818   2.790
 2518SOL    HW110070   5.284   3.850   2.869
 2518SOL    HW210071   5.422   3.821   2.813
 2518SOL     MW10072   5.335   3.823   2.804
 2519SOL     OW10073   4.281   9.030   8.893
 2519SOL    HW110074   4.214   9.010   8.958
 2519SOL    HW210075   4.363   9.032   8.943
 2519SOL     MW10076   4.283   9.028   8.909
 2520SOL     OW10077   9.530   9.988   1.969
 2520SOL    HW110078   9.519  10.073   1.926
 2520SOL    HW210079   9.441   9.960   1.990
 2520SOL     MW10080   9.517   9.996   1.966
 2521SOL     OW10081   9.087   2.331   1.975
 2521SOL    HW110082   9.077   2.254   2.031
 2521SOL    HW210083   9.164   2.376   2.010
 2521SOL     MW10084   9.096   2.326   1.987
 2522SOL     OW10085   0.712   7.438   8.585
 2522SOL    HW110086   0.734   7.469   8.672
 2522SOL    HW210087   0.637   7.492   8.559
 2522SOL     MW10088   0.705   7.450   8.593
 2523SOL     OW10089   5.430   8.471   6.732
 2523SOL    HW110090   5.366   8.421   6.684
 2523SOL    HW210091   5.494   8.498   6.667
 2523SOL     MW10092   5.430   8.468   6.717
 2524SOL     OW10093   6.286   4.322   2.740
 2524SOL    HW110094   6.311   4.266   2.814
 2524SOL    HW210095   6.263   4.406   2.779
 2524SOL     MW10096   6.286   4.326   2.755
 2525SOL     OW10097   3.470   9.567   6.385
 2525SOL    HW110098   3.445   9.642   6.331
 2525SOL    HW210099   3.459   9.598   6.475
 2525SOL     MW10100   3.465   9.581   6.390
 2526SOL     OW10101   8.093   7.212   6.879
 2526SOL    HW110102   8.072   7.179   6.791
 2526SOL    HW210103   8.181   7.180   6.896
 2526SOL     MW10104   8.102   7.203   6.869
 2527SOL     OW10105   9.207   6.906   8.877
 2527SOL    HW110106   9.285   6.886   8.928
 2527SOL    HW210107   9.240   6.931   8.791
 2527SOL     MW10108   9.222   6.907   8.872
 2528SOL     OW10109   3.869   3.968   4.279
 2528SOL    HW110110   3.807   3.977   4.352
 2528SOL    HW210111   3.931   3.902   4.310
 2528SOL     MW10112   3.869   3.960   4.293
 2529SOL     OW10113   6.223   7.082   7.831
 2529SOL    HW110114   6.195   7.010   7.888
 2529SOL    HW210115   6.277   7.137   7.887
 2529SOL     MW10116   6.226   7.080   7.846
 2530SOL     OW10117   5.565   6.583   8.623
 2530SOL    HW110118   5.490   6.634   8.652
 2530SOL    HW210119   5.546   6.493   8.652
 2530SOL     MW10120   5.553   6.578   8.631
 2531SOL     OW10121   1.538   1.991   4.032
 2531SOL    HW110122   1.595   2.016   4.104
 2531SOL    HW210123   1.563   1.900   4.012
 2531SOL     MW10124   1.549   1.982   4.039
 2532SOL     OW10125   3.487   6.815   9.066
 2532SOL    HW110126   3.543   6.861   9.004
 2532SOL    HW210127   3.536   6.818   9.149
 2532SOL     MW10128   3.501   6.822   9.069
 2533SOL     OW10129   5.006   2.116   6.717
 2533SOL    HW110130   5.058   2.146   6.792
 2533SOL    HW210131   5.070   2.077   6.658
 2533SOL     MW10132   5.021   2.115   6.719
 2534SOL     OW10133   4.049   1.649   5.545
 2534SOL    HW110134   3.967   1.650   5.495
 2534SOL    HW210135   4.060   1.740   5.574
 2534SOL     MW10136   4.039   1.661   5.542
 2535SOL     OW10137   1.252   9.941   4.645
 2535SOL    HW110138   1.311  10.009   4.676
 2535SOL    HW210139   1.197   9.984   4.580
 2535SOL     MW10140   1.252   9.956   4.641
 2536SOL     OW10141   7.145   4.489   9.844
 2536SOL    HW110142   7.199   4.566   9.864
 2536SOL    HW210143   7.188   4.417   9.890
 2536SOL     MW10144   7.158   4.490   9.853
 2537SOL     OW10145   4.903   1.069   4.391
 2537SOL    HW110146   4.916   1.036   4.302
 2537SOL    HW210147   4.986   1.110   4.414
 2537SOL     MW10148   4.916   1.070   4.382
 2538SOL     OW10149   8.515   9.551   2.385
 2538SOL    HW110150   8.512   9.619   2.318
 2538SOL    HW210151   8.425   9.519   2.391
 2538SOL     MW10152   8.503   9.556   2.376
 2539SOL     OW10153   9.400   5.280   7.822
 2539SOL    HW110154   9.437   5.358   7.863
 2539SOL    HW210155   9.366   5.311   7.738
 2539SOL     MW10156   9.401   5.295   7.816
 2540SOL     OW10157   3.430   2.059   4.415
 2540SOL    HW110158   3.480   2.116   4.472
 2540SOL    HW210159   3.480   2.055   4.334
 2540SOL     MW10160   3.443   2.066   4.412
 2541SOL     OW10161   0.329   4.302   5.328
 2541SOL    HW110162   0.328   4.304   5.424
 2541SOL    HW210163   0.249   4.346   5.302
 2541SOL     MW10164   0.318   4.308   5.337
 2542SOL     OW10165   6.361   8.791   0.820
 2542SOL    HW110166   6.342   8.740   0.742
 2542SOL    HW210167   6.296   8.762   0.884
 2542SOL     MW10168   6.350   8.780   0.818
 2543SOL     OW10169   0.753   5.112   3.142
 2543SOL    HW110170   0.759   5.136   3.050
 2543SOL    HW210171   0.827   5.053   3.156
 2543SOL     MW10172   0.763   5.107   3.131
 2544SOL     OW10173   2.669   6.312   5.676
 2544SOL    HW110174   2.588   6.358   5.654
 2544SOL    HW210175   2.680   6.327   5.770
 2544SOL     MW10176   2.660   6.320   5.686
 2545SOL     OW10177   2.581   3.376   4.797
 2545SOL    HW110178   2.525   3.453   4.795
 2545SOL    HW210179   2.530   3.308   4.752
 2545SOL     MW10180   2.567   3.377   4.791
 2546SOL     OW10181   7.817   3.471   6.325
 2546SOL    HW110182   7.903   3.469   6.283
 2546SOL    HW210183   7.836   3.463   6.418
 2546SOL     MW10184   7.831   3.470   6.332
 2547SOL     OW10185   3.241   7.156   5.736
 2547SOL    HW110186   3.200   7.103   5.804
 2547SOL    HW210187   3.284   7.092   5.679
 2547SOL     MW10188   3.242   7.140   5.737
 2548SOL     OW10189   8.773   3.588   2.530
 2548SOL    HW110190   8.764   3.506   2.482
 2548SOL    HW210191   8.857   3.580   2.575
 2548SOL     MW10192   8.783   3.576   2.529
 2549SOL     OW10193   7.452   3.396   6.018
 2549SOL    HW110194   7.415   3.469   5.967
 2549SOL    HW210195   7.398   3.321   5.994
 2549SOL     MW10196   7.440   3.396   6.008
 2550SOL     OW10197   9.567   8.066   0.221
 2550SOL    HW110198   9.525   7.993   0.177
 2550SOL    HW210199   9.646   8.027   0.261
 2550SOL     MW10200   9.572   8.051   0.221
 2551SOL     OW10201   4.238   9.947   0.446
 2551SOL    HW110202   4.166   9.883   0.445
 2551SOL    HW210203   4.212  10.012   0.381
 2551SOL     MW10204   4.224   9.947   0.437
 2552SOL     OW10205   3.699   1.078   1.905
 2552SOL    HW110206   3.610   1.046   1.890
 2552SOL    HW210207   3.740   1.011   1.959
 2552SOL     MW10208   3.692   1.065   1.910
 2553SOL     OW10209   0.401   0.966   8.623
 2553SOL    HW110210   0.417   0.872   8.625
 2553SOL    HW210211   0.332   0.977   8.557
 2553SOL     MW10212   0.394   0.955   8.615
 2554SOL     OW10213   5.795   8.763   5.137
 2554SOL    HW110214   5.794   8.803   5.224
 2554SOL    HW210215   5.709   8.724   5.127
 2554SOL     MW10216   5.784   8.763   5.147
 2555SOL     OW10217   3.137   8.633   8.994
 2555SOL    HW110218   3.202   8.648   9.063
 2555SOL    HW210219   3.111   8.541   9.005
 2555SOL     MW10220   3.142   8.623   9.005
 2556SOL     OW10221   1.538   7.399   4.460
 2556SOL    HW110222   1.522   7.324   4.402
 2556SOL    HW210223   1.598   7.455   4.410
 2556SOL     MW10224   1.544   7.397   4.445
 2557SOL     OW10225   3.931   7.963   2.951
 2557SOL    HW110226   3.944   7.886   3.006
 2557SOL    HW210227   3.888   8.027   3.009
 2557SOL     MW10228   3.927   7.961   2.966
 2558SOL     OW10229   3.627   1.202   5.558
 2558SOL    HW110230   3.633   1.237   5.469
 2558SOL    HW210231   3.716   1.169   5.577
 2558SOL     MW10232   3.640   1.202   5.549
 2559SOL     OW10233   1.037   9.324   2.447
 2559SOL    HW110234   1.107   9.323   2.512
 2559SOL    HW210235   1.075   9.369   2.372
 2559SOL     MW10236   1.051   9.330   2.446
 2560SOL     OW10237   2.702   7.860   1.043
 2560SOL    HW110238   2.717   7.787   0.983
 2560SOL    HW210239   2.669   7.820   1.123
 2560SOL     MW10240   2.700   7.845   1.045
 2561SOL     OW10241   3.012   8.840   0.563
 2561SOL    HW110242   3.100   8.834   0.599
 2561SOL    HW210243   3.026   8.850   0.469
 2561SOL     MW10244   3.026   8.840   0.555
 2562SOL     OW10245   9.490   7.418   8.862
 2562SOL    HW110246   9.397   7.430   8.844
 2562SOL    HW210247   9.522   7.506   8.882
 2562SOL     MW10248   9.482   7.431   8.862
 2563SOL     OW10249   7.633   7.544   9.875
 2563SOL    HW110250   7.582   7.624   9.889
 2563SOL    HW210251   7.710   7.554   9.932
 2563SOL     MW10252   7.636   7.557   9.885
 2564SOL     OW10253   1.530   6.597   4.024
 2564SOL    HW110254   1.435   6.584   4.025
 2564SOL    HW210255   1.550   6.615   3.932
 2564SOL     MW10256   1.520   6.598   4.011
 2565SOL     OW10257   7.272   0.568   3.655
 2565SOL    HW110258   7.362   0.601   3.645
 2565SOL    HW210259   7.271   0.486   3.607
 2565SOL     MW10260   7.284   0.562   3.647
 2566SOL     OW10261   4.933   7.683   6.503
 2566SOL    HW110262   5.008   7.740   6.515
 2566SOL    HW210263   4.944   7.614   6.568
 2566SOL     MW10264   4.944   7.682   6.513
 2567SOL     OW10265   6.927   6.757   1.598
 2567SOL    HW110266   6.940   6.662   1.600
 2567SOL    HW210267   7.002   6.793   1.644
 2567SOL     MW10268   6.939   6.749   1.604
 2568SOL     OW10269   8.533   8.809   5.214
 2568SOL    HW110270   8.539   8.718   5.185
 2568SOL    HW210271   8.610   8.821   5.269
 2568SOL     MW10272   8.544   8.799   5.217
 2569SOL     OW10273   2.444   1.750   1.071
 2569SOL    HW110274   2.380   1.683   1.095
 2569SOL    HW210275   2.459   1.799   1.152
 2569SOL     MW10276   2.437   1.748   1.085
 2570SOL     OW10277   7.113   8.683   1.779
 2570SOL    HW110278   7.065   8.601   1.767
 2570SOL    HW210279   7.095   8.709   1.869
 2570SOL     MW10280   7.104   8.675   1.789
 2571SOL     OW10281  10.153   6.994   0.180
 2571SOL    HW110282  10.131   7.063   0.117
 2571SOL    HW210283  10.077   6.937   0.181
 2571SOL     MW10284  10.140   6.996   0.172
 2572SOL     OW10285   7.108   3.308   9.272
 2572SOL    HW110286   7.037   3.280   9.329
 2572SOL    HW210287   7.171   3.350   9.330
 2572SOL     MW10288   7.107   3.310   9.287
 2573SOL     OW10289   0.141   2.491   3.407
 2573SOL    HW110290   0.070   2.513   3.466
 2573SOL    HW210291   0.188   2.419   3.451
 2573SOL     MW10292   0.138   2.484   3.421
 2574SOL     OW10293   6.110   9.355   5.828
 2574SOL    HW110294   6.023   9.392   5.843
 2574SOL    HW210295   6.108   9.271   5.874
 2574SOL     MW10296   6.098   9.348   5.836
 2575SOL     OW10297   2.023   7.072   1.135
 2575SOL    HW110298   2.041   7.087   1.228
 2575SOL    HW210299   1.978   7.151   1.106
 2575SOL     MW10300   2.020   7.085   1.144
 2576SOL     OW10301   6.287   1.148   1.075
 2576SOL    HW110302   6.295   1.075   1.136
 2576SOL    HW210303   6.218   1.203   1.112
 2576SOL     MW10304   6.279   1.145   1.088
 2577SOL     OW10305   6.418   8.093   6.175
 2577SOL    HW110306   6.505   8.134   6.167
 2577SOL    HW210307   6.390   8.114   6.264
 2577SOL     MW10308   6.426   8.102   6.186
 2578SOL     OW10309   3.347   1.868   8.790
 2578SOL    HW110310   3.254   1.853   8.777
 2578SOL    HW210311   3.370   1.813   8.865
 2578SOL     MW10312   3.338   1.858   8.798
 2579SOL     OW10313   9.040   6.444   9.771
 2579SOL    HW110314   9.103   6.468   9.838
 2579SOL    HW210315   9.013   6.355   9.793
 2579SOL     MW10316   9.045   6.435   9.783
 2580SOL     OW10317   8.187   1.787   4.981
 2580SOL    HW110318   8.217   1.755   4.896
 2580SOL    HW210319   8.119   1.726   5.007
 2580SOL     MW10320   8.182   1.775   4.973
 2581SOL     OW10321   7.172   7.399   3.040
 2581SOL    HW110322   7.163   7.484   3.084
 2581SOL    HW210323   7.264   7.393   3.016
 2581SOL     MW10324   7.183   7.410   3.043
 2582SOL     OW10325   5.232   1.786   0.810
 2582SOL    HW110326   5.312   1.789   0.862
 2582SOL    HW210327   5.199   1.875   0.812
 2582SOL     MW10328   5.238   1.798   0.817
 2583SOL     OW10329   3.639   2.112   2.325
 2583SOL    HW110330   3.706   2.179   2.312
 2583SOL    HW210331   3.672   2.036   2.276
 2583SOL     MW10332   3.653   2.111   2.317
 2584SOL     OW10333   7.227   2.697   4.570
 2584SOL    HW110334   7.215   2.660   4.483
 2584SOL    HW210335   7.322   2.691   4.586
 2584SOL     MW10336   7.238   2.691   4.561
 2585SOL     OW10337   1.867   0.968   7.318
 2585SOL    HW110338   1.902   1.022   7.390
 2585SOL    HW210339   1.921   0.889   7.320
 2585SOL     MW10340   1.879   0.965   7.328
 2586SOL     OW10341   7.087   1.220   8.346
 2586SOL    HW110342   7.160   1.253   8.295
 2586SOL    HW210343   7.070   1.288   8.411
 2586SOL     MW10344   7.094   1.234   8.348
 2587SOL     OW10345   5.382   5.686   7.925
 2587SOL    HW110346   5.451   5.750   7.946
 2587SOL    HW210347   5.379   5.629   8.002
 2587SOL     MW10348   5.391   5.687   7.938
 2588SOL     OW10349   7.938   8.089   5.218
 2588SOL    HW110350   7.856   8.127   5.250
 2588SOL    HW210351   7.981   8.161   5.173
 2588SOL     MW10352   7.933   8.104   5.216
 2589SOL     OW10353   7.432   8.339   0.464
 2589SOL    HW110354   7.509   8.386   0.493
 2589SOL    HW210355   7.439   8.253   0.507
 2589SOL     MW10356   7.443   8.334   0.474
 2590SOL     OW10357   7.557   6.340   9.431
 2590SOL    HW110358   7.548   6.244   9.429
 2590SOL    HW210359   7.589   6.363   9.343
 2590SOL     MW10360   7.560   6.330   9.419
 2591SOL     OW10361   0.350   0.784   1.476
 2591SOL    HW110362   0.366   0.773   1.570
 2591SOL    HW210363   0.309   0.870   1.468
 2591SOL     MW10364   0.347   0.794   1.488
 2592SOL     OW10365   4.094   3.354   6.335
 2592SOL    HW110366   4.018   3.328   6.282
 2592SOL    HW210367   4.151   3.400   6.275
 2592SOL     MW10368   4.091   3.357   6.320
 2593SOL     OW10369   7.595   3.664   5.655
 2593SOL    HW110370   7.652   3.644   5.729
 2593SOL    HW210371   7.507   3.658   5.690
 2593SOL     MW10372   7.591   3.661   5.669
 2594SOL     OW10373   6.289   5.628   3.653
 2594SOL    HW110374   6.268   5.581   3.734
 2594SOL    HW210375   6.382   5.609   3.639
 2594SOL     MW10376   6.299   5.619   3.662
 2595SOL     OW10377   1.104   7.441   6.436
 2595SOL    HW110378   1.086   7.348   6.420
 2595SOL    HW210379   1.199   7.445   6.446
 2595SOL     MW10380   1.115   7.429   6.435
 2596SOL     OW10381   6.598   9.474   2.191
 2596SOL    HW110382   6.510   9.438   2.189
 2596SOL    HW210383   6.620   9.490   2.099
 2596SOL     MW10384   6.589   9.472   2.178
 2597SOL     OW10385   6.083   4.439   7.003
 2597SOL    HW110386   6.071   4.362   6.948
 2597SOL    HW210387   6.012   4.499   6.977
 2597SOL     MW10388   6.072   4.437   6.992
 2598SOL     OW10389   9.540   5.920   6.194
 2598SOL    HW110390   9.511   5.892   6.107
 2598SOL    HW210391   9.460   5.940   6.242
 2598SOL     MW10392   9.526   5.919   6.189
 2599SOL     OW10393   4.815   8.733   2.520
 2599SOL    HW110394   4.814   8.652   2.469
 2599SOL    HW210395   4.903   8.768   2.508
 2599SOL     MW10396   4.827   8.727   2.512
 2600SOL     OW10397   8.336   1.031   4.600
 2600SOL    HW110398   8.351   1.065   4.512
 2600SOL    HW210399   8.410   0.973   4.616
 2600SOL     MW10400   8.348   1.028   4.590
 2601SOL     OW10401   2.788   0.026   3.420
 2601SOL    HW110402   2.853   0.079   3.466
 2601SOL    HW210403   2.807   0.042   3.327
 2601SOL     MW10404   2.799   0.035   3.413
 2602SOL     OW10405   4.800   4.090   5.537
 2602SOL    HW110406   4.830   4.143   5.463
 2602SOL    HW210407   4.730   4.143   5.577
 2602SOL     MW10408   4.794   4.104   5.533
 2603SOL     OW10409   7.512   2.973   6.825
 2603SOL    HW110410   7.513   3.026   6.745
 2603SOL    HW210411   7.551   3.029   6.892
 2603SOL     MW10412   7.517   2.987   6.823
 2604SOL     OW10413   7.749   0.209   5.468
 2604SOL    HW110414   7.688   0.246   5.405
 2604SOL    HW210415   7.696   0.193   5.546
 2604SOL     MW10416   7.734   0.212   5.470
 2605SOL     OW10417   9.135   1.650   4.582
 2605SOL    HW110418   9.048   1.688   4.594
 2605SOL    HW210419   9.192   1.725   4.563
 2605SOL     MW10420   9.131   1.665   4.581
 2606SOL     OW10421   4.557   9.148   6.362
 2606SOL    HW110422   4.543   9.163   6.456
 2606SOL    HW210423   4.639   9.193   6.343
 2606SOL     MW10424   4.566   9.156   6.372
 2607SOL     OW10425   5.085   3.904   5.876
 2607SOL    HW110426   5.091   3.824   5.824
 2607SOL    HW210427   5.160   3.957   5.849
 2607SOL     MW10428   5.096   3.901   5.865
 2608SOL     OW10429   1.838   4.723   9.407
 2608SOL    HW110430   1.829   4.681   9.493
 2608SOL    HW210431   1.761   4.694   9.358
 2608SOL     MW10432   1.827   4.713   9.412
 2609SOL     OW10433   9.031   4.920   9.105
 2609SOL    HW110434   8.936   4.923   9.117
 2609SOL    HW210435   9.066   4.981   9.170
 2609SOL     MW10436   9.023   4.929   9.115
 2610SOL     OW10437   7.006   6.222   2.281
 2610SOL    HW110438   6.971   6.235   2.369
 2610SOL    HW210439   7.049   6.306   2.260
 2610SOL     MW10440   7.007   6.235   2.290
 2611SOL     OW10441   4.160   2.306   9.912
 2611SOL    HW110442   4.102   2.250   9.963
 2611SOL    HW210443   4.210   2.246   9.857
 2611SOL     MW10444   4.159   2.290   9.911
 2612SOL     OW10445   7.535   9.464   6.739
 2612SOL    HW110446   7.570   9.421   6.817
 2612SOL    HW210447   7.495   9.393   6.689
 2612SOL     MW10448   7.534   9.449   6.743
 2613SOL     OW10449  10.083   5.448   0.149
 2613SOL    HW110450  10.105   5.362   0.113
 2613SOL    HW210451  10.159   5.471   0.203
 2613SOL     MW10452  10.096   5.440   0.152
 2614SOL     OW10453   4.002   7.432   4.479
 2614SOL    HW110454   4.067   7.447   4.410
 2614SOL    HW210455   3.934   7.380   4.436
 2614SOL     MW10456   4.002   7.427   4.464
 2615SOL     OW10457   7.812   9.045   3.159
 2615SOL    HW110458   7.781   8.968   3.111
 2615SOL    HW210459   7.905   9.026   3.176
 2615SOL     MW10460   7.820   9.032   3.155
 2616SOL     OW10461   5.239   5.904   2.998
 2616SOL    HW110462   5.262   5.812   3.015
 2616SOL    HW210463   5.317   5.940   2.955
 2616SOL     MW10464   5.253   5.897   2.995
 2617SOL     OW10465   8.503   9.943   1.451
 2617SOL    HW110466   8.473  10.026   1.488
 2617SOL    HW210467   8.482   9.877   1.517
 2617SOL     MW10468   8.496   9.945   1.465
 2618SOL     OW10469   9.491   3.572   9.499
 2618SOL    HW110470   9.501   3.632   9.573
 2618SOL    HW210471   9.496   3.628   9.422
 2618SOL     MW10472   9.493   3.588   9.499
 2619SOL     OW10473   3.644   9.782   1.244
 2619SOL    HW110474   3.645   9.698   1.291
 2619SOL    HW210475   3.730   9.821   1.264
 2619SOL     MW10476   3.656   9.776   1.253
 2620SOL     OW10477   6.509   0.997   6.570
 2620SOL    HW110478   6.568   0.930   6.606
 2620SOL    HW210479   6.521   1.072   6.627
 2620SOL     MW10480   6.519   0.998   6.583
 2621SOL     OW10481   3.287   1.824   4.455
 2621SOL    HW110482   3.330   1.910   4.448
 2621SOL    HW210483   3.360   1.762   4.460
 2621SOL     MW10484   3.303   1.827   4.454
 2622SOL     OW10485   1.117   1.969   8.861
 2622SOL    HW110486   1.131   1.966   8.955
 2622SOL    HW210487   1.072   2.052   8.846
 2622SOL     MW10488   1.113   1.980   8.871
 2623SOL     OW10489  10.048   5.770   5.282
 2623SOL    HW110490  10.060   5.815   5.198
 2623SOL    HW210491  10.022   5.681   5.257
 2623SOL     MW10492  10.046   5.764   5.267
 2624SOL     OW10493   7.885   7.583   9.991
 2624SOL    HW110494   7.903   7.583   9.897
 2624SOL    HW210495   7.956   7.531  10.029
 2624SOL     MW10496   7.897   7.576   9.983
 2625SOL     OW10497   3.544   7.368   8.668
 2625SOL    HW110498   3.515   7.377   8.577
 2625SOL    HW210499   3.465   7.342   8.716
 2625SOL     MW10500   3.529   7.366   8.662
 2626SOL     OW10501   4.697   1.372   0.869
 2626SOL    HW110502   4.634   1.326   0.814
 2626SOL    HW210503   4.651   1.450   0.900
 2626SOL     MW10504   4.682   1.376   0.866
 2627SOL     OW10505   8.582   0.756   8.629
 2627SOL    HW110506   8.574   0.804   8.712
 2627SOL    HW210507   8.635   0.813   8.573
 2627SOL     MW10508   8.588   0.770   8.633
 2628SOL     OW10509   0.077   0.037   7.836
 2628SOL    HW110510   0.085  -0.026   7.765
 2628SOL    HW210511  -0.011   0.024   7.870
 2628SOL     MW10512   0.067   0.027   7.831
 2629SOL     OW10513   1.286   9.210   5.838
 2629SOL    HW110514   1.260   9.149   5.769
 2629SOL    HW210515   1.381   9.199   5.846
 2629SOL     MW10516   1.295   9.200   5.830
 2630SOL     OW10517   0.174   0.049   6.645
 2630SOL    HW110518   0.079   0.060   6.650
 2630SOL    HW210519   0.197   0.076   6.556
 2630SOL     MW10520   0.164   0.054   6.634
 2631SOL     OW10521   3.040   7.487   9.593
 2631SOL    HW110522   2.944   7.484   9.593
 2631SOL    HW210523   3.063   7.505   9.502
 2631SOL     MW10524   3.030   7.489   9.581
 2632SOL     OW10525   6.336   6.471   8.973
 2632SOL    HW110526   6.385   6.522   9.038
 2632SOL    HW210527   6.389   6.392   8.962
 2632SOL     MW10528   6.350   6.467   8.981
 2633SOL     OW10529   3.210   4.213   3.226
 2633SOL    HW110530   3.126   4.258   3.216
 2633SOL    HW210531   3.210   4.183   3.317
 2633SOL     MW10532   3.199   4.215   3.237
 2634SOL     OW10533   9.562   8.329   2.827
 2634SOL    HW110534   9.487   8.368   2.873
 2634SOL    HW210535   9.537   8.331   2.735
 2634SOL     MW10536   9.548   8.334   2.821
 2635SOL     OW10537   8.022   4.507   3.730
 2635SOL    HW110538   7.998   4.577   3.669
 2635SOL    HW210539   8.096   4.463   3.689
 2635SOL     MW10540   8.029   4.511   3.716
 2636SOL     OW10541   5.563   2.055   0.929
 2636SOL    HW110542   5.525   2.111   0.997
 2636SOL    HW210543   5.652   2.088   0.918
 2636SOL     MW10544   5.570   2.067   0.937
 2637SOL     OW10545   5.500   4.541   8.850
 2637SOL    HW110546   5.458   4.623   8.876
 2637SOL    HW210547   5.506   4.490   8.931
 2637SOL     MW10548   5.495   4.545   8.864
 2638SOL     OW10549   9.775   0.417   2.666
 2638SOL    HW110550   9.808   0.503   2.691
 2638SOL    HW210551   9.759   0.372   2.749
 2638SOL     MW10552   9.777   0.422   2.681
 2639SOL     OW10553   6.652   3.884   2.875
 2639SOL    HW110554   6.637   3.942   2.950
 2639SOL    HW210555   6.748   3.880   2.867
 2639SOL     MW10556   6.663   3.891   2.884
 2640SOL     OW10557   9.382   5.688   5.145
 2640SOL    HW110558   9.311   5.670   5.083
 2640SOL    HW210559   9.345   5.666   5.231
 2640SOL     MW10560   9.368   5.683   5.149
 2641SOL     OW10561   7.673   3.575   5.919
 2641SOL    HW110562   7.646   3.483   5.912
 2641SOL    HW210563   7.668   3.594   6.012
 2641SOL     MW10564   7.669   3.565   5.930
 2642SOL     OW10565   6.264   5.495   0.583
 2642SOL    HW110566   6.322   5.571   0.581
 2642SOL    HW210567   6.195   5.515   0.519
 2642SOL     MW10568   6.262   5.508   0.574
 2643SOL     OW10569   3.157   8.776   8.321
 2643SOL    HW110570   3.090   8.836   8.355
 2643SOL    HW210571   3.202   8.744   8.399
 2643SOL     MW10572   3.154   8.780   8.336
 2644SOL     OW10573   3.138   6.547   5.281
 2644SOL    HW110574   3.047   6.575   5.285
 2644SOL    HW210575   3.188   6.628   5.277
 2644SOL     MW10576   3.133   6.561   5.281
 2645SOL     OW10577   5.012   5.012   5.526
 2645SOL    HW110578   5.076   5.054   5.584
 2645SOL    HW210579   4.964   4.952   5.584
 2645SOL     MW10580   5.014   5.010   5.542
 2646SOL     OW10581   8.095   6.773   2.783
 2646SOL    HW110582   8.106   6.698   2.725
 2646SOL    HW210583   8.154   6.840   2.748
 2646SOL     MW10584   8.104   6.772   2.771
 2647SOL     OW10585   1.753   9.976   2.172
 2647SOL    HW110586   1.793   9.909   2.116
 2647SOL    HW210587   1.659   9.965   2.159
 2647SOL     MW10588   1.746   9.966   2.163
 2648SOL     OW10589   5.597   4.222   0.683
 2648SOL    HW110590   5.546   4.303   0.691
 2648SOL    HW210591   5.592   4.181   0.770
 2648SOL     MW10592   5.589   4.228   0.696
 2649SOL     OW10593   4.236   4.754   6.811
 2649SOL    HW110594   4.305   4.737   6.875
 2649SOL    HW210595   4.262   4.703   6.734
 2649SOL     MW10596   4.249   4.745   6.809
 2650SOL     OW10597   2.235   0.340   0.466
 2650SOL    HW110598   2.298   0.402   0.504
 2650SOL    HW210599   2.161   0.343   0.526
 2650SOL     MW10600   2.234   0.349   0.480
 2651SOL     OW10601   9.143   2.315   1.706
 2651SOL    HW110602   9.231   2.353   1.708
 2651SOL    HW210603   9.113   2.320   1.797
 2651SOL     MW10604   9.151   2.321   1.719
 2652SOL     OW10605   7.585   0.330   5.284
 2652SOL    HW110606   7.636   0.404   5.252
 2652SOL    HW210607   7.532   0.302   5.210
 2652SOL     MW10608   7.585   0.336   5.270
 2653SOL     OW10609   3.372   8.799   9.081
 2653SOL    HW110610   3.369   8.782   8.987
 2653SOL    HW210611   3.316   8.875   9.094
 2653SOL     MW10612   3.364   8.807   9.070
 2654SOL     OW10613   3.966   6.859   6.965
 2654SOL    HW110614   3.937   6.792   6.904
 2654SOL    HW210615   4.050   6.889   6.930
 2654SOL     MW10616   3.973   6.854   6.952
 2655SOL     OW10617   7.727   5.247   0.991
 2655SOL    HW110618   7.727   5.286   0.903
 2655SOL    HW210619   7.692   5.315   1.048
 2655SOL     MW10620   7.723   5.262   0.987
 2656SOL     OW10621   4.859   2.826   6.096
 2656SOL    HW110622   4.777   2.874   6.109
 2656SOL    HW210623   4.883   2.845   6.005
 2656SOL     MW10624   4.851   2.835   6.086
 2657SOL     OW10625   1.616   3.620   9.426
 2657SOL    HW110626   1.658   3.563   9.362
 2657SOL    HW210627   1.688   3.669   9.466
 2657SOL     MW10628   1.631   3.619   9.422
 2658SOL     OW10629   9.986   1.903   8.857
 2658SOL    HW110630  10.062   1.961   8.846
 2658SOL    HW210631   9.914   1.950   8.817
 2658SOL     MW10632   9.987   1.917   8.850
 2659SOL     OW10633   1.243   8.989   9.928
 2659SOL    HW110634   1.279   9.010  10.014
 2659SOL    HW210635   1.253   8.894   9.920
 2659SOL     MW10636   1.249   8.979   9.938
 2660SOL     OW10637   6.034   5.846   3.306
 2660SOL    HW110638   6.110   5.817   3.256
 2660SOL    HW210639   6.064   5.846   3.397
 2660SOL     MW10640   6.048   5.842   3.311
 2661SOL     OW10641   2.128   7.625   6.317
 2661SOL    HW110642   2.167   7.710   6.297
 2661SOL    HW210643   2.043   7.626   6.273
 2661SOL     MW10644   2.122   7.637   6.308
 2662SOL     OW10645   8.835   4.947   1.493
 2662SOL    HW110646   8.867   5.035   1.472
 2662SOL    HW210647   8.914   4.897   1.515
 2662SOL     MW10648   8.850   4.952   1.493
 2663SOL     OW10649   1.930   8.725   8.362
 2663SOL    HW110650   1.974   8.727   8.447
 2663SOL    HW210651   1.883   8.809   8.357
 2663SOL     MW10652   1.929   8.737   8.373
 2664SOL     OW10653   4.621   3.398   0.412
 2664SOL    HW110654   4.650   3.480   0.452
 2664SOL    HW210655   4.645   3.406   0.320
 2664SOL     MW10656   4.628   3.410   0.405
 2665SOL     OW10657   6.412   8.150   9.843
 2665SOL    HW110658   6.492   8.113   9.806
 2665SOL    HW210659   6.366   8.187   9.768
 2665SOL     MW10660   6.416   8.150   9.828
 2666SOL     OW10661   6.660   5.689   9.747
 2666SOL    HW110662   6.648   5.708   9.654
 2666SOL    HW210663   6.755   5.684   9.759
 2666SOL     MW10664   6.671   5.691   9.736
 2667SOL     OW10665   5.168   9.182   0.654
 2667SOL    HW110666   5.126   9.131   0.722
 2667SOL    HW210667   5.256   9.144   0.645
 2667SOL     MW10668   5.175   9.170   0.662
 2668SOL     OW10669   3.727   6.646   9.470
 2668SOL    HW110670   3.815   6.609   9.473
 2668SOL    HW210671   3.678   6.596   9.534
 2668SOL     MW10672   3.732   6.634   9.479
 2669SOL     OW10673   6.750   2.558   8.975
 2669SOL    HW110674   6.836   2.594   8.950
 2669SOL    HW210675   6.768   2.506   9.054
 2669SOL     MW10676   6.764   2.556   8.982
 2670SOL     OW10677   5.912   7.853   4.372
 2670SOL    HW110678   5.968   7.786   4.411
 2670SOL    HW210679   5.860   7.886   4.445
 2670SOL     MW10680   5.913   7.848   4.387
 2671SOL     OW10681   8.923   9.406   7.946
 2671SOL    HW110682   8.955   9.455   8.022
 2671SOL    HW210683   8.832   9.434   7.936
 2671SOL     MW10684   8.915   9.416   7.955
 2672SOL     OW10685   3.628   9.244   0.564
 2672SOL    HW110686   3.574   9.308   0.611
 2672SOL    HW210687   3.663   9.293   0.490
 2672SOL     MW10688   3.625   9.259   0.561
 2673SOL     OW10689   2.047   6.034   6.061
 2673SOL    HW110690   2.066   6.048   6.154
 2673SOL    HW210691   1.954   6.014   6.058
 2673SOL     MW10692   2.037   6.034   6.073
 2674SOL     OW10693   2.178   8.691   7.953
 2674SOL    HW110694   2.266   8.725   7.934
 2674SOL    HW210695   2.137   8.684   7.867
 2674SOL     MW10696   2.184   8.695   7.939
 2675SOL     OW10697   4.524   0.300   9.979
 2675SOL    HW110698   4.589   0.249  10.027
 2675SOL    HW210699   4.440   0.264  10.007
 2675SOL     MW10700   4.522   0.288   9.989
 2676SOL     OW10701   8.790   1.556   7.478
 2676SOL    HW110702   8.829   1.595   7.400
 2676SOL    HW210703   8.717   1.503   7.445
 2676SOL     MW10704   8.785   1.554   7.463
 2677SOL     OW10705   9.535   8.462   0.287
 2677SOL    HW110706   9.520   8.390   0.348
 2677SOL    HW210707   9.613   8.505   0.319
 2677SOL     MW10708   9.543   8.458   0.299
 2678SOL     OW10709   1.158   8.489   3.389
 2678SOL    HW110710   1.137   8.541   3.467
 2678SOL    HW210711   1.202   8.552   3.331
 2678SOL     MW10712   1.161   8.505   3.392
 2679SOL     OW10713   8.301   2.118   0.741
 2679SOL    HW110714   8.323   2.195   0.687
 2679SOL    HW210715   8.290   2.154   0.829
 2679SOL     MW10716   8.303   2.133   0.745
 2680SOL     OW10717   8.330   1.270   4.739
 2680SOL    HW110718   8.239   1.287   4.762
 2680SOL    HW210719   8.329   1.184   4.698
 2680SOL     MW10720   8.318   1.261   4.737
 2681SOL     OW10721   9.591   7.077   2.334
 2681SOL    HW110722   9.643   7.050   2.259
 2681SOL    HW210723   9.544   7.155   2.303
 2681SOL     MW10724   9.592   7.084   2.320
 2682SOL     OW10725   8.401   9.676   5.987
 2682SOL    HW110726   8.327   9.709   5.937
 2682SOL    HW210727   8.375   9.688   6.079
 2682SOL     MW10728   8.387   9.682   5.993
 2683SOL     OW10729   0.177   3.698   3.650
 2683SOL    HW110730   0.126   3.654   3.582
 2683SOL    HW210731   0.216   3.773   3.607
 2683SOL     MW10732   0.175   3.702   3.635
 2684SOL     OW10733   1.557   2.667   2.485
 2684SOL    HW110734   1.501   2.704   2.552
 2684SOL    HW210735   1.624   2.619   2.534
 2684SOL     MW10736   1.559   2.665   2.500
 2685SOL     OW10737   6.270   8.673   0.576
 2685SOL    HW110738   6.198   8.613   0.593
 2685SOL    HW210739   6.323   8.630   0.509
 2685SOL     MW10740   6.268   8.659   0.569
 2686SOL     OW10741   5.255   5.867   1.377
 2686SOL    HW110742   5.265   5.908   1.463
 2686SOL    HW210743   5.329   5.899   1.327
 2686SOL     MW10744   5.266   5.876   1.382
 2687SOL     OW10745   7.882   7.557   7.168
 2687SOL    HW110746   7.915   7.521   7.085
 2687SOL    HW210747   7.960   7.571   7.221
 2687SOL     MW10748   7.897   7.554   7.164
 2688SOL     OW10749   6.545   2.625   8.325
 2688SOL    HW110750   6.473   2.656   8.379
 2688SOL    HW210751   6.619   2.618   8.386
 2688SOL     MW10752   6.545   2.628   8.341
 2689SOL     OW10753   5.377   7.223   3.464
 2689SOL    HW110754   5.436   7.154   3.434
 2689SOL    HW210755   5.434   7.299   3.477
 2689SOL     MW10756   5.392   7.224   3.462
 2690SOL     OW10757   7.538   4.924   2.685
 2690SOL    HW110758   7.575   5.007   2.715
 2690SOL    HW210759   7.476   4.948   2.617
 2690SOL     MW10760   7.535   4.938   2.680
 2691SOL     OW10761   8.370   8.463   1.153
 2691SOL    HW110762   8.415   8.537   1.194
 2691SOL    HW210763   8.305   8.503   1.096
 2691SOL     MW10764   8.367   8.478   1.151
 2692SOL     OW10765   4.849   5.095   2.320
 2692SOL    HW110766   4.770   5.140   2.290
 2692SOL    HW210767   4.852   5.015   2.269
 2692SOL     MW10768   4.839   5.091   2.309
 2693SOL     OW10769   5.673   5.087   8.706
 2693SOL    HW110770   5.619   5.069   8.782
 2693SOL    HW210771   5.697   5.180   8.714
 2693SOL     MW10772   5.669   5.097   8.717
 2694SOL     OW10773   3.561   7.125   0.926
 2694SOL    HW110774   3.530   7.212   0.903
 2694SOL    HW210775   3.540   7.071   0.850
 2694SOL     MW10776   3.554   7.130   0.913
 2695SOL     OW10777   7.284   4.714   9.925
 2695SOL    HW110778   7.214   4.748   9.981
 2695SOL    HW210779   7.317   4.791   9.878
 2695SOL     MW10780   7.279   4.729   9.926
 2696SOL     OW10781   3.631   5.726   7.120
 2696SOL    HW110782   3.571   5.652   7.129
 2696SOL    HW210783   3.589   5.783   7.056
 2696SOL     MW10784   3.617   5.724   7.113
 2697SOL     OW10785   2.661   7.834   4.351
 2697SOL    HW110786   2.653   7.885   4.271
 2697SOL    HW210787   2.571   7.815   4.377
 2697SOL     MW10788   2.648   7.838   4.344
 2698SOL     OW10789   5.484   4.933   1.726
 2698SOL    HW110790   5.552   4.885   1.773
 2698SOL    HW210791   5.445   4.868   1.667
 2698SOL     MW10792   5.487   4.918   1.724
 2699SOL     OW10793   0.881   4.582   8.190
 2699SOL    HW110794   0.968   4.621   8.199
 2699SOL    HW210795   0.840   4.630   8.119
 2699SOL     MW10796   0.887   4.593   8.182
 2700SOL     OW10797   3.366   6.364   8.025
 2700SOL    HW110798   3.437   6.394   7.968
 2700SOL    HW210799   3.400   6.376   8.114
 2700SOL     MW10800   3.380   6.370   8.029
 2701SOL     OW10801   7.861   7.588   4.275
 2701SOL    HW110802   7.894   7.573   4.364
 2701SOL    HW210803   7.766   7.582   4.283
 2701SOL     MW10804   7.853   7.585   4.288
 2702SOL     OW10805   6.432   9.746   3.722
 2702SOL    HW110806   6.345   9.787   3.716
 2702SOL    HW210807   6.420   9.674   3.784
 2702SOL     MW10808   6.418   9.742   3.729
 2703SOL     OW10809   4.080   6.942   0.837
 2703SOL    HW110810   3.988   6.966   0.840
 2703SOL    HW210811   4.119   6.985   0.913
 2703SOL     MW10812   4.073   6.951   0.848
 2704SOL     OW10813   9.776   2.040   8.734
 2704SOL    HW110814   9.719   1.994   8.673
 2704SOL    HW210815   9.724   2.113   8.766
 2704SOL     MW10816   9.762   2.043   8.730
 2705SOL     OW10817   2.305   2.028   2.143
 2705SOL    HW110818   2.370   2.036   2.073
 2705SOL    HW210819   2.353   1.989   2.216
 2705SOL     MW10820   2.320   2.024   2.144
 2706SOL     OW10821   3.258   9.502   1.386
 2706SOL    HW110822   3.186   9.490   1.448
 2706SOL    HW210823   3.222   9.563   1.321
 2706SOL     MW10824   3.243   9.509   1.385
 2707SOL     OW10825   7.671   7.060   1.469
 2707SOL    HW110826   7.722   7.110   1.406
 2707SOL    HW210827   7.634   6.988   1.418
 2707SOL     MW10828   7.673   7.057   1.454
 2708SOL     OW10829   8.669   9.389   4.210
 2708SOL    HW110830   8.750   9.390   4.261
 2708SOL    HW210831   8.670   9.304   4.166
 2708SOL     MW10832   8.680   9.377   4.211
 2709SOL     OW10833   2.038   5.843   8.035
 2709SOL    HW110834   2.100   5.898   8.084
 2709SOL    HW210835   2.048   5.756   8.072
 2709SOL     MW10836   2.048   5.839   8.047
 2710SOL     OW10837   8.815   9.901   9.689
 2710SOL    HW110838   8.720   9.888   9.685
 2710SOL    HW210839   8.833   9.970   9.626
 2710SOL     MW10840   8.805   9.908   9.680
 2711SOL     OW10841   3.698   6.467   7.551
 2711SOL    HW110842   3.724   6.553   7.519
 2711SOL    HW210843   3.773   6.410   7.533
 2711SOL     MW10844   3.712   6.471   7.544
 2712SOL     OW10845   5.739   1.228   7.715
 2712SOL    HW110846   5.767   1.255   7.627
 2712SOL    HW210847   5.758   1.135   7.719
 2712SOL     MW10848   5.746   1.219   7.704
 2713SOL     OW10849   1.791   1.929   6.520
 2713SOL    HW110850   1.724   1.892   6.463
 2713SOL    HW210851   1.866   1.870   6.511
 2713SOL     MW10852   1.792   1.916   6.511
 2714SOL     OW10853   9.043   4.687   2.007
 2714SOL    HW110854   9.000   4.674   2.091
 2714SOL    HW210855   9.099   4.763   2.020
 2714SOL     MW10856   9.045   4.695   2.020
 2715SOL     OW10857   9.659   5.718   5.147
 2715SOL    HW110858   9.678   5.786   5.082
 2715SOL    HW210859   9.565   5.706   5.142
 2715SOL     MW10860   9.649   5.726   5.137
 2716SOL     OW10861   8.367   2.319   0.562
 2716SOL    HW110862   8.313   2.284   0.491
 2716SOL    HW210863   8.323   2.400   0.588
 2716SOL     MW10864   8.354   2.325   0.556
 2717SOL     OW10865   1.073   3.403   5.011
 2717SOL    HW110866   1.013   3.455   4.958
 2717SOL    HW210867   1.058   3.312   4.983
 2717SOL     MW10868   1.063   3.398   5.000
 2718SOL     OW10869   1.565   1.849   1.687
 2718SOL    HW110870   1.654   1.881   1.672
 2718SOL    HW210871   1.571   1.754   1.671
 2718SOL     MW10872   1.578   1.840   1.683
 2719SOL     OW10873   5.211   3.101   4.313
 2719SOL    HW110874   5.121   3.130   4.329
 2719SOL    HW210875   5.223   3.108   4.219
 2719SOL     MW10876   5.201   3.106   4.303
 2720SOL     OW10877   0.703   6.492   2.643
 2720SOL    HW110878   0.785   6.446   2.660
 2720SOL    HW210879   0.635   6.432   2.674
 2720SOL     MW10880   0.705   6.478   2.649
 2721SOL     OW10881   6.834   7.277   7.956
 2721SOL    HW110882   6.809   7.247   7.868
 2721SOL    HW210883   6.886   7.205   7.992
 2721SOL     MW10884   6.838   7.263   7.949
 2722SOL     OW10885   3.462   4.059   5.418
 2722SOL    HW110886   3.384   4.113   5.421
 2722SOL    HW210887   3.530   4.117   5.384
 2722SOL     MW10888   3.461   4.074   5.414
 2723SOL     OW10889   6.985   7.463   7.437
 2723SOL    HW110890   6.991   7.373   7.468
 2723SOL    HW210891   6.975   7.515   7.517
 2723SOL     MW10892   6.984   7.458   7.452
 2724SOL     OW10893   0.103   6.778   9.781
 2724SOL    HW110894   0.188   6.820   9.767
 2724SOL    HW210895   0.062   6.829   9.852
 2724SOL     MW10896   0.109   6.791   9.789
 2725SOL     OW10897   0.810   0.519   7.377
 2725SOL    HW110898   0.824   0.473   7.294
 2725SOL    HW210899   0.868   0.595   7.373
 2725SOL     MW10900   0.820   0.523   7.365
 2726SOL     OW10901   8.059   4.124   8.306
 2726SOL    HW110902   8.003   4.180   8.361
 2726SOL    HW210903   8.071   4.044   8.357
 2726SOL     MW10904   8.053   4.121   8.320
 2727SOL     OW10905   5.078   1.734   3.348
 2727SOL    HW110906   5.000   1.733   3.403
 2727SOL    HW210907   5.047   1.702   3.262
 2727SOL     MW10908   5.063   1.729   3.344
 2728SOL     OW10909   7.674   5.491   0.342
 2728SOL    HW110910   7.661   5.534   0.258
 2728SOL    HW210911   7.602   5.523   0.397
 2728SOL     MW10912   7.663   5.501   0.338
 2729SOL     OW10913   7.738   0.540   5.190
 2729SOL    HW110914   7.715   0.633   5.193
 2729SOL    HW210915   7.791   0.532   5.111
 2729SOL     MW10916   7.742   0.551   5.180
 2730SOL     OW10917   9.350   2.208   2.245
 2730SOL    HW110918   9.397   2.253   2.315
 2730SOL    HW210919   9.418   2.160   2.196
 2730SOL     MW10920   9.365   2.207   2.248
 2731SOL     OW10921   5.949   2.157   3.787
 2731SOL    HW110922   5.890   2.126   3.855
 2731SOL    HW210923   6.031   2.109   3.802
 2731SOL     MW10924   5.952   2.146   3.798
 2732SOL     OW10925   1.705   1.793   2.080
 2732SOL    HW110926   1.767   1.793   2.008
 2732SOL    HW210927   1.629   1.840   2.046
 2732SOL     MW10928   1.703   1.799   2.066
 2733SOL     OW10929   5.318   9.927   7.608
 2733SOL    HW110930   5.406   9.897   7.630
 2733SOL    HW210931   5.295   9.989   7.677
 2733SOL     MW10932   5.326   9.931   7.620
 2734SOL     OW10933   9.310   9.759   3.963
 2734SOL    HW110934   9.215   9.761   3.953
 2734SOL    HW210935   9.342   9.718   3.883
 2734SOL     MW10936   9.301   9.754   3.951
 2735SOL     OW10937   5.683   4.645   8.671
 2735SOL    HW110938   5.716   4.722   8.718
 2735SOL    HW210939   5.625   4.602   8.734
 2735SOL     MW10940   5.680   4.649   8.686
 2736SOL     OW10941   0.227   6.880   5.632
 2736SOL    HW110942   0.229   6.879   5.728
 2736SOL    HW210943   0.317   6.903   5.607
 2736SOL     MW10944   0.240   6.883   5.642
 2737SOL     OW10945   5.556   6.770   3.463
 2737SOL    HW110946   5.479   6.720   3.487
 2737SOL    HW210947   5.629   6.723   3.503
 2737SOL     MW10948   5.556   6.757   3.472
 2738SOL     OW10949   0.270   8.457   2.447
 2738SOL    HW110950   0.236   8.438   2.535
 2738SOL    HW210951   0.210   8.413   2.388
 2738SOL     MW10952   0.258   8.449   2.451
 2739SOL     OW10953   9.647   0.503   0.391
 2739SOL    HW110954   9.623   0.595   0.392
 2739SOL    HW210955   9.670   0.485   0.300
 2739SOL     MW10956   9.647   0.513   0.379
 2740SOL     OW10957   9.158   1.620   3.465
 2740SOL    HW110958   9.241   1.582   3.493
 2740SOL    HW210959   9.108   1.631   3.546
 2740SOL     MW10960   9.162   1.616   3.479
 2741SOL     OW10961   1.239   1.859   5.965
 2741SOL    HW110962   1.240   1.765   5.984
 2741SOL    HW210963   1.325   1.876   5.926
 2741SOL     MW10964   1.251   1.849   5.963
 2742SOL     OW10965   1.357   6.528   8.553
 2742SOL    HW110966   1.400   6.494   8.631
 2742SOL    HW210967   1.335   6.619   8.575
 2742SOL     MW10968   1.360   6.536   8.566
 2743SOL     OW10969   9.105   2.110   2.145
 2743SOL    HW110970   9.130   2.028   2.102
 2743SOL    HW210971   9.184   2.137   2.192
 2743SOL     MW10972   9.119   2.102   2.146
 2744SOL     OW10973   5.008   4.482   5.534
 2744SOL    HW110974   4.950   4.431   5.477
 2744SOL    HW210975   4.984   4.573   5.516
 2744SOL     MW10976   4.997   4.488   5.524
 2745SOL     OW10977   9.145   4.162   7.848
 2745SOL    HW110978   9.209   4.224   7.814
 2745SOL    HW210979   9.061   4.203   7.833
 2745SOL     MW10980   9.143   4.176   7.841
 2746SOL     OW10981   5.073   8.817   2.480
 2746SOL    HW110982   5.106   8.830   2.391
 2746SOL    HW210983   5.146   8.773   2.525
 2746SOL     MW10984   5.087   8.813   2.474
 2747SOL     OW10985   1.446   7.639   3.830
 2747SOL    HW110986   1.453   7.733   3.812
 2747SOL    HW210987   1.392   7.605   3.758
 2747SOL     MW10988   1.440   7.647   3.818
 2748SOL     OW10989   0.763   5.885   4.570
 2748SOL    HW110990   0.842   5.937   4.581
 2748SOL    HW210991   0.697   5.931   4.621
 2748SOL     MW10992   0.765   5.898   4.579
 2749SOL     OW10993   8.500   5.753   0.444
 2749SOL    HW110994   8.480   5.727   0.534
 2749SOL    HW210995   8.572   5.695   0.418
 2749SOL     MW10996   8.507   5.741   0.453
 2750SOL     OW10997   8.089   3.901   8.467
 2750SOL    HW110998   8.033   3.825   8.481
 2750SOL    HW210999   8.174   3.876   8.501
 2750SOL     MW11000   8.093   3.888   8.473
 2751SOL     OW11001   7.613   1.517   6.187
 2751SOL    HW111002   7.641   1.428   6.167
 2751SOL    HW211003   7.670   1.572   6.133
 2751SOL     MW11004   7.625   1.513   6.177
 2752SOL     OW11005   1.182   5.618   0.340
 2752SOL    HW111006   1.240   5.551   0.377
 2752SOL    HW211007   1.232   5.700   0.350
 2752SOL     MW11008   1.197   5.620   0.347
 2753SOL     OW11009   4.011   7.243   7.501
 2753SOL    HW111010   4.105   7.225   7.504
 2753SOL    HW211011   3.999   7.315   7.563
 2753SOL     MW11012   4.022   7.251   7.510
 2754SOL     OW11013   3.241   7.323   5.961
 2754SOL    HW111014   3.250   7.289   5.872
 2754SOL    HW211015   3.315   7.384   5.970
 2754SOL     MW11016   3.252   7.327   5.950
 2755SOL     OW11017   4.605   4.169   8.246
 2755SOL    HW111018   4.635   4.257   8.271
 2755SOL    HW211019   4.554   4.183   8.166
 2755SOL     MW11020   4.602   4.183   8.239
 2756SOL     OW11021   2.217   1.733   0.516
 2756SOL    HW111022   2.175   1.741   0.430
 2756SOL    HW211023   2.276   1.657   0.506
 2756SOL     MW11024   2.219   1.724   0.503
 2757SOL     OW11025   4.873   6.842   9.603
 2757SOL    HW111026   4.945   6.866   9.545
 2757SOL    HW211027   4.892   6.751   9.628
 2757SOL     MW11028   4.886   6.833   9.599
 2758SOL     OW11029   7.851   1.939   9.131
 2758SOL    HW111030   7.807   1.927   9.215
 2758SOL    HW211031   7.863   2.033   9.123
 2758SOL     MW11032   7.847   1.950   9.141
 2759SOL     OW11033   8.802   1.811   0.414
 2759SOL    HW111034   8.747   1.875   0.458
 2759SOL    HW211035   8.878   1.802   0.471
 2759SOL     MW11036   8.805   1.818   0.428
 2760SOL     OW11037   2.836   8.130   1.315
 2760SOL    HW111038   2.816   8.178   1.234
 2760SOL    HW211039   2.868   8.045   1.285
 2760SOL     MW11040   2.838   8.125   1.300
 2761SOL     OW11041   9.530   6.174   8.383
 2761SOL    HW111042   9.606   6.226   8.356
 2761SOL    HW211043   9.461   6.239   8.397
 2761SOL     MW11044   9.531   6.190   8.381
 2762SOL     OW11045   1.101   4.314   0.811
 2762SOL    HW111046   1.162   4.303   0.883
 2762SOL    HW211047   1.133   4.256   0.742
 2762SOL     MW11048   1.113   4.305   0.812
 2763SOL     OW11049   0.707   5.907   8.680
 2763SOL    HW111050   0.666   5.839   8.734
 2763SOL    HW211051   0.795   5.874   8.663
 2763SOL     MW11052   0.713   5.894   8.685
 2764SOL     OW11053   9.618   9.114   1.376
 2764SOL    HW111054   9.557   9.128   1.449
 2764SOL    HW211055   9.686   9.057   1.412
 2764SOL     MW11056   9.619   9.109   1.391
 2765SOL     OW11057   4.716   5.377   4.421
 2765SOL    HW111058   4.756   5.389   4.508
 2765SOL    HW211059   4.787   5.398   4.360
 2765SOL     MW11060   4.731   5.382   4.425
 2766SOL     OW11061   9.998   2.893   4.855
 2766SOL    HW111062   9.962   2.829   4.795
 2766SOL    HW211063  10.048   2.841   4.918
 2766SOL     MW11064  10.000   2.878   4.856
 2767SOL     OW11065   2.937   7.833   8.908
 2767SOL    HW111066   2.878   7.785   8.966
 2767SOL    HW211067   2.903   7.814   8.820
 2767SOL     MW11068   2.924   7.824   8.904
 2768SOL     OW11069   1.095   5.878   4.356
 2768SOL    HW111070   1.121   5.795   4.396
 2768SOL    HW211071   1.147   5.883   4.276
 2768SOL     MW11072   1.106   5.868   4.351
 2769SOL     OW11073   2.669   8.345   5.332
 2769SOL    HW111074   2.742   8.369   5.275
 2769SOL    HW211075   2.594   8.339   5.273
 2769SOL     MW11076   2.669   8.347   5.316
 2770SOL     OW11077   8.087   9.933   3.929
 2770SOL    HW111078   8.129   9.881   3.861
 2770SOL    HW211079   8.158   9.959   3.987
 2770SOL     MW11080   8.102   9.929   3.928
 2771SOL     OW11081   7.826   8.469   3.391
 2771SOL    HW111082   7.772   8.422   3.328
 2771SOL    HW211083   7.815   8.421   3.473
 2771SOL     MW11084   7.817   8.457   3.394
 2772SOL     OW11085   4.783   7.011   5.912
 2772SOL    HW111086   4.854   6.975   5.858
 2772SOL    HW211087   4.777   7.103   5.885
 2772SOL     MW11088   4.792   7.019   5.901
 2773SOL     OW11089   6.738   2.580   8.521
 2773SOL    HW111090   6.807   2.645   8.538
 2773SOL    HW211091   6.683   2.583   8.599
 2773SOL     MW11092   6.740   2.589   8.534
 2774SOL     OW11093   4.346   0.076   0.525
 2774SOL    HW111094   4.285   0.011   0.560
 2774SOL    HW211095   4.426   0.026   0.508
 2774SOL     MW11096   4.349   0.060   0.528
 2775SOL     OW11097   8.573   6.902   5.218
 2775SOL    HW111098   8.525   6.821   5.234
 2775SOL    HW211099   8.658   6.888   5.260
 2775SOL     MW11100   8.578   6.889   5.226
 2776SOL     OW11101   4.322   5.939   3.369
 2776SOL    HW111102   4.283   6.026   3.366
 2776SOL    HW211103   4.271   5.888   3.306
 2776SOL     MW11104   4.310   5.944   3.360
 2777SOL     OW11105   7.987   8.815   8.258
 2777SOL    HW111106   8.076   8.782   8.246
 2777SOL    HW211107   7.949   8.759   8.326
 2777SOL     MW11108   7.994   8.803   8.265
 2778SOL     OW11109   4.584   5.146   6.464
 2778SOL    HW111110   4.630   5.119   6.384
 2778SOL    HW211111   4.612   5.081   6.529
 2778SOL     MW11112   4.594   5.133   6.462
 2779SOL     OW11113   8.678   3.477   3.037
 2779SOL    HW111114   8.631   3.447   3.114
 2779SOL    HW211115   8.614   3.472   2.966
 2779SOL     MW11116   8.663   3.473   3.038
 2780SOL     OW11117   4.103   3.014   6.653
 2780SOL    HW111118   4.147   3.094   6.624
 2780SOL    HW211119   4.065   2.977   6.574
 2780SOL     MW11120   4.104   3.020   6.639
 2781SOL     OW11121   0.108   2.510   9.656
 2781SOL    HW111122   0.138   2.556   9.577
 2781SOL    HW211123   0.053   2.573   9.701
 2781SOL     MW11124   0.105   2.524   9.651
 2782SOL     OW11125   3.192   6.279   2.649
 2782SOL    HW111126   3.247   6.351   2.620
 2782SOL    HW211127   3.157   6.241   2.569
 2782SOL     MW11128   3.194   6.284   2.635
 2783SOL     OW11129   9.700   0.844   1.207
 2783SOL    HW111130   9.791   0.872   1.196
 2783SOL    HW211131   9.694   0.814   1.297
 2783SOL     MW11132   9.711   0.843   1.217
 2784SOL     OW11133   2.855   8.929   2.846
 2784SOL    HW111134   2.927   8.984   2.878
 2784SOL    HW211135   2.799   8.916   2.922
 2784SOL     MW11136   2.857   8.935   2.860
 2785SOL     OW11137   2.876   7.804   6.816
 2785SOL    HW111138   2.803   7.744   6.832
 2785SOL    HW211139   2.836   7.877   6.769
 2785SOL     MW11140   2.861   7.806   6.812
 2786SOL     OW11141   6.501   9.570   4.956
 2786SOL    HW111142   6.543   9.655   4.941
 2786SOL    HW211143   6.408   9.587   4.951
 2786SOL     MW11144   6.494   9.584   4.953
 2787SOL     OW11145   1.033   4.810   5.057
 2787SOL    HW111146   0.945   4.805   5.020
 2787SOL    HW211147   1.027   4.762   5.140
 2787SOL     MW11148   1.021   4.803   5.063
 2788SOL     OW11149   9.174   1.631   6.755
 2788SOL    HW111150   9.114   1.704   6.742
 2788SOL    HW211151   9.259   1.673   6.774
 2788SOL     MW11152   9.178   1.646   6.756
 2789SOL     OW11153   6.904   6.587   5.398
 2789SOL    HW111154   6.814   6.568   5.425
 2789SOL    HW211155   6.957   6.565   5.474
 2789SOL     MW11156   6.899   6.582   5.412
 2790SOL     OW11157   1.851   1.516   9.804
 2790SOL    HW111158   1.856   1.427   9.769
 2790SOL    HW211159   1.780   1.557   9.755
 2790SOL     MW11160   1.842   1.510   9.792
 2791SOL     OW11161   7.681   8.505   5.466
 2791SOL    HW111162   7.761   8.550   5.438
 2791SOL    HW211163   7.634   8.570   5.519
 2791SOL     MW11164   7.686   8.520   5.470
 2792SOL     OW11165   7.961   7.864   1.100
 2792SOL    HW111166   8.017   7.917   1.156
 2792SOL    HW211167   7.881   7.914   1.090
 2792SOL     MW11168   7.958   7.878   1.106
 2793SOL     OW11169   0.059   0.225   5.082
 2793SOL    HW111170   0.014   0.156   5.131
 2793SOL    HW211171   0.125   0.258   5.143
 2793SOL     MW11172   0.062   0.220   5.096
 2794SOL     OW11173   4.193   1.187   5.762
 2794SOL    HW111174   4.198   1.264   5.705
 2794SOL    HW211175   4.161   1.221   5.846
 2794SOL     MW11176   4.189   1.202   5.766
 2795SOL     OW11177   0.389   3.285   7.380
 2795SOL    HW111178   0.302   3.284   7.339
 2795SOL    HW211179   0.427   3.200   7.358
 2795SOL     MW11180   0.382   3.274   7.371
 2796SOL     OW11181   5.121   7.448   5.230
 2796SOL    HW111182   5.072   7.529   5.213
 2796SOL    HW211183   5.157   7.423   5.145
 2796SOL     MW11184   5.119   7.456   5.217
 2797SOL     OW11185   2.025   2.674   9.846
 2797SOL    HW111186   2.064   2.698   9.761
 2797SOL    HW211187   1.951   2.618   9.823
 2797SOL     MW11188   2.021   2.669   9.831
 2798SOL     OW11189   3.858   3.303   9.279
 2798SOL    HW111190   3.767   3.319   9.254
 2798SOL    HW211191   3.865   3.342   9.367
 2798SOL     MW11192   3.847   3.311   9.288
 2799SOL     OW11193   8.568   6.617   3.572
 2799SOL    HW111194   8.609   6.588   3.491
 2799SOL    HW211195   8.585   6.712   3.575
 2799SOL     MW11196   8.576   6.626   3.562
 2800SOL     OW11197   0.291   0.264   1.510
 2800SOL    HW111198   0.296   0.183   1.459
 2800SOL    HW211199   0.375   0.306   1.497
 2800SOL     MW11200   0.303   0.259   1.502
 2801SOL     OW11201   4.533   2.610   4.041
 2801SOL    HW111202   4.472   2.612   4.115
 2801SOL    HW211203   4.599   2.544   4.065
 2801SOL     MW11204   4.534   2.602   4.054
 2802SOL     OW11205   4.975   4.690   6.854
 2802SOL    HW111206   4.964   4.597   6.873
 2802SOL    HW211207   4.886   4.721   6.836
 2802SOL     MW11208   4.962   4.682   6.854
 2803SOL     OW11209   3.490   1.651   9.261
 2803SOL    HW111210   3.567   1.701   9.287
 2803SOL    HW211211   3.468   1.599   9.339
 2803SOL     MW11212   3.497   1.650   9.275
 2804SOL     OW11213   4.218   0.735   3.192
 2804SOL    HW111214   4.284   0.781   3.139
 2804SOL    HW211215   4.223   0.644   3.161
 2804SOL     MW11216   4.228   0.729   3.180
 2805SOL     OW11217   4.326   0.555   0.675
 2805SOL    HW111218   4.298   0.489   0.612
 2805SOL    HW211219   4.303   0.639   0.635
 2805SOL     MW11220   4.319   0.557   0.661
 2806SOL     OW11221   7.268   0.331   3.510
 2806SOL    HW111222   7.260   0.340   3.415
 2806SOL    HW211223   7.327   0.257   3.522
 2806SOL     MW11224   7.275   0.322   3.499
 2807SOL     OW11225   5.688   1.131   9.913
 2807SOL    HW111226   5.691   1.207   9.855
 2807SOL    HW211227   5.731   1.161   9.994
 2807SOL     MW11228   5.695   1.146   9.916
 2808SOL     OW11229   0.950   6.447   2.386
 2808SOL    HW111230   0.997   6.513   2.334
 2808SOL    HW211231   0.860   6.452   2.355
 2808SOL     MW11232   0.944   6.457   2.375
 2809SOL     OW11233   7.079   1.562   1.790
 2809SOL    HW111234   7.080   1.605   1.704
 2809SOL    HW211235   7.171   1.554   1.815
 2809SOL     MW11236   7.091   1.567   1.781
 2810SOL     OW11237   9.103   9.629   5.409
 2810SOL    HW111238   9.102   9.573   5.332
 2810SOL    HW211239   9.185   9.608   5.454
 2810SOL     MW11240   9.114   9.619   5.405
 2811SOL     OW11241   0.894   4.426   8.692
 2811SOL    HW111242   0.940   4.510   8.695
 2811SOL    HW211243   0.853   4.423   8.606
 2811SOL     MW11244   0.895   4.437   8.681
 2812SOL     OW11245   9.389   5.917   1.730
 2812SOL    HW111246   9.430   5.837   1.764
 2812SOL    HW211247   9.335   5.887   1.657
 2812SOL     MW11248   9.388   5.902   1.725
 2813SOL     OW11249   7.867   7.556   9.711
 2813SOL    HW111250   7.775   7.559   9.736
 2813SOL    HW211251   7.875   7.476   9.658
 2813SOL     MW11252   7.856   7.545   9.707
 2814SOL     OW11253   7.150   4.035   0.514
 2814SOL    HW111254   7.150   4.120   0.470
 2814SOL    HW211255   7.204   3.980   0.458
 2814SOL     MW11256   7.157   4.039   0.500
 2815SOL     OW11257   2.535   1.674   0.572
 2815SOL    HW111258   2.492   1.752   0.607
 2815SOL    HW211259   2.582   1.637   0.646
 2815SOL     MW11260   2.536   1.680   0.586
 2816SOL     OW11261   4.098   2.283   2.370
 2816SOL    HW111262   4.131   2.200   2.336
 2816SOL    HW211263   4.008   2.288   2.338
 2816SOL     MW11264   4.090   2.272   2.361
 2817SOL     OW11265   0.699   5.168   0.444
 2817SOL    HW111266   0.716   5.261   0.459
 2817SOL    HW211267   0.780   5.135   0.406
 2817SOL     MW11268   0.712   5.176   0.441
 2818SOL     OW11269   6.116   7.901   0.327
 2818SOL    HW111270   6.171   7.948   0.265
 2818SOL    HW211271   6.067   7.838   0.274
 2818SOL     MW11272   6.117   7.899   0.312
 2819SOL     OW11273   4.168   8.785   7.893
 2819SOL    HW111274   4.223   8.848   7.940
 2819SOL    HW211275   4.183   8.702   7.938
 2819SOL     MW11276   4.178   8.783   7.905
 2820SOL     OW11277  10.079   8.924   3.547
 2820SOL    HW111278  10.006   8.968   3.591
 2820SOL    HW211279  10.057   8.930   3.454
 2820SOL     MW11280  10.066   8.931   3.540
 2821SOL     OW11281   4.911   9.566   8.264
 2821SOL    HW111282   4.977   9.508   8.227
 2821SOL    HW211283   4.829   9.518   8.257
 2821SOL     MW11284   4.909   9.552   8.258
 2822SOL     OW11285   5.981   0.283  10.125
 2822SOL    HW111286   6.036   0.353  10.092
 2822SOL    HW211287   5.901   0.327  10.154
 2822SOL     MW11288   5.977   0.298  10.125
 2823SOL     OW11289   2.292   3.387   7.235
 2823SOL    HW111290   2.364   3.343   7.189
 2823SOL    HW211291   2.326   3.474   7.255
 2823SOL     MW11292   2.306   3.393   7.232
 2824SOL     OW11293   7.991   8.478   8.648
 2824SOL    HW111294   7.926   8.428   8.697
 2824SOL    HW211295   8.070   8.474   8.701
 2824SOL     MW11296   7.993   8.471   8.661
 2825SOL     OW11297   7.895   9.042   8.123
 2825SOL    HW111298   7.941   9.110   8.172
 2825SOL    HW211299   7.921   8.960   8.165
 2825SOL     MW11300   7.905   9.040   8.135
 2826SOL     OW11301   8.025   9.856   9.454
 2826SOL    HW111302   8.092   9.805   9.409
 2826SOL    HW211303   7.955   9.793   9.472
 2826SOL     MW11304   8.024   9.841   9.450
 2827SOL     OW11305   9.262   1.930   1.392
 2827SOL    HW111306   9.225   1.971   1.470
 2827SOL    HW211307   9.187   1.906   1.339
 2827SOL     MW11308   9.247   1.932   1.396
 2828SOL     OW11309   8.972   5.755   3.483
 2828SOL    HW111310   8.955   5.847   3.502
 2828SOL    HW211311   8.981   5.752   3.387
 2828SOL     MW11312   8.971   5.767   3.472
 2829SOL     OW11313   8.124   2.476   0.563
 2829SOL    HW111314   8.121   2.403   0.501
 2829SOL    HW211315   8.033   2.503   0.573
 2829SOL     MW11316   8.111   2.470   0.556
 2830SOL     OW11317   3.486   4.416   6.293
 2830SOL    HW111318   3.447   4.477   6.231
 2830SOL    HW211319   3.506   4.339   6.240
 2830SOL     MW11320   3.483   4.414   6.277
 2831SOL     OW11321   6.709   8.582   5.779
 2831SOL    HW111322   6.614   8.584   5.788
 2831SOL    HW211323   6.738   8.666   5.814
 2831SOL     MW11324   6.700   8.594   5.785
 2832SOL     OW11325   5.562   5.673   1.243
 2832SOL    HW111326   5.485   5.631   1.280
 2832SOL    HW211327   5.599   5.607   1.184
 2832SOL     MW11328   5.557   5.659   1.240
 2833SOL     OW11329   2.407   5.847   3.666
 2833SOL    HW111330   2.343   5.837   3.595
 2833SOL    HW211331   2.467   5.915   3.635
 2833SOL     MW11332   2.406   5.855   3.652
 2834SOL     OW11333   0.480   0.745   5.325
 2834SOL    HW111334   0.546   0.765   5.259
 2834SOL    HW211335   0.518   0.777   5.407
 2834SOL     MW11336   0.494   0.752   5.328
 2835SOL     OW11337   4.511  10.011   0.460
 2835SOL    HW111338   4.424   9.972   0.451
 2835SOL    HW211339   4.564   9.941   0.499
 2835SOL     MW11340   4.506   9.996   0.464
 2836SOL     OW11341   2.064   0.526   4.805
 2836SOL    HW111342   2.062   0.557   4.715
 2836SOL    HW211343   2.093   0.435   4.799
 2836SOL     MW11344   2.067   0.518   4.792
 2837SOL     OW11345   5.034   1.936   2.696
 2837SOL    HW111346   4.984   1.948   2.616
 2837SOL    HW211347   5.028   2.020   2.741
 2837SOL     MW11348   5.026   1.949   2.691
 2838SOL     OW11349   6.856   4.773   6.099
 2838SOL    HW111350   6.935   4.769   6.153
 2838SOL    HW211351   6.789   4.731   6.153
 2838SOL     MW11352   6.858   4.767   6.114
 2839SOL     OW11353   8.436   9.830   0.535
 2839SOL    HW111354   8.443   9.921   0.508
 2839SOL    HW211355   8.526   9.800   0.545
 2839SOL     MW11356   8.449   9.838   0.533
 2840SOL     OW11357   9.711   1.771   7.659
 2840SOL    HW111358   9.764   1.851   7.659
 2840SOL    HW211359   9.715   1.739   7.569
 2840SOL     MW11360   9.719   1.778   7.647
 2841SOL     OW11361   6.265   2.647   6.831
 2841SOL    HW111362   6.351   2.670   6.864
 2841SOL    HW211363   6.236   2.576   6.888
 2841SOL     MW11364   6.272   2.640   6.843
 2842SOL     OW11365   8.358   4.945   0.920
 2842SOL    HW111366   8.424   4.948   0.989
 2842SOL    HW211367   8.332   4.853   0.916
 2842SOL     MW11368   8.364   4.933   0.929
 2843SOL     OW11369   7.433   8.273   8.443
 2843SOL    HW111370   7.394   8.328   8.511
 2843SOL    HW211371   7.521   8.254   8.475
 2843SOL     MW11372   7.440   8.278   8.456
 2844SOL     OW11373   1.235   2.226   8.677
 2844SOL    HW111374   1.281   2.261   8.601
 2844SOL    HW211375   1.271   2.138   8.688
 2844SOL     MW11376   1.246   2.218   8.668
 2845SOL     OW11377   4.479   3.073   1.672
 2845SOL    HW111378   4.497   3.004   1.608
 2845SOL    HW211379   4.566   3.099   1.704
 2845SOL     MW11380   4.493   3.067   1.668
 2846SOL     OW11381   8.692   4.419   7.744
 2846SOL    HW111382   8.676   4.441   7.652
 2846SOL    HW211383   8.759   4.351   7.741
 2846SOL     MW11384   8.699   4.413   7.731
 2847SOL     OW11385   4.026   3.752   4.398
 2847SOL    HW111386   3.985   3.675   4.360
 2847SOL    HW211387   4.119   3.740   4.383
 2847SOL     MW11388   4.033   3.740   4.391
 2848SOL     OW11389   2.117   5.823   5.895
 2848SOL    HW111390   2.156   5.755   5.949
 2848SOL    HW211391   2.106   5.897   5.953
 2848SOL     MW11392   2.121   5.824   5.910
 2849SOL     OW11393   1.174   4.539   6.568
 2849SOL    HW111394   1.125   4.611   6.606
 2849SOL    HW211395   1.107   4.475   6.542
 2849SOL     MW11396   1.158   4.540   6.570
 2850SOL     OW11397   3.674   1.221   0.316
 2850SOL    HW111398   3.745   1.173   0.360
 2850SOL    HW211399   3.641   1.281   0.383
 2850SOL     MW11400   3.679   1.222   0.331
 2851SOL     OW11401   2.125   2.957   2.673
 2851SOL    HW111402   2.133   2.866   2.704
 2851SOL    HW211403   2.031   2.976   2.680
 2851SOL     MW11404   2.113   2.947   2.678
 2852SOL     OW11405   1.005   8.873  10.026
 2852SOL    HW111406   1.065   8.939   9.990
 2852SOL    HW211407   0.983   8.905  10.113
 2852SOL     MW11408   1.010   8.886  10.033
 2853SOL     OW11409   7.423   5.265   5.108
 2853SOL    HW111410   7.433   5.360   5.101
 2853SOL    HW211411   7.471   5.230   5.033
 2853SOL     MW11412   7.431   5.273   5.097
 2854SOL     OW11413   3.014   0.612   8.405
 2854SOL    HW111414   3.104   0.583   8.417
 2854SOL    HW211415   2.965   0.532   8.386
 2854SOL     MW11416   3.019   0.597   8.404
 2855SOL     OW11417   2.505   8.005   3.130
 2855SOL    HW111418   2.506   7.916   3.167
 2855SOL    HW211419   2.594   8.036   3.141
 2855SOL     MW11420   2.517   7.997   3.136
 2856SOL     OW11421   1.167   9.098   8.475
 2856SOL    HW111422   1.113   9.097   8.553
 2856SOL    HW211423   1.118   9.047   8.410
 2856SOL     MW11424   1.153   9.091   8.477
 2857SOL     OW11425   4.015   5.471   1.606
 2857SOL    HW111426   4.088   5.488   1.546
 2857SOL    HW211427   4.055   5.470   1.693
 2857SOL     MW11428   4.030   5.473   1.610
 2858SOL     OW11429   7.883   8.725   3.299
 2858SOL    HW111430   7.865   8.637   3.334
 2858SOL    HW211431   7.829   8.783   3.352
 2858SOL     MW11432   7.873   8.721   3.311
 2859SOL     OW11433   7.682   5.816   0.389
 2859SOL    HW111434   7.767   5.779   0.410
 2859SOL    HW211435   7.671   5.802   0.295
 2859SOL     MW11436   7.692   5.809   0.379
 2860SOL     OW11437   5.729   5.730   7.752
 2860SOL    HW111438   5.654   5.680   7.721
 2860SOL    HW211439   5.750   5.789   7.680
 2860SOL     MW11440   5.721   5.731   7.738
 2861SOL     OW11441   3.363   1.651   3.985
 2861SOL    HW111442   3.312   1.668   4.064
 2861SOL    HW211443   3.298   1.625   3.920
 2861SOL     MW11444   3.347   1.650   3.987
 2862SOL     OW11445   4.043   7.204   3.430
 2862SOL    HW111446   3.976   7.187   3.496
 2862SOL    HW211447   4.096   7.274   3.468
 2862SOL     MW11448   4.041   7.211   3.444
 2863SOL     OW11449   4.274   9.349   5.044
 2863SOL    HW111450   4.346   9.405   5.014
 2863SOL    HW211451   4.219   9.406   5.097
 2863SOL     MW11452   4.276   9.364   5.047
 2864SOL     OW11453   7.330   4.973   7.418
 2864SOL    HW111454   7.236   4.956   7.404
 2864SOL    HW211455   7.374   4.901   7.373
 2864SOL     MW11456   7.323   4.961   7.410
 2865SOL     OW11457   3.627   0.911   4.132
 2865SOL    HW111458   3.580   0.937   4.053
 2865SOL    HW211459   3.610   0.817   4.141
 2865SOL     MW11460   3.619   0.902   4.123
 2866SOL     OW11461   4.830   8.042   5.910
 2866SOL    HW111462   4.787   7.980   5.968
 2866SOL    HW211463   4.892   7.990   5.860
 2866SOL     MW11464   4.832   8.027   5.911
 2867SOL     OW11465   6.793   7.124   0.677
 2867SOL    HW111466   6.812   7.098   0.767
 2867SOL    HW211467   6.856   7.075   0.624
 2867SOL     MW11468   6.804   7.114   0.682
 2868SOL     OW11469   7.668   2.427   7.392
 2868SOL    HW111470   7.577   2.402   7.407
 2868SOL    HW211471   7.665   2.522   7.377
 2868SOL     MW11472   7.656   2.437   7.392
 2869SOL     OW11473   2.707   8.296   5.879
 2869SOL    HW111474   2.702   8.319   5.786
 2869SOL    HW211475   2.668   8.209   5.884
 2869SOL     MW11476   2.701   8.288   5.867
 2870SOL     OW11477   1.104   8.543   5.456
 2870SOL    HW111478   1.122   8.451   5.477
 2870SOL    HW211479   1.024   8.563   5.506
 2870SOL     MW11480   1.095   8.533   5.466
 2871SOL     OW11481   9.080   7.710   1.458
 2871SOL    HW111482   9.132   7.688   1.380
 2871SOL    HW211483   8.991   7.687   1.434
 2871SOL     MW11484   9.075   7.704   1.444
 2872SOL     OW11485   4.405   3.972   9.751
 2872SOL    HW111486   4.378   3.958   9.842
 2872SOL    HW211487   4.348   3.914   9.700
 2872SOL     MW11488   4.394   3.962   9.756
 2873SOL     OW11489   6.124   7.452   4.675
 2873SOL    HW111490   6.207   7.484   4.640
 2873SOL    HW211491   6.129   7.357   4.668
 2873SOL     MW11492   6.136   7.444   4.670
 2874SOL     OW11493   8.491   7.854   3.082
 2874SOL    HW111494   8.577   7.813   3.071
 2874SOL    HW211495   8.477   7.855   3.177
 2874SOL     MW11496   8.501   7.848   3.093
 2875SOL     OW11497   9.340   0.840   9.873
 2875SOL    HW111498   9.273   0.817   9.809
 2875SOL    HW211499   9.415   0.868   9.821
 2875SOL     MW11500   9.341   0.841   9.858
 2876SOL     OW11501   1.101   4.515   8.475
 2876SOL    HW111502   1.012   4.491   8.449
 2876SOL    HW211503   1.136   4.436   8.516
 2876SOL     MW11504   1.094   4.501   8.477
 2877SOL     OW11505   7.239   5.946   7.018
 2877SOL    HW111506   7.295   6.019   7.044
 2877SOL    HW211507   7.182   5.932   7.094
 2877SOL     MW11508   7.239   5.954   7.032
 2878SOL     OW11509   6.553   1.211   6.737
 2878SOL    HW111510   6.606   1.211   6.817
 2878SOL    HW211511   6.483   1.275   6.755
 2878SOL     MW11512   6.551   1.220   6.750
 2879SOL     OW11513   7.688   8.627   2.847
 2879SOL    HW111514   7.723   8.685   2.915
 2879SOL    HW211515   7.648   8.687   2.784
 2879SOL     MW11516   7.688   8.643   2.848
 2880SOL     OW11517   7.703   9.138   3.600
 2880SOL    HW111518   7.637   9.207   3.592
 2880SOL    HW211519   7.698   9.110   3.691
 2880SOL     MW11520   7.693   9.143   3.611
 2881SOL     OW11521   2.573   6.048   1.269
 2881SOL    HW111522   2.630   6.056   1.346
 2881SOL    HW211523   2.533   5.962   1.278
 2881SOL     MW11524   2.576   6.038   1.281
 2882SOL     OW11525   7.294   7.623   0.222
 2882SOL    HW111526   7.359   7.568   0.266
 2882SOL    HW211527   7.247   7.667   0.293
 2882SOL     MW11528   7.297   7.621   0.237
 2883SOL     OW11529   7.068   9.231   9.116
 2883SOL    HW111530   7.135   9.251   9.050
 2883SOL    HW211531   7.032   9.147   9.089
 2883SOL     MW11532   7.073   9.222   9.103
 2884SOL     OW11533   9.949   4.141   9.074
 2884SOL    HW111534   9.999   4.106   9.000
 2884SOL    HW211535   9.888   4.070   9.098
 2884SOL     MW11536   9.947   4.127   9.067
 2885SOL     OW11537   9.552   0.577   7.183
 2885SOL    HW111538   9.556   0.486   7.215
 2885SOL    HW211539   9.502   0.571   7.102
 2885SOL     MW11540   9.546   0.564   7.177
 2886SOL     OW11541   1.524   3.778   9.218
 2886SOL    HW111542   1.450   3.832   9.248
 2886SOL    HW211543   1.551   3.729   9.296
 2886SOL     MW11544   1.518   3.779   9.233
 2887SOL     OW11545   3.893   3.821   4.637
 2887SOL    HW111546   3.956   3.856   4.700
 2887SOL    HW211547   3.946   3.797   4.561
 2887SOL     MW11548   3.909   3.823   4.635
 2888SOL     OW11549   4.703   4.756   6.806
 2888SOL    HW111550   4.692   4.843   6.768
 2888SOL    HW211551   4.636   4.750   6.874
 2888SOL     MW11552   4.693   4.767   6.810
 2889SOL     OW11553  10.003   2.429  10.115
 2889SOL    HW111554  10.075   2.443  10.176
 2889SOL    HW211555  10.019   2.341  10.079
 2889SOL     MW11556  10.015   2.419  10.118
 2890SOL     OW11557   6.139   9.091   5.915
 2890SOL    HW111558   6.100   9.043   5.842
 2890SOL    HW211559   6.109   9.043   5.993
 2890SOL     MW11560   6.129   9.078   5.916
 2891SOL     OW11561   8.230   1.806   6.563
 2891SOL    HW111562   8.206   1.716   6.586
 2891SOL    HW211563   8.288   1.834   6.634
 2891SOL     MW11564   8.235   1.798   6.575
 2892SOL     OW11565   1.983   5.340   3.887
 2892SOL    HW111566   1.915   5.406   3.875
 2892SOL    HW211567   2.065   5.389   3.888
 2892SOL     MW11568   1.985   5.355   3.885
 2893SOL     OW11569   7.525   2.738   9.240
 2893SOL    HW111570   7.477   2.793   9.178
 2893SOL    HW211571   7.499   2.772   9.326
 2893SOL     MW11572   7.515   2.750   9.243
 2894SOL     OW11573   6.097   6.913   2.019
 2894SOL    HW111574   6.130   6.881   2.103
 2894SOL    HW211575   6.174   6.915   1.963
 2894SOL     MW11576   6.112   6.909   2.023
 2895SOL     OW11577   9.520   3.801   9.204
 2895SOL    HW111578   9.599   3.854   9.197
 2895SOL    HW211579   9.468   3.825   9.128
 2895SOL     MW11580   9.524   3.811   9.193
 2896SOL     OW11581   7.160   6.273   5.258
 2896SOL    HW111582   7.098   6.335   5.221
 2896SOL    HW211583   7.240   6.284   5.207
 2896SOL     MW11584   7.162   6.283   5.246
 2897SOL     OW11585   1.064   4.646   2.520
 2897SOL    HW111586   0.997   4.696   2.568
 2897SOL    HW211587   1.042   4.555   2.537
 2897SOL     MW11588   1.052   4.641   2.528
 2898SOL     OW11589   2.950   1.588   2.453
 2898SOL    HW111590   2.913   1.571   2.366
 2898SOL    HW211591   2.980   1.679   2.448
 2898SOL     MW11592   2.949   1.598   2.440
 2899SOL     OW11593   6.709   8.209   9.066
 2899SOL    HW111594   6.645   8.139   9.055
 2899SOL    HW211595   6.672   8.266   9.133
 2899SOL     MW11596   6.696   8.207   9.073
 2900SOL     OW11597   6.261   8.770   3.817
 2900SOL    HW111598   6.182   8.720   3.837
 2900SOL    HW211599   6.229   8.847   3.770
 2900SOL     MW11600   6.246   8.774   3.813
 2901SOL     OW11601   9.333   2.826   3.575
 2901SOL    HW111602   9.269   2.866   3.516
 2901SOL    HW211603   9.396   2.783   3.517
 2901SOL     MW11604   9.333   2.826   3.559
 2902SOL     OW11605   9.263   2.011   3.305
 2902SOL    HW111606   9.357   1.995   3.299
 2902SOL    HW211607   9.223   1.928   3.279
 2902SOL     MW11608   9.270   1.998   3.300
 2903SOL     OW11609   9.414   0.351   6.375
 2903SOL    HW111610   9.339   0.328   6.320
 2903SOL    HW211611   9.440   0.438   6.345
 2903SOL     MW11612   9.408   0.360   6.364
 2904SOL     OW11613   6.538   7.108   0.940
 2904SOL    HW111614   6.499   7.195   0.928
 2904SOL    HW211615   6.529   7.066   0.855
 2904SOL     MW11616   6.531   7.114   0.927
 2905SOL     OW11617   6.436   1.519   0.350
 2905SOL    HW111618   6.520   1.476   0.335
 2905SOL    HW211619   6.375   1.471   0.293
 2905SOL     MW11620   6.439   1.506   0.340
 2906SOL     OW11621   0.282   7.895   5.792
 2906SOL    HW111622   0.375   7.875   5.784
 2906SOL    HW211623   0.247   7.885   5.704
 2906SOL     MW11624   0.290   7.891   5.779
 2907SOL     OW11625   0.136   8.358   2.675
 2907SOL    HW111626   0.059   8.370   2.731
 2907SOL    HW211627   0.115   8.280   2.623
 2907SOL     MW11628   0.123   8.349   2.675
 2908SOL     OW11629   9.600   2.149   7.662
 2908SOL    HW111630   9.554   2.177   7.583
 2908SOL    HW211631   9.551   2.073   7.694
 2908SOL     MW11632   9.588   2.143   7.656
 2909SOL     OW11633   9.025   2.720   8.774
 2909SOL    HW111634   9.046   2.733   8.867
 2909SOL    HW211635   9.037   2.806   8.734
 2909SOL     MW11636   9.030   2.733   8.781
 2910SOL     OW11637   6.008   5.713   7.737
 2910SOL    HW111638   5.916   5.699   7.759
 2910SOL    HW211639   6.045   5.626   7.726
 2910SOL     MW11640   6.001   5.700   7.738
 2911SOL     OW11641   2.849  10.005   1.556
 2911SOL    HW111642   2.896   9.931   1.593
 2911SOL    HW211643   2.863  10.077   1.619
 2911SOL     MW11644   2.857  10.005   1.570
 2912SOL     OW11645   9.199   4.641   1.378
 2912SOL    HW111646   9.164   4.604   1.297
 2912SOL    HW211647   9.189   4.570   1.442
 2912SOL     MW11648   9.193   4.626   1.375
 2913SOL     OW11649   6.538   4.704   5.244
 2913SOL    HW111650   6.589   4.626   5.266
 2913SOL    HW211651   6.539   4.706   5.148
 2913SOL     MW11652   6.545   4.694   5.234
 2914SOL     OW11653   0.860   9.467   5.452
 2914SOL    HW111654   0.866   9.505   5.364
 2914SOL    HW211655   0.933   9.505   5.500
 2914SOL     MW11656   0.871   9.478   5.447
 2915SOL     OW11657   9.742   2.540   2.397
 2915SOL    HW111658   9.794   2.511   2.472
 2915SOL    HW211659   9.657   2.498   2.408
 2915SOL     MW11660   9.738   2.531   2.409
 2916SOL     OW11661   3.461   9.266   1.815
 2916SOL    HW111662   3.468   9.225   1.729
 2916SOL    HW211663   3.408   9.344   1.801
 2916SOL     MW11664   3.455   9.271   1.802
 2917SOL     OW11665   5.477   1.714   2.690
 2917SOL    HW111666   5.571   1.730   2.694
 2917SOL    HW211667   5.440   1.798   2.661
 2917SOL     MW11668   5.485   1.728   2.687
 2918SOL     OW11669   7.561   8.313   5.304
 2918SOL    HW111670   7.524   8.364   5.232
 2918SOL    HW211671   7.606   8.379   5.358
 2918SOL     MW11672   7.562   8.329   5.302
 2919SOL     OW11673   7.726   7.231   1.014
 2919SOL    HW111674   7.776   7.298   0.967
 2919SOL    HW211675   7.635   7.260   1.006
 2919SOL     MW11676   7.721   7.244   1.007
 2920SOL     OW11677   1.472   0.127   0.595
 2920SOL    HW111678   1.556   0.135   0.640
 2920SOL    HW211679   1.429   0.052   0.637
 2920SOL     MW11680   1.477   0.118   0.607
 2921SOL     OW11681   6.662   8.226   6.165
 2921SOL    HW111682   6.735   8.223   6.227
 2921SOL    HW211683   6.692   8.283   6.095
 2921SOL     MW11684   6.676   8.233   6.164
 2922SOL     OW11685   6.894   2.137   9.781
 2922SOL    HW111686   6.951   2.214   9.781
 2922SOL    HW211687   6.940   2.072   9.833
 2922SOL     MW11688   6.908   2.139   9.788
 2923SOL     OW11689   7.823   7.273   4.840
 2923SOL    HW111690   7.887   7.224   4.892
 2923SOL    HW211691   7.790   7.340   4.901
 2923SOL     MW11692   7.827   7.275   4.855
 2924SOL     OW11693   9.301   8.351   1.832
 2924SOL    HW111694   9.359   8.388   1.765
 2924SOL    HW211695   9.301   8.257   1.814
 2924SOL     MW11696   9.309   8.343   1.821
 2925SOL     OW11697   0.192   6.995   6.138
 2925SOL    HW111698   0.267   7.039   6.178
 2925SOL    HW211699   0.127   6.988   6.208
 2925SOL     MW11700   0.193   7.000   6.153
 2926SOL     OW11701   0.140   9.459   3.037
 2926SOL    HW111702   0.203   9.520   2.998
 2926SOL    HW211703   0.104   9.412   2.962
 2926SOL     MW11704   0.144   9.461   3.022
 2927SOL     OW11705   7.510   7.287   4.245
 2927SOL    HW111706   7.485   7.321   4.330
 2927SOL    HW211707   7.562   7.209   4.264
 2927SOL     MW11708   7.514   7.281   4.259
 2928SOL     OW11709   6.332   6.929   1.869
 2928SOL    HW111710   6.349   7.017   1.905
 2928SOL    HW211711   6.325   6.943   1.775
 2928SOL     MW11712   6.333   6.943   1.861
 2929SOL     OW11713   0.919   8.459   1.708
 2929SOL    HW111714   0.937   8.370   1.678
 2929SOL    HW211715   0.897   8.449   1.800
 2929SOL     MW11716   0.918   8.446   1.716
 2930SOL     OW11717   2.296   5.087   9.665
 2930SOL    HW111718   2.249   5.091   9.748
 2930SOL    HW211719   2.380   5.130   9.683
 2930SOL     MW11720   2.301   5.093   9.678
 2931SOL     OW11721   0.059   0.940   9.758
 2931SOL    HW111722   0.081   0.986   9.677
 2931SOL    HW211723  -0.036   0.947   9.765
 2931SOL     MW11724   0.049   0.947   9.748
 2932SOL     OW11725   0.178   8.094   5.953
 2932SOL    HW111726   0.215   8.026   5.897
 2932SOL    HW211727   0.154   8.049   6.034
 2932SOL     MW11728   0.180   8.079   5.956
 2933SOL     OW11729   7.271   9.440   2.825
 2933SOL    HW111730   7.334   9.413   2.890
 2933SOL    HW211731   7.323   9.482   2.757
 2933SOL     MW11732   7.286   9.442   2.824
 2934SOL     OW11733   7.127   6.904   3.406
 2934SOL    HW111734   7.157   6.955   3.331
 2934SOL    HW211735   7.035   6.886   3.388
 2934SOL     MW11736   7.119   6.908   3.394
 2935SOL     OW11737   5.519  -0.006   5.390
 2935SOL    HW111738   5.546  -0.007   5.482
 2935SOL    HW211739   5.578   0.057   5.348
 2935SOL     MW11740   5.531   0.002   5.397
 2936SOL     OW11741   2.884   1.187   5.850
 2936SOL    HW111742   2.977   1.175   5.831
 2936SOL    HW211743   2.850   1.098   5.860
 2936SOL     MW11744   2.892   1.173   5.849
 2937SOL     OW11745   7.429   5.239   4.608
 2937SOL    HW111746   7.416   5.170   4.542
 2937SOL    HW211747   7.462   5.314   4.558
 2937SOL     MW11748   7.432   5.240   4.592
 2938SOL     OW11749   5.516   5.031   3.036
 2938SOL    HW111750   5.538   5.003   3.125
 2938SOL    HW211751   5.600   5.047   2.995
 2938SOL     MW11752   5.530   5.029   3.043
 2939SOL     OW11753   6.817   8.452   4.372
 2939SOL    HW111754   6.862   8.424   4.452
 2939SOL    HW211755   6.729   8.416   4.380
 2939SOL     MW11756   6.812   8.444   4.384
 2940SOL     OW11757   4.181   6.664   6.367
 2940SOL    HW111758   4.269   6.641   6.339
 2940SOL    HW211759   4.146   6.584   6.406
 2940SOL     MW11760   4.188   6.650   6.369
 2941SOL     OW11761   4.211   6.585   9.621
 2941SOL    HW111762   4.208   6.628   9.707
 2941SOL    HW211763   4.304   6.582   9.600
 2941SOL     MW11764   4.223   6.590   9.630
 2942SOL     OW11765   6.033   0.010  -0.017
 2942SOL    HW111766   6.105   0.009   0.046
 2942SOL    HW211767   6.008   0.103  -0.024
 2942SOL     MW11768   6.039   0.023  -0.010
 2943SOL     OW11769   2.590   5.827   1.576
 2943SOL    HW111770   2.636   5.910   1.565
 2943SOL    HW211771   2.658   5.760   1.567
 2943SOL     MW11772   2.606   5.829   1.574
 2944SOL     OW11773   7.581   6.362   2.266
 2944SOL    HW111774   7.574   6.271   2.294
 2944SOL    HW211775   7.634   6.358   2.186
 2944SOL     MW11776   7.587   6.349   2.259
 2945SOL     OW11777   3.088   2.052   1.988
 2945SOL    HW111778   3.040   2.092   1.915
 2945SOL    HW211779   3.104   1.962   1.959
 2945SOL     MW11780   3.084   2.046   1.974
 2946SOL     OW11781   9.331   8.705   2.150
 2946SOL    HW111782   9.341   8.749   2.065
 2946SOL    HW211783   9.237   8.695   2.160
 2946SOL     MW11784   9.320   8.710   2.140
 2947SOL     OW11785   2.410   3.580   6.059
 2947SOL    HW111786   2.315   3.576   6.069
 2947SOL    HW211787   2.435   3.490   6.037
 2947SOL     MW11788   2.401   3.567   6.058
 2948SOL     OW11789   7.073   8.881   5.929
 2948SOL    HW111790   6.986   8.843   5.922
 2948SOL    HW211791   7.063   8.954   5.990
 2948SOL     MW11792   7.060   8.886   5.936
 2949SOL     OW11793   3.082   8.686   5.545
 2949SOL    HW111794   3.051   8.733   5.467
 2949SOL    HW211795   3.175   8.671   5.528
 2949SOL     MW11796   3.090   8.691   5.532
 2950SOL     OW11797   2.932   4.371   8.131
 2950SOL    HW111798   2.882   4.427   8.190
 2950SOL    HW211799   2.951   4.426   8.056
 2950SOL     MW11800   2.928   4.386   8.129
 2951SOL     OW11801   8.774   4.188   8.049
 2951SOL    HW111802   8.815   4.212   8.132
 2951SOL    HW211803   8.688   4.228   8.052
 2951SOL     MW11804   8.768   4.197   8.061
 2952SOL     OW11805   0.096   6.374   1.068
 2952SOL    HW111806   0.081   6.311   1.138
 2952SOL    HW211807   0.156   6.330   1.008
 2952SOL     MW11808   0.102   6.360   1.069
 2953SOL     OW11809   3.822   1.028   4.290
 2953SOL    HW111810   3.902   0.999   4.247
 2953SOL    HW211811   3.752   0.994   4.234
 2953SOL     MW11812   3.823   1.020   4.276
 2954SOL     OW11813   3.149   5.989   9.384
 2954SOL    HW111814   3.162   6.065   9.327
 2954SOL    HW211815   3.170   5.914   9.329
 2954SOL     MW11816   3.154   5.989   9.369
 2955SOL     OW11817   8.382   4.215   7.242
 2955SOL    HW111818   8.315   4.258   7.189
 2955SOL    HW211819   8.334   4.174   7.314
 2955SOL     MW11820   8.367   4.215   7.244
 2956SOL     OW11821   3.643   9.793   9.883
 2956SOL    HW111822   3.548   9.809   9.880
 2956SOL    HW211823   3.674   9.848   9.955
 2956SOL     MW11824   3.634   9.803   9.892
 2957SOL     OW11825   1.931   0.206   9.271
 2957SOL    HW111826   1.969   0.275   9.325
 2957SOL    HW211827   1.846   0.188   9.311
 2957SOL     MW11828   1.924   0.213   9.284
 2958SOL     OW11829   8.581   3.202   2.752
 2958SOL    HW111830   8.591   3.181   2.659
 2958SOL    HW211831   8.649   3.151   2.796
 2958SOL     MW11832   8.592   3.192   2.746
 2959SOL     OW11833   8.730   2.486   7.888
 2959SOL    HW111834   8.824   2.469   7.893
 2959SOL    HW211835   8.720   2.575   7.921
 2959SOL     MW11836   8.741   2.496   7.893
 2960SOL     OW11837   7.513   7.894   8.230
 2960SOL    HW111838   7.453   7.967   8.232
 2960SOL    HW211839   7.459   7.817   8.247
 2960SOL     MW11840   7.498   7.893   8.232
 2961SOL     OW11841   2.892   0.397   9.638
 2961SOL    HW111842   2.840   0.411   9.559
 2961SOL    HW211843   2.904   0.302   9.643
 2961SOL     MW11844   2.886   0.386   9.628
 2962SOL     OW11845   2.003   8.568   6.606
 2962SOL    HW111846   1.919   8.526   6.587
 2962SOL    HW211847   2.068   8.500   6.588
 2962SOL     MW11848   2.000   8.553   6.601
 2963SOL     OW11849   3.806   4.029   5.688
 2963SOL    HW111850   3.777   4.069   5.770
 2963SOL    HW211851   3.730   3.978   5.658
 2963SOL     MW11852   3.792   4.027   5.695
 2964SOL     OW11853   8.807   2.646   8.938
 2964SOL    HW111854   8.866   2.663   9.011
 2964SOL    HW211855   8.860   2.662   8.860
 2964SOL     MW11856   8.822   2.650   8.937
 2965SOL     OW11857   7.583   1.470   6.459
 2965SOL    HW111858   7.580   1.557   6.500
 2965SOL    HW211859   7.591   1.489   6.365
 2965SOL     MW11860   7.583   1.484   6.452
 2966SOL     OW11861   5.269   7.416   1.101
 2966SOL    HW111862   5.341   7.379   1.049
 2966SOL    HW211863   5.228   7.480   1.044
 2966SOL     MW11864   5.273   7.419   1.086
 2967SOL     OW11865   7.502   2.687   4.597
 2967SOL    HW111866   7.542   2.695   4.511
 2967SOL    HW211867   7.561   2.734   4.656
 2967SOL     MW11868   7.515   2.695   4.593
 2968SOL     OW11869   1.688   2.918   3.628
 2968SOL    HW111870   1.729   3.000   3.655
 2968SOL    HW211871   1.603   2.944   3.593
 2968SOL     MW11872   1.682   2.932   3.627
 2969SOL     OW11873   6.951   2.598   2.243
 2969SOL    HW111874   6.944   2.518   2.191
 2969SOL    HW211875   6.861   2.628   2.254
 2969SOL     MW11876   6.938   2.591   2.237
 2970SOL     OW11877   9.820   3.006   4.543
 2970SOL    HW111878   9.730   3.037   4.535
 2970SOL    HW211879   9.856   3.055   4.618
 2970SOL     MW11880   9.813   3.017   4.552
 2971SOL     OW11881   8.990   4.983   2.883
 2971SOL    HW111882   9.024   4.894   2.893
 2971SOL    HW211883   8.896   4.971   2.874
 2971SOL     MW11884   8.982   4.969   2.883
 2972SOL     OW11885   7.313   3.843   6.013
 2972SOL    HW111886   7.311   3.937   5.995
 2972SOL    HW211887   7.361   3.836   6.096
 2972SOL     MW11888   7.319   3.854   6.022
 2973SOL     OW11889   4.019   7.747   3.103
 2973SOL    HW111890   3.986   7.672   3.153
 2973SOL    HW211891   4.084   7.787   3.161
 2973SOL     MW11892   4.023   7.742   3.118
 2974SOL     OW11893   7.678   7.539   3.070
 2974SOL    HW111894   7.662   7.593   3.148
 2974SOL    HW211895   7.768   7.559   3.046
 2974SOL     MW11896   7.688   7.549   3.078
 2975SOL     OW11897   0.856   8.610   7.442
 2975SOL    HW111898   0.775   8.648   7.408
 2975SOL    HW211899   0.841   8.515   7.437
 2975SOL     MW11900   0.843   8.602   7.437
 2976SOL     OW11901   5.810   8.786   1.394
 2976SOL    HW111902   5.740   8.723   1.409
 2976SOL    HW211903   5.773   8.871   1.418
 2976SOL     MW11904   5.796   8.789   1.399
 2977SOL     OW11905   0.927   4.269   1.655
 2977SOL    HW111906   0.999   4.223   1.613
 2977SOL    HW211907   0.948   4.265   1.749
 2977SOL     MW11908   0.939   4.263   1.662
 2978SOL     OW11909   7.470   8.841   1.779
 2978SOL    HW111910   7.562   8.840   1.751
 2978SOL    HW211911   7.452   8.750   1.803
 2978SOL     MW11912   7.480   8.829   1.779
 2979SOL     OW11913   7.898   9.333   3.587
 2979SOL    HW111914   7.836   9.260   3.589
 2979SOL    HW211915   7.977   9.297   3.547
 2979SOL     MW11916   7.900   9.319   3.582
 2980SOL     OW11917   4.169   7.003   6.125
 2980SOL    HW111918   4.143   6.911   6.128
 2980SOL    HW211919   4.249   7.004   6.071
 2980SOL     MW11920   4.176   6.991   6.118
 2981SOL     OW11921   5.794   3.283   9.595
 2981SOL    HW111922   5.743   3.340   9.653
 2981SOL    HW211923   5.786   3.323   9.508
 2981SOL     MW11924   5.786   3.296   9.591
 2982SOL     OW11925   9.815   1.502   8.129
 2982SOL    HW111926   9.872   1.449   8.185
 2982SOL    HW211927   9.867   1.520   8.051
 2982SOL     MW11928   9.829   1.497   8.126
 2983SOL     OW11929   4.956   9.752   2.736
 2983SOL    HW111930   4.875   9.801   2.722
 2983SOL    HW211931   4.936   9.693   2.809
 2983SOL     MW11932   4.942   9.750   2.744
 2984SOL     OW11933   6.358   1.719   8.071
 2984SOL    HW111934   6.398   1.776   8.137
 2984SOL    HW211935   6.401   1.634   8.083
 2984SOL     MW11936   6.369   1.715   8.081
 2985SOL     OW11937   7.461   7.942   5.605
 2985SOL    HW111938   7.554   7.949   5.627
 2985SOL    HW211939   7.442   8.022   5.556
 2985SOL     MW11940   7.471   7.954   5.601
 2986SOL     OW11941   3.102   6.967   1.095
 2986SOL    HW111942   3.179   7.023   1.089
 2986SOL    HW211943   3.121   6.894   1.036
 2986SOL     MW11944   3.115   6.965   1.086
 2987SOL     OW11945   8.618   5.333   0.431
 2987SOL    HW111946   8.637   5.416   0.387
 2987SOL    HW211947   8.550   5.292   0.376
 2987SOL     MW11948   8.611   5.338   0.417
 2988SOL     OW11949   2.661   8.129   3.721
 2988SOL    HW111950   2.588   8.168   3.769
 2988SOL    HW211951   2.648   8.157   3.631
 2988SOL     MW11952   2.650   8.138   3.715
 2989SOL     OW11953   0.707   7.620   6.763
 2989SOL    HW111954   0.761   7.605   6.841
 2989SOL    HW211955   0.769   7.612   6.690
 2989SOL     MW11956   0.723   7.617   6.764
 2990SOL     OW11957   4.161   4.031   2.009
 2990SOL    HW111958   4.176   3.942   2.041
 2990SOL    HW211959   4.233   4.047   1.948
 2990SOL     MW11960   4.173   4.021   2.005
 2991SOL     OW11961   0.405   3.503   0.806
 2991SOL    HW111962   0.329   3.461   0.765
 2991SOL    HW211963   0.393   3.596   0.789
 2991SOL     MW11964   0.393   3.510   0.798
 2992SOL     OW11965   5.022   7.594  10.175
 2992SOL    HW111966   5.093   7.600  10.111
 2992SOL    HW211967   4.962   7.528  10.140
 2992SOL     MW11968   5.024   7.586  10.162
 2993SOL     OW11969   2.790   9.614   0.160
 2993SOL    HW111970   2.711   9.578   0.120
 2993SOL    HW211971   2.775   9.607   0.254
 2993SOL     MW11972   2.778   9.608   0.167
 2994SOL     OW11973   0.225   3.906   1.910
 2994SOL    HW111974   0.304   3.904   1.856
 2994SOL    HW211975   0.164   3.961   1.861
 2994SOL     MW11976   0.228   3.913   1.896
 2995SOL     OW11977   9.918   0.855   2.354
 2995SOL    HW111978   9.902   0.944   2.321
 2995SOL    HW211979   9.836   0.831   2.398
 2995SOL     MW11980   9.905   0.864   2.356
 2996SOL     OW11981   8.922   5.598   8.864
 2996SOL    HW111982   8.941   5.504   8.863
 2996SOL    HW211983   8.915   5.622   8.772
 2996SOL     MW11984   8.924   5.588   8.852
 2997SOL     OW11985   1.610   8.108  10.082
 2997SOL    HW111986   1.592   8.187  10.132
 2997SOL    HW211987   1.525   8.079  10.049
 2997SOL     MW11988   1.596   8.114  10.084
 2998SOL     OW11989   4.022   7.839   4.759
 2998SOL    HW111990   3.945   7.885   4.793
 2998SOL    HW211991   4.033   7.764   4.818
 2998SOL     MW11992   4.013   7.835   4.771
 2999SOL     OW11993   1.249   6.554   4.004
 2999SOL    HW111994   1.168   6.598   3.976
 2999SOL    HW211995   1.219   6.479   4.055
 2999SOL     MW11996   1.234   6.550   4.007
 3000SOL     OW11997   9.166   0.760   5.360
 3000SOL    HW111998   9.260   0.745   5.349
 3000SOL    HW211999   9.152   0.850   5.332
 3000SOL     MW12000   9.177   0.770   5.355
 3001SOL     OW12001   3.675   2.668   8.146
 3001SOL    HW112002   3.588   2.682   8.183
 3001SOL    HW212003   3.672   2.710   8.060
 3001SOL     MW12004   3.663   2.676   8.140
 3002SOL     OW12005   5.986   1.331   1.585
 3002SOL    HW112006   5.944   1.271   1.524
 3002SOL    HW212007   6.079   1.307   1.582
 3002SOL     MW12008   5.993   1.320   1.576
 3003SOL     OW12009   1.400   0.384   0.506
 3003SOL    HW112010   1.306   0.401   0.499
 3003SOL    HW212011   1.406   0.296   0.542
 3003SOL     MW12012   1.388   0.375   0.510
 3004SOL     OW12013   8.851   4.786   5.512
 3004SOL    HW112014   8.771   4.819   5.470
 3004SOL    HW212015   8.820   4.716   5.569
 3004SOL     MW12016   8.836   4.781   5.514
 3005SOL     OW12017   7.890   5.677   1.627
 3005SOL    HW112018   7.801   5.711   1.639
 3005SOL    HW212019   7.946   5.754   1.631
 3005SOL     MW12020   7.885   5.692   1.629
 3006SOL     OW12021   9.882   4.833   7.545
 3006SOL    HW112022   9.846   4.767   7.486
 3006SOL    HW212023   9.915   4.782   7.620
 3006SOL     MW12024   9.881   4.817   7.547
 3007SOL     OW12025   9.186   6.071   1.842
 3007SOL    HW112026   9.186   6.067   1.938
 3007SOL    HW212027   9.260   6.016   1.816
 3007SOL     MW12028   9.196   6.063   1.851
 3008SOL     OW12029   8.532   4.149   3.030
 3008SOL    HW112030   8.603   4.145   3.094
 3008SOL    HW212031   8.564   4.098   2.956
 3008SOL     MW12032   8.546   4.142   3.029
 3009SOL     OW12033   2.015   9.669   2.269
 3009SOL    HW112034   2.108   9.684   2.254
 3009SOL    HW212035   1.985   9.747   2.315
 3009SOL     MW12036   2.023   9.682   2.273
 3010SOL     OW12037   2.706   7.131   0.908
 3010SOL    HW112038   2.734   7.220   0.885
 3010SOL    HW212039   2.614   7.141   0.931
 3010SOL     MW12040   2.697   7.144   0.908
 3011SOL     OW12041   0.957   6.375   2.652
 3011SOL    HW112042   1.032   6.426   2.684
 3011SOL    HW212043   0.963   6.381   2.557
 3011SOL     MW12044   0.968   6.383   2.643
 3012SOL     OW12045   7.343   5.031   2.505
 3012SOL    HW112046   7.342   5.081   2.424
 3012SOL    HW212047   7.276   5.072   2.560
 3012SOL     MW12048   7.334   5.043   2.502
 3013SOL     OW12049   3.775   0.417   2.766
 3013SOL    HW112050   3.724   0.488   2.806
 3013SOL    HW212051   3.846   0.401   2.829
 3013SOL     MW12052   3.778   0.425   2.780
 3014SOL     OW12053   7.090   6.578   0.268
 3014SOL    HW112054   7.181   6.566   0.240
 3014SOL    HW212055   7.039   6.525   0.207
 3014SOL     MW12056   7.095   6.569   0.256
 3015SOL     OW12057   8.564   5.960   0.777
 3015SOL    HW112058   8.514   5.992   0.702
 3015SOL    HW212059   8.600   6.040   0.817
 3015SOL     MW12060   8.562   5.975   0.772
 3016SOL     OW12061   3.116   1.902   5.286
 3016SOL    HW112062   3.098   1.907   5.380
 3016SOL    HW212063   3.211   1.894   5.280
 3016SOL     MW12064   3.126   1.902   5.298
 3017SOL     OW12065   7.089   7.563   2.012
 3017SOL    HW112066   7.183   7.558   2.028
 3017SOL    HW212067   7.081   7.559   1.916
 3017SOL     MW12068   7.101   7.562   2.001
 3018SOL     OW12069   3.284   3.580   6.170
 3018SOL    HW112070   3.374   3.609   6.163
 3018SOL    HW212071   3.250   3.583   6.081
 3018SOL     MW12072   3.291   3.584   6.157
 3019SOL     OW12073   6.823   4.560   3.388
 3019SOL    HW112074   6.779   4.489   3.340
 3019SOL    HW212075   6.752   4.607   3.432
 3019SOL     MW12076   6.808   4.557   3.387
 3020SOL     OW12077   1.798   4.851   6.282
 3020SOL    HW112078   1.766   4.921   6.225
 3020SOL    HW212079   1.720   4.797   6.299
 3020SOL     MW12080   1.783   4.853   6.277
 3021SOL     OW12081   3.682   1.480   4.252
 3021SOL    HW112082   3.742   1.553   4.267
 3021SOL    HW212083   3.601   1.505   4.297
 3021SOL     MW12084   3.679   1.493   4.260
 3022SOL     OW12085   1.012   4.933   3.770
 3022SOL    HW112086   0.937   4.895   3.726
 3022SOL    HW212087   1.028   5.016   3.725
 3022SOL     MW12088   1.004   4.939   3.758
 3023SOL     OW12089   9.237   7.607   8.247
 3023SOL    HW112090   9.327   7.624   8.217
 3023SOL    HW212091   9.194   7.693   8.242
 3023SOL     MW12092   9.244   7.621   8.242
 3024SOL     OW12093   0.941   5.058   0.366
 3024SOL    HW112094   1.024   5.086   0.328
 3024SOL    HW212095   0.965   5.018   0.450
 3024SOL     MW12096   0.955   5.056   0.372
 3025SOL     OW12097   6.264   4.322   1.704
 3025SOL    HW112098   6.216   4.379   1.764
 3025SOL    HW212099   6.306   4.257   1.761
 3025SOL     MW12100   6.263   4.321   1.720
 3026SOL     OW12101   5.313   1.737   3.523
 3026SOL    HW112102   5.253   1.689   3.467
 3026SOL    HW212103   5.289   1.829   3.512
 3026SOL     MW12104   5.302   1.743   3.514
 3027SOL     OW12105   5.835   9.131   5.221
 3027SOL    HW112106   5.859   9.092   5.136
 3027SOL    HW212107   5.910   9.187   5.243
 3027SOL     MW12108   5.848   9.133   5.212
 3028SOL     OW12109   6.221   5.975   5.367
 3028SOL    HW112110   6.161   5.902   5.381
 3028SOL    HW212111   6.202   6.036   5.439
 3028SOL     MW12112   6.211   5.973   5.379
 3029SOL     OW12113   3.017   1.857   2.426
 3029SOL    HW112114   3.072   1.909   2.367
 3029SOL    HW212115   2.966   1.922   2.475
 3029SOL     MW12116   3.018   1.873   2.425
 3030SOL     OW12117   4.243   8.345   8.107
 3030SOL    HW112118   4.266   8.437   8.094
 3030SOL    HW212119   4.325   8.298   8.096
 3030SOL     MW12120   4.257   8.351   8.104
 3031SOL     OW12121   9.647   0.697   0.066
 3031SOL    HW112122   9.624   0.729   0.154
 3031SOL    HW212123   9.728   0.743   0.045
 3031SOL     MW12124   9.655   0.708   0.075
 3032SOL     OW12125   6.613   6.455   6.857
 3032SOL    HW112126   6.606   6.435   6.764
 3032SOL    HW212127   6.707   6.459   6.874
 3032SOL     MW12128   6.625   6.453   6.847
 3033SOL     OW12129   2.317   2.023   9.453
 3033SOL    HW112130   2.310   2.118   9.443
 3033SOL    HW212131   2.377   2.011   9.526
 3033SOL     MW12132   2.324   2.034   9.461
 3034SOL     OW12133   4.799   7.288   5.840
 3034SOL    HW112134   4.733   7.349   5.807
 3034SOL    HW212135   4.880   7.315   5.797
 3034SOL     MW12136   4.801   7.300   5.830
 3035SOL     OW12137   6.933   3.056   0.245
 3035SOL    HW112138   7.005   3.068   0.184
 3035SOL    HW212139   6.971   3.007   0.318
 3035SOL     MW12140   6.948   3.051   0.246
 3036SOL     OW12141   7.238   7.570   7.394
 3036SOL    HW112142   7.225   7.637   7.328
 3036SOL    HW212143   7.152   7.528   7.404
 3036SOL     MW12144   7.225   7.573   7.387
 3037SOL     OW12145   0.753   3.970   1.368
 3037SOL    HW112146   0.729   4.039   1.429
 3037SOL    HW212147   0.676   3.913   1.364
 3037SOL     MW12148   0.740   3.971   1.376
 3038SOL     OW12149   3.396   2.641   3.130
 3038SOL    HW112150   3.362   2.578   3.067
 3038SOL    HW212151   3.491   2.636   3.120
 3038SOL     MW12152   3.404   2.632   3.120
 3039SOL     OW12153   5.968   9.812   2.805
 3039SOL    HW112154   5.980   9.846   2.894
 3039SOL    HW212155   5.991   9.719   2.811
 3039SOL     MW12156   5.973   9.804   2.817
 3040SOL     OW12157   0.343   7.755   3.533
 3040SOL    HW112158   0.305   7.808   3.463
 3040SOL    HW212159   0.269   7.735   3.590
 3040SOL     MW12160   0.328   7.759   3.531
 3041SOL     OW12161   7.563   5.360   7.503
 3041SOL    HW112162   7.613   5.388   7.427
 3041SOL    HW212163   7.585   5.424   7.571
 3041SOL     MW12164   7.573   5.373   7.502
 3042SOL     OW12165   8.589   5.212   3.023
 3042SOL    HW112166   8.560   5.121   3.020
 3042SOL    HW212167   8.509   5.263   3.035
 3042SOL     MW12168   8.575   5.206   3.025
 3043SOL     OW12169   1.729   0.120   5.641
 3043SOL    HW112170   1.731   0.025   5.652
 3043SOL    HW212171   1.821   0.147   5.650
 3043SOL     MW12172   1.742   0.111   5.644
 3044SOL     OW12173   3.454   7.251   4.198
 3044SOL    HW112174   3.511   7.190   4.244
 3044SOL    HW212175   3.415   7.199   4.127
 3044SOL     MW12176   3.456   7.236   4.194
 3045SOL     OW12177   2.003   5.156   3.442
 3045SOL    HW112178   1.951   5.189   3.515
 3045SOL    HW212179   2.049   5.233   3.409
 3045SOL     MW12180   2.002   5.171   3.447
 3046SOL     OW12181   0.495   1.141   4.915
 3046SOL    HW112182   0.411   1.098   4.897
 3046SOL    HW212183   0.494   1.219   4.859
 3046SOL     MW12184   0.484   1.146   4.905
 3047SOL     OW12185   0.034  10.172   8.389
 3047SOL    HW112186  -0.040  10.147   8.333
 3047SOL    HW212187   0.083  10.090   8.400
 3047SOL     MW12188   0.030  10.157   8.383
 3048SOL     OW12189   7.543   0.870   1.869
 3048SOL    HW112190   7.533   0.898   1.960
 3048SOL    HW212191   7.568   0.778   1.875
 3048SOL     MW12192   7.545   0.861   1.882
 3049SOL     OW12193   4.357   6.466   2.373
 3049SOL    HW112194   4.410   6.408   2.429
 3049SOL    HW212195   4.267   6.436   2.386
 3049SOL     MW12196   4.352   6.454   2.382
 3050SOL     OW12197   1.742   2.528   2.636
 3050SOL    HW112198   1.798   2.563   2.705
 3050SOL    HW212199   1.761   2.434   2.635
 3050SOL     MW12200   1.752   2.520   2.645
 3051SOL     OW12201   2.449   6.463   5.592
 3051SOL    HW112202   2.366   6.415   5.597
 3051SOL    HW212203   2.427   6.551   5.625
 3051SOL     MW12204   2.435   6.468   5.597
 3052SOL     OW12205   4.452   7.021   6.936
 3052SOL    HW112206   4.507   7.098   6.922
 3052SOL    HW212207   4.497   6.970   7.003
 3052SOL     MW12208   4.465   7.025   6.943
 3053SOL     OW12209   2.750   2.168   7.465
 3053SOL    HW112210   2.732   2.248   7.415
 3053SOL    HW212211   2.846   2.161   7.464
 3053SOL     MW12212   2.761   2.178   7.458
 3054SOL     OW12213   9.183   6.851   8.397
 3054SOL    HW112214   9.214   6.941   8.397
 3054SOL    HW212215   9.094   6.856   8.432
 3054SOL     MW12216   9.175   6.863   8.402
 3055SOL     OW12217   4.148   9.116   5.450
 3055SOL    HW112218   4.186   9.119   5.362
 3055SOL    HW212219   4.224   9.114   5.509
 3055SOL     MW12220   4.164   9.116   5.446
 3056SOL     OW12221   8.268   3.281   4.638
 3056SOL    HW112222   8.342   3.296   4.580
 3056SOL    HW212223   8.192   3.281   4.580
 3056SOL     MW12224   8.267   3.283   4.622
 3057SOL     OW12225   3.244  10.008   1.367
 3057SOL    HW112226   3.268   9.968   1.451
 3057SOL    HW212227   3.303   9.967   1.304
 3057SOL     MW12228   3.255   9.997   1.370
 3058SOL     OW12229   0.923   3.561   3.002
 3058SOL    HW112230   1.009   3.554   2.961
 3058SOL    HW212231   0.928   3.503   3.078
 3058SOL     MW12232   0.935   3.552   3.007
 3059SOL     OW12233   9.346   9.558   5.530
 3059SOL    HW112234   9.398   9.480   5.510
 3059SOL    HW212235   9.387   9.594   5.609
 3059SOL     MW12236   9.359   9.553   5.538
 3060SOL     OW12237   7.248   3.682   3.813
 3060SOL    HW112238   7.304   3.751   3.776
 3060SOL    HW212239   7.162   3.723   3.820
 3060SOL     MW12240   7.244   3.697   3.809
 3061SOL     OW12241   1.536   3.591   5.076
 3061SOL    HW112242   1.614   3.538   5.091
 3061SOL    HW212243   1.547   3.626   4.988
 3061SOL     MW12244   1.548   3.589   5.066
 3062SOL     OW12245   5.553   2.289   3.184
 3062SOL    HW112246   5.520   2.365   3.231
 3062SOL    HW212247   5.642   2.278   3.215
 3062SOL     MW12248   5.560   2.298   3.194
 3063SOL     OW12249   0.603   7.346   9.827
 3063SOL    HW112250   0.682   7.351   9.772
 3063SOL    HW212251   0.546   7.284   9.782
 3063SOL     MW12252   0.606   7.338   9.814
 3064SOL     OW12253   2.851   1.623   8.498
 3064SOL    HW112254   2.789   1.584   8.560
 3064SOL    HW212255   2.880   1.703   8.541
 3064SOL     MW12256   2.847   1.628   8.512
 3065SOL     OW12257   3.851   1.245   3.380
 3065SOL    HW112258   3.918   1.201   3.432
 3065SOL    HW212259   3.792   1.283   3.446
 3065SOL     MW12260   3.852   1.244   3.396
 3066SOL     OW12261   2.629   7.079   7.831
 3066SOL    HW112262   2.704   7.035   7.790
 3066SOL    HW212263   2.668   7.139   7.895
 3066SOL     MW12264   2.645   7.081   7.834
 3067SOL     OW12265   2.272   7.358   5.395
 3067SOL    HW112266   2.224   7.322   5.320
 3067SOL    HW212267   2.362   7.368   5.362
 3067SOL     MW12268   2.278   7.354   5.380
 3068SOL     OW12269   1.547   6.689   7.691
 3068SOL    HW112270   1.638   6.699   7.718
 3068SOL    HW212271   1.496   6.716   7.767
 3068SOL     MW12272   1.552   6.694   7.705
 3069SOL     OW12273   4.493   8.718   6.543
 3069SOL    HW112274   4.494   8.779   6.469
 3069SOL    HW212275   4.400   8.698   6.556
 3069SOL     MW12276   4.481   8.723   6.535
 3070SOL     OW12277   6.310   3.270   1.306
 3070SOL    HW112278   6.256   3.347   1.292
 3070SOL    HW212279   6.259   3.216   1.367
 3070SOL     MW12280   6.296   3.273   1.313
 3071SOL     OW12281   6.551   9.390   5.448
 3071SOL    HW112282   6.466   9.354   5.474
 3071SOL    HW212283   6.530   9.448   5.374
 3071SOL     MW12284   6.536   9.393   5.442
 3072SOL     OW12285   4.517   5.806   8.061
 3072SOL    HW112286   4.579   5.768   7.999
 3072SOL    HW212287   4.564   5.807   8.145
 3072SOL     MW12288   4.532   5.801   8.064
 3073SOL     OW12289   4.990   1.610   1.080
 3073SOL    HW112290   5.076   1.608   1.121
 3073SOL    HW212291   5.007   1.608   0.986
 3073SOL     MW12292   5.004   1.610   1.073
 3074SOL     OW12293   5.589   0.485   3.415
 3074SOL    HW112294   5.646   0.428   3.362
 3074SOL    HW212295   5.504   0.482   3.370
 3074SOL     MW12296   5.585   0.477   3.402
 3075SOL     OW12297   0.229   2.621   9.425
 3075SOL    HW112298   0.264   2.550   9.371
 3075SOL    HW212299   0.224   2.696   9.366
 3075SOL     MW12300   0.233   2.621   9.410
 3076SOL     OW12301   1.257   5.892   0.083
 3076SOL    HW112302   1.220   5.806   0.063
 3076SOL    HW212303   1.280   5.887   0.175
 3076SOL     MW12304   1.255   5.879   0.092
 3077SOL     OW12305   6.651   2.727   0.382
 3077SOL    HW112306   6.606   2.642   0.378
 3077SOL    HW212307   6.584   2.788   0.412
 3077SOL     MW12308   6.636   2.724   0.386
 3078SOL     OW12309   4.814   6.942   7.270
 3078SOL    HW112310   4.802   7.030   7.305
 3078SOL    HW212311   4.811   6.885   7.346
 3078SOL     MW12312   4.812   6.946   7.285
 3079SOL     OW12313   8.308   4.397   7.541
 3079SOL    HW112314   8.277   4.310   7.514
 3079SOL    HW212315   8.231   4.439   7.580
 3079SOL     MW12316   8.293   4.391   7.542
 3080SOL     OW12317   4.653   4.373   0.918
 3080SOL    HW112318   4.680   4.416   0.999
 3080SOL    HW212319   4.701   4.419   0.849
 3080SOL     MW12320   4.663   4.385   0.920
 3081SOL     OW12321   2.177   7.835   4.246
 3081SOL    HW112322   2.085   7.826   4.272
 3081SOL    HW212323   2.182   7.793   4.160
 3081SOL     MW12324   2.165   7.828   4.238
 3082SOL     OW12325   1.009   3.148   4.923
 3082SOL    HW112326   0.942   3.094   4.965
 3082SOL    HW212327   1.048   3.092   4.856
 3082SOL     MW12328   1.005   3.133   4.919
 3083SOL     OW12329   4.235   5.528   1.443
 3083SOL    HW112330   4.314   5.555   1.490
 3083SOL    HW212331   4.221   5.598   1.378
 3083SOL     MW12332   4.244   5.541   1.441
 3084SOL     OW12333   2.985   5.933   4.338
 3084SOL    HW112334   2.917   5.888   4.288
 3084SOL    HW212335   3.045   5.966   4.272
 3084SOL     MW12336   2.984   5.931   4.322
 3085SOL     OW12337   0.984   0.294   9.900
 3085SOL    HW112338   0.985   0.280   9.994
 3085SOL    HW212339   0.968   0.388   9.890
 3085SOL     MW12340   0.982   0.305   9.911
 3086SOL     OW12341   1.786   3.797   0.848
 3086SOL    HW112342   1.716   3.736   0.868
 3086SOL    HW212343   1.764   3.831   0.761
 3086SOL     MW12344   1.774   3.794   0.839
 3087SOL     OW12345   2.137   3.229   7.932
 3087SOL    HW112346   2.150   3.301   7.994
 3087SOL    HW212347   2.225   3.193   7.919
 3087SOL     MW12348   2.150   3.233   7.939
 3088SOL     OW12349   0.212   1.006   8.425
 3088SOL    HW112350   0.225   1.100   8.412
 3088SOL    HW212351   0.124   0.999   8.461
 3088SOL     MW12352   0.202   1.018   8.428
 3089SOL     OW12353   3.047   0.736   6.511
 3089SOL    HW112354   3.124   0.720   6.456
 3089SOL    HW212355   3.051   0.829   6.531
 3089SOL     MW12356   3.058   0.746   6.506
 3090SOL     OW12357  10.013   5.995   1.396
 3090SOL    HW112358   9.946   6.040   1.448
 3090SOL    HW212359   9.983   5.904   1.393
 3090SOL     MW12360  10.000   5.989   1.403
 3091SOL     OW12361   3.465   3.092   6.098
 3091SOL    HW112362   3.405   3.018   6.105
 3091SOL    HW212363   3.416   3.166   6.135
 3091SOL     MW12364   3.450   3.092   6.104
 3092SOL     OW12365  10.024   4.524   9.372
 3092SOL    HW112366   9.970   4.593   9.411
 3092SOL    HW212367   9.962   4.457   9.345
 3092SOL     MW12368  10.009   4.524   9.374
 3093SOL     OW12369   8.463   7.647   8.001
 3093SOL    HW112370   8.554   7.619   8.013
 3093SOL    HW212371   8.411   7.578   8.042
 3093SOL     MW12372   8.468   7.634   8.008
 3094SOL     OW12373   9.358  10.011   7.126
 3094SOL    HW112374   9.400   9.958   7.193
 3094SOL    HW212375   9.274  10.037   7.164
 3094SOL     MW12376   9.352  10.007   7.140
 3095SOL     OW12377   9.721   3.991   9.136
 3095SOL    HW112378   9.697   4.071   9.182
 3095SOL    HW212379   9.683   4.000   9.049
 3095SOL     MW12380   9.713   4.003   9.130
 3096SOL     OW12381   3.967   5.098   5.366
 3096SOL    HW112382   4.016   5.107   5.284
 3096SOL    HW212383   3.979   5.182   5.411
 3096SOL     MW12384   3.975   5.111   5.361
 3097SOL     OW12385   0.462   1.236   8.605
 3097SOL    HW112386   0.461   1.267   8.696
 3097SOL    HW212387   0.458   1.141   8.612
 3097SOL     MW12388   0.461   1.228   8.618
 3098SOL     OW12389   5.411   4.811   6.280
 3098SOL    HW112390   5.488   4.769   6.318
 3098SOL    HW212391   5.355   4.832   6.355
 3098SOL     MW12392   5.414   4.808   6.295
 3099SOL     OW12393   8.510   1.158   0.526
 3099SOL    HW112394   8.445   1.089   0.538
 3099SOL    HW212395   8.580   1.135   0.586
 3099SOL     MW12396   8.510   1.146   0.536
 3100SOL     OW12397   1.408   1.054   1.407
 3100SOL    HW112398   1.499   1.025   1.401
 3100SOL    HW212399   1.367   0.994   1.469
 3100SOL     MW12400   1.414   1.042   1.415
 3101SOL     OW12401   0.877   4.430   4.180
 3101SOL    HW112402   0.940   4.498   4.206
 3101SOL    HW212403   0.891   4.420   4.086
 3101SOL     MW12404   0.888   4.438   4.171
 3102SOL     OW12405   3.008   6.378   5.096
 3102SOL    HW112406   3.019   6.421   5.011
 3102SOL    HW212407   3.072   6.420   5.153
 3102SOL     MW12408   3.018   6.389   5.092
 3103SOL     OW12409   0.834   5.333   3.548
 3103SOL    HW112410   0.781   5.310   3.471
 3103SOL    HW212411   0.773   5.378   3.606
 3103SOL     MW12412   0.818   5.336   3.545
 3104SOL     OW12413   1.078   9.837   9.423
 3104SOL    HW112414   1.100   9.807   9.511
 3104SOL    HW212415   1.002   9.784   9.399
 3104SOL     MW12416   1.071   9.826   9.432
 3105SOL     OW12417   6.460   5.552   9.368
 3105SOL    HW112418   6.495   5.556   9.279
 3105SOL    HW212419   6.466   5.459   9.392
 3105SOL     MW12420   6.466   5.540   9.360
 3106SOL     OW12421   4.546   6.359   2.550
 3106SOL    HW112422   4.571   6.451   2.539
 3106SOL    HW212423   4.627   6.310   2.535
 3106SOL     MW12424   4.560   6.365   2.546
 3107SOL     OW12425   8.126  10.055   9.283
 3107SOL    HW112426   8.150   9.998   9.211
 3107SOL    HW212427   8.070  10.001   9.339
 3107SOL     MW12428   8.122  10.040   9.281
 3108SOL     OW12429   8.903   0.031   0.847
 3108SOL    HW112430   8.939  -0.050   0.812
 3108SOL    HW212431   8.866   0.006   0.932
 3108SOL     MW12432   8.903   0.016   0.854
 3109SOL     OW12433   2.731   3.981   9.487
 3109SOL    HW112434   2.661   3.940   9.436
 3109SOL    HW212435   2.754   3.915   9.553
 3109SOL     MW12436   2.725   3.966   9.489
 3110SOL     OW12437   3.585   3.890   5.597
 3110SOL    HW112438   3.593   3.809   5.547
 3110SOL    HW212439   3.537   3.950   5.540
 3110SOL     MW12440   3.580   3.887   5.583
 3111SOL     OW12441   2.733   6.043   5.623
 3111SOL    HW112442   2.707   6.134   5.641
 3111SOL    HW212443   2.772   6.046   5.536
 3111SOL     MW12444   2.735   6.056   5.614
 3112SOL     OW12445   4.062   6.724   8.725
 3112SOL    HW112446   4.013   6.738   8.806
 3112SOL    HW212447   4.000   6.749   8.656
 3112SOL     MW12448   4.047   6.730   8.727
 3113SOL     OW12449   8.626   3.153   2.484
 3113SOL    HW112450   8.648   3.237   2.445
 3113SOL    HW212451   8.635   3.091   2.411
 3113SOL     MW12452   8.630   3.156   2.469
 3114SOL     OW12453   1.793   5.622   2.627
 3114SOL    HW112454   1.790   5.649   2.719
 3114SOL    HW212455   1.715   5.568   2.615
 3114SOL     MW12456   1.782   5.618   2.638
 3115SOL     OW12457   2.362   2.809   2.935
 3115SOL    HW112458   2.369   2.894   2.890
 3115SOL    HW212459   2.377   2.829   3.027
 3115SOL     MW12460   2.365   2.823   2.941
 3116SOL     OW12461   0.215   3.626   8.967
 3116SOL    HW112462   0.263   3.654   9.045
 3116SOL    HW212463   0.261   3.548   8.936
 3116SOL     MW12464   0.227   3.619   8.973
 3117SOL     OW12465   2.209   3.875   2.297
 3117SOL    HW112466   2.287   3.819   2.295
 3117SOL    HW212467   2.218   3.933   2.221
 3117SOL     MW12468   2.221   3.875   2.287
 3118SOL     OW12469   2.867   7.947   3.750
 3118SOL    HW112470   2.793   8.007   3.742
 3118SOL    HW212471   2.932   7.994   3.802
 3118SOL     MW12472   2.866   7.961   3.756
 3119SOL     OW12473   7.960   8.859   6.786
 3119SOL    HW112474   8.001   8.892   6.706
 3119SOL    HW212475   7.955   8.764   6.774
 3119SOL     MW12476   7.965   8.851   6.774
 3120SOL     OW12477   7.422   1.853   3.419
 3120SOL    HW112478   7.341   1.884   3.459
 3120SOL    HW212479   7.398   1.832   3.329
 3120SOL     MW12480   7.408   1.855   3.412
 3121SOL     OW12481   4.924   0.523   8.405
 3121SOL    HW112482   4.842   0.474   8.416
 3121SOL    HW212483   4.924   0.586   8.476
 3121SOL     MW12484   4.913   0.525   8.416
 3122SOL     OW12485   8.012   3.079   1.715
 3122SOL    HW112486   7.980   3.065   1.626
 3122SOL    HW212487   8.049   2.994   1.740
 3122SOL     MW12488   8.013   3.065   1.707
 3123SOL     OW12489   5.838   5.622   0.288
 3123SOL    HW112490   5.829   5.699   0.344
 3123SOL    HW212491   5.796   5.648   0.206
 3123SOL     MW12492   5.831   5.636   0.285
 3124SOL     OW12493   1.086   4.015   7.205
 3124SOL    HW112494   1.063   3.923   7.191
 3124SOL    HW212495   1.181   4.017   7.200
 3124SOL     MW12496   1.095   4.003   7.203
 3125SOL     OW12497   1.379   8.023   9.958
 3125SOL    HW112498   1.345   7.935   9.970
 3125SOL    HW212499   1.401   8.028   9.865
 3125SOL     MW12500   1.377   8.012   9.947
 3126SOL     OW12501   2.103   2.239   2.161
 3126SOL    HW112502   2.048   2.171   2.121
 3126SOL    HW212503   2.189   2.197   2.171
 3126SOL     MW12504   2.107   2.224   2.157
 3127SOL     OW12505   6.540   2.350   8.392
 3127SOL    HW112506   6.525   2.436   8.353
 3127SOL    HW212507   6.620   2.361   8.443
 3127SOL     MW12508   6.549   2.363   8.394
 3128SOL     OW12509   9.142   4.455   1.570
 3128SOL    HW112510   9.092   4.498   1.639
 3128SOL    HW212511   9.111   4.364   1.570
 3128SOL     MW12512   9.131   4.448   1.579
 3129SOL     OW12513   1.611   1.800   6.353
 3129SOL    HW112514   1.517   1.812   6.337
 3129SOL    HW212515   1.627   1.708   6.331
 3129SOL     MW12516   1.600   1.789   6.348
 3130SOL     OW12517   0.160   7.774   0.970
 3130SOL    HW112518   0.164   7.854   0.917
 3130SOL    HW212519   0.086   7.725   0.934
 3130SOL     MW12520   0.151   7.778   0.958
 3131SOL     OW12521   3.282   9.076   1.917
 3131SOL    HW112522   3.341   9.146   1.890
 3131SOL    HW212523   3.330   9.030   1.985
 3131SOL     MW12524   3.296   9.079   1.922
 3132SOL     OW12525   3.222   9.702   3.866
 3132SOL    HW112526   3.190   9.626   3.916
 3132SOL    HW212527   3.144   9.741   3.828
 3132SOL     MW12528   3.207   9.697   3.868
 3133SOL     OW12529   0.337   9.210   8.454
 3133SOL    HW112530   0.428   9.212   8.423
 3133SOL    HW212531   0.308   9.120   8.440
 3133SOL     MW12532   0.345   9.198   8.448
 3134SOL     OW12533   3.699   3.887   2.856
 3134SOL    HW112534   3.646   3.912   2.932
 3134SOL    HW212535   3.784   3.864   2.893
 3134SOL     MW12536   3.703   3.887   2.871
 3135SOL     OW12537   8.978   5.326   8.877
 3135SOL    HW112538   9.045   5.257   8.883
 3135SOL    HW212539   8.910   5.299   8.938
 3135SOL     MW12540   8.978   5.313   8.886
 3136SOL     OW12541   5.179   0.685   3.209
 3136SOL    HW112542   5.162   0.614   3.147
 3136SOL    HW212543   5.201   0.760   3.154
 3136SOL     MW12544   5.180   0.685   3.193
 3137SOL     OW12545   2.634   0.868   4.670
 3137SOL    HW112546   2.710   0.918   4.640
 3137SOL    HW212547   2.653   0.777   4.646
 3137SOL     MW12548   2.647   0.862   4.663
 3138SOL     OW12549   7.667   1.285   1.325
 3138SOL    HW112550   7.598   1.225   1.356
 3138SOL    HW212551   7.727   1.228   1.277
 3138SOL     MW12552   7.665   1.269   1.323
 3139SOL     OW12553   5.115   9.972   5.218
 3139SOL    HW112554   5.144   9.887   5.249
 3139SOL    HW212555   5.079  10.015   5.296
 3139SOL     MW12556   5.114   9.967   5.232
 3140SOL     OW12557   0.126   2.060   0.833
 3140SOL    HW112558   0.053   2.073   0.772
 3140SOL    HW212559   0.084   2.051   0.918
 3140SOL     MW12560   0.110   2.060   0.836
 3141SOL     OW12561   6.795   4.315   7.967
 3141SOL    HW112562   6.750   4.267   8.037
 3141SOL    HW212563   6.728   4.375   7.933
 3141SOL     MW12564   6.780   4.317   7.972
 3142SOL     OW12565   4.912   1.343   1.062
 3142SOL    HW112566   4.931   1.436   1.073
 3142SOL    HW212567   4.840   1.341   0.999
 3142SOL     MW12568   4.905   1.355   1.055
 3143SOL     OW12569   1.716   0.846   5.005
 3143SOL    HW112570   1.758   0.841   4.919
 3143SOL    HW212571   1.754   0.774   5.055
 3143SOL     MW12572   1.727   0.836   5.000
 3144SOL     OW12573   1.646   3.717   8.034
 3144SOL    HW112574   1.685   3.660   8.101
 3144SOL    HW212575   1.612   3.656   7.968
 3144SOL     MW12576   1.647   3.701   8.034
 3145SOL     OW12577   3.731   8.169   6.370
 3145SOL    HW112578   3.643   8.135   6.386
 3145SOL    HW212579   3.768   8.110   6.305
 3145SOL     MW12580   3.724   8.156   6.363
 3146SOL     OW12581   7.803   7.276   3.920
 3146SOL    HW112582   7.833   7.277   3.829
 3146SOL    HW212583   7.855   7.344   3.963
 3146SOL     MW12584   7.814   7.286   3.913
 3147SOL     OW12585   8.939   2.540   6.685
 3147SOL    HW112586   8.931   2.520   6.591
 3147SOL    HW212587   8.849   2.542   6.717
 3147SOL     MW12588   8.926   2.538   6.676
 3148SOL     OW12589   8.717   1.090   8.695
 3148SOL    HW112590   8.728   1.043   8.613
 3148SOL    HW212591   8.664   1.031   8.749
 3148SOL     MW12592   8.711   1.076   8.691
 3149SOL     OW12593   8.286   3.406   3.545
 3149SOL    HW112594   8.318   3.470   3.609
 3149SOL    HW212595   8.243   3.338   3.598
 3149SOL     MW12596   8.284   3.405   3.561
 3150SOL     OW12597   4.419   0.937   0.066
 3150SOL    HW112598   4.496   0.989   0.091
 3150SOL    HW212599   4.450   0.884  -0.007
 3150SOL     MW12600   4.434   0.937   0.060
 3151SOL     OW12601   1.372   2.347   8.466
 3151SOL    HW112602   1.386   2.440   8.486
 3151SOL    HW212603   1.406   2.337   8.377
 3151SOL     MW12604   1.379   2.358   8.457
 3152SOL     OW12605   8.026   7.619   0.986
 3152SOL    HW112606   8.114   7.636   0.955
 3152SOL    HW212607   7.999   7.700   1.029
 3152SOL     MW12608   8.034   7.632   0.987
 3153SOL     OW12609   7.276   6.103   9.300
 3153SOL    HW112610   7.257   6.141   9.386
 3153SOL    HW212611   7.370   6.086   9.302
 3153SOL     MW12612   7.286   6.106   9.312
 3154SOL     OW12613  10.084   4.903   9.200
 3154SOL    HW112614  10.141   4.830   9.223
 3154SOL    HW212615  10.058   4.886   9.110
 3154SOL     MW12616  10.088   4.891   9.191
 3155SOL     OW12617   1.872   4.485   3.731
 3155SOL    HW112618   1.934   4.440   3.789
 3155SOL    HW212619   1.901   4.464   3.643
 3155SOL     MW12620   1.884   4.476   3.727
 3156SOL     OW12621   8.680   5.581   0.312
 3156SOL    HW112622   8.772   5.594   0.292
 3156SOL    HW212623   8.633   5.618   0.237
 3156SOL     MW12624   8.686   5.588   0.299
 3157SOL     OW12625   0.570   6.837   7.401
 3157SOL    HW112626   0.654   6.809   7.367
 3157SOL    HW212627   0.513   6.845   7.324
 3157SOL     MW12628   0.573   6.835   7.386
 3158SOL     OW12629   9.009   3.373   1.028
 3158SOL    HW112630   8.945   3.428   0.982
 3158SOL    HW212631   9.014   3.411   1.116
 3158SOL     MW12632   9.001   3.385   1.034
 3159SOL     OW12633   3.701   7.228   4.838
 3159SOL    HW112634   3.669   7.301   4.891
 3159SOL    HW212635   3.661   7.151   4.877
 3159SOL     MW12636   3.691   7.228   4.850
 3160SOL     OW12637   3.196   0.133   5.187
 3160SOL    HW112638   3.220   0.192   5.258
 3160SOL    HW212639   3.110   0.164   5.158
 3160SOL     MW12640   3.188   0.145   5.193
 3161SOL     OW12641   6.634   7.001   7.550
 3161SOL    HW112642   6.545   7.032   7.565
 3161SOL    HW212643   6.626   6.906   7.544
 3161SOL     MW12644   6.621   6.992   7.551
 3162SOL     OW12645   0.530   5.021   8.891
 3162SOL    HW112646   0.542   5.018   8.796
 3162SOL    HW212647   0.439   4.992   8.904
 3162SOL     MW12648   0.519   5.017   8.880
 3163SOL     OW12649   8.605   4.952   0.636
 3163SOL    HW112650   8.575   4.934   0.547
 3163SOL    HW212651   8.525   4.966   0.686
 3163SOL     MW12652   8.590   4.952   0.631
 3164SOL     OW12653   8.380   0.545   0.204
 3164SOL    HW112654   8.318   0.474   0.187
 3164SOL    HW212655   8.366   0.607   0.132
 3164SOL     MW12656   8.370   0.544   0.192
 3165SOL     OW12657   5.371   9.754   2.566
 3165SOL    HW112658   5.314   9.802   2.625
 3165SOL    HW212659   5.440   9.816   2.543
 3165SOL     MW12660   5.373   9.769   2.571
 3166SOL     OW12661   8.639   3.995   2.823
 3166SOL    HW112662   8.614   3.914   2.778
 3166SOL    HW212663   8.709   4.031   2.769
 3166SOL     MW12664   8.645   3.989   2.810
 3167SOL     OW12665   8.292   9.729   9.736
 3167SOL    HW112666   8.271   9.739   9.829
 3167SOL    HW212667   8.265   9.811   9.696
 3167SOL     MW12668   8.286   9.741   9.743
 3168SOL     OW12669   5.155   9.960   4.574
 3168SOL    HW112670   5.069   9.995   4.596
 3168SOL    HW212671   5.157   9.873   4.614
 3168SOL     MW12672   5.144   9.953   4.582
 3169SOL     OW12673   6.968   9.865   1.121
 3169SOL    HW112674   6.984   9.771   1.124
 3169SOL    HW212675   6.968   9.887   1.028
 3169SOL     MW12676   6.970   9.855   1.109
 3170SOL     OW12677   5.183   0.441   3.071
 3170SOL    HW112678   5.125   0.365   3.077
 3170SOL    HW212679   5.246   0.430   3.142
 3170SOL     MW12680   5.183   0.430   3.081
 3171SOL     OW12681   1.857   5.768   5.830
 3171SOL    HW112682   1.950   5.785   5.844
 3171SOL    HW212683   1.853   5.674   5.810
 3171SOL     MW12684   1.869   5.757   5.829
 3172SOL     OW12685   6.034   6.655   8.123
 3172SOL    HW112686   6.082   6.643   8.205
 3172SOL    HW212687   6.030   6.568   8.084
 3172SOL     MW12688   6.040   6.642   8.129
 3173SOL     OW12689   8.154   5.825   6.431
 3173SOL    HW112690   8.213   5.791   6.499
 3173SOL    HW212691   8.136   5.749   6.376
 3173SOL     MW12692   8.160   5.810   6.433
 3174SOL     OW12693   3.436   6.439   0.709
 3174SOL    HW112694   3.477   6.524   0.692
 3174SOL    HW212695   3.492   6.376   0.663
 3174SOL     MW12696   3.449   6.442   0.700
 3175SOL     OW12697   7.127   5.310   2.057
 3175SOL    HW112698   7.036   5.290   2.035
 3175SOL    HW212699   7.177   5.240   2.015
 3175SOL     MW12700   7.121   5.298   2.048
 3176SOL     OW12701   2.546   3.365   2.445
 3176SOL    HW112702   2.608   3.437   2.433
 3176SOL    HW212703   2.472   3.387   2.388
 3176SOL     MW12704   2.544   3.377   2.435
 3177SOL     OW12705   7.639   5.453   1.154
 3177SOL    HW112706   7.556   5.499   1.168
 3177SOL    HW212707   7.690   5.473   1.233
 3177SOL     MW12708   7.635   5.462   1.167
 3178SOL     OW12709   1.967   5.132   5.512
 3178SOL    HW112710   2.032   5.085   5.460
 3178SOL    HW212711   1.884   5.114   5.469
 3178SOL     MW12712   1.965   5.123   5.499
 3179SOL     OW12713   5.711   1.335   9.727
 3179SOL    HW112714   5.679   1.425   9.715
 3179SOL    HW212715   5.746   1.311   9.642
 3179SOL     MW12716   5.711   1.344   9.714
 3180SOL     OW12717   1.595   0.194   9.100
 3180SOL    HW112718   1.680   0.193   9.056
 3180SOL    HW212719   1.544   0.261   9.053
 3180SOL     MW12720   1.599   0.203   9.088
 3181SOL     OW12721   4.709   1.434   8.408
 3181SOL    HW112722   4.789   1.428   8.355
 3181SOL    HW212723   4.703   1.527   8.431
 3181SOL     MW12724   4.719   1.446   8.404
 3182SOL     OW12725   0.915   9.632   9.313
 3182SOL    HW112726   0.864   9.622   9.233
 3182SOL    HW212727   1.005   9.610   9.288
 3182SOL     MW12728   0.921   9.628   9.299
 3183SOL     OW12729   2.709   0.782   2.725
 3183SOL    HW112730   2.668   0.761   2.809
 3183SOL    HW212731   2.637   0.817   2.672
 3183SOL     MW12732   2.694   0.784   2.729
 3184SOL     OW12733   5.691   9.650   1.070
 3184SOL    HW112734   5.707   9.641   0.976
 3184SOL    HW212735   5.645   9.733   1.078
 3184SOL     MW12736   5.687   9.660   1.058
 3185SOL     OW12737   2.530   2.524   1.068
 3185SOL    HW112738   2.497   2.440   1.035
 3185SOL    HW212739   2.581   2.501   1.145
 3185SOL     MW12740   2.532   2.510   1.074
 3186SOL     OW12741   1.781   1.177   7.908
 3186SOL    HW112742   1.837   1.147   7.980
 3186SOL    HW212743   1.827   1.253   7.872
 3186SOL     MW12744   1.795   1.183   7.913
 3187SOL     OW12745   6.666   9.243   6.858
 3187SOL    HW112746   6.668   9.325   6.907
 3187SOL    HW212747   6.585   9.247   6.808
 3187SOL     MW12748   6.656   9.254   6.857
 3188SOL     OW12749   8.003   3.285   8.206
 3188SOL    HW112750   8.072   3.225   8.234
 3188SOL    HW212751   8.027   3.369   8.245
 3188SOL     MW12752   8.015   3.288   8.215
 3189SOL     OW12753   7.993   2.704   6.902
 3189SOL    HW112754   8.018   2.633   6.843
 3189SOL    HW212755   7.901   2.721   6.882
 3189SOL     MW12756   7.984   2.697   6.891
 3190SOL     OW12757   4.911   8.295   0.484
 3190SOL    HW112758   4.986   8.238   0.466
 3190SOL    HW212759   4.873   8.312   0.398
 3190SOL     MW12760   4.916   8.290   0.470
 3191SOL     OW12761   9.057   0.248   0.919
 3191SOL    HW112762   9.004   0.172   0.894
 3191SOL    HW212763   9.046   0.310   0.847
 3191SOL     MW12764   9.048   0.246   0.906
 3192SOL     OW12765   1.897   6.843   4.678
 3192SOL    HW112766   1.902   6.781   4.605
 3192SOL    HW212767   1.989   6.857   4.703
 3192SOL     MW12768   1.910   6.836   4.671
 3193SOL     OW12769   3.661   0.430   7.027
 3193SOL    HW112770   3.569   0.449   7.013
 3193SOL    HW212771   3.662   0.360   7.092
 3193SOL     MW12772   3.649   0.423   7.034
 3194SOL     OW12773   2.803   1.467   2.940
 3194SOL    HW112774   2.802   1.464   2.844
 3194SOL    HW212775   2.893   1.442   2.963
 3194SOL     MW12776   2.815   1.463   2.930
 3195SOL     OW12777   8.350   3.714   9.047
 3195SOL    HW112778   8.286   3.646   9.069
 3195SOL    HW212779   8.344   3.778   9.118
 3195SOL     MW12780   8.340   3.714   9.059
 3196SOL     OW12781   9.803   4.411   8.136
 3196SOL    HW112782   9.836   4.321   8.134
 3196SOL    HW212783   9.722   4.406   8.188
 3196SOL     MW12784   9.796   4.398   8.143
 3197SOL     OW12785   3.802   8.055   6.122
 3197SOL    HW112786   3.862   8.043   6.048
 3197SOL    HW212787   3.767   8.144   6.110
 3197SOL     MW12788   3.805   8.066   6.110
 3198SOL     OW12789   9.014   8.130   4.146
 3198SOL    HW112790   9.066   8.127   4.066
 3198SOL    HW212791   8.938   8.184   4.123
 3198SOL     MW12792   9.011   8.137   4.132
 3199SOL     OW12793   3.785   4.868   0.818
 3199SOL    HW112794   3.819   4.953   0.792
 3199SOL    HW212795   3.824   4.806   0.756
 3199SOL     MW12796   3.795   4.871   0.806
 3200SOL     OW12797   8.944   0.703   3.359
 3200SOL    HW112798   8.861   0.701   3.312
 3200SOL    HW212799   8.936   0.634   3.425
 3200SOL     MW12800   8.932   0.694   3.362
 3201SOL     OW12801   8.049   4.677   0.750
 3201SOL    HW112802   8.130   4.684   0.800
 3201SOL    HW212803   8.004   4.759   0.766
 3201SOL     MW12804   8.054   4.689   0.759
 3202SOL     OW12805   7.287   4.175   2.268
 3202SOL    HW112806   7.273   4.134   2.182
 3202SOL    HW212807   7.370   4.222   2.259
 3202SOL     MW12808   7.296   4.176   2.255
 3203SOL     OW12809   1.869   8.442   0.654
 3203SOL    HW112810   1.950   8.485   0.629
 3203SOL    HW212811   1.890   8.349   0.654
 3203SOL     MW12812   1.882   8.435   0.651
 3204SOL     OW12813   4.290   2.117   9.757
 3204SOL    HW112814   4.227   2.056   9.717
 3204SOL    HW212815   4.371   2.104   9.708
 3204SOL     MW12816   4.292   2.107   9.745
 3205SOL     OW12817   6.460   1.225   8.172
 3205SOL    HW112818   6.395   1.162   8.143
 3205SOL    HW212819   6.516   1.176   8.232
 3205SOL     MW12820   6.459   1.210   8.176
 3206SOL     OW12821   5.426   2.619   9.348
 3206SOL    HW112822   5.447   2.528   9.365
 3206SOL    HW212823   5.510   2.662   9.336
 3206SOL     MW12824   5.440   2.613   9.349
 3207SOL     OW12825   0.227   8.886   7.069
 3207SOL    HW112826   0.289   8.956   7.046
 3207SOL    HW212827   0.213   8.839   6.987
 3207SOL     MW12828   0.233   8.889   7.055
 3208SOL     OW12829   6.944   0.399   6.907
 3208SOL    HW112830   6.925   0.307   6.889
 3208SOL    HW212831   6.926   0.410   7.000
 3208SOL     MW12832   6.939   0.388   6.917
 3209SOL     OW12833   4.571   6.105   1.230
 3209SOL    HW112834   4.647   6.064   1.190
 3209SOL    HW212835   4.607   6.153   1.305
 3209SOL     MW12836   4.586   6.106   1.235
 3210SOL     OW12837   2.507   6.082   3.104
 3210SOL    HW112838   2.556   6.163   3.119
 3210SOL    HW212839   2.563   6.029   3.048
 3210SOL     MW12840   2.521   6.086   3.098
 3211SOL     OW12841   1.381   7.478   6.435
 3211SOL    HW112842   1.465   7.452   6.474
 3211SOL    HW212843   1.400   7.559   6.387
 3211SOL     MW12844   1.395   7.485   6.434
 3212SOL     OW12845   4.511   8.880   6.322
 3212SOL    HW112846   4.523   8.974   6.332
 3212SOL    HW212847   4.598   8.847   6.297
 3212SOL     MW12848   4.524   8.888   6.320
 3213SOL     OW12849   4.757   9.786   8.194
 3213SOL    HW112850   4.801   9.867   8.168
 3213SOL    HW212851   4.828   9.723   8.206
 3213SOL     MW12852   4.772   9.788   8.192
 3214SOL     OW12853   5.631   7.365   8.822
 3214SOL    HW112854   5.705   7.407   8.779
 3214SOL    HW212855   5.644   7.384   8.915
 3214SOL     MW12856   5.642   7.373   8.829
 3215SOL     OW12857   2.261   8.433   9.731
 3215SOL    HW112858   2.262   8.360   9.671
 3215SOL    HW212859   2.286   8.509   9.678
 3215SOL     MW12860   2.265   8.434   9.716
 3216SOL     OW12861   4.018   5.018   9.445
 3216SOL    HW112862   3.934   4.998   9.486
 3216SOL    HW212863   4.017   5.113   9.434
 3216SOL     MW12864   4.006   5.028   9.449
 3217SOL     OW12865   5.556   0.901   9.795
 3217SOL    HW112866   5.560   0.983   9.844
 3217SOL    HW212867   5.647   0.880   9.776
 3217SOL     MW12868   5.569   0.909   9.799
 3218SOL     OW12869   4.437   5.484   2.917
 3218SOL    HW112870   4.446   5.528   3.001
 3218SOL    HW212871   4.345   5.458   2.912
 3218SOL     MW12872   4.426   5.486   2.927
 3219SOL     OW12873   1.107   6.384   6.570
 3219SOL    HW112874   1.180   6.329   6.542
 3219SOL    HW212875   1.124   6.469   6.531
 3219SOL     MW12876   1.119   6.388   6.561
 3220SOL     OW12877   8.094   8.946   6.563
 3220SOL    HW112878   8.180   8.978   6.590
 3220SOL    HW212879   8.073   8.996   6.485
 3220SOL     MW12880   8.103   8.957   6.556
 3221SOL     OW12881   5.403   4.902   4.131
 3221SOL    HW112882   5.396   4.842   4.205
 3221SOL    HW212883   5.339   4.970   4.148
 3221SOL     MW12884   5.394   4.903   4.143
 3222SOL     OW12885   9.595   4.124   8.914
 3222SOL    HW112886   9.620   4.192   8.975
 3222SOL    HW212887   9.625   4.156   8.829
 3222SOL     MW12888   9.602   4.137   8.910
 3223SOL     OW12889   6.178   6.078   5.881
 3223SOL    HW112890   6.118   6.078   5.956
 3223SOL    HW212891   6.241   6.008   5.901
 3223SOL     MW12892   6.178   6.068   5.894
 3224SOL     OW12893   0.461   3.331   3.801
 3224SOL    HW112894   0.401   3.273   3.847
 3224SOL    HW212895   0.528   3.353   3.865
 3224SOL     MW12896   0.462   3.326   3.815
 3225SOL     OW12897   4.105   5.459   1.868
 3225SOL    HW112898   4.182   5.425   1.914
 3225SOL    HW212899   4.031   5.411   1.906
 3225SOL     MW12900   4.105   5.448   1.879
 3226SOL     OW12901   6.021   6.394   8.032
 3226SOL    HW112902   6.079   6.318   8.039
 3226SOL    HW212903   5.949   6.365   7.977
 3226SOL     MW12904   6.019   6.380   8.026
 3227SOL     OW12905   0.552   7.446  10.082
 3227SOL    HW112906   0.528   7.365  10.127
 3227SOL    HW212907   0.570   7.418   9.992
 3227SOL     MW12908   0.551   7.431  10.076
 3228SOL     OW12909   9.064   8.633   2.131
 3228SOL    HW112910   9.110   8.550   2.118
 3228SOL    HW212911   9.045   8.665   2.043
 3228SOL     MW12912   9.068   8.626   2.118
 3229SOL     OW12913   7.423   1.198   5.883
 3229SOL    HW112914   7.397   1.245   5.962
 3229SOL    HW212915   7.483   1.130   5.914
 3229SOL     MW12916   7.428   1.195   5.898
 3230SOL     OW12917   8.057   4.172   1.899
 3230SOL    HW112918   8.113   4.175   1.976
 3230SOL    HW212919   8.013   4.257   1.897
 3230SOL     MW12920   8.059   4.184   1.909
 3231SOL     OW12921   0.351   3.771   0.747
 3231SOL    HW112922   0.412   3.844   0.754
 3231SOL    HW212923   0.266   3.811   0.729
 3231SOL     MW12924   0.348   3.786   0.746
 3232SOL     OW12925   1.150   8.819   2.332
 3232SOL    HW112926   1.063   8.779   2.338
 3232SOL    HW212927   1.136   8.911   2.354
 3232SOL     MW12928   1.136   8.826   2.336
 3233SOL     OW12929   3.765   0.676   0.043
 3233SOL    HW112930   3.744   0.687  -0.050
 3233SOL    HW212931   3.683   0.691   0.088
 3233SOL     MW12932   3.751   0.680   0.036
 3234SOL     OW12933   8.563   1.978   6.223
 3234SOL    HW112934   8.541   2.017   6.139
 3234SOL    HW212935   8.479   1.951   6.260
 3234SOL     MW12936   8.549   1.980   6.217
 3235SOL     OW12937   3.085   3.836   2.198
 3235SOL    HW112938   3.083   3.872   2.109
 3235SOL    HW212939   3.172   3.859   2.231
 3235SOL     MW12940   3.096   3.844   2.190
 3236SOL     OW12941   9.826   5.435   0.251
 3236SOL    HW112942   9.832   5.348   0.291
 3236SOL    HW212943   9.913   5.450   0.214
 3236SOL     MW12944   9.839   5.425   0.251
 3237SOL     OW12945   0.036   0.121   3.410
 3237SOL    HW112946   0.058   0.213   3.424
 3237SOL    HW212947   0.119   0.079   3.387
 3237SOL     MW12948   0.050   0.127   3.409
 3238SOL     OW12949   9.005   2.182   5.346
 3238SOL    HW112950   8.954   2.214   5.272
 3238SOL    HW212951   9.079   2.136   5.307
 3238SOL     MW12952   9.008   2.180   5.331
 3239SOL     OW12953   0.810   6.698   4.743
 3239SOL    HW112954   0.748   6.719   4.673
 3239SOL    HW212955   0.814   6.776   4.797
 3239SOL     MW12956   0.802   6.711   4.740
 3240SOL     OW12957   1.205   1.778   0.238
 3240SOL    HW112958   1.142   1.716   0.202
 3240SOL    HW212959   1.289   1.752   0.200
 3240SOL     MW12960   1.208   1.766   0.228
 3241SOL     OW12961   1.840   9.158   3.336
 3241SOL    HW112962   1.891   9.116   3.267
 3241SOL    HW212963   1.830   9.090   3.403
 3241SOL     MW12964   1.846   9.143   3.336
 3242SOL     OW12965   8.816   6.932   9.737
 3242SOL    HW112966   8.846   6.853   9.782
 3242SOL    HW212967   8.725   6.941   9.762
 3242SOL     MW12968   8.808   6.923   9.746
 3243SOL     OW12969   8.677   0.390   3.510
 3243SOL    HW112970   8.593   0.361   3.547
 3243SOL    HW212971   8.672   0.365   3.418
 3243SOL     MW12972   8.665   0.383   3.503
 3244SOL     OW12973   0.520   8.832   8.306
 3244SOL    HW112974   0.519   8.803   8.215
 3244SOL    HW212975   0.612   8.840   8.328
 3244SOL     MW12976   0.532   8.829   8.296
 3245SOL     OW12977   7.010   3.414   9.031
 3245SOL    HW112978   7.000   3.509   9.041
 3245SOL    HW212979   7.040   3.385   9.117
 3245SOL     MW12980   7.012   3.423   9.044
 3246SOL     OW12981   6.861   6.866   3.337
 3246SOL    HW112982   6.829   6.949   3.302
 3246SOL    HW212983   6.810   6.799   3.291
 3246SOL     MW12984   6.850   6.868   3.326
 3247SOL     OW12985   6.131   0.397   4.852
 3247SOL    HW112986   6.090   0.312   4.870
 3247SOL    HW212987   6.191   0.380   4.780
 3247SOL     MW12988   6.133   0.383   4.845
 3248SOL     OW12989   1.049   6.879   7.321
 3248SOL    HW112990   1.063   6.944   7.390
 3248SOL    HW212991   1.136   6.846   7.300
 3248SOL     MW12992   1.062   6.883   7.328
 3249SOL     OW12993   6.143   1.464   6.954
 3249SOL    HW112994   6.084   1.413   7.010
 3249SOL    HW212995   6.095   1.545   6.936
 3249SOL     MW12996   6.128   1.468   6.959
 3250SOL     OW12997   0.252   1.751   2.185
 3250SOL    HW112998   0.320   1.786   2.243
 3250SOL    HW212999   0.271   1.657   2.180
 3250SOL     MW13000   0.264   1.743   2.192
 3251SOL     OW13001  10.103   7.641   0.836
 3251SOL    HW113002  10.010   7.648   0.816
 3251SOL    HW213003  10.137   7.580   0.770
 3251SOL     MW13004  10.095   7.633   0.824
 3252SOL     OW13005   0.197   2.331   2.211
 3252SOL    HW113006   0.291   2.324   2.195
 3252SOL    HW213007   0.183   2.425   2.227
 3252SOL     MW13008   0.208   2.343   2.211
 3253SOL     OW13009   1.887   3.202   5.870
 3253SOL    HW113010   1.826   3.129   5.878
 3253SOL    HW213011   1.905   3.209   5.776
 3253SOL     MW13012   1.881   3.193   5.858
 3254SOL     OW13013   3.881   9.975   9.239
 3254SOL    HW113014   3.816  10.043   9.258
 3254SOL    HW213015   3.869   9.957   9.146
 3254SOL     MW13016   3.871   9.982   9.229
 3255SOL     OW13017   4.141   9.971   9.351
 3255SOL    HW113018   4.053   9.975   9.314
 3255SOL    HW213019   4.148   9.882   9.385
 3255SOL     MW13020   4.130   9.959   9.351
 3256SOL     OW13021   7.226   5.856   0.787
 3256SOL    HW113022   7.241   5.815   0.702
 3256SOL    HW213023   7.133   5.877   0.787
 3256SOL     MW13024   7.216   5.854   0.776
 3257SOL     OW13025   7.481   6.488   3.693
 3257SOL    HW113026   7.491   6.579   3.666
 3257SOL    HW213027   7.387   6.475   3.702
 3257SOL     MW13028   7.470   6.498   3.690
 3258SOL     OW13029   3.222   3.516   1.617
 3258SOL    HW113030   3.310   3.538   1.647
 3258SOL    HW213031   3.200   3.585   1.554
 3258SOL     MW13032   3.231   3.529   1.613
 3259SOL     OW13033   1.209   3.233   9.718
 3259SOL    HW113034   1.232   3.324   9.736
 3259SOL    HW213035   1.286   3.183   9.744
 3259SOL     MW13036   1.222   3.239   9.724
 3260SOL     OW13037   4.552   0.554   9.869
 3260SOL    HW113038   4.570   0.533   9.777
 3260SOL    HW213039   4.542   0.469   9.911
 3260SOL     MW13040   4.553   0.540   9.862
 3261SOL     OW13041   0.648   4.311   4.285
 3261SOL    HW113042   0.683   4.270   4.364
 3261SOL    HW213043   0.723   4.359   4.248
 3261SOL     MW13044   0.663   4.312   4.291
 3262SOL     OW13045   5.685   4.521   4.462
 3262SOL    HW113046   5.594   4.499   4.440
 3262SOL    HW213047   5.694   4.613   4.438
 3262SOL     MW13048   5.674   4.530   4.456
 3263SOL     OW13049   7.483   7.455   0.339
 3263SOL    HW113050   7.468   7.391   0.408
 3263SOL    HW213051   7.510   7.404   0.264
 3263SOL     MW13052   7.485   7.440   0.339
 3264SOL     OW13053   6.104   5.784   5.555
 3264SOL    HW113054   6.068   5.709   5.602
 3264SOL    HW213055   6.198   5.768   5.551
 3264SOL     MW13056   6.112   5.772   5.561
 3265SOL     OW13057  10.015   9.728   9.396
 3265SOL    HW113058  10.100   9.688   9.382
 3265SOL    HW213059  10.003   9.728   9.491
 3265SOL     MW13060  10.025   9.723   9.407
 3266SOL     OW13061   1.971   3.005   1.686
 3266SOL    HW113062   2.052   2.965   1.718
 3266SOL    HW213063   1.902   2.967   1.742
 3266SOL     MW13064   1.972   2.994   1.698
 3267SOL     OW13065   4.380   1.521   8.766
 3267SOL    HW113066   4.402   1.584   8.697
 3267SOL    HW213067   4.324   1.457   8.722
 3267SOL     MW13068   4.376   1.521   8.751
 3268SOL     OW13069   5.665   6.667   6.596
 3268SOL    HW113070   5.590   6.652   6.539
 3268SOL    HW213071   5.627   6.696   6.679
 3268SOL     MW13072   5.650   6.669   6.599
 3269SOL     OW13073   5.683   3.298   8.176
 3269SOL    HW113074   5.753   3.338   8.124
 3269SOL    HW213075   5.606   3.306   8.121
 3269SOL     MW13076   5.682   3.305   8.162
 3270SOL     OW13077   5.381   6.190   8.847
 3270SOL    HW113078   5.417   6.102   8.858
 3270SOL    HW213079   5.439   6.232   8.783
 3270SOL     MW13080   5.394   6.184   8.840
 3271SOL     OW13081   5.158   6.326   8.935
 3271SOL    HW113082   5.181   6.349   9.025
 3271SOL    HW213083   5.234   6.278   8.903
 3271SOL     MW13084   5.172   6.323   8.943
 3272SOL     OW13085   6.868   8.551   5.555
 3272SOL    HW113086   6.862   8.459   5.530
 3272SOL    HW213087   6.813   8.559   5.632
 3272SOL     MW13088   6.860   8.540   5.562
 3273SOL     OW13089   1.079   8.697   7.592
 3273SOL    HW113090   1.124   8.613   7.590
 3273SOL    HW213091   0.993   8.680   7.553
 3273SOL     MW13092   1.073   8.684   7.586
 3274SOL     OW13093   7.340   3.987   7.380
 3274SOL    HW113094   7.366   4.014   7.468
 3274SOL    HW213095   7.400   4.033   7.322
 3274SOL     MW13096   7.352   3.997   7.384
 3275SOL     OW13097   0.786   6.526   3.311
 3275SOL    HW113098   0.702   6.546   3.351
 3275SOL    HW213099   0.764   6.490   3.225
 3275SOL     MW13100   0.772   6.524   3.305
 3276SOL     OW13101   5.062   5.953   1.189
 3276SOL    HW113102   5.114   5.920   1.263
 3276SOL    HW213103   5.127   5.970   1.120
 3276SOL     MW13104   5.078   5.951   1.190
 3277SOL     OW13105   3.111   5.156   8.576
 3277SOL    HW113106   3.091   5.242   8.538
 3277SOL    HW213107   3.205   5.158   8.593
 3277SOL     MW13108   3.121   5.168   8.573
 3278SOL     OW13109   8.704   0.891   1.621
 3278SOL    HW113110   8.710   0.940   1.539
 3278SOL    HW213111   8.625   0.837   1.611
 3278SOL     MW13112   8.694   0.890   1.608
 3279SOL     OW13113   0.169   6.166   9.942
 3279SOL    HW113114   0.091   6.212   9.911
 3279SOL    HW213115   0.234   6.181   9.872
 3279SOL     MW13116   0.167   6.175   9.928
 3280SOL     OW13117   4.471   8.710   6.102
 3280SOL    HW113118   4.428   8.748   6.025
 3280SOL    HW213119   4.458   8.775   6.171
 3280SOL     MW13120   4.463   8.724   6.101
 3281SOL     OW13121   7.865   3.971   1.882
 3281SOL    HW113122   7.929   4.042   1.893
 3281SOL    HW213123   7.855   3.961   1.788
 3281SOL     MW13124   7.872   3.979   1.871
 3282SOL     OW13125   0.924   2.348   9.022
 3282SOL    HW113126   0.933   2.300   8.939
 3282SOL    HW213127   0.903   2.281   9.086
 3282SOL     MW13128   0.922   2.333   9.019
 3283SOL     OW13129   4.771   9.877   4.786
 3283SOL    HW113130   4.809   9.933   4.718
 3283SOL    HW213131   4.832   9.884   4.859
 3283SOL     MW13132   4.785   9.885   4.787
 3284SOL     OW13133   2.556   8.747   1.085
 3284SOL    HW113134   2.534   8.751   1.178
 3284SOL    HW213135   2.521   8.828   1.049
 3284SOL     MW13136   2.548   8.758   1.092
 3285SOL     OW13137   7.241   4.179   1.396
 3285SOL    HW113138   7.213   4.097   1.355
 3285SOL    HW213139   7.240   4.243   1.325
 3285SOL     MW13140   7.237   4.177   1.381
 3286SOL     OW13141   9.841   2.015   7.657
 3286SOL    HW113142   9.888   2.045   7.735
 3286SOL    HW213143   9.762   2.068   7.655
 3286SOL     MW13144   9.837   2.026   7.667
 3287SOL     OW13145  10.144   2.455   5.391
 3287SOL    HW113146  10.073   2.414   5.341
 3287SOL    HW213147  10.123   2.436   5.482
 3287SOL     MW13148  10.131   2.447   5.396
 3288SOL     OW13149   7.435   8.451   5.095
 3288SOL    HW113150   7.460   8.521   5.035
 3288SOL    HW213151   7.366   8.403   5.049
 3288SOL     MW13152   7.429   8.454   5.081
 3289SOL     OW13153   1.015   6.569   4.614
 3289SOL    HW113154   1.093   6.604   4.656
 3289SOL    HW213155   0.942   6.605   4.665
 3289SOL     MW13156   1.015   6.578   4.626
 3290SOL     OW13157   1.588   6.117   1.859
 3290SOL    HW113158   1.676   6.129   1.893
 3290SOL    HW213159   1.566   6.026   1.878
 3290SOL     MW13160   1.597   6.106   1.866
 3291SOL     OW13161   0.088   7.861   6.523
 3291SOL    HW113162   0.003   7.845   6.483
 3291SOL    HW213163   0.150   7.815   6.467
 3291SOL     MW13164   0.085   7.853   6.510
 3292SOL     OW13165   3.788   5.316   1.696
 3292SOL    HW113166   3.745   5.402   1.690
 3292SOL    HW213167   3.871   5.328   1.650
 3292SOL     MW13168   3.793   5.329   1.689
 3293SOL     OW13169   9.312   9.330   1.037
 3293SOL    HW113170   9.373   9.357   0.969
 3293SOL    HW213171   9.243   9.396   1.035
 3293SOL     MW13172   9.311   9.343   1.028
 3294SOL     OW13173   6.764   5.756   9.250
 3294SOL    HW113174   6.846   5.802   9.266
 3294SOL    HW213175   6.717   5.759   9.333
 3294SOL     MW13176   6.768   5.763   9.263
 3295SOL     OW13177   0.748   0.128   3.221
 3295SOL    HW113178   0.805   0.131   3.298
 3295SOL    HW213179   0.754   0.038   3.190
 3295SOL     MW13180   0.756   0.117   3.227
 3296SOL     OW13181   6.542   1.159   4.717
 3296SOL    HW113182   6.625   1.114   4.734
 3296SOL    HW213183   6.566   1.252   4.709
 3296SOL     MW13184   6.556   1.166   4.718
 3297SOL     OW13185   7.144   5.000   6.367
 3297SOL    HW113186   7.128   4.917   6.322
 3297SOL    HW213187   7.151   5.065   6.298
 3297SOL     MW13188   7.143   4.998   6.352
 3298SOL     OW13189   4.102   5.335   9.148
 3298SOL    HW113190   4.094   5.394   9.073
 3298SOL    HW213191   4.136   5.254   9.111
 3298SOL     MW13192   4.105   5.332   9.133
 3299SOL     OW13193   7.552   7.846   4.335
 3299SOL    HW113194   7.557   7.754   4.310
 3299SOL    HW213195   7.580   7.847   4.427
 3299SOL     MW13196   7.556   7.834   4.344
 3300SOL     OW13197   7.203   2.341   5.007
 3300SOL    HW113198   7.257   2.381   4.939
 3300SOL    HW213199   7.126   2.398   5.014
 3300SOL     MW13200   7.200   2.354   4.999
 3301SOL     OW13201   3.500   5.900   6.947
 3301SOL    HW113202   3.498   5.986   6.989
 3301SOL    HW213203   3.425   5.900   6.887
 3301SOL     MW13204   3.490   5.911   6.944
 3302SOL     OW13205   7.232   0.443   6.589
 3302SOL    HW113206   7.149   0.462   6.547
 3302SOL    HW213207   7.261   0.361   6.550
 3302SOL     MW13208   7.225   0.435   6.578
 3303SOL     OW13209   7.124   6.468   2.236
 3303SOL    HW113210   7.123   6.515   2.152
 3303SOL    HW213211   7.210   6.489   2.273
 3303SOL     MW13212   7.136   6.477   2.230
 3304SOL     OW13213   0.320   6.963   9.818
 3304SOL    HW113214   0.370   6.949   9.898
 3304SOL    HW213215   0.368   7.031   9.772
 3304SOL     MW13216   0.333   6.970   9.823
 3305SOL     OW13217   6.741   0.088   9.743
 3305SOL    HW113218   6.679   0.032   9.790
 3305SOL    HW213219   6.775   0.032   9.673
 3305SOL     MW13220   6.737   0.073   9.740
 3306SOL     OW13221   1.308   4.712   6.395
 3306SOL    HW113222   1.270   4.646   6.453
 3306SOL    HW213223   1.247   4.785   6.397
 3306SOL     MW13224   1.295   4.713   6.403
 3307SOL     OW13225   8.213   1.764   6.089
 3307SOL    HW113226   8.215   1.670   6.070
 3307SOL    HW213227   8.177   1.804   6.010
 3307SOL     MW13228   8.209   1.757   6.076
 3308SOL     OW13229   5.215   3.998   3.271
 3308SOL    HW113230   5.236   4.090   3.290
 3308SOL    HW213231   5.123   3.999   3.246
 3308SOL     MW13232   5.206   4.010   3.270
 3309SOL     OW13233   5.747   5.190   0.689
 3309SOL    HW113234   5.795   5.203   0.607
 3309SOL    HW213235   5.656   5.206   0.666
 3309SOL     MW13236   5.741   5.194   0.675
 3310SOL     OW13237   0.475   2.758   2.782
 3310SOL    HW113238   0.394   2.740   2.830
 3310SOL    HW213239   0.447   2.816   2.711
 3310SOL     MW13240   0.460   2.763   2.779
 3311SOL     OW13241   9.448   5.974   8.205
 3311SOL    HW113242   9.477   6.042   8.266
 3311SOL    HW213243   9.383   6.017   8.150
 3311SOL     MW13244   9.443   5.989   8.206
 3312SOL     OW13245   1.815   0.987   4.131
 3312SOL    HW113246   1.840   1.005   4.041
 3312SOL    HW213247   1.899   0.972   4.176
 3312SOL     MW13248   1.830   0.987   4.125
 3313SOL     OW13249   6.376   5.779   5.500
 3313SOL    HW113250   6.354   5.859   5.452
 3313SOL    HW213251   6.398   5.715   5.432
 3313SOL     MW13252   6.376   5.781   5.484
 3314SOL     OW13253   0.672   5.973   4.118
 3314SOL    HW113254   0.608   5.907   4.090
 3314SOL    HW213255   0.727   5.927   4.182
 3314SOL     MW13256   0.671   5.958   4.122
 3315SOL     OW13257   9.724   1.750   3.026
 3315SOL    HW113258   9.767   1.708   3.101
 3315SOL    HW213259   9.782   1.732   2.952
 3315SOL     MW13260   9.738   1.742   3.026
 3316SOL     OW13261   9.702   7.634   4.042
 3316SOL    HW113262   9.728   7.580   4.117
 3316SOL    HW213263   9.717   7.577   3.966
 3316SOL     MW13264   9.708   7.619   4.042
 3317SOL     OW13265   7.598   1.326   8.318
 3317SOL    HW113266   7.627   1.375   8.242
 3317SOL    HW213267   7.665   1.341   8.384
 3317SOL     MW13268   7.611   1.334   8.317
 3318SOL     OW13269   3.650   9.475   3.695
 3318SOL    HW113270   3.676   9.510   3.609
 3318SOL    HW213271   3.595   9.543   3.733
 3318SOL     MW13272   3.646   9.489   3.688
 3319SOL     OW13273   3.904   3.806   2.180
 3319SOL    HW113274   3.897   3.823   2.273
 3319SOL    HW213275   3.891   3.891   2.138
 3319SOL     MW13276   3.902   3.820   2.187
 3320SOL     OW13277   3.702   9.415   6.357
 3320SOL    HW113278   3.626   9.472   6.361
 3320SOL    HW213279   3.753   9.438   6.435
 3320SOL     MW13280   3.699   9.426   6.368
 3321SOL     OW13281   9.719   8.131   0.573
 3321SOL    HW113282   9.741   8.062   0.511
 3321SOL    HW213283   9.641   8.173   0.536
 3321SOL     MW13284   9.712   8.128   0.560
 3322SOL     OW13285   8.181   0.369   0.114
 3322SOL    HW113286   8.157   0.440   0.054
 3322SOL    HW213287   8.104   0.311   0.114
 3322SOL     MW13288   8.167   0.370   0.106
 3323SOL     OW13289   5.758   3.806  10.002
 3323SOL    HW113290   5.802   3.856  10.070
 3323SOL    HW213291   5.695   3.751  10.049
 3323SOL     MW13292   5.755   3.805  10.017
 3324SOL     OW13293   0.381   5.637   0.290
 3324SOL    HW113294   0.392   5.705   0.224
 3324SOL    HW213295   0.458   5.647   0.347
 3324SOL     MW13296   0.393   5.648   0.289
 3325SOL     OW13297   6.220   3.538   6.880
 3325SOL    HW113298   6.301   3.583   6.856
 3325SOL    HW213299   6.189   3.499   6.799
 3325SOL     MW13300   6.227   3.539   6.866
 3326SOL     OW13301   0.391   2.862   7.554
 3326SOL    HW113302   0.404   2.793   7.619
 3326SOL    HW213303   0.328   2.922   7.595
 3326SOL     MW13304   0.384   2.861   7.568
 3327SOL     OW13305   6.073   9.111   9.789
 3327SOL    HW113306   6.094   9.204   9.775
 3327SOL    HW213307   6.006   9.112   9.858
 3327SOL     MW13308   6.067   9.124   9.796
 3328SOL     OW13309   8.412   0.753   6.614
 3328SOL    HW113310   8.373   0.833   6.578
 3328SOL    HW213311   8.372   0.744   6.700
 3328SOL     MW13312   8.401   0.763   6.620
 3329SOL     OW13313   1.614   9.565   8.447
 3329SOL    HW113314   1.614   9.471   8.431
 3329SOL    HW213315   1.530   9.596   8.413
 3329SOL     MW13316   1.603   9.557   8.440
 3330SOL     OW13317   2.626   3.548   7.129
 3330SOL    HW113318   2.627   3.576   7.038
 3330SOL    HW213319   2.597   3.456   7.126
 3330SOL     MW13320   2.622   3.539   7.117
 3331SOL     OW13321   4.213   6.917   6.843
 3331SOL    HW113322   4.218   6.914   6.747
 3331SOL    HW213323   4.293   6.960   6.870
 3331SOL     MW13324   4.224   6.922   6.833
 3332SOL     OW13325   2.272   7.688   7.105
 3332SOL    HW113326   2.323   7.629   7.050
 3332SOL    HW213327   2.226   7.630   7.166
 3332SOL     MW13328   2.273   7.673   7.106
 3333SOL     OW13329   3.692   2.650   3.158
 3333SOL    HW113330   3.771   2.640   3.105
 3333SOL    HW213331   3.712   2.606   3.240
 3333SOL     MW13332   3.705   2.642   3.162
 3334SOL     OW13333   6.848   4.509   4.166
 3334SOL    HW113334   6.922   4.541   4.115
 3334SOL    HW213335   6.878   4.426   4.203
 3334SOL     MW13336   6.862   4.502   4.165
 3335SOL     OW13337   3.636   8.440   3.870
 3335SOL    HW113338   3.567   8.475   3.926
 3335SOL    HW213339   3.616   8.346   3.863
 3335SOL     MW13340   3.624   8.432   3.877
 3336SOL     OW13341   0.783   8.711   3.596
 3336SOL    HW113342   0.779   8.701   3.501
 3336SOL    HW213343   0.711   8.771   3.617
 3336SOL     MW13344   0.772   8.718   3.586
 3337SOL     OW13345   2.144   1.130   3.776
 3337SOL    HW113346   2.188   1.120   3.691
 3337SOL    HW213347   2.204   1.184   3.828
 3337SOL     MW13348   2.158   1.136   3.771
 3338SOL     OW13349   9.441   1.111   4.464
 3338SOL    HW113350   9.527   1.081   4.491
 3338SOL    HW213351   9.419   1.057   4.388
 3338SOL     MW13352   9.449   1.100   4.457
 3339SOL     OW13353   6.179   4.527   7.894
 3339SOL    HW113354   6.140   4.593   7.952
 3339SOL    HW213355   6.144   4.547   7.808
 3339SOL     MW13356   6.169   4.539   7.890
 3340SOL     OW13357   8.023   9.990   5.896
 3340SOL    HW113358   7.945  10.004   5.949
 3340SOL    HW213359   8.017  10.056   5.827
 3340SOL     MW13360   8.012  10.001   5.893
 3341SOL     OW13361   6.811   5.972   0.479
 3341SOL    HW113362   6.867   5.923   0.539
 3341SOL    HW213363   6.808   6.061   0.516
 3341SOL     MW13364   6.818   5.978   0.492
 3342SOL     OW13365   5.867   7.545   2.786
 3342SOL    HW113366   5.894   7.477   2.724
 3342SOL    HW213367   5.941   7.551   2.847
 3342SOL     MW13368   5.881   7.537   2.786
 3343SOL     OW13369   4.983   5.175   5.081
 3343SOL    HW113370   5.069   5.203   5.048
 3343SOL    HW213371   4.921   5.235   5.039
 3343SOL     MW13372   4.987   5.187   5.071
 3344SOL     OW13373   0.810   8.467   5.086
 3344SOL    HW113374   0.872   8.397   5.107
 3344SOL    HW213375   0.864   8.543   5.065
 3344SOL     MW13376   0.826   8.467   5.086
 3345SOL     OW13377   3.614   2.373   5.047
 3345SOL    HW113378   3.669   2.417   4.982
 3345SOL    HW213379   3.585   2.444   5.105
 3345SOL     MW13380   3.618   2.389   5.046
 3346SOL     OW13381   5.427   1.472   4.954
 3346SOL    HW113382   5.412   1.432   4.868
 3346SOL    HW213383   5.506   1.526   4.942
 3346SOL     MW13384   5.436   1.474   4.941
 3347SOL     OW13385   0.905   9.115   4.249
 3347SOL    HW113386   0.922   9.030   4.209
 3347SOL    HW213387   0.845   9.096   4.321
 3347SOL     MW13388   0.899   9.101   4.253
 3348SOL     OW13389   3.265   9.402   6.688
 3348SOL    HW113390   3.264   9.326   6.746
 3348SOL    HW213391   3.285   9.366   6.602
 3348SOL     MW13392   3.267   9.387   6.684
 3349SOL     OW13393   0.273   3.179   5.646
 3349SOL    HW113394   0.199   3.227   5.683
 3349SOL    HW213395   0.349   3.232   5.668
 3349SOL     MW13396   0.273   3.193   5.654
 3350SOL     OW13397   8.776   5.108   0.467
 3350SOL    HW113398   8.743   5.070   0.549
 3350SOL    HW213399   8.733   5.193   0.460
 3350SOL     MW13400   8.766   5.114   0.477
 3351SOL     OW13401   1.305   4.172   5.874
 3351SOL    HW113402   1.297   4.264   5.900
 3351SOL    HW213403   1.388   4.169   5.827
 3351SOL     MW13404   1.315   4.184   5.871
 3352SOL     OW13405   5.027   2.087   1.065
 3352SOL    HW113406   4.987   2.009   1.104
 3352SOL    HW213407   5.089   2.118   1.131
 3352SOL     MW13408   5.030   2.081   1.079
 3353SOL     OW13409   4.271   8.347   0.588
 3353SOL    HW113410   4.357   8.390   0.590
 3353SOL    HW213411   4.274   8.285   0.660
 3353SOL     MW13412   4.283   8.345   0.598
 3354SOL     OW13413   9.501   8.976   1.727
 3354SOL    HW113414   9.451   9.029   1.664
 3354SOL    HW213415   9.559   9.039   1.770
 3354SOL     MW13416   9.502   8.992   1.724
 3355SOL     OW13417   2.037   8.294   8.223
 3355SOL    HW113418   2.118   8.252   8.194
 3355SOL    HW213419   2.050   8.387   8.207
 3355SOL     MW13420   2.049   8.301   8.217
 3356SOL     OW13421   5.377   3.525   7.302
 3356SOL    HW113422   5.453   3.504   7.248
 3356SOL    HW213423   5.388   3.617   7.325
 3356SOL     MW13424   5.388   3.534   7.298
 3357SOL     OW13425   7.682   1.924   9.352
 3357SOL    HW113426   7.619   1.901   9.283
 3357SOL    HW213427   7.675   2.019   9.359
 3357SOL     MW13428   7.673   1.934   9.343
 3358SOL     OW13429   8.478   9.072   3.350
 3358SOL    HW113430   8.539   9.013   3.394
 3358SOL    HW213431   8.527   9.154   3.339
 3358SOL     MW13432   8.493   9.075   3.354
 3359SOL     OW13433   6.244   8.158   5.968
 3359SOL    HW113434   6.209   8.072   5.944
 3359SOL    HW213435   6.307   8.139   6.038
 3359SOL     MW13436   6.248   8.144   5.974
 3360SOL     OW13437   8.189   4.377   7.118
 3360SOL    HW113438   8.226   4.451   7.167
 3360SOL    HW213439   8.193   4.405   7.027
 3360SOL     MW13440   8.195   4.391   7.112
 3361SOL     OW13441   8.244   5.940   9.892
 3361SOL    HW113442   8.305   5.902   9.955
 3361SOL    HW213443   8.299   5.995   9.836
 3361SOL     MW13444   8.260   5.942   9.893
 3362SOL     OW13445   2.737   7.102   2.119
 3362SOL    HW113446   2.827   7.074   2.099
 3362SOL    HW213447   2.685   7.022   2.111
 3362SOL     MW13448   2.742   7.087   2.115
 3363SOL     OW13449   0.734   1.784   3.069
 3363SOL    HW113450   0.640   1.764   3.073
 3363SOL    HW213451   0.776   1.700   3.090
 3363SOL     MW13452   0.727   1.770   3.072
 3364SOL     OW13453  -0.001   0.293   7.920
 3364SOL    HW113454   0.049   0.218   7.890
 3364SOL    HW213455   0.014   0.361   7.854
 3364SOL     MW13456   0.007   0.292   7.907
 3365SOL     OW13457   2.491   0.956   3.445
 3365SOL    HW113458   2.530   0.885   3.496
 3365SOL    HW213459   2.491   0.923   3.355
 3365SOL     MW13460   2.496   0.942   3.439
 3366SOL     OW13461   8.325   5.720   6.622
 3366SOL    HW113462   8.420   5.730   6.625
 3366SOL    HW213463   8.299   5.712   6.713
 3366SOL     MW13464   8.335   5.720   6.634
 3367SOL     OW13465   1.748   1.184   9.978
 3367SOL    HW113466   1.777   1.120  10.043
 3367SOL    HW213467   1.768   1.269  10.017
 3367SOL     MW13468   1.755   1.187   9.992
 3368SOL     OW13469   5.586   1.734   3.562
 3368SOL    HW113470   5.492   1.730   3.546
 3368SOL    HW213471   5.598   1.695   3.648
 3368SOL     MW13472   5.575   1.729   3.571
 3369SOL     OW13473   6.093   5.798   2.765
 3369SOL    HW113474   6.054   5.720   2.725
 3369SOL    HW213475   6.151   5.832   2.698
 3369SOL     MW13476   6.095   5.792   2.751
 3370SOL     OW13477   0.836   4.276   0.890
 3370SOL    HW113478   0.850   4.219   0.966
 3370SOL    HW213479   0.924   4.297   0.859
 3370SOL     MW13480   0.849   4.271   0.896
 3371SOL     OW13481   3.229   4.215   5.434
 3371SOL    HW113482   3.211   4.278   5.504
 3371SOL    HW213483   3.143   4.199   5.394
 3371SOL     MW13484   3.215   4.221   5.438
 3372SOL     OW13485   9.128   1.020   5.271
 3372SOL    HW113486   9.215   1.045   5.241
 3372SOL    HW213487   9.106   1.084   5.338
 3372SOL     MW13488   9.136   1.032   5.276
 3373SOL     OW13489   6.712   1.964   3.680
 3373SOL    HW113490   6.757   2.040   3.717
 3373SOL    HW213491   6.624   1.967   3.716
 3373SOL     MW13492   6.706   1.974   3.690
 3374SOL     OW13493   2.357   3.047   2.800
 3374SOL    HW113494   2.419   3.085   2.738
 3374SOL    HW213495   2.278   3.033   2.749
 3374SOL     MW13496   2.355   3.051   2.785
 3375SOL     OW13497   7.164   4.844   2.043
 3375SOL    HW113498   7.151   4.857   2.137
 3375SOL    HW213499   7.124   4.759   2.025
 3375SOL     MW13500   7.157   4.834   2.053
 3376SOL     OW13501   3.920   4.138   5.461
 3376SOL    HW113502   3.887   4.103   5.544
 3376SOL    HW213503   3.972   4.066   5.424
 3376SOL     MW13504   3.923   4.123   5.467
 3377SOL     OW13505   0.125   3.268   7.296
 3377SOL    HW113506   0.069   3.331   7.343
 3377SOL    HW213507   0.101   3.183   7.332
 3377SOL     MW13508   0.114   3.265   7.307
 3378SOL     OW13509   2.732   6.061   1.500
 3378SOL    HW113510   2.729   6.154   1.522
 3378SOL    HW213511   2.825   6.042   1.485
 3378SOL     MW13512   2.744   6.071   1.501
 3379SOL     OW13513   3.783   8.704   5.490
 3379SOL    HW113514   3.869   8.700   5.450
 3379SOL    HW213515   3.789   8.644   5.565
 3379SOL     MW13516   3.795   8.695   5.495
 3380SOL     OW13517   2.714   4.250   9.542
 3380SOL    HW113518   2.691   4.288   9.457
 3380SOL    HW213519   2.723   4.156   9.524
 3380SOL     MW13520   2.712   4.242   9.528
 3381SOL     OW13521   8.878   2.255   3.180
 3381SOL    HW113522   8.950   2.318   3.172
 3381SOL    HW213523   8.918   2.177   3.219
 3381SOL     MW13524   8.893   2.253   3.184
 3382SOL     OW13525   6.501   7.457   8.970
 3382SOL    HW113526   6.537   7.519   8.907
 3382SOL    HW213527   6.447   7.398   8.917
 3382SOL     MW13528   6.499   7.457   8.954
 3383SOL     OW13529   9.395   7.210   4.109
 3383SOL    HW113530   9.386   7.187   4.201
 3383SOL    HW213531   9.425   7.129   4.067
 3383SOL     MW13532   9.397   7.196   4.116
 3384SOL     OW13533   3.817   0.682   5.932
 3384SOL    HW113534   3.755   0.633   5.877
 3384SOL    HW213535   3.903   0.652   5.902
 3384SOL     MW13536   3.820   0.671   5.920
 3385SOL     OW13537   0.099   1.983   8.778
 3385SOL    HW113538   0.083   1.894   8.748
 3385SOL    HW213539   0.171   1.976   8.840
 3385SOL     MW13540   0.106   1.970   8.782
 3386SOL     OW13541   5.965   5.255   2.993
 3386SOL    HW113542   5.999   5.283   2.909
 3386SOL    HW213543   5.931   5.335   3.034
 3386SOL     MW13544   5.965   5.270   2.987
 3387SOL     OW13545   9.410   3.918   8.966
 3387SOL    HW113546   9.324   3.941   8.931
 3387SOL    HW213547   9.465   3.993   8.943
 3387SOL     MW13548   9.406   3.931   8.958
 3388SOL     OW13549   6.785   1.483   8.460
 3388SOL    HW113550   6.742   1.402   8.490
 3388SOL    HW213551   6.877   1.471   8.484
 3388SOL     MW13552   6.792   1.470   8.468
 3389SOL     OW13553   8.826   1.270   8.872
 3389SOL    HW113554   8.795   1.209   8.805
 3389SOL    HW213555   8.749   1.322   8.895
 3389SOL     MW13556   8.811   1.269   8.866
 3390SOL     OW13557   1.625   0.124   4.607
 3390SOL    HW113558   1.661   0.113   4.519
 3390SOL    HW213559   1.692   0.172   4.655
 3390SOL     MW13560   1.639   0.129   4.602
 3391SOL     OW13561   9.771   7.103   1.517
 3391SOL    HW113562   9.850   7.154   1.536
 3391SOL    HW213563   9.797   7.043   1.447
 3391SOL     MW13564   9.785   7.102   1.510
 3392SOL     OW13565   6.914   0.751   4.087
 3392SOL    HW113566   6.910   0.844   4.067
 3392SOL    HW213567   6.975   0.715   4.022
 3392SOL     MW13568   6.922   0.758   4.075
 3393SOL     OW13569   7.822  10.088  10.156
 3393SOL    HW113570   7.865  10.005  10.136
 3393SOL    HW213571   7.730  10.074  10.132
 3393SOL     MW13572   7.815  10.075  10.150
 3394SOL     OW13573   5.717   5.603   2.807
 3394SOL    HW113574   5.640   5.648   2.773
 3394SOL    HW213575   5.765   5.671   2.854
 3394SOL     MW13576   5.713   5.618   2.809
 3395SOL     OW13577   4.978   4.131   5.744
 3395SOL    HW113578   4.987   4.050   5.794
 3395SOL    HW213579   4.922   4.107   5.670
 3395SOL     MW13580   4.972   4.117   5.741
 3396SOL     OW13581   0.068   8.147   2.502
 3396SOL    HW113582   0.136   8.080   2.490
 3396SOL    HW213583   0.072   8.199   2.422
 3396SOL     MW13584   0.078   8.145   2.490
 3397SOL     OW13585   4.625   0.191   7.168
 3397SOL    HW113586   4.664   0.209   7.254
 3397SOL    HW213587   4.531   0.192   7.183
 3397SOL     MW13588   4.618   0.193   7.182
 3398SOL     OW13589   5.639   3.452   9.749
 3398SOL    HW113590   5.620   3.434   9.842
 3398SOL    HW213591   5.684   3.537   9.750
 3398SOL     MW13592   5.642   3.461   9.762
 3399SOL     OW13593   8.931   4.651   2.262
 3399SOL    HW113594   8.835   4.644   2.268
 3399SOL    HW213595   8.956   4.705   2.337
 3399SOL     MW13596   8.921   4.657   2.272
 3400SOL     OW13597   2.672   6.016   9.822
 3400SOL    HW113598   2.688   5.944   9.760
 3400SOL    HW213599   2.592   5.990   9.868
 3400SOL     MW13600   2.663   6.003   9.820
 3401SOL     OW13601   1.682   3.810   9.668
 3401SOL    HW113602   1.621   3.878   9.639
 3401SOL    HW213603   1.626   3.735   9.688
 3401SOL     MW13604   1.666   3.809   9.667
 3402SOL     OW13605   4.209   3.445   7.821
 3402SOL    HW113606   4.131   3.488   7.787
 3402SOL    HW213607   4.277   3.463   7.756
 3402SOL     MW13608   4.208   3.453   7.808
 3403SOL     OW13609   7.586   6.010   8.364
 3403SOL    HW113610   7.632   5.927   8.357
 3403SOL    HW213611   7.655   6.076   8.365
 3403SOL     MW13612   7.601   6.008   8.363
 3404SOL     OW13613   8.386   0.793   0.330
 3404SOL    HW113614   8.477   0.817   0.312
 3404SOL    HW213615   8.382   0.699   0.313
 3404SOL     MW13616   8.398   0.784   0.325
 3405SOL     OW13617   0.801   8.705   3.318
 3405SOL    HW113618   0.875   8.765   3.312
 3405SOL    HW213619   0.835   8.621   3.287
 3405SOL     MW13620   0.815   8.701   3.313
 3406SOL     OW13621   5.321   5.597   1.352
 3406SOL    HW113622   5.288   5.686   1.366
 3406SOL    HW213623   5.242   5.544   1.335
 3406SOL     MW13624   5.306   5.602   1.351
 3407SOL     OW13625   3.809   3.374   3.684
 3407SOL    HW113626   3.763   3.367   3.768
 3407SOL    HW213627   3.780   3.458   3.648
 3407SOL     MW13628   3.799   3.384   3.691
 3408SOL     OW13629   5.450   7.244   4.928
 3408SOL    HW113630   5.460   7.163   4.977
 3408SOL    HW213631   5.540   7.271   4.908
 3408SOL     MW13632   5.463   7.237   4.932
 3409SOL     OW13633   7.360   3.107   2.314
 3409SOL    HW113634   7.320   3.069   2.236
 3409SOL    HW213635   7.439   3.151   2.282
 3409SOL     MW13636   7.365   3.108   2.299
 3410SOL     OW13637   3.526   0.774   9.183
 3410SOL    HW113638   3.569   0.852   9.218
 3410SOL    HW213639   3.574   0.753   9.103
 3410SOL     MW13640   3.538   0.782   9.177
 3411SOL     OW13641   4.321   2.807   4.942
 3411SOL    HW113642   4.264   2.769   5.009
 3411SOL    HW213643   4.410   2.787   4.971
 3411SOL     MW13644   4.325   2.800   4.955
 3412SOL     OW13645   4.218   0.326   0.546
 3412SOL    HW113646   4.277   0.251   0.542
 3412SOL    HW213647   4.175   0.319   0.631
 3412SOL     MW13648   4.220   0.315   0.557
 3413SOL     OW13649   8.828   3.660   4.531
 3413SOL    HW113650   8.910   3.641   4.484
 3413SOL    HW213651   8.852   3.657   4.623
 3413SOL     MW13652   8.843   3.657   4.537
 3414SOL     OW13653   3.402   2.692   8.208
 3414SOL    HW113654   3.314   2.726   8.193
 3414SOL    HW213655   3.388   2.610   8.256
 3414SOL     MW13656   3.388   2.685   8.213
 3415SOL     OW13657   5.271   2.647   5.390
 3415SOL    HW113658   5.229   2.615   5.310
 3415SOL    HW213659   5.203   2.697   5.434
 3415SOL     MW13660   5.256   2.649   5.385
 3416SOL     OW13661   1.518   6.633   8.964
 3416SOL    HW113662   1.579   6.639   9.038
 3416SOL    HW213663   1.498   6.724   8.942
 3416SOL     MW13664   1.524   6.646   8.971
 3417SOL     OW13665   7.359   8.597   1.872
 3417SOL    HW113666   7.332   8.523   1.926
 3417SOL    HW213667   7.280   8.625   1.827
 3417SOL     MW13668   7.345   8.591   1.873
 3418SOL     OW13669   8.376   9.899   8.897
 3418SOL    HW113670   8.312   9.879   8.965
 3418SOL    HW213671   8.403   9.989   8.914
 3418SOL     MW13672   8.371   9.908   8.909
 3419SOL     OW13673   4.505   0.464   0.872
 3419SOL    HW113674   4.445   0.499   0.807
 3419SOL    HW213675   4.448   0.431   0.941
 3419SOL     MW13676   4.489   0.464   0.872
 3420SOL     OW13677   2.262   1.354   3.381
 3420SOL    HW113678   2.314   1.419   3.333
 3420SOL    HW213679   2.189   1.404   3.418
 3420SOL     MW13680   2.259   1.370   3.380
 3421SOL     OW13681   9.629   2.035   6.884
 3421SOL    HW113682   9.569   2.020   6.958
 3421SOL    HW213683   9.602   2.120   6.849
 3421SOL     MW13684   9.617   2.045   6.890
 3422SOL     OW13685   6.562   4.054   3.078
 3422SOL    HW113686   6.526   4.015   3.158
 3422SOL    HW213687   6.485   4.085   3.029
 3422SOL     MW13688   6.546   4.053   3.082
 3423SOL     OW13689   2.725   7.652   8.974
 3423SOL    HW113690   2.722   7.676   8.882
 3423SOL    HW213691   2.752   7.560   8.974
 3423SOL     MW13692   2.728   7.643   8.962
 3424SOL     OW13693   1.265   6.629   2.483
 3424SOL    HW113694   1.256   6.597   2.573
 3424SOL    HW213695   1.330   6.700   2.490
 3424SOL     MW13696   1.273   6.634   2.496
 3425SOL     OW13697   3.873   4.720   1.039
 3425SOL    HW113698   3.840   4.777   0.969
 3425SOL    HW213699   3.891   4.780   1.112
 3425SOL     MW13700   3.871   4.736   1.039
 3426SOL     OW13701   2.858   4.809   8.336
 3426SOL    HW113702   2.860   4.884   8.276
 3426SOL    HW213703   2.893   4.843   8.418
 3426SOL     MW13704   2.863   4.824   8.339
 3427SOL     OW13705   3.500   3.595   8.378
 3427SOL    HW113706   3.545   3.592   8.294
 3427SOL    HW213707   3.570   3.598   8.443
 3427SOL     MW13708   3.515   3.595   8.375
 3428SOL     OW13709   1.591   5.411   6.550
 3428SOL    HW113710   1.603   5.332   6.497
 3428SOL    HW213711   1.668   5.465   6.531
 3428SOL     MW13712   1.603   5.408   6.540
 3429SOL     OW13713   4.050   0.469   2.652
 3429SOL    HW113714   4.045   0.469   2.747
 3429SOL    HW213715   3.960   0.457   2.622
 3429SOL     MW13716   4.038   0.467   2.661
 3430SOL     OW13717   6.029   8.600   9.635
 3430SOL    HW113718   6.088   8.617   9.562
 3430SOL    HW213719   5.997   8.686   9.661
 3430SOL     MW13720   6.033   8.614   9.629
 3431SOL     OW13721   1.178   9.466   5.826
 3431SOL    HW113722   1.121   9.472   5.903
 3431SOL    HW213723   1.215   9.378   5.831
 3431SOL     MW13724   1.175   9.455   5.837
 3432SOL     OW13725   1.632   3.994   7.488
 3432SOL    HW113726   1.640   3.997   7.584
 3432SOL    HW213727   1.576   4.068   7.466
 3432SOL     MW13728   1.626   4.004   7.498
 3433SOL     OW13729   9.366   1.687   0.196
 3433SOL    HW113730   9.424   1.619   0.161
 3433SOL    HW213731   9.424   1.759   0.219
 3433SOL     MW13732   9.381   1.688   0.194
 3434SOL     OW13733   7.623   9.337   6.972
 3434SOL    HW113734   7.679   9.267   7.005
 3434SOL    HW213735   7.592   9.381   7.051
 3434SOL     MW13736   7.626   9.333   6.987
 3435SOL     OW13737   6.148   6.604   7.058
 3435SOL    HW113738   6.237   6.603   7.023
 3435SOL    HW213739   6.159   6.587   7.151
 3435SOL     MW13740   6.161   6.601   7.066
 3436SOL     OW13741   8.473   9.731   8.700
 3436SOL    HW113742   8.437   9.790   8.766
 3436SOL    HW213743   8.517   9.662   8.750
 3436SOL     MW13744   8.474   9.730   8.715
 3437SOL     OW13745   8.599   5.344   3.842
 3437SOL    HW113746   8.574   5.395   3.765
 3437SOL    HW213747   8.689   5.370   3.860
 3437SOL     MW13748   8.608   5.354   3.834
 3438SOL     OW13749   5.104   6.735   1.582
 3438SOL    HW113750   5.015   6.726   1.615
 3438SOL    HW213751   5.153   6.775   1.655
 3438SOL     MW13752   5.099   6.739   1.596
 3439SOL     OW13753   9.178   9.385   8.767
 3439SOL    HW113754   9.176   9.481   8.765
 3439SOL    HW213755   9.244   9.364   8.833
 3439SOL     MW13756   9.187   9.395   8.775
 3440SOL     OW13757   0.036   4.636   9.180
 3440SOL    HW113758  -0.016   4.592   9.247
 3440SOL    HW213759   0.097   4.569   9.149
 3440SOL     MW13760   0.037   4.621   9.185
 3441SOL     OW13761   3.730   2.170   5.208
 3441SOL    HW113762   3.660   2.154   5.272
 3441SOL    HW213763   3.693   2.235   5.148
 3441SOL     MW13764   3.715   2.177   5.208
 3442SOL     OW13765   5.225   0.373   3.535
 3442SOL    HW113766   5.154   0.411   3.586
 3442SOL    HW213767   5.297   0.363   3.598
 3442SOL     MW13768   5.225   0.377   3.550
 3443SOL     OW13769   6.016   8.982   5.690
 3443SOL    HW113770   6.045   8.919   5.624
 3443SOL    HW213771   5.921   8.984   5.681
 3443SOL     MW13772   6.007   8.974   5.680
 3444SOL     OW13773   3.590   6.479   2.431
 3444SOL    HW113774   3.674   6.469   2.477
 3444SOL    HW213775   3.612   6.522   2.349
 3444SOL     MW13776   3.604   6.484   2.426
 3445SOL     OW13777   5.097   9.391   8.155
 3445SOL    HW113778   5.159   9.399   8.083
 3445SOL    HW213779   5.109   9.302   8.188
 3445SOL     MW13780   5.107   9.380   8.150
 3446SOL     OW13781   7.346   0.861   0.829
 3446SOL    HW113782   7.288   0.924   0.873
 3446SOL    HW213783   7.287   0.803   0.782
 3446SOL     MW13784   7.330   0.862   0.828
 3447SOL     OW13785   2.229   2.879   1.122
 3447SOL    HW113786   2.237   2.974   1.126
 3447SOL    HW213787   2.317   2.847   1.103
 3447SOL     MW13788   2.242   2.887   1.120
 3448SOL     OW13789   2.557   0.048   8.152
 3448SOL    HW113790   2.517   0.022   8.069
 3448SOL    HW213791   2.579  -0.034   8.195
 3448SOL     MW13792   2.554   0.034   8.147
 3449SOL     OW13793   1.741   0.154   0.671
 3449SOL    HW113794   1.742   0.145   0.575
 3449SOL    HW213795   1.759   0.246   0.687
 3449SOL     MW13796   1.743   0.165   0.660
 3450SOL     OW13797   8.144   6.275   6.610
 3450SOL    HW113798   8.232   6.312   6.610
 3450SOL    HW213799   8.144   6.213   6.536
 3450SOL     MW13800   8.156   6.272   6.600
 3451SOL     OW13801   1.163   3.749   5.358
 3451SOL    HW113802   1.250   3.773   5.328
 3451SOL    HW213803   1.148   3.662   5.323
 3451SOL     MW13804   1.172   3.741   5.350
 3452SOL     OW13805   7.403   6.316   5.131
 3452SOL    HW113806   7.455   6.262   5.071
 3452SOL    HW213807   7.467   6.347   5.195
 3452SOL     MW13808   7.419   6.313   5.132
 3453SOL     OW13809   3.359   6.906   9.422
 3453SOL    HW113810   3.319   6.839   9.477
 3453SOL    HW213811   3.437   6.864   9.387
 3453SOL     MW13812   3.364   6.891   9.424
 3454SOL     OW13813   2.170   3.229   5.170
 3454SOL    HW113814   2.127   3.194   5.249
 3454SOL    HW213815   2.263   3.215   5.186
 3454SOL     MW13816   2.177   3.222   5.183
 3455SOL     OW13817   4.814   1.927   8.399
 3455SOL    HW113818   4.843   2.003   8.449
 3455SOL    HW213819   4.877   1.921   8.327
 3455SOL     MW13820   4.827   1.936   8.396
 3456SOL     OW13821   8.901   3.634   4.797
 3456SOL    HW113822   8.837   3.581   4.845
 3456SOL    HW213823   8.986   3.605   4.831
 3456SOL     MW13824   8.904   3.623   4.808
 3457SOL     OW13825   0.342   2.230   0.852
 3457SOL    HW113826   0.265   2.174   0.845
 3457SOL    HW213827   0.376   2.235   0.763
 3457SOL     MW13828   0.336   2.223   0.839
 3458SOL     OW13829   8.359   8.962   7.131
 3458SOL    HW113830   8.273   8.950   7.172
 3458SOL    HW213831   8.341   9.019   7.056
 3458SOL     MW13832   8.345   8.968   7.126
 3459SOL     OW13833   0.519   5.606   1.150
 3459SOL    HW113834   0.503   5.572   1.238
 3459SOL    HW213835   0.548   5.530   1.100
 3459SOL     MW13836   0.521   5.592   1.156
 3460SOL     OW13837   3.281   7.722   7.947
 3460SOL    HW113838   3.296   7.633   7.978
 3460SOL    HW213839   3.356   7.772   7.980
 3460SOL     MW13840   3.293   7.717   7.956
 3461SOL     OW13841   1.191   4.171   1.257
 3461SOL    HW113842   1.196   4.198   1.349
 3461SOL    HW213843   1.133   4.094   1.259
 3461SOL     MW13844   1.184   4.164   1.270
 3462SOL     OW13845   8.451   3.761   8.794
 3462SOL    HW113846   8.409   3.750   8.879
 3462SOL    HW213847   8.529   3.705   8.798
 3462SOL     MW13848   8.456   3.752   8.806
 3463SOL     OW13849   0.434   5.858   1.061
 3463SOL    HW113850   0.449   5.855   0.967
 3463SOL    HW213851   0.454   5.769   1.091
 3463SOL     MW13852   0.439   5.845   1.052
 3464SOL     OW13853   6.463   3.903   0.325
 3464SOL    HW113854   6.413   3.931   0.401
 3464SOL    HW213855   6.446   3.971   0.259
 3464SOL     MW13856   6.454   3.916   0.326
 3465SOL     OW13857   9.815   6.982   5.003
 3465SOL    HW113858   9.818   6.937   4.919
 3465SOL    HW213859   9.902   7.022   5.012
 3465SOL     MW13860   9.827   6.981   4.993
 3466SOL     OW13861   5.485   7.014   5.078
 3466SOL    HW113862   5.558   6.953   5.088
 3466SOL    HW213863   5.415   6.976   5.131
 3466SOL     MW13864   5.486   7.000   5.086
 3467SOL     OW13865   1.034   1.589   0.125
 3467SOL    HW113866   0.946   1.562   0.151
 3467SOL    HW213867   1.060   1.526   0.059
 3467SOL     MW13868   1.026   1.577   0.120
 3468SOL     OW13869   8.471   2.833   5.042
 3468SOL    HW113870   8.431   2.833   4.955
 3468SOL    HW213871   8.505   2.922   5.053
 3468SOL     MW13872   8.470   2.845   5.032
 3469SOL     OW13873   9.956   9.072   4.131
 3469SOL    HW113874  10.047   9.071   4.101
 3469SOL    HW213875   9.907   9.108   4.058
 3469SOL     MW13876   9.962   9.077   4.117
 3470SOL     OW13877   5.017   2.213   2.747
 3470SOL    HW113878   5.112   2.228   2.746
 3470SOL    HW213879   4.985   2.272   2.815
 3470SOL     MW13880   5.026   2.223   2.756
 3471SOL     OW13881   7.255   4.302   5.423
 3471SOL    HW113882   7.250   4.292   5.328
 3471SOL    HW213883   7.314   4.232   5.452
 3471SOL     MW13884   7.262   4.291   5.415
 3472SOL     OW13885   7.172   0.201   7.791
 3472SOL    HW113886   7.141   0.158   7.871
 3472SOL    HW213887   7.095   0.246   7.756
 3472SOL     MW13888   7.157   0.201   7.797
 3473SOL     OW13889   2.316   6.783   5.961
 3473SOL    HW113890   2.286   6.857   5.909
 3473SOL    HW213891   2.320   6.817   6.051
 3473SOL     MW13892   2.312   6.797   5.966
 3474SOL     OW13893   1.956   1.427   2.463
 3474SOL    HW113894   1.864   1.447   2.446
 3474SOL    HW213895   2.004   1.499   2.423
 3474SOL     MW13896   1.950   1.439   2.455
 3475SOL     OW13897   2.716   4.007   5.195
 3475SOL    HW113898   2.745   4.033   5.107
 3475SOL    HW213899   2.666   3.927   5.181
 3475SOL     MW13900   2.713   4.000   5.181
 3476SOL     OW13901   2.465   1.921   1.288
 3476SOL    HW113902   2.438   1.998   1.237
 3476SOL    HW213903   2.538   1.952   1.341
 3476SOL     MW13904   2.471   1.936   1.288
 3477SOL     OW13905   0.825   2.497   2.280
 3477SOL    HW113906   0.856   2.415   2.317
 3477SOL    HW213907   0.817   2.479   2.186
 3477SOL     MW13908   0.828   2.484   2.272
 3478SOL     OW13909   7.461   7.389  10.029
 3478SOL    HW113910   7.520   7.436   9.970
 3478SOL    HW213911   7.423   7.320   9.975
 3478SOL     MW13912   7.464   7.386  10.014
 3479SOL     OW13913   4.565   6.626   2.481
 3479SOL    HW113914   4.493   6.598   2.424
 3479SOL    HW213915   4.523   6.677   2.550
 3479SOL     MW13916   4.550   6.629   2.483
 3480SOL     OW13917   0.406   9.233   0.695
 3480SOL    HW113918   0.340   9.211   0.630
 3480SOL    HW213919   0.359   9.233   0.778
 3480SOL     MW13920   0.391   9.230   0.697
 3481SOL     OW13921   5.904   3.003   1.711
 3481SOL    HW113922   5.910   3.098   1.702
 3481SOL    HW213923   5.994   2.973   1.697
 3481SOL     MW13924   5.917   3.012   1.708
 3482SOL     OW13925   1.613   8.553   0.681
 3482SOL    HW113926   1.700   8.516   0.668
 3482SOL    HW213927   1.602   8.556   0.776
 3482SOL     MW13928   1.623   8.549   0.692
 3483SOL     OW13929   1.600   5.874   0.294
 3483SOL    HW113930   1.616   5.908   0.206
 3483SOL    HW213931   1.687   5.866   0.334
 3483SOL     MW13932   1.614   5.877   0.288
 3484SOL     OW13933   8.783   5.649   3.048
 3484SOL    HW113934   8.833   5.665   2.968
 3484SOL    HW213935   8.714   5.715   3.047
 3484SOL     MW13936   8.780   5.660   3.037
 3485SOL     OW13937   5.161   3.388   2.762
 3485SOL    HW113938   5.148   3.405   2.669
 3485SOL    HW213939   5.118   3.304   2.777
 3485SOL     MW13940   5.154   3.379   2.751
 3486SOL     OW13941   6.075   1.235   4.603
 3486SOL    HW113942   6.037   1.151   4.629
 3486SOL    HW213943   6.013   1.272   4.541
 3486SOL     MW13944   6.062   1.229   4.598
 3487SOL     OW13945   6.904   4.840   4.138
 3487SOL    HW113946   6.852   4.791   4.201
 3487SOL    HW213947   6.966   4.777   4.103
 3487SOL     MW13948   6.905   4.825   4.142
 3488SOL     OW13949   1.328   2.241   7.457
 3488SOL    HW113950   1.325   2.146   7.469
 3488SOL    HW213951   1.288   2.256   7.371
 3488SOL     MW13952   1.322   2.230   7.447
 3489SOL     OW13953   0.926   0.569   9.898
 3489SOL    HW113954   0.980   0.646   9.882
 3489SOL    HW213955   0.836   0.602   9.899
 3489SOL     MW13956   0.921   0.584   9.896
 3490SOL     OW13957   8.208   9.398   0.415
 3490SOL    HW113958   8.211   9.494   0.408
 3490SOL    HW213959   8.184   9.381   0.506
 3490SOL     MW13960   8.206   9.409   0.426
 3491SOL     OW13961   2.468   3.591   8.509
 3491SOL    HW113962   2.472   3.632   8.596
 3491SOL    HW213963   2.559   3.592   8.479
 3491SOL     MW13964   2.481   3.597   8.517
 3492SOL     OW13965   6.332   3.034   0.285
 3492SOL    HW113966   6.272   2.987   0.228
 3492SOL    HW213967   6.372   3.101   0.229
 3492SOL     MW13968   6.330   3.037   0.270
 3493SOL     OW13969   4.063   6.649   3.185
 3493SOL    HW113970   4.087   6.736   3.215
 3493SOL    HW213971   3.987   6.663   3.129
 3493SOL     MW13972   4.056   6.663   3.181
 3494SOL     OW13973   2.077   1.569   8.744
 3494SOL    HW113974   2.038   1.653   8.766
 3494SOL    HW213975   2.073   1.565   8.648
 3494SOL     MW13976   2.071   1.580   8.734
 3495SOL     OW13977   2.998   7.484   1.331
 3495SOL    HW113978   3.042   7.555   1.283
 3495SOL    HW213979   3.017   7.502   1.423
 3495SOL     MW13980   3.007   7.496   1.337
 3496SOL     OW13981   3.887   3.891   2.443
 3496SOL    HW113982   3.807   3.881   2.495
 3496SOL    HW213983   3.885   3.983   2.414
 3496SOL     MW13984   3.876   3.902   2.446
 3497SOL     OW13985   9.933   0.433   2.423
 3497SOL    HW113986   9.907   0.397   2.508
 3497SOL    HW213987   9.850   0.461   2.383
 3497SOL     MW13988   9.918   0.432   2.429
 3498SOL     OW13989   2.706   9.872   4.469
 3498SOL    HW113990   2.630   9.849   4.416
 3498SOL    HW213991   2.701   9.967   4.479
 3498SOL     MW13992   2.695   9.882   4.463
 3499SOL     OW13993   2.067   0.416   0.681
 3499SOL    HW113994   2.078   0.354   0.753
 3499SOL    HW213995   1.973   0.429   0.674
 3499SOL     MW13996   2.056   0.410   0.690
 3500SOL     OW13997   6.562   0.260   4.707
 3500SOL    HW113998   6.590   0.277   4.797
 3500SOL    HW213999   6.633   0.295   4.653
 3500SOL     MW14000   6.575   0.267   4.712
 3501SOL     OW14001   1.582   2.033   3.189
 3501SOL    HW114002   1.498   2.068   3.218
 3501SOL    HW214003   1.620   1.993   3.267
 3501SOL     MW14004   1.576   2.032   3.203
 3502SOL     OW14005   7.549   3.146   7.602
 3502SOL    HW114006   7.505   3.211   7.549
 3502SOL    HW214007   7.591   3.197   7.672
 3502SOL     MW14008   7.549   3.161   7.605
 3503SOL     OW14009   3.636   4.498   0.181
 3503SOL    HW114010   3.685   4.526   0.259
 3503SOL    HW214011   3.644   4.403   0.181
 3503SOL     MW14012   3.644   4.489   0.192
 3504SOL     OW14013   4.807   7.127  10.029
 3504SOL    HW114014   4.875   7.092   9.971
 3504SOL    HW214015   4.841   7.213  10.056
 3504SOL     MW14016   4.821   7.134  10.025
 3505SOL     OW14017   4.670   4.434   8.299
 3505SOL    HW114018   4.624   4.472   8.224
 3505SOL    HW214019   4.644   4.488   8.373
 3505SOL     MW14020   4.660   4.446   8.299
 3506SOL     OW14021   3.956   8.070   5.882
 3506SOL    HW114022   4.051   8.061   5.875
 3506SOL    HW214023   3.921   8.019   5.809
 3506SOL     MW14024   3.964   8.062   5.871
 3507SOL     OW14025   4.799   8.116   0.097
 3507SOL    HW114026   4.880   8.070   0.121
 3507SOL    HW214027   4.759   8.060   0.030
 3507SOL     MW14028   4.805   8.103   0.091
 3508SOL     OW14029   4.376   9.488   9.477
 3508SOL    HW114030   4.307   9.477   9.542
 3508SOL    HW214031   4.351   9.566   9.427
 3508SOL     MW14032   4.364   9.497   9.479
 3509SOL     OW14033   7.268   6.860   9.793
 3509SOL    HW114034   7.186   6.860   9.841
 3509SOL    HW214035   7.254   6.803   9.718
 3509SOL     MW14036   7.255   6.853   9.789
 3510SOL     OW14037   0.091   2.007  10.079
 3510SOL    HW114038   0.090   1.912  10.093
 3510SOL    HW214039   0.135   2.042  10.156
 3510SOL     MW14040   0.097   1.999  10.091
 3511SOL     OW14041   2.923   0.124   9.601
 3511SOL    HW114042   2.864   0.115   9.526
 3511SOL    HW214043   3.003   0.079   9.573
 3511SOL     MW14044   2.926   0.116   9.587
 3512SOL     OW14045  10.140   0.829   8.786
 3512SOL    HW114046  10.163   0.819   8.879
 3512SOL    HW214047  10.096   0.747   8.764
 3512SOL     MW14048  10.137   0.817   8.796
 3513SOL     OW14049   3.425   3.994   3.687
 3513SOL    HW114050   3.462   4.070   3.732
 3513SOL    HW214051   3.351   3.968   3.742
 3513SOL     MW14052   3.420   4.001   3.701
 3514SOL     OW14053   5.570   8.033   1.994
 3514SOL    HW114054   5.650   8.069   2.034
 3514SOL    HW214055   5.501   8.094   2.020
 3514SOL     MW14056   5.572   8.046   2.003
 3515SOL     OW14057   0.242   4.971   3.104
 3515SOL    HW114058   0.334   4.957   3.081
 3515SOL    HW214059   0.242   4.987   3.198
 3515SOL     MW14060   0.254   4.971   3.113
 3516SOL     OW14061   3.680   4.217   6.651
 3516SOL    HW114062   3.742   4.256   6.589
 3516SOL    HW214063   3.601   4.202   6.600
 3516SOL     MW14064   3.678   4.220   6.636
 3517SOL     OW14065   3.124   9.932   4.271
 3517SOL    HW114066   3.181   9.946   4.348
 3517SOL    HW214067   3.185   9.917   4.199
 3517SOL     MW14068   3.140   9.932   4.272
 3518SOL     OW14069   0.475   3.025   7.334
 3518SOL    HW114070   0.478   2.980   7.419
 3518SOL    HW214071   0.406   2.980   7.285
 3518SOL     MW14072   0.466   3.013   7.339
 3519SOL     OW14073   5.351   2.954   1.618
 3519SOL    HW114074   5.437   2.989   1.639
 3519SOL    HW214075   5.308   3.024   1.569
 3519SOL     MW14076   5.357   2.968   1.614
 3520SOL     OW14077   8.131   6.561   8.566
 3520SOL    HW114078   8.063   6.625   8.545
 3520SOL    HW214079   8.130   6.499   8.494
 3520SOL     MW14080   8.122   6.561   8.554
 3521SOL     OW14081   7.116   2.130   3.712
 3521SOL    HW114082   7.172   2.134   3.790
 3521SOL    HW214083   7.027   2.126   3.747
 3521SOL     MW14084   7.111   2.130   3.727
 3522SOL     OW14085   1.121   1.043   9.722
 3522SOL    HW114086   1.215   1.052   9.703
 3522SOL    HW214087   1.112   0.956   9.760
 3522SOL     MW14088   1.132   1.033   9.725
 3523SOL     OW14089   0.932   9.845   7.071
 3523SOL    HW114090   0.952   9.856   6.978
 3523SOL    HW214091   0.946   9.932   7.109
 3523SOL     MW14092   0.937   9.858   7.064
 3524SOL     OW14093   5.045   9.901   2.255
 3524SOL    HW114094   5.115   9.959   2.287
 3524SOL    HW214095   5.014   9.944   2.175
 3524SOL     MW14096   5.051   9.915   2.248
 3525SOL     OW14097   7.224   5.132   4.968
 3525SOL    HW114098   7.177   5.068   5.022
 3525SOL    HW214099   7.276   5.182   5.031
 3525SOL     MW14100   7.225   5.130   4.984
 3526SOL     OW14101   7.176   1.932   3.524
 3526SOL    HW114102   7.159   2.002   3.586
 3526SOL    HW214103   7.092   1.887   3.514
 3526SOL     MW14104   7.163   1.935   3.531
 3527SOL     OW14105   5.249   9.549   2.429
 3527SOL    HW114106   5.294   9.622   2.470
 3527SOL    HW214107   5.270   9.474   2.484
 3527SOL     MW14108   5.258   9.549   2.442
 3528SOL     OW14109   0.261   0.577   5.304
 3528SOL    HW114110   0.192   0.636   5.273
 3528SOL    HW214111   0.338   0.632   5.312
 3528SOL     MW14112   0.262   0.592   5.301
 3529SOL     OW14113   3.305   8.068   0.083
 3529SOL    HW114114   3.288   8.010   0.009
 3529SOL    HW214115   3.234   8.051   0.145
 3529SOL     MW14116   3.293   8.058   0.081
 3530SOL     OW14117   4.134   1.037   7.090
 3530SOL    HW114118   4.191   1.015   7.017
 3530SOL    HW214119   4.100   0.953   7.121
 3530SOL     MW14120   4.137   1.023   7.084
 3531SOL     OW14121   3.315   0.364   9.284
 3531SOL    HW114122   3.235   0.354   9.335
 3531SOL    HW214123   3.321   0.458   9.267
 3531SOL     MW14124   3.305   0.375   9.288
 3532SOL     OW14125   7.308   9.583   8.903
 3532SOL    HW114126   7.269   9.610   8.986
 3532SOL    HW214127   7.338   9.664   8.863
 3532SOL     MW14128   7.307   9.598   8.909
 3533SOL     OW14129   7.745   4.956   1.009
 3533SOL    HW114130   7.811   4.981   1.073
 3533SOL    HW214131   7.700   5.037   0.988
 3533SOL     MW14132   7.748   4.970   1.015
 3534SOL     OW14133   3.428   9.043   3.856
 3534SOL    HW114134   3.394   9.076   3.939
 3534SOL    HW214135   3.500   9.103   3.834
 3534SOL     MW14136   3.433   9.055   3.864
 3535SOL     OW14137   0.297   6.778   0.935
 3535SOL    HW114138   0.327   6.869   0.938
 3535SOL    HW214139   0.360   6.733   0.880
 3535SOL     MW14140   0.309   6.784   0.928
 3536SOL     OW14141   6.587   0.807   8.378
 3536SOL    HW114142   6.587   0.903   8.371
 3536SOL    HW214143   6.680   0.783   8.381
 3536SOL     MW14144   6.599   0.817   8.377
 3537SOL     OW14145   1.217   0.542   6.880
 3537SOL    HW114146   1.283   0.564   6.945
 3537SOL    HW214147   1.265   0.501   6.808
 3537SOL     MW14148   1.232   0.540   6.879
 3538SOL     OW14149   0.276   1.277   8.407
 3538SOL    HW114150   0.329   1.295   8.329
 3538SOL    HW214151   0.339   1.272   8.479
 3538SOL     MW14152   0.292   1.279   8.406
 3539SOL     OW14153   3.921   3.163   6.804
 3539SOL    HW114154   3.963   3.249   6.796
 3539SOL    HW214155   3.981   3.103   6.760
 3539SOL     MW14156   3.935   3.167   6.797
 3540SOL     OW14157   9.604   9.449   1.871
 3540SOL    HW114158   9.516   9.484   1.884
 3540SOL    HW214159   9.662   9.524   1.887
 3540SOL     MW14160   9.600   9.464   1.875
 3541SOL     OW14161   5.238   4.863   9.126
 3541SOL    HW114162   5.204   4.817   9.203
 3541SOL    HW214163   5.264   4.949   9.160
 3541SOL     MW14164   5.237   4.869   9.141
 3542SOL     OW14165   2.178   4.659   6.475
 3542SOL    HW114166   2.128   4.682   6.397
 3542SOL    HW214167   2.207   4.570   6.459
 3542SOL     MW14168   2.175   4.650   6.462
 3543SOL     OW14169   8.409   2.395   3.779
 3543SOL    HW114170   8.445   2.354   3.700
 3543SOL    HW214171   8.485   2.410   3.835
 3543SOL     MW14172   8.424   2.392   3.776
 3544SOL     OW14173   1.020   8.084   3.279
 3544SOL    HW114174   0.969   8.135   3.217
 3544SOL    HW214175   1.018   7.995   3.245
 3544SOL     MW14176   1.013   8.079   3.266
 3545SOL     OW14177   5.824   6.295   7.864
 3545SOL    HW114178   5.756   6.337   7.812
 3545SOL    HW214179   5.866   6.233   7.804
 3545SOL     MW14180   5.821   6.292   7.849
 3546SOL     OW14181   0.043   5.266   7.855
 3546SOL    HW114182  -0.049   5.277   7.834
 3546SOL    HW214183   0.046   5.189   7.912
 3546SOL     MW14184   0.031   5.257   7.860
 3547SOL     OW14185   3.072   1.276   2.715
 3547SOL    HW114186   3.081   1.186   2.746
 3547SOL    HW214187   3.135   1.283   2.643
 3547SOL     MW14188   3.081   1.265   2.709
 3548SOL     OW14189   9.035   3.260   4.911
 3548SOL    HW114190   9.070   3.188   4.860
 3548SOL    HW214191   8.940   3.246   4.910
 3548SOL     MW14192   9.027   3.249   4.904
 3549SOL     OW14193   0.232   6.847   5.905
 3549SOL    HW114194   0.175   6.771   5.915
 3549SOL    HW214195   0.218   6.899   5.984
 3549SOL     MW14196   0.223   6.844   5.917
 3550SOL     OW14197   1.448   3.383   6.370
 3550SOL    HW114198   1.528   3.357   6.324
 3550SOL    HW214199   1.425   3.468   6.334
 3550SOL     MW14200   1.456   3.391   6.359
 3551SOL     OW14201   3.407   6.630   0.096
 3551SOL    HW114202   3.438   6.694   0.032
 3551SOL    HW214203   3.323   6.600   0.061
 3551SOL     MW14204   3.400   6.634   0.083
 3552SOL     OW14205  10.134   4.665   5.198
 3552SOL    HW114206  10.115   4.732   5.263
 3552SOL    HW214207  10.122   4.709   5.114
 3552SOL     MW14208  10.130   4.680   5.196
 3553SOL     OW14209   7.633   1.360   4.306
 3553SOL    HW114210   7.602   1.437   4.353
 3553SOL    HW214211   7.639   1.389   4.215
 3553SOL     MW14212   7.630   1.374   4.300
 3554SOL     OW14213   2.075   0.707   5.022
 3554SOL    HW114214   2.129   0.784   5.004
 3554SOL    HW214215   2.091   0.649   4.948
 3554SOL     MW14216   2.085   0.710   5.010
 3555SOL     OW14217   0.297   1.254   7.410
 3555SOL    HW114218   0.276   1.309   7.485
 3555SOL    HW214219   0.229   1.186   7.410
 3555SOL     MW14220   0.285   1.252   7.420
 3556SOL     OW14221   5.543   0.620   0.050
 3556SOL    HW114222   5.517   0.635  -0.041
 3556SOL    HW214223   5.535   0.706   0.091
 3556SOL     MW14224   5.538   0.634   0.043
 3557SOL     OW14225   0.557   5.777   8.879
 3557SOL    HW114226   0.544   5.871   8.892
 3557SOL    HW214227   0.468   5.740   8.880
 3557SOL     MW14228   0.543   5.784   8.881
 3558SOL     OW14229   0.074   1.090   7.353
 3558SOL    HW114230   0.085   1.144   7.275
 3558SOL    HW214231  -0.018   1.101   7.377
 3558SOL     MW14232   0.063   1.099   7.346
 3559SOL     OW14233   8.348   3.613   8.380
 3559SOL    HW114234   8.349   3.687   8.441
 3559SOL    HW214235   8.404   3.640   8.308
 3559SOL     MW14236   8.355   3.626   8.379
 3560SOL     OW14237   8.298   1.378   2.083
 3560SOL    HW114238   8.250   1.301   2.113
 3560SOL    HW214239   8.356   1.345   2.015
 3560SOL     MW14240   8.299   1.364   2.078
 3561SOL     OW14241   9.833   7.637   0.754
 3561SOL    HW114242   9.757   7.682   0.789
 3561SOL    HW214243   9.835   7.661   0.661
 3561SOL     MW14244   9.823   7.646   0.746
 3562SOL     OW14245   3.560   8.133   0.175
 3562SOL    HW114246   3.473   8.110   0.142
 3562SOL    HW214247   3.568   8.227   0.156
 3562SOL     MW14248   3.549   8.143   0.168
 3563SOL     OW14249   7.900   2.215   9.152
 3563SOL    HW114250   7.984   2.203   9.196
 3563SOL    HW214251   7.918   2.280   9.084
 3563SOL     MW14252   7.914   2.222   9.149
 3564SOL     OW14253   0.951   8.979   0.127
 3564SOL    HW114254   0.913   9.067   0.121
 3564SOL    HW214255   0.896   8.933   0.189
 3564SOL     MW14256   0.939   8.985   0.135
 3565SOL     OW14257   4.807   1.281   0.156
 3565SOL    HW114258   4.805   1.304   0.248
 3565SOL    HW214259   4.898   1.260   0.137
 3565SOL     MW14260   4.819   1.281   0.166
 3566SOL     OW14261   2.406   1.978   0.916
 3566SOL    HW114262   2.400   1.957   0.823
 3566SOL    HW214263   2.420   1.893   0.959
 3566SOL     MW14264   2.407   1.964   0.909
 3567SOL     OW14265   1.395   8.918   3.148
 3567SOL    HW114266   1.466   8.946   3.207
 3567SOL    HW214267   1.322   8.976   3.170
 3567SOL     MW14268   1.395   8.929   3.159
 3568SOL     OW14269   6.610   9.456   4.729
 3568SOL    HW114270   6.568   9.483   4.810
 3568SOL    HW214271   6.613   9.360   4.734
 3568SOL     MW14272   6.605   9.447   4.740
 3569SOL     OW14273   1.990   8.078   2.296
 3569SOL    HW114274   1.924   8.147   2.291
 3569SOL    HW214275   1.972   8.022   2.220
 3569SOL     MW14276   1.979   8.080   2.285
 3570SOL     OW14277   2.537   8.982   7.403
 3570SOL    HW114278   2.614   8.949   7.356
 3570SOL    HW214279   2.477   9.009   7.334
 3570SOL     MW14280   2.539   8.981   7.387
 3571SOL     OW14281   4.450   3.064  10.144
 3571SOL    HW114282   4.491   3.105  10.067
 3571SOL    HW214283   4.499   2.983  10.156
 3571SOL     MW14284   4.462   3.059  10.135
 3572SOL     OW14285   0.329  10.081   6.845
 3572SOL    HW114286   0.275  10.118   6.775
 3572SOL    HW214287   0.296  10.122   6.925
 3572SOL     MW14288   0.318  10.092   6.847
 3573SOL     OW14289   8.484   1.343   0.319
 3573SOL    HW114290   8.498   1.275   0.385
 3573SOL    HW214291   8.521   1.422   0.357
 3573SOL     MW14292   8.491   1.344   0.333
 3574SOL     OW14293   6.030   9.853   8.117
 3574SOL    HW114294   6.011   9.818   8.204
 3574SOL    HW214295   6.049   9.775   8.064
 3574SOL     MW14296   6.030   9.838   8.121
 3575SOL     OW14297   2.769   5.061   1.481
 3575SOL    HW114298   2.712   5.099   1.549
 3575SOL    HW214299   2.759   4.967   1.491
 3575SOL     MW14300   2.760   5.054   1.492
 3576SOL     OW14301   2.618   3.208   5.011
 3576SOL    HW114302   2.610   3.272   4.941
 3576SOL    HW214303   2.712   3.200   5.026
 3576SOL     MW14304   2.629   3.215   5.004
 3577SOL     OW14305   8.066   1.201   6.908
 3577SOL    HW114306   8.138   1.238   6.960
 3577SOL    HW214307   8.009   1.158   6.972
 3577SOL     MW14308   8.068   1.200   6.924
 3578SOL     OW14309   7.487   8.643   4.899
 3578SOL    HW114310   7.538   8.627   4.820
 3578SOL    HW214311   7.464   8.735   4.894
 3578SOL     MW14312   7.491   8.653   4.888
 3579SOL     OW14313   5.214   6.264   3.951
 3579SOL    HW114314   5.184   6.225   3.870
 3579SOL    HW214315   5.154   6.337   3.966
 3579SOL     MW14316   5.202   6.269   3.942
 3580SOL     OW14317   0.021   2.013   1.082
 3580SOL    HW114318  -0.060   2.032   1.130
 3580SOL    HW214319   0.091   2.032   1.145
 3580SOL     MW14320   0.019   2.018   1.097
 3581SOL     OW14321   0.397   6.645   4.497
 3581SOL    HW114322   0.490   6.658   4.518
 3581SOL    HW214323   0.393   6.558   4.457
 3581SOL     MW14324   0.409   6.635   4.494
 3582SOL     OW14325   9.770   8.873   4.074
 3582SOL    HW114326   9.842   8.925   4.109
 3582SOL    HW214327   9.715   8.854   4.149
 3582SOL     MW14328   9.772   8.878   4.089
 3583SOL     OW14329   4.694   0.009   6.966
 3583SOL    HW114330   4.677   0.061   7.043
 3583SOL    HW214331   4.630  -0.062   6.970
 3583SOL     MW14332   4.683   0.006   6.977
 3584SOL     OW14333   7.484  10.090   3.018
 3584SOL    HW114334   7.448  10.134   3.095
 3584SOL    HW214335   7.409  10.045   2.980
 3584SOL     MW14336   7.469  10.090   3.024
 3585SOL     OW14337   5.156   7.270   4.195
 3585SOL    HW114338   5.227   7.316   4.149
 3585SOL    HW214339   5.198   7.193   4.232
 3585SOL     MW14340   5.171   7.266   4.194
 3586SOL     OW14341   7.608   8.582   4.405
 3586SOL    HW114342   7.608   8.624   4.319
 3586SOL    HW214343   7.625   8.490   4.387
 3586SOL     MW14344   7.610   8.575   4.391
 3587SOL     OW14345   8.522   1.938   7.431
 3587SOL    HW114346   8.510   2.006   7.498
 3587SOL    HW214347   8.541   1.859   7.480
 3587SOL     MW14348   8.523   1.937   7.447
 3588SOL     OW14349   8.056   6.546   8.138
 3588SOL    HW114350   8.050   6.487   8.213
 3588SOL    HW214351   8.149   6.549   8.116
 3588SOL     MW14352   8.068   6.539   8.145
 3589SOL     OW14353   2.619   0.297   8.255
 3589SOL    HW114354   2.601   0.211   8.218
 3589SOL    HW214355   2.555   0.355   8.213
 3589SOL     MW14356   2.608   0.293   8.245
 3590SOL     OW14357   7.070   8.123   8.334
 3590SOL    HW114358   7.162   8.109   8.308
 3590SOL    HW214359   7.070   8.113   8.429
 3590SOL     MW14360   7.082   8.120   8.343
 3591SOL     OW14361   6.336   4.110   2.921
 3591SOL    HW114362   6.365   4.053   2.850
 3591SOL    HW214363   6.244   4.088   2.934
 3591SOL     MW14364   6.327   4.100   2.913
 3592SOL     OW14365   2.802   1.666   0.176
 3592SOL    HW114366   2.845   1.715   0.106
 3592SOL    HW214367   2.819   1.574   0.155
 3592SOL     MW14368   2.810   1.660   0.164
 3593SOL     OW14369   5.474   5.934   1.218
 3593SOL    HW114370   5.551   5.982   1.250
 3593SOL    HW214371   5.503   5.843   1.212
 3593SOL     MW14372   5.488   5.928   1.222
 3594SOL     OW14373   2.314   2.045   8.770
 3594SOL    HW114374   2.403   2.048   8.736
 3594SOL    HW214375   2.320   1.990   8.849
 3594SOL     MW14376   2.326   2.038   8.776
 3595SOL     OW14377   0.614   4.439   1.519
 3595SOL    HW114378   0.707   4.462   1.517
 3595SOL    HW214379   0.586   4.460   1.609
 3595SOL     MW14380   0.623   4.445   1.531
 3596SOL     OW14381   7.277   5.160   2.254
 3596SOL    HW114382   7.221   5.233   2.227
 3596SOL    HW214383   7.313   5.125   2.172
 3596SOL     MW14384   7.274   5.165   2.239
 3597SOL     OW14385   4.884   7.303   7.080
 3597SOL    HW114386   4.954   7.238   7.087
 3597SOL    HW214387   4.840   7.301   7.164
 3597SOL     MW14388   4.888   7.294   7.092
 3598SOL     OW14389   9.795   3.090   2.430
 3598SOL    HW114390   9.844   3.170   2.449
 3598SOL    HW214391   9.812   3.074   2.337
 3598SOL     MW14392   9.804   3.099   2.420
 3599SOL     OW14393   1.126   3.722   1.238
 3599SOL    HW114394   1.203   3.710   1.181
 3599SOL    HW214395   1.077   3.640   1.228
 3599SOL     MW14396   1.130   3.709   1.229
 3600SOL     OW14397   2.691   5.943   2.943
 3600SOL    HW114398   2.641   5.885   2.884
 3600SOL    HW214399   2.737   6.002   2.884
 3600SOL     MW14400   2.690   5.943   2.927
 3601SOL     OW14401   2.484   5.790   1.325
 3601SOL    HW114402   2.510   5.803   1.416
 3601SOL    HW214403   2.550   5.730   1.290
 3601SOL     MW14404   2.496   5.784   1.333
 3602SOL     OW14405   2.020   8.457   9.871
 3602SOL    HW114406   1.964   8.410   9.809
 3602SOL    HW214407   2.107   8.451   9.833
 3602SOL     MW14408   2.024   8.450   9.858
 3603SOL     OW14409   7.751   4.457   7.817
 3603SOL    HW114410   7.751   4.541   7.862
 3603SOL    HW214411   7.834   4.417   7.840
 3603SOL     MW14412   7.762   4.463   7.826
 3604SOL     OW14413   5.234   3.993   1.538
 3604SOL    HW114414   5.265   4.045   1.613
 3604SOL    HW214415   5.311   3.942   1.511
 3604SOL     MW14416   5.249   3.993   1.545
 3605SOL     OW14417   9.650   7.500   2.945
 3605SOL    HW114418   9.663   7.594   2.960
 3605SOL    HW214419   9.689   7.484   2.859
 3605SOL     MW14420   9.657   7.510   2.935
 3606SOL     OW14421   1.148   5.636   0.065
 3606SOL    HW114422   1.057   5.614   0.047
 3606SOL    HW214423   1.158   5.621   0.159
 3606SOL     MW14424   1.137   5.631   0.075
 3607SOL     OW14425   7.741   7.757   6.785
 3607SOL    HW114426   7.787   7.684   6.742
 3607SOL    HW214427   7.743   7.735   6.878
 3607SOL     MW14428   7.747   7.744   6.792
 3608SOL     OW14429   9.243   0.308   5.907
 3608SOL    HW114430   9.213   0.367   5.838
 3608SOL    HW214431   9.172   0.244   5.916
 3608SOL     MW14432   9.229   0.307   5.899
 3609SOL     OW14433   1.786   0.430   0.671
 3609SOL    HW114434   1.747   0.441   0.585
 3609SOL    HW214435   1.743   0.495   0.726
 3609SOL     MW14436   1.775   0.440   0.667
 3610SOL     OW14437   3.607   2.441   0.750
 3610SOL    HW114438   3.603   2.520   0.805
 3610SOL    HW214439   3.620   2.474   0.661
 3610SOL     MW14440   3.608   2.456   0.746
 3611SOL     OW14441   4.986   0.104   7.846
 3611SOL    HW114442   5.063   0.067   7.803
 3611SOL    HW214443   5.021   0.151   7.922
 3611SOL     MW14444   5.001   0.105   7.850
 3612SOL     OW14445   5.188   1.560   5.642
 3612SOL    HW114446   5.281   1.541   5.629
 3612SOL    HW214447   5.146   1.532   5.561
 3612SOL     MW14448   5.195   1.554   5.630
 3613SOL     OW14449   2.603   5.187   1.663
 3613SOL    HW114450   2.541   5.176   1.736
 3613SOL    HW214451   2.583   5.273   1.627
 3613SOL     MW14452   2.592   5.197   1.668
 3614SOL     OW14453   2.085   8.077   4.132
 3614SOL    HW114454   2.054   8.041   4.049
 3614SOL    HW214455   2.132   8.005   4.173
 3614SOL     MW14456   2.087   8.062   4.127
 3615SOL     OW14457   0.418   2.754   9.580
 3615SOL    HW114458   0.354   2.703   9.530
 3615SOL    HW214459   0.430   2.704   9.661
 3615SOL     MW14460   0.411   2.740   9.584
 3616SOL     OW14461  10.055   7.910   0.444
 3616SOL    HW114462  10.078   7.962   0.521
 3616SOL    HW214463  10.138   7.890   0.403
 3616SOL     MW14464  10.069   7.914   0.449
 3617SOL     OW14465   0.489   7.318   3.968
 3617SOL    HW114466   0.495   7.391   3.906
 3617SOL    HW214467   0.579   7.304   3.998
 3617SOL     MW14468   0.502   7.326   3.963
 3618SOL     OW14469   6.195   4.200   6.350
 3618SOL    HW114470   6.130   4.174   6.416
 3618SOL    HW214471   6.212   4.121   6.300
 3618SOL     MW14472   6.188   4.186   6.352
 3619SOL     OW14473   0.813   9.410   1.754
 3619SOL    HW114474   0.812   9.318   1.730
 3619SOL    HW214475   0.721   9.437   1.754
 3619SOL     MW14476   0.801   9.401   1.751
 3620SOL     OW14477   7.750   9.531   3.711
 3620SOL    HW114478   7.747   9.603   3.647
 3620SOL    HW214479   7.809   9.467   3.671
 3620SOL     MW14480   7.758   9.532   3.697
 3621SOL     OW14481   1.140   1.975   9.139
 3621SOL    HW114482   1.175   2.054   9.181
 3621SOL    HW214483   1.163   1.904   9.199
 3621SOL     MW14484   1.148   1.976   9.153
 3622SOL     OW14485   9.391   5.054   9.342
 3622SOL    HW114486   9.477   5.054   9.301
 3622SOL    HW214487   9.407   5.016   9.429
 3622SOL     MW14488   9.405   5.049   9.348
 3623SOL     OW14489   4.059   4.538   6.785
 3623SOL    HW114490   4.100   4.618   6.817
 3623SOL    HW214491   3.972   4.566   6.755
 3623SOL     MW14492   4.053   4.553   6.785
 3624SOL     OW14493   3.288   5.442   6.184
 3624SOL    HW114494   3.379   5.453   6.156
 3624SOL    HW214495   3.280   5.496   6.263
 3624SOL     MW14496   3.299   5.451   6.191
 3625SOL     OW14497   0.081   4.183   9.097
 3625SOL    HW114498   0.074   4.131   9.016
 3625SOL    HW214499  -0.009   4.185   9.131
 3625SOL     MW14500   0.068   4.176   9.090
 3626SOL     OW14501   4.534   5.000   7.900
 3626SOL    HW114502   4.474   5.018   7.828
 3626SOL    HW214503   4.621   5.005   7.861
 3626SOL     MW14504   4.538   5.003   7.885
 3627SOL     OW14505   0.675   9.814   7.182
 3627SOL    HW114506   0.615   9.848   7.115
 3627SOL    HW214507   0.761   9.818   7.140
 3627SOL     MW14508   0.679   9.819   7.167
 3628SOL     OW14509   9.463   8.587   1.392
 3628SOL    HW114510   9.538   8.545   1.350
 3628SOL    HW214511   9.453   8.540   1.475
 3628SOL     MW14512   9.472   8.575   1.398
 3629SOL     OW14513   3.487   2.830   7.977
 3629SOL    HW114514   3.453   2.781   8.052
 3629SOL    HW214515   3.498   2.919   8.010
 3629SOL     MW14516   3.484   2.836   7.991
 3630SOL     OW14517   9.900   1.690   2.816
 3630SOL    HW114518   9.884   1.625   2.748
 3630SOL    HW214519   9.971   1.744   2.781
 3630SOL     MW14520   9.908   1.689   2.802
 3631SOL     OW14521   2.736   9.367   0.603
 3631SOL    HW114522   2.759   9.278   0.577
 3631SOL    HW214523   2.712   9.360   0.695
 3631SOL     MW14524   2.736   9.354   0.612
 3632SOL     OW14525   2.018   8.371   7.042
 3632SOL    HW114526   2.003   8.278   7.061
 3632SOL    HW214527   2.030   8.410   7.129
 3632SOL     MW14528   2.017   8.363   7.056
 3633SOL     OW14529   3.542   0.078   2.417
 3633SOL    HW114530   3.589   0.105   2.338
 3633SOL    HW214531   3.568   0.142   2.483
 3633SOL     MW14532   3.552   0.090   2.415
 3634SOL     OW14533   8.699   9.909   4.299
 3634SOL    HW114534   8.683   9.821   4.335
 3634SOL    HW214535   8.645   9.966   4.352
 3634SOL     MW14536   8.689   9.905   4.311
 3635SOL     OW14537   8.639   7.687   8.854
 3635SOL    HW114538   8.633   7.750   8.926
 3635SOL    HW214539   8.652   7.603   8.896
 3635SOL     MW14540   8.640   7.684   8.869
 3636SOL     OW14541   2.417   4.498   4.216
 3636SOL    HW114542   2.343   4.524   4.162
 3636SOL    HW214543   2.488   4.481   4.154
 3636SOL     MW14544   2.417   4.500   4.201
 3637SOL     OW14545   7.450   4.973   7.854
 3637SOL    HW114546   7.451   5.036   7.782
 3637SOL    HW214547   7.430   4.889   7.812
 3637SOL     MW14548   7.448   4.970   7.838
 3638SOL     OW14549   8.045   4.687   3.499
 3638SOL    HW114550   8.065   4.781   3.502
 3638SOL    HW214551   8.029   4.668   3.407
 3638SOL     MW14552   8.046   4.697   3.487
 3639SOL     OW14553   4.711   3.639   0.517
 3639SOL    HW114554   4.775   3.647   0.588
 3639SOL    HW214555   4.662   3.721   0.521
 3639SOL     MW14556   4.713   3.651   0.527
 3640SOL     OW14557   0.692   3.340   3.955
 3640SOL    HW114558   0.660   3.267   4.006
 3640SOL    HW214559   0.725   3.300   3.874
 3640SOL     MW14560   0.693   3.325   3.951
 3641SOL     OW14561   4.381   5.565   0.514
 3641SOL    HW114562   4.365   5.582   0.607
 3641SOL    HW214563   4.432   5.484   0.512
 3641SOL     MW14564   4.386   5.557   0.526
 3642SOL     OW14565   1.853   3.103   3.765
 3642SOL    HW114566   1.936   3.126   3.722
 3642SOL    HW214567   1.870   3.018   3.806
 3642SOL     MW14568   1.867   3.095   3.765
 3643SOL     OW14569   6.842   2.800   0.189
 3643SOL    HW114570   6.768   2.776   0.244
 3643SOL    HW214571   6.849   2.895   0.198
 3643SOL     MW14572   6.833   2.810   0.198
 3644SOL     OW14573   1.788   1.109   9.315
 3644SOL    HW114574   1.766   1.023   9.279
 3644SOL    HW214575   1.814   1.161   9.238
 3644SOL     MW14576   1.789   1.105   9.300
 3645SOL     OW14577   1.861   0.543   5.404
 3645SOL    HW114578   1.792   0.497   5.452
 3645SOL    HW214579   1.943   0.510   5.442
 3645SOL     MW14580   1.863   0.532   5.415
 3646SOL     OW14581   5.816   5.280   0.948
 3646SOL    HW114582   5.795   5.259   0.857
 3646SOL    HW214583   5.883   5.348   0.942
 3646SOL     MW14584   5.822   5.286   0.935
 3647SOL     OW14585   1.080   8.513   7.298
 3647SOL    HW114586   1.125   8.571   7.236
 3647SOL    HW214587   1.011   8.567   7.336
 3647SOL     MW14588   1.077   8.528   7.294
 3648SOL     OW14589   7.210   6.282   9.102
 3648SOL    HW114590   7.233   6.216   9.168
 3648SOL    HW214591   7.123   6.312   9.127
 3648SOL     MW14592   7.201   6.277   9.114
 3649SOL     OW14593   5.199   9.890   2.736
 3649SOL    HW114594   5.202   9.926   2.825
 3649SOL    HW214595   5.114   9.846   2.731
 3649SOL     MW14596   5.188   9.889   2.747
 3650SOL     OW14597   3.013   8.098   8.972
 3650SOL    HW114598   2.975   8.108   9.059
 3650SOL    HW214599   2.991   8.009   8.946
 3650SOL     MW14600   3.005   8.088   8.981
 3651SOL     OW14601  10.042   5.893   5.031
 3651SOL    HW114602   9.951   5.923   5.027
 3651SOL    HW214603  10.075   5.903   4.942
 3651SOL     MW14604  10.034   5.898   5.019
 3652SOL     OW14605   4.065   0.527   4.221
 3652SOL    HW114606   4.058   0.596   4.287
 3652SOL    HW214607   3.975   0.504   4.200
 3652SOL     MW14608   4.052   0.533   4.227
 3653SOL     OW14609   0.014   5.199   0.057
 3653SOL    HW114610   0.075   5.190   0.130
 3653SOL    HW214611   0.069   5.205  -0.020
 3653SOL     MW14612   0.029   5.199   0.057
 3654SOL     OW14613   4.045   0.793   7.184
 3654SOL    HW114614   4.068   0.753   7.268
 3654SOL    HW214615   3.993   0.727   7.139
 3654SOL     MW14616   4.041   0.779   7.189
 3655SOL     OW14617   0.928   5.634   0.464
 3655SOL    HW114618   1.012   5.629   0.418
 3655SOL    HW214619   0.950   5.675   0.548
 3655SOL     MW14620   0.942   5.639   0.469
 3656SOL     OW14621   5.884   8.651   6.594
 3656SOL    HW114622   5.793   8.629   6.614
 3656SOL    HW214623   5.926   8.657   6.679
 3656SOL     MW14624   5.877   8.648   6.608
 3657SOL     OW14625   9.119   7.869   1.687
 3657SOL    HW114626   9.111   7.815   1.608
 3657SOL    HW214627   9.168   7.815   1.749
 3657SOL     MW14628   9.125   7.855   1.685
 3658SOL     OW14629   4.191   5.764   3.194
 3658SOL    HW114630   4.120   5.792   3.137
 3658SOL    HW214631   4.149   5.710   3.261
 3658SOL     MW14632   4.176   5.760   3.196
 3659SOL     OW14633   3.905   4.403   5.357
 3659SOL    HW114634   3.920   4.322   5.406
 3659SOL    HW214635   3.948   4.387   5.272
 3659SOL     MW14636   3.913   4.390   5.352
 3660SOL     OW14637   9.889   0.081   0.423
 3660SOL    HW114638   9.885   0.171   0.393
 3660SOL    HW214639   9.965   0.044   0.379
 3660SOL     MW14640   9.899   0.088   0.413
 3661SOL     OW14641   4.212   1.496   7.225
 3661SOL    HW114642   4.277   1.508   7.294
 3661SOL    HW214643   4.180   1.407   7.238
 3661SOL     MW14644   4.216   1.485   7.236
 3662SOL     OW14645   9.934   0.969   9.760
 3662SOL    HW114646   9.857   0.912   9.753
 3662SOL    HW214647   9.899   1.057   9.755
 3662SOL     MW14648   9.919   0.973   9.758
 3663SOL     OW14649   1.998   8.200   3.087
 3663SOL    HW114650   2.090   8.221   3.102
 3663SOL    HW214651   2.001   8.124   3.028
 3663SOL     MW14652   2.011   8.192   3.081
 3664SOL     OW14653   1.208   6.405   0.292
 3664SOL    HW114654   1.213   6.497   0.265
 3664SOL    HW214655   1.268   6.359   0.233
 3664SOL     MW14656   1.217   6.411   0.280
 3665SOL     OW14657   5.304   6.992   7.244
 3665SOL    HW114658   5.392   7.022   7.222
 3665SOL    HW214659   5.319   6.921   7.306
 3665SOL     MW14660   5.318   6.986   7.249
 3666SOL     OW14661   2.224   5.581   7.082
 3666SOL    HW114662   2.259   5.664   7.050
 3666SOL    HW214663   2.144   5.567   7.031
 3666SOL     MW14664   2.218   5.590   7.071
 3667SOL     OW14665   5.354   2.213   3.509
 3667SOL    HW114666   5.274   2.163   3.523
 3667SOL    HW214667   5.397   2.169   3.436
 3667SOL     MW14668   5.349   2.200   3.501
 3668SOL     OW14669   9.063   2.745   9.045
 3668SOL    HW114670   9.156   2.727   9.056
 3668SOL    HW214671   9.052   2.835   9.076
 3668SOL     MW14672   9.074   2.755   9.051
 3669SOL     OW14673   2.797   4.093   4.946
 3669SOL    HW114674   2.773   4.185   4.933
 3669SOL    HW214675   2.885   4.086   4.909
 3669SOL     MW14676   2.806   4.104   4.939
 3670SOL     OW14677   7.053   1.414   0.293
 3670SOL    HW114678   7.069   1.406   0.387
 3670SOL    HW214679   7.097   1.338   0.254
 3670SOL     MW14680   7.061   1.403   0.300
 3671SOL     OW14681   1.444   6.624   7.442
 3671SOL    HW114682   1.419   6.532   7.457
 3671SOL    HW214683   1.480   6.653   7.526
 3671SOL     MW14684   1.445   6.615   7.455
 3672SOL     OW14685   7.502   6.756   3.620
 3672SOL    HW114686   7.552   6.781   3.543
 3672SOL    HW214687   7.519   6.825   3.684
 3672SOL     MW14688   7.511   6.768   3.618
 3673SOL     OW14689   2.272   1.200   8.963
 3673SOL    HW114690   2.230   1.114   8.973
 3673SOL    HW214691   2.279   1.233   9.053
 3673SOL     MW14692   2.267   1.193   8.977
 3674SOL     OW14693   6.100   0.863   6.423
 3674SOL    HW114694   6.144   0.912   6.353
 3674SOL    HW214695   6.032   0.923   6.454
 3674SOL     MW14696   6.097   0.878   6.418
 3675SOL     OW14697   4.164   6.136   1.109
 3675SOL    HW114698   4.215   6.201   1.061
 3675SOL    HW214699   4.090   6.186   1.144
 3675SOL     MW14700   4.161   6.151   1.107
 3676SOL     OW14701   9.641   6.663   5.771
 3676SOL    HW114702   9.698   6.713   5.830
 3676SOL    HW214703   9.692   6.586   5.748
 3676SOL     MW14704   9.656   6.659   5.776
 3677SOL     OW14705   0.093   6.976   9.988
 3677SOL    HW114706   0.168   6.988   9.929
 3677SOL    HW214707   0.128   6.923  10.060
 3677SOL     MW14708   0.108   6.970   9.989
 3678SOL     OW14709   7.443   6.376   8.989
 3678SOL    HW114710   7.361   6.348   9.028
 3678SOL    HW214711   7.431   6.362   8.895
 3678SOL     MW14712   7.430   6.370   8.982
 3679SOL     OW14713   4.700   1.696   8.506
 3679SOL    HW114714   4.732   1.778   8.470
 3679SOL    HW214715   4.608   1.712   8.524
 3679SOL     MW14716   4.692   1.709   8.504
 3680SOL     OW14717   4.202   3.258   6.573
 3680SOL    HW114718   4.168   3.290   6.489
 3680SOL    HW214719   4.161   3.314   6.639
 3680SOL     MW14720   4.192   3.270   6.570
 3681SOL     OW14721   7.089   8.543   9.979
 3681SOL    HW114722   7.009   8.496   9.956
 3681SOL    HW214723   7.104   8.520  10.071
 3681SOL     MW14724   7.080   8.533   9.988
 3682SOL     OW14725   4.110   4.361   7.255
 3682SOL    HW114726   4.064   4.373   7.172
 3682SOL    HW214727   4.052   4.396   7.321
 3682SOL     MW14728   4.096   4.367   7.252
 3683SOL     OW14729   1.112   2.969   4.737
 3683SOL    HW114730   1.197   2.979   4.694
 3683SOL    HW214731   1.087   2.879   4.719
 3683SOL     MW14732   1.120   2.958   4.728
 3684SOL     OW14733   4.152   9.642   9.874
 3684SOL    HW114734   4.205   9.670   9.949
 3684SOL    HW214735   4.124   9.724   9.833
 3684SOL     MW14736   4.155   9.657   9.879
 3685SOL     OW14737   5.121   0.739   5.580
 3685SOL    HW114738   5.030   0.709   5.583
 3685SOL    HW214739   5.165   0.690   5.649
 3685SOL     MW14740   5.114   0.729   5.590
 3686SOL     OW14741   7.735   5.868   9.260
 3686SOL    HW114742   7.772   5.817   9.333
 3686SOL    HW214743   7.811   5.905   9.215
 3686SOL     MW14744   7.750   5.866   9.264
 3687SOL     OW14745   3.574   7.081   9.461
 3687SOL    HW114746   3.556   7.175   9.456
 3687SOL    HW214747   3.488   7.040   9.466
 3687SOL     MW14748   3.560   7.088   9.461
 3688SOL     OW14749   9.403   3.555   5.172
 3688SOL    HW114750   9.383   3.543   5.264
 3688SOL    HW214751   9.495   3.580   5.170
 3688SOL     MW14752   9.412   3.557   5.184
 3689SOL     OW14753   5.653   6.093   3.036
 3689SOL    HW114754   5.650   6.171   3.092
 3689SOL    HW214755   5.700   6.028   3.088
 3689SOL     MW14756   5.659   6.095   3.051
 3690SOL     OW14757   6.475   6.641   9.141
 3690SOL    HW114758   6.464   6.719   9.086
 3690SOL    HW214759   6.463   6.673   9.230
 3690SOL     MW14760   6.472   6.656   9.145
 3691SOL     OW14761   1.234   8.475   7.525
 3691SOL    HW114762   1.191   8.483   7.440
 3691SOL    HW214763   1.303   8.541   7.523
 3691SOL     MW14764   1.238   8.485   7.514
 3692SOL     OW14765   7.841   9.699   1.939
 3692SOL    HW114766   7.822   9.605   1.930
 3692SOL    HW214767   7.912   9.702   2.003
 3692SOL     MW14768   7.848   9.687   1.947
 3693SOL     OW14769   0.882   3.678   8.441
 3693SOL    HW114770   0.883   3.594   8.487
 3693SOL    HW214771   0.932   3.661   8.360
 3693SOL     MW14772   0.889   3.665   8.436
 3694SOL     OW14773   7.380   5.849   8.267
 3694SOL    HW114774   7.438   5.921   8.292
 3694SOL    HW214775   7.317   5.841   8.339
 3694SOL     MW14776   7.379   5.857   8.280
 3695SOL     OW14777   8.096   7.947   7.774
 3695SOL    HW114778   8.105   8.026   7.827
 3695SOL    HW214779   8.172   7.893   7.797
 3695SOL     MW14780   8.107   7.950   7.784
 3696SOL     OW14781   0.765   0.807   0.472
 3696SOL    HW114782   0.672   0.824   0.490
 3696SOL    HW214783   0.794   0.885   0.425
 3696SOL     MW14784   0.756   0.820   0.468
 3697SOL     OW14785   3.888   5.311   1.954
 3697SOL    HW114786   3.818   5.301   2.018
 3697SOL    HW214787   3.845   5.303   1.869
 3697SOL     MW14788   3.873   5.309   1.951
 3698SOL     OW14789   2.633   0.589   6.296
 3698SOL    HW114790   2.581   0.664   6.324
 3698SOL    HW214791   2.703   0.583   6.360
 3698SOL     MW14792   2.635   0.598   6.308
 3699SOL     OW14793   3.819   0.521   4.073
 3699SOL    HW114794   3.875   0.590   4.035
 3699SOL    HW214795   3.826   0.448   4.011
 3699SOL     MW14796   3.828   0.521   4.059
 3700SOL     OW14797   1.987   5.540   7.245
 3700SOL    HW114798   2.081   5.559   7.240
 3700SOL    HW214799   1.963   5.513   7.157
 3700SOL     MW14800   1.996   5.539   7.233
 3701SOL     OW14801   6.284   1.058   4.682
 3701SOL    HW114802   6.240   1.136   4.647
 3701SOL    HW214803   6.374   1.085   4.696
 3701SOL     MW14804   6.290   1.072   4.679
 3702SOL     OW14805   2.753   8.888   7.252
 3702SOL    HW114806   2.846   8.901   7.267
 3702SOL    HW214807   2.749   8.816   7.188
 3702SOL     MW14808   2.765   8.880   7.245
 3703SOL     OW14809   8.814   8.821   7.358
 3703SOL    HW114810   8.732   8.820   7.308
 3703SOL    HW214811   8.878   8.860   7.299
 3703SOL     MW14812   8.812   8.826   7.343
 3704SOL     OW14813   7.042   7.232   4.798
 3704SOL    HW114814   6.987   7.254   4.873
 3704SOL    HW214815   7.035   7.137   4.789
 3704SOL     MW14816   7.034   7.222   4.807
 3705SOL     OW14817   0.995   9.066   6.688
 3705SOL    HW114818   0.999   9.109   6.603
 3705SOL    HW214819   0.960   8.979   6.669
 3705SOL     MW14820   0.991   9.060   6.674
 3706SOL     OW14821   8.545   2.080   0.586
 3706SOL    HW114822   8.526   2.169   0.558
 3706SOL    HW214823   8.477   2.059   0.650
 3706SOL     MW14824   8.533   2.089   0.591
 3707SOL     OW14825   0.585   3.309   0.891
 3707SOL    HW114826   0.667   3.351   0.917
 3707SOL    HW214827   0.529   3.380   0.862
 3707SOL     MW14828   0.588   3.324   0.891
 3708SOL     OW14829   1.637   8.615  10.124
 3708SOL    HW114830   1.679   8.606  10.039
 3708SOL    HW214831   1.708   8.633  10.185
 3708SOL     MW14832   1.652   8.616  10.121
 3709SOL     OW14833   9.892   8.179   0.783
 3709SOL    HW114834   9.840   8.205   0.859
 3709SOL    HW214835   9.828   8.162   0.714
 3709SOL     MW14836   9.877   8.180   0.784
 3710SOL     OW14837   2.033   1.978   2.069
 3710SOL    HW114838   1.990   1.939   2.144
 3710SOL    HW214839   2.126   1.982   2.093
 3710SOL     MW14840   2.040   1.974   2.082
 3711SOL     OW14841   5.897   9.004   3.240
 3711SOL    HW114842   5.867   9.092   3.216
 3711SOL    HW214843   5.985   9.018   3.275
 3711SOL     MW14844   5.904   9.018   3.242
 3712SOL     OW14845   5.576   6.691   6.860
 3712SOL    HW114846   5.629   6.611   6.862
 3712SOL    HW214847   5.495   6.666   6.905
 3712SOL     MW14848   5.572   6.677   6.867
 3713SOL     OW14849   8.395   3.095   4.804
 3713SOL    HW114850   8.359   3.007   4.793
 3713SOL    HW214851   8.338   3.151   4.752
 3713SOL     MW14852   8.382   3.090   4.795
 3714SOL     OW14853   0.701   1.424   7.370
 3714SOL    HW114854   0.789   1.434   7.406
 3714SOL    HW214855   0.699   1.482   7.294
 3714SOL     MW14856   0.713   1.433   7.364
 3715SOL     OW14857   8.999   6.883   7.382
 3715SOL    HW114858   8.967   6.836   7.305
 3715SOL    HW214859   8.932   6.949   7.400
 3715SOL     MW14860   8.986   6.885   7.374
 3716SOL     OW14861   2.959   3.209  10.084
 3716SOL    HW114862   3.054   3.219  10.078
 3716SOL    HW214863   2.925   3.259  10.010
 3716SOL     MW14864   2.968   3.217  10.074
 3717SOL     OW14865   4.976   1.084   0.422
 3717SOL    HW114866   5.010   1.037   0.498
 3717SOL    HW214867   4.929   1.018   0.372
 3717SOL     MW14868   4.974   1.069   0.425
 3718SOL     OW14869   4.114   1.939   9.629
 3718SOL    HW114870   4.065   1.984   9.560
 3718SOL    HW214871   4.054   1.871   9.660
 3718SOL     MW14872   4.099   1.936   9.624
 3719SOL     OW14873   9.287   9.569   4.167
 3719SOL    HW114874   9.297   9.632   4.096
 3719SOL    HW214875   9.325   9.613   4.243
 3719SOL     MW14876   9.294   9.583   4.168
 3720SOL     OW14877   0.084   6.117   1.281
 3720SOL    HW114878   0.004   6.077   1.313
 3720SOL    HW214879   0.140   6.124   1.359
 3720SOL     MW14880   0.081   6.113   1.296
 3721SOL     OW14881   4.554   5.350   0.502
 3721SOL    HW114882   4.612   5.382   0.434
 3721SOL    HW214883   4.612   5.308   0.566
 3721SOL     MW14884   4.569   5.348   0.502
 3722SOL     OW14885   5.609   6.148   4.176
 3722SOL    HW114886   5.565   6.122   4.257
 3722SOL    HW214887   5.688   6.094   4.173
 3722SOL     MW14888   5.614   6.138   4.187
 3723SOL     OW14889   8.354   9.667   8.448
 3723SOL    HW114890   8.365   9.676   8.542
 3723SOL    HW214891   8.436   9.698   8.411
 3723SOL     MW14892   8.367   9.672   8.456
 3724SOL     OW14893   0.250   2.841   7.316
 3724SOL    HW114894   0.298   2.835   7.399
 3724SOL    HW214895   0.240   2.751   7.287
 3724SOL     MW14896   0.255   2.828   7.323
 3725SOL     OW14897  10.108   2.291   9.726
 3725SOL    HW114898  10.068   2.260   9.645
 3725SOL    HW214899  10.175   2.354   9.697
 3725SOL     MW14900  10.112   2.295   9.711
 3726SOL     OW14901   8.989   4.615   1.745
 3726SOL    HW114902   8.894   4.603   1.745
 3726SOL    HW214903   9.011   4.635   1.836
 3726SOL     MW14904   8.980   4.616   1.757
 3727SOL     OW14905   7.507   9.418   9.005
 3727SOL    HW114906   7.580   9.417   8.943
 3727SOL    HW214907   7.446   9.483   8.968
 3727SOL     MW14908   7.509   9.427   8.991
 3728SOL     OW14909   5.266   7.056   4.331
 3728SOL    HW114910   5.224   7.077   4.414
 3728SOL    HW214911   5.278   6.961   4.333
 3728SOL     MW14912   5.262   7.046   4.342
 3729SOL     OW14913  10.002   8.214   3.048
 3729SOL    HW114914  10.048   8.177   3.124
 3729SOL    HW214915   9.960   8.138   3.006
 3729SOL     MW14916  10.003   8.199   3.052
 3730SOL     OW14917   7.877   9.803   4.062
 3730SOL    HW114918   7.944   9.851   4.013
 3730SOL    HW214919   7.886   9.834   4.152
 3730SOL     MW14920   7.887   9.814   4.067
 3731SOL     OW14921   9.402   2.195   5.084
 3731SOL    HW114922   9.416   2.282   5.121
 3731SOL    HW214923   9.343   2.152   5.146
 3731SOL     MW14924   9.396   2.201   5.097
 3732SOL     OW14925   0.377   4.370   4.274
 3732SOL    HW114926   0.471   4.355   4.275
 3732SOL    HW214927   0.345   4.316   4.202
 3732SOL     MW14928   0.385   4.360   4.264
 3733SOL     OW14929   9.297   1.875   4.542
 3733SOL    HW114930   9.259   1.958   4.573
 3733SOL    HW214931   9.350   1.901   4.467
 3733SOL     MW14932   9.299   1.890   4.536
 3734SOL     OW14933   6.400   8.936   7.750
 3734SOL    HW114934   6.323   8.905   7.702
 3734SOL    HW214935   6.469   8.875   7.728
 3734SOL     MW14936   6.399   8.924   7.741
 3735SOL     OW14937   9.196   2.511   8.709
 3735SOL    HW114938   9.133   2.580   8.725
 3735SOL    HW214939   9.199   2.461   8.790
 3735SOL     MW14940   9.188   2.513   8.722
 3736SOL     OW14941   3.108   2.142   8.321
 3736SOL    HW114942   3.203   2.146   8.319
 3736SOL    HW214943   3.080   2.234   8.318
 3736SOL     MW14944   3.117   2.155   8.320
 3737SOL     OW14945   4.049   3.972   3.432
 3737SOL    HW114946   4.138   3.938   3.435
 3737SOL    HW214947   4.059   4.060   3.394
 3737SOL     MW14948   4.062   3.980   3.427
 3738SOL     OW14949   8.906   7.192   9.736
 3738SOL    HW114950   8.880   7.100   9.738
 3738SOL    HW214951   8.887   7.221   9.647
 3738SOL     MW14952   8.900   7.184   9.724
 3739SOL     OW14953   1.250   1.799   1.982
 3739SOL    HW114954   1.168   1.826   1.943
 3739SOL    HW214955   1.228   1.722   2.035
 3739SOL     MW14956   1.236   1.792   1.984
 3740SOL     OW14957   7.029   9.134   0.147
 3740SOL    HW114958   7.005   9.217   0.189
 3740SOL    HW214959   7.104   9.103   0.196
 3740SOL     MW14960   7.036   9.141   0.159
 3741SOL     OW14961   8.883   2.548   4.230
 3741SOL    HW114962   8.925   2.608   4.292
 3741SOL    HW214963   8.954   2.521   4.172
 3741SOL     MW14964   8.898   2.553   4.231
 3742SOL     OW14965   5.814   8.907   5.376
 3742SOL    HW114966   5.821   8.988   5.325
 3742SOL    HW214967   5.778   8.935   5.460
 3742SOL     MW14968   5.810   8.922   5.380
 3743SOL     OW14969   6.275   5.151   5.358
 3743SOL    HW114970   6.326   5.072   5.374
 3743SOL    HW214971   6.328   5.222   5.395
 3743SOL     MW14972   6.289   5.150   5.365
 3744SOL     OW14973   0.925   6.711   6.084
 3744SOL    HW114974   0.841   6.679   6.050
 3744SOL    HW214975   0.991   6.672   6.027
 3744SOL     MW14976   0.922   6.702   6.072
 3745SOL     OW14977   4.372   2.599   4.266
 3745SOL    HW114978   4.289   2.559   4.291
 3745SOL    HW214979   4.377   2.678   4.320
 3745SOL     MW14980   4.361   2.605   4.277
 3746SOL     OW14981   3.291   0.641   9.257
 3746SOL    HW114982   3.229   0.680   9.195
 3746SOL    HW214983   3.374   0.686   9.239
 3746SOL     MW14984   3.294   0.653   9.246
 3747SOL     OW14985   9.130   9.342   4.210
 3747SOL    HW114986   9.180   9.274   4.165
 3747SOL    HW214987   9.180   9.422   4.195
 3747SOL     MW14988   9.144   9.344   4.202
 3748SOL     OW14989   4.526   2.869   8.705
 3748SOL    HW114990   4.592   2.818   8.752
 3748SOL    HW214991   4.559   2.875   8.616
 3748SOL     MW14992   4.539   2.863   8.700
 3749SOL     OW14993   7.937   6.985   5.222
 3749SOL    HW114994   7.903   6.994   5.311
 3749SOL    HW214995   8.015   6.931   5.232
 3749SOL     MW14996   7.943   6.979   5.235
 3750SOL     OW14997   6.796   1.453   0.181
 3750SOL    HW114998   6.813   1.532   0.130
 3750SOL    HW214999   6.878   1.436   0.227
 3750SOL     MW15000   6.809   1.461   0.180
 3751SOL     OW15001   9.232   2.128   4.624
 3751SOL    HW115002   9.289   2.151   4.551
 3751SOL    HW215003   9.287   2.139   4.702
 3751SOL     MW15004   9.247   2.132   4.625
 3752SOL     OW15005   4.674   4.224   4.541
 3752SOL    HW115006   4.745   4.177   4.497
 3752SOL    HW215007   4.612   4.243   4.471
 3752SOL     MW15008   4.675   4.220   4.526
 3753SOL     OW15009   9.073   5.116   4.170
 3753SOL    HW115010   9.021   5.150   4.243
 3753SOL    HW215011   9.097   5.028   4.197
 3753SOL     MW15012   9.069   5.109   4.184
 3754SOL     OW15013   0.013   6.239   4.394
 3754SOL    HW115014   0.030   6.290   4.315
 3754SOL    HW215015   0.016   6.303   4.465
 3754SOL     MW15016   0.016   6.254   4.393
 3755SOL     OW15017   1.767   7.599   3.140
 3755SOL    HW115018   1.821   7.678   3.141
 3755SOL    HW215019   1.731   7.594   3.229
 3755SOL     MW15020   1.769   7.609   3.152
 3756SOL     OW15021   5.291   8.432   2.742
 3756SOL    HW115022   5.354   8.360   2.737
 3756SOL    HW215023   5.210   8.389   2.770
 3756SOL     MW15024   5.289   8.416   2.745
 3757SOL     OW15025   0.610   4.334   5.337
 3757SOL    HW115026   0.518   4.340   5.311
 3757SOL    HW215027   0.608   4.290   5.422
 3757SOL     MW15028   0.598   4.329   5.345
 3758SOL     OW15029   5.579  10.052   2.252
 3758SOL    HW115030   5.569  10.012   2.339
 3758SOL    HW215031   5.673  10.072   2.246
 3758SOL     MW15032   5.590  10.049   2.263
 3759SOL     OW15033   5.134   9.956   4.301
 3759SOL    HW115034   5.205  10.010   4.265
 3759SOL    HW215035   5.152   9.953   4.395
 3759SOL     MW15036   5.146   9.963   4.308
 3760SOL     OW15037   2.553   6.045   3.535
 3760SOL    HW115038   2.633   6.078   3.494
 3760SOL    HW215039   2.485   6.058   3.469
 3760SOL     MW15040   2.554   6.052   3.521
 3761SOL     OW15041   6.283   8.021   0.139
 3761SOL    HW115042   6.276   8.085   0.068
 3761SOL    HW215043   6.377   8.012   0.153
 3761SOL     MW15044   6.295   8.028   0.131
 3762SOL     OW15045   3.265   2.048   6.608
 3762SOL    HW115046   3.350   2.011   6.634
 3762SOL    HW215047   3.242   2.002   6.527
 3762SOL     MW15048   3.274   2.037   6.601
 3763SOL     OW15049   6.416   2.816   1.681
 3763SOL    HW115050   6.447   2.728   1.659
 3763SOL    HW215051   6.496   2.863   1.705
 3763SOL     MW15052   6.431   2.810   1.681
 3764SOL     OW15053   4.072   9.859   9.716
 3764SOL    HW115054   4.093   9.813   9.634
 3764SOL    HW215055   4.098   9.950   9.700
 3764SOL     MW15056   4.079   9.865   9.703
 3765SOL     OW15057   6.161   2.904   0.110
 3765SOL    HW115058   6.151   2.809   0.113
 3765SOL    HW215059   6.085   2.935   0.061
 3765SOL     MW15060   6.150   2.895   0.104
 3766SOL     OW15061   3.557   1.585   5.416
 3766SOL    HW115062   3.646   1.619   5.415
 3766SOL    HW215063   3.549   1.544   5.502
 3766SOL     MW15064   3.568   1.584   5.428
 3767SOL     OW15065   4.192   5.095   9.044
 3767SOL    HW115066   4.167   5.042   8.968
 3767SOL    HW215067   4.194   5.033   9.117
 3767SOL     MW15068   4.189   5.080   9.044
 3768SOL     OW15069   3.833   0.850   4.500
 3768SOL    HW115070   3.805   0.895   4.580
 3768SOL    HW215071   3.822   0.915   4.431
 3768SOL     MW15072   3.828   0.865   4.502
 3769SOL     OW15073   8.711   1.030   5.127
 3769SOL    HW115074   8.645   1.035   5.058
 3769SOL    HW215075   8.731   0.937   5.134
 3769SOL     MW15076   8.705   1.018   5.118
 3770SOL     OW15077   8.849   4.100   2.671
 3770SOL    HW115078   8.845   4.131   2.580
 3770SOL    HW215079   8.933   4.131   2.703
 3770SOL     MW15080   8.859   4.108   2.663
 3771SOL     OW15081   3.617   7.582   8.829
 3771SOL    HW115082   3.599   7.511   8.767
 3771SOL    HW215083   3.708   7.568   8.856
 3771SOL     MW15084   3.627   7.570   8.824
 3772SOL     OW15085   9.083   9.541   5.138
 3772SOL    HW115086   9.046   9.629   5.145
 3772SOL    HW215087   9.159   9.552   5.081
 3772SOL     MW15088   9.088   9.554   5.131
 3773SOL     OW15089   9.179   4.703   5.168
 3773SOL    HW115090   9.159   4.644   5.095
 3773SOL    HW215091   9.270   4.727   5.154
 3773SOL     MW15092   9.188   4.698   5.156
 3774SOL     OW15093   2.492   0.884   2.583
 3774SOL    HW115094   2.423   0.834   2.540
 3774SOL    HW215095   2.471   0.975   2.562
 3774SOL     MW15096   2.480   0.889   2.574
 3775SOL     OW15097   0.513   5.485   1.403
 3775SOL    HW115098   0.549   5.525   1.483
 3775SOL    HW215099   0.437   5.436   1.434
 3775SOL     MW15100   0.508   5.484   1.418
 3776SOL     OW15101   7.169   4.545   5.532
 3776SOL    HW115102   7.197   4.460   5.498
 3776SOL    HW215103   7.154   4.529   5.625
 3776SOL     MW15104   7.171   4.531   5.540
 3777SOL     OW15105   4.005   7.856   8.017
 3777SOL    HW115106   4.037   7.798   7.948
 3777SOL    HW215107   4.070   7.926   8.023
 3777SOL     MW15108   4.018   7.858   8.008
 3778SOL     OW15109   4.390   0.048   6.073
 3778SOL    HW115110   4.327   0.064   6.002
 3778SOL    HW215111   4.476   0.055   6.031
 3778SOL     MW15112   4.393   0.051   6.058
 3779SOL     OW15113   6.938   5.538   0.156
 3779SOL    HW115114   6.915   5.531   0.063
 3779SOL    HW215115   6.912   5.455   0.194
 3779SOL     MW15116   6.931   5.526   0.149
 3780SOL     OW15117   1.316   3.634   0.803
 3780SOL    HW115118   1.410   3.626   0.815
 3780SOL    HW215119   1.287   3.545   0.783
 3780SOL     MW15120   1.325   3.621   0.802
 3781SOL     OW15121   6.967   8.831   1.231
 3781SOL    HW115122   6.999   8.888   1.300
 3781SOL    HW215123   7.043   8.778   1.206
 3781SOL     MW15124   6.981   8.832   1.237
 3782SOL     OW15125   6.590   5.744   5.111
 3782SOL    HW115126   6.669   5.723   5.062
 3782SOL    HW215127   6.558   5.826   5.072
 3782SOL     MW15128   6.596   5.752   5.099
 3783SOL     OW15129   5.448   2.058   3.298
 3783SOL    HW115130   5.482   2.131   3.246
 3783SOL    HW215131   5.526   2.015   3.333
 3783SOL     MW15132   5.463   2.062   3.296
 3784SOL     OW15133   9.651   0.501   2.429
 3784SOL    HW115134   9.679   0.464   2.513
 3784SOL    HW215135   9.573   0.451   2.406
 3784SOL     MW15136   9.644   0.489   2.437
 3785SOL     OW15137   1.993   3.136   4.980
 3785SOL    HW115138   2.059   3.177   5.037
 3785SOL    HW215139   2.021   3.159   4.891
 3785SOL     MW15140   2.006   3.145   4.976
 3786SOL     OW15141   6.921   0.849   9.126
 3786SOL    HW115142   7.002   0.837   9.075
 3786SOL    HW215143   6.851   0.829   9.064
 3786SOL     MW15144   6.923   0.845   9.110
 3787SOL     OW15145   1.895   7.469   9.431
 3787SOL    HW115146   1.970   7.448   9.375
 3787SOL    HW215147   1.929   7.532   9.495
 3787SOL     MW15148   1.910   7.475   9.432
 3788SOL     OW15149   6.288   5.352   0.341
 3788SOL    HW115150   6.303   5.381   0.431
 3788SOL    HW215151   6.343   5.274   0.331
 3788SOL     MW15152   6.298   5.346   0.352
 3789SOL     OW15153   7.987   5.436   5.498
 3789SOL    HW115154   8.061   5.384   5.530
 3789SOL    HW215155   8.019   5.474   5.415
 3789SOL     MW15156   8.002   5.434   5.491
 3790SOL     OW15157   1.415   6.780   7.917
 3790SOL    HW115158   1.373   6.731   7.988
 3790SOL    HW215159   1.380   6.869   7.925
 3790SOL     MW15160   1.405   6.785   7.927
 3791SOL     OW15161   2.649   9.767   4.727
 3791SOL    HW115162   2.675   9.799   4.641
 3791SOL    HW215163   2.688   9.829   4.789
 3791SOL     MW15164   2.658   9.779   4.724
 3792SOL     OW15165   4.153   8.261   1.665
 3792SOL    HW115166   4.094   8.275   1.590
 3792SOL    HW215167   4.216   8.196   1.633
 3792SOL     MW15168   4.153   8.254   1.650
 3793SOL     OW15169   8.053   3.472  10.111
 3793SOL    HW115170   7.974   3.461  10.164
 3793SOL    HW215171   8.105   3.394  10.130
 3793SOL     MW15172   8.049   3.460  10.121
 3794SOL     OW15173   7.047   6.720   0.502
 3794SOL    HW115174   7.058   6.674   0.418
 3794SOL    HW215175   7.093   6.666   0.565
 3794SOL     MW15176   7.055   6.707   0.499
 3795SOL     OW15177   1.111   9.786   4.830
 3795SOL    HW115178   1.164   9.845   4.776
 3795SOL    HW215179   1.112   9.703   4.784
 3795SOL     MW15180   1.118   9.783   4.817
 3796SOL     OW15181   4.833   8.303   5.807
 3796SOL    HW115182   4.824   8.214   5.840
 3796SOL    HW215183   4.863   8.354   5.882
 3796SOL     MW15184   4.836   8.298   5.822
 3797SOL     OW15185   3.850   1.318   1.925
 3797SOL    HW115186   3.791   1.394   1.927
 3797SOL    HW215187   3.792   1.242   1.931
 3797SOL     MW15188   3.834   1.318   1.926
 3798SOL     OW15189   4.800   2.848   9.515
 3798SOL    HW115190   4.715   2.879   9.548
 3798SOL    HW215191   4.862   2.915   9.544
 3798SOL     MW15192   4.797   2.861   9.523
 3799SOL     OW15193   7.957   7.820  10.123
 3799SOL    HW115194   7.883   7.843  10.179
 3799SOL    HW215195   7.925   7.748  10.069
 3799SOL     MW15196   7.943   7.813  10.123
 3800SOL     OW15197   7.600   0.995   1.627
 3800SOL    HW115198   7.570   0.954   1.708
 3800SOL    HW215199   7.690   1.022   1.645
 3800SOL     MW15200   7.608   0.993   1.641
 3801SOL     OW15201   2.158   4.558   9.075
 3801SOL    HW115202   2.141   4.606   9.156
 3801SOL    HW215203   2.177   4.626   9.010
 3801SOL     MW15204   2.158   4.573   9.077
 3802SOL     OW15205   9.069   0.954   7.764
 3802SOL    HW115206   9.098   0.912   7.683
 3802SOL    HW215207   9.036   1.039   7.737
 3802SOL     MW15208   9.069   0.960   7.750
 3803SOL     OW15209   8.019   2.559   4.073
 3803SOL    HW115210   8.088   2.569   4.138
 3803SOL    HW215211   8.060   2.509   4.002
 3803SOL     MW15212   8.034   2.554   4.072
 3804SOL     OW15213   8.033   7.125   6.625
 3804SOL    HW115214   7.979   7.050   6.598
 3804SOL    HW215215   7.994   7.200   6.580
 3804SOL     MW15216   8.021   7.125   6.615
 3805SOL     OW15217   6.235   1.966   4.363
 3805SOL    HW115218   6.281   2.000   4.440
 3805SOL    HW215219   6.145   1.953   4.392
 3805SOL     MW15220   6.229   1.969   4.377
 3806SOL     OW15221   3.803   6.627   4.042
 3806SOL    HW115222   3.857   6.707   4.033
 3806SOL    HW215223   3.839   6.583   4.119
 3806SOL     MW15224   3.815   6.632   4.051
 3807SOL     OW15225   1.032   1.817   0.919
 3807SOL    HW115226   0.999   1.732   0.888
 3807SOL    HW215227   1.104   1.837   0.859
 3807SOL     MW15228   1.037   1.808   0.907
 3808SOL     OW15229   1.228   4.795   4.380
 3808SOL    HW115230   1.244   4.781   4.474
 3808SOL    HW215231   1.299   4.852   4.352
 3808SOL     MW15232   1.240   4.801   4.389
 3809SOL     OW15233   0.379   5.863   5.754
 3809SOL    HW115234   0.303   5.863   5.696
 3809SOL    HW215235   0.383   5.775   5.790
 3809SOL     MW15236   0.369   5.851   5.751
 3810SOL     OW15237   5.164   2.197   6.933
 3810SOL    HW115238   5.236   2.251   6.901
 3810SOL    HW215239   5.127   2.247   7.006
 3810SOL     MW15240   5.168   2.211   6.939
 3811SOL     OW15241   2.490   2.642   5.373
 3811SOL    HW115242   2.493   2.705   5.445
 3811SOL    HW215243   2.571   2.592   5.382
 3811SOL     MW15244   2.502   2.644   5.384
 3812SOL     OW15245   4.016   5.291   9.407
 3812SOL    HW115246   4.067   5.354   9.458
 3812SOL    HW215247   4.040   5.307   9.316
 3812SOL     MW15248   4.026   5.301   9.402
 3813SOL     OW15249   1.473   6.429   8.787
 3813SOL    HW115250   1.490   6.503   8.846
 3813SOL    HW215251   1.409   6.375   8.834
 3813SOL     MW15252   1.467   6.432   8.801
 3814SOL     OW15253   5.335   0.472   3.302
 3814SOL    HW115254   5.294   0.558   3.291
 3814SOL    HW215255   5.293   0.434   3.379
 3814SOL     MW15256   5.324   0.478   3.311
 3815SOL     OW15257   0.910   6.446   3.766
 3815SOL    HW115258   0.950   6.368   3.803
 3815SOL    HW215259   0.936   6.445   3.674
 3815SOL     MW15260   0.918   6.436   3.758
 3816SOL     OW15261   7.894   9.697   8.280
 3816SOL    HW115262   7.960   9.649   8.330
 3816SOL    HW215263   7.929   9.703   8.192
 3816SOL     MW15264   7.908   9.691   8.275
 3817SOL     OW15265   6.054   9.765   8.379
 3817SOL    HW115266   6.087   9.675   8.386
 3817SOL    HW215267   6.133   9.818   8.371
 3817SOL     MW15268   6.069   9.760   8.379
 3818SOL     OW15269   0.972   2.391   5.073
 3818SOL    HW115270   0.892   2.426   5.112
 3818SOL    HW215271   1.035   2.390   5.145
 3818SOL     MW15272   0.970   2.396   5.088
 3819SOL     OW15273   7.189   3.044   2.101
 3819SOL    HW115274   7.143   2.960   2.108
 3819SOL    HW215275   7.137   3.103   2.156
 3819SOL     MW15276   7.175   3.040   2.110
 3820SOL     OW15277   9.901   9.425   3.357
 3820SOL    HW115278   9.898   9.520   3.354
 3820SOL    HW215279   9.989   9.403   3.325
 3820SOL     MW15280   9.913   9.435   3.352
 3821SOL     OW15281   3.359   0.414   2.623
 3821SOL    HW115282   3.290   0.431   2.559
 3821SOL    HW215283   3.334   0.331   2.663
 3821SOL     MW15284   3.346   0.405   2.620
 3822SOL     OW15285   5.723   0.228   0.650
 3822SOL    HW115286   5.812   0.262   0.643
 3822SOL    HW215287   5.678   0.264   0.573
 3822SOL     MW15288   5.729   0.238   0.638
 3823SOL     OW15289   2.729   0.501   4.343
 3823SOL    HW115290   2.803   0.457   4.303
 3823SOL    HW215291   2.658   0.492   4.279
 3823SOL     MW15292   2.729   0.494   4.329
 3824SOL     OW15293   5.061   1.571   0.816
 3824SOL    HW115294   5.120   1.498   0.833
 3824SOL    HW215295   5.119   1.647   0.806
 3824SOL     MW15296   5.077   1.572   0.817
 3825SOL     OW15297   7.403   3.624   5.869
 3825SOL    HW115298   7.496   3.632   5.887
 3825SOL    HW215299   7.363   3.700   5.913
 3825SOL     MW15300   7.410   3.636   5.877
 3826SOL     OW15301   2.764   8.933   2.579
 3826SOL    HW115302   2.796   9.014   2.542
 3826SOL    HW215303   2.786   8.939   2.672
 3826SOL     MW15304   2.771   8.944   2.587
 3827SOL     OW15305   3.095   7.707   6.956
 3827SOL    HW115306   3.021   7.745   6.909
 3827SOL    HW215307   3.172   7.741   6.910
 3827SOL     MW15308   3.096   7.717   6.944
 3828SOL     OW15309   1.041   6.385   8.224
 3828SOL    HW115310   1.132   6.396   8.251
 3828SOL    HW215311   0.998   6.346   8.300
 3828SOL     MW15312   1.047   6.381   8.237
 3829SOL     OW15313   3.529   6.654   4.055
 3829SOL    HW115314   3.624   6.642   4.052
 3829SOL    HW215315   3.498   6.625   3.970
 3829SOL     MW15316   3.538   6.648   4.043
 3830SOL     OW15317   8.250   3.483   4.830
 3830SOL    HW115318   8.307   3.552   4.798
 3830SOL    HW215319   8.257   3.413   4.765
 3830SOL     MW15320   8.258   3.483   4.817
 3831SOL     OW15321   7.733  10.043   2.901
 3831SOL    HW115322   7.649  10.069   2.938
 3831SOL    HW215323   7.758   9.965   2.950
 3831SOL     MW15324   7.725  10.036   2.912
 3832SOL     OW15325   9.092   0.274   1.194
 3832SOL    HW115326   9.011   0.319   1.217
 3832SOL    HW215327   9.087   0.262   1.099
 3832SOL     MW15328   9.081   0.278   1.184
 3833SOL     OW15329   1.862   4.954   3.748
 3833SOL    HW115330   1.900   4.929   3.664
 3833SOL    HW215331   1.863   4.874   3.800
 3833SOL     MW15332   1.867   4.940   3.744
 3834SOL     OW15333   6.397   6.920   0.476
 3834SOL    HW115334   6.470   6.894   0.421
 3834SOL    HW215335   6.435   6.979   0.541
 3834SOL     MW15336   6.412   6.925   0.477
 3835SOL     OW15337   8.722   7.014   8.992
 3835SOL    HW115338   8.674   6.938   8.960
 3835SOL    HW215339   8.812   6.982   9.004
 3835SOL     MW15340   8.728   6.999   8.989
 3836SOL     OW15341   5.443   1.098   5.531
 3836SOL    HW115342   5.398   1.113   5.613
 3836SOL    HW215343   5.404   1.019   5.495
 3836SOL     MW15344   5.432   1.090   5.537
 3837SOL     OW15345   3.163   2.799   8.127
 3837SOL    HW115346   3.106   2.867   8.163
 3837SOL    HW215347   3.169   2.820   8.034
 3837SOL     MW15348   3.156   2.811   8.119
 3838SOL     OW15349   9.313   6.134   1.442
 3838SOL    HW115350   9.397   6.126   1.486
 3838SOL    HW215351   9.330   6.189   1.366
 3838SOL     MW15352   9.326   6.140   1.438
 3839SOL     OW15353   5.996   9.630   9.682
 3839SOL    HW115354   6.022   9.652   9.593
 3839SOL    HW215355   5.904   9.658   9.688
 3839SOL     MW15356   5.987   9.637   9.671
 3840SOL     OW15357   1.993   9.534   6.648
 3840SOL    HW115358   1.902   9.528   6.677
 3840SOL    HW215359   2.040   9.565   6.725
 3840SOL     MW15360   1.987   9.538   6.663
 3841SOL     OW15361   2.675   6.699   2.882
 3841SOL    HW115362   2.599   6.752   2.857
 3841SOL    HW215363   2.746   6.763   2.892
 3841SOL     MW15364   2.674   6.715   2.880
 3842SOL     OW15365   4.999   0.857   6.739
 3842SOL    HW115366   5.072   0.826   6.687
 3842SOL    HW215367   4.924   0.806   6.708
 3842SOL     MW15368   4.998   0.846   6.728
 3843SOL     OW15369   6.754   4.810   3.905
 3843SOL    HW115370   6.697   4.741   3.939
 3843SOL    HW215371   6.801   4.843   3.982
 3843SOL     MW15372   6.753   4.805   3.920
 3844SOL     OW15373   0.448   8.727   5.079
 3844SOL    HW115374   0.499   8.665   5.133
 3844SOL    HW215375   0.514   8.779   5.034
 3844SOL     MW15376   0.464   8.725   5.081
 3845SOL     OW15377   8.424   7.261   9.393
 3845SOL    HW115378   8.480   7.240   9.318
 3845SOL    HW215379   8.338   7.276   9.355
 3845SOL     MW15380   8.420   7.260   9.377
 3846SOL     OW15381   1.592   9.638   4.451
 3846SOL    HW115382   1.502   9.650   4.479
 3846SOL    HW215383   1.644   9.682   4.518
 3846SOL     MW15384   1.587   9.646   4.463
 3847SOL     OW15385   4.568   3.959   8.426
 3847SOL    HW115386   4.574   4.035   8.368
 3847SOL    HW215387   4.654   3.917   8.419
 3847SOL     MW15388   4.581   3.964   8.417
 3848SOL     OW15389   6.426   0.648   8.545
 3848SOL    HW115390   6.480   0.711   8.498
 3848SOL    HW215391   6.354   0.700   8.581
 3848SOL     MW15392   6.423   0.663   8.544
 3849SOL     OW15393   1.418   5.915   7.144
 3849SOL    HW115394   1.332   5.906   7.185
 3849SOL    HW215395   1.415   6.000   7.100
 3849SOL     MW15396   1.406   5.925   7.143
 3850SOL     OW15397   7.015   4.742   3.299
 3850SOL    HW115398   7.091   4.691   3.272
 3850SOL    HW215399   6.949   4.676   3.322
 3850SOL     MW15400   7.016   4.726   3.298
 3851SOL     OW15401   0.803   1.185   9.284
 3851SOL    HW115402   0.843   1.138   9.357
 3851SOL    HW215403   0.837   1.274   9.291
 3851SOL     MW15404   0.813   1.191   9.295
 3852SOL     OW15405   1.736   8.519   8.347
 3852SOL    HW115406   1.742   8.496   8.255
 3852SOL    HW215407   1.797   8.592   8.358
 3852SOL     MW15408   1.745   8.526   8.336
 3853SOL     OW15409   7.901   7.549   6.687
 3853SOL    HW115410   7.905   7.500   6.770
 3853SOL    HW215411   7.985   7.594   6.682
 3853SOL     MW15412   7.913   7.548   6.698
 3854SOL     OW15413   1.286   8.021   3.619
 3854SOL    HW115414   1.280   8.088   3.551
 3854SOL    HW215415   1.196   8.002   3.643
 3854SOL     MW15416   1.273   8.027   3.613
 3855SOL     OW15417   5.435   4.158   8.876
 3855SOL    HW115418   5.434   4.213   8.798
 3855SOL    HW215419   5.363   4.096   8.862
 3855SOL     MW15420   5.425   4.157   8.863
 3856SOL     OW15421   9.189   1.377   6.638
 3856SOL    HW115422   9.117   1.326   6.675
 3856SOL    HW215423   9.178   1.465   6.675
 3856SOL     MW15424   9.178   1.382   6.648
 3857SOL     OW15425   8.403   6.687   5.265
 3857SOL    HW115426   8.384   6.594   5.274
 3857SOL    HW215427   8.317   6.728   5.254
 3857SOL     MW15428   8.389   6.680   5.264
 3858SOL     OW15429   9.328   8.411  10.055
 3858SOL    HW115430   9.394   8.372  10.111
 3858SOL    HW215431   9.342   8.505  10.063
 3858SOL     MW15432   9.339   8.419  10.063
 3859SOL     OW15433   0.318   2.030   2.533
 3859SOL    HW115434   0.334   2.123   2.549
 3859SOL    HW215435   0.222   2.023   2.526
 3859SOL     MW15436   0.307   2.041   2.534
 3860SOL     OW15437   9.387   5.605   6.590
 3860SOL    HW115438   9.468   5.640   6.628
 3860SOL    HW215439   9.350   5.550   6.658
 3860SOL     MW15440   9.393   5.602   6.604
 3861SOL     OW15441   5.972   5.518   0.947
 3861SOL    HW115442   5.998   5.547   1.034
 3861SOL    HW215443   6.028   5.567   0.887
 3861SOL     MW15444   5.983   5.529   0.951
 3862SOL     OW15445   7.799   5.658   7.121
 3862SOL    HW115446   7.740   5.733   7.124
 3862SOL    HW215447   7.868   5.685   7.060
 3862SOL     MW15448   7.800   5.672   7.113
 3863SOL     OW15449   4.965   3.946   1.495
 3863SOL    HW115450   4.951   3.982   1.407
 3863SOL    HW215451   5.058   3.959   1.511
 3863SOL     MW15452   4.975   3.953   1.485
 3864SOL     OW15453   5.381   2.329   6.826
 3864SOL    HW115454   5.462   2.379   6.837
 3864SOL    HW215455   5.389   2.290   6.739
 3864SOL     MW15456   5.393   2.330   6.816
 3865SOL     OW15457   3.065   7.427   8.824
 3865SOL    HW115458   3.024   7.429   8.738
 3865SOL    HW215459   3.148   7.381   8.810
 3865SOL     MW15460   3.071   7.421   8.811
 3866SOL     OW15461   9.126   2.514   6.892
 3866SOL    HW115462   9.154   2.605   6.898
 3866SOL    HW215463   9.064   2.513   6.818
 3866SOL     MW15464   9.121   2.526   6.883
 3867SOL     OW15465   8.630   9.184   7.870
 3867SOL    HW115466   8.586   9.114   7.917
 3867SOL    HW215467   8.723   9.162   7.875
 3867SOL     MW15468   8.637   9.172   7.877
 3868SOL     OW15469   2.697   7.202   5.163
 3868SOL    HW115470   2.764   7.255   5.119
 3868SOL    HW215471   2.746   7.148   5.225
 3868SOL     MW15472   2.713   7.202   5.165
 3869SOL     OW15473   6.195   3.472   6.393
 3869SOL    HW115474   6.168   3.426   6.313
 3869SOL    HW215475   6.186   3.564   6.371
 3869SOL     MW15476   6.190   3.478   6.379
 3870SOL     OW15477   0.648   3.524   5.590
 3870SOL    HW115478   0.648   3.620   5.587
 3870SOL    HW215479   0.724   3.499   5.538
 3870SOL     MW15480   0.658   3.534   5.583
 3871SOL     OW15481   0.561   8.866   3.660
 3871SOL    HW115482   0.546   8.934   3.726
 3871SOL    HW215483   0.526   8.903   3.579
 3871SOL     MW15484   0.554   8.880   3.658
 3872SOL     OW15485   5.178   5.217   2.035
 3872SOL    HW115486   5.228   5.193   1.957
 3872SOL    HW215487   5.244   5.222   2.105
 3872SOL     MW15488   5.194   5.215   2.034
 3873SOL     OW15489   6.022   4.664   8.078
 3873SOL    HW115490   5.988   4.717   8.150
 3873SOL    HW215491   5.998   4.574   8.101
 3873SOL     MW15492   6.014   4.659   8.091
 3874SOL     OW15493   6.903   8.568   4.134
 3874SOL    HW115494   6.873   8.531   4.217
 3874SOL    HW215495   6.995   8.542   4.129
 3874SOL     MW15496   6.911   8.559   4.145
 3875SOL     OW15497   6.341   9.881   6.655
 3875SOL    HW115498   6.411   9.901   6.718
 3875SOL    HW215499   6.387   9.851   6.577
 3875SOL     MW15500   6.357   9.879   6.653
 3876SOL     OW15501   7.150   3.428   3.769
 3876SOL    HW115502   7.196   3.370   3.830
 3876SOL    HW215503   7.193   3.513   3.779
 3876SOL     MW15504   7.162   3.431   3.778
 3877SOL     OW15505   8.978   3.946   7.789
 3877SOL    HW115506   9.018   3.874   7.740
 3877SOL    HW215507   9.052   4.001   7.815
 3877SOL     MW15508   8.994   3.944   7.786
 3878SOL     OW15509   3.163  10.035   6.004
 3878SOL    HW115510   3.099   9.985   6.054
 3878SOL    HW215511   3.184   9.980   5.929
 3878SOL     MW15512   3.157  10.021   6.001
 3879SOL     OW15513   1.465   2.117   1.744
 3879SOL    HW115514   1.465   2.083   1.833
 3879SOL    HW215515   1.468   2.039   1.689
 3879SOL     MW15516   1.466   2.102   1.748
 3880SOL     OW15517   8.126   9.825   4.867
 3880SOL    HW115518   8.125   9.738   4.907
 3880SOL    HW215519   8.133   9.808   4.773
 3880SOL     MW15520   8.127   9.811   4.860
 3881SOL     OW15521   4.835   1.310   2.879
 3881SOL    HW115522   4.776   1.285   2.808
 3881SOL    HW215523   4.907   1.355   2.835
 3881SOL     MW15524   4.837   1.313   2.864
 3882SOL     OW15525   5.777   9.371   4.196
 3882SOL    HW115526   5.785   9.325   4.280
 3882SOL    HW215527   5.808   9.307   4.131
 3882SOL     MW15528   5.783   9.356   4.198
 3883SOL     OW15529   6.689   2.670   2.271
 3883SOL    HW115530   6.648   2.591   2.306
 3883SOL    HW215531   6.621   2.737   2.276
 3883SOL     MW15532   6.675   2.668   2.277
 3884SOL     OW15533   3.575   6.946   0.712
 3884SOL    HW115534   3.562   6.857   0.678
 3884SOL    HW215535   3.668   6.949   0.735
 3884SOL     MW15536   3.586   6.934   0.710
 3885SOL     OW15537   5.198   3.845   3.033
 3885SOL    HW115538   5.212   3.751   3.040
 3885SOL    HW215539   5.236   3.881   3.113
 3885SOL     MW15540   5.205   3.837   3.044
 3886SOL     OW15541   3.297   7.561   1.024
 3886SOL    HW115542   3.230   7.602   1.079
 3886SOL    HW215543   3.322   7.630   0.962
 3886SOL     MW15544   3.291   7.576   1.023
 3887SOL     OW15545   4.622   6.757   0.907
 3887SOL    HW115546   4.617   6.661   0.904
 3887SOL    HW215547   4.716   6.776   0.906
 3887SOL     MW15548   4.634   6.747   0.907
 3888SOL     OW15549   6.681   7.511   5.290
 3888SOL    HW115550   6.689   7.494   5.384
 3888SOL    HW215551   6.771   7.514   5.258
 3888SOL     MW15552   6.694   7.509   5.299
 3889SOL     OW15553   1.933   0.006   0.804
 3889SOL    HW115554   1.861   0.053   0.763
 3889SOL    HW215555   1.992  -0.016   0.732
 3889SOL     MW15556   1.932   0.010   0.789
 3890SOL     OW15557   5.392   0.127   5.799
 3890SOL    HW115558   5.422   0.102   5.886
 3890SOL    HW215559   5.456   0.088   5.739
 3890SOL     MW15560   5.405   0.119   5.803
 3891SOL     OW15561   6.874   8.226   6.345
 3891SOL    HW115562   6.873   8.198   6.437
 3891SOL    HW215563   6.957   8.273   6.335
 3891SOL     MW15564   6.885   8.228   6.356
 3892SOL     OW15565   3.364   1.221   3.282
 3892SOL    HW115566   3.441   1.172   3.311
 3892SOL    HW215567   3.296   1.199   3.346
 3892SOL     MW15568   3.365   1.212   3.295
 3893SOL     OW15569   7.201   5.242   6.232
 3893SOL    HW115570   7.236   5.253   6.321
 3893SOL    HW215571   7.148   5.320   6.217
 3893SOL     MW15572   7.198   5.254   6.242
 3894SOL     OW15573   4.488   6.808   8.469
 3894SOL    HW115574   4.432   6.766   8.535
 3894SOL    HW215575   4.545   6.865   8.520
 3894SOL     MW15576   4.488   6.810   8.485
 3895SOL     OW15577   8.392   9.871   1.034
 3895SOL    HW115578   8.364   9.875   0.942
 3895SOL    HW215579   8.334   9.805   1.073
 3895SOL     MW15580   8.380   9.862   1.027
 3896SOL     OW15581   1.196   1.930   0.470
 3896SOL    HW115582   1.142   2.004   0.442
 3896SOL    HW215583   1.200   1.873   0.393
 3896SOL     MW15584   1.189   1.933   0.456
 3897SOL     OW15585   6.424   5.609   5.287
 3897SOL    HW115586   6.363   5.566   5.227
 3897SOL    HW215587   6.486   5.655   5.230
 3897SOL     MW15588   6.425   5.610   5.271
 3898SOL     OW15589   5.035   9.623   2.271
 3898SOL    HW115590   5.114   9.595   2.318
 3898SOL    HW215591   5.045   9.717   2.261
 3898SOL     MW15592   5.047   9.632   2.276
 3899SOL     OW15593   8.007   7.028   1.839
 3899SOL    HW115594   8.025   6.933   1.838
 3899SOL    HW215595   7.920   7.036   1.801
 3899SOL     MW15596   7.998   7.016   1.833
 3900SOL     OW15597   1.944   4.434   3.471
 3900SOL    HW115598   1.959   4.518   3.427
 3900SOL    HW215599   1.884   4.387   3.413
 3900SOL     MW15600   1.938   4.439   3.457
 3901SOL     OW15601   2.420   2.149   1.131
 3901SOL    HW115602   2.420   2.098   1.050
 3901SOL    HW215603   2.331   2.184   1.137
 3901SOL     MW15604   2.408   2.147   1.121
 3902SOL     OW15605   3.240  10.021   5.115
 3902SOL    HW115606   3.226  10.111   5.144
 3902SOL    HW215607   3.331  10.019   5.086
 3902SOL     MW15608   3.250  10.033   5.115
 3903SOL     OW15609   5.920   6.128   1.157
 3903SOL    HW115610   5.882   6.203   1.111
 3903SOL    HW215611   5.848   6.092   1.209
 3903SOL     MW15612   5.905   6.133   1.158
 3904SOL     OW15613   1.538   2.861   7.258
 3904SOL    HW115614   1.615   2.898   7.301
 3904SOL    HW215615   1.513   2.926   7.192
 3904SOL     MW15616   1.545   2.875   7.255
 3905SOL     OW15617   4.246  10.094   7.242
 3905SOL    HW115618   4.288  10.057   7.319
 3905SOL    HW215619   4.283  10.182   7.234
 3905SOL     MW15620   4.257  10.101   7.251
 3906SOL     OW15621   6.159   8.866   9.690
 3906SOL    HW115622   6.135   8.953   9.721
 3906SOL    HW215623   6.199   8.824   9.765
 3906SOL     MW15624   6.161   8.872   9.704
 3907SOL     OW15625   3.107   9.270   4.413
 3907SOL    HW115626   3.032   9.229   4.369
 3907SOL    HW215627   3.082   9.362   4.421
 3907SOL     MW15628   3.093   9.276   4.408
 3908SOL     OW15629   8.661   1.230   4.418
 3908SOL    HW115630   8.749   1.265   4.400
 3908SOL    HW215631   8.616   1.301   4.463
 3908SOL     MW15632   8.667   1.244   4.422
 3909SOL     OW15633   3.712   8.614   9.048
 3909SOL    HW115634   3.690   8.706   9.058
 3909SOL    HW215635   3.628   8.569   9.039
 3909SOL     MW15636   3.698   8.620   9.048
 3910SOL     OW15637   6.283   0.527   8.347
 3910SOL    HW115638   6.337   0.559   8.419
 3910SOL    HW215639   6.279   0.433   8.361
 3910SOL     MW15640   6.290   0.519   8.358
 3911SOL     OW15641   8.003   0.092   5.426
 3911SOL    HW115642   8.038   0.180   5.440
 3911SOL    HW215643   7.908   0.103   5.428
 3911SOL     MW15644   7.995   0.105   5.428
 3912SOL     OW15645   3.526   4.155   6.202
 3912SOL    HW115646   3.448   4.110   6.169
 3912SOL    HW215647   3.520   4.146   6.297
 3912SOL     MW15648   3.514   4.147   6.210
 3913SOL     OW15649   9.217   9.289   9.956
 3913SOL    HW115650   9.189   9.360   9.898
 3913SOL    HW215651   9.135   9.245   9.981
 3913SOL     MW15652   9.202   9.293   9.951
 3914SOL     OW15653   6.249   6.689   8.827
 3914SOL    HW115654   6.276   6.607   8.869
 3914SOL    HW215655   6.154   6.687   8.831
 3914SOL     MW15656   6.240   6.678   8.834
 3915SOL     OW15657   0.978   6.453   3.498
 3915SOL    HW115658   1.057   6.447   3.445
 3915SOL    HW215659   0.909   6.479   3.437
 3915SOL     MW15660   0.979   6.456   3.483
 3916SOL     OW15661  10.151   0.679   8.430
 3916SOL    HW115662  10.071   0.665   8.379
 3916SOL    HW215663  10.133   0.639   8.515
 3916SOL     MW15664  10.138   0.672   8.434
 3917SOL     OW15665   5.336   2.169   6.104
 3917SOL    HW115666   5.296   2.083   6.099
 3917SOL    HW215667   5.382   2.179   6.021
 3917SOL     MW15668   5.337   2.159   6.093
 3918SOL     OW15669   1.488   5.384   6.806
 3918SOL    HW115670   1.503   5.466   6.852
 3918SOL    HW215671   1.534   5.395   6.722
 3918SOL     MW15672   1.496   5.397   6.801
 3919SOL     OW15673   4.719   4.783   5.293
 3919SOL    HW115674   4.635   4.819   5.318
 3919SOL    HW215675   4.773   4.859   5.272
 3919SOL     MW15676   4.715   4.798   5.293
 3920SOL     OW15677   5.694   6.856   7.054
 3920SOL    HW115678   5.788   6.842   7.049
 3920SOL    HW215679   5.658   6.804   6.982
 3920SOL     MW15680   5.701   6.847   7.044
 3921SOL     OW15681   7.184   1.365   8.760
 3921SOL    HW115682   7.243   1.293   8.740
 3921SOL    HW215683   7.180   1.367   8.856
 3921SOL     MW15684   7.191   1.356   8.770
 3922SOL     OW15685   6.899   4.462   3.642
 3922SOL    HW115686   6.924   4.542   3.689
 3922SOL    HW215687   6.887   4.490   3.551
 3922SOL     MW15688   6.901   4.477   3.636
 3923SOL     OW15689   2.008   7.939   3.897
 3923SOL    HW115690   2.048   7.938   3.811
 3923SOL    HW215691   1.918   7.911   3.882
 3923SOL     MW15692   2.001   7.935   3.884
 3924SOL     OW15693   3.836   9.337   6.125
 3924SOL    HW115694   3.823   9.243   6.125
 3924SOL    HW215695   3.789   9.368   6.202
 3924SOL     MW15696   3.828   9.329   6.135
 3925SOL     OW15697   4.354   7.731   4.595
 3925SOL    HW115698   4.262   7.725   4.571
 3925SOL    HW215699   4.367   7.662   4.660
 3925SOL     MW15700   4.343   7.721   4.601
 3926SOL     OW15701   0.821   0.881   5.786
 3926SOL    HW115702   0.846   0.973   5.785
 3926SOL    HW215703   0.902   0.834   5.765
 3926SOL     MW15704   0.835   0.887   5.783
 3927SOL     OW15705   0.354   8.678   3.669
 3927SOL    HW115706   0.425   8.741   3.673
 3927SOL    HW215707   0.377   8.621   3.595
 3927SOL     MW15708   0.367   8.679   3.659
 3928SOL     OW15709   4.638   6.337   4.797
 3928SOL    HW115710   4.689   6.338   4.878
 3928SOL    HW215711   4.702   6.353   4.728
 3928SOL     MW15712   4.653   6.339   4.799
 3929SOL     OW15713   0.563   3.995   2.768
 3929SOL    HW115714   0.549   3.901   2.772
 3929SOL    HW215715   0.656   4.007   2.789
 3929SOL     MW15716   0.574   3.984   2.772
 3930SOL     OW15717   9.570   3.899   6.133
 3930SOL    HW115718   9.606   3.976   6.091
 3930SOL    HW215719   9.643   3.837   6.138
 3930SOL     MW15720   9.584   3.901   6.128
 3931SOL     OW15721   5.559   3.391  10.011
 3931SOL    HW115722   5.600   3.314  10.050
 3931SOL    HW215723   5.472   3.363   9.985
 3931SOL     MW15724   5.553   3.377  10.013
 3932SOL     OW15725   8.028   4.620   3.231
 3932SOL    HW115726   7.977   4.624   3.150
 3932SOL    HW215727   8.065   4.532   3.231
 3932SOL     MW15728   8.026   4.608   3.220
 3933SOL     OW15729   5.633   2.983   1.630
 3933SOL    HW115730   5.726   2.981   1.654
 3933SOL    HW215731   5.621   2.904   1.577
 3933SOL     MW15732   5.644   2.972   1.626
 3934SOL     OW15733   7.458   3.528   8.531
 3934SOL    HW115734   7.452   3.560   8.621
 3934SOL    HW215735   7.366   3.518   8.504
 3934SOL     MW15736   7.445   3.531   8.539
 3935SOL     OW15737   2.397   1.553   3.236
 3935SOL    HW115738   2.349   1.590   3.162
 3935SOL    HW215739   2.469   1.504   3.196
 3935SOL     MW15740   2.401   1.551   3.221
 3936SOL     OW15741   1.654   4.310   0.286
 3936SOL    HW115742   1.569   4.321   0.242
 3936SOL    HW215743   1.718   4.345   0.223
 3936SOL     MW15744   1.651   4.316   0.271
 3937SOL     OW15745   1.056   8.750   3.586
 3937SOL    HW115746   0.963   8.736   3.600
 3937SOL    HW215747   1.087   8.789   3.667
 3937SOL     MW15748   1.048   8.753   3.598
 3938SOL     OW15749   4.216   2.591   3.020
 3938SOL    HW115750   4.232   2.515   3.075
 3938SOL    HW215751   4.130   2.623   3.046
 3938SOL     MW15752   4.207   2.585   3.031
 3939SOL     OW15753   9.552   1.197   9.657
 3939SOL    HW115754   9.563   1.217   9.564
 3939SOL    HW215755   9.472   1.244   9.682
 3939SOL     MW15756   9.543   1.206   9.648
 3940SOL     OW15757   6.042   0.617   8.439
 3940SOL    HW115758   5.999   0.668   8.370
 3940SOL    HW215759   6.124   0.588   8.400
 3940SOL     MW15760   6.047   0.620   8.424
 3941SOL     OW15761   8.246   1.154   9.157
 3941SOL    HW115762   8.213   1.159   9.246
 3941SOL    HW215763   8.253   1.245   9.128
 3941SOL     MW15764   8.242   1.167   9.165
 3942SOL     OW15765   2.821   9.370   4.638
 3942SOL    HW115766   2.783   9.420   4.710
 3942SOL    HW215767   2.904   9.337   4.674
 3942SOL     MW15768   2.827   9.372   4.653
 3943SOL     OW15769   3.750   2.506   4.844
 3943SOL    HW115770   3.822   2.568   4.854
 3943SOL    HW215771   3.783   2.441   4.782
 3943SOL     MW15772   3.764   2.505   4.837
 3944SOL     OW15773   0.847   2.463   2.005
 3944SOL    HW115774   0.925   2.515   2.025
 3944SOL    HW215775   0.806   2.508   1.932
 3944SOL     MW15776   0.852   2.476   1.998
 3945SOL     OW15777   0.285   7.131   3.956
 3945SOL    HW115778   0.218   7.172   4.011
 3945SOL    HW215779   0.356   7.194   3.952
 3945SOL     MW15780   0.285   7.145   3.962
 3946SOL     OW15781   6.215   3.535   1.318
 3946SOL    HW115782   6.307   3.538   1.345
 3946SOL    HW215783   6.166   3.554   1.399
 3946SOL     MW15784   6.221   3.538   1.333
 3947SOL     OW15785   4.712   5.476   0.313
 3947SOL    HW115786   4.766   5.483   0.235
 3947SOL    HW215787   4.662   5.557   0.316
 3947SOL     MW15788   4.713   5.487   0.303
 3948SOL     OW15789   0.755   3.975   6.004
 3948SOL    HW115790   0.825   4.039   5.997
 3948SOL    HW215791   0.708   3.981   5.921
 3948SOL     MW15792   0.758   3.984   5.992
 3949SOL     OW15793   6.060   1.214   2.918
 3949SOL    HW115794   6.000   1.140   2.926
 3949SOL    HW215795   6.073   1.243   3.008
 3949SOL     MW15796   6.053   1.208   2.931
 3950SOL     OW15797   6.220   2.441   6.647
 3950SOL    HW115798   6.252   2.520   6.691
 3950SOL    HW215799   6.188   2.472   6.563
 3950SOL     MW15800   6.220   2.456   6.642
 3951SOL     OW15801   1.408   0.001   4.728
 3951SOL    HW115802   1.483   0.039   4.683
 3951SOL    HW215803   1.398   0.053   4.808
 3951SOL     MW15804   1.417   0.013   4.733
 3952SOL     OW15805   5.516   2.771   1.486
 3952SOL    HW115806   5.444   2.821   1.525
 3952SOL    HW215807   5.490   2.759   1.395
 3952SOL     MW15808   5.503   2.776   1.479
 3953SOL     OW15809   7.259   0.319   3.234
 3953SOL    HW115810   7.290   0.362   3.154
 3953SOL    HW215811   7.290   0.229   3.226
 3953SOL     MW15812   7.267   0.312   3.222
 3954SOL     OW15813   7.878   0.287   1.637
 3954SOL    HW115814   7.902   0.206   1.684
 3954SOL    HW215815   7.861   0.258   1.547
 3954SOL     MW15816   7.879   0.272   1.631
 3955SOL     OW15817   7.835   7.865   7.847
 3955SOL    HW115818   7.925   7.886   7.823
 3955SOL    HW215819   7.790   7.853   7.763
 3955SOL     MW15820   7.841   7.866   7.832
 3956SOL     OW15821   9.895   3.646   0.550
 3956SOL    HW115822   9.916   3.554   0.567
 3956SOL    HW215823   9.825   3.643   0.485
 3956SOL     MW15824   9.888   3.633   0.543
 3957SOL     OW15825   6.968   2.704   5.216
 3957SOL    HW115826   7.011   2.712   5.300
 3957SOL    HW215827   6.895   2.644   5.232
 3957SOL     MW15828   6.964   2.697   5.229
 3958SOL     OW15829   8.780   8.764   0.783
 3958SOL    HW115830   8.816   8.782   0.696
 3958SOL    HW215831   8.856   8.763   0.841
 3958SOL     MW15832   8.795   8.766   0.779
 3959SOL     OW15833   0.871   7.565   6.542
 3959SOL    HW115834   0.952   7.521   6.516
 3959SOL    HW215835   0.874   7.649   6.495
 3959SOL     MW15836   0.882   7.571   6.532
 3960SOL     OW15837   1.039   2.622   2.125
 3960SOL    HW115838   1.114   2.676   2.151
 3960SOL    HW215839   0.988   2.610   2.205
 3960SOL     MW15840   1.042   2.628   2.139
 3961SOL     OW15841   7.441   5.132   7.620
 3961SOL    HW115842   7.482   5.206   7.577
 3961SOL    HW215843   7.402   5.081   7.549
 3961SOL     MW15844   7.441   5.135   7.605
 3962SOL     OW15845   2.536   3.283   7.133
 3962SOL    HW115846   2.568   3.235   7.209
 3962SOL    HW215847   2.573   3.236   7.058
 3962SOL     MW15848   2.546   3.270   7.133
 3963SOL     OW15849   3.240   2.496   2.947
 3963SOL    HW115850   3.222   2.404   2.926
 3963SOL    HW215851   3.153   2.536   2.954
 3963SOL     MW15852   3.226   2.489   2.945
 3964SOL     OW15853   5.526   3.037   4.109
 3964SOL    HW115854   5.506   3.003   4.196
 3964SOL    HW215855   5.595   3.102   4.124
 3964SOL     MW15856   5.533   3.041   4.123
 3965SOL     OW15857   1.525   2.597   7.724
 3965SOL    HW115858   1.608   2.643   7.713
 3965SOL    HW215859   1.520   2.537   7.650
 3965SOL     MW15860   1.535   2.595   7.713
 3966SOL     OW15861   6.466   0.652   8.175
 3966SOL    HW115862   6.506   0.711   8.238
 3966SOL    HW215863   6.398   0.606   8.225
 3966SOL     MW15864   6.462   0.654   8.190
 3967SOL     OW15865   8.206   1.325   0.338
 3967SOL    HW115866   8.301   1.334   0.327
 3967SOL    HW215867   8.196   1.267   0.414
 3967SOL     MW15868   8.218   1.319   0.347
 3968SOL     OW15869   6.429   8.836   4.030
 3968SOL    HW115870   6.376   8.812   3.954
 3968SOL    HW215871   6.371   8.823   4.105
 3968SOL     MW15872   6.414   8.831   4.030
 3969SOL     OW15873   5.442   6.072   3.685
 3969SOL    HW115874   5.498   5.999   3.659
 3969SOL    HW215875   5.451   6.076   3.781
 3969SOL     MW15876   5.450   6.063   3.695
 3970SOL     OW15877   7.576   8.812   2.668
 3970SOL    HW115878   7.540   8.803   2.579
 3970SOL    HW215879   7.537   8.894   2.700
 3970SOL     MW15880   7.566   8.822   2.660
 3971SOL     OW15881   8.173   2.639   4.927
 3971SOL    HW115882   8.221   2.627   5.008
 3971SOL    HW215883   8.098   2.579   4.934
 3971SOL     MW15884   8.169   2.630   4.939
 3972SOL     OW15885   9.651   3.869   7.228
 3972SOL    HW115886   9.711   3.908   7.292
 3972SOL    HW215887   9.652   3.930   7.155
 3972SOL     MW15888   9.659   3.883   7.227
 3973SOL     OW15889   1.846   6.149   1.961
 3973SOL    HW115890   1.864   6.212   2.030
 3973SOL    HW215891   1.929   6.102   1.949
 3973SOL     MW15892   1.859   6.151   1.968
 3974SOL     OW15893   3.692   9.709   3.391
 3974SOL    HW115894   3.645   9.687   3.311
 3974SOL    HW215895   3.781   9.725   3.363
 3974SOL     MW15896   3.697   9.708   3.376
 3975SOL     OW15897   6.705   9.285   0.334
 3975SOL    HW115898   6.685   9.197   0.302
 3975SOL    HW215899   6.645   9.298   0.408
 3975SOL     MW15900   6.694   9.275   0.339
 3976SOL     OW15901   3.635   9.544   1.386
 3976SOL    HW115902   3.578   9.476   1.352
 3976SOL    HW215903   3.713   9.498   1.416
 3976SOL     MW15904   3.638   9.529   1.386
 3977SOL     OW15905   0.194   8.515   5.691
 3977SOL    HW115906   0.151   8.439   5.730
 3977SOL    HW215907   0.170   8.511   5.598
 3977SOL     MW15908   0.185   8.504   5.684
 3978SOL     OW15909   5.473   0.677   9.940
 3978SOL    HW115910   5.498   0.756   9.892
 3978SOL    HW215911   5.420   0.627   9.877
 3978SOL     MW15912   5.469   0.681   9.925
 3979SOL     OW15913   2.654   7.764   1.307
 3979SOL    HW115914   2.675   7.681   1.350
 3979SOL    HW215915   2.580   7.798   1.357
 3979SOL     MW15916   2.647   7.757   1.319
 3980SOL     OW15917   1.968   1.118   7.538
 3980SOL    HW115918   1.910   1.121   7.614
 3980SOL    HW215919   2.024   1.195   7.547
 3980SOL     MW15920   1.968   1.129   7.549
 3981SOL     OW15921   1.195   2.387   9.046
 3981SOL    HW115922   1.100   2.388   9.038
 3981SOL    HW215923   1.227   2.365   8.959
 3981SOL     MW15924   1.186   2.384   9.033
 3982SOL     OW15925   8.191   3.271   7.148
 3982SOL    HW115926   8.254   3.273   7.075
 3982SOL    HW215927   8.197   3.359   7.185
 3982SOL     MW15928   8.201   3.283   7.143
 3983SOL     OW15929   8.453   3.090   0.962
 3983SOL    HW115930   8.385   3.157   0.971
 3983SOL    HW215931   8.505   3.119   0.887
 3983SOL     MW15932   8.451   3.103   0.953
 3984SOL     OW15933   0.561   4.162   5.552
 3984SOL    HW115934   0.582   4.121   5.635
 3984SOL    HW215935   0.562   4.091   5.488
 3984SOL     MW15936   0.564   4.147   5.554
 3985SOL     OW15937   3.659   2.338   2.688
 3985SOL    HW115938   3.598   2.271   2.657
 3985SOL    HW215939   3.692   2.303   2.770
 3985SOL     MW15940   3.655   2.324   2.695
 3986SOL     OW15941   7.525   9.902   8.583
 3986SOL    HW115942   7.571   9.841   8.525
 3986SOL    HW215943   7.513   9.981   8.530
 3986SOL     MW15944   7.530   9.905   8.568
 3987SOL     OW15945   0.390   2.748   2.341
 3987SOL    HW115946   0.458   2.684   2.363
 3987SOL    HW215947   0.433   2.809   2.281
 3987SOL     MW15948   0.405   2.748   2.336
 3988SOL     OW15949   8.812   7.357   1.035
 3988SOL    HW115950   8.720   7.356   1.009
 3988SOL    HW215951   8.857   7.316   0.961
 3988SOL     MW15952   8.806   7.351   1.021
 3989SOL     OW15953   9.024   2.979   6.061
 3989SOL    HW115954   9.061   2.936   6.138
 3989SOL    HW215955   9.086   2.960   5.991
 3989SOL     MW15956   9.037   2.971   6.062
 3990SOL     OW15957   1.393   0.849  10.050
 3990SOL    HW115958   1.385   0.790   9.975
 3990SOL    HW215959   1.431   0.929  10.015
 3990SOL     MW15960   1.397   0.851  10.035
 3991SOL     OW15961   3.016   2.674   2.938
 3991SOL    HW115962   3.067   2.739   2.986
 3991SOL    HW215963   2.926   2.685   2.970
 3991SOL     MW15964   3.011   2.685   2.949
 3992SOL     OW15965   4.526   5.713   5.131
 3992SOL    HW115966   4.521   5.801   5.093
 3992SOL    HW215967   4.447   5.669   5.101
 3992SOL     MW15968   4.515   5.719   5.122
 3993SOL     OW15969   2.231   6.950   5.753
 3993SOL    HW115970   2.248   6.868   5.706
 3993SOL    HW215971   2.279   7.016   5.704
 3993SOL     MW15972   2.240   6.948   5.740
 3994SOL     OW15973   5.779   3.020   3.599
 3994SOL    HW115974   5.706   3.056   3.649
 3994SOL    HW215975   5.740   2.946   3.551
 3994SOL     MW15976   5.764   3.015   3.599
 3995SOL     OW15977   0.289   5.554   2.156
 3995SOL    HW115978   0.378   5.582   2.135
 3995SOL    HW215979   0.295   5.517   2.244
 3995SOL     MW15980   0.302   5.553   2.165
 3996SOL     OW15981   4.052   2.714   0.198
 3996SOL    HW115982   4.002   2.642   0.234
 3996SOL    HW215983   4.084   2.763   0.274
 3996SOL     MW15984   4.049   2.711   0.213
 3997SOL     OW15985   6.546   4.703   4.964
 3997SOL    HW115986   6.467   4.690   4.912
 3997SOL    HW215987   6.601   4.760   4.910
 3997SOL     MW15988   6.543   4.709   4.949
 3998SOL     OW15989   6.564   1.619   8.370
 3998SOL    HW115990   6.648   1.586   8.401
 3998SOL    HW215991   6.548   1.572   8.289
 3998SOL     MW15992   6.573   1.609   8.364
 3999SOL     OW15993   4.555   5.150   4.398
 3999SOL    HW115994   4.611   5.228   4.405
 3999SOL    HW215995   4.474   5.182   4.359
 3999SOL     MW15996   4.552   5.165   4.394
 4000SOL     OW15997   0.923   8.474   3.235
 4000SOL    HW115998   0.913   8.392   3.188
 4000SOL    HW215999   1.003   8.462   3.287
 4000SOL     MW16000   0.933   8.462   3.236
 4001SOL     OW16001   8.579   0.911   8.863
 4001SOL    HW116002   8.635   0.879   8.933
 4001SOL    HW216003   8.495   0.928   8.905
 4001SOL     MW16004   8.575   0.909   8.878
 4002SOL     OW16005   8.986   0.022   7.967
 4002SOL    HW116006   8.947   0.086   8.026
 4002SOL    HW216007   8.958  -0.063   8.001
 4002SOL     MW16008   8.977   0.019   7.979
 4003SOL     OW16009   7.501   4.353   7.728
 4003SOL    HW116010   7.431   4.386   7.784
 4003SOL    HW216011   7.581   4.380   7.771
 4003SOL     MW16012   7.502   4.361   7.741
 4004SOL     OW16013   7.781   4.408   4.233
 4004SOL    HW116014   7.730   4.482   4.265
 4004SOL    HW216015   7.793   4.425   4.140
 4004SOL     MW16016   7.776   4.420   4.225
 4005SOL     OW16017   4.880   2.659   9.326
 4005SOL    HW116018   4.975   2.663   9.321
 4005SOL    HW216019   4.857   2.722   9.395
 4005SOL     MW16020   4.890   2.668   9.335
 4006SOL     OW16021   8.439   9.347   4.647
 4006SOL    HW116022   8.465   9.319   4.560
 4006SOL    HW216023   8.478   9.281   4.706
 4006SOL     MW16024   8.448   9.334   4.643
 4007SOL     OW16025   7.312   4.757   5.635
 4007SOL    HW116026   7.275   4.689   5.579
 4007SOL    HW216027   7.279   4.839   5.600
 4007SOL     MW16028   7.303   4.759   5.623
 4008SOL     OW16029   7.078   0.055   8.004
 4008SOL    HW116030   7.086  -0.032   7.965
 4008SOL    HW216031   6.986   0.059   8.034
 4008SOL     MW16032   7.066   0.044   8.003
 4009SOL     OW16033   8.173   9.771   4.599
 4009SOL    HW116034   8.118   9.724   4.537
 4009SOL    HW216035   8.234   9.705   4.632
 4009SOL     MW16036   8.174   9.756   4.595
 4010SOL     OW16037   1.977   9.411   8.467
 4010SOL    HW116038   1.941   9.496   8.491
 4010SOL    HW216039   2.069   9.416   8.492
 4010SOL     MW16040   1.985   9.423   8.474
 4011SOL     OW16041   7.110   2.709   1.828
 4011SOL    HW116042   7.182   2.767   1.804
 4011SOL    HW216043   7.091   2.660   1.748
 4011SOL     MW16044   7.117   2.710   1.814
 4012SOL     OW16045   7.114   3.876   2.653
 4012SOL    HW116046   7.132   3.805   2.591
 4012SOL    HW216047   7.125   3.956   2.601
 4012SOL     MW16048   7.118   3.877   2.637
 4013SOL     OW16049   4.394   7.477   4.713
 4013SOL    HW116050   4.425   7.457   4.625
 4013SOL    HW216051   4.301   7.456   4.711
 4013SOL     MW16052   4.386   7.472   4.701
 4014SOL     OW16053   7.300   4.444   7.896
 4014SOL    HW116054   7.304   4.478   7.985
 4014SOL    HW216055   7.216   4.396   7.892
 4014SOL     MW16056   7.289   4.442   7.907
 4015SOL     OW16057   9.784   5.796   6.500
 4015SOL    HW116058   9.756   5.755   6.418
 4015SOL    HW216059   9.804   5.886   6.476
 4015SOL     MW16060   9.783   5.802   6.486
 4016SOL     OW16061   0.384   0.767   1.753
 4016SOL    HW116062   0.343   0.692   1.795
 4016SOL    HW216063   0.473   0.768   1.788
 4016SOL     MW16064   0.391   0.757   1.763
 4017SOL     OW16065   8.983   1.921   7.288
 4017SOL    HW116066   9.061   1.944   7.339
 4017SOL    HW216067   8.927   1.999   7.294
 4017SOL     MW16068   8.986   1.935   7.296
 4018SOL     OW16069   0.683   0.933   7.443
 4018SOL    HW116070   0.659   0.902   7.531
 4018SOL    HW216071   0.647   1.022   7.439
 4018SOL     MW16072   0.675   0.941   7.454
 4019SOL     OW16073   0.321   3.251   2.331
 4019SOL    HW116074   0.252   3.215   2.387
 4019SOL    HW216075   0.285   3.335   2.300
 4019SOL     MW16076   0.307   3.258   2.334
 4020SOL     OW16077   1.510   9.873   6.471
 4020SOL    HW116078   1.466   9.833   6.396
 4020SOL    HW216079   1.495   9.967   6.460
 4020SOL     MW16080   1.502   9.880   6.459
 4021SOL     OW16081   4.144   2.232   6.811
 4021SOL    HW116082   4.157   2.219   6.717
 4021SOL    HW216083   4.197   2.164   6.852
 4021SOL     MW16084   4.153   2.221   6.804
 4022SOL     OW16085   1.491   8.357   7.519
 4022SOL    HW116086   1.395   8.365   7.521
 4022SOL    HW216087   1.511   8.290   7.584
 4022SOL     MW16088   1.480   8.349   7.528
 4023SOL     OW16089   8.498   9.760   2.199
 4023SOL    HW116090   8.502   9.756   2.104
 4023SOL    HW216091   8.560   9.830   2.222
 4023SOL     MW16092   8.507   9.769   2.189
 4024SOL     OW16093   0.875   8.579   5.612
 4024SOL    HW116094   0.787   8.572   5.576
 4024SOL    HW216095   0.863   8.605   5.703
 4024SOL     MW16096   0.862   8.581   5.619
 4025SOL     OW16097   9.238   7.655   4.966
 4025SOL    HW116098   9.265   7.746   4.968
 4025SOL    HW216099   9.146   7.657   4.942
 4025SOL     MW16100   9.230   7.667   4.963
 4026SOL     OW16101   3.884   9.666   1.884
 4026SOL    HW116102   3.839   9.751   1.881
 4026SOL    HW216103   3.852   9.625   1.964
 4026SOL     MW16104   3.874   9.672   1.894
 4027SOL     OW16105   7.872   4.357   9.288
 4027SOL    HW116106   7.830   4.389   9.367
 4027SOL    HW216107   7.819   4.282   9.261
 4027SOL     MW16108   7.859   4.351   9.295
 4028SOL     OW16109   0.648   5.571   1.628
 4028SOL    HW116110   0.636   5.570   1.723
 4028SOL    HW216111   0.736   5.536   1.614
 4028SOL     MW16112   0.658   5.566   1.639
 4029SOL     OW16113   7.731   2.806   6.878
 4029SOL    HW116114   7.652   2.847   6.844
 4029SOL    HW216115   7.726   2.818   6.973
 4029SOL     MW16116   7.720   2.813   6.886
 4030SOL     OW16117   6.937   9.595   2.576
 4030SOL    HW116118   6.900   9.682   2.592
 4030SOL    HW216119   6.871   9.550   2.523
 4030SOL     MW16120   6.923   9.600   2.571
 4031SOL     OW16121   0.500   8.528   9.186
 4031SOL    HW116122   0.580   8.541   9.237
 4031SOL    HW216123   0.434   8.580   9.231
 4031SOL     MW16124   0.502   8.536   9.199
 4032SOL     OW16125   1.290   3.915   9.272
 4032SOL    HW116126   1.249   3.882   9.192
 4032SOL    HW216127   1.267   4.008   9.274
 4032SOL     MW16128   1.281   3.923   9.261
 4033SOL     OW16129   2.312   6.683   3.019
 4033SOL    HW116130   2.263   6.736   3.082
 4033SOL    HW216131   2.245   6.637   2.969
 4033SOL     MW16132   2.297   6.684   3.021
 4034SOL     OW16133   7.195   1.052   0.968
 4034SOL    HW116134   7.107   1.037   1.002
 4034SOL    HW216135   7.252   1.046   1.046
 4034SOL     MW16136   7.191   1.049   0.983
 4035SOL     OW16137   7.154   2.086   5.105
 4035SOL    HW116138   7.155   2.036   5.023
 4035SOL    HW216139   7.174   2.176   5.078
 4035SOL     MW16140   7.157   2.092   5.090
 4036SOL     OW16141   2.875   4.801   3.033
 4036SOL    HW116142   2.807   4.806   2.966
 4036SOL    HW216143   2.949   4.850   2.997
 4036SOL     MW16144   2.876   4.808   3.019
 4037SOL     OW16145   3.576   2.227   4.584
 4037SOL    HW116146   3.559   2.321   4.575
 4037SOL    HW216147   3.544   2.205   4.671
 4037SOL     MW16148   3.569   2.237   4.594
 4038SOL     OW16149   9.598   5.594   0.270
 4038SOL    HW116150   9.539   5.533   0.312
 4038SOL    HW216151   9.681   5.547   0.264
 4038SOL     MW16152   9.602   5.580   0.275
 4039SOL     OW16153   4.151   0.098   6.209
 4039SOL    HW116154   4.154   0.142   6.295
 4039SOL    HW216155   4.242   0.075   6.191
 4039SOL     MW16156   4.164   0.101   6.219
 4040SOL     OW16157   2.626   0.413   6.081
 4040SOL    HW116158   2.719   0.394   6.063
 4040SOL    HW216159   2.628   0.476   6.152
 4040SOL     MW16160   2.639   0.419   6.088
 4041SOL     OW16161   7.186   5.299   4.741
 4041SOL    HW116162   7.266   5.278   4.692
 4041SOL    HW216163   7.189   5.242   4.818
 4041SOL     MW16164   7.197   5.289   4.745
 4042SOL     OW16165   2.721   4.248   5.331
 4042SOL    HW116166   2.721   4.163   5.286
 4042SOL    HW216167   2.673   4.232   5.412
 4042SOL     MW16168   2.715   4.234   5.336
 4043SOL     OW16169  10.082   2.020   0.638
 4043SOL    HW116170  10.113   2.021   0.547
 4043SOL    HW216171  10.095   1.930   0.667
 4043SOL     MW16172  10.088   2.008   0.629
 4044SOL     OW16173   5.395   3.255   7.752
 4044SOL    HW116174   5.381   3.307   7.674
 4044SOL    HW216175   5.396   3.164   7.720
 4044SOL     MW16176   5.393   3.249   7.737
 4045SOL     OW16177   6.240   5.661   6.583
 4045SOL    HW116178   6.192   5.581   6.563
 4045SOL    HW216179   6.230   5.672   6.678
 4045SOL     MW16180   6.232   5.652   6.593
 4046SOL     OW16181   4.325   0.993   0.325
 4046SOL    HW116182   4.350   0.969   0.236
 4046SOL    HW216183   4.232   0.970   0.331
 4046SOL     MW16184   4.316   0.987   0.314
 4047SOL     OW16185   7.724   9.278   3.036
 4047SOL    HW116186   7.751   9.198   3.081
 4047SOL    HW216187   7.806   9.318   3.006
 4047SOL     MW16188   7.738   9.272   3.038
 4048SOL     OW16189   3.442   6.866   4.209
 4048SOL    HW116190   3.347   6.855   4.211
 4048SOL    HW216191   3.474   6.789   4.162
 4048SOL     MW16192   3.434   6.854   4.203
 4049SOL     OW16193   7.105   5.937   1.915
 4049SOL    HW116194   7.089   5.842   1.920
 4049SOL    HW216195   7.065   5.964   1.833
 4049SOL     MW16196   7.097   5.928   1.905
 4050SOL     OW16197   0.962   3.741   5.548
 4050SOL    HW116198   1.004   3.766   5.630
 4050SOL    HW216199   1.028   3.756   5.481
 4050SOL     MW16200   0.976   3.746   5.550
 4051SOL     OW16201   0.441   1.792   4.410
 4051SOL    HW116202   0.497   1.730   4.457
 4051SOL    HW216203   0.491   1.873   4.407
 4051SOL     MW16204   0.455   1.795   4.416
 4052SOL     OW16205   3.326   6.751   5.329
 4052SOL    HW116206   3.355   6.680   5.387
 4052SOL    HW216207   3.407   6.793   5.301
 4052SOL     MW16208   3.341   6.747   5.333
 4053SOL     OW16209   0.899   7.805   6.413
 4053SOL    HW116210   0.978   7.781   6.366
 4053SOL    HW216211   0.928   7.870   6.477
 4053SOL     MW16212   0.913   7.811   6.415
 4054SOL     OW16213   3.946   3.114   9.485
 4054SOL    HW116214   3.926   3.194   9.534
 4054SOL    HW216215   3.927   3.136   9.394
 4054SOL     MW16216   3.941   3.128   9.480
 4055SOL     OW16217   1.722   9.561   6.712
 4055SOL    HW116218   1.731   9.641   6.660
 4055SOL    HW216219   1.685   9.591   6.795
 4055SOL     MW16220   1.718   9.576   6.716
 4056SOL     OW16221   1.276   4.738   4.648
 4056SOL    HW116222   1.270   4.786   4.731
 4056SOL    HW216223   1.275   4.646   4.673
 4056SOL     MW16224   1.275   4.732   4.663
 4057SOL     OW16225   2.022   6.280   5.503
 4057SOL    HW116226   2.024   6.185   5.509
 4057SOL    HW216227   1.985   6.298   5.416
 4057SOL     MW16228   2.017   6.270   5.492
 4058SOL     OW16229   0.991   3.149   3.357
 4058SOL    HW116230   0.937   3.072   3.376
 4058SOL    HW216231   0.964   3.214   3.422
 4058SOL     MW16232   0.980   3.147   3.368
 4059SOL     OW16233   9.413   0.022   3.614
 4059SOL    HW116234   9.426   0.104   3.663
 4059SOL    HW216235   9.433  -0.047   3.677
 4059SOL     MW16236   9.417   0.024   3.629
 4060SOL     OW16237   9.240   9.929   5.138
 4060SOL    HW116238   9.306   9.940   5.206
 4060SOL    HW216239   9.244  10.010   5.087
 4060SOL     MW16240   9.249   9.941   5.140
 4061SOL     OW16241   1.618   3.350   0.941
 4061SOL    HW116242   1.599   3.274   0.886
 4061SOL    HW216243   1.685   3.320   1.002
 4061SOL     MW16244   1.624   3.336   0.942
 4062SOL     OW16245   5.172   7.365   8.856
 4062SOL    HW116246   5.097   7.423   8.843
 4062SOL    HW216247   5.247   7.417   8.829
 4062SOL     MW16248   5.172   7.380   8.851
 4063SOL     OW16249   2.988   8.440   5.624
 4063SOL    HW116250   3.013   8.530   5.602
 4063SOL    HW216251   3.060   8.386   5.591
 4063SOL     MW16252   3.001   8.445   5.617
 4064SOL     OW16253   2.844   7.069   1.139
 4064SOL    HW116254   2.806   7.080   1.052
 4064SOL    HW216255   2.930   7.030   1.123
 4064SOL     MW16256   2.851   7.065   1.125
 4065SOL     OW16257   0.003   3.794   3.843
 4065SOL    HW116258   0.063   3.758   3.778
 4065SOL    HW216259  -0.018   3.720   3.899
 4065SOL     MW16260   0.008   3.779   3.841
 4066SOL     OW16261   2.329   0.677   2.193
 4066SOL    HW116262   2.313   0.703   2.283
 4066SOL    HW216263   2.422   0.652   2.191
 4066SOL     MW16264   2.339   0.678   2.205
 4067SOL     OW16265   4.171   0.538   5.798
 4067SOL    HW116266   4.185   0.632   5.802
 4067SOL    HW216267   4.213   0.511   5.716
 4067SOL     MW16268   4.179   0.547   5.787
 4068SOL     OW16269   4.584   5.955   0.207
 4068SOL    HW116270   4.605   5.889   0.272
 4068SOL    HW216271   4.515   5.914   0.153
 4068SOL     MW16272   4.578   5.940   0.208
 4069SOL     OW16273   7.627   0.901   6.253
 4069SOL    HW116274   7.635   0.806   6.264
 4069SOL    HW216275   7.569   0.928   6.324
 4069SOL     MW16276   7.621   0.892   6.264
 4070SOL     OW16277   1.361   4.024   7.194
 4070SOL    HW116278   1.386   4.040   7.103
 4070SOL    HW216279   1.415   3.950   7.222
 4070SOL     MW16280   1.372   4.016   7.186
 4071SOL     OW16281   2.999   7.105   7.541
 4071SOL    HW116282   2.960   7.132   7.458
 4071SOL    HW216283   3.093   7.117   7.528
 4071SOL     MW16284   3.006   7.110   7.528
 4072SOL     OW16285   9.335   2.699   9.055
 4072SOL    HW116286   9.388   2.725   8.979
 4072SOL    HW216287   9.400   2.680   9.123
 4072SOL     MW16288   9.351   2.700   9.054
 4073SOL     OW16289   2.296   0.039   7.219
 4073SOL    HW116290   2.294   0.067   7.128
 4073SOL    HW216291   2.229  -0.028   7.225
 4073SOL     MW16292   2.287   0.034   7.208
 4074SOL     OW16293   8.323   3.897   9.257
 4074SOL    HW116294   8.392   3.926   9.317
 4074SOL    HW216295   8.265   3.973   9.248
 4074SOL     MW16296   8.324   3.911   9.264
 4075SOL     OW16297   9.644   7.256   5.336
 4075SOL    HW116298   9.585   7.331   5.346
 4075SOL    HW216299   9.603   7.187   5.388
 4075SOL     MW16300   9.631   7.257   5.345
 4076SOL     OW16301   8.233   0.406   5.878
 4076SOL    HW116302   8.247   0.411   5.973
 4076SOL    HW216303   8.317   0.431   5.840
 4076SOL     MW16304   8.246   0.410   5.886
 4077SOL     OW16305   1.189   9.633   9.266
 4077SOL    HW116306   1.174   9.715   9.313
 4077SOL    HW216307   1.261   9.591   9.313
 4077SOL     MW16308   1.197   9.639   9.279
 4078SOL     OW16309   3.914   9.457   5.886
 4078SOL    HW116310   3.886   9.417   5.969
 4078SOL    HW216311   3.970   9.529   5.911
 4078SOL     MW16312   3.917   9.461   5.900
 4079SOL     OW16313   0.422   7.809   1.076
 4079SOL    HW116314   0.334   7.778   1.054
 4079SOL    HW216315   0.439   7.877   1.011
 4079SOL     MW16316   0.412   7.814   1.064
 4080SOL     OW16317   0.194   1.014   1.468
 4080SOL    HW116318   0.198   1.095   1.417
 4080SOL    HW216319   0.111   0.974   1.442
 4080SOL     MW16320   0.183   1.019   1.458
 4081SOL     OW16321  10.112   0.050   3.669
 4081SOL    HW116322  10.104   0.135   3.711
 4081SOL    HW216323  10.134   0.070   3.578
 4081SOL     MW16324  10.114   0.064   3.663
 4082SOL     OW16325   6.327   0.913   1.221
 4082SOL    HW116326   6.261   0.856   1.259
 4082SOL    HW216327   6.361   0.865   1.146
 4082SOL     MW16328   6.322   0.899   1.216
 4083SOL     OW16329   4.538   5.767   3.377
 4083SOL    HW116330   4.519   5.716   3.298
 4083SOL    HW216331   4.469   5.833   3.380
 4083SOL     MW16332   4.526   5.769   3.367
 4084SOL     OW16333   7.140   1.657   0.182
 4084SOL    HW116334   7.110   1.576   0.223
 4084SOL    HW216335   7.235   1.659   0.199
 4084SOL     MW16336   7.149   1.646   0.190
 4085SOL     OW16337  10.098   3.014   5.743
 4085SOL    HW116338  10.159   2.987   5.675
 4085SOL    HW216339  10.119   2.958   5.818
 4085SOL     MW16340  10.109   3.002   5.744
 4086SOL     OW16341   7.274   7.898   5.392
 4086SOL    HW116342   7.293   7.991   5.382
 4086SOL    HW216343   7.326   7.870   5.467
 4086SOL     MW16344   7.284   7.906   5.401
 4087SOL     OW16345   4.200   0.021   0.292
 4087SOL    HW116346   4.136   0.092   0.289
 4087SOL    HW216347   4.268   0.051   0.353
 4087SOL     MW16348   4.201   0.035   0.300
 4088SOL     OW16349   5.414   4.466   4.397
 4088SOL    HW116350   5.367   4.430   4.472
 4088SOL    HW216351   5.405   4.399   4.329
 4088SOL     MW16352   5.406   4.452   4.398
 4089SOL     OW16353   8.166   9.912   9.936
 4089SOL    HW116354   8.200   9.989   9.981
 4089SOL    HW216355   8.156   9.939   9.845
 4089SOL     MW16356   8.169   9.926   9.930
 4090SOL     OW16357   6.969   5.823   0.650
 4090SOL    HW116358   6.923   5.744   0.680
 4090SOL    HW216359   7.047   5.790   0.607
 4090SOL     MW16360   6.973   5.808   0.649
 4091SOL     OW16361   2.980   8.862   9.015
 4091SOL    HW116362   3.026   8.779   9.001
 4091SOL    HW216363   2.901   8.838   9.063
 4091SOL     MW16364   2.975   8.848   9.019
 4092SOL     OW16365   1.695   5.014   4.188
 4092SOL    HW116366   1.749   4.943   4.223
 4092SOL    HW216367   1.748   5.051   4.117
 4092SOL     MW16368   1.709   5.009   4.183
 4093SOL     OW16369   5.494   2.341   2.916
 4093SOL    HW116370   5.479   2.435   2.922
 4093SOL    HW216371   5.517   2.313   3.004
 4093SOL     MW16372   5.495   2.350   2.928
 4094SOL     OW16373   8.423   2.207   7.987
 4094SOL    HW116374   8.462   2.262   8.055
 4094SOL    HW216375   8.463   2.237   7.905
 4094SOL     MW16376   8.434   2.218   7.985
 4095SOL     OW16377   7.587   1.683   3.582
 4095SOL    HW116378   7.659   1.740   3.555
 4095SOL    HW216379   7.510   1.720   3.538
 4095SOL     MW16380   7.586   1.696   3.572
 4096SOL     OW16381   6.639   8.345   1.514
 4096SOL    HW116382   6.564   8.286   1.512
 4096SOL    HW216383   6.616   8.415   1.453
 4096SOL     MW16384   6.626   8.347   1.505
 4097SOL     OW16385   6.646   9.803   4.899
 4097SOL    HW116386   6.651   9.783   4.805
 4097SOL    HW216387   6.735   9.788   4.932
 4097SOL     MW16388   6.659   9.798   4.891
 4098SOL     OW16389   8.591   5.916   4.320
 4098SOL    HW116390   8.587   5.955   4.233
 4098SOL    HW216391   8.613   5.825   4.304
 4098SOL     MW16392   8.593   5.909   4.306
 4099SOL     OW16393   9.903   8.257   4.121
 4099SOL    HW116394   9.927   8.182   4.067
 4099SOL    HW216395   9.928   8.333   4.069
 4099SOL     MW16396   9.909   8.257   4.107
 4100SOL     OW16397   2.863   5.989   3.164
 4100SOL    HW116398   2.886   6.075   3.129
 4100SOL    HW216399   2.804   5.952   3.098
 4100SOL     MW16400   2.858   5.996   3.150
 4101SOL     OW16401   7.403   0.521   1.175
 4101SOL    HW116402   7.448   0.526   1.259
 4101SOL    HW216403   7.421   0.605   1.133
 4101SOL     MW16404   7.411   0.533   1.180
 4102SOL     OW16405   5.740   7.546   7.224
 4102SOL    HW116406   5.744   7.566   7.318
 4102SOL    HW216407   5.716   7.629   7.183
 4102SOL     MW16408   5.738   7.560   7.232
 4103SOL     OW16409   4.919   0.105   4.126
 4103SOL    HW116410   4.836   0.078   4.086
 4103SOL    HW216411   4.923   0.056   4.208
 4103SOL     MW16412   4.908   0.095   4.132
 4104SOL     OW16413   2.478   7.468   6.056
 4104SOL    HW116414   2.556   7.429   6.095
 4104SOL    HW216415   2.408   7.450   6.120
 4104SOL     MW16416   2.479   7.460   6.070
 4105SOL     OW16417   3.318  10.107   2.529
 4105SOL    HW116418   3.354  10.035   2.580
 4105SOL    HW216419   3.392  10.142   2.480
 4105SOL     MW16420   3.333  10.102   2.529
 4106SOL     OW16421   5.857   1.124   1.737
 4106SOL    HW116422   5.897   1.209   1.717
 4106SOL    HW216423   5.904   1.094   1.815
 4106SOL     MW16424   5.869   1.131   1.745
 4107SOL     OW16425   0.122   0.137   5.447
 4107SOL    HW116426   0.173   0.195   5.390
 4107SOL    HW216427   0.090   0.194   5.517
 4107SOL     MW16428   0.125   0.153   5.449
 4108SOL     OW16429   5.278   3.651   9.590
 4108SOL    HW116430   5.201   3.682   9.541
 4108SOL    HW216431   5.328   3.731   9.607
 4108SOL     MW16432   5.274   3.666   9.586
 4109SOL     OW16433   1.711   9.298   2.515
 4109SOL    HW116434   1.786   9.352   2.490
 4109SOL    HW216435   1.662   9.285   2.433
 4109SOL     MW16436   1.714   9.304   2.501
 4110SOL     OW16437   8.137   4.362   3.273
 4110SOL    HW116438   8.073   4.299   3.308
 4110SOL    HW216439   8.187   4.312   3.209
 4110SOL     MW16440   8.135   4.346   3.269
 4111SOL     OW16441   8.803   0.038   5.820
 4111SOL    HW116442   8.723   0.003   5.860
 4111SOL    HW216443   8.813  -0.013   5.739
 4111SOL     MW16444   8.793   0.026   5.815
 4112SOL     OW16445   9.580   0.199   6.538
 4112SOL    HW116446   9.539   0.113   6.533
 4112SOL    HW216447   9.524   0.255   6.484
 4112SOL     MW16448   9.567   0.195   6.530
 4113SOL     OW16449   1.798   3.305   3.948
 4113SOL    HW116450   1.816   3.235   3.886
 4113SOL    HW216451   1.711   3.285   3.983
 4113SOL     MW16452   1.789   3.293   3.945
 4114SOL     OW16453   1.012   6.293   0.538
 4114SOL    HW116454   1.064   6.331   0.467
 4114SOL    HW216455   1.012   6.360   0.606
 4114SOL     MW16456   1.019   6.307   0.537
 4115SOL     OW16457   9.449   2.637   0.697
 4115SOL    HW116458   9.508   2.595   0.634
 4115SOL    HW216459   9.361   2.612   0.669
 4115SOL     MW16460   9.445   2.628   0.685
 4116SOL     OW16461   7.669   5.654   9.094
 4116SOL    HW116462   7.685   5.726   9.154
 4116SOL    HW216463   7.590   5.679   9.047
 4116SOL     MW16464   7.660   5.667   9.096
 4117SOL     OW16465   7.113   5.985   2.189
 4117SOL    HW116466   7.114   5.986   2.093
 4117SOL    HW216467   7.078   6.070   2.214
 4117SOL     MW16468   7.109   5.997   2.179
 4118SOL     OW16469   4.054   0.913   4.188
 4118SOL    HW116470   4.031   0.850   4.120
 4118SOL    HW216471   4.069   0.860   4.266
 4118SOL     MW16472   4.053   0.898   4.189
 4119SOL     OW16473   3.855   9.406   1.474
 4119SOL    HW116474   3.859   9.411   1.569
 4119SOL    HW216475   3.939   9.369   1.448
 4119SOL     MW16476   3.867   9.401   1.483
 4120SOL     OW16477   0.049   4.069   1.764
 4120SOL    HW116478   0.029   4.157   1.795
 4120SOL    HW216479   0.051   4.078   1.668
 4120SOL     MW16480   0.047   4.082   1.755
 4121SOL     OW16481   4.156   0.418   1.244
 4121SOL    HW116482   4.089   0.409   1.177
 4121SOL    HW216483   4.238   0.400   1.198
 4121SOL     MW16484   4.158   0.414   1.229
 4122SOL     OW16485   5.866   1.987   3.213
 4122SOL    HW116486   5.945   1.942   3.244
 4122SOL    HW216487   5.798   1.960   3.276
 4122SOL     MW16488   5.868   1.977   3.226
 4123SOL     OW16489   8.500   9.264   4.388
 4123SOL    HW116490   8.417   9.255   4.342
 4123SOL    HW216491   8.552   9.323   4.334
 4123SOL     MW16492   8.496   9.271   4.375
 4124SOL     OW16493   7.699   1.916   3.453
 4124SOL    HW116494   7.606   1.905   3.433
 4124SOL    HW216495   7.703   1.999   3.501
 4124SOL     MW16496   7.687   1.926   3.457
 4125SOL     OW16497   2.204   1.944   6.441
 4125SOL    HW116498   2.297   1.951   6.421
 4125SOL    HW216499   2.173   2.034   6.447
 4125SOL     MW16500   2.212   1.957   6.439
 4126SOL     OW16501   0.266   2.284   3.546
 4126SOL    HW116502   0.360   2.294   3.559
 4126SOL    HW216503   0.253   2.190   3.534
 4126SOL     MW16504   0.277   2.273   3.546
 4127SOL     OW16505   4.907   7.877   1.572
 4127SOL    HW116506   4.899   7.957   1.519
 4127SOL    HW216507   4.978   7.828   1.531
 4127SOL     MW16508   4.915   7.881   1.559
 4128SOL     OW16509   9.944   6.979   1.939
 4128SOL    HW116510   9.878   7.012   2.000
 4128SOL    HW216511  10.012   6.941   1.994
 4128SOL     MW16512   9.944   6.978   1.954
 4129SOL     OW16513   3.658   5.238   2.433
 4129SOL    HW116514   3.657   5.271   2.343
 4129SOL    HW216515   3.741   5.191   2.441
 4129SOL     MW16516   3.669   5.236   2.422
 4130SOL     OW16517   4.083   6.017   8.615
 4130SOL    HW116518   4.119   6.034   8.528
 4130SOL    HW216519   4.103   6.096   8.665
 4130SOL     MW16520   4.091   6.030   8.610
 4131SOL     OW16521   6.604   6.401   6.584
 4131SOL    HW116522   6.577   6.317   6.546
 4131SOL    HW216523   6.571   6.467   6.523
 4131SOL     MW16524   6.596   6.398   6.571
 4132SOL     OW16525   6.187   0.768   8.623
 4132SOL    HW116526   6.128   0.721   8.565
 4132SOL    HW216527   6.142   0.769   8.708
 4132SOL     MW16528   6.173   0.762   8.627
 4133SOL     OW16529   2.271   1.836   9.252
 4133SOL    HW116530   2.290   1.902   9.319
 4133SOL    HW216531   2.206   1.779   9.293
 4133SOL     MW16532   2.265   1.837   9.267
 4134SOL     OW16533   1.639   4.437   3.875
 4134SOL    HW116534   1.708   4.448   3.810
 4134SOL    HW216535   1.560   4.468   3.831
 4134SOL     MW16536   1.637   4.443   3.861
 4135SOL     OW16537   1.259   7.801   1.317
 4135SOL    HW116538   1.204   7.874   1.288
 4135SOL    HW216539   1.200   7.726   1.320
 4135SOL     MW16540   1.244   7.801   1.313
 4136SOL     OW16541   2.904   7.071   7.046
 4136SOL    HW116542   2.867   7.062   6.958
 4136SOL    HW216543   2.993   7.103   7.031
 4136SOL     MW16544   2.911   7.074   7.032
 4137SOL     OW16545   2.194   4.909   9.473
 4137SOL    HW116546   2.115   4.956   9.446
 4137SOL    HW216547   2.236   4.968   9.536
 4137SOL     MW16548   2.189   4.923   9.478
 4138SOL     OW16549   1.914   7.835   3.161
 4138SOL    HW116550   1.870   7.912   3.196
 4138SOL    HW216551   1.962   7.867   3.084
 4138SOL     MW16552   1.915   7.849   3.155
 4139SOL     OW16553   7.567   0.367   7.897
 4139SOL    HW116554   7.485   0.395   7.856
 4139SOL    HW216555   7.557   0.273   7.907
 4139SOL     MW16556   7.555   0.358   7.893
 4140SOL     OW16557   8.493   9.687   4.936
 4140SOL    HW116558   8.584   9.689   4.964
 4140SOL    HW216559   8.463   9.777   4.946
 4140SOL     MW16560   8.501   9.699   4.941
 4141SOL     OW16561   9.930   1.009   1.228
 4141SOL    HW116562   9.860   1.051   1.278
 4141SOL    HW216563   9.931   1.055   1.145
 4141SOL     MW16564   9.921   1.020   1.224
 4142SOL     OW16565   6.598   2.464   5.428
 4142SOL    HW116566   6.634   2.509   5.351
 4142SOL    HW216567   6.667   2.402   5.454
 4142SOL     MW16568   6.612   2.462   5.421
 4143SOL     OW16569   1.041   8.846   3.326
 4143SOL    HW116570   1.103   8.790   3.281
 4143SOL    HW216571   1.052   8.825   3.419
 4143SOL     MW16572   1.051   8.836   3.333
 4144SOL     OW16573   9.393   9.623   1.945
 4144SOL    HW116574   9.480   9.662   1.956
 4144SOL    HW216575   9.362   9.607   2.034
 4144SOL     MW16576   9.401   9.626   1.958
 4145SOL     OW16577   1.888   7.634   6.178
 4145SOL    HW116578   1.863   7.569   6.112
 4145SOL    HW216579   1.811   7.690   6.187
 4145SOL     MW16580   1.874   7.633   6.170
 4146SOL     OW16581   8.050   4.482   4.224
 4146SOL    HW116582   7.960   4.456   4.245
 4146SOL    HW216583   8.101   4.401   4.233
 4146SOL     MW16584   8.045   4.467   4.228
 4147SOL     OW16585   5.179   7.358   5.487
 4147SOL    HW116586   5.153   7.386   5.399
 4147SOL    HW216587   5.273   7.340   5.479
 4147SOL     MW16588   5.188   7.359   5.474
 4148SOL     OW16589   8.728   0.925   8.463
 4148SOL    HW116590   8.666   0.937   8.392
 4148SOL    HW216591   8.802   0.878   8.425
 4148SOL     MW16592   8.730   0.921   8.449
 4149SOL     OW16593   5.158   2.679   9.284
 4149SOL    HW116594   5.247   2.661   9.316
 4149SOL    HW216595   5.171   2.706   9.193
 4149SOL     MW16596   5.172   2.681   9.276
 4150SOL     OW16597   3.584   0.637   4.161
 4150SOL    HW116598   3.581   0.620   4.255
 4150SOL    HW216599   3.665   0.595   4.132
 4150SOL     MW16600   3.595   0.629   4.170
 4151SOL     OW16601   6.582   9.068   4.050
 4151SOL    HW116602   6.662   9.033   4.089
 4151SOL    HW216603   6.526   8.991   4.037
 4151SOL     MW16604   6.585   9.053   4.053
 4152SOL     OW16605   2.214   7.114   3.133
 4152SOL    HW116606   2.254   7.185   3.184
 4152SOL    HW216607   2.267   7.108   3.054
 4152SOL     MW16608   2.227   7.123   3.130
 4153SOL     OW16609   3.207   5.772   9.220
 4153SOL    HW116610   3.289   5.722   9.217
 4153SOL    HW216611   3.141   5.712   9.188
 4153SOL     MW16612   3.209   5.757   9.215
 4154SOL     OW16613   1.057   1.152   9.979
 4154SOL    HW116614   1.076   1.128   9.888
 4154SOL    HW216615   1.084   1.076  10.030
 4154SOL     MW16616   1.063   1.138   9.974
 4155SOL     OW16617   5.002   4.662   3.657
 4155SOL    HW116618   4.953   4.739   3.628
 4155SOL    HW216619   5.055   4.693   3.730
 4155SOL     MW16620   5.002   4.676   3.663
 4156SOL     OW16621   2.162   6.874   4.772
 4156SOL    HW116622   2.225   6.942   4.795
 4156SOL    HW216623   2.207   6.792   4.791
 4156SOL     MW16624   2.177   6.872   4.777
 4157SOL     OW16625   8.025   5.490   9.365
 4157SOL    HW116626   8.079   5.527   9.295
 4157SOL    HW216627   7.988   5.410   9.327
 4157SOL     MW16628   8.027   5.484   9.350
 4158SOL     OW16629   3.828   2.327   4.656
 4158SOL    HW116630   3.754   2.276   4.624
 4158SOL    HW216631   3.901   2.265   4.660
 4158SOL     MW16632   3.828   2.312   4.652
 4159SOL     OW16633   8.290   1.438   2.357
 4159SOL    HW116634   8.310   1.432   2.264
 4159SOL    HW216635   8.350   1.504   2.391
 4159SOL     MW16636   8.301   1.446   2.349
 4160SOL     OW16637   4.982   3.239   6.874
 4160SOL    HW116638   5.018   3.212   6.958
 4160SOL    HW216639   5.035   3.192   6.809
 4160SOL     MW16640   4.994   3.229   6.876
 4161SOL     OW16641   9.465   5.439   2.810
 4161SOL    HW116642   9.400   5.432   2.880
 4161SOL    HW216643   9.527   5.368   2.827
 4161SOL     MW16644   9.464   5.429   2.822
 4162SOL     OW16645   7.284   5.084   1.978
 4162SOL    HW116646   7.345   5.070   1.906
 4162SOL    HW216647   7.241   4.999   1.990
 4162SOL     MW16648   7.286   5.071   1.970
 4163SOL     OW16649   3.427   9.641   1.546
 4163SOL    HW116650   3.513   9.621   1.510
 4163SOL    HW216651   3.366   9.596   1.488
 4163SOL     MW16652   3.430   9.632   1.533
 4164SOL     OW16653   7.249   6.340   5.510
 4164SOL    HW116654   7.219   6.310   5.425
 4164SOL    HW216655   7.200   6.421   5.526
 4164SOL     MW16656   7.239   6.347   5.501
 4165SOL     OW16657   7.218   6.686   9.581
 4165SOL    HW116658   7.270   6.606   9.583
 4165SOL    HW216659   7.213   6.708   9.488
 4165SOL     MW16660   7.225   6.678   9.569
 4166SOL     OW16661   8.510   3.370   4.002
 4166SOL    HW116662   8.582   3.332   3.952
 4166SOL    HW216663   8.434   3.318   3.978
 4166SOL     MW16664   8.510   3.358   3.992
 4167SOL     OW16665   7.531   8.097   4.219
 4167SOL    HW116666   7.544   8.010   4.255
 4167SOL    HW216667   7.437   8.102   4.202
 4167SOL     MW16668   7.520   8.086   4.222
 4168SOL     OW16669   6.881   1.046   8.272
 4168SOL    HW116670   6.913   1.015   8.188
 4168SOL    HW216671   6.949   1.106   8.303
 4168SOL     MW16672   6.894   1.050   8.265
 4169SOL     OW16673   3.983   0.492   1.450
 4169SOL    HW116674   4.019   0.570   1.493
 4169SOL    HW216675   4.052   0.464   1.390
 4169SOL     MW16676   3.997   0.499   1.447
 4170SOL     OW16677   4.096   5.601   3.392
 4170SOL    HW116678   4.092   5.629   3.484
 4170SOL    HW216679   4.165   5.535   3.391
 4170SOL     MW16680   4.105   5.596   3.404
 4171SOL     OW16681   2.621   2.728   9.302
 4171SOL    HW116682   2.560   2.786   9.256
 4171SOL    HW216683   2.700   2.729   9.248
 4171SOL     MW16684   2.624   2.736   9.289
 4172SOL     OW16685   5.266   0.596   5.770
 4172SOL    HW116686   5.260   0.504   5.745
 4172SOL    HW216687   5.264   0.595   5.866
 4172SOL     MW16688   5.264   0.584   5.780
 4173SOL     OW16689   3.100   0.545   4.069
 4173SOL    HW116690   3.193   0.544   4.048
 4173SOL    HW216691   3.075   0.637   4.061
 4173SOL     MW16692   3.109   0.557   4.065
 4174SOL     OW16693   0.097   4.798   1.209
 4174SOL    HW116694   0.157   4.838   1.146
 4174SOL    HW216695   0.010   4.822   1.178
 4174SOL     MW16696   0.093   4.807   1.197
 4175SOL     OW16697   4.543   7.264   0.344
 4175SOL    HW116698   4.476   7.238   0.280
 4175SOL    HW216699   4.503   7.245   0.429
 4175SOL     MW16700   4.528   7.258   0.347
 4176SOL     OW16701   3.374   2.825   6.127
 4176SOL    HW116702   3.470   2.821   6.124
 4176SOL    HW216703   3.351   2.789   6.212
 4176SOL     MW16704   3.384   2.820   6.138
 4177SOL     OW16705   8.449   5.715   0.715
 4177SOL    HW116706   8.478   5.641   0.767
 4177SOL    HW216707   8.496   5.790   0.750
 4177SOL     MW16708   8.459   5.715   0.727
 4178SOL     OW16709   6.972   8.040   7.917
 4178SOL    HW116710   6.941   7.950   7.902
 4178SOL    HW216711   7.033   8.057   7.846
 4178SOL     MW16712   6.976   8.030   7.906
 4179SOL     OW16713   3.808   2.908   3.128
 4179SOL    HW116714   3.754   2.835   3.157
 4179SOL    HW216715   3.832   2.955   3.208
 4179SOL     MW16716   3.804   2.905   3.143
 4180SOL     OW16717   4.403   3.044   9.107
 4180SOL    HW116718   4.391   3.138   9.112
 4180SOL    HW216719   4.328   3.007   9.155
 4180SOL     MW16720   4.391   3.051   9.114
 4181SOL     OW16721   6.021   1.187   7.341
 4181SOL    HW116722   6.110   1.190   7.375
 4181SOL    HW216723   5.970   1.243   7.400
 4181SOL     MW16724   6.026   1.195   7.353
 4182SOL     OW16725   8.159   3.529   9.137
 4182SOL    HW116726   8.162   3.433   9.131
 4182SOL    HW216727   8.144   3.547   9.229
 4182SOL     MW16728   8.158   3.518   9.148
 4183SOL     OW16729   6.047   8.595   3.829
 4183SOL    HW116730   6.101   8.554   3.761
 4183SOL    HW216731   5.995   8.522   3.864
 4183SOL     MW16732   6.047   8.579   3.824
 4184SOL     OW16733   1.379   1.548   6.260
 4184SOL    HW116734   1.471   1.533   6.279
 4184SOL    HW216735   1.361   1.636   6.292
 4184SOL     MW16736   1.389   1.558   6.267
 4185SOL     OW16737   8.951   5.879   6.461
 4185SOL    HW116738   9.036   5.845   6.489
 4185SOL    HW216739   8.915   5.921   6.539
 4185SOL     MW16740   8.958   5.880   6.475
 4186SOL     OW16741   7.897   9.898   4.326
 4186SOL    HW116742   7.937   9.978   4.362
 4186SOL    HW216743   7.810   9.895   4.366
 4186SOL     MW16744   7.891   9.909   4.336
 4187SOL     OW16745   6.776   0.298   4.534
 4187SOL    HW116746   6.770   0.203   4.534
 4187SOL    HW216747   6.795   0.321   4.443
 4187SOL     MW16748   6.778   0.288   4.522
 4188SOL     OW16749   1.143   7.241   1.692
 4188SOL    HW116750   1.054   7.260   1.721
 4188SOL    HW216751   1.150   7.146   1.696
 4188SOL     MW16752   1.132   7.231   1.696
 4189SOL     OW16753   0.569   9.222   4.244
 4189SOL    HW116754   0.635   9.237   4.176
 4189SOL    HW216755   0.514   9.300   4.242
 4189SOL     MW16756   0.570   9.234   4.235
 4190SOL     OW16757   0.818   8.335   0.883
 4190SOL    HW116758   0.830   8.391   0.806
 4190SOL    HW216759   0.887   8.362   0.943
 4190SOL     MW16760   0.829   8.346   0.881
 4191SOL     OW16761   9.255   7.834   3.195
 4191SOL    HW116762   9.224   7.744   3.191
 4191SOL    HW216763   9.175   7.886   3.208
 4191SOL     MW16764   9.240   7.829   3.196
 4192SOL     OW16765   1.473   7.890   1.473
 4192SOL    HW116766   1.544   7.891   1.410
 4192SOL    HW216767   1.398   7.854   1.425
 4192SOL     MW16768   1.472   7.885   1.458
 4193SOL     OW16769   1.678   6.895   4.835
 4193SOL    HW116770   1.722   6.933   4.911
 4193SOL    HW216771   1.749   6.875   4.774
 4193SOL     MW16772   1.693   6.897   4.837
 4194SOL     OW16773   6.590   5.573   9.127
 4194SOL    HW116774   6.656   5.637   9.155
 4194SOL    HW216775   6.636   5.520   9.062
 4194SOL     MW16776   6.605   5.575   9.122
 4195SOL     OW16777   4.092   5.492   0.332
 4195SOL    HW116778   4.095   5.550   0.255
 4195SOL    HW216779   4.179   5.502   0.371
 4195SOL     MW16780   4.104   5.501   0.327
 4196SOL     OW16781   7.450   4.396   4.401
 4196SOL    HW116782   7.389   4.361   4.465
 4196SOL    HW216783   7.509   4.323   4.382
 4196SOL     MW16784   7.450   4.381   4.407
 4197SOL     OW16785   7.535   4.856   4.276
 4197SOL    HW116786   7.594   4.876   4.203
 4197SOL    HW216787   7.559   4.768   4.303
 4197SOL     MW16788   7.546   4.847   4.270
 4198SOL     OW16789   1.059   7.159   6.418
 4198SOL    HW116790   1.046   7.081   6.364
 4198SOL    HW216791   1.068   7.125   6.507
 4198SOL     MW16792   1.058   7.144   6.423
 4199SOL     OW16793   1.867   5.103   3.991
 4199SOL    HW116794   1.911   5.185   3.968
 4199SOL    HW216795   1.869   5.052   3.910
 4199SOL     MW16796   1.874   5.107   3.977
 4200SOL     OW16797   2.459   2.031   3.434
 4200SOL    HW116798   2.414   2.030   3.518
 4200SOL    HW216799   2.473   1.939   3.413
 4200SOL     MW16800   2.455   2.019   3.442
 4201SOL     OW16801   2.541   4.438   1.213
 4201SOL    HW116802   2.545   4.509   1.148
 4201SOL    HW216803   2.567   4.479   1.295
 4201SOL     MW16804   2.545   4.453   1.215
 4202SOL     OW16805   5.736   3.151   5.691
 4202SOL    HW116806   5.652   3.108   5.711
 4202SOL    HW216807   5.802   3.085   5.711
 4202SOL     MW16808   5.733   3.136   5.697
 4203SOL     OW16809   4.122   9.716   9.486
 4203SOL    HW116810   4.130   9.632   9.532
 4203SOL    HW216811   4.033   9.716   9.451
 4203SOL     MW16812   4.111   9.705   9.487
 4204SOL     OW16813   0.832   3.942   8.513
 4204SOL    HW116814   0.853   3.851   8.490
 4204SOL    HW216815   0.737   3.942   8.525
 4204SOL     MW16816   0.822   3.930   8.511
 4205SOL     OW16817   2.605   1.833   8.972
 4205SOL    HW116818   2.510   1.841   8.977
 4205SOL    HW216819   2.624   1.748   9.013
 4205SOL     MW16820   2.595   1.822   8.978
 4206SOL     OW16821   8.674   9.217   5.181
 4206SOL    HW116822   8.762   9.249   5.159
 4206SOL    HW216823   8.619   9.296   5.180
 4206SOL     MW16824   8.678   9.232   5.178
 4207SOL     OW16825   4.841   1.282   4.566
 4207SOL    HW116826   4.801   1.257   4.649
 4207SOL    HW216827   4.828   1.207   4.509
 4207SOL     MW16828   4.834   1.269   4.570
 4208SOL     OW16829   8.332   0.950   0.556
 4208SOL    HW116830   8.342   0.889   0.483
 4208SOL    HW216831   8.249   0.926   0.596
 4208SOL     MW16832   8.322   0.938   0.551
 4209SOL     OW16833   9.614   6.648   7.340
 4209SOL    HW116834   9.709   6.651   7.331
 4209SOL    HW216835   9.592   6.555   7.342
 4209SOL     MW16836   9.624   6.636   7.339
 4210SOL     OW16837   8.621   4.528   9.489
 4210SOL    HW116838   8.632   4.573   9.573
 4210SOL    HW216839   8.673   4.448   9.497
 4210SOL     MW16840   8.629   4.523   9.501
 4211SOL     OW16841   5.241   8.823   2.881
 4211SOL    HW116842   5.183   8.900   2.879
 4211SOL    HW216843   5.313   8.849   2.938
 4211SOL     MW16844   5.243   8.837   2.888
 4212SOL     OW16845   3.808   3.849   8.668
 4212SOL    HW116846   3.902   3.827   8.668
 4212SOL    HW216847   3.804   3.934   8.625
 4212SOL     MW16848   3.820   3.857   8.663
 4213SOL     OW16849   9.595   9.459   3.690
 4213SOL    HW116850   9.545   9.540   3.700
 4213SOL    HW216851   9.602   9.425   3.780
 4213SOL     MW16852   9.589   9.465   3.704
 4214SOL     OW16853   6.281   7.430   6.416
 4214SOL    HW116854   6.239   7.479   6.345
 4214SOL    HW216855   6.211   7.418   6.480
 4214SOL     MW16856   6.266   7.435   6.415
 4215SOL     OW16857   5.744   9.012   5.627
 4215SOL    HW116858   5.663   8.998   5.676
 4215SOL    HW216859   5.751   9.108   5.620
 4215SOL     MW16860   5.734   9.023   5.633
 4216SOL     OW16861   1.226   0.530   3.376
 4216SOL    HW116862   1.301   0.519   3.317
 4216SOL    HW216863   1.263   0.567   3.456
 4216SOL     MW16864   1.241   0.534   3.379
 4217SOL     OW16865   9.976   0.073   7.945
 4217SOL    HW116866   9.967   0.058   8.039
 4217SOL    HW216867  10.011   0.162   7.938
 4217SOL     MW16868   9.980   0.083   7.956
 4218SOL     OW16869   0.671   2.603   2.666
 4218SOL    HW116870   0.601   2.651   2.711
 4218SOL    HW216871   0.747   2.661   2.673
 4218SOL     MW16872   0.672   2.617   2.673
 4219SOL     OW16873   2.930   9.745   4.353
 4219SOL    HW116874   2.990   9.813   4.321
 4219SOL    HW216875   2.857   9.794   4.390
 4219SOL     MW16876   2.928   9.761   4.354
 4220SOL     OW16877   9.446   1.627   3.922
 4220SOL    HW116878   9.446   1.721   3.943
 4220SOL    HW216879   9.475   1.585   4.003
 4220SOL     MW16880   9.450   1.634   3.936
 4221SOL     OW16881   4.957   8.855   8.491
 4221SOL    HW116882   4.930   8.896   8.573
 4221SOL    HW216883   4.990   8.769   8.518
 4221SOL     MW16884   4.958   8.849   8.506
 4222SOL     OW16885   3.946   2.678   3.038
 4222SOL    HW116886   3.965   2.673   2.945
 4222SOL    HW216887   3.925   2.770   3.054
 4222SOL     MW16888   3.946   2.690   3.028
 4223SOL     OW16889   5.400   5.580   5.123
 4223SOL    HW116890   5.480   5.533   5.099
 4223SOL    HW216891   5.372   5.540   5.205
 4223SOL     MW16892   5.407   5.568   5.131
 4224SOL     OW16893   9.698   6.860   1.866
 4224SOL    HW116894   9.791   6.883   1.867
 4224SOL    HW216895   9.658   6.926   1.809
 4224SOL     MW16896   9.705   6.872   1.859
 4225SOL     OW16897   9.227   6.285   1.666
 4225SOL    HW116898   9.201   6.219   1.730
 4225SOL    HW216899   9.237   6.236   1.584
 4225SOL     MW16900   9.225   6.270   1.664
 4226SOL     OW16901   2.352   2.198   7.468
 4226SOL    HW116902   2.356   2.164   7.558
 4226SOL    HW216903   2.259   2.198   7.447
 4226SOL     MW16904   2.340   2.193   7.477
 4227SOL     OW16905   1.931   9.439   2.410
 4227SOL    HW116906   1.953   9.520   2.363
 4227SOL    HW216907   2.012   9.388   2.408
 4227SOL     MW16908   1.945   9.443   2.404
 4228SOL     OW16909   2.156   6.611   0.631
 4228SOL    HW116910   2.160   6.517   0.614
 4228SOL    HW216911   2.217   6.649   0.568
 4228SOL     MW16912   2.164   6.603   0.620
 4229SOL     OW16913   6.671   7.337   6.769
 4229SOL    HW116914   6.584   7.349   6.731
 4229SOL    HW216915   6.728   7.326   6.694
 4229SOL     MW16916   6.667   7.337   6.754
 4230SOL     OW16917   3.070   1.009   6.553
 4230SOL    HW116918   3.094   1.053   6.634
 4230SOL    HW216919   3.056   1.079   6.490
 4230SOL     MW16920   3.071   1.024   6.556
 4231SOL     OW16921   3.391   9.867   1.175
 4231SOL    HW116922   3.405   9.909   1.090
 4231SOL    HW216923   3.478   9.837   1.202
 4231SOL     MW16924   3.405   9.869   1.167
 4232SOL     OW16925   7.050   9.598   1.144
 4232SOL    HW116926   7.120   9.617   1.206
 4232SOL    HW216927   7.005   9.523   1.181
 4232SOL     MW16928   7.053   9.591   1.157
 4233SOL     OW16929   8.883   9.934   4.091
 4233SOL    HW116930   8.819   9.923   4.160
 4233SOL    HW216931   8.907  10.026   4.094
 4233SOL     MW16932   8.878   9.945   4.101
 4234SOL     OW16933   6.811   7.101   0.961
 4234SOL    HW116934   6.715   7.105   0.964
 4234SOL    HW216935   6.834   7.035   1.027
 4234SOL     MW16936   6.801   7.093   0.970
 4235SOL     OW16937   6.733   9.471   2.436
 4235SOL    HW116938   6.708   9.385   2.470
 4235SOL    HW216939   6.690   9.478   2.351
 4235SOL     MW16940   6.724   9.461   2.429
 4236SOL     OW16941   4.235   2.571   9.873
 4236SOL    HW116942   4.178   2.622   9.930
 4236SOL    HW216943   4.205   2.480   9.884
 4236SOL     MW16944   4.223   2.565   9.882
 4237SOL     OW16945   2.909   0.864   8.457
 4237SOL    HW116946   2.912   0.900   8.369
 4237SOL    HW216947   2.943   0.775   8.448
 4237SOL     MW16948   2.914   0.857   8.444
 4238SOL     OW16949   5.678   4.917   4.151
 4238SOL    HW116950   5.715   4.892   4.067
 4238SOL    HW216951   5.584   4.919   4.137
 4238SOL     MW16952   5.671   4.914   4.138
 4239SOL     OW16953   8.982   8.548   6.412
 4239SOL    HW116954   8.904   8.569   6.463
 4239SOL    HW216955   8.948   8.514   6.329
 4239SOL     MW16956   8.967   8.546   6.408
 4240SOL     OW16957   3.866   1.084   0.474
 4240SOL    HW116958   3.933   1.134   0.521
 4240SOL    HW216959   3.822   1.033   0.542
 4240SOL     MW16960   3.869   1.084   0.490
 4241SOL     OW16961   2.718   7.257   2.350
 4241SOL    HW116962   2.692   7.342   2.315
 4241SOL    HW216963   2.722   7.200   2.273
 4241SOL     MW16964   2.715   7.261   2.335
 4242SOL     OW16965   5.678  10.137   9.638
 4242SOL    HW116966   5.714  10.068   9.583
 4242SOL    HW216967   5.741  10.209   9.630
 4242SOL     MW16968   5.691  10.138   9.630
 4243SOL     OW16969   0.662   6.742   4.508
 4243SOL    HW116970   0.616   6.808   4.457
 4243SOL    HW216971   0.737   6.718   4.454
 4243SOL     MW16972   0.666   6.748   4.494
 4244SOL     OW16973   7.478   1.695   4.150
 4244SOL    HW116974   7.395   1.682   4.105
 4244SOL    HW216975   7.538   1.633   4.110
 4244SOL     MW16976   7.475   1.685   4.139
 4245SOL     OW16977   7.963   7.470   4.042
 4245SOL    HW116978   8.050   7.440   4.067
 4245SOL    HW216979   7.925   7.503   4.123
 4245SOL     MW16980   7.969   7.471   4.056
 4246SOL     OW16981   1.102   3.495   5.276
 4246SOL    HW116982   1.088   3.457   5.189
 4246SOL    HW216983   1.022   3.475   5.324
 4246SOL     MW16984   1.089   3.487   5.271
 4247SOL     OW16985   4.214   8.853   7.425
 4247SOL    HW116986   4.160   8.817   7.496
 4247SOL    HW216987   4.277   8.910   7.470
 4247SOL     MW16988   4.215   8.856   7.441
 4248SOL     OW16989   6.762   7.360   7.284
 4248SOL    HW116990   6.834   7.413   7.319
 4248SOL    HW216991   6.777   7.357   7.190
 4248SOL     MW16992   6.774   7.367   7.276
 4249SOL     OW16993   2.454   4.487   4.493
 4249SOL    HW116994   2.393   4.554   4.525
 4249SOL    HW216995   2.443   4.488   4.398
 4249SOL     MW16996   2.444   4.496   4.484
 4250SOL     OW16997   4.013   0.407   2.923
 4250SOL    HW116998   4.042   0.460   2.998
 4250SOL    HW216999   4.080   0.340   2.912
 4250SOL     MW17000   4.026   0.405   2.932
 4251SOL     OW17001   1.908   4.015   2.087
 4251SOL    HW117002   1.886   4.107   2.099
 4251SOL    HW217003   2.001   4.015   2.065
 4251SOL     MW17004   1.918   4.027   2.086
 4252SOL     OW17005   7.089   8.708   2.051
 4252SOL    HW117006   7.169   8.756   2.071
 4252SOL    HW217007   7.115   8.616   2.056
 4252SOL     MW17008   7.103   8.702   2.055
 4253SOL     OW17009   3.083   4.945   2.915
 4253SOL    HW117010   3.160   4.902   2.880
 4253SOL    HW217011   3.105   5.038   2.916
 4253SOL     MW17012   3.096   4.952   2.911
 4254SOL     OW17013   8.472   8.521   0.570
 4254SOL    HW117014   8.496   8.568   0.650
 4254SOL    HW217015   8.468   8.429   0.598
 4254SOL     MW17016   8.475   8.515   0.585
 4255SOL     OW17017   2.588   7.001   5.002
 4255SOL    HW117018   2.641   6.926   5.030
 4255SOL    HW217019   2.619   7.073   5.056
 4255SOL     MW17020   2.599   7.000   5.013
 4256SOL     OW17021   5.269   1.454   4.475
 4256SOL    HW117022   5.208   1.381   4.475
 4256SOL    HW217023   5.309   1.452   4.388
 4256SOL     MW17024   5.266   1.444   4.463
 4257SOL     OW17025   8.763   3.210   4.893
 4257SOL    HW117026   8.727   3.193   4.806
 4257SOL    HW217027   8.699   3.172   4.953
 4257SOL     MW17028   8.749   3.203   4.889
 4258SOL     OW17029   9.033   9.745   3.950
 4258SOL    HW117030   8.982   9.812   3.996
 4258SOL    HW217031   8.989   9.663   3.971
 4258SOL     MW17032   9.020   9.743   3.959
 4259SOL     OW17033   2.460   1.044   5.057
 4259SOL    HW117034   2.508   0.973   5.099
 4259SOL    HW217035   2.371   1.010   5.047
 4259SOL     MW17036   2.455   1.030   5.061
 4260SOL     OW17037   4.466   4.678   6.953
 4260SOL    HW117038   4.472   4.627   7.033
 4260SOL    HW217039   4.484   4.615   6.883
 4260SOL     MW17040   4.469   4.662   6.954
 4261SOL     OW17041   0.537   6.576   3.419
 4261SOL    HW117042   0.500   6.656   3.456
 4261SOL    HW217043   0.509   6.507   3.479
 4261SOL     MW17044   0.528   6.578   3.432
 4262SOL     OW17045   3.978   9.686   8.315
 4262SOL    HW117046   4.007   9.597   8.335
 4262SOL    HW217047   3.954   9.683   8.222
 4262SOL     MW17048   3.979   9.674   8.305
 4263SOL     OW17049   7.174   2.646   4.304
 4263SOL    HW117050   7.253   2.684   4.264
 4263SOL    HW217051   7.111   2.718   4.306
 4263SOL     MW17052   7.176   2.661   4.299
 4264SOL     OW17053   9.564   0.309   7.262
 4264SOL    HW117054   9.535   0.238   7.205
 4264SOL    HW217055   9.645   0.278   7.302
 4264SOL     MW17056   9.571   0.295   7.259
 4265SOL     OW17057   5.503   0.416   1.847
 4265SOL    HW117058   5.525   0.506   1.873
 4265SOL    HW217059   5.488   0.422   1.753
 4265SOL     MW17060   5.504   0.429   1.838
 4266SOL     OW17061   2.044   4.209   2.288
 4266SOL    HW117062   2.010   4.127   2.325
 4266SOL    HW217063   2.047   4.270   2.362
 4266SOL     MW17064   2.040   4.206   2.303
 4267SOL     OW17065   9.066   3.243   6.930
 4267SOL    HW117066   9.071   3.307   6.859
 4267SOL    HW217067   8.980   3.256   6.969
 4267SOL     MW17068   9.055   3.253   6.925
 4268SOL     OW17069   0.975   0.064   9.738
 4268SOL    HW117070   0.888   0.027   9.757
 4268SOL    HW217071   0.978   0.146   9.787
 4268SOL     MW17072   0.964   0.070   9.747
 4269SOL     OW17073   7.456   1.977   2.329
 4269SOL    HW117074   7.476   2.025   2.249
 4269SOL    HW217075   7.398   2.036   2.378
 4269SOL     MW17076   7.451   1.991   2.325
 4270SOL     OW17077   8.023   9.713   2.143
 4270SOL    HW117078   8.103   9.765   2.133
 4270SOL    HW217079   7.974   9.758   2.212
 4270SOL     MW17080   8.027   9.726   2.151
 4271SOL     OW17081   9.461   1.800   6.828
 4271SOL    HW117082   9.524   1.870   6.814
 4271SOL    HW217083   9.512   1.719   6.822
 4271SOL     MW17084   9.476   1.799   6.825
 4272SOL     OW17085   0.035   3.275   5.758
 4272SOL    HW117086  -0.005   3.189   5.753
 4272SOL    HW217087  -0.024   3.326   5.814
 4272SOL     MW17088   0.022   3.271   5.765
 4273SOL     OW17089   8.022  10.083   4.903
 4273SOL    HW117090   8.046   9.990   4.897
 4273SOL    HW217091   8.012  10.098   4.997
 4273SOL     MW17092   8.024  10.072   4.915
 4274SOL     OW17093   8.323   3.205   1.292
 4274SOL    HW117094   8.381   3.129   1.279
 4274SOL    HW217095   8.382   3.280   1.288
 4274SOL     MW17096   8.339   3.205   1.290
 4275SOL     OW17097   2.639   7.328   1.587
 4275SOL    HW117098   2.631   7.235   1.565
 4275SOL    HW217099   2.626   7.331   1.682
 4275SOL     MW17100   2.636   7.316   1.597
 4276SOL     OW17101   4.085   1.412   4.443
 4276SOL    HW117102   4.001   1.369   4.430
 4276SOL    HW217103   4.124   1.414   4.356
 4276SOL     MW17104   4.079   1.406   4.430
 4277SOL     OW17105   8.464   6.448   3.767
 4277SOL    HW117106   8.370   6.454   3.747
 4277SOL    HW217107   8.506   6.504   3.702
 4277SOL     MW17108   8.457   6.457   3.755
 4278SOL     OW17109   3.522   1.442   5.648
 4278SOL    HW117110   3.429   1.422   5.660
 4278SOL    HW217111   3.562   1.357   5.630
 4278SOL     MW17112   3.515   1.428   5.648
 4279SOL     OW17113   2.899   0.429   5.773
 4279SOL    HW117114   2.990   0.441   5.746
 4279SOL    HW217115   2.904   0.422   5.868
 4279SOL     MW17116   2.912   0.430   5.782
 4280SOL     OW17117   3.875   4.451   0.980
 4280SOL    HW117118   3.893   4.403   1.061
 4280SOL    HW217119   3.880   4.544   1.006
 4280SOL     MW17120   3.878   4.457   0.995
 4281SOL     OW17121   7.762   9.284   4.068
 4281SOL    HW117122   7.837   9.264   4.124
 4281SOL    HW217123   7.774   9.375   4.043
 4281SOL     MW17124   7.774   9.293   4.072
 4282SOL     OW17125   9.278   5.070   7.527
 4282SOL    HW117126   9.309   5.041   7.612
 4282SOL    HW217127   9.249   4.990   7.483
 4282SOL     MW17128   9.278   5.056   7.532
 4283SOL     OW17129   1.123   0.420   0.483
 4283SOL    HW117130   1.062   0.357   0.443
 4283SOL    HW217131   1.067   0.492   0.511
 4283SOL     MW17132   1.107   0.421   0.482
 4284SOL     OW17133   9.779   3.035   2.157
 4284SOL    HW117134   9.772   2.945   2.191
 4284SOL    HW217135   9.692   3.072   2.173
 4284SOL     MW17136   9.766   3.028   2.164
 4285SOL     OW17137   3.131   1.150   6.784
 4285SOL    HW117138   3.184   1.229   6.794
 4285SOL    HW217139   3.100   1.130   6.872
 4285SOL     MW17140   3.134   1.158   6.797
 4286SOL     OW17141   7.094   6.262   5.725
 4286SOL    HW117142   7.146   6.232   5.799
 4286SOL    HW217143   7.156   6.265   5.652
 4286SOL     MW17144   7.109   6.258   5.725
 4287SOL     OW17145   5.861   5.889   7.568
 4287SOL    HW117146   5.882   5.974   7.604
 4287SOL    HW217147   5.930   5.831   7.598
 4287SOL     MW17148   5.873   5.892   7.577
 4288SOL     OW17149   0.892   8.815   1.512
 4288SOL    HW117150   0.966   8.768   1.551
 4288SOL    HW217151   0.918   8.831   1.422
 4288SOL     MW17152   0.905   8.811   1.505
 4289SOL     OW17153   9.657   9.175   1.845
 4289SOL    HW117154   9.746   9.169   1.878
 4289SOL    HW217155   9.635   9.268   1.851
 4289SOL     MW17156   9.666   9.187   1.850
 4290SOL     OW17157   4.207   6.658   7.199
 4290SOL    HW117158   4.206   6.652   7.103
 4290SOL    HW217159   4.123   6.698   7.221
 4290SOL     MW17160   4.195   6.663   7.189
 4291SOL     OW17161   2.615   0.032   1.596
 4291SOL    HW117162   2.683   0.062   1.657
 4291SOL    HW217163   2.654  -0.043   1.552
 4291SOL     MW17164   2.629   0.026   1.598
 4292SOL     OW17165  10.125   2.353   5.648
 4292SOL    HW117166  10.197   2.301   5.615
 4292SOL    HW217167  10.144   2.364   5.742
 4292SOL     MW17168  10.137   2.348   5.656
 4293SOL     OW17169   6.226   9.623   4.988
 4293SOL    HW117170   6.149   9.660   4.945
 4293SOL    HW217171   6.243   9.682   5.062
 4293SOL     MW17172   6.218   9.636   4.992
 4294SOL     OW17173   3.448   8.458   8.562
 4294SOL    HW117174   3.524   8.454   8.504
 4294SOL    HW217175   3.484   8.482   8.647
 4294SOL     MW17176   3.463   8.461   8.565
 4295SOL     OW17177   2.492   2.798   1.069
 4295SOL    HW117178   2.498   2.702   1.066
 4295SOL    HW217179   2.533   2.827   0.988
 4295SOL     MW17180   2.498   2.789   1.058
 4296SOL     OW17181   5.844   5.848   0.450
 4296SOL    HW117182   5.806   5.922   0.498
 4296SOL    HW217183   5.934   5.843   0.482
 4296SOL     MW17184   5.851   5.857   0.461
 4297SOL     OW17185   9.204   4.796   5.674
 4297SOL    HW117186   9.181   4.761   5.588
 4297SOL    HW217187   9.216   4.719   5.729
 4297SOL     MW17188   9.202   4.781   5.670
 4298SOL     OW17189   0.163   4.606   1.403
 4298SOL    HW117190   0.141   4.673   1.338
 4298SOL    HW217191   0.252   4.580   1.383
 4298SOL     MW17192   0.172   4.611   1.392
 4299SOL     OW17193   7.622   7.765   8.000
 4299SOL    HW117194   7.594   7.823   8.070
 4299SOL    HW217195   7.701   7.806   7.965
 4299SOL     MW17196   7.629   7.779   8.005
 4300SOL     OW17197   5.518  10.180   6.027
 4300SOL    HW117198   5.550  10.099   5.987
 4300SOL    HW217199   5.461  10.150   6.098
 4300SOL     MW17200   5.514  10.165   6.031
 4301SOL     OW17201   3.432   5.078   2.391
 4301SOL    HW117202   3.519   5.114   2.406
 4301SOL    HW217203   3.375   5.128   2.448
 4301SOL     MW17204   3.436   5.089   2.400
 4302SOL     OW17205   1.743   9.637   1.159
 4302SOL    HW117206   1.800   9.658   1.086
 4302SOL    HW217207   1.797   9.586   1.219
 4302SOL     MW17208   1.758   9.633   1.158
 4303SOL     OW17209   4.202   7.894   2.919
 4303SOL    HW117210   4.120   7.943   2.919
 4303SOL    HW217211   4.178   7.808   2.953
 4303SOL     MW17212   4.188   7.889   2.923
 4304SOL     OW17213   4.297   2.912   4.680
 4304SOL    HW117214   4.308   2.870   4.766
 4304SOL    HW217215   4.232   2.980   4.694
 4304SOL     MW17216   4.290   2.915   4.693
 4305SOL     OW17217   4.196   7.533   4.311
 4305SOL    HW117218   4.285   7.521   4.341
 4305SOL    HW217219   4.169   7.617   4.349
 4305SOL     MW17220   4.204   7.543   4.320
 4306SOL     OW17221   3.351   6.109   6.477
 4306SOL    HW117222   3.309   6.150   6.552
 4306SOL    HW217223   3.443   6.133   6.485
 4306SOL     MW17224   3.358   6.117   6.488
 4307SOL     OW17225   1.711   2.214   1.668
 4307SOL    HW117226   1.622   2.191   1.695
 4307SOL    HW217227   1.721   2.306   1.693
 4307SOL     MW17228   1.701   2.224   1.675
 4308SOL     OW17229   9.962  10.110   0.666
 4308SOL    HW117230   9.885  10.076   0.712
 4308SOL    HW217231   9.926  10.158   0.591
 4308SOL     MW17232   9.947  10.112   0.662
 4309SOL     OW17233   0.423   4.529   1.334
 4309SOL    HW117234   0.439   4.476   1.256
 4309SOL    HW217235   0.489   4.499   1.396
 4309SOL     MW17236   0.434   4.518   1.332
 4310SOL     OW17237   1.203   6.334   5.953
 4310SOL    HW117238   1.167   6.286   5.878
 4310SOL    HW217239   1.293   6.304   5.959
 4310SOL     MW17240   1.210   6.323   5.944
 4311SOL     OW17241   7.961   7.777   4.086
 4311SOL    HW117242   7.975   7.708   4.022
 4311SOL    HW217243   7.923   7.732   4.162
 4311SOL     MW17244   7.958   7.762   4.088
 4312SOL     OW17245   8.457   5.334   7.820
 4312SOL    HW117246   8.395   5.266   7.793
 4312SOL    HW217247   8.543   5.292   7.811
 4312SOL     MW17248   8.460   5.319   7.815
 4313SOL     OW17249  10.087   4.007   8.253
 4313SOL    HW117250  10.101   3.921   8.293
 4313SOL    HW217251  10.168   4.024   8.204
 4313SOL     MW17252  10.100   3.997   8.252
 4314SOL     OW17253   6.612   8.071   8.245
 4314SOL    HW117254   6.702   8.063   8.212
 4314SOL    HW217255   6.595   8.165   8.248
 4314SOL     MW17256   6.622   8.083   8.241
 4315SOL     OW17257   6.573   2.798   8.108
 4315SOL    HW117258   6.483   2.805   8.079
 4315SOL    HW217259   6.570   2.737   8.182
 4315SOL     MW17260   6.561   2.791   8.114
 4316SOL     OW17261   5.717   5.503   1.086
 4316SOL    HW117262   5.721   5.412   1.057
 4316SOL    HW217263   5.769   5.551   1.022
 4316SOL     MW17264   5.725   5.497   1.074
 4317SOL     OW17265   6.894   7.341   0.831
 4317SOL    HW117266   6.880   7.277   0.901
 4317SOL    HW217267   6.869   7.294   0.751
 4317SOL     MW17268   6.889   7.326   0.829
 4318SOL     OW17269   0.034   1.418   8.431
 4318SOL    HW117270   0.117   1.370   8.426
 4318SOL    HW217271   0.057   1.499   8.477
 4318SOL     MW17272   0.049   1.423   8.437
 4319SOL     OW17273   5.682   4.796   4.399
 4319SOL    HW117274   5.724   4.858   4.458
 4319SOL    HW217275   5.691   4.836   4.312
 4319SOL     MW17276   5.689   4.810   4.395
 4320SOL     OW17277   0.175   2.257   5.482
 4320SOL    HW117278   0.133   2.323   5.427
 4320SOL    HW217279   0.269   2.268   5.466
 4320SOL     MW17280   0.182   2.267   5.472
 4321SOL     OW17281   4.660   5.255   2.199
 4321SOL    HW117282   4.625   5.319   2.261
 4321SOL    HW217283   4.739   5.295   2.165
 4321SOL     MW17284   4.666   5.269   2.203
 4322SOL     OW17285   4.267   2.486   5.519
 4322SOL    HW117286   4.300   2.399   5.541
 4322SOL    HW217287   4.311   2.545   5.580
 4322SOL     MW17288   4.278   2.482   5.530
 4323SOL     OW17289   2.288   1.123   3.539
 4323SOL    HW117290   2.358   1.067   3.506
 4323SOL    HW217291   2.286   1.198   3.480
 4323SOL     MW17292   2.297   1.126   3.526
 4324SOL     OW17293   2.056   2.769  10.107
 4324SOL    HW117294   2.146   2.746  10.132
 4324SOL    HW217295   2.047   2.736  10.018
 4324SOL     MW17296   2.067   2.761  10.099
 4325SOL     OW17297   1.695   7.032   8.781
 4325SOL    HW117298   1.783   7.001   8.800
 4325SOL    HW217299   1.696   7.054   8.688
 4325SOL     MW17300   1.707   7.031   8.771
 4326SOL     OW17301   3.422   9.627   6.649
 4326SOL    HW117302   3.399   9.697   6.710
 4326SOL    HW217303   3.366   9.554   6.675
 4326SOL     MW17304   3.412   9.626   6.661
 4327SOL     OW17305   8.962   0.282   6.186
 4327SOL    HW117306   8.937   0.272   6.278
 4327SOL    HW217307   9.045   0.329   6.189
 4327SOL     MW17308   8.970   0.287   6.199
 4328SOL     OW17309   8.807   8.893   8.009
 4328SOL    HW117310   8.795   8.852   7.924
 4328SOL    HW217311   8.850   8.976   7.990
 4328SOL     MW17312   8.811   8.899   7.995
 4329SOL     OW17313   6.183   2.024   3.856
 4329SOL    HW117314   6.194   2.053   3.947
 4329SOL    HW217315   6.270   2.031   3.818
 4329SOL     MW17316   6.196   2.029   3.863
 4330SOL     OW17317   2.766   8.223   1.567
 4330SOL    HW117318   2.789   8.188   1.481
 4330SOL    HW217319   2.837   8.285   1.587
 4330SOL     MW17320   2.779   8.227   1.558
 4331SOL     OW17321   2.098   4.714   9.297
 4331SOL    HW117322   2.150   4.764   9.360
 4331SOL    HW217323   2.013   4.704   9.338
 4331SOL     MW17324   2.094   4.719   9.311
 4332SOL     OW17325   1.464   8.636   7.524
 4332SOL    HW117326   1.501   8.548   7.511
 4332SOL    HW217327   1.509   8.670   7.601
 4332SOL     MW17328   1.475   8.629   7.532
 4333SOL     OW17329   6.083   1.292   3.182
 4333SOL    HW117330   6.135   1.254   3.253
 4333SOL    HW217331   6.029   1.359   3.225
 4333SOL     MW17332   6.083   1.296   3.198
 4334SOL     OW17333   9.472   2.391   4.307
 4334SOL    HW117334   9.533   2.424   4.374
 4334SOL    HW217335   9.513   2.416   4.224
 4334SOL     MW17336   9.486   2.399   4.305
 4335SOL     OW17337   5.064   6.499   3.958
 4335SOL    HW117338   5.117   6.560   3.906
 4335SOL    HW217339   4.973   6.526   3.942
 4335SOL     MW17340   5.059   6.511   3.949
 4336SOL     OW17341   5.456   2.223   5.591
 4336SOL    HW117342   5.445   2.314   5.566
 4336SOL    HW217343   5.549   2.213   5.610
 4336SOL     MW17344   5.467   2.234   5.590
 4337SOL     OW17345   5.905   8.978   5.000
 4337SOL    HW117346   5.995   8.953   4.978
 4337SOL    HW217347   5.866   8.899   5.036
 4337SOL     MW17348   5.912   8.964   5.002
 4338SOL     OW17349   3.165   8.557   4.976
 4338SOL    HW117350   3.178   8.542   4.883
 4338SOL    HW217351   3.236   8.508   5.018
 4338SOL     MW17352   3.176   8.548   4.969
 4339SOL     OW17353   5.247   1.910   6.047
 4339SOL    HW117354   5.210   1.840   5.993
 4339SOL    HW217355   5.230   1.881   6.137
 4339SOL     MW17356   5.239   1.897   6.052
 4340SOL     OW17357   7.700   7.269   4.590
 4340SOL    HW117358   7.744   7.267   4.675
 4340SOL    HW217359   7.735   7.193   4.543
 4340SOL     MW17360   7.711   7.259   4.595
 4341SOL     OW17361  10.141   3.764   8.879
 4341SOL    HW117362  10.221   3.718   8.905
 4341SOL    HW217363  10.070   3.705   8.906
 4341SOL     MW17364  10.142   3.750   8.886
 4342SOL     OW17365   4.548   5.697   0.334
 4342SOL    HW117366   4.487   5.713   0.262
 4342SOL    HW217367   4.492   5.661   0.404
 4342SOL     MW17368   4.532   5.694   0.334
 4343SOL     OW17369   4.360   5.125   4.966
 4343SOL    HW117370   4.423   5.193   4.988
 4343SOL    HW217371   4.398   5.081   4.889
 4343SOL     MW17372   4.374   5.128   4.959
 4344SOL     OW17373   2.507   8.245   1.662
 4344SOL    HW117374   2.461   8.181   1.607
 4344SOL    HW217375   2.598   8.240   1.633
 4344SOL     MW17376   2.513   8.236   1.651
 4345SOL     OW17377   0.750   8.605   9.281
 4345SOL    HW117378   0.750   8.638   9.191
 4345SOL    HW217379   0.771   8.682   9.335
 4345SOL     MW17380   0.753   8.620   9.276
 4346SOL     OW17381   0.586   2.567   2.405
 4346SOL    HW117382   0.612   2.574   2.497
 4346SOL    HW217383   0.667   2.547   2.358
 4346SOL     MW17384   0.600   2.565   2.411
 4347SOL     OW17385   0.825   3.320   1.063
 4347SOL    HW117386   0.752   3.273   1.104
 4347SOL    HW217387   0.879   3.251   1.023
 4347SOL     MW17388   0.822   3.304   1.063
 4348SOL     OW17389   7.757   5.058   9.165
 4348SOL    HW117390   7.816   5.127   9.194
 4348SOL    HW217391   7.683   5.104   9.125
 4348SOL     MW17392   7.755   5.074   9.163
 4349SOL     OW17393   8.551   7.892   9.812
 4349SOL    HW117394   8.644   7.912   9.813
 4349SOL    HW217395   8.535   7.851   9.727
 4349SOL     MW17396   8.561   7.889   9.801
 4350SOL     OW17397  10.111   4.496   1.555
 4350SOL    HW117398  10.184   4.527   1.502
 4350SOL    HW217399  10.083   4.573   1.605
 4350SOL     MW17400  10.117   4.510   1.555
 4351SOL     OW17401   7.697   5.873   1.721
 4351SOL    HW117402   7.612   5.917   1.715
 4351SOL    HW217403   7.695   5.829   1.806
 4351SOL     MW17404   7.685   5.873   1.732
 4352SOL     OW17405   1.025   4.295   9.936
 4352SOL    HW117406   0.991   4.370   9.886
 4352SOL    HW217407   0.961   4.225   9.921
 4352SOL     MW17408   1.011   4.296   9.927
 4353SOL     OW17409   2.474   2.185   4.997
 4353SOL    HW117410   2.387   2.147   4.994
 4353SOL    HW217411   2.460   2.276   5.021
 4353SOL     MW17412   2.461   2.192   5.000
 4354SOL     OW17413   0.987   4.960   0.620
 4354SOL    HW117414   1.002   4.878   0.668
 4354SOL    HW217415   0.907   4.996   0.659
 4354SOL     MW17416   0.978   4.954   0.632
 4355SOL     OW17417   8.670   1.120  10.048
 4355SOL    HW117418   8.636   1.205  10.078
 4355SOL    HW217419   8.765   1.130  10.052
 4355SOL     MW17420   8.679   1.133  10.053
 4356SOL     OW17421   5.218  10.134   7.452
 4356SOL    HW117422   5.140  10.107   7.404
 4356SOL    HW217423   5.257  10.051   7.482
 4356SOL     MW17424   5.213  10.119   7.450
 4357SOL     OW17425   6.476   3.472   1.395
 4357SOL    HW117426   6.557   3.474   1.344
 4357SOL    HW217427   6.436   3.388   1.373
 4357SOL     MW17428   6.482   3.461   1.385
 4358SOL     OW17429   4.743   0.547   1.789
 4358SOL    HW117430   4.816   0.592   1.832
 4358SOL    HW217431   4.730   0.467   1.840
 4358SOL     MW17432   4.751   0.542   1.801
 4359SOL     OW17433   4.650   4.759   0.328
 4359SOL    HW117434   4.571   4.714   0.297
 4359SOL    HW217435   4.623   4.850   0.337
 4359SOL     MW17436   4.636   4.765   0.325
 4360SOL     OW17437   2.537   9.898   7.019
 4360SOL    HW117438   2.550   9.987   7.052
 4360SOL    HW217439   2.617   9.852   7.041
 4360SOL     MW17440   2.549   9.904   7.026
 4361SOL     OW17441   9.939   3.330   2.446
 4361SOL    HW117442   9.989   3.352   2.367
 4361SOL    HW217443   9.952   3.405   2.504
 4361SOL     MW17444   9.948   3.343   2.443
 4362SOL     OW17445   7.462   8.624   9.662
 4362SOL    HW117446   7.525   8.597   9.729
 4362SOL    HW217447   7.385   8.652   9.711
 4362SOL     MW17448   7.460   8.624   9.677
 4363SOL     OW17449   6.594   5.060   0.494
 4363SOL    HW117450   6.579   4.978   0.541
 4363SOL    HW217451   6.665   5.102   0.541
 4363SOL     MW17452   6.601   5.054   0.506
 4364SOL     OW17453   4.692   0.285   6.902
 4364SOL    HW117454   4.673   0.293   6.996
 4364SOL    HW217455   4.705   0.191   6.889
 4364SOL     MW17456   4.691   0.273   6.913
 4365SOL     OW17457   3.370  10.009   6.193
 4365SOL    HW117458   3.432  10.081   6.177
 4365SOL    HW217459   3.303  10.021   6.125
 4365SOL     MW17460   3.369  10.021   6.181
 4366SOL     OW17461   4.702   6.472   9.698
 4366SOL    HW117462   4.711   6.380   9.722
 4366SOL    HW217463   4.780   6.514   9.734
 4366SOL     MW17464   4.714   6.465   9.706
 4367SOL     OW17465   6.110   9.387   9.776
 4367SOL    HW117466   6.159   9.426   9.849
 4367SOL    HW217467   6.061   9.461   9.739
 4367SOL     MW17468   6.110   9.402   9.781
 4368SOL     OW17469   1.847   3.207   7.500
 4368SOL    HW117470   1.917   3.249   7.449
 4368SOL    HW217471   1.886   3.194   7.587
 4368SOL     MW17472   1.862   3.211   7.505
 4369SOL     OW17473   2.282   0.749   2.459
 4369SOL    HW117474   2.236   0.679   2.506
 4369SOL    HW217475   2.216   0.818   2.449
 4369SOL     MW17476   2.267   0.749   2.464
 4370SOL     OW17477   4.887   2.099   2.514
 4370SOL    HW117478   4.804   2.140   2.492
 4370SOL    HW217479   4.925   2.155   2.581
 4370SOL     MW17480   4.881   2.112   2.520
 4371SOL     OW17481   0.251   6.216   0.896
 4371SOL    HW117482   0.196   6.199   0.820
 4371SOL    HW217483   0.237   6.142   0.954
 4371SOL     MW17484   0.242   6.204   0.893
 4372SOL     OW17485   5.123   7.132   4.554
 4372SOL    HW117486   5.142   7.169   4.640
 4372SOL    HW217487   5.068   7.198   4.511
 4372SOL     MW17488   5.118   7.146   4.560
 4373SOL     OW17489   0.129   2.187   8.589
 4373SOL    HW117490   0.119   2.118   8.655
 4373SOL    HW217491   0.059   2.170   8.526
 4373SOL     MW17492   0.118   2.175   8.590
 4374SOL     OW17493   9.534   8.303   0.061
 4374SOL    HW117494   9.535   8.367   0.131
 4374SOL    HW217495   9.551   8.219   0.105
 4374SOL     MW17496   9.536   8.300   0.076
 4375SOL     OW17497   4.652   7.425   0.144
 4375SOL    HW117498   4.578   7.417   0.084
 4375SOL    HW217499   4.624   7.378   0.223
 4375SOL     MW17500   4.638   7.418   0.147
 4376SOL     OW17501   6.371   9.546   3.905
 4376SOL    HW117502   6.420   9.473   3.944
 4376SOL    HW217503   6.305   9.568   3.971
 4376SOL     MW17504   6.369   9.539   3.919
 4377SOL     OW17505   1.259   1.022   4.443
 4377SOL    HW117506   1.204   1.022   4.365
 4377SOL    HW217507   1.198   1.007   4.515
 4377SOL     MW17508   1.243   1.020   4.442
 4378SOL     OW17509   9.087   6.826   5.295
 4378SOL    HW117510   9.122   6.870   5.218
 4378SOL    HW217511   9.152   6.842   5.363
 4378SOL     MW17512   9.100   6.834   5.294
 4379SOL     OW17513   9.118   8.304   9.891
 4379SOL    HW117514   9.175   8.341   9.958
 4379SOL    HW217515   9.057   8.248   9.940
 4379SOL     MW17516   9.118   8.301   9.907
 4380SOL     OW17517   4.303   3.194   0.202
 4380SOL    HW117518   4.361   3.155   0.137
 4380SOL    HW217519   4.215   3.186   0.164
 4380SOL     MW17520   4.299   3.188   0.188
 4381SOL     OW17521   6.519   7.089   0.660
 4381SOL    HW117522   6.485   7.174   0.687
 4381SOL    HW217523   6.614   7.102   0.654
 4381SOL     MW17524   6.527   7.102   0.663
 4382SOL     OW17525   4.580   6.995   0.262
 4382SOL    HW117526   4.655   6.973   0.206
 4382SOL    HW217527   4.603   7.080   0.300
 4382SOL     MW17528   4.593   7.004   0.259
 4383SOL     OW17529   4.795   6.956   0.093
 4383SOL    HW117530   4.797   7.017   0.020
 4383SOL    HW217531   4.887   6.929   0.105
 4383SOL     MW17532   4.808   6.961   0.085
 4384SOL     OW17533   9.570   2.479   0.238
 4384SOL    HW117534   9.633   2.475   0.166
 4384SOL    HW217535   9.502   2.417   0.214
 4384SOL     MW17536   9.569   2.470   0.225
 4385SOL     OW17537   5.223   1.140   4.728
 4385SOL    HW117538   5.274   1.060   4.741
 4385SOL    HW217539   5.174   1.150   4.809
 4385SOL     MW17540   5.223   1.130   4.741
 4386SOL     OW17541   2.666   5.836   8.176
 4386SOL    HW117542   2.605   5.898   8.216
 4386SOL    HW217543   2.657   5.849   8.082
 4386SOL     MW17544   2.657   5.846   8.169
 4387SOL     OW17545   0.780   5.336   0.780
 4387SOL    HW117546   0.744   5.352   0.867
 4387SOL    HW217547   0.769   5.242   0.767
 4387SOL     MW17548   0.773   5.325   0.790
 4388SOL     OW17549   3.315   3.301   6.215
 4388SOL    HW117550   3.263   3.275   6.291
 4388SOL    HW217551   3.300   3.395   6.207
 4388SOL     MW17552   3.306   3.310   6.224
 4389SOL     OW17553   3.518   2.489   4.664
 4389SOL    HW117554   3.476   2.429   4.726
 4389SOL    HW217555   3.596   2.520   4.710
 4389SOL     MW17556   3.523   2.485   4.679
 4390SOL     OW17557   4.457   9.959   2.749
 4390SOL    HW117558   4.453  10.055   2.756
 4390SOL    HW217559   4.548   9.941   2.727
 4390SOL     MW17560   4.469   9.970   2.747
 4391SOL     OW17561   7.063   4.298   7.889
 4391SOL    HW117562   6.972   4.309   7.919
 4391SOL    HW217563   7.060   4.221   7.832
 4391SOL     MW17564   7.050   4.289   7.885
 4392SOL     OW17565   2.598   7.048   1.268
 4392SOL    HW117566   2.683   7.051   1.225
 4392SOL    HW217567   2.552   6.974   1.226
 4392SOL     MW17568   2.603   7.039   1.256
 4393SOL     OW17569   6.347   7.584   4.552
 4393SOL    HW117570   6.395   7.642   4.611
 4393SOL    HW217571   6.411   7.558   4.486
 4393SOL     MW17572   6.362   7.588   4.551
 4394SOL     OW17573   9.258   1.208   4.659
 4394SOL    HW117574   9.207   1.137   4.697
 4394SOL    HW217575   9.317   1.165   4.597
 4394SOL     MW17576   9.259   1.193   4.655
 4395SOL     OW17577   2.143   0.406   5.796
 4395SOL    HW117578   2.229   0.387   5.832
 4395SOL    HW217579   2.100   0.460   5.863
 4395SOL     MW17580   2.149   0.411   5.810
 4396SOL     OW17581   1.077   0.997   4.657
 4396SOL    HW117582   1.040   1.080   4.689
 4396SOL    HW217583   1.008   0.933   4.672
 4396SOL     MW17584   1.063   1.000   4.663
 4397SOL     OW17585   5.759   0.329   3.258
 4397SOL    HW117586   5.766   0.335   3.163
 4397SOL    HW217587   5.849   0.326   3.289
 4397SOL     MW17588   5.772   0.329   3.249
 4398SOL     OW17589   6.596   2.620   8.753
 4398SOL    HW117590   6.512   2.574   8.758
 4398SOL    HW217591   6.642   2.595   8.833
 4398SOL     MW17592   6.591   2.610   8.765
 4399SOL     OW17593   9.315   0.252   1.359
 4399SOL    HW117594   9.236   0.255   1.305
 4399SOL    HW217595   9.385   0.284   1.302
 4399SOL     MW17596   9.314   0.256   1.344
 4400SOL     OW17597   6.647   7.527   2.210
 4400SOL    HW117598   6.690   7.525   2.296
 4400SOL    HW217599   6.576   7.590   2.220
 4400SOL     MW17600   6.643   7.535   2.223
 4401SOL     OW17601   8.151   1.924   9.455
 4401SOL    HW117602   8.063   1.893   9.474
 4401SOL    HW217603   8.138   2.012   9.420
 4401SOL     MW17604   8.138   1.932   9.453
 4402SOL     OW17605   8.635   9.303   3.331
 4402SOL    HW117606   8.693   9.328   3.259
 4402SOL    HW217607   8.624   9.384   3.382
 4402SOL     MW17608   8.642   9.317   3.328
 4403SOL     OW17609   8.340   0.946   8.998
 4403SOL    HW117610   8.262   0.893   8.988
 4403SOL    HW217611   8.313   1.018   9.056
 4403SOL     MW17612   8.326   0.949   9.004
 4404SOL     OW17613   2.493   8.782   1.354
 4404SOL    HW117614   2.564   8.806   1.414
 4404SOL    HW217615   2.429   8.738   1.410
 4404SOL     MW17616   2.494   8.779   1.370
 4405SOL     OW17617   6.993   7.195   7.513
 4405SOL    HW117618   6.932   7.157   7.450
 4405SOL    HW217619   7.076   7.150   7.495
 4405SOL     MW17620   6.996   7.184   7.502
 4406SOL     OW17621   8.609   9.951   1.191
 4406SOL    HW117622   8.573   9.944   1.279
 4406SOL    HW217623   8.536   9.926   1.134
 4406SOL     MW17624   8.594   9.947   1.195
 4407SOL     OW17625   2.411   6.695   1.400
 4407SOL    HW117626   2.321   6.663   1.389
 4407SOL    HW217627   2.429   6.744   1.320
 4407SOL     MW17628   2.401   6.698   1.388
 4408SOL     OW17629   8.638   2.959   7.827
 4408SOL    HW117630   8.566   2.955   7.764
 4408SOL    HW217631   8.682   3.042   7.807
 4408SOL     MW17632   8.634   2.969   7.816
 4409SOL     OW17633   4.694   0.258   7.432
 4409SOL    HW117634   4.698   0.354   7.434
 4409SOL    HW217635   4.735   0.231   7.514
 4409SOL     MW17636   4.700   0.267   7.444
 4410SOL     OW17637   2.974   8.382   5.899
 4410SOL    HW117638   2.982   8.411   5.808
 4410SOL    HW217639   2.883   8.353   5.906
 4410SOL     MW17640   2.963   8.382   5.887
 4411SOL     OW17641   2.457   6.852   1.631
 4411SOL    HW117642   2.443   6.798   1.552
 4411SOL    HW217643   2.512   6.924   1.601
 4411SOL     MW17644   2.462   6.854   1.616
 4412SOL     OW17645   0.269   1.258   6.911
 4412SOL    HW117646   0.236   1.327   6.853
 4412SOL    HW217647   0.257   1.177   6.861
 4412SOL     MW17648   0.263   1.256   6.896
 4413SOL     OW17649   7.685   4.465   7.540
 4413SOL    HW117650   7.599   4.438   7.570
 4413SOL    HW217651   7.737   4.472   7.620
 4413SOL     MW17652   7.681   4.462   7.554
 4414SOL     OW17653   6.175   0.847   2.024
 4414SOL    HW117654   6.196   0.767   1.976
 4414SOL    HW217655   6.227   0.842   2.103
 4414SOL     MW17656   6.185   0.835   2.028
 4415SOL     OW17657   7.004   2.507   2.499
 4415SOL    HW117658   7.026   2.583   2.553
 4415SOL    HW217659   6.992   2.543   2.411
 4415SOL     MW17660   7.005   2.522   2.494
 4416SOL     OW17661   9.744   6.092   4.490
 4416SOL    HW117662   9.683   6.162   4.511
 4416SOL    HW217663   9.690   6.013   4.486
 4416SOL     MW17664   9.729   6.090   4.493
 4417SOL     OW17665   1.804   8.441   8.090
 4417SOL    HW117666   1.833   8.352   8.112
 4417SOL    HW217667   1.883   8.494   8.097
 4417SOL     MW17668   1.819   8.436   8.094
 4418SOL     OW17669   7.198   9.932   1.261
 4418SOL    HW117670   7.238  10.008   1.217
 4418SOL    HW217671   7.113   9.922   1.219
 4418SOL     MW17672   7.192   9.941   1.249
 4419SOL     OW17673   0.742   4.952   9.332
 4419SOL    HW117674   0.735   4.990   9.245
 4419SOL    HW217675   0.795   4.874   9.320
 4419SOL     MW17676   0.748   4.947   9.319
 4420SOL     OW17677   1.029   3.958   1.341
 4420SOL    HW117678   1.057   3.873   1.307
 4420SOL    HW217679   0.934   3.954   1.343
 4420SOL     MW17680   1.020   3.946   1.337
 4421SOL     OW17681   1.124   6.204   5.723
 4421SOL    HW117682   1.098   6.246   5.640
 4421SOL    HW217683   1.096   6.113   5.713
 4421SOL     MW17684   1.116   6.198   5.710
 4422SOL     OW17685   8.041   3.519   5.013
 4422SOL    HW117686   8.114   3.512   4.951
 4422SOL    HW217687   8.006   3.431   5.018
 4422SOL     MW17688   8.046   3.506   5.005
 4423SOL     OW17689   2.288   0.773   0.471
 4423SOL    HW117690   2.373   0.816   0.463
 4423SOL    HW217691   2.262   0.752   0.382
 4423SOL     MW17692   2.296   0.776   0.458
 4424SOL     OW17693   6.375   9.493   6.974
 4424SOL    HW117694   6.296   9.453   7.008
 4424SOL    HW217695   6.348   9.581   6.948
 4424SOL     MW17696   6.361   9.499   6.975
 4425SOL     OW17697   4.380   5.394   6.723
 4425SOL    HW117698   4.331   5.431   6.797
 4425SOL    HW217699   4.348   5.442   6.646
 4425SOL     MW17700   4.369   5.406   6.723
 4426SOL     OW17701   6.187   3.015   5.777
 4426SOL    HW117702   6.244   3.045   5.848
 4426SOL    HW217703   6.233   3.042   5.697
 4426SOL     MW17704   6.201   3.023   5.776
 4427SOL     OW17705   7.097   0.460   0.129
 4427SOL    HW117706   7.083   0.404   0.052
 4427SOL    HW217707   7.177   0.508   0.110
 4427SOL     MW17708   7.106   0.459   0.116
 4428SOL     OW17709   0.306   3.127   2.083
 4428SOL    HW117710   0.317   3.164   2.171
 4428SOL    HW217711   0.383   3.158   2.034
 4428SOL     MW17712   0.318   3.136   2.088
 4429SOL     OW17713   9.512   8.886   9.944
 4429SOL    HW117714   9.535   8.855   9.857
 4429SOL    HW217715   9.596   8.900   9.988
 4429SOL     MW17716   9.526   8.884   9.938
 4430SOL     OW17717   6.602   5.792   7.130
 4430SOL    HW117718   6.684   5.822   7.091
 4430SOL    HW217719   6.604   5.826   7.219
 4430SOL     MW17720   6.613   5.800   7.137
 4431SOL     OW17721   0.084   6.404  10.102
 4431SOL    HW117722   0.026   6.394  10.026
 4431SOL    HW217723   0.143   6.330  10.098
 4431SOL     MW17724   0.084   6.393  10.091
 4432SOL     OW17725   7.114   8.365   6.325
 4432SOL    HW117726   7.131   8.434   6.261
 4432SOL    HW217727   7.200   8.336   6.353
 4432SOL     MW17728   7.128   8.370   6.320
 4433SOL     OW17729   4.940   8.399   6.535
 4433SOL    HW117730   4.862   8.453   6.519
 4433SOL    HW217731   4.961   8.362   6.449
 4433SOL     MW17732   4.932   8.401   6.521
 4434SOL     OW17733   0.437   1.843   2.368
 4434SOL    HW117734   0.529   1.840   2.395
 4434SOL    HW217735   0.397   1.908   2.426
 4434SOL     MW17736   0.444   1.852   2.379
 4435SOL     OW17737   3.126   8.783   5.266
 4435SOL    HW117738   3.186   8.857   5.257
 4435SOL    HW217739   3.113   8.751   5.177
 4435SOL     MW17740   3.132   8.789   5.253
 4436SOL     OW17741   9.241   8.073   1.832
 4436SOL    HW117742   9.171   8.106   1.887
 4436SOL    HW217743   9.197   8.019   1.766
 4436SOL     MW17744   9.226   8.070   1.830
 4437SOL     OW17745   1.073   2.470   4.817
 4437SOL    HW117746   1.040   2.469   4.907
 4437SOL    HW217747   1.077   2.377   4.792
 4437SOL     MW17748   1.069   2.457   4.826
 4438SOL     OW17749   9.992   6.103   9.211
 4438SOL    HW117750   9.923   6.081   9.274
 4438SOL    HW217751   9.964   6.061   9.130
 4438SOL     MW17752   9.979   6.094   9.209
 4439SOL     OW17753   6.670   8.346   8.220
 4439SOL    HW117754   6.742   8.293   8.186
 4439SOL    HW217755   6.707   8.391   8.296
 4439SOL     MW17756   6.685   8.345   8.226
 4440SOL     OW17757   4.088   7.703   4.522
 4440SOL    HW117758   4.038   7.621   4.526
 4440SOL    HW217759   4.053   7.756   4.594
 4440SOL     MW17760   4.076   7.699   4.532
 4441SOL     OW17761   6.117   3.420   6.653
 4441SOL    HW117762   6.120   3.326   6.670
 4441SOL    HW217763   6.148   3.429   6.563
 4441SOL     MW17764   6.121   3.409   6.643
 4442SOL     OW17765   8.227   8.275   1.304
 4442SOL    HW117766   8.280   8.267   1.383
 4442SOL    HW217767   8.277   8.335   1.249
 4442SOL     MW17768   8.241   8.282   1.307
 4443SOL     OW17769   8.178   6.847   5.219
 4443SOL    HW117770   8.172   6.845   5.124
 4443SOL    HW217771   8.236   6.921   5.238
 4443SOL     MW17772   8.185   6.857   5.209
 4444SOL     OW17773   5.464   3.849   1.475
 4444SOL    HW117774   5.455   3.754   1.469
 4444SOL    HW217775   5.555   3.862   1.501
 4444SOL     MW17776   5.475   3.838   1.478
 4445SOL     OW17777   0.665   9.566   5.618
 4445SOL    HW117778   0.728   9.531   5.555
 4445SOL    HW217779   0.603   9.495   5.632
 4445SOL     MW17780   0.665   9.552   5.611
 4446SOL     OW17781   4.420   4.062   7.462
 4446SOL    HW117782   4.471   3.986   7.434
 4446SOL    HW217783   4.412   4.115   7.383
 4446SOL     MW17784   4.426   4.059   7.447
 4447SOL     OW17785   9.767   5.048   6.760
 4447SOL    HW117786   9.688   5.018   6.714
 4447SOL    HW217787   9.739   5.060   6.851
 4447SOL     MW17788   9.752   5.046   6.766
 4448SOL     OW17789   9.973   9.981   3.763
 4448SOL    HW117790  10.019  10.058   3.731
 4448SOL    HW217791  10.029   9.907   3.738
 4448SOL     MW17792   9.987   9.981   3.755
 4449SOL     OW17793   2.376   0.166   1.545
 4449SOL    HW117794   2.456   0.115   1.558
 4449SOL    HW217795   2.389   0.245   1.599
 4449SOL     MW17796   2.388   0.170   1.554
 4450SOL     OW17797   7.045   1.957   9.927
 4450SOL    HW117798   7.093   1.888   9.880
 4450SOL    HW217799   7.030   1.920  10.014
 4450SOL     MW17800   7.050   1.942   9.933
 4451SOL     OW17801   2.957   4.926   8.567
 4451SOL    HW117802   2.933   4.914   8.659
 4451SOL    HW217803   3.012   5.004   8.567
 4451SOL     MW17804   2.961   4.935   8.580
 4452SOL     OW17805   4.289   0.333   2.623
 4452SOL    HW117806   4.204   0.377   2.619
 4452SOL    HW217807   4.343   0.379   2.558
 4452SOL     MW17808   4.285   0.345   2.613
 4453SOL     OW17809   0.080   5.081   4.055
 4453SOL    HW117810  -0.001   5.116   4.093
 4453SOL    HW217811   0.116   5.025   4.124
 4453SOL     MW17812   0.074   5.078   4.070
 4454SOL     OW17813   3.972   7.442   5.114
 4454SOL    HW117814   3.975   7.505   5.042
 4454SOL    HW217815   4.057   7.454   5.159
 4454SOL     MW17816   3.984   7.452   5.111
 4455SOL     OW17817   8.690   6.540   3.334
 4455SOL    HW117818   8.777   6.501   3.326
 4455SOL    HW217819   8.644   6.515   3.253
 4455SOL     MW17820   8.695   6.531   3.322
 4456SOL     OW17821   3.253   6.236   0.390
 4456SOL    HW117822   3.280   6.186   0.467
 4456SOL    HW217823   3.333   6.249   0.340
 4456SOL     MW17824   3.267   6.231   0.393
 4457SOL     OW17825   5.742   6.479   6.800
 4457SOL    HW117826   5.834   6.480   6.824
 4457SOL    HW217827   5.739   6.518   6.713
 4457SOL     MW17828   5.754   6.484   6.791
 4458SOL     OW17829   5.811   0.958   7.689
 4458SOL    HW117830   5.843   0.953   7.599
 4458SOL    HW217831   5.855   0.887   7.734
 4458SOL     MW17832   5.821   0.948   7.683
 4459SOL     OW17833   1.005   1.874   1.879
 4459SOL    HW117834   0.975   1.855   1.790
 4459SOL    HW217835   0.970   1.962   1.897
 4459SOL     MW17836   0.996   1.884   1.869
 4460SOL     OW17837   1.245   1.589   6.024
 4460SOL    HW117838   1.293   1.571   6.105
 4460SOL    HW217839   1.163   1.542   6.034
 4460SOL     MW17840   1.240   1.580   6.037
 4461SOL     OW17841   3.954   6.292   1.208
 4461SOL    HW117842   3.928   6.299   1.300
 4461SOL    HW217843   3.886   6.338   1.160
 4461SOL     MW17844   3.941   6.299   1.214
 4462SOL     OW17845   9.232   3.024   6.977
 4462SOL    HW117846   9.172   3.096   6.956
 4462SOL    HW217847   9.296   3.062   7.036
 4462SOL     MW17848   9.232   3.039   6.982
 4463SOL     OW17849   2.739   1.999   8.796
 4463SOL    HW117850   2.785   2.060   8.853
 4463SOL    HW217851   2.694   1.939   8.856
 4463SOL     MW17852   2.739   1.999   8.811
 4464SOL     OW17853   6.949   7.016   7.957
 4464SOL    HW117854   6.913   7.039   7.871
 4464SOL    HW217855   6.890   6.947   7.989
 4464SOL     MW17856   6.936   7.010   7.950
 4465SOL     OW17857   7.574   9.447   9.274
 4465SOL    HW117858   7.549   9.436   9.183
 4465SOL    HW217859   7.512   9.510   9.309
 4465SOL     MW17860   7.562   9.454   9.267
 4466SOL     OW17861   5.551   6.303   8.655
 4466SOL    HW117862   5.647   6.306   8.653
 4466SOL    HW217863   5.526   6.301   8.562
 4466SOL     MW17864   5.561   6.303   8.642
 4467SOL     OW17865   0.107   4.850   4.748
 4467SOL    HW117866   0.198   4.879   4.756
 4467SOL    HW217867   0.097   4.826   4.656
 4467SOL     MW17868   0.118   4.851   4.736
 4468SOL     OW17869   6.634   1.267   8.556
 4468SOL    HW117870   6.558   1.326   8.558
 4468SOL    HW217871   6.659   1.258   8.648
 4468SOL     MW17872   6.627   1.274   8.569
 4469SOL     OW17873   8.164   1.177   2.214
 4469SOL    HW117874   8.099   1.237   2.249
 4469SOL    HW217875   8.226   1.163   2.286
 4469SOL     MW17876   8.164   1.183   2.228
 4470SOL     OW17877   4.888   7.579   0.903
 4470SOL    HW117878   4.814   7.518   0.909
 4470SOL    HW217879   4.872   7.627   0.822
 4470SOL     MW17880   4.876   7.577   0.893
 4471SOL     OW17881   3.842   4.143   2.339
 4471SOL    HW117882   3.748   4.131   2.349
 4471SOL    HW217883   3.859   4.127   2.246
 4471SOL     MW17884   3.832   4.139   2.328
 4472SOL     OW17885   3.021   6.241   3.348
 4472SOL    HW117886   3.067   6.157   3.342
 4472SOL    HW217887   2.934   6.218   3.381
 4472SOL     MW17888   3.016   6.227   3.351
 4473SOL     OW17889   1.701   8.142   9.820
 4473SOL    HW117890   1.624   8.106   9.776
 4473SOL    HW217891   1.682   8.133   9.913
 4473SOL     MW17892   1.688   8.136   9.827
 4474SOL     OW17893   5.551   0.686   1.904
 4474SOL    HW117894   5.616   0.754   1.893
 4474SOL    HW217895   5.472   0.732   1.933
 4474SOL     MW17896   5.549   0.701   1.906
 4475SOL     OW17897   1.217   3.000   3.300
 4475SOL    HW117898   1.145   3.058   3.323
 4475SOL    HW217899   1.277   3.056   3.250
 4475SOL     MW17900   1.215   3.015   3.296
 4476SOL     OW17901   1.403   3.531   2.719
 4476SOL    HW117902   1.409   3.465   2.651
 4476SOL    HW217903   1.486   3.579   2.713
 4476SOL     MW17904   1.415   3.529   2.709
 4477SOL     OW17905   1.670   3.305   6.221
 4477SOL    HW117906   1.648   3.216   6.192
 4477SOL    HW217907   1.750   3.327   6.174
 4477SOL     MW17908   1.678   3.296   6.211
 4478SOL     OW17909   8.584   7.931   8.995
 4478SOL    HW117910   8.497   7.934   9.035
 4478SOL    HW217911   8.568   7.948   8.902
 4478SOL     MW17912   8.570   7.934   8.988
 4479SOL     OW17913   1.170   9.064   3.211
 4479SOL    HW117914   1.153   9.144   3.260
 4479SOL    HW217915   1.115   8.998   3.253
 4479SOL     MW17916   1.160   9.066   3.223
 4480SOL     OW17917   1.943   1.553   6.323
 4480SOL    HW117918   1.849   1.561   6.308
 4480SOL    HW217919   1.965   1.627   6.380
 4480SOL     MW17920   1.933   1.564   6.329
 4481SOL     OW17921   1.269   1.989   4.107
 4481SOL    HW117922   1.257   1.899   4.136
 4481SOL    HW217923   1.360   1.992   4.075
 4481SOL     MW17924   1.280   1.978   4.107
 4482SOL     OW17925   1.629   7.386   9.411
 4482SOL    HW117926   1.623   7.339   9.494
 4482SOL    HW217927   1.719   7.417   9.408
 4482SOL     MW17928   1.640   7.383   9.422
 4483SOL     OW17929   6.811   7.560   2.432
 4483SOL    HW117930   6.873   7.549   2.504
 4483SOL    HW217931   6.861   7.605   2.364
 4483SOL     MW17932   6.826   7.565   2.433
 4484SOL     OW17933   8.878   1.670   7.238
 4484SOL    HW117934   8.946   1.629   7.184
 4484SOL    HW217935   8.911   1.759   7.254
 4484SOL     MW17936   8.891   1.677   7.233
 4485SOL     OW17937   2.392   8.027   2.695
 4485SOL    HW117938   2.479   7.997   2.671
 4485SOL    HW217939   2.351   8.054   2.613
 4485SOL     MW17940   2.398   8.027   2.681
 4486SOL     OW17941   8.165   2.460   1.526
 4486SOL    HW117942   8.191   2.391   1.588
 4486SOL    HW217943   8.077   2.436   1.498
 4486SOL     MW17944   8.157   2.447   1.530
 4487SOL     OW17945   6.045   7.647   2.982
 4487SOL    HW117946   5.986   7.718   2.958
 4487SOL    HW217947   6.028   7.631   3.074
 4487SOL     MW17948   6.035   7.654   2.991
 4488SOL     OW17949   6.866   9.674   5.596
 4488SOL    HW117950   6.830   9.586   5.596
 4488SOL    HW217951   6.882   9.695   5.688
 4488SOL     MW17952   6.863   9.665   5.608
 4489SOL     OW17953   0.321   4.248   7.097
 4489SOL    HW117954   0.290   4.334   7.068
 4489SOL    HW217955   0.402   4.235   7.048
 4489SOL     MW17956   0.328   4.258   7.087
 4490SOL     OW17957   9.373   0.194   1.627
 4490SOL    HW117958   9.288   0.177   1.668
 4490SOL    HW217959   9.352   0.211   1.535
 4490SOL     MW17960   9.359   0.194   1.620
 4491SOL     OW17961   1.113   9.559   4.670
 4491SOL    HW117962   1.114   9.472   4.711
 4491SOL    HW217963   1.042   9.555   4.606
 4491SOL     MW17964   1.104   9.547   4.667
 4492SOL     OW17965   0.458   6.386   3.602
 4492SOL    HW117966   0.523   6.376   3.672
 4492SOL    HW217967   0.413   6.301   3.600
 4492SOL     MW17968   0.461   6.373   3.611
 4493SOL     OW17969   5.100   8.419   0.264
 4493SOL    HW117970   5.087   8.464   0.348
 4493SOL    HW217971   5.011   8.407   0.230
 4493SOL     MW17972   5.086   8.424   0.271
 4494SOL     OW17973   7.579   7.322   0.122
 4494SOL    HW117974   7.538   7.340   0.038
 4494SOL    HW217975   7.668   7.355   0.113
 4494SOL     MW17976   7.586   7.329   0.110
 4495SOL     OW17977   7.779   4.233   0.698
 4495SOL    HW117978   7.842   4.168   0.668
 4495SOL    HW217979   7.821   4.318   0.682
 4495SOL     MW17980   7.793   4.236   0.692
 4496SOL     OW17981   0.878   1.654   8.618
 4496SOL    HW117982   0.809   1.593   8.592
 4496SOL    HW217983   0.879   1.719   8.548
 4496SOL     MW17984   0.869   1.655   8.605
 4497SOL     OW17985   5.478   5.218   0.641
 4497SOL    HW117986   5.446   5.154   0.705
 4497SOL    HW217987   5.419   5.293   0.650
 4497SOL     MW17988   5.466   5.219   0.651
 4498SOL     OW17989   3.854   7.084   7.095
 4498SOL    HW117990   3.884   7.008   7.044
 4498SOL    HW217991   3.883   7.160   7.044
 4498SOL     MW17992   3.862   7.084   7.081
 4499SOL     OW17993   5.756   7.922   3.910
 4499SOL    HW117994   5.801   7.874   3.840
 4499SOL    HW217995   5.821   7.928   3.980
 4499SOL     MW17996   5.771   7.916   3.910
 4500SOL     OW17997   6.559  10.123   7.038
 4500SOL    HW117998   6.555  10.113   7.133
 4500SOL    HW217999   6.497  10.193   7.018
 4500SOL     MW18000   6.550  10.131   7.048
 4501SOL     OW18001   6.423   9.144   7.934
 4501SOL    HW118002   6.409   9.069   7.876
 4501SOL    HW218003   6.487   9.198   7.888
 4501SOL     MW18004   6.429   9.141   7.920
 4502SOL     OW18005   9.501   0.097   7.092
 4502SOL    HW118006   9.517   0.100   6.998
 4502SOL    HW218007   9.449   0.018   7.105
 4502SOL     MW18008   9.496   0.087   7.081
 4503SOL     OW18009   2.132   6.216   6.563
 4503SOL    HW118010   2.182   6.297   6.572
 4503SOL    HW218011   2.068   6.219   6.634
 4503SOL     MW18012   2.130   6.228   6.574
 4504SOL     OW18013   7.115   3.839   7.315
 4504SOL    HW118014   7.059   3.908   7.279
 4504SOL    HW218015   7.196   3.884   7.339
 4504SOL     MW18016   7.118   3.854   7.313
 4505SOL     OW18017   7.867   3.737   5.024
 4505SOL    HW118018   7.930   3.666   5.015
 4505SOL    HW218019   7.848   3.741   5.118
 4505SOL     MW18020   7.873   3.728   5.036
 4506SOL     OW18021   5.059   1.705   2.857
 4506SOL    HW118022   5.151   1.719   2.882
 4506SOL    HW218023   5.038   1.780   2.802
 4506SOL     MW18024   5.069   1.717   2.853
 4507SOL     OW18025   0.489   3.240   4.335
 4507SOL    HW118026   0.497   3.335   4.331
 4507SOL    HW218027   0.481   3.220   4.428
 4507SOL     MW18028   0.489   3.250   4.347
 4508SOL     OW18029   6.979   2.372   3.642
 4508SOL    HW118030   6.981   2.412   3.555
 4508SOL    HW218031   7.050   2.308   3.641
 4508SOL     MW18032   6.988   2.369   3.630
 4509SOL     OW18033   6.223   1.191   3.400
 4509SOL    HW118034   6.236   1.103   3.434
 4509SOL    HW218035   6.272   1.247   3.460
 4509SOL     MW18036   6.231   1.187   3.413
 4510SOL     OW18037   2.015   1.126   4.969
 4510SOL    HW118038   1.944   1.114   5.032
 4510SOL    HW218039   2.006   1.217   4.940
 4510SOL     MW18040   2.004   1.137   4.974
 4511SOL     OW18041   0.890   9.181   4.916
 4511SOL    HW118042   0.863   9.249   4.977
 4511SOL    HW218043   0.896   9.101   4.969
 4511SOL     MW18044   0.887   9.179   4.931
 4512SOL     OW18045   6.125   9.769   9.887
 4512SOL    HW118046   6.079   9.727   9.815
 4512SOL    HW218047   6.064   9.835   9.920
 4512SOL     MW18048   6.111   9.772   9.882
 4513SOL     OW18049   8.378   7.091   9.605
 4513SOL    HW118050   8.315   7.028   9.570
 4513SOL    HW218051   8.404   7.144   9.530
 4513SOL     MW18052   8.373   7.090   9.590
 4514SOL     OW18053   6.996   8.791   5.495
 4514SOL    HW118054   6.952   8.708   5.514
 4514SOL    HW218055   7.042   8.775   5.413
 4514SOL     MW18056   6.996   8.778   5.486
 4515SOL     OW18057   6.982   2.326   7.605
 4515SOL    HW118058   7.014   2.262   7.668
 4515SOL    HW218059   6.938   2.393   7.658
 4515SOL     MW18060   6.980   2.326   7.621
 4516SOL     OW18061   7.726   5.717   3.538
 4516SOL    HW118062   7.769   5.676   3.613
 4516SOL    HW218063   7.770   5.801   3.527
 4516SOL     MW18064   7.738   5.723   3.547
 4517SOL     OW18065   0.741   5.070   0.697
 4517SOL    HW118066   0.722   5.102   0.609
 4517SOL    HW218067   0.664   5.018   0.721
 4517SOL     MW18068   0.728   5.067   0.688
 4518SOL     OW18069   6.404   1.412   6.876
 4518SOL    HW118070   6.313   1.422   6.904
 4518SOL    HW218071   6.434   1.502   6.861
 4518SOL     MW18072   6.396   1.426   6.878
 4519SOL     OW18073   3.941   6.332   7.551
 4519SOL    HW118074   3.936   6.276   7.628
 4519SOL    HW218075   3.975   6.415   7.583
 4519SOL     MW18076   3.945   6.336   7.566
 4520SOL     OW18077   5.335   6.713   8.714
 4520SOL    HW118078   5.298   6.800   8.703
 4520SOL    HW218079   5.260   6.656   8.730
 4520SOL     MW18080   5.320   6.717   8.715
 4521SOL     OW18081   0.875   8.235   3.096
 4521SOL    HW118082   0.781   8.224   3.081
 4521SOL    HW218083   0.915   8.221   3.010
 4521SOL     MW18084   0.868   8.232   3.082
 4522SOL     OW18085   7.078   0.662   3.879
 4522SOL    HW118086   7.056   0.709   3.799
 4522SOL    HW218087   7.153   0.607   3.856
 4522SOL     MW18088   7.085   0.661   3.865
 4523SOL     OW18089   2.121   7.412   9.277
 4523SOL    HW118090   2.195   7.465   9.249
 4523SOL    HW218091   2.121   7.337   9.218
 4523SOL     MW18092   2.131   7.409   9.265
 4524SOL     OW18093   3.222   9.877   5.785
 4524SOL    HW118094   3.280   9.882   5.709
 4524SOL    HW218095   3.180   9.791   5.777
 4524SOL     MW18096   3.224   9.866   5.774
 4525SOL     OW18097   1.482   6.899   8.903
 4525SOL    HW118098   1.556   6.935   8.854
 4525SOL    HW218099   1.449   6.973   8.954
 4525SOL     MW18100   1.488   6.914   8.903
 4526SOL     OW18101   8.169   3.029   7.283
 4526SOL    HW118102   8.121   2.975   7.221
 4526SOL    HW218103   8.177   3.114   7.240
 4526SOL     MW18104   8.164   3.033   7.269
 4527SOL     OW18105   1.845   4.993   8.588
 4527SOL    HW118106   1.918   4.967   8.532
 4527SOL    HW218107   1.767   4.958   8.545
 4527SOL     MW18108   1.844   4.985   8.575
 4528SOL     OW18109   1.108   2.215   4.132
 4528SOL    HW118110   1.172   2.281   4.104
 4528SOL    HW218111   1.156   2.132   4.127
 4528SOL     MW18112   1.123   2.213   4.128
 4529SOL     OW18113   4.751   1.384   2.192
 4529SOL    HW118114   4.812   1.402   2.120
 4529SOL    HW218115   4.796   1.417   2.270
 4529SOL     MW18116   4.766   1.391   2.193
 4530SOL     OW18117   7.740   8.937   3.407
 4530SOL    HW118118   7.723   9.003   3.474
 4530SOL    HW218119   7.754   8.987   3.327
 4530SOL     MW18120   7.740   8.952   3.405
 4531SOL     OW18121   9.171   7.368   4.085
 4531SOL    HW118122   9.201   7.456   4.059
 4531SOL    HW218123   9.251   7.315   4.085
 4531SOL     MW18124   9.186   7.373   4.081
 4532SOL     OW18125   7.751   9.086   7.887
 4532SOL    HW118126   7.808   9.065   7.961
 4532SOL    HW218127   7.713   9.171   7.910
 4532SOL     MW18128   7.754   9.095   7.900
 4533SOL     OW18129   5.603   5.849   7.967
 4533SOL    HW118130   5.653   5.809   7.896
 4533SOL    HW218131   5.635   5.940   7.971
 4533SOL     MW18132   5.614   5.856   7.958
 4534SOL     OW18133   6.117   8.411   9.994
 4534SOL    HW118134   6.040   8.410  10.051
 4534SOL    HW218135   6.086   8.376   9.911
 4534SOL     MW18136   6.103   8.406   9.991
 4535SOL     OW18137   3.632   2.348   8.986
 4535SOL    HW118138   3.703   2.372   9.045
 4535SOL    HW218139   3.568   2.304   9.042
 4535SOL     MW18140   3.633   2.345   9.001
 4536SOL     OW18141   2.826   7.608   3.172
 4536SOL    HW118142   2.813   7.590   3.265
 4536SOL    HW218143   2.822   7.522   3.130
 4536SOL     MW18144   2.824   7.594   3.179
 4537SOL     OW18145   5.707   5.446   9.815
 4537SOL    HW118146   5.740   5.373   9.867
 4537SOL    HW218147   5.772   5.457   9.746
 4537SOL     MW18148   5.720   5.438   9.813
 4538SOL     OW18149   6.928   4.715   5.838
 4538SOL    HW118150   6.901   4.738   5.927
 4538SOL    HW218151   6.854   4.743   5.783
 4538SOL     MW18152   6.914   4.722   5.843
 4539SOL     OW18153   3.307   3.689   8.184
 4539SOL    HW118154   3.354   3.689   8.268
 4539SOL    HW218155   3.284   3.781   8.169
 4539SOL     MW18156   3.310   3.702   8.193
 4540SOL     OW18157   9.689   5.618   9.999
 4540SOL    HW118158   9.778   5.590  10.020
 4540SOL    HW218159   9.642   5.614  10.083
 4540SOL     MW18160   9.694   5.614  10.013
 4541SOL     OW18161   4.233   0.390   4.397
 4541SOL    HW118162   4.180   0.427   4.327
 4541SOL    HW218163   4.245   0.462   4.459
 4541SOL     MW18164   4.228   0.405   4.396
 4542SOL     OW18165   6.112   6.061   5.614
 4542SOL    HW118166   6.093   5.968   5.604
 4542SOL    HW218167   6.140   6.069   5.705
 4542SOL     MW18168   6.113   6.050   5.625
 4543SOL     OW18169   9.475   5.805   5.950
 4543SOL    HW118170   9.524   5.824   5.869
 4543SOL    HW218171   9.497   5.714   5.970
 4543SOL     MW18172   9.485   5.796   5.942
 4544SOL     OW18173   6.251   6.040   5.099
 4544SOL    HW118174   6.163   6.026   5.065
 4544SOL    HW218175   6.245   6.024   5.193
 4544SOL     MW18176   6.239   6.036   5.107
 4545SOL     OW18177   6.762   1.460   7.162
 4545SOL    HW118178   6.737   1.518   7.234
 4545SOL    HW218179   6.783   1.377   7.204
 4545SOL     MW18180   6.762   1.457   7.177
 4546SOL     OW18181   2.204   6.709   8.729
 4546SOL    HW118182   2.187   6.629   8.679
 4546SOL    HW218183   2.158   6.695   8.812
 4546SOL     MW18184   2.195   6.697   8.733
 4547SOL     OW18185   1.256   2.779   2.201
 4547SOL    HW118186   1.269   2.866   2.162
 4547SOL    HW218187   1.343   2.741   2.206
 4547SOL     MW18188   1.269   2.786   2.197
 4548SOL     OW18189   7.808   9.350   9.381
 4548SOL    HW118190   7.783   9.264   9.415
 4548SOL    HW218191   7.728   9.385   9.343
 4548SOL     MW18192   7.794   9.343   9.380
 4549SOL     OW18193   0.057   4.369   4.528
 4549SOL    HW118194   0.060   4.342   4.620
 4549SOL    HW218195   0.096   4.296   4.480
 4549SOL     MW18196   0.063   4.355   4.534
 4550SOL     OW18197   9.374   1.089   5.181
 4550SOL    HW118198   9.387   1.101   5.087
 4550SOL    HW218199   9.448   1.135   5.221
 4550SOL     MW18200   9.386   1.097   5.174
 4551SOL     OW18201   2.654   3.925   8.854
 4551SOL    HW118202   2.622   4.007   8.816
 4551SOL    HW218203   2.749   3.935   8.856
 4551SOL     MW18204   2.662   3.938   8.849
 4552SOL     OW18205  10.055   8.080   4.281
 4552SOL    HW118206  10.135   8.120   4.315
 4552SOL    HW218207   9.999   8.153   4.256
 4552SOL     MW18208  10.058   8.095   4.282
 4553SOL     OW18209   3.854   4.390   0.024
 4553SOL    HW118210   3.819   4.312   0.066
 4553SOL    HW218211   3.796   4.461   0.053
 4553SOL     MW18212   3.842   4.389   0.034
 4554SOL     OW18213   3.758   2.490   2.484
 4554SOL    HW118214   3.693   2.559   2.470
 4554SOL    HW218215   3.724   2.439   2.557
 4554SOL     MW18216   3.745   2.493   2.492
 4555SOL     OW18217   1.891   4.715   3.886
 4555SOL    HW118218   1.855   4.675   3.965
 4555SOL    HW218219   1.887   4.647   3.820
 4555SOL     MW18220   1.886   4.701   3.888
 4556SOL     OW18221   9.634   7.045   8.992
 4556SOL    HW118222   9.726   7.028   8.973
 4556SOL    HW218223   9.636   7.117   9.055
 4556SOL     MW18224   9.647   7.053   8.998
 4557SOL     OW18225   3.840   2.322   7.248
 4557SOL    HW118226   3.879   2.406   7.271
 4557SOL    HW218227   3.873   2.304   7.160
 4557SOL     MW18228   3.850   2.331   7.239
 4558SOL     OW18229   4.495   2.323   9.452
 4558SOL    HW118230   4.479   2.387   9.521
 4558SOL    HW218231   4.558   2.366   9.394
 4558SOL     MW18232   4.501   2.337   9.454
 4559SOL     OW18233   8.708   9.106   4.271
 4559SOL    HW118234   8.783   9.157   4.302
 4559SOL    HW218235   8.634   9.136   4.325
 4559SOL     MW18236   8.708   9.117   4.283
 4560SOL     OW18237   6.149   5.846   3.558
 4560SOL    HW118238   6.191   5.766   3.590
 4560SOL    HW218239   6.207   5.917   3.587
 4560SOL     MW18240   6.163   5.845   3.566
 4561SOL     OW18241   7.817   7.194   1.275
 4561SOL    HW118242   7.786   7.207   1.186
 4561SOL    HW218243   7.905   7.230   1.275
 4561SOL     MW18244   7.824   7.201   1.263
 4562SOL     OW18245   5.586   9.535   5.925
 4562SOL    HW118246   5.527   9.542   5.850
 4562SOL    HW218247   5.530   9.545   6.002
 4562SOL     MW18248   5.571   9.537   5.925
 4563SOL     OW18249   5.574   0.931   4.968
 4563SOL    HW118250   5.588   1.007   5.025
 4563SOL    HW218251   5.662   0.906   4.941
 4563SOL     MW18252   5.588   0.938   4.972
 4564SOL     OW18253   2.765   9.178   2.430
 4564SOL    HW118254   2.797   9.162   2.340
 4564SOL    HW218255   2.676   9.143   2.430
 4564SOL     MW18256   2.758   9.171   2.418
 4565SOL     OW18257   2.846   1.438   2.665
 4565SOL    HW118258   2.914   1.372   2.674
 4565SOL    HW218259   2.877   1.496   2.595
 4565SOL     MW18260   2.859   1.437   2.657
 4566SOL     OW18261   8.951   2.622   6.182
 4566SOL    HW118262   8.961   2.542   6.130
 4566SOL    HW218263   8.891   2.676   6.131
 4566SOL     MW18264   8.944   2.618   6.168
 4567SOL     OW18265   4.489   8.510   8.892
 4567SOL    HW118266   4.413   8.468   8.851
 4567SOL    HW218267   4.466   8.602   8.898
 4567SOL     MW18268   4.476   8.517   8.887
 4568SOL     OW18269   4.573   7.615   5.972
 4568SOL    HW118270   4.479   7.622   5.959
 4568SOL    HW218271   4.583   7.563   6.052
 4568SOL     MW18272   4.562   7.609   5.981
 4569SOL     OW18273   7.314   0.435   7.798
 4569SOL    HW118274   7.271   0.350   7.798
 4569SOL    HW218275   7.276   0.482   7.872
 4569SOL     MW18276   7.303   0.430   7.808
 4570SOL     OW18277   0.448   8.540   3.446
 4570SOL    HW118278   0.469   8.606   3.380
 4570SOL    HW218279   0.513   8.471   3.433
 4570SOL     MW18280   0.459   8.539   3.436
 4571SOL     OW18281   7.141   3.240   8.861
 4571SOL    HW118282   7.077   3.175   8.832
 4571SOL    HW218283   7.088   3.306   8.907
 4571SOL     MW18284   7.125   3.240   8.863
 4572SOL     OW18285   8.571   1.834   2.279
 4572SOL    HW118286   8.655   1.880   2.280
 4572SOL    HW218287   8.524   1.871   2.205
 4572SOL     MW18288   8.576   1.845   2.270
 4573SOL     OW18289   4.415   8.776   8.908
 4573SOL    HW118290   4.468   8.831   8.966
 4573SOL    HW218291   4.346   8.833   8.877
 4573SOL     MW18292   4.413   8.791   8.912
 4574SOL     OW18293   6.379   5.923   7.888
 4574SOL    HW118294   6.463   5.966   7.880
 4574SOL    HW218295   6.390   5.863   7.962
 4574SOL     MW18296   6.391   5.921   7.897
 4575SOL     OW18297   2.165   0.108   1.374
 4575SOL    HW118298   2.241   0.127   1.428
 4575SOL    HW218299   2.110   0.051   1.428
 4575SOL     MW18300   2.168   0.103   1.388
 4576SOL     OW18301   1.204   0.981   4.984
 4576SOL    HW118302   1.290   0.949   5.012
 4576SOL    HW218303   1.203   0.970   4.889
 4576SOL     MW18304   1.215   0.975   4.975
 4577SOL     OW18305   4.354   0.198   7.233
 4577SOL    HW118306   4.370   0.217   7.325
 4577SOL    HW218307   4.301   0.271   7.202
 4577SOL     MW18308   4.349   0.210   7.241
 4578SOL     OW18309   1.010   7.427   8.946
 4578SOL    HW118310   1.100   7.401   8.967
 4578SOL    HW218311   0.955   7.360   8.987
 4578SOL     MW18312   1.015   7.414   8.954
 4579SOL     OW18313   9.797   5.889   5.316
 4579SOL    HW118314   9.886   5.853   5.318
 4579SOL    HW218315   9.743   5.819   5.281
 4579SOL     MW18316   9.802   5.875   5.312
 4580SOL     OW18317   7.686   8.367   2.942
 4580SOL    HW118318   7.680   8.457   2.909
 4580SOL    HW218319   7.751   8.325   2.886
 4580SOL     MW18320   7.694   8.374   2.930
 4581SOL     OW18321   8.159   2.297   6.570
 4581SOL    HW118322   8.135   2.214   6.529
 4581SOL    HW218323   8.250   2.311   6.544
 4581SOL     MW18324   8.168   2.288   6.561
 4582SOL     OW18325   3.558   4.200   3.813
 4582SOL    HW118326   3.643   4.193   3.769
 4582SOL    HW218327   3.579   4.200   3.906
 4582SOL     MW18328   3.572   4.199   3.820
 4583SOL     OW18329   2.717   9.526   4.848
 4583SOL    HW118330   2.684   9.605   4.804
 4583SOL    HW218331   2.644   9.494   4.900
 4583SOL     MW18332   2.703   9.533   4.849
 4584SOL     OW18333   0.428   9.872   2.829
 4584SOL    HW118334   0.407   9.823   2.749
 4584SOL    HW218335   0.523   9.875   2.831
 4584SOL     MW18336   0.438   9.865   2.818
 4585SOL     OW18337   1.024   8.432   1.046
 4585SOL    HW118338   1.022   8.438   1.142
 4585SOL    HW218339   1.107   8.474   1.022
 4585SOL     MW18340   1.035   8.438   1.056
 4586SOL     OW18341   6.733   5.808   3.511
 4586SOL    HW118342   6.819   5.779   3.481
 4586SOL    HW218343   6.741   5.903   3.521
 4586SOL     MW18344   6.746   5.817   3.508
 4587SOL     OW18345   9.080   3.416   3.243
 4587SOL    HW118346   9.034   3.464   3.174
 4587SOL    HW218347   9.121   3.484   3.297
 4587SOL     MW18348   9.079   3.431   3.241
 4588SOL     OW18349   9.304   6.616   8.306
 4588SOL    HW118350   9.265   6.695   8.343
 4588SOL    HW218351   9.328   6.641   8.217
 4588SOL     MW18352   9.302   6.630   8.299
 4589SOL     OW18353   6.241   2.222   8.415
 4589SOL    HW118354   6.332   2.243   8.397
 4589SOL    HW218355   6.226   2.138   8.371
 4589SOL     MW18356   6.251   2.214   8.407
 4590SOL     OW18357   0.391   2.910   2.568
 4590SOL    HW118358   0.383   2.851   2.494
 4590SOL    HW218359   0.445   2.982   2.536
 4590SOL     MW18360   0.397   2.912   2.554
 4591SOL     OW18361   9.157   0.783   9.673
 4591SOL    HW118362   9.092   0.713   9.662
 4591SOL    HW218363   9.136   0.846   9.604
 4591SOL     MW18364   9.146   0.782   9.662
 4592SOL     OW18365   3.392   4.593   6.100
 4592SOL    HW118366   3.428   4.597   6.011
 4592SOL    HW218367   3.318   4.653   6.098
 4592SOL     MW18368   3.387   4.601   6.087
 4593SOL     OW18369   3.146   0.350   5.644
 4593SOL    HW118370   3.162   0.353   5.550
 4593SOL    HW218371   3.091   0.273   5.657
 4593SOL     MW18372   3.141   0.340   5.633
 4594SOL     OW18373   6.106   1.396   2.715
 4594SOL    HW118374   6.085   1.333   2.784
 4594SOL    HW218375   6.200   1.413   2.726
 4594SOL     MW18376   6.116   1.390   2.726
 4595SOL     OW18377   0.865   2.907   3.411
 4595SOL    HW118378   0.933   2.848   3.379
 4595SOL    HW218379   0.786   2.854   3.412
 4595SOL     MW18380   0.864   2.892   3.407
 4596SOL     OW18381   0.929  10.029   7.447
 4596SOL    HW118382   1.002   9.988   7.494
 4596SOL    HW218383   0.859   9.964   7.451
 4596SOL     MW18384   0.929  10.015   7.454
 4597SOL     OW18385   5.210   8.247   3.693
 4597SOL    HW118386   5.242   8.167   3.734
 4597SOL    HW218387   5.218   8.314   3.761
 4597SOL     MW18388   5.215   8.246   3.707
 4598SOL     OW18389   2.497   3.710   8.759
 4598SOL    HW118390   2.556   3.782   8.783
 4598SOL    HW218391   2.446   3.693   8.838
 4598SOL     MW18392   2.498   3.718   8.773
 4599SOL     OW18393   6.499   4.237  10.071
 4599SOL    HW118394   6.548   4.231   9.989
 4599SOL    HW218395   6.461   4.325  10.071
 4599SOL     MW18396   6.501   4.248  10.060
 4600SOL     OW18397   3.123   5.715   7.931
 4600SOL    HW118398   3.029   5.719   7.915
 4600SOL    HW218399   3.156   5.802   7.910
 4600SOL     MW18400   3.115   5.727   7.926
 4601SOL     OW18401   7.766   4.350   7.303
 4601SOL    HW118402   7.708   4.390   7.237
 4601SOL    HW218403   7.746   4.396   7.384
 4601SOL     MW18404   7.755   4.361   7.305
 4602SOL     OW18405   7.018   1.295   9.241
 4602SOL    HW118406   6.985   1.209   9.267
 4602SOL    HW218407   6.954   1.357   9.277
 4602SOL     MW18408   7.005   1.292   9.249
 4603SOL     OW18409   2.763   8.017   3.262
 4603SOL    HW118410   2.834   7.973   3.215
 4603SOL    HW218411   2.805   8.049   3.342
 4603SOL     MW18412   2.778   8.015   3.266
 4604SOL     OW18413   5.815   1.216  -0.004
 4604SOL    HW118414   5.901   1.218   0.038
 4604SOL    HW218415   5.763   1.278   0.047
 4604SOL     MW18416   5.820   1.225   0.009
 4605SOL     OW18417   9.584   7.182   8.752
 4605SOL    HW118418   9.591   7.127   8.830
 4605SOL    HW218419   9.552   7.266   8.785
 4605SOL     MW18420   9.581   7.186   8.767
 4606SOL     OW18421   3.253   5.468   7.960
 4606SOL    HW118422   3.260   5.464   8.055
 4606SOL    HW218423   3.211   5.553   7.942
 4606SOL     MW18424   3.249   5.479   7.970
 4607SOL     OW18425   8.999   2.424   1.488
 4607SOL    HW118426   9.012   2.351   1.427
 4607SOL    HW218427   9.041   2.395   1.569
 4607SOL     MW18428   9.006   2.410   1.491
 4608SOL     OW18429   5.641   1.604   9.664
 4608SOL    HW118430   5.561   1.628   9.618
 4608SOL    HW218431   5.670   1.685   9.706
 4608SOL     MW18432   5.634   1.618   9.663
 4609SOL     OW18433   9.947   7.085   6.963
 4609SOL    HW118434  10.023   7.124   7.007
 4609SOL    HW218435   9.983   7.010   6.916
 4609SOL     MW18436   9.962   7.080   6.962
 4610SOL     OW18437   8.653   2.160   9.778
 4610SOL    HW118438   8.692   2.233   9.729
 4610SOL    HW218439   8.631   2.096   9.711
 4610SOL     MW18440   8.655   2.162   9.762
 4611SOL     OW18441   2.200   9.055   5.140
 4611SOL    HW118442   2.135   9.124   5.153
 4611SOL    HW218443   2.275   9.100   5.100
 4611SOL     MW18444   2.201   9.071   5.136
 4612SOL     OW18445   5.920   9.610   4.180
 4612SOL    HW118446   5.875   9.526   4.188
 4612SOL    HW218447   5.852   9.676   4.197
 4612SOL     MW18448   5.905   9.608   4.184
 4613SOL     OW18449   2.091   7.881   7.012
 4613SOL    HW118450   2.107   7.882   6.917
 4613SOL    HW218451   2.157   7.820   7.046
 4613SOL     MW18452   2.102   7.873   7.004
 4614SOL     OW18453   8.815   5.268   5.326
 4614SOL    HW118454   8.854   5.258   5.413
 4614SOL    HW218455   8.761   5.347   5.333
 4614SOL     MW18456   8.813   5.277   5.339
 4615SOL     OW18457   7.989   6.408   8.746
 4615SOL    HW118458   8.049   6.347   8.789
 4615SOL    HW218459   8.046   6.466   8.696
 4615SOL     MW18460   8.005   6.408   8.745
 4616SOL     OW18461   3.098   5.081   9.830
 4616SOL    HW118462   3.157   5.007   9.814
 4616SOL    HW218463   3.153   5.146   9.873
 4616SOL     MW18464   3.114   5.080   9.834
 4617SOL     OW18465   1.331   5.854   0.351
 4617SOL    HW118466   1.314   5.925   0.413
 4617SOL    HW218467   1.425   5.857   0.335
 4617SOL     MW18468   1.341   5.864   0.357
 4618SOL     OW18469   5.223   7.395   4.976
 4618SOL    HW118470   5.300   7.340   4.964
 4618SOL    HW218471   5.223   7.454   4.900
 4618SOL     MW18472   5.233   7.396   4.964
 4619SOL     OW18473   8.528   8.654   0.811
 4619SOL    HW118474   8.616   8.691   0.803
 4619SOL    HW218475   8.470   8.730   0.820
 4619SOL     MW18476   8.532   8.669   0.811
 4620SOL     OW18477   6.228   8.713   9.469
 4620SOL    HW118478   6.213   8.779   9.537
 4620SOL    HW218479   6.235   8.763   9.388
 4620SOL     MW18480   6.227   8.729   9.468
 4621SOL     OW18481   3.681   4.212   5.337
 4621SOL    HW118482   3.710   4.303   5.330
 4621SOL    HW218483   3.755   4.167   5.376
 4621SOL     MW18484   3.695   4.218   5.341
 4622SOL     OW18485   5.867   1.731   1.294
 4622SOL    HW118486   5.804   1.794   1.329
 4622SOL    HW218487   5.951   1.775   1.301
 4622SOL     MW18488   5.870   1.746   1.300
 4623SOL     OW18489   9.794   4.082   3.899
 4623SOL    HW118490   9.756   4.031   3.970
 4623SOL    HW218491   9.826   4.017   3.837
 4623SOL     MW18492   9.793   4.067   3.900
 4624SOL     OW18493   7.633   8.696   4.656
 4624SOL    HW118494   7.728   8.697   4.665
 4624SOL    HW218495   7.617   8.655   4.571
 4624SOL     MW18496   7.643   8.690   4.646
 4625SOL     OW18497   5.495   7.955   3.996
 4625SOL    HW118498   5.507   7.937   4.089
 4625SOL    HW218499   5.583   7.946   3.959
 4625SOL     MW18500   5.509   7.952   4.004
 4626SOL     OW18501   1.066   6.690   2.307
 4626SOL    HW118502   1.003   6.733   2.364
 4626SOL    HW218503   1.141   6.671   2.364
 4626SOL     MW18504   1.068   6.694   2.322
 4627SOL     OW18505   3.898   6.521   2.817
 4627SOL    HW118506   3.878   6.591   2.879
 4627SOL    HW218507   3.918   6.445   2.873
 4627SOL     MW18508   3.898   6.520   2.833
 4628SOL     OW18509   7.239   8.874   1.620
 4628SOL    HW118510   7.187   8.809   1.667
 4628SOL    HW218511   7.322   8.877   1.667
 4628SOL     MW18512   7.243   8.866   1.632
 4629SOL     OW18513   2.899   0.357   6.045
 4629SOL    HW118514   2.932   0.379   6.132
 4629SOL    HW218515   2.930   0.268   6.030
 4629SOL     MW18516   2.907   0.348   6.055
 4630SOL     OW18517   5.019   5.703   7.055
 4630SOL    HW118518   4.976   5.665   6.978
 4630SOL    HW218519   4.960   5.773   7.082
 4630SOL     MW18520   5.005   5.707   7.048
 4631SOL     OW18521   8.794   5.264   9.073
 4631SOL    HW118522   8.853   5.290   9.144
 4631SOL    HW218523   8.716   5.317   9.086
 4631SOL     MW18524   8.792   5.275   9.084
 4632SOL     OW18525   1.032   2.124   9.660
 4632SOL    HW118526   1.078   2.084   9.733
 4632SOL    HW218527   1.097   2.181   9.619
 4632SOL     MW18528   1.047   2.126   9.664
 4633SOL     OW18529   6.965   4.705   3.765
 4633SOL    HW118530   6.887   4.745   3.803
 4633SOL    HW218531   6.989   4.763   3.693
 4633SOL     MW18532   6.957   4.718   3.761
 4634SOL     OW18533   0.198   4.433   9.084
 4634SOL    HW118534   0.157   4.346   9.088
 4634SOL    HW218535   0.291   4.416   9.097
 4634SOL     MW18536   0.205   4.419   9.086
 4635SOL     OW18537   1.858   4.887   6.726
 4635SOL    HW118538   1.802   4.811   6.740
 4635SOL    HW218539   1.947   4.852   6.723
 4635SOL     MW18540   1.862   4.872   6.727
 4636SOL     OW18541   9.535   1.532   4.171
 4636SOL    HW118542   9.486   1.477   4.232
 4636SOL    HW218543   9.619   1.546   4.213
 4636SOL     MW18544   9.540   1.526   4.185
 4637SOL     OW18545   3.226   9.423   9.766
 4637SOL    HW118546   3.270   9.367   9.703
 4637SOL    HW218547   3.264   9.398   9.851
 4637SOL     MW18548   3.237   9.412   9.769
 4638SOL     OW18549   6.837   5.913   7.032
 4638SOL    HW118550   6.801   5.996   7.002
 4638SOL    HW218551   6.897   5.887   6.962
 4638SOL     MW18552   6.840   5.921   7.018
 4639SOL     OW18553   1.599   9.005   3.315
 4639SOL    HW118554   1.661   9.074   3.290
 4639SOL    HW218555   1.622   8.985   3.405
 4639SOL     MW18556   1.611   9.012   3.323
 4640SOL     OW18557   6.888   7.934   4.864
 4640SOL    HW118558   6.882   7.887   4.947
 4640SOL    HW218559   6.931   7.871   4.805
 4640SOL     MW18560   6.893   7.919   4.867
 4641SOL     OW18561   8.491   3.315   4.476
 4641SOL    HW118562   8.520   3.406   4.480
 4641SOL    HW218563   8.503   3.290   4.385
 4641SOL     MW18564   8.496   3.324   4.464
 4642SOL     OW18565   9.802   2.224   7.003
 4642SOL    HW118566   9.855   2.190   7.075
 4642SOL    HW218567   9.759   2.146   6.966
 4642SOL     MW18568   9.803   2.209   7.008
 4643SOL     OW18569   2.049   2.056   8.687
 4643SOL    HW118570   2.051   2.087   8.597
 4643SOL    HW218571   2.140   2.059   8.715
 4643SOL     MW18572   2.061   2.061   8.679
 4644SOL     OW18573   3.833   6.438   2.560
 4644SOL    HW118574   3.845   6.344   2.572
 4644SOL    HW218575   3.854   6.476   2.645
 4644SOL     MW18576   3.838   6.430   2.573
 4645SOL     OW18577   2.261   2.610   1.487
 4645SOL    HW118578   2.201   2.553   1.536
 4645SOL    HW218579   2.203   2.659   1.428
 4645SOL     MW18580   2.245   2.609   1.485
 4646SOL     OW18581   7.510   5.022   8.127
 4646SOL    HW118582   7.515   4.938   8.172
 4646SOL    HW218583   7.492   4.999   8.036
 4646SOL     MW18584   7.508   5.008   8.121
 4647SOL     OW18585   6.226   3.075   3.358
 4647SOL    HW118586   6.216   3.163   3.320
 4647SOL    HW218587   6.165   3.074   3.431
 4647SOL     MW18588   6.216   3.087   3.362
 4648SOL     OW18589   5.612   2.491   6.842
 4648SOL    HW118590   5.591   2.573   6.797
 4648SOL    HW218591   5.702   2.503   6.873
 4648SOL     MW18592   5.622   2.504   6.840
 4649SOL     OW18593   3.545   2.286   8.725
 4649SOL    HW118594   3.581   2.309   8.810
 4649SOL    HW218595   3.583   2.350   8.665
 4649SOL     MW18596   3.555   2.297   8.728
 4650SOL     OW18597   4.345   7.051   0.427
 4650SOL    HW118598   4.328   7.015   0.514
 4650SOL    HW218599   4.416   6.997   0.392
 4650SOL     MW18600   4.353   7.039   0.434
 4651SOL     OW18601   0.890   3.429   8.567
 4651SOL    HW118602   0.955   3.398   8.630
 4651SOL    HW218603   0.823   3.360   8.566
 4651SOL     MW18604   0.890   3.415   8.575
 4652SOL     OW18605   3.928   1.458   3.214
 4652SOL    HW118606   3.905   1.381   3.267
 4652SOL    HW218607   4.023   1.450   3.201
 4652SOL     MW18608   3.938   1.447   3.219
 4653SOL     OW18609   2.895   1.010   1.860
 4653SOL    HW118610   2.800   1.021   1.859
 4653SOL    HW218611   2.918   1.003   1.953
 4653SOL     MW18612   2.886   1.010   1.873
 4654SOL     OW18613   9.197   8.172   6.610
 4654SOL    HW118614   9.292   8.176   6.615
 4654SOL    HW218615   9.175   8.221   6.530
 4654SOL     MW18616   9.207   8.179   6.600
 4655SOL     OW18617   2.093   0.945   2.428
 4655SOL    HW118618   2.048   0.960   2.345
 4655SOL    HW218619   2.080   1.027   2.477
 4655SOL     MW18620   2.085   0.958   2.424
 4656SOL     OW18621   4.549   5.413   2.666
 4656SOL    HW118622   4.515   5.446   2.749
 4656SOL    HW218623   4.616   5.349   2.691
 4656SOL     MW18624   4.553   5.409   2.681
 4657SOL     OW18625   5.542   1.234   9.369
 4657SOL    HW118626   5.511   1.155   9.414
 4657SOL    HW218627   5.634   1.240   9.392
 4657SOL     MW18628   5.550   1.224   9.379
 4658SOL     OW18629   0.530   9.856   7.648
 4658SOL    HW118630   0.527   9.907   7.729
 4658SOL    HW218631   0.578   9.777   7.671
 4658SOL     MW18632   0.536   9.852   7.662
 4659SOL     OW18633   1.456   7.158   9.013
 4659SOL    HW118634   1.531   7.176   8.956
 4659SOL    HW218635   1.391   7.223   8.987
 4659SOL     MW18636   1.458   7.169   9.002
 4660SOL     OW18637   1.206   8.716   7.158
 4660SOL    HW118638   1.230   8.756   7.242
 4660SOL    HW218639   1.219   8.786   7.094
 4660SOL     MW18640   1.211   8.731   7.161
 4661SOL     OW18641   9.490   9.610   2.369
 4661SOL    HW118642   9.414   9.633   2.317
 4661SOL    HW218643   9.483   9.516   2.383
 4661SOL     MW18644   9.479   9.600   2.364
 4662SOL     OW18645   4.026   3.080   1.517
 4662SOL    HW118646   4.095   3.126   1.566
 4662SOL    HW218647   4.045   2.987   1.531
 4662SOL     MW18648   4.038   3.074   1.526
 4663SOL     OW18649   8.316   0.335   7.356
 4663SOL    HW118650   8.301   0.340   7.450
 4663SOL    HW218651   8.382   0.401   7.337
 4663SOL     MW18652   8.323   0.344   7.366
 4664SOL     OW18653   8.173   9.968   9.660
 4664SOL    HW118654   8.219  10.036   9.610
 4664SOL    HW218655   8.109   9.932   9.598
 4664SOL     MW18656   8.170   9.972   9.645
 4665SOL     OW18657   3.236   2.847   7.860
 4665SOL    HW118658   3.328   2.841   7.888
 4665SOL    HW218659   3.235   2.805   7.774
 4665SOL     MW18660   3.249   2.840   7.852
 4666SOL     OW18661   7.949   5.600   1.889
 4666SOL    HW118662   8.012   5.668   1.911
 4666SOL    HW218663   7.935   5.609   1.795
 4666SOL     MW18664   7.955   5.611   1.880
 4667SOL     OW18665   0.903   6.670   4.381
 4667SOL    HW118666   0.957   6.747   4.361
 4667SOL    HW218667   0.945   6.631   4.458
 4667SOL     MW18668   0.916   6.676   4.389
 4668SOL     OW18669   9.159   5.143   9.220
 4668SOL    HW118670   9.181   5.147   9.127
 4668SOL    HW218671   9.240   5.116   9.263
 4668SOL     MW18672   9.173   5.140   9.214
 4669SOL     OW18673   9.113   9.487   9.788
 4669SOL    HW118674   9.129   9.487   9.693
 4669SOL    HW218675   9.070   9.570   9.806
 4669SOL     MW18676   9.110   9.498   9.778
 4670SOL     OW18677   7.961   1.900   3.342
 4670SOL    HW118678   7.969   1.981   3.292
 4670SOL    HW218679   7.870   1.898   3.372
 4670SOL     MW18680   7.950   1.911   3.340
 4671SOL     OW18681   3.949   3.147   3.596
 4671SOL    HW118682   3.904   3.121   3.516
 4671SOL    HW218683   3.904   3.227   3.624
 4671SOL     MW18684   3.937   3.155   3.589
 4672SOL     OW18685   5.633   3.600   5.145
 4672SOL    HW118686   5.638   3.600   5.240
 4672SOL    HW218687   5.558   3.544   5.125
 4672SOL     MW18688   5.624   3.593   5.155
 4673SOL     OW18689   8.063   8.657   0.306
 4673SOL    HW118690   8.144   8.666   0.356
 4673SOL    HW218691   8.031   8.747   0.298
 4673SOL     MW18692   8.070   8.670   0.312
 4674SOL     OW18693   8.793   5.725   9.079
 4674SOL    HW118694   8.845   5.804   9.089
 4674SOL    HW218695   8.823   5.686   8.996
 4674SOL     MW18696   8.804   5.730   9.069
 4675SOL     OW18697   5.488   5.046   6.148
 4675SOL    HW118698   5.464   4.966   6.195
 4675SOL    HW218699   5.583   5.051   6.157
 4675SOL     MW18700   5.498   5.036   6.156
 4676SOL     OW18701   3.177   2.302   6.683
 4676SOL    HW118702   3.110   2.283   6.748
 4676SOL    HW218703   3.209   2.216   6.655
 4676SOL     MW18704   3.173   2.288   6.688
 4677SOL     OW18705   4.147   1.715   8.159
 4677SOL    HW118706   4.171   1.768   8.083
 4677SOL    HW218707   4.053   1.732   8.171
 4677SOL     MW18708   4.137   1.724   8.150
 4678SOL     OW18709   7.945   9.847  10.093
 4678SOL    HW118710   8.018   9.864  10.033
 4678SOL    HW218711   7.981   9.788  10.159
 4678SOL     MW18712   7.960   9.842  10.094
 4679SOL     OW18713   2.218   0.938   4.965
 4679SOL    HW118714   2.151   1.006   4.962
 4679SOL    HW218715   2.269   0.951   4.886
 4679SOL     MW18716   2.216   0.949   4.954
 4680SOL     OW18717   7.972   6.027   7.000
 4680SOL    HW118718   8.009   6.074   7.075
 4680SOL    HW218719   7.967   6.094   6.931
 4680SOL     MW18720   7.976   6.043   7.001
 4681SOL     OW18721   1.070   4.629   4.215
 4681SOL    HW118722   1.054   4.693   4.145
 4681SOL    HW218723   1.126   4.675   4.277
 4681SOL     MW18724   1.075   4.644   4.214
 4682SOL     OW18725   3.052   9.940   4.924
 4682SOL    HW118726   3.112   9.971   4.992
 4682SOL    HW218727   3.057   9.845   4.928
 4682SOL     MW18728   3.060   9.932   4.934
 4683SOL     OW18729   9.770   2.809   2.317
 4683SOL    HW118730   9.778   2.858   2.398
 4683SOL    HW218731   9.760   2.718   2.345
 4683SOL     MW18732   9.770   2.803   2.332
 4684SOL     OW18733   2.539   2.606   1.475
 4684SOL    HW118734   2.443   2.607   1.481
 4684SOL    HW218735   2.561   2.688   1.431
 4684SOL     MW18736   2.529   2.617   1.470
 4685SOL     OW18737   4.470   4.812   8.093
 4685SOL    HW118738   4.432   4.866   8.162
 4685SOL    HW218739   4.492   4.873   8.023
 4685SOL     MW18740   4.468   4.827   8.092
 4686SOL     OW18741   9.192   3.373   0.822
 4686SOL    HW118742   9.232   3.287   0.812
 4686SOL    HW218743   9.135   3.365   0.898
 4686SOL     MW18744   9.190   3.360   0.831
 4687SOL     OW18745   3.898   0.590   7.067
 4687SOL    HW118746   3.809   0.559   7.080
 4687SOL    HW218747   3.928   0.545   6.988
 4687SOL     MW18748   3.890   0.579   7.058
 4688SOL     OW18749   6.654   7.789   5.265
 4688SOL    HW118750   6.651   7.694   5.273
 4688SOL    HW218751   6.732   7.807   5.212
 4688SOL     MW18752   6.664   7.779   5.259
 4689SOL     OW18753   4.378   4.080   1.838
 4689SOL    HW118754   4.424   4.008   1.795
 4689SOL    HW218755   4.447   4.133   1.878
 4689SOL     MW18756   4.393   4.077   1.837
 4690SOL     OW18757   4.258   3.736   5.423
 4690SOL    HW118758   4.310   3.742   5.503
 4690SOL    HW218759   4.199   3.811   5.426
 4690SOL     MW18760   4.257   3.747   5.434
 4691SOL     OW18761   7.211   3.113   9.096
 4691SOL    HW118762   7.200   3.162   9.014
 4691SOL    HW218763   7.177   3.172   9.164
 4691SOL     MW18764   7.205   3.128   9.094
 4692SOL     OW18765   2.658   6.305   3.168
 4692SOL    HW118766   2.620   6.388   3.139
 4692SOL    HW218767   2.745   6.303   3.128
 4692SOL     MW18768   2.664   6.316   3.159
 4693SOL     OW18769   9.621   8.067   2.907
 4693SOL    HW118770   9.605   8.158   2.882
 4693SOL    HW218771   9.558   8.049   2.977
 4693SOL     MW18772   9.610   8.077   2.913
 4694SOL     OW18773   6.806   4.041   4.171
 4694SOL    HW118774   6.782   3.966   4.226
 4694SOL    HW218775   6.800   4.009   4.082
 4694SOL     MW18776   6.802   4.027   4.167
 4695SOL     OW18777   3.816   7.045   0.827
 4695SOL    HW118778   3.830   7.116   0.765
 4695SOL    HW218779   3.744   7.076   0.883
 4695SOL     MW18780   3.808   7.059   0.826
 4696SOL     OW18781   8.439   5.178   0.281
 4696SOL    HW118782   8.485   5.095   0.297
 4696SOL    HW218783   8.351   5.152   0.255
 4696SOL     MW18784   8.434   5.163   0.279
 4697SOL     OW18785   4.120   1.240   7.278
 4697SOL    HW118786   4.131   1.172   7.212
 4697SOL    HW218787   4.030   1.227   7.311
 4697SOL     MW18788   4.109   1.229   7.274
 4698SOL     OW18789   3.385   7.335   4.454
 4698SOL    HW118790   3.398   7.316   4.361
 4698SOL    HW218791   3.311   7.396   4.455
 4698SOL     MW18792   3.377   7.340   4.442
 4699SOL     OW18793   8.388   4.594   7.867
 4699SOL    HW118794   8.394   4.503   7.838
 4699SOL    HW218795   8.472   4.612   7.909
 4699SOL     MW18796   8.400   4.584   7.869
 4700SOL     OW18797   0.846   0.693   5.991
 4700SOL    HW118798   0.817   0.764   5.934
 4700SOL    HW218799   0.766   0.647   6.016
 4700SOL     MW18800   0.831   0.696   5.987
 4701SOL     OW18801   5.658   3.792   4.944
 4701SOL    HW118802   5.652   3.727   5.014
 4701SOL    HW218803   5.646   3.876   4.989
 4701SOL     MW18804   5.656   3.795   4.960
 4702SOL     OW18805   9.496   8.229   0.435
 4702SOL    HW118806   9.513   8.171   0.361
 4702SOL    HW218807   9.409   8.205   0.466
 4702SOL     MW18808   9.487   8.218   0.430
 4703SOL     OW18809   8.899   0.940   1.812
 4703SOL    HW118810   8.944   0.856   1.814
 4703SOL    HW218811   8.829   0.929   1.748
 4703SOL     MW18812   8.895   0.927   1.804
 4704SOL     OW18813   3.922   7.951   7.132
 4704SOL    HW118814   3.842   8.001   7.116
 4704SOL    HW218815   3.982   7.981   7.064
 4704SOL     MW18816   3.919   7.962   7.121
 4705SOL     OW18817   6.987   9.773   9.266
 4705SOL    HW118818   6.968   9.817   9.183
 4705SOL    HW218819   6.943   9.689   9.260
 4705SOL     MW18820   6.978   9.768   9.254
 4706SOL     OW18821   8.229   9.373   1.469
 4706SOL    HW118822   8.175   9.326   1.406
 4706SOL    HW218823   8.307   9.318   1.478
 4706SOL     MW18824   8.232   9.359   1.461
 4707SOL     OW18825   7.785   6.997   0.875
 4707SOL    HW118826   7.836   7.031   0.801
 4707SOL    HW218827   7.764   7.075   0.927
 4707SOL     MW18828   7.789   7.012   0.872
 4708SOL     OW18829   2.447   9.781   5.837
 4708SOL    HW118830   2.481   9.850   5.894
 4708SOL    HW218831   2.404   9.827   5.765
 4708SOL     MW18832   2.446   9.797   5.835
 4709SOL     OW18833   0.100   1.734  10.138
 4709SOL    HW118834   0.076   1.695  10.222
 4709SOL    HW218835   0.136   1.661  10.087
 4709SOL     MW18836   0.102   1.718  10.143
 4710SOL     OW18837   1.489   1.885   5.848
 4710SOL    HW118838   1.549   1.955   5.820
 4710SOL    HW218839   1.545   1.810   5.864
 4710SOL     MW18840   1.505   1.884   5.846
 4711SOL     OW18841   7.954   7.609   3.035
 4711SOL    HW118842   8.018   7.555   3.083
 4711SOL    HW218843   8.005   7.681   2.999
 4711SOL     MW18844   7.969   7.611   3.037
 4712SOL     OW18845   7.426   2.293   7.460
 4712SOL    HW118846   7.461   2.209   7.429
 4712SOL    HW218847   7.333   2.290   7.436
 4712SOL     MW18848   7.418   2.281   7.453
 4713SOL     OW18849   4.304   7.052   1.298
 4713SOL    HW118850   4.229   7.051   1.357
 4713SOL    HW218851   4.266   7.065   1.211
 4713SOL     MW18852   4.289   7.053   1.294
 4714SOL     OW18853   7.869   5.710   9.446
 4714SOL    HW118854   7.907   5.631   9.409
 4714SOL    HW218855   7.905   5.715   9.535
 4714SOL     MW18856   7.879   5.700   9.453
 4715SOL     OW18857   9.252   0.999  10.089
 4715SOL    HW118858   9.279   0.930  10.150
 4715SOL    HW218859   9.273   0.965  10.002
 4715SOL     MW18860   9.258   0.985  10.086
 4716SOL     OW18861   5.131   7.755   1.473
 4716SOL    HW118862   5.161   7.676   1.428
 4716SOL    HW218863   5.188   7.761   1.550
 4716SOL     MW18864   5.143   7.745   1.477
 4717SOL     OW18865   6.999   7.606   7.678
 4717SOL    HW118866   6.956   7.682   7.717
 4717SOL    HW218867   7.092   7.628   7.678
 4717SOL     MW18868   7.006   7.619   7.683
 4718SOL     OW18869   6.257   3.646   8.230
 4718SOL    HW118870   6.266   3.619   8.139
 4718SOL    HW218871   6.219   3.570   8.274
 4718SOL     MW18872   6.253   3.632   8.224
 4719SOL     OW18873   3.987   7.447   7.698
 4719SOL    HW118874   3.912   7.430   7.755
 4719SOL    HW218875   4.025   7.528   7.731
 4719SOL     MW18876   3.982   7.456   7.710
 4720SOL     OW18877   5.442   2.120   5.849
 4720SOL    HW118878   5.386   2.043   5.862
 4720SOL    HW218879   5.417   2.154   5.763
 4720SOL     MW18880   5.431   2.114   5.839
 4721SOL     OW18881   5.824   0.863   4.866
 4721SOL    HW118882   5.800   0.838   4.778
 4721SOL    HW218883   5.876   0.789   4.899
 4721SOL     MW18884   5.828   0.850   4.859
 4722SOL     OW18885   3.160   2.030   2.261
 4722SOL    HW118886   3.136   2.051   2.171
 4722SOL    HW218887   3.229   2.092   2.283
 4722SOL     MW18888   3.166   2.041   2.252
 4723SOL     OW18889   0.806   4.056   2.894
 4723SOL    HW118890   0.817   3.972   2.939
 4723SOL    HW218891   0.740   4.102   2.945
 4723SOL     MW18892   0.799   4.051   2.907
 4724SOL     OW18893   8.995   4.983   5.650
 4724SOL    HW118894   8.939   4.922   5.601
 4724SOL    HW218895   9.075   4.933   5.667
 4724SOL     MW18896   8.998   4.968   5.646
 4725SOL     OW18897   7.659   4.722   2.845
 4725SOL    HW118898   7.583   4.675   2.877
 4725SOL    HW218899   7.624   4.787   2.784
 4725SOL     MW18900   7.644   4.724   2.841
 4726SOL     OW18901   1.254   8.831   0.399
 4726SOL    HW118902   1.248   8.760   0.334
 4726SOL    HW218903   1.309   8.794   0.469
 4726SOL     MW18904   1.260   8.816   0.400
 4727SOL     OW18905   0.207   4.182   4.391
 4727SOL    HW118906   0.192   4.142   4.305
 4727SOL    HW218907   0.276   4.246   4.376
 4727SOL     MW18908   0.214   4.185   4.377
 4728SOL     OW18909   2.719   7.656   0.862
 4728SOL    HW118910   2.740   7.563   0.864
 4728SOL    HW218911   2.638   7.661   0.812
 4728SOL     MW18912   2.711   7.644   0.856
 4729SOL     OW18913   6.484   1.067   6.303
 4729SOL    HW118914   6.492   1.044   6.395
 4729SOL    HW218915   6.574   1.084   6.274
 4729SOL     MW18916   6.497   1.067   6.311
 4730SOL     OW18917   3.562   2.047   4.167
 4730SOL    HW118918   3.623   2.120   4.157
 4730SOL    HW218919   3.493   2.065   4.103
 4730SOL     MW18920   3.561   2.059   4.157
 4731SOL     OW18921   1.996   1.188   6.078
 4731SOL    HW118922   2.059   1.234   6.023
 4731SOL    HW218923   2.014   1.219   6.167
 4731SOL     MW18924   2.007   1.198   6.082
 4732SOL     OW18925   1.749   6.604   4.230
 4732SOL    HW118926   1.669   6.606   4.178
 4732SOL    HW218927   1.818   6.580   4.168
 4732SOL     MW18928   1.747   6.601   4.215
 4733SOL     OW18929   1.005   6.232   3.916
 4733SOL    HW118930   0.917   6.213   3.947
 4733SOL    HW218931   1.049   6.271   3.991
 4733SOL     MW18932   0.999   6.235   3.930
 4734SOL     OW18933   4.125   0.948   1.718
 4734SOL    HW118934   4.203   0.998   1.742
 4734SOL    HW218935   4.054   1.012   1.714
 4734SOL     MW18936   4.126   0.963   1.721
 4735SOL     OW18937   9.364   8.540   5.918
 4735SOL    HW118938   9.366   8.540   5.823
 4735SOL    HW218939   9.425   8.609   5.944
 4735SOL     MW18940   9.372   8.550   5.909
 4736SOL     OW18941   3.130   2.787   6.730
 4736SOL    HW118942   3.208   2.825   6.771
 4736SOL    HW218943   3.159   2.704   6.694
 4736SOL     MW18944   3.145   2.781   6.731
 4737SOL     OW18945   4.420   5.603   3.175
 4737SOL    HW118946   4.346   5.663   3.168
 4737SOL    HW218947   4.390   5.534   3.235
 4737SOL     MW18948   4.406   5.602   3.182
 4738SOL     OW18949   7.472   5.661   3.432
 4738SOL    HW118950   7.487   5.571   3.405
 4738SOL    HW218951   7.556   5.690   3.469
 4738SOL     MW18952   7.485   5.653   3.434
 4739SOL     OW18953   0.695   5.412   1.036
 4739SOL    HW118954   0.718   5.370   1.119
 4739SOL    HW218955   0.747   5.492   1.034
 4739SOL     MW18956   0.705   5.417   1.047
 4740SOL     OW18957   4.970   9.512   2.019
 4740SOL    HW118958   4.899   9.455   2.048
 4740SOL    HW218959   5.001   9.555   2.099
 4740SOL     MW18960   4.965   9.510   2.034
 4741SOL     OW18961   0.462   8.535   5.756
 4741SOL    HW118962   0.369   8.529   5.734
 4741SOL    HW218963   0.465   8.534   5.851
 4741SOL     MW18964   0.450   8.534   5.766
 4742SOL     OW18965   0.536   3.117   2.456
 4742SOL    HW118966   0.474   3.176   2.412
 4742SOL    HW218967   0.591   3.176   2.508
 4742SOL     MW18968   0.535   3.133   2.457
 4743SOL     OW18969   8.271   9.125   6.918
 4743SOL    HW118970   8.274   9.219   6.933
 4743SOL    HW218971   8.179   9.101   6.933
 4743SOL     MW18972   8.259   9.134   6.922
 4744SOL     OW18973   9.402   4.834   1.401
 4744SOL    HW118974   9.343   4.760   1.387
 4744SOL    HW218975   9.360   4.886   1.470
 4744SOL     MW18976   9.388   4.831   1.409
 4745SOL     OW18977   8.740   8.850   5.387
 4745SOL    HW118978   8.770   8.940   5.384
 4745SOL    HW218979   8.698   8.841   5.472
 4745SOL     MW18980   8.739   8.861   5.398
 4746SOL     OW18981   1.787   5.697   2.895
 4746SOL    HW118982   1.844   5.655   2.959
 4746SOL    HW218983   1.791   5.790   2.917
 4746SOL     MW18984   1.795   5.704   2.906
 4747SOL     OW18985   5.946   0.519   6.078
 4747SOL    HW118986   5.971   0.552   6.165
 4747SOL    HW218987   5.887   0.586   6.043
 4747SOL     MW18988   5.941   0.533   6.085
 4748SOL     OW18989   9.292   5.343   7.575
 4748SOL    HW118990   9.288   5.252   7.547
 4748SOL    HW218991   9.206   5.379   7.555
 4748SOL     MW18992   9.280   5.336   7.569
 4749SOL     OW18993   9.422   6.852   7.328
 4749SOL    HW118994   9.488   6.783   7.332
 4749SOL    HW218995   9.358   6.828   7.395
 4749SOL     MW18996   9.422   6.839   7.337
 4750SOL     OW18997   0.918   1.065   9.517
 4750SOL    HW118998   0.853   1.011   9.562
 4750SOL    HW218999   0.992   1.069   9.577
 4750SOL     MW19000   0.919   1.058   9.531
 4751SOL     OW19001   9.657   2.456   4.505
 4751SOL    HW119002   9.691   2.522   4.566
 4751SOL    HW219003   9.651   2.376   4.558
 4751SOL     MW19004   9.661   2.454   4.521
 4752SOL     OW19005   9.429   0.383   0.266
 4752SOL    HW119006   9.491   0.415   0.331
 4752SOL    HW219007   9.394   0.303   0.304
 4752SOL     MW19008   9.433   0.377   0.279
 4753SOL     OW19009   7.645   4.197   4.364
 4753SOL    HW119010   7.700   4.260   4.317
 4753SOL    HW219011   7.655   4.115   4.315
 4753SOL     MW19012   7.654   4.194   4.351
 4754SOL     OW19013   2.534   5.216   9.736
 4754SOL    HW119014   2.560   5.304   9.708
 4754SOL    HW219015   2.617   5.172   9.756
 4754SOL     MW19016   2.549   5.222   9.735
 4755SOL     OW19017   9.822   6.676   2.976
 4755SOL    HW119018   9.784   6.639   3.055
 4755SOL    HW219019   9.746   6.695   2.920
 4755SOL     MW19020   9.807   6.674   2.979
 4756SOL     OW19021   4.319   1.090   0.587
 4756SOL    HW119022   4.305   1.002   0.623
 4756SOL    HW219023   4.327   1.077   0.493
 4756SOL     MW19024   4.318   1.077   0.579
 4757SOL     OW19025   5.552   5.115   8.455
 4757SOL    HW119026   5.591   5.047   8.399
 4757SOL    HW219027   5.588   5.099   8.542
 4757SOL     MW19028   5.562   5.104   8.459
 4758SOL     OW19029   8.309   1.905   6.308
 4758SOL    HW119030   8.274   1.853   6.236
 4758SOL    HW219031   8.288   1.855   6.387
 4758SOL     MW19032   8.302   1.892   6.309
 4759SOL     OW19033   5.297   1.965   6.997
 4759SOL    HW119034   5.246   2.044   6.978
 4759SOL    HW219035   5.374   1.997   7.043
 4759SOL     MW19036   5.301   1.980   7.000
 4760SOL     OW19037   7.747   0.617   3.611
 4760SOL    HW119038   7.790   0.701   3.625
 4760SOL    HW219039   7.773   0.563   3.686
 4760SOL     MW19040   7.756   0.621   3.623
 4761SOL     OW19041   3.668   2.414   8.257
 4761SOL    HW119042   3.575   2.423   8.276
 4761SOL    HW219043   3.691   2.494   8.210
 4761SOL     MW19044   3.658   2.426   8.253
 4762SOL     OW19045   1.925   3.348   6.099
 4762SOL    HW119046   1.970   3.283   6.152
 4762SOL    HW219047   1.912   3.306   6.014
 4762SOL     MW19048   1.929   3.334   6.095
 4763SOL     OW19049   1.334   1.287   4.487
 4763SOL    HW119050   1.403   1.284   4.553
 4763SOL    HW219051   1.309   1.196   4.473
 4763SOL     MW19052   1.340   1.275   4.494
 4764SOL     OW19053   3.562   6.241   0.565
 4764SOL    HW119054   3.499   6.171   0.582
 4764SOL    HW219055   3.557   6.256   0.471
 4764SOL     MW19056   3.553   6.233   0.555
 4765SOL     OW19057   0.198   0.636   8.774
 4765SOL    HW119058   0.275   0.647   8.719
 4765SOL    HW219059   0.146   0.715   8.759
 4765SOL     MW19060   0.201   0.648   8.765
 4766SOL     OW19061   2.119   8.828   4.997
 4766SOL    HW119062   2.033   8.804   5.031
 4766SOL    HW219063   2.145   8.904   5.049
 4766SOL     MW19064   2.111   8.835   5.009
 4767SOL     OW19065   8.598   4.148   5.741
 4767SOL    HW119066   8.564   4.103   5.818
 4767SOL    HW219067   8.520   4.167   5.688
 4767SOL     MW19068   8.583   4.145   5.744
 4768SOL     OW19069   9.534   9.627   6.905
 4768SOL    HW119070   9.497   9.626   6.817
 4768SOL    HW219071   9.534   9.536   6.933
 4768SOL     MW19072   9.529   9.615   6.897
 4769SOL     OW19073   2.199   3.440   8.101
 4769SOL    HW119074   2.218   3.450   8.195
 4769SOL    HW219075   2.213   3.528   8.065
 4769SOL     MW19076   2.203   3.453   8.109
 4770SOL     OW19077   3.250   1.377   5.645
 4770SOL    HW119078   3.189   1.446   5.669
 4770SOL    HW219079   3.240   1.366   5.551
 4770SOL     MW19080   3.241   1.384   5.636
 4771SOL     OW19081   6.900   7.663   2.192
 4771SOL    HW119082   6.818   7.623   2.163
 4771SOL    HW219083   6.966   7.630   2.130
 4771SOL     MW19084   6.898   7.653   2.179
 4772SOL     OW19085   6.415   6.612   6.976
 4772SOL    HW119086   6.478   6.551   6.938
 4772SOL    HW219087   6.451   6.699   6.958
 4772SOL     MW19088   6.428   6.616   6.969
 4773SOL     OW19089   1.794   4.529   4.081
 4773SOL    HW119090   1.730   4.497   4.018
 4773SOL    HW219091   1.748   4.529   4.164
 4773SOL     MW19092   1.779   4.525   4.083
 4774SOL     OW19093   8.943   0.611   5.295
 4774SOL    HW119094   9.023   0.658   5.318
 4774SOL    HW219095   8.902   0.590   5.379
 4774SOL     MW19096   8.948   0.615   5.309
 4775SOL     OW19097   4.994   6.010   3.528
 4775SOL    HW119098   5.008   6.030   3.435
 4775SOL    HW219099   4.910   5.964   3.530
 4775SOL     MW19100   4.984   6.006   3.516
 4776SOL     OW19101   7.849   9.846   2.320
 4776SOL    HW119102   7.800   9.795   2.384
 4776SOL    HW219103   7.787   9.859   2.247
 4776SOL     MW19104   7.834   9.841   2.319
 4777SOL     OW19105   6.100   4.402   0.257
 4777SOL    HW119106   6.165   4.340   0.290
 4777SOL    HW219107   6.075   4.454   0.333
 4777SOL     MW19108   6.105   4.400   0.272
 4778SOL     OW19109   2.405   6.880   8.639
 4778SOL    HW119110   2.476   6.816   8.632
 4778SOL    HW219111   2.330   6.829   8.671
 4778SOL     MW19112   2.405   6.864   8.643
 4779SOL     OW19113   0.978   3.486   1.227
 4779SOL    HW119114   0.957   3.448   1.313
 4779SOL    HW219115   0.924   3.436   1.166
 4779SOL     MW19116   0.968   3.474   1.231
 4780SOL     OW19117   4.353   7.877   3.642
 4780SOL    HW119118   4.310   7.885   3.728
 4780SOL    HW219119   4.446   7.879   3.663
 4780SOL     MW19120   4.359   7.878   3.657
 4781SOL     OW19121   2.358   8.583   6.454
 4781SOL    HW119122   2.292   8.652   6.454
 4781SOL    HW219123   2.394   8.584   6.366
 4781SOL     MW19124   2.354   8.593   6.442
 4782SOL     OW19125   2.574   2.297   7.963
 4782SOL    HW119126   2.578   2.393   7.961
 4782SOL    HW219127   2.594   2.270   7.873
 4782SOL     MW19128   2.577   2.306   7.951
 4783SOL     OW19129   3.137   5.980   7.825
 4783SOL    HW119130   3.203   5.994   7.757
 4783SOL    HW219131   3.135   6.062   7.873
 4783SOL     MW19132   3.146   5.993   7.822
 4784SOL     OW19133   5.676   1.948   3.411
 4784SOL    HW119134   5.708   2.012   3.474
 4784SOL    HW219135   5.650   1.873   3.465
 4784SOL     MW19136   5.677   1.946   3.427
 4785SOL     OW19137   3.763   4.647   7.378
 4785SOL    HW119138   3.749   4.664   7.285
 4785SOL    HW219139   3.715   4.716   7.423
 4785SOL     MW19140   3.754   4.658   7.372
 4786SOL     OW19141   6.022   3.472   5.003
 4786SOL    HW119142   5.953   3.537   4.996
 4786SOL    HW219143   5.977   3.393   5.033
 4786SOL     MW19144   6.006   3.470   5.006
 4787SOL     OW19145   4.887   6.890   9.874
 4787SOL    HW119146   4.797   6.895   9.905
 4787SOL    HW219147   4.880   6.895   9.779
 4787SOL     MW19148   4.874   6.891   9.866
 4788SOL     OW19149   6.000   4.307   6.755
 4788SOL    HW119150   6.075   4.361   6.731
 4788SOL    HW219151   5.997   4.239   6.688
 4788SOL     MW19152   6.010   4.305   6.743
 4789SOL     OW19153   1.755   5.466   3.780
 4789SOL    HW119154   1.713   5.529   3.721
 4789SOL    HW219155   1.760   5.385   3.728
 4789SOL     MW19156   1.750   5.463   3.765
 4790SOL     OW19157   5.751   2.292   0.036
 4790SOL    HW119158   5.712   2.291   0.124
 4790SOL    HW219159   5.680   2.266  -0.022
 4790SOL     MW19160   5.736   2.288   0.040
 4791SOL     OW19161   6.560   4.826   0.646
 4791SOL    HW119162   6.592   4.737   0.630
 4791SOL    HW219163   6.490   4.815   0.711
 4791SOL     MW19164   6.555   4.813   0.653
 4792SOL     OW19165   5.378   5.224   2.893
 4792SOL    HW119166   5.417   5.157   2.949
 4792SOL    HW219167   5.308   5.178   2.846
 4792SOL     MW19168   5.373   5.209   2.894
 4793SOL     OW19169   8.214   2.070   3.024
 4793SOL    HW119170   8.270   2.108   2.956
 4793SOL    HW219171   8.243   1.979   3.031
 4793SOL     MW19172   8.225   2.063   3.016
 4794SOL     OW19173   1.459   1.072   8.440
 4794SOL    HW119174   1.442   1.053   8.348
 4794SOL    HW219175   1.377   1.109   8.472
 4794SOL     MW19176   1.446   1.074   8.432
 4795SOL     OW19177   2.991   2.991   8.234
 4795SOL    HW119178   2.908   2.969   8.276
 4795SOL    HW219179   3.007   3.082   8.259
 4795SOL     MW19180   2.982   3.000   8.243
 4796SOL     OW19181   0.882   1.867   8.441
 4796SOL    HW119182   0.967   1.896   8.409
 4796SOL    HW219183   0.854   1.936   8.501
 4796SOL     MW19184   0.889   1.880   8.445
 4797SOL     OW19185   4.064   3.409   6.767
 4797SOL    HW119186   4.109   3.442   6.845
 4797SOL    HW219187   4.015   3.484   6.734
 4797SOL     MW19188   4.064   3.423   6.773
 4798SOL     OW19189   5.214   5.476   9.736
 4798SOL    HW119190   5.306   5.477   9.763
 4798SOL    HW219191   5.192   5.569   9.724
 4798SOL     MW19192   5.224   5.489   9.738
 4799SOL     OW19193   0.555   5.635   2.119
 4799SOL    HW119194   0.584   5.726   2.128
 4799SOL    HW219195   0.633   5.588   2.092
 4799SOL     MW19196   0.569   5.641   2.116
 4800SOL     OW19197   3.997   4.671   5.359
 4800SOL    HW119198   3.923   4.729   5.377
 4800SOL    HW219199   3.962   4.583   5.373
 4800SOL     MW19200   3.982   4.667   5.363
 4801SOL     OW19201   5.672   4.498   9.809
 4801SOL    HW119202   5.667   4.474   9.717
 4801SOL    HW219203   5.595   4.457   9.849
 4801SOL     MW19204   5.661   4.489   9.802
 4802SOL     OW19205   3.899   2.771   5.409
 4802SOL    HW119206   3.955   2.843   5.438
 4802SOL    HW219207   3.961   2.702   5.382
 4802SOL     MW19208   3.915   2.771   5.409
 4803SOL     OW19209   3.633   1.336   5.315
 4803SOL    HW119210   3.604   1.423   5.342
 4803SOL    HW219211   3.598   1.325   5.227
 4803SOL     MW19212   3.624   1.346   5.307
 4804SOL     OW19213   6.988   2.516   5.010
 4804SOL    HW119214   7.004   2.547   4.921
 4804SOL    HW219215   7.002   2.593   5.065
 4804SOL     MW19216   6.992   2.530   5.006
 4805SOL     OW19217   6.715   2.070   9.579
 4805SOL    HW119218   6.631   2.079   9.625
 4805SOL    HW219219   6.781   2.091   9.645
 4805SOL     MW19220   6.713   2.074   9.594
 4806SOL     OW19221   4.068   1.208   0.616
 4806SOL    HW119222   4.154   1.168   0.606
 4806SOL    HW219223   4.084   1.286   0.669
 4806SOL     MW19224   4.082   1.213   0.622
 4807SOL     OW19225   0.079   6.084   8.633
 4807SOL    HW119226   0.096   6.171   8.598
 4807SOL    HW219227  -0.016   6.082   8.646
 4807SOL     MW19228   0.068   6.095   8.630
 4808SOL     OW19229   0.566   1.180   7.395
 4808SOL    HW119230   0.474   1.203   7.401
 4808SOL    HW219231   0.612   1.264   7.388
 4808SOL     MW19232   0.560   1.194   7.395
 4809SOL     OW19233   9.684   5.696   6.265
 4809SOL    HW119234   9.634   5.774   6.241
 4809SOL    HW219235   9.618   5.631   6.288
 4809SOL     MW19236   9.669   5.698   6.265
 4810SOL     OW19237   4.696   2.700   5.754
 4810SOL    HW119238   4.661   2.685   5.842
 4810SOL    HW219239   4.628   2.666   5.696
 4810SOL     MW19240   4.682   2.693   5.758
 4811SOL     OW19241   5.521   2.620   2.913
 4811SOL    HW119242   5.512   2.711   2.887
 4811SOL    HW219243   5.598   2.589   2.865
 4811SOL     MW19244   5.530   2.628   2.903
 4812SOL     OW19245   6.584   2.439   2.372
 4812SOL    HW119246   6.653   2.393   2.421
 4812SOL    HW219247   6.540   2.370   2.322
 4812SOL     MW19248   6.587   2.424   2.372
 4813SOL     OW19249   0.851   2.036   3.061
 4813SOL    HW119250   0.813   1.949   3.067
 4813SOL    HW219251   0.848   2.057   2.967
 4813SOL     MW19252   0.845   2.027   3.049
 4814SOL     OW19253   8.788   0.744   3.108
 4814SOL    HW119254   8.770   0.838   3.099
 4814SOL    HW219255   8.882   0.736   3.092
 4814SOL     MW19256   8.798   0.756   3.105
 4815SOL     OW19257   6.747   9.009   6.987
 4815SOL    HW119258   6.717   9.091   6.945
 4815SOL    HW219259   6.815   8.976   6.928
 4815SOL     MW19260   6.752   9.016   6.973
 4816SOL     OW19261   6.931   3.872   2.862
 4816SOL    HW119262   6.990   3.873   2.937
 4816SOL    HW219263   6.989   3.874   2.786
 4816SOL     MW19264   6.947   3.872   2.862
 4817SOL     OW19265   8.582   1.976   9.585
 4817SOL    HW119266   8.633   1.904   9.549
 4817SOL    HW219267   8.497   1.938   9.606
 4817SOL     MW19268   8.577   1.961   9.583
 4818SOL     OW19269   2.920   3.991   6.966
 4818SOL    HW119270   2.966   4.075   6.976
 4818SOL    HW219271   2.872   3.980   7.048
 4818SOL     MW19272   2.920   4.001   6.978
 4819SOL     OW19273   7.248   8.706   9.819
 4819SOL    HW119274   7.196   8.646   9.872
 4819SOL    HW219275   7.213   8.792   9.839
 4819SOL     MW19276   7.237   8.709   9.829
 4820SOL     OW19277   8.527   1.470   9.869
 4820SOL    HW119278   8.570   1.398   9.823
 4820SOL    HW219279   8.540   1.449   9.962
 4820SOL     MW19280   8.535   1.458   9.876
 4821SOL     OW19281   3.677   3.469   9.719
 4821SOL    HW119282   3.667   3.441   9.810
 4821SOL    HW219283   3.622   3.546   9.710
 4821SOL     MW19284   3.668   3.475   9.730
 4822SOL     OW19285   3.661   0.237   7.225
 4822SOL    HW119286   3.574   0.211   7.255
 4822SOL    HW219287   3.708   0.258   7.305
 4822SOL     MW19288   3.656   0.236   7.240
 4823SOL     OW19289   0.065   8.294   5.798
 4823SOL    HW119290  -0.028   8.279   5.813
 4823SOL    HW219291   0.110   8.229   5.851
 4823SOL     MW19292   0.058   8.284   5.807
 4824SOL     OW19293   8.284   9.662   0.368
 4824SOL    HW119294   8.351   9.612   0.322
 4824SOL    HW219295   8.333   9.722   0.425
 4824SOL     MW19296   8.300   9.664   0.369
 4825SOL     OW19297   9.573   1.313   5.564
 4825SOL    HW119298   9.490   1.304   5.611
 4825SOL    HW219299   9.628   1.367   5.620
 4825SOL     MW19300   9.569   1.319   5.578
 4826SOL     OW19301   1.166   3.586   2.859
 4826SOL    HW119302   1.156   3.678   2.836
 4826SOL    HW219303   1.248   3.559   2.818
 4826SOL     MW19304   1.176   3.595   2.851
 4827SOL     OW19305   8.258   5.768   5.299
 4827SOL    HW119306   8.176   5.814   5.317
 4827SOL    HW219307   8.322   5.837   5.283
 4827SOL     MW19308   8.255   5.783   5.299
 4828SOL     OW19309   4.451   7.529   4.432
 4828SOL    HW119310   4.535   7.547   4.391
 4828SOL    HW219311   4.428   7.611   4.477
 4828SOL     MW19312   4.459   7.543   4.433
 4829SOL     OW19313   6.406   8.310   3.710
 4829SOL    HW119314   6.498   8.333   3.726
 4829SOL    HW219315   6.400   8.298   3.615
 4829SOL     MW19316   6.418   8.312   3.699
 4830SOL     OW19317   4.581   2.847   6.181
 4830SOL    HW119318   4.538   2.887   6.257
 4830SOL    HW219319   4.619   2.766   6.215
 4830SOL     MW19320   4.580   2.841   6.196
 4831SOL     OW19321   5.030   1.154   7.506
 4831SOL    HW119322   5.087   1.223   7.539
 4831SOL    HW219323   4.991   1.190   7.427
 4831SOL     MW19324   5.032   1.168   7.500
 4832SOL     OW19325   2.168   2.700   2.774
 4832SOL    HW119326   2.233   2.731   2.836
 4832SOL    HW219327   2.217   2.648   2.711
 4832SOL     MW19328   2.183   2.697   2.774
 4833SOL     OW19329   6.037   8.338   9.742
 4833SOL    HW119330   6.115   8.303   9.699
 4833SOL    HW219331   6.019   8.420   9.696
 4833SOL     MW19332   6.045   8.345   9.730
 4834SOL     OW19333   9.519   8.442   7.233
 4834SOL    HW119334   9.508   8.350   7.210
 4834SOL    HW219335   9.541   8.485   7.150
 4834SOL     MW19336   9.520   8.436   7.218
 4835SOL     OW19337   8.705   8.412   9.546
 4835SOL    HW119338   8.756   8.395   9.625
 4835SOL    HW219339   8.728   8.340   9.486
 4835SOL     MW19340   8.715   8.400   9.548
 4836SOL     OW19341   8.951   5.673   2.829
 4836SOL    HW119342   8.949   5.587   2.788
 4836SOL    HW219343   9.015   5.722   2.778
 4836SOL     MW19344   8.959   5.668   2.817
 4837SOL     OW19345   3.483   6.572   0.357
 4837SOL    HW119346   3.459   6.603   0.269
 4837SOL    HW219347   3.400   6.549   0.398
 4837SOL     MW19348   3.469   6.573   0.350
 4838SOL     OW19349   7.443   6.432   3.967
 4838SOL    HW119350   7.472   6.478   3.889
 4838SOL    HW219351   7.484   6.346   3.962
 4838SOL     MW19352   7.452   6.426   3.956
 4839SOL     OW19353   5.390   0.164   0.326
 4839SOL    HW119354   5.417   0.230   0.262
 4839SOL    HW219355   5.434   0.084   0.297
 4839SOL     MW19356   5.400   0.162   0.313
 4840SOL     OW19357   2.249   0.993   9.854
 4840SOL    HW119358   2.291   1.058   9.911
 4840SOL    HW219359   2.306   0.916   9.861
 4840SOL     MW19360   2.263   0.991   9.863
 4841SOL     OW19361   7.690   1.306   2.699
 4841SOL    HW119362   7.614   1.328   2.646
 4841SOL    HW219363   7.656   1.252   2.770
 4841SOL     MW19364   7.675   1.302   2.701
 4842SOL     OW19365   9.142   0.085   7.747
 4842SOL    HW119366   9.222   0.039   7.771
 4842SOL    HW219367   9.081   0.066   7.819
 4842SOL     MW19368   9.144   0.076   7.760
 4843SOL     OW19369   2.713   3.584   2.409
 4843SOL    HW119370   2.742   3.630   2.488
 4843SOL    HW219371   2.789   3.585   2.351
 4843SOL     MW19372   2.727   3.590   2.412
 4844SOL     OW19373   3.449   8.213   2.511
 4844SOL    HW119374   3.488   8.206   2.424
 4844SOL    HW219375   3.482   8.136   2.558
 4844SOL     MW19376   3.459   8.202   2.505
 4845SOL     OW19377   0.867   6.689   2.511
 4845SOL    HW119378   0.906   6.606   2.484
 4845SOL    HW219379   0.803   6.665   2.577
 4845SOL     MW19380   0.864   6.675   2.516
 4846SOL     OW19381   3.227   1.686   4.224
 4846SOL    HW119382   3.141   1.646   4.230
 4846SOL    HW219383   3.231   1.747   4.298
 4846SOL     MW19384   3.216   1.689   4.235
 4847SOL     OW19385   0.697   3.286   2.613
 4847SOL    HW119386   0.690   3.299   2.708
 4847SOL    HW219387   0.781   3.325   2.589
 4847SOL     MW19388   0.707   3.293   2.623
 4848SOL     OW19389   0.225   2.082   1.256
 4848SOL    HW119390   0.238   2.123   1.341
 4848SOL    HW219391   0.301   2.110   1.204
 4848SOL     MW19392   0.237   2.091   1.260
 4849SOL     OW19393   6.454   1.889   5.683
 4849SOL    HW119394   6.529   1.835   5.656
 4849SOL    HW219395   6.455   1.886   5.778
 4849SOL     MW19396   6.464   1.881   5.692
 4850SOL     OW19397   7.536   6.369   7.323
 4850SOL    HW119398   7.543   6.339   7.414
 4850SOL    HW219399   7.579   6.455   7.323
 4850SOL     MW19400   7.543   6.377   7.336
 4851SOL     OW19401   9.009   9.875   8.739
 4851SOL    HW119402   9.023   9.968   8.753
 4851SOL    HW219403   8.957   9.870   8.659
 4851SOL     MW19404   9.004   9.887   8.730
 4852SOL     OW19405   6.003   8.668   6.847
 4852SOL    HW119406   6.079   8.618   6.875
 4852SOL    HW219407   5.983   8.726   6.921
 4852SOL     MW19408   6.010   8.669   6.861
 4853SOL     OW19409   9.135   4.538   4.948
 4853SOL    HW119410   9.091   4.566   4.867
 4853SOL    HW219411   9.117   4.444   4.954
 4853SOL     MW19412   9.127   4.529   4.938
 4854SOL     OW19413   9.693   0.784   1.482
 4854SOL    HW119414   9.647   0.702   1.502
 4854SOL    HW219415   9.782   0.770   1.513
 4854SOL     MW19416   9.699   0.771   1.489
 4855SOL     OW19417   3.705   9.304   1.943
 4855SOL    HW119418   3.725   9.215   1.971
 4855SOL    HW219419   3.618   9.298   1.903
 4855SOL     MW19420   3.696   9.291   1.941
 4856SOL     OW19421   4.335   1.889   9.465
 4856SOL    HW119422   4.262   1.892   9.527
 4856SOL    HW219423   4.402   1.947   9.502
 4856SOL     MW19424   4.335   1.897   9.478
 4857SOL     OW19425   8.142   3.254   9.116
 4857SOL    HW119426   8.216   3.210   9.074
 4857SOL    HW219427   8.087   3.182   9.148
 4857SOL     MW19428   8.144   3.238   9.115
 4858SOL     OW19429   2.935   0.373   4.210
 4858SOL    HW119430   2.993   0.430   4.161
 4858SOL    HW219431   2.978   0.287   4.207
 4858SOL     MW19432   2.949   0.369   4.203
 4859SOL     OW19433   4.381   4.952   6.681
 4859SOL    HW119434   4.317   4.900   6.729
 4859SOL    HW219435   4.329   5.019   6.636
 4859SOL     MW19436   4.365   4.954   6.681
 4860SOL     OW19437   4.329   8.771   3.316
 4860SOL    HW119438   4.238   8.797   3.328
 4860SOL    HW219439   4.331   8.730   3.230
 4860SOL     MW19440   4.317   8.769   3.306
 4861SOL     OW19441   0.805   6.753   7.278
 4861SOL    HW119442   0.832   6.664   7.258
 4861SOL    HW219443   0.888   6.801   7.290
 4861SOL     MW19444   0.820   6.748   7.277
 4862SOL     OW19445   1.111   6.595   5.915
 4862SOL    HW119446   1.187   6.640   5.878
 4862SOL    HW219447   1.141   6.505   5.928
 4862SOL     MW19448   1.126   6.589   5.912
 4863SOL     OW19449   9.658   2.995  10.057
 4863SOL    HW119450   9.623   3.067  10.003
 4863SOL    HW219451   9.726   3.035  10.110
 4863SOL     MW19452   9.662   3.010  10.057
 4864SOL     OW19453   2.878   3.971   9.930
 4864SOL    HW119454   2.852   4.059   9.958
 4864SOL    HW219455   2.867   3.917  10.008
 4864SOL     MW19456   2.873   3.975   9.944
 4865SOL     OW19457   1.348   7.346   1.848
 4865SOL    HW119458   1.361   7.435   1.816
 4865SOL    HW219459   1.276   7.311   1.795
 4865SOL     MW19460   1.340   7.353   1.836
 4866SOL     OW19461   8.059   0.003   5.167
 4866SOL    HW119462   8.146   0.038   5.149
 4866SOL    HW219463   8.042   0.028   5.258
 4866SOL     MW19464   8.068   0.011   5.177
 4867SOL     OW19465   0.011   4.077   6.127
 4867SOL    HW119466   0.091   4.053   6.081
 4867SOL    HW219467   0.036   4.078   6.220
 4867SOL     MW19468   0.025   4.074   6.134
 4868SOL     OW19469   8.253  10.025   4.521
 4868SOL    HW119470   8.229   9.935   4.544
 4868SOL    HW219471   8.171  10.064   4.491
 4868SOL     MW19472   8.238  10.018   4.520
 4869SOL     OW19473   8.585   8.813   7.198
 4869SOL    HW119474   8.549   8.726   7.184
 4869SOL    HW219475   8.513   8.872   7.178
 4869SOL     MW19476   8.571   8.809   7.194
 4870SOL     OW19477   5.846   7.491   8.700
 4870SOL    HW119478   5.848   7.502   8.605
 4870SOL    HW219479   5.912   7.551   8.733
 4870SOL     MW19480   5.855   7.500   8.691
 4871SOL     OW19481   7.647   6.310   9.160
 4871SOL    HW119482   7.576   6.334   9.101
 4871SOL    HW219483   7.725   6.349   9.121
 4871SOL     MW19484   7.648   6.318   9.147
 4872SOL     OW19485   6.120   2.629   0.120
 4872SOL    HW119486   6.068   2.568   0.067
 4872SOL    HW219487   6.157   2.575   0.189
 4872SOL     MW19488   6.118   2.614   0.122
 4873SOL     OW19489   2.380   4.973   0.403
 4873SOL    HW119490   2.350   4.883   0.418
 4873SOL    HW219491   2.475   4.967   0.399
 4873SOL     MW19492   2.389   4.960   0.405
 4874SOL     OW19493   3.549   8.710   2.466
 4874SOL    HW119494   3.507   8.774   2.524
 4874SOL    HW219495   3.502   8.628   2.482
 4874SOL     MW19496   3.537   8.708   2.476
 4875SOL     OW19497   2.672   0.749   3.008
 4875SOL    HW119498   2.749   0.804   2.993
 4875SOL    HW219499   2.709   0.663   3.027
 4875SOL     MW19500   2.688   0.745   3.008
 4876SOL     OW19501   2.758   3.621   9.884
 4876SOL    HW119502   2.827   3.554   9.882
 4876SOL    HW219503   2.780   3.680   9.812
 4876SOL     MW19504   2.770   3.620   9.874
 4877SOL     OW19505   2.486   4.662   5.249
 4877SOL    HW119506   2.561   4.717   5.272
 4877SOL    HW219507   2.526   4.582   5.214
 4877SOL     MW19508   2.502   4.659   5.247
 4878SOL     OW19509   0.196   5.999   1.054
 4878SOL    HW119510   0.160   6.028   1.137
 4878SOL    HW219511   0.276   5.952   1.077
 4878SOL     MW19512   0.202   5.996   1.068
 4879SOL     OW19513   7.277   2.885   1.681
 4879SOL    HW119514   7.232   2.958   1.724
 4879SOL    HW219515   7.369   2.912   1.679
 4879SOL     MW19516   7.283   2.898   1.687
 4880SOL     OW19517   0.840   8.108   6.829
 4880SOL    HW119518   0.844   8.093   6.924
 4880SOL    HW219519   0.746   8.109   6.809
 4880SOL     MW19520   0.828   8.106   6.839
 4881SOL     OW19521   6.207   2.103   4.117
 4881SOL    HW119522   6.182   2.194   4.134
 4881SOL    HW219523   6.223   2.066   4.204
 4881SOL     MW19524   6.206   2.110   4.131
 4882SOL     OW19525   1.749   7.878  10.166
 4882SOL    HW119526   1.838   7.896  10.136
 4882SOL    HW219527   1.699   7.957  10.142
 4882SOL     MW19528   1.754   7.891  10.159
 4883SOL     OW19529   8.024   2.503   6.706
 4883SOL    HW119530   7.948   2.511   6.647
 4883SOL    HW219531   8.075   2.430   6.669
 4883SOL     MW19532   8.020   2.494   6.693
 4884SOL     OW19533   3.038   5.119   1.465
 4884SOL    HW119534   2.944   5.105   1.474
 4884SOL    HW219535   3.064   5.167   1.543
 4884SOL     MW19536   3.029   5.124   1.477
 4885SOL     OW19537   7.734   2.882   7.144
 4885SOL    HW119538   7.707   2.822   7.213
 4885SOL    HW219539   7.830   2.880   7.147
 4885SOL     MW19540   7.743   2.874   7.153
 4886SOL     OW19541   7.906   2.400   1.452
 4886SOL    HW119542   7.883   2.474   1.395
 4886SOL    HW219543   7.827   2.382   1.502
 4886SOL     MW19544   7.892   2.407   1.451
 4887SOL     OW19545   9.974   0.130   3.231
 4887SOL    HW119546  10.016   0.166   3.153
 4887SOL    HW219547  10.044   0.124   3.296
 4887SOL     MW19548   9.989   0.134   3.229
 4888SOL     OW19549   9.198   0.100   1.834
 4888SOL    HW119550   9.288   0.099   1.866
 4888SOL    HW219551   9.175   0.008   1.825
 4888SOL     MW19552   9.207   0.088   1.837
 4889SOL     OW19553   1.022   2.192   4.872
 4889SOL    HW119554   0.995   2.246   4.946
 4889SOL    HW219555   0.953   2.126   4.865
 4889SOL     MW19556   1.009   2.190   4.881
 4890SOL     OW19557   9.386   9.660   6.671
 4890SOL    HW119558   9.356   9.736   6.720
 4890SOL    HW219559   9.312   9.600   6.672
 4890SOL     MW19560   9.372   9.662   6.678
 4891SOL     OW19561   8.824   5.363   3.014
 4891SOL    HW119562   8.744   5.311   3.023
 4891SOL    HW219563   8.800   5.450   3.046
 4891SOL     MW19564   8.810   5.368   3.020
 4892SOL     OW19565   4.797   6.773   7.490
 4892SOL    HW119566   4.796   6.781   7.586
 4892SOL    HW219567   4.784   6.680   7.474
 4892SOL     MW19568   4.795   6.762   7.501
 4893SOL     OW19569   3.343   6.489   2.553
 4893SOL    HW119570   3.341   6.581   2.579
 4893SOL    HW219571   3.428   6.478   2.510
 4893SOL     MW19572   3.354   6.500   2.551
 4894SOL     OW19573   2.873   6.045   0.653
 4894SOL    HW119574   2.794   5.993   0.668
 4894SOL    HW219575   2.883   6.096   0.733
 4894SOL     MW19576   2.863   6.045   0.666
 4895SOL     OW19577   8.670   3.448   0.686
 4895SOL    HW119578   8.600   3.508   0.661
 4895SOL    HW219579   8.737   3.458   0.618
 4895SOL     MW19580   8.670   3.457   0.674
 4896SOL     OW19581   6.528   7.574   0.768
 4896SOL    HW119582   6.518   7.646   0.706
 4896SOL    HW219583   6.617   7.582   0.801
 4896SOL     MW19584   6.538   7.584   0.764
 4897SOL     OW19585   4.619   6.703   7.967
 4897SOL    HW119586   4.565   6.625   7.956
 4897SOL    HW219587   4.585   6.745   8.045
 4897SOL     MW19588   4.607   6.698   7.976
 4898SOL     OW19589   9.305   2.056   5.523
 4898SOL    HW119590   9.384   2.072   5.576
 4898SOL    HW219591   9.239   2.115   5.560
 4898SOL     MW19592   9.307   2.066   5.535
 4899SOL     OW19593   7.706   7.962   8.420
 4899SOL    HW119594   7.788   7.935   8.379
 4899SOL    HW219595   7.638   7.937   8.356
 4899SOL     MW19596   7.708   7.955   8.406
 4900SOL     OW19597   0.754   7.166   8.576
 4900SOL    HW119598   0.737   7.260   8.575
 4900SOL    HW219599   0.829   7.155   8.518
 4900SOL     MW19600   0.762   7.177   8.568
 4901SOL     OW19601   0.025   9.317   2.827
 4901SOL    HW119602   0.046   9.226   2.808
 4901SOL    HW219603  -0.070   9.321   2.827
 4901SOL     MW19604   0.015   9.306   2.824
 4902SOL     OW19605   1.304   6.248   6.428
 4902SOL    HW119606   1.394   6.282   6.427
 4902SOL    HW219607   1.263   6.288   6.352
 4902SOL     MW19608   1.311   6.258   6.418
 4903SOL     OW19609   2.790   3.968   7.211
 4903SOL    HW119610   2.758   4.027   7.279
 4903SOL    HW219611   2.774   3.880   7.246
 4903SOL     MW19612   2.783   3.964   7.225
 4904SOL     OW19613   3.433   8.764   3.859
 4904SOL    HW119614   3.486   8.734   3.785
 4904SOL    HW219615   3.432   8.859   3.851
 4904SOL     MW19616   3.440   8.772   3.848
 4905SOL     OW19617   4.453   7.954   4.976
 4905SOL    HW119618   4.509   8.029   4.960
 4905SOL    HW219619   4.391   7.954   4.903
 4905SOL     MW19620   4.452   7.964   4.964
 4906SOL     OW19621   3.834   2.424   9.167
 4906SOL    HW119622   3.890   2.495   9.136
 4906SOL    HW219623   3.880   2.387   9.242
 4906SOL     MW19624   3.847   2.428   9.173
 4907SOL     OW19625   6.796   2.324   2.511
 4907SOL    HW119626   6.870   2.384   2.510
 4907SOL    HW219627   6.791   2.294   2.602
 4907SOL     MW19628   6.805   2.328   2.523
 4908SOL     OW19629   9.210   5.814   6.530
 4908SOL    HW119630   9.256   5.869   6.467
 4908SOL    HW219631   9.271   5.743   6.549
 4908SOL     MW19632   9.225   5.812   6.524
 4909SOL     OW19633   9.065   3.433   6.725
 4909SOL    HW119634   9.054   3.415   6.632
 4909SOL    HW219635   9.092   3.525   6.729
 4909SOL     MW19636   9.067   3.443   6.713
 4910SOL     OW19637   0.887   5.436   1.565
 4910SOL    HW119638   0.976   5.470   1.551
 4910SOL    HW219639   0.855   5.419   1.476
 4910SOL     MW19640   0.895   5.438   1.551
 4911SOL     OW19641   4.486   6.594   9.575
 4911SOL    HW119642   4.556   6.546   9.619
 4911SOL    HW219643   4.530   6.670   9.537
 4911SOL     MW19644   4.501   6.598   9.576
 4912SOL     OW19645   5.071   8.340   2.880
 4912SOL    HW119646   4.977   8.323   2.886
 4912SOL    HW219647   5.087   8.410   2.943
 4912SOL     MW19648   5.061   8.347   2.889
 4913SOL     OW19649   5.803   7.114   7.348
 4913SOL    HW119650   5.721   7.080   7.313
 4913SOL    HW219651   5.779   7.150   7.434
 4913SOL     MW19652   5.789   7.114   7.355
 4914SOL     OW19653   6.461   1.863   8.289
 4914SOL    HW119654   6.525   1.932   8.305
 4914SOL    HW219655   6.500   1.785   8.329
 4914SOL     MW19656   6.475   1.862   8.296
 4915SOL     OW19657   8.155   3.200   3.685
 4915SOL    HW119658   8.062   3.219   3.680
 4915SOL    HW219659   8.168   3.128   3.623
 4915SOL     MW19660   8.144   3.193   3.676
 4916SOL     OW19661   0.978   6.638   3.948
 4916SOL    HW119662   0.939   6.720   3.918
 4916SOL    HW219663   0.955   6.575   3.880
 4916SOL     MW19664   0.970   6.641   3.934
 4917SOL     OW19665   3.057   1.563   5.708
 4917SOL    HW119666   2.975   1.555   5.658
 4917SOL    HW219667   3.061   1.656   5.733
 4917SOL     MW19668   3.046   1.575   5.704
 4918SOL     OW19669   8.468   9.232   5.785
 4918SOL    HW119670   8.422   9.252   5.703
 4918SOL    HW219671   8.498   9.317   5.817
 4918SOL     MW19672   8.466   9.246   5.778
 4919SOL     OW19673   9.432   9.568   6.408
 4919SOL    HW119674   9.522   9.537   6.407
 4919SOL    HW219675   9.422   9.611   6.493
 4919SOL     MW19676   9.443   9.570   6.419
 4920SOL     OW19677   8.456   9.213   1.497
 4920SOL    HW119678   8.538   9.218   1.449
 4920SOL    HW219679   8.481   9.176   1.582
 4920SOL     MW19680   8.470   9.209   1.502
 4921SOL     OW19681   5.653   9.985   5.878
 4921SOL    HW119682   5.700   9.901   5.884
 4921SOL    HW219683   5.722  10.051   5.881
 4921SOL     MW19684   5.669   9.983   5.879
 4922SOL     OW19685   3.370   2.019   0.365
 4922SOL    HW119686   3.325   1.935   0.370
 4922SOL    HW219687   3.310   2.076   0.317
 4922SOL     MW19688   3.356   2.015   0.359
 4923SOL     OW19689   6.912   6.482   1.639
 4923SOL    HW119690   6.888   6.411   1.580
 4923SOL    HW219691   6.828   6.514   1.673
 4923SOL     MW19692   6.897   6.477   1.636
 4924SOL     OW19693   1.807   2.160   5.481
 4924SOL    HW119694   1.779   2.120   5.399
 4924SOL    HW219695   1.761   2.243   5.485
 4924SOL     MW19696   1.797   2.166   5.471
 4925SOL     OW19697   3.027   2.159   7.477
 4925SOL    HW119698   3.062   2.132   7.562
 4925SOL    HW219699   3.104   2.164   7.420
 4925SOL     MW19700   3.042   2.156   7.481
 4926SOL     OW19701   4.645   7.778   1.570
 4926SOL    HW119702   4.647   7.693   1.614
 4926SOL    HW219703   4.736   7.808   1.570
 4926SOL     MW19704   4.657   7.771   1.576
 4927SOL     OW19705   8.399   4.712   2.225
 4927SOL    HW119706   8.348   4.773   2.279
 4927SOL    HW219707   8.396   4.629   2.272
 4927SOL     MW19708   8.392   4.709   2.238
 4928SOL     OW19709   8.821   1.994   6.323
 4928SOL    HW119710   8.730   1.993   6.294
 4928SOL    HW219711   8.847   1.902   6.320
 4928SOL     MW19712   8.812   1.981   6.319
 4929SOL     OW19713   4.217   2.017   9.256
 4929SOL    HW119714   4.228   1.964   9.177
 4929SOL    HW219715   4.265   1.969   9.323
 4929SOL     MW19716   4.225   2.004   9.254
 4930SOL     OW19717   6.717   4.005   0.287
 4930SOL    HW119718   6.759   3.946   0.225
 4930SOL    HW219719   6.638   3.959   0.314
 4930SOL     MW19720   6.712   3.991   0.282
 4931SOL     OW19721   8.176   9.676   9.304
 4931SOL    HW119722   8.236   9.636   9.368
 4931SOL    HW219723   8.092   9.633   9.320
 4931SOL     MW19724   8.173   9.665   9.315
 4932SOL     OW19725   3.577   4.089   2.407
 4932SOL    HW119726   3.594   4.017   2.468
 4932SOL    HW219727   3.538   4.157   2.461
 4932SOL     MW19728   3.574   4.088   2.422
 4933SOL     OW19729   5.717   4.702   6.679
 4933SOL    HW119730   5.771   4.645   6.733
 4933SOL    HW219731   5.645   4.728   6.736
 4933SOL     MW19732   5.715   4.698   6.694
 4934SOL     OW19733   0.945   6.281   6.373
 4934SOL    HW119734   0.932   6.189   6.395
 4934SOL    HW219735   0.989   6.318   6.450
 4934SOL     MW19736   0.949   6.274   6.387
 4935SOL     OW19737   0.431   5.508   7.975
 4935SOL    HW119738   0.443   5.589   8.025
 4935SOL    HW219739   0.496   5.514   7.905
 4935SOL     MW19740   0.442   5.520   7.972
 4936SOL     OW19741  10.121   8.084   0.656
 4936SOL    HW119742  10.042   8.107   0.706
 4936SOL    HW219743  10.148   8.165   0.614
 4936SOL     MW19744  10.114   8.098   0.657
 4937SOL     OW19745   4.869   7.583   0.430
 4937SOL    HW119746   4.959   7.555   0.446
 4937SOL    HW219747   4.832   7.517   0.371
 4937SOL     MW19748   4.876   7.571   0.424
 4938SOL     OW19749   3.506   1.452   3.355
 4938SOL    HW119750   3.563   1.474   3.282
 4938SOL    HW219751   3.451   1.380   3.323
 4938SOL     MW19752   3.506   1.445   3.341
 4939SOL     OW19753   4.732   2.604   6.196
 4939SOL    HW119754   4.785   2.545   6.250
 4939SOL    HW219755   4.795   2.667   6.161
 4939SOL     MW19756   4.748   2.605   6.198
 4940SOL     OW19757   1.407   4.993   4.274
 4940SOL    HW119758   1.477   4.976   4.210
 4940SOL    HW219759   1.445   5.057   4.334
 4940SOL     MW19760   1.422   4.999   4.273
 4941SOL     OW19761   3.344   7.113   1.102
 4941SOL    HW119762   3.333   7.207   1.118
 4941SOL    HW219763   3.421   7.108   1.045
 4941SOL     MW19764   3.353   7.125   1.097
 4942SOL     OW19765   9.260   0.017   5.001
 4942SOL    HW119766   9.322   0.051   4.935
 4942SOL    HW219767   9.182   0.071   4.990
 4942SOL     MW19768   9.258   0.029   4.991
 4943SOL     OW19769   6.491   7.542   9.231
 4943SOL    HW119770   6.559   7.491   9.274
 4943SOL    HW219771   6.493   7.513   9.140
 4943SOL     MW19772   6.500   7.531   9.225
 4944SOL     OW19773   4.365   6.318   4.740
 4944SOL    HW119774   4.459   6.317   4.759
 4944SOL    HW219775   4.333   6.398   4.780
 4944SOL     MW19776   4.373   6.328   4.748
 4945SOL     OW19777   1.661   1.527   6.283
 4945SOL    HW119778   1.655   1.509   6.190
 4945SOL    HW219779   1.679   1.442   6.323
 4945SOL     MW19780   1.662   1.513   6.276
 4946SOL     OW19781   4.416   8.676   2.811
 4946SOL    HW119782   4.355   8.708   2.743
 4946SOL    HW219783   4.498   8.721   2.792
 4946SOL     MW19784   4.419   8.687   2.799
 4947SOL     OW19785   8.561   8.369   2.597
 4947SOL    HW119786   8.610   8.417   2.530
 4947SOL    HW219787   8.602   8.394   2.680
 4947SOL     MW19788   8.573   8.379   2.599
 4948SOL     OW19789   8.626   3.149   4.659
 4948SOL    HW119790   8.548   3.121   4.706
 4948SOL    HW219791   8.594   3.210   4.593
 4948SOL     MW19792   8.611   3.153   4.656
 4949SOL     OW19793   1.963   3.154   0.258
 4949SOL    HW119794   2.011   3.152   0.340
 4949SOL    HW219795   2.013   3.098   0.199
 4949SOL     MW19796   1.976   3.146   0.261
 4950SOL     OW19797   3.792   7.621   0.755
 4950SOL    HW119798   3.835   7.699   0.789
 4950SOL    HW219799   3.818   7.551   0.814
 4950SOL     MW19800   3.801   7.622   0.767
 4951SOL     OW19801   8.104   2.900   7.518
 4951SOL    HW119802   8.136   2.949   7.442
 4951SOL    HW219803   8.062   2.966   7.573
 4951SOL     MW19804   8.103   2.915   7.515
 4952SOL     OW19805   4.704   1.389   9.153
 4952SOL    HW119806   4.669   1.407   9.066
 4952SOL    HW219807   4.735   1.298   9.148
 4952SOL     MW19808   4.704   1.379   9.141
 4953SOL     OW19809   1.843   0.446   4.957
 4953SOL    HW119810   1.914   0.484   4.904
 4953SOL    HW219811   1.830   0.510   5.027
 4953SOL     MW19812   1.851   0.460   4.960
 4954SOL     OW19813   8.960   2.215   5.835
 4954SOL    HW119814   8.870   2.209   5.803
 4954SOL    HW219815   9.014   2.218   5.756
 4954SOL     MW19816   8.955   2.214   5.820
 4955SOL     OW19817   8.919   0.510   3.559
 4955SOL    HW119818   8.836   0.465   3.543
 4955SOL    HW219819   8.907   0.556   3.642
 4955SOL     MW19820   8.906   0.510   3.568
 4956SOL     OW19821   3.791   2.861   0.952
 4956SOL    HW119822   3.780   2.943   1.000
 4956SOL    HW219823   3.885   2.846   0.949
 4956SOL     MW19824   3.802   2.870   0.958
 4957SOL     OW19825   0.048   5.047   8.031
 4957SOL    HW119826   0.138   5.017   8.045
 4957SOL    HW219827   0.017   5.072   8.117
 4957SOL     MW19828   0.056   5.047   8.044
 4958SOL     OW19829   1.318   4.937   2.268
 4958SOL    HW119830   1.341   4.862   2.213
 4958SOL    HW219831   1.401   4.974   2.296
 4958SOL     MW19832   1.332   4.932   2.264
 4959SOL     OW19833   1.500   5.851   1.826
 4959SOL    HW119834   1.506   5.889   1.738
 4959SOL    HW219835   1.406   5.841   1.842
 4959SOL     MW19836   1.488   5.854   1.816
 4960SOL     OW19837   4.376   7.716   3.414
 4960SOL    HW119838   4.357   7.762   3.496
 4960SOL    HW219839   4.471   7.710   3.410
 4960SOL     MW19840   4.386   7.721   3.424
 4961SOL     OW19841   9.759   8.325  10.043
 4961SOL    HW119842   9.724   8.323   9.954
 4961SOL    HW219843   9.681   8.321  10.099
 4961SOL     MW19844   9.744   8.324  10.039
 4962SOL     OW19845   2.213   6.883   1.057
 4962SOL    HW119846   2.169   6.829   0.992
 4962SOL    HW219847   2.149   6.950   1.082
 4962SOL     MW19848   2.199   6.885   1.052
 4963SOL     OW19849   6.863   6.062   3.506
 4963SOL    HW119850   6.924   5.994   3.475
 4963SOL    HW219851   6.916   6.116   3.565
 4963SOL     MW19852   6.879   6.060   3.510
 4964SOL     OW19853   3.644   1.783   4.217
 4964SOL    HW119854   3.644   1.739   4.132
 4964SOL    HW219855   3.621   1.874   4.198
 4964SOL     MW19856   3.641   1.789   4.203
 4965SOL     OW19857   5.620   5.315   2.783
 4965SOL    HW119858   5.637   5.408   2.799
 4965SOL    HW219859   5.531   5.302   2.816
 4965SOL     MW19860   5.610   5.326   2.790
 4966SOL     OW19861   8.639   5.648   4.259
 4966SOL    HW119862   8.556   5.600   4.263
 4966SOL    HW219863   8.692   5.599   4.197
 4966SOL     MW19864   8.635   5.635   4.251
 4967SOL     OW19865   7.468   8.515   9.405
 4967SOL    HW119866   7.465   8.546   9.495
 4967SOL    HW219867   7.446   8.592   9.352
 4967SOL     MW19868   7.465   8.529   9.410
 4968SOL     OW19869   3.286   1.111   4.766
 4968SOL    HW119870   3.336   1.151   4.695
 4968SOL    HW219871   3.239   1.184   4.806
 4968SOL     MW19872   3.287   1.126   4.762
 4969SOL     OW19873   3.370   2.205   2.339
 4969SOL    HW119874   3.374   2.300   2.329
 4969SOL    HW219875   3.458   2.174   2.319
 4969SOL     MW19876   3.382   2.213   2.335
 4970SOL     OW19877   7.809   9.542   3.986
 4970SOL    HW119878   7.829   9.632   4.013
 4970SOL    HW219879   7.789   9.549   3.893
 4970SOL     MW19880   7.809   9.555   3.977
 4971SOL     OW19881   6.759   2.776   6.801
 4971SOL    HW119882   6.845   2.795   6.838
 4971SOL    HW219883   6.771   2.783   6.707
 4971SOL     MW19884   6.772   2.779   6.794
 4972SOL     OW19885   2.886   4.602   3.227
 4972SOL    HW119886   2.884   4.668   3.157
 4972SOL    HW219887   2.898   4.653   3.308
 4972SOL     MW19888   2.888   4.618   3.229
 4973SOL     OW19889   7.618   9.152   3.874
 4973SOL    HW119890   7.552   9.104   3.924
 4973SOL    HW219891   7.670   9.196   3.941
 4973SOL     MW19892   7.616   9.151   3.890
 4974SOL     OW19893   1.518   3.589   9.688
 4974SOL    HW119894   1.431   3.554   9.704
 4974SOL    HW219895   1.532   3.577   9.594
 4974SOL     MW19896   1.508   3.583   9.678
 4975SOL     OW19897   5.226   3.175   3.776
 4975SOL    HW119898   5.250   3.168   3.869
 4975SOL    HW219899   5.167   3.249   3.772
 4975SOL     MW19900   5.222   3.184   3.788
 4976SOL     OW19901   5.607   8.586   6.544
 4976SOL    HW119902   5.657   8.568   6.464
 4976SOL    HW219903   5.560   8.667   6.525
 4976SOL     MW19904   5.608   8.595   6.531
 4977SOL     OW19905   4.065   3.995   9.483
 4977SOL    HW119906   4.019   4.010   9.400
 4977SOL    HW219907   4.087   4.083   9.514
 4977SOL     MW19908   4.061   4.009   9.476
 4978SOL     OW19909   4.517   8.999   9.050
 4978SOL    HW119910   4.601   9.042   9.038
 4978SOL    HW219911   4.498   9.007   9.144
 4978SOL     MW19912   4.526   9.006   9.061
 4979SOL     OW19913   3.837   9.406   5.627
 4979SOL    HW119914   3.742   9.395   5.634
 4979SOL    HW219915   3.867   9.418   5.718
 4979SOL     MW19916   3.828   9.406   5.640
 4980SOL     OW19917   2.053   1.184   2.563
 4980SOL    HW119918   2.021   1.267   2.526
 4980SOL    HW219919   2.055   1.201   2.658
 4980SOL     MW19920   2.049   1.198   2.571
 4981SOL     OW19921   0.201   3.735   2.131
 4981SOL    HW119922   0.205   3.787   2.051
 4981SOL    HW219923   0.214   3.798   2.201
 4981SOL     MW19924   0.203   3.750   2.130
 4982SOL     OW19925   1.831   5.032   6.490
 4982SOL    HW119926   1.840   4.985   6.573
 4982SOL    HW219927   1.829   4.964   6.423
 4982SOL     MW19928   1.832   5.017   6.492
 4983SOL     OW19929   8.383   5.982   0.564
 4983SOL    HW119930   8.429   5.922   0.506
 4983SOL    HW219931   8.327   5.925   0.617
 4983SOL     MW19932   8.382   5.966   0.564
 4984SOL     OW19933   7.464   3.810   6.242
 4984SOL    HW119934   7.464   3.820   6.338
 4984SOL    HW219935   7.513   3.729   6.227
 4984SOL     MW19936   7.471   3.800   6.253
 4985SOL     OW19937   9.122  10.082   7.251
 4985SOL    HW119938   9.034  10.066   7.217
 4985SOL    HW219939   9.108  10.139   7.327
 4985SOL     MW19940   9.108  10.087   7.257
 4986SOL     OW19941   8.349   2.852   8.936
 4986SOL    HW119942   8.418   2.788   8.919
 4986SOL    HW219943   8.269   2.800   8.941
 4986SOL     MW19944   8.348   2.836   8.934
 4987SOL     OW19945   4.192   7.187   4.847
 4987SOL    HW119946   4.113   7.180   4.901
 4987SOL    HW219947   4.257   7.227   4.905
 4987SOL     MW19948   4.190   7.192   4.862
 4988SOL     OW19949   9.974   0.720   7.194
 4988SOL    HW119950  10.055   0.758   7.229
 4988SOL    HW219951  10.000   0.634   7.161
 4988SOL     MW19952   9.989   0.714   7.194
 4989SOL     OW19953   8.747   8.809   7.752
 4989SOL    HW119954   8.713   8.873   7.689
 4989SOL    HW219955   8.806   8.754   7.701
 4989SOL     MW19956   8.750   8.810   7.737
 4990SOL     OW19957   7.201   3.215   8.590
 4990SOL    HW119958   7.196   3.237   8.683
 4990SOL    HW219959   7.294   3.211   8.571
 4990SOL     MW19960   7.213   3.217   8.600
 4991SOL     OW19961   9.051   4.193   1.564
 4991SOL    HW119962   9.000   4.143   1.500
 4991SOL    HW219963   9.122   4.134   1.589
 4991SOL     MW19964   9.054   4.178   1.559
 4992SOL     OW19965   9.816   1.220   9.745
 4992SOL    HW119966   9.724   1.214   9.718
 4992SOL    HW219967   9.819   1.295   9.804
 4992SOL     MW19968   9.804   1.229   9.750
 4993SOL     OW19969   4.527   9.179   6.634
 4993SOL    HW119970   4.473   9.232   6.693
 4993SOL    HW219971   4.524   9.091   6.671
 4993SOL     MW19972   4.519   9.174   6.647
 4994SOL     OW19973   4.326   7.012   2.661
 4994SOL    HW119974   4.252   7.013   2.601
 4994SOL    HW219975   4.358   6.922   2.659
 4994SOL     MW19976   4.320   7.000   2.653
 4995SOL     OW19977   3.823   0.880   2.048
 4995SOL    HW119978   3.861   0.872   2.136
 4995SOL    HW219979   3.883   0.831   1.991
 4995SOL     MW19980   3.836   0.872   2.052
 4996SOL     OW19981   3.308   9.881   4.066
 4996SOL    HW119982   3.276   9.821   3.998
 4996SOL    HW219983   3.403   9.886   4.050
 4996SOL     MW19984   3.317   9.874   4.055
 4997SOL     OW19985   7.646   9.731   8.401
 4997SOL    HW119986   7.604   9.650   8.372
 4997SOL    HW219987   7.733   9.728   8.363
 4997SOL     MW19988   7.652   9.720   8.392
 4998SOL     OW19989   0.152   1.273   7.163
 4998SOL    HW119990   0.222   1.292   7.225
 4998SOL    HW219991   0.196   1.268   7.078
 4998SOL     MW19992   0.167   1.275   7.160
 4999SOL     OW19993   3.465   4.193   6.472
 4999SOL    HW119994   3.448   4.279   6.434
 4999SOL    HW219995   3.384   4.144   6.459
 4999SOL     MW19996   3.452   4.198   6.465
 5000SOL     OW19997   7.985  10.068   2.422
 5000SOL    HW119998   7.952  10.081   2.511
 5000SOL    HW219999   7.934   9.994   2.388
 5000SOL     MW20000   7.974  10.060   2.429
 5001SOL     OW20001   8.257   2.267  10.068
 5001SOL    HW120002   8.334   2.218  10.042
 5001SOL    HW220003   8.280   2.358  10.052
 5001SOL     MW20004   8.270   2.273  10.063
 5002SOL     OW20005  10.074   4.797   8.001
 5002SOL    HW120006  10.064   4.774   7.909
 5002SOL    HW220007  10.110   4.885   8.001
 5002SOL     MW20008  10.077   4.806   7.989
 5003SOL     OW20009   0.779  10.093   4.962
 5003SOL    HW120010   0.698  10.130   4.927
 5003SOL    HW220011   0.808  10.031   4.895
 5003SOL     MW20012   0.772  10.090   4.949
 5004SOL     OW20013   9.856   6.930   1.314
 5004SOL    HW120014   9.942   6.909   1.278
 5004SOL    HW220015   9.799   6.860   1.282
 5004SOL     MW20016   9.860   6.918   1.305
 5005SOL     OW20017   0.857   2.040   9.462
 5005SOL    HW120018   0.916   2.069   9.532
 5005SOL    HW220019   0.782   2.002   9.509
 5005SOL     MW20020   0.855   2.039   9.478
 5006SOL     OW20021   6.953   4.261   4.253
 5006SOL    HW120022   6.898   4.188   4.225
 5006SOL    HW220023   7.032   4.252   4.200
 5006SOL     MW20024   6.956   4.250   4.242
 5007SOL     OW20025  10.084   0.514   0.245
 5007SOL    HW120026  10.017   0.453   0.276
 5007SOL    HW220027  10.117   0.474   0.164
 5007SOL     MW20028  10.079   0.500   0.238
 5008SOL     OW20029   8.215   4.148   7.467
 5008SOL    HW120030   8.138   4.168   7.414
 5008SOL    HW220031   8.186   4.081   7.528
 5008SOL     MW20032   8.201   4.142   7.468
 5009SOL     OW20033   4.437   7.100   2.899
 5009SOL    HW120034   4.392   7.078   2.818
 5009SOL    HW220035   4.479   7.184   2.881
 5009SOL     MW20036   4.437   7.108   2.886
 5010SOL     OW20037   5.909   2.925   1.978
 5010SOL    HW120038   5.839   2.861   1.996
 5010SOL    HW220039   5.895   2.949   1.886
 5010SOL     MW20040   5.897   2.919   1.968
 5011SOL     OW20041   3.959   3.320   8.837
 5011SOL    HW120042   4.013   3.248   8.804
 5011SOL    HW220043   3.869   3.287   8.834
 5011SOL     MW20044   3.954   3.306   8.832
 5012SOL     OW20045   7.675   3.667   8.421
 5012SOL    HW120046   7.659   3.676   8.327
 5012SOL    HW220047   7.599   3.618   8.454
 5012SOL     MW20048   7.663   3.661   8.413
 5013SOL     OW20049   9.767   3.276   4.108
 5013SOL    HW120050   9.772   3.192   4.062
 5013SOL    HW220051   9.801   3.257   4.196
 5013SOL     MW20052   9.772   3.262   4.114
 5014SOL     OW20053   0.513   7.821   6.778
 5014SOL    HW120054   0.435   7.779   6.742
 5014SOL    HW220055   0.582   7.755   6.770
 5014SOL     MW20056   0.511   7.806   6.772
 5015SOL     OW20057   0.845   4.426   8.416
 5015SOL    HW120058   0.870   4.337   8.392
 5015SOL    HW220059   0.843   4.473   8.333
 5015SOL     MW20060   0.848   4.420   8.401
 5016SOL     OW20061   6.772   7.106   3.233
 5016SOL    HW120062   6.724   7.171   3.286
 5016SOL    HW220063   6.828   7.158   3.177
 5016SOL     MW20064   6.773   7.122   3.233
 5017SOL     OW20065   8.655   9.458   7.894
 5017SOL    HW120066   8.635   9.365   7.895
 5017SOL    HW220067   8.639   9.486   7.804
 5017SOL     MW20068   8.650   9.450   7.882
 5018SOL     OW20069   1.069   7.358   1.445
 5018SOL    HW120070   0.975   7.345   1.456
 5018SOL    HW220071   1.108   7.320   1.525
 5018SOL     MW20072   1.062   7.351   1.458
 5019SOL     OW20073   2.250   3.488   8.371
 5019SOL    HW120074   2.327   3.525   8.414
 5019SOL    HW220075   2.188   3.471   8.442
 5019SOL     MW20076   2.252   3.491   8.386
 5020SOL     OW20077   9.324   2.430   2.085
 5020SOL    HW120078   9.319   2.507   2.142
 5020SOL    HW220079   9.329   2.356   2.144
 5020SOL     MW20080   9.324   2.430   2.100
 5021SOL     OW20081   6.025   9.312   5.316
 5021SOL    HW120082   6.058   9.287   5.402
 5021SOL    HW220083   6.102   9.344   5.268
 5021SOL     MW20084   6.040   9.313   5.321
 5022SOL     OW20085   4.875   9.621   8.537
 5022SOL    HW120086   4.912   9.604   8.451
 5022SOL    HW220087   4.887   9.715   8.551
 5022SOL     MW20088   4.881   9.631   8.528
 5023SOL     OW20089   2.886   0.554   1.672
 5023SOL    HW120090   2.843   0.560   1.587
 5023SOL    HW220091   2.926   0.640   1.686
 5023SOL     MW20092   2.886   0.566   1.663
 5024SOL     OW20093   9.614   1.053   1.519
 5024SOL    HW120094   9.536   1.057   1.574
 5024SOL    HW220095   9.636   0.960   1.515
 5024SOL     MW20096   9.606   1.041   1.526
 5025SOL     OW20097   8.252   6.229   0.556
 5025SOL    HW120098   8.223   6.245   0.466
 5025SOL    HW220099   8.299   6.146   0.552
 5025SOL     MW20100   8.255   6.220   0.544
 5026SOL     OW20101   4.311   1.543   2.930
 5026SOL    HW120102   4.256   1.528   3.007
 5026SOL    HW220103   4.253   1.522   2.856
 5026SOL     MW20104   4.296   1.538   2.930
 5027SOL     OW20105   8.349   3.837   8.548
 5027SOL    HW120106   8.399   3.917   8.533
 5027SOL    HW220107   8.376   3.808   8.636
 5027SOL     MW20108   8.360   3.844   8.558
 5028SOL     OW20109   6.206   7.155   7.384
 5028SOL    HW120110   6.141   7.220   7.412
 5028SOL    HW220111   6.255   7.198   7.315
 5028SOL     MW20112   6.204   7.170   7.379
 5029SOL     OW20113   5.916   4.805   8.294
 5029SOL    HW120114   5.831   4.847   8.291
 5029SOL    HW220115   5.925   4.772   8.383
 5029SOL     MW20116   5.906   4.806   8.305
 5030SOL     OW20117   9.537   0.921   9.695
 5030SOL    HW120118   9.496   0.890   9.615
 5030SOL    HW220119   9.543   1.016   9.684
 5030SOL     MW20120   9.532   0.930   9.683
 5031SOL     OW20121   5.183   0.143   0.512
 5031SOL    HW120122   5.249   0.148   0.443
 5031SOL    HW220123   5.101   0.166   0.467
 5031SOL     MW20124   5.181   0.147   0.496
 5032SOL     OW20125   7.380   8.160   5.444
 5032SOL    HW120126   7.329   8.229   5.487
 5032SOL    HW220127   7.446   8.207   5.393
 5032SOL     MW20128   7.382   8.176   5.443
 5033SOL     OW20129   9.782   4.684   7.331
 5033SOL    HW120130   9.772   4.768   7.286
 5033SOL    HW220131   9.822   4.627   7.266
 5033SOL     MW20132   9.786   4.688   7.316
 5034SOL     OW20133   4.214   1.481   3.187
 5034SOL    HW120134   4.217   1.561   3.241
 5034SOL    HW220135   4.304   1.449   3.187
 5034SOL     MW20136   4.226   1.488   3.194
 5035SOL     OW20137   9.732   8.323   0.981
 5035SOL    HW120138   9.800   8.387   1.004
 5035SOL    HW220139   9.681   8.366   0.912
 5035SOL     MW20140   9.735   8.338   0.975
 5036SOL     OW20141   8.509   5.744   0.158
 5036SOL    HW120142   8.544   5.829   0.133
 5036SOL    HW220143   8.475   5.756   0.246
 5036SOL     MW20144   8.509   5.757   0.166
 5037SOL     OW20145   5.574   7.056   7.199
 5037SOL    HW120146   5.604   7.137   7.157
 5037SOL    HW220147   5.612   6.987   7.146
 5037SOL     MW20148   5.583   7.058   7.186
 5038SOL     OW20149   6.215   4.006   5.924
 5038SOL    HW120150   6.229   4.095   5.890
 5038SOL    HW220151   6.165   3.962   5.856
 5038SOL     MW20152   6.210   4.012   5.910
 5039SOL     OW20153   6.423   6.850   8.968
 5039SOL    HW120154   6.483   6.888   8.904
 5039SOL    HW220155   6.359   6.803   8.916
 5039SOL     MW20156   6.423   6.849   8.952
 5040SOL     OW20157   6.067   9.235   5.582
 5040SOL    HW120158   6.063   9.143   5.611
 5040SOL    HW220159   6.094   9.283   5.660
 5040SOL     MW20160   6.070   9.229   5.597
 5041SOL     OW20161   8.912   1.339   4.356
 5041SOL    HW120162   8.927   1.378   4.271
 5041SOL    HW220163   8.994   1.353   4.404
 5041SOL     MW20164   8.925   1.346   4.351
 5042SOL     OW20165   6.916   4.602   9.954
 5042SOL    HW120166   6.987   4.555   9.911
 5042SOL    HW220167   6.848   4.608   9.887
 5042SOL     MW20168   6.916   4.596   9.939
 5043SOL     OW20169   8.200   7.690  10.161
 5043SOL    HW120170   8.267   7.740  10.115
 5043SOL    HW220171   8.122   7.745  10.158
 5043SOL     MW20172   8.199   7.704  10.154
 5044SOL     OW20173   4.819   0.081   1.903
 5044SOL    HW120174   4.871   0.035   1.969
 5044SOL    HW220175   4.841   0.036   1.821
 5044SOL     MW20176   4.829   0.069   1.900
 5045SOL     OW20177   5.172   1.694   5.225
 5045SOL    HW120178   5.227   1.618   5.208
 5045SOL    HW220179   5.234   1.766   5.239
 5045SOL     MW20180   5.188   1.694   5.225
 5046SOL     OW20181   1.855   1.248   9.731
 5046SOL    HW120182   1.820   1.218   9.815
 5046SOL    HW220183   1.943   1.210   9.728
 5046SOL     MW20184   1.862   1.239   9.742
 5047SOL     OW20185   5.961   7.345   2.615
 5047SOL    HW120186   6.052   7.315   2.614
 5047SOL    HW220187   5.912   7.273   2.576
 5047SOL     MW20188   5.966   7.331   2.609
 5048SOL     OW20189   3.970   8.385   1.487
 5048SOL    HW120190   3.956   8.442   1.411
 5048SOL    HW220191   3.982   8.445   1.560
 5048SOL     MW20192   3.969   8.401   1.487
 5049SOL     OW20193   5.969   6.819   7.046
 5049SOL    HW120194   5.996   6.868   7.123
 5049SOL    HW220195   6.030   6.745   7.043
 5049SOL     MW20196   5.981   6.816   7.056
 5050SOL     OW20197   6.926   5.651   9.818
 5050SOL    HW120198   6.913   5.605   9.901
 5050SOL    HW220199   7.008   5.615   9.783
 5050SOL     MW20200   6.935   5.640   9.824
 5051SOL     OW20201   8.910   6.595   5.253
 5051SOL    HW120202   8.848   6.662   5.282
 5051SOL    HW220203   8.995   6.637   5.258
 5051SOL     MW20204   8.913   6.609   5.257
 5052SOL     OW20205   2.816   2.134   7.942
 5052SOL    HW120206   2.752   2.187   7.990
 5052SOL    HW220207   2.860   2.082   8.009
 5052SOL     MW20208   2.813   2.134   7.957
 5053SOL     OW20209   1.952   9.620   7.624
 5053SOL    HW120210   1.938   9.626   7.718
 5053SOL    HW220211   1.865   9.605   7.587
 5053SOL     MW20212   1.939   9.619   7.631
 5054SOL     OW20213   0.157   5.480   0.319
 5054SOL    HW120214   0.235   5.533   0.302
 5054SOL    HW220215   0.134   5.500   0.410
 5054SOL     MW20216   0.164   5.490   0.329
 5055SOL     OW20217   1.854   8.768   5.060
 5055SOL    HW120218   1.783   8.730   5.112
 5055SOL    HW220219   1.819   8.770   4.971
 5055SOL     MW20220   1.840   8.763   5.055
 5056SOL     OW20221   8.203   3.532   7.239
 5056SOL    HW120222   8.262   3.596   7.279
 5056SOL    HW220223   8.132   3.584   7.201
 5056SOL     MW20224   8.202   3.548   7.240
 5057SOL     OW20225   0.193   1.941   4.376
 5057SOL    HW120226   0.257   1.892   4.427
 5057SOL    HW220227   0.193   1.900   4.290
 5057SOL     MW20228   0.201   1.929   4.371
 5058SOL     OW20229   3.633   1.603   4.004
 5058SOL    HW120230   3.643   1.541   4.076
 5058SOL    HW220231   3.539   1.614   3.994
 5058SOL     MW20232   3.622   1.597   4.012
 5059SOL     OW20233   0.187   3.468   2.222
 5059SOL    HW120234   0.143   3.417   2.153
 5059SOL    HW220235   0.192   3.556   2.186
 5059SOL     MW20236   0.181   3.473   2.208
 5060SOL     OW20237   1.751   8.998   3.559
 5060SOL    HW120238   1.791   8.939   3.623
 5060SOL    HW220239   1.763   9.085   3.595
 5060SOL     MW20240   1.758   9.002   3.572
 5061SOL     OW20241   2.864   7.466   7.252
 5061SOL    HW120242   2.782   7.507   7.225
 5061SOL    HW220243   2.881   7.500   7.339
 5061SOL     MW20244   2.855   7.476   7.260
 5062SOL     OW20245   1.247   9.337   2.627
 5062SOL    HW120246   1.329   9.288   2.633
 5062SOL    HW220247   1.259   9.411   2.687
 5062SOL     MW20248   1.260   9.340   2.636
 5063SOL     OW20249   1.160   0.266   3.450
 5063SOL    HW120250   1.067   0.251   3.434
 5063SOL    HW220251   1.174   0.357   3.422
 5063SOL     MW20252   1.149   0.276   3.444
 5064SOL     OW20253   2.452   7.141   8.554
 5064SOL    HW120254   2.427   7.136   8.462
 5064SOL    HW220255   2.433   7.054   8.589
 5064SOL     MW20256   2.446   7.129   8.547
 5065SOL     OW20257   9.586   7.721   0.868
 5065SOL    HW120258   9.525   7.781   0.910
 5065SOL    HW220259   9.550   7.634   0.886
 5065SOL     MW20260   9.573   7.717   0.876
 5066SOL     OW20261   8.897   9.305   4.355
 5066SOL    HW120262   8.977   9.318   4.303
 5066SOL    HW220263   8.926   9.312   4.446
 5066SOL     MW20264   8.912   9.308   4.360
 5067SOL     OW20265   3.460   7.380   0.883
 5067SOL    HW120266   3.401   7.427   0.942
 5067SOL    HW220267   3.482   7.444   0.815
 5067SOL     MW20268   3.455   7.395   0.882
 5068SOL     OW20269   8.338   1.862   9.652
 5068SOL    HW120270   8.301   1.904   9.729
 5068SOL    HW220271   8.274   1.880   9.582
 5068SOL     MW20272   8.324   1.870   9.653
 5069SOL     OW20273   1.381   9.368   9.835
 5069SOL    HW120274   1.428   9.337   9.912
 5069SOL    HW220275   1.293   9.390   9.867
 5069SOL     MW20276   1.375   9.366   9.849
 5070SOL     OW20277   6.051   2.369   8.551
 5070SOL    HW120278   6.009   2.304   8.608
 5070SOL    HW220279   6.116   2.320   8.502
 5070SOL     MW20280   6.054   2.353   8.552
 5071SOL     OW20281   7.586   7.069   8.536
 5071SOL    HW120282   7.505   7.030   8.503
 5071SOL    HW220283   7.583   7.160   8.506
 5071SOL     MW20284   7.575   7.076   8.527
 5072SOL     OW20285   8.410   5.778  10.043
 5072SOL    HW120286   8.427   5.740  10.129
 5072SOL    HW220287   8.366   5.708   9.995
 5072SOL     MW20288   8.407   5.763  10.048
 5073SOL     OW20289   4.366   5.783   0.141
 5073SOL    HW120290   4.308   5.726   0.091
 5073SOL    HW220291   4.309   5.827   0.204
 5073SOL     MW20292   4.350   5.782   0.143
 5074SOL     OW20293   9.217   9.674   8.478
 5074SOL    HW120294   9.141   9.720   8.442
 5074SOL    HW220295   9.202   9.672   8.572
 5074SOL     MW20296   9.205   9.679   8.486
 5075SOL     OW20297   1.812   1.063   5.147
 5075SOL    HW120298   1.853   1.024   5.224
 5075SOL    HW220299   1.781   0.987   5.096
 5075SOL     MW20300   1.813   1.047   5.151
 5076SOL     OW20301   0.108   0.733   9.023
 5076SOL    HW120302   0.163   0.729   9.101
 5076SOL    HW220303   0.155   0.682   8.957
 5076SOL     MW20304   0.121   0.725   9.025
 5077SOL     OW20305   8.039   6.383   8.362
 5077SOL    HW120306   7.963   6.405   8.415
 5077SOL    HW220307   8.024   6.292   8.337
 5077SOL     MW20308   8.027   6.374   8.366
 5078SOL     OW20309   4.970   8.495   5.327
 5078SOL    HW120310   4.916   8.564   5.287
 5078SOL    HW220311   4.926   8.475   5.410
 5078SOL     MW20312   4.956   8.502   5.333
 5079SOL     OW20313   6.670   3.026   7.691
 5079SOL    HW120314   6.695   2.969   7.764
 5079SOL    HW220315   6.737   3.094   7.689
 5079SOL     MW20316   6.683   3.027   7.701
 5080SOL     OW20317   5.555   8.398   1.598
 5080SOL    HW120318   5.491   8.342   1.644
 5080SOL    HW220319   5.639   8.357   1.616
 5080SOL     MW20320   5.558   8.385   1.607
 5081SOL     OW20321   2.836   0.563   6.487
 5081SOL    HW120322   2.812   0.541   6.577
 5081SOL    HW220323   2.905   0.629   6.495
 5081SOL     MW20324   2.842   0.569   6.500
 5082SOL     OW20325   8.201   4.888   2.316
 5082SOL    HW120326   8.177   4.869   2.226
 5082SOL    HW220327   8.161   4.973   2.334
 5082SOL     MW20328   8.192   4.897   2.306
 5083SOL     OW20329   3.124   1.947   5.561
 5083SOL    HW120330   3.062   1.907   5.622
 5083SOL    HW220331   3.092   2.037   5.550
 5083SOL     MW20332   3.111   1.954   5.568
 5084SOL     OW20333  10.039   1.700   2.072
 5084SOL    HW120334  10.113   1.692   2.011
 5084SOL    HW220335  10.073   1.754   2.144
 5084SOL     MW20336  10.054   1.706   2.074
 5085SOL     OW20337   4.068   6.733   5.729
 5085SOL    HW120338   3.999   6.705   5.669
 5085SOL    HW220339   4.024   6.794   5.789
 5085SOL     MW20340   4.053   6.738   5.729
 5086SOL     OW20341   6.977   8.440   1.815
 5086SOL    HW120342   6.891   8.466   1.849
 5086SOL    HW220343   6.957   8.386   1.738
 5086SOL     MW20344   6.963   8.436   1.809
 5087SOL     OW20345   3.464   1.537   9.768
 5087SOL    HW120346   3.499   1.488   9.842
 5087SOL    HW220347   3.445   1.624   9.803
 5087SOL     MW20348   3.466   1.542   9.782
 5088SOL     OW20349   5.923   2.668   5.751
 5088SOL    HW120350   6.006   2.628   5.724
 5088SOL    HW220351   5.866   2.594   5.769
 5088SOL     MW20352   5.927   2.652   5.749
 5089SOL     OW20353   9.728   2.324   2.203
 5089SOL    HW120354   9.686   2.350   2.122
 5089SOL    HW220355   9.764   2.405   2.240
 5089SOL     MW20356   9.727   2.338   2.197
 5090SOL     OW20357   6.186   9.629   4.099
 5090SOL    HW120358   6.224   9.674   4.174
 5090SOL    HW220359   6.093   9.619   4.120
 5090SOL     MW20360   6.179   9.634   4.112
 5091SOL     OW20361   5.105   2.308   4.733
 5091SOL    HW120362   5.167   2.328   4.662
 5091SOL    HW220363   5.052   2.236   4.698
 5091SOL     MW20364   5.106   2.301   4.718
 5092SOL     OW20365   1.705   5.077   6.152
 5092SOL    HW120366   1.674   5.125   6.229
 5092SOL    HW220367   1.737   5.145   6.093
 5092SOL     MW20368   1.705   5.093   6.155
 5093SOL     OW20369   6.110   5.456   7.702
 5093SOL    HW120370   6.056   5.377   7.698
 5093SOL    HW220371   6.190   5.433   7.655
 5093SOL     MW20372   6.113   5.442   7.695
 5094SOL     OW20373   8.346   2.985   1.925
 5094SOL    HW120374   8.299   2.968   2.006
 5094SOL    HW220375   8.311   3.068   1.893
 5094SOL     MW20376   8.335   2.994   1.931
 5095SOL     OW20377   7.878   3.043   6.851
 5095SOL    HW120378   7.838   2.956   6.848
 5095SOL    HW220379   7.966   3.028   6.884
 5095SOL     MW20380   7.884   3.029   6.855
 5096SOL     OW20381   2.076   6.733   0.868
 5096SOL    HW120382   2.105   6.691   0.788
 5096SOL    HW220383   1.982   6.749   0.854
 5096SOL     MW20384   2.067   6.729   0.856
 5097SOL     OW20385   3.334   3.064   3.141
 5097SOL    HW120386   3.275   3.138   3.129
 5097SOL    HW220387   3.280   2.987   3.121
 5097SOL     MW20388   3.319   3.064   3.137
 5098SOL     OW20389   4.609   1.428   8.897
 5098SOL    HW120390   4.527   1.460   8.861
 5098SOL    HW220391   4.673   1.443   8.827
 5098SOL     MW20392   4.607   1.434   8.883
 5099SOL     OW20393   0.997   6.818   6.330
 5099SOL    HW120394   0.975   6.788   6.242
 5099SOL    HW220395   0.924   6.789   6.384
 5099SOL     MW20396   0.984   6.810   6.325
 5100SOL     OW20397   1.510   1.171   7.969
 5100SOL    HW120398   1.485   1.263   7.958
 5100SOL    HW220399   1.602   1.168   7.944
 5100SOL     MW20400   1.519   1.183   7.964
 5101SOL     OW20401   9.705   1.356   8.455
 5101SOL    HW120402   9.650   1.403   8.393
 5101SOL    HW220403   9.708   1.266   8.422
 5101SOL     MW20404   9.698   1.350   8.442
 5102SOL     OW20405   6.727   8.597   3.920
 5102SOL    HW120406   6.789   8.586   3.993
 5102SOL    HW220407   6.665   8.663   3.952
 5102SOL     MW20408   6.727   8.605   3.934
 5103SOL     OW20409   1.418   7.336   9.234
 5103SOL    HW120410   1.490   7.360   9.293
 5103SOL    HW220411   1.450   7.259   9.187
 5103SOL     MW20412   1.432   7.329   9.236
 5104SOL     OW20413   5.316   1.451   5.208
 5104SOL    HW120414   5.350   1.449   5.119
 5104SOL    HW220415   5.383   1.409   5.261
 5104SOL     MW20416   5.330   1.445   5.203
 5105SOL     OW20417   1.510   9.212  10.025
 5105SOL    HW120418   1.469   9.156  10.092
 5105SOL    HW220419   1.516   9.156   9.948
 5105SOL     MW20420   1.506   9.197  10.024
 5106SOL     OW20421   8.292   1.805   3.043
 5106SOL    HW120422   8.274   1.796   3.136
 5106SOL    HW220423   8.231   1.745   3.001
 5106SOL     MW20424   8.282   1.796   3.050
 5107SOL     OW20425   5.083   3.169   7.120
 5107SOL    HW120426   5.026   3.122   7.180
 5107SOL    HW220427   5.105   3.250   7.166
 5107SOL     MW20428   5.079   3.174   7.134
 5108SOL     OW20429   3.559   2.091   5.427
 5108SOL    HW120430   3.493   2.022   5.422
 5108SOL    HW220431   3.530   2.147   5.499
 5108SOL     MW20432   3.546   2.089   5.436
 5109SOL     OW20433   1.764   9.908   1.237
 5109SOL    HW120434   1.814   9.941   1.162
 5109SOL    HW220435   1.747   9.816   1.215
 5109SOL     MW20436   1.768   9.900   1.224
 5110SOL     OW20437   4.540   2.973   1.018
 5110SOL    HW120438   4.545   2.894   0.964
 5110SOL    HW220439   4.536   3.045   0.956
 5110SOL     MW20440   4.540   2.972   1.003
 5111SOL     OW20441   9.478   7.330   3.082
 5111SOL    HW120442   9.534   7.390   3.035
 5111SOL    HW220443   9.538   7.276   3.134
 5111SOL     MW20444   9.493   7.331   3.083
 5112SOL     OW20445   1.859   5.165   8.813
 5112SOL    HW120446   1.855   5.114   8.732
 5112SOL    HW220447   1.845   5.102   8.883
 5112SOL     MW20448   1.857   5.150   8.811
 5113SOL     OW20449   1.377   7.672   5.831
 5113SOL    HW120450   1.344   7.736   5.768
 5113SOL    HW220451   1.472   7.672   5.816
 5113SOL     MW20452   1.386   7.681   5.820
 5114SOL     OW20453   1.082   6.299   4.563
 5114SOL    HW120454   1.047   6.388   4.578
 5114SOL    HW220455   1.158   6.293   4.620
 5114SOL     MW20456   1.087   6.311   4.573
 5115SOL     OW20457   5.919   9.294   7.926
 5115SOL    HW120458   5.946   9.202   7.918
 5115SOL    HW220459   5.959   9.322   8.009
 5115SOL     MW20460   5.928   9.285   7.936
 5116SOL     OW20461   9.418   9.805   8.828
 5116SOL    HW120462   9.454   9.832   8.913
 5116SOL    HW220463   9.479   9.841   8.764
 5116SOL     MW20464   9.431   9.814   8.831
 5117SOL     OW20465   9.132   3.521   4.906
 5117SOL    HW120466   9.201   3.526   4.972
 5117SOL    HW220467   9.103   3.430   4.910
 5117SOL     MW20468   9.137   3.509   4.916
 5118SOL     OW20469   8.539   1.477   7.387
 5118SOL    HW120470   8.515   1.552   7.443
 5118SOL    HW220471   8.556   1.516   7.301
 5118SOL     MW20472   8.538   1.492   7.383
 5119SOL     OW20473   3.026   7.394   6.603
 5119SOL    HW120474   2.975   7.430   6.675
 5119SOL    HW220475   3.015   7.457   6.532
 5119SOL     MW20476   3.018   7.407   6.603
 5120SOL     OW20477   9.250   2.863   5.936
 5120SOL    HW120478   9.334   2.907   5.948
 5120SOL    HW220479   9.234   2.819   6.019
 5120SOL     MW20480   9.259   2.863   5.948
 5121SOL     OW20481   6.361   1.659   6.102
 5121SOL    HW120482   6.272   1.626   6.091
 5121SOL    HW220483   6.406   1.590   6.151
 5121SOL     MW20484   6.355   1.645   6.107
 5122SOL     OW20485   9.714   7.031   2.086
 5122SOL    HW120486   9.671   7.107   2.047
 5122SOL    HW220487   9.689   6.958   2.031
 5122SOL     MW20488   9.705   7.032   2.074
 5123SOL     OW20489   8.571   3.574   4.465
 5123SOL    HW120490   8.567   3.583   4.370
 5123SOL    HW220491   8.658   3.607   4.488
 5123SOL     MW20492   8.582   3.580   4.455
 5124SOL     OW20493   2.902   1.879   8.606
 5124SOL    HW120494   2.981   1.934   8.604
 5124SOL    HW220495   2.846   1.921   8.671
 5124SOL     MW20496   2.905   1.892   8.615
 5125SOL     OW20497   1.086   7.769   4.657
 5125SOL    HW120498   1.134   7.706   4.602
 5125SOL    HW220499   1.030   7.816   4.595
 5125SOL     MW20500   1.085   7.767   4.641
 5126SOL     OW20501   2.225   5.605   6.033
 5126SOL    HW120502   2.318   5.589   6.012
 5126SOL    HW220503   2.182   5.521   6.016
 5126SOL     MW20504   2.232   5.592   6.028
 5127SOL     OW20505  10.101   0.276   8.319
 5127SOL    HW120506  10.159   0.309   8.251
 5127SOL    HW220507  10.149   0.203   8.358
 5127SOL     MW20508  10.115   0.270   8.315
 5128SOL     OW20509   1.607   2.850   0.838
 5128SOL    HW120510   1.541   2.781   0.837
 5128SOL    HW220511   1.684   2.810   0.878
 5128SOL     MW20512   1.608   2.836   0.843
 5129SOL     OW20513   0.887   6.488   4.168
 5129SOL    HW120514   0.906   6.544   4.093
 5129SOL    HW220515   0.886   6.547   4.243
 5129SOL     MW20516   0.889   6.503   4.168
 5130SOL     OW20517   0.973   8.878   4.118
 5130SOL    HW120518   0.935   8.796   4.086
 5130SOL    HW220519   1.067   8.862   4.123
 5130SOL     MW20520   0.980   8.865   4.115
 5131SOL     OW20521   1.413   4.352   0.149
 5131SOL    HW120522   1.378   4.314   0.068
 5131SOL    HW220523   1.341   4.402   0.186
 5131SOL     MW20524   1.399   4.353   0.143
 5132SOL     OW20525   2.134   6.548   2.856
 5132SOL    HW120526   2.151   6.454   2.856
 5132SOL    HW220527   2.141   6.573   2.763
 5132SOL     MW20528   2.137   6.539   2.843
 5133SOL     OW20529   7.663   8.331   3.215
 5133SOL    HW120530   7.570   8.309   3.224
 5133SOL    HW220531   7.675   8.344   3.121
 5133SOL     MW20532   7.652   8.330   3.204
 5134SOL     OW20533   8.211   1.785   3.307
 5134SOL    HW120534   8.253   1.799   3.391
 5134SOL    HW220535   8.122   1.818   3.318
 5134SOL     MW20536   8.204   1.792   3.320
 5135SOL     OW20537   4.261   3.857   5.165
 5135SOL    HW120538   4.343   3.897   5.137
 5135SOL    HW220539   4.286   3.801   5.239
 5135SOL     MW20540   4.275   3.855   5.172
 5136SOL     OW20541   5.506   4.751   6.867
 5136SOL    HW120542   5.412   4.764   6.866
 5136SOL    HW220543   5.539   4.816   6.929
 5136SOL     MW20544   5.498   4.762   6.875
 5137SOL     OW20545   4.444   6.635   6.281
 5137SOL    HW120546   4.480   6.672   6.200
 5137SOL    HW220547   4.504   6.665   6.350
 5137SOL     MW20548   4.457   6.644   6.279
 5138SOL     OW20549   7.101   9.972   7.862
 5138SOL    HW120550   7.121  10.015   7.779
 5138SOL    HW220551   7.163   9.898   7.865
 5138SOL     MW20552   7.112   9.968   7.851
 5139SOL     OW20553   5.759   6.383   4.185
 5139SOL    HW120554   5.729   6.439   4.114
 5139SOL    HW220555   5.700   6.308   4.182
 5139SOL     MW20556   5.747   6.380   4.175
 5140SOL     OW20557   0.898   3.141   9.298
 5140SOL    HW120558   0.818   3.116   9.345
 5140SOL    HW220559   0.947   3.194   9.361
 5140SOL     MW20560   0.894   3.145   9.313
 5141SOL     OW20561   3.505   5.070   2.123
 5141SOL    HW120562   3.436   5.042   2.064
 5141SOL    HW220563   3.467   5.064   2.211
 5141SOL     MW20564   3.491   5.065   2.127
 5142SOL     OW20565   8.539   8.955   7.999
 5142SOL    HW120566   8.629   8.933   8.020
 5142SOL    HW220567   8.511   8.888   7.937
 5142SOL     MW20568   8.547   8.943   7.993
 5143SOL     OW20569   4.302   3.311   0.729
 5143SOL    HW120570   4.212   3.342   0.737
 5143SOL    HW220571   4.317   3.305   0.634
 5143SOL     MW20572   4.292   3.314   0.717
 5144SOL     OW20573   7.917   7.418   6.928
 5144SOL    HW120574   7.977   7.345   6.917
 5144SOL    HW220575   7.837   7.378   6.963
 5144SOL     MW20576   7.914   7.403   6.932
 5145SOL     OW20577   9.785   4.096   1.607
 5145SOL    HW120578   9.847   4.029   1.634
 5145SOL    HW220579   9.839   4.165   1.569
 5145SOL     MW20580   9.801   4.096   1.606
 5146SOL     OW20581   8.280   8.617   0.129
 5146SOL    HW120582   8.193   8.623   0.168
 5146SOL    HW220583   8.271   8.551   0.061
 5146SOL     MW20584   8.267   8.609   0.125
 5147SOL     OW20585   5.500   1.500   9.296
 5147SOL    HW120586   5.499   1.407   9.320
 5147SOL    HW220587   5.473   1.501   9.204
 5147SOL     MW20588   5.496   1.487   9.287
 5148SOL     OW20589   9.019   1.163   9.056
 5148SOL    HW120590   9.074   1.234   9.023
 5148SOL    HW220591   8.936   1.172   9.008
 5148SOL     MW20592   9.015   1.174   9.045
 5149SOL     OW20593   7.882   8.364   8.410
 5149SOL    HW120594   7.940   8.378   8.484
 5149SOL    HW220595   7.859   8.453   8.380
 5149SOL     MW20596   7.887   8.378   8.416
 5150SOL     OW20597   6.830   0.521   7.851
 5150SOL    HW120598   6.761   0.501   7.914
 5150SOL    HW220599   6.802   0.602   7.810
 5150SOL     MW20600   6.817   0.529   7.854
 5151SOL     OW20601   4.776   1.481   8.681
 5151SOL    HW120602   4.765   1.572   8.653
 5151SOL    HW220603   4.754   1.429   8.603
 5151SOL     MW20604   4.771   1.486   8.667
 5152SOL     OW20605   6.440   7.824   9.225
 5152SOL    HW120606   6.351   7.799   9.247
 5152SOL    HW220607   6.489   7.742   9.222
 5152SOL     MW20608   6.435   7.810   9.227
 5153SOL     OW20609   8.149   2.246   0.403
 5153SOL    HW120610   8.122   2.168   0.451
 5153SOL    HW220611   8.142   2.221   0.311
 5153SOL     MW20612   8.144   2.232   0.397
 5154SOL     OW20613   5.115   2.895   1.752
 5154SOL    HW120614   5.128   2.814   1.803
 5154SOL    HW220615   5.201   2.913   1.714
 5154SOL     MW20616   5.128   2.886   1.754
 5155SOL     OW20617   5.518   9.453   4.259
 5155SOL    HW120618   5.464   9.454   4.180
 5155SOL    HW220619   5.605   9.428   4.228
 5155SOL     MW20620   5.522   9.450   4.244
 5156SOL     OW20621   1.476   9.481   6.615
 5156SOL    HW120622   1.456   9.393   6.648
 5156SOL    HW220623   1.566   9.497   6.642
 5156SOL     MW20624   1.485   9.471   6.623
 5157SOL     OW20625   3.769   5.596   1.661
 5157SOL    HW120626   3.854   5.566   1.630
 5157SOL    HW220627   3.789   5.648   1.739
 5157SOL     MW20628   3.783   5.599   1.667
 5158SOL     OW20629   7.680   5.457   8.301
 5158SOL    HW120630   7.747   5.449   8.233
 5158SOL    HW220631   7.609   5.398   8.273
 5158SOL     MW20632   7.679   5.448   8.288
 5159SOL     OW20633   8.523   7.222   9.956
 5159SOL    HW120634   8.612   7.256   9.964
 5159SOL    HW220635   8.486   7.270   9.882
 5159SOL     MW20636   8.530   7.233   9.947
 5160SOL     OW20637   2.730   4.360   4.906
 5160SOL    HW120638   2.792   4.432   4.890
 5160SOL    HW220639   2.681   4.353   4.825
 5160SOL     MW20640   2.732   4.369   4.893
 5161SOL     OW20641   3.424   5.298   2.585
 5161SOL    HW120642   3.418   5.392   2.601
 5161SOL    HW220643   3.510   5.286   2.545
 5161SOL     MW20644   3.435   5.309   2.582
 5162SOL     OW20645   9.424   0.334   3.590
 5162SOL    HW120646   9.329   0.348   3.596
 5162SOL    HW220647   9.436   0.284   3.509
 5162SOL     MW20648   9.413   0.329   3.580
 5163SOL     OW20649   3.512   6.306   0.297
 5163SOL    HW120650   3.571   6.294   0.222
 5163SOL    HW220651   3.511   6.400   0.313
 5163SOL     MW20652   3.520   6.317   0.289
 5164SOL     OW20653   9.394   8.330   9.798
 5164SOL    HW120654   9.385   8.368   9.886
 5164SOL    HW220655   9.306   8.299   9.777
 5164SOL     MW20656   9.381   8.331   9.807
 5165SOL     OW20657   1.856   6.559   2.588
 5165SOL    HW120658   1.769   6.574   2.551
 5165SOL    HW220659   1.845   6.574   2.682
 5165SOL     MW20660   1.843   6.563   2.596
 5166SOL     OW20661   5.266   1.821   6.763
 5166SOL    HW120662   5.196   1.759   6.786
 5166SOL    HW220663   5.283   1.869   6.844
 5166SOL     MW20664   5.259   1.819   6.777
 5167SOL     OW20665   4.108   3.114   8.732
 5167SOL    HW120666   4.089   3.036   8.679
 5167SOL    HW220667   4.195   3.098   8.769
 5167SOL     MW20668   4.117   3.101   8.730
 5168SOL     OW20669   4.588   6.868   7.124
 5168SOL    HW120670   4.669   6.894   7.166
 5168SOL    HW220671   4.540   6.821   7.192
 5168SOL     MW20672   4.592   6.865   7.139
 5169SOL     OW20673   1.332   0.435   6.646
 5169SOL    HW120674   1.246   0.418   6.608
 5169SOL    HW220675   1.366   0.511   6.598
 5169SOL     MW20676   1.325   0.443   6.634
 5170SOL     OW20677   4.624   1.079   0.189
 5170SOL    HW120678   4.576   1.111   0.266
 5170SOL    HW220679   4.682   1.151   0.166
 5170SOL     MW20680   4.625   1.093   0.197
 5171SOL     OW20681   4.896   6.798   0.906
 5171SOL    HW120682   4.955   6.814   0.833
 5171SOL    HW220683   4.943   6.830   0.983
 5171SOL     MW20684   4.910   6.805   0.906
 5172SOL     OW20685   8.514   2.273   3.549
 5172SOL    HW120686   8.455   2.249   3.477
 5172SOL    HW220687   8.601   2.252   3.517
 5172SOL     MW20688   8.517   2.267   3.535
 5173SOL     OW20689   3.868   9.425   1.747
 5173SOL    HW120690   3.881   9.511   1.785
 5173SOL    HW220691   3.813   9.379   1.810
 5173SOL     MW20692   3.862   9.430   1.760
 5174SOL     OW20693   8.937   7.490   1.246
 5174SOL    HW120694   8.892   7.450   1.171
 5174SOL    HW220695   8.946   7.419   1.309
 5174SOL     MW20696   8.932   7.475   1.244
 5175SOL     OW20697   8.368   4.203   5.592
 5175SOL    HW120698   8.330   4.145   5.525
 5175SOL    HW220699   8.358   4.291   5.556
 5175SOL     MW20700   8.361   4.207   5.578
 5176SOL     OW20701   9.999   8.018   4.015
 5176SOL    HW120702  10.028   8.016   4.106
 5176SOL    HW220703   9.914   7.974   4.016
 5176SOL     MW20704   9.992   8.011   4.028
 5177SOL     OW20705   6.956   2.052   6.218
 5177SOL    HW120706   6.909   2.053   6.134
 5177SOL    HW220707   6.938   1.965   6.254
 5177SOL     MW20708   6.947   2.040   6.211
 5178SOL     OW20709   3.212   4.723   9.565
 5178SOL    HW120710   3.119   4.705   9.553
 5178SOL    HW220711   3.245   4.734   9.476
 5178SOL     MW20712   3.204   4.722   9.551
 5179SOL     OW20713   0.877   7.291   1.744
 5179SOL    HW120714   0.813   7.322   1.808
 5179SOL    HW220715   0.838   7.312   1.659
 5179SOL     MW20716   0.863   7.298   1.741
 5180SOL     OW20717   2.428   8.785   7.874
 5180SOL    HW120718   2.517   8.759   7.895
 5180SOL    HW220719   2.438   8.848   7.802
 5180SOL     MW20720   2.441   8.790   7.867
 5181SOL     OW20721   8.866   7.131   7.393
 5181SOL    HW120722   8.943   7.153   7.340
 5181SOL    HW220723   8.799   7.192   7.363
 5181SOL     MW20724   8.868   7.142   7.382
 5182SOL     OW20725   6.269   2.198   6.796
 5182SOL    HW120726   6.226   2.241   6.870
 5182SOL    HW220727   6.272   2.265   6.728
 5182SOL     MW20728   6.264   2.213   6.797
 5183SOL     OW20729   7.006   1.848   0.030
 5183SOL    HW120730   7.054   1.779   0.077
 5183SOL    HW220731   6.980   1.910   0.098
 5183SOL     MW20732   7.009   1.847   0.045
 5184SOL     OW20733   0.605   5.660   0.462
 5184SOL    HW120734   0.635   5.573   0.486
 5184SOL    HW220735   0.685   5.707   0.438
 5184SOL     MW20736   0.620   5.655   0.462
 5185SOL     OW20737   2.440   7.510   6.969
 5185SOL    HW120738   2.416   7.430   6.923
 5185SOL    HW220739   2.510   7.548   6.916
 5185SOL     MW20740   2.446   7.505   6.956
 5186SOL     OW20741   3.874   3.362   1.156
 5186SOL    HW120742   3.950   3.415   1.177
 5186SOL    HW220743   3.858   3.311   1.235
 5186SOL     MW20744   3.882   3.362   1.169
 5187SOL     OW20745   9.128   7.863   8.219
 5187SOL    HW120746   9.050   7.888   8.170
 5187SOL    HW220747   9.170   7.946   8.242
 5187SOL     MW20748   9.123   7.877   8.216
 5188SOL     OW20749   2.975   7.581   1.593
 5188SOL    HW120750   2.972   7.645   1.665
 5188SOL    HW220751   2.884   7.577   1.562
 5188SOL     MW20752   2.962   7.589   1.599
 5189SOL     OW20753   0.840   8.632   8.542
 5189SOL    HW120754   0.799   8.567   8.486
 5189SOL    HW220755   0.779   8.642   8.615
 5189SOL     MW20756   0.826   8.625   8.544
 5190SOL     OW20757   0.895   3.358   3.522
 5190SOL    HW120758   0.947   3.412   3.582
 5190SOL    HW220759   0.824   3.323   3.576
 5190SOL     MW20760   0.892   3.360   3.537
 5191SOL     OW20761   3.855   8.585   7.668
 5191SOL    HW120762   3.798   8.644   7.717
 5191SOL    HW220763   3.802   8.553   7.595
 5191SOL     MW20764   3.840   8.588   7.665
 5192SOL     OW20765   2.925   8.212   9.215
 5192SOL    HW120766   2.982   8.213   9.292
 5192SOL    HW220767   2.955   8.286   9.162
 5192SOL     MW20768   2.937   8.222   9.218
 5193SOL     OW20769   4.001   4.418   0.732
 5193SOL    HW120770   3.968   4.422   0.822
 5193SOL    HW220771   4.093   4.392   0.741
 5193SOL     MW20772   4.009   4.415   0.745
 5194SOL     OW20773   4.465   3.006   4.119
 5194SOL    HW120774   4.538   2.952   4.089
 5194SOL    HW220775   4.416   3.028   4.040
 5194SOL     MW20776   4.468   3.002   4.105
 5195SOL     OW20777   8.211   5.700   4.179
 5195SOL    HW120778   8.131   5.698   4.231
 5195SOL    HW220779   8.250   5.785   4.198
 5195SOL     MW20780   8.206   5.711   4.188
 5196SOL     OW20781   9.897   9.368   4.780
 5196SOL    HW120782   9.904   9.330   4.692
 5196SOL    HW220783   9.884   9.462   4.764
 5196SOL     MW20784   9.896   9.375   4.766
 5197SOL     OW20785   8.200   6.952   4.955
 5197SOL    HW120786   8.131   7.018   4.962
 5197SOL    HW220787   8.209   6.937   4.861
 5197SOL     MW20788   8.192   6.959   4.943
 5198SOL     OW20789   7.349   8.807   2.056
 5198SOL    HW120790   7.381   8.876   1.997
 5198SOL    HW220791   7.363   8.726   2.007
 5198SOL     MW20792   7.355   8.806   2.041
 5199SOL     OW20793   0.479   8.420   6.249
 5199SOL    HW120794   0.426   8.426   6.329
 5199SOL    HW220795   0.457   8.334   6.213
 5199SOL     MW20796   0.469   8.409   6.255
 5200SOL     OW20797   4.580   6.738   6.051
 5200SOL    HW120798   4.618   6.821   6.022
 5200SOL    HW220799   4.642   6.671   6.020
 5200SOL     MW20800   4.594   6.740   6.043
 5201SOL     OW20801   4.001   7.706   0.572
 5201SOL    HW120802   3.923   7.658   0.599
 5201SOL    HW220803   3.970   7.762   0.500
 5201SOL     MW20804   3.986   7.707   0.566
 5202SOL     OW20805   9.579   0.555   3.537
 5202SOL    HW120806   9.516   0.625   3.522
 5202SOL    HW220807   9.527   0.480   3.564
 5202SOL     MW20808   9.564   0.554   3.539
 5203SOL     OW20809   1.706   4.169   0.520
 5203SOL    HW120810   1.685   4.213   0.438
 5203SOL    HW220811   1.724   4.240   0.581
 5203SOL     MW20812   1.705   4.185   0.517
 5204SOL     OW20813   9.740   9.988   0.790
 5204SOL    HW120814   9.707   9.934   0.718
 5204SOL    HW220815   9.777   9.925   0.852
 5204SOL     MW20816   9.741   9.972   0.788
 5205SOL     OW20817   2.486   0.851   3.188
 5205SOL    HW120818   2.553   0.818   3.127
 5205SOL    HW220819   2.411   0.870   3.132
 5205SOL     MW20820   2.485   0.849   3.172
 5206SOL     OW20821   0.277   4.158   4.105
 5206SOL    HW120822   0.356   4.111   4.078
 5206SOL    HW220823   0.209   4.126   4.046
 5206SOL     MW20824   0.279   4.147   4.094
 5207SOL     OW20825   6.025   4.378   8.073
 5207SOL    HW120826   6.084   4.410   8.005
 5207SOL    HW220827   6.064   4.295   8.101
 5207SOL     MW20828   6.038   4.371   8.068
 5208SOL     OW20829   3.840   6.701   3.027
 5208SOL    HW120830   3.753   6.679   3.062
 5208SOL    HW220831   3.844   6.796   3.031
 5208SOL     MW20832   3.828   6.711   3.032
 5209SOL     OW20833   5.153   3.165   1.211
 5209SOL    HW120834   5.072   3.204   1.178
 5209SOL    HW220835   5.191   3.120   1.135
 5209SOL     MW20836   5.147   3.164   1.196
 5210SOL     OW20837   8.006   2.132   3.197
 5210SOL    HW120838   8.026   2.222   3.224
 5210SOL    HW220839   8.074   2.110   3.134
 5210SOL     MW20840   8.018   2.141   3.192
 5211SOL     OW20841   2.562   7.347   7.981
 5211SOL    HW120842   2.502   7.315   7.913
 5211SOL    HW220843   2.585   7.435   7.952
 5211SOL     MW20844   2.557   7.354   7.968
 5212SOL     OW20845   2.991   7.325   9.820
 5212SOL    HW120846   3.041   7.373   9.755
 5212SOL    HW220847   2.962   7.392   9.882
 5212SOL     MW20848   2.993   7.340   9.820
 5213SOL     OW20849   2.262   5.101   5.113
 5213SOL    HW120850   2.332   5.136   5.057
 5213SOL    HW220851   2.233   5.022   5.069
 5213SOL     MW20852   2.268   5.095   5.099
 5214SOL     OW20853   7.607   2.731   4.346
 5214SOL    HW120854   7.661   2.692   4.278
 5214SOL    HW220855   7.533   2.769   4.299
 5214SOL     MW20856   7.604   2.731   4.331
 5215SOL     OW20857   9.193   5.795   2.754
 5215SOL    HW120858   9.269   5.766   2.705
 5215SOL    HW220859   9.212   5.771   2.845
 5215SOL     MW20860   9.205   5.788   2.760
 5216SOL     OW20861   4.555   4.241   4.278
 5216SOL    HW120862   4.566   4.328   4.239
 5216SOL    HW220863   4.467   4.215   4.252
 5216SOL     MW20864   4.545   4.249   4.269
 5217SOL     OW20865   8.021   4.238   7.292
 5217SOL    HW120866   7.934   4.277   7.295
 5217SOL    HW220867   8.067   4.287   7.224
 5217SOL     MW20868   8.016   4.250   7.283
 5218SOL     OW20869   3.097   9.324   4.687
 5218SOL    HW120870   3.109   9.278   4.604
 5218SOL    HW220871   3.095   9.417   4.664
 5218SOL     MW20872   3.098   9.330   4.673
 5219SOL     OW20873   4.443   3.466   7.973
 5219SOL    HW120874   4.436   3.532   8.042
 5219SOL    HW220875   4.353   3.449   7.946
 5219SOL     MW20876   4.430   3.473   7.978
 5220SOL     OW20877   6.487   4.141   0.178
 5220SOL    HW120878   6.579   4.128   0.202
 5220SOL    HW220879   6.490   4.170   0.087
 5220SOL     MW20880   6.500   4.143   0.169
 5221SOL     OW20881   5.361   2.317   6.337
 5221SOL    HW120882   5.307   2.393   6.316
 5221SOL    HW220883   5.356   2.262   6.258
 5221SOL     MW20884   5.353   2.319   6.323
 5222SOL     OW20885   4.565   5.441   2.386
 5222SOL    HW120886   4.552   5.429   2.481
 5222SOL    HW220887   4.592   5.533   2.377
 5222SOL     MW20888   4.566   5.452   2.398
 5223SOL     OW20889   6.863   1.032   1.210
 5223SOL    HW120890   6.781   0.983   1.210
 5223SOL    HW220891   6.838   1.120   1.240
 5223SOL     MW20892   6.848   1.038   1.214
 5224SOL     OW20893   8.167   7.325   9.317
 5224SOL    HW120894   8.166   7.393   9.250
 5224SOL    HW220895   8.134   7.368   9.396
 5224SOL     MW20896   8.163   7.340   9.319
 5225SOL     OW20897   6.373   8.520   9.615
 5225SOL    HW120898   6.340   8.585   9.553
 5225SOL    HW220899   6.346   8.553   9.701
 5225SOL     MW20900   6.365   8.533   9.618
 5226SOL     OW20901   0.547   2.821   8.326
 5226SOL    HW120902   0.600   2.745   8.350
 5226SOL    HW220903   0.557   2.829   8.231
 5226SOL     MW20904   0.555   2.812   8.317
 5227SOL     OW20905   8.109   7.544   9.498
 5227SOL    HW120906   8.068   7.590   9.571
 5227SOL    HW220907   8.201   7.537   9.522
 5227SOL     MW20908   8.116   7.550   9.511
 5228SOL     OW20909   0.442   9.468   4.208
 5228SOL    HW120910   0.387   9.487   4.132
 5228SOL    HW220911   0.517   9.526   4.199
 5228SOL     MW20912   0.444   9.479   4.197
 5229SOL     OW20913   2.900   7.729   4.452
 5229SOL    HW120914   2.922   7.797   4.515
 5229SOL    HW220915   2.817   7.757   4.414
 5229SOL     MW20916   2.892   7.742   4.455
 5230SOL     OW20917   3.119   5.276   6.037
 5230SOL    HW120918   3.044   5.334   6.022
 5230SOL    HW220919   3.179   5.328   6.091
 5230SOL     MW20920   3.117   5.291   6.042
 5231SOL     OW20921   2.865   9.169   4.318
 5231SOL    HW120922   2.813   9.221   4.379
 5231SOL    HW220923   2.845   9.078   4.342
 5231SOL     MW20924   2.855   9.164   4.329
 5232SOL     OW20925   0.545   6.212   9.087
 5232SOL    HW120926   0.585   6.295   9.061
 5232SOL    HW220927   0.555   6.155   9.011
 5232SOL     MW20928   0.552   6.215   9.074
 5233SOL     OW20929   7.751   2.608   4.139
 5233SOL    HW120930   7.844   2.599   4.116
 5233SOL    HW220931   7.710   2.530   4.101
 5233SOL     MW20932   7.758   2.596   4.131
 5234SOL     OW20933   6.678   4.043   8.982
 5234SOL    HW120934   6.738   4.117   8.989
 5234SOL    HW220935   6.721   3.983   8.921
 5234SOL     MW20936   6.692   4.045   8.975
 5235SOL     OW20937   8.102   2.029   0.568
 5235SOL    HW120938   8.166   2.053   0.636
 5235SOL    HW220939   8.121   1.937   0.549
 5235SOL     MW20940   8.113   2.020   0.575
 5236SOL     OW20941   6.959   9.372   0.272
 5236SOL    HW120942   6.872   9.345   0.301
 5236SOL    HW220943   6.943   9.445   0.213
 5236SOL     MW20944   6.945   9.378   0.268
 5237SOL     OW20945   9.931   3.140   4.755
 5237SOL    HW120946   9.889   3.189   4.826
 5237SOL    HW220947   9.964   3.060   4.796
 5237SOL     MW20948   9.930   3.136   4.770
 5238SOL     OW20949   4.571   9.400   4.314
 5238SOL    HW120950   4.564   9.310   4.284
 5238SOL    HW220951   4.541   9.452   4.239
 5238SOL     MW20952   4.566   9.395   4.300
 5239SOL     OW20953   2.748   6.139   9.578
 5239SOL    HW120954   2.834   6.098   9.577
 5239SOL    HW220955   2.717   6.126   9.668
 5239SOL     MW20956   2.755   6.132   9.590
 5240SOL     OW20957   2.542   5.798   2.756
 5240SOL    HW120958   2.535   5.705   2.734
 5240SOL    HW220959   2.469   5.839   2.709
 5240SOL     MW20960   2.531   5.791   2.747
 5241SOL     OW20961   5.231   4.804   6.890
 5241SOL    HW120962   5.206   4.883   6.937
 5241SOL    HW220963   5.148   4.761   6.870
 5241SOL     MW20964   5.216   4.809   6.894
 5242SOL     OW20965   6.155   3.156   6.744
 5242SOL    HW120966   6.179   3.190   6.830
 5242SOL    HW220967   6.233   3.110   6.713
 5242SOL     MW20968   6.168   3.155   6.751
 5243SOL     OW20969  10.123   4.039   8.876
 5243SOL    HW120970  10.131   3.943   8.878
 5243SOL    HW220971  10.134   4.061   8.783
 5243SOL     MW20972  10.126   4.029   8.864
 5244SOL     OW20973   6.833   1.017   4.072
 5244SOL    HW120974   6.764   1.022   4.005
 5244SOL    HW220975   6.787   0.989   4.151
 5244SOL     MW20976   6.817   1.014   4.074
 5245SOL     OW20977   5.266   3.104   4.043
 5245SOL    HW120978   5.357   3.078   4.055
 5245SOL    HW220979   5.224   3.027   4.004
 5245SOL     MW20980   5.273   3.090   4.039
 5246SOL     OW20981   8.832   8.976   4.853
 5246SOL    HW120982   8.759   8.982   4.914
 5246SOL    HW220983   8.797   8.932   4.777
 5246SOL     MW20984   8.818   8.971   4.851
 5247SOL     OW20985   5.948   7.936   4.109
 5247SOL    HW120986   5.932   7.903   4.198
 5247SOL    HW220987   6.030   7.984   4.116
 5247SOL     MW20988   5.957   7.938   4.122
 5248SOL     OW20989   6.018   2.775   6.857
 5248SOL    HW120990   6.107   2.742   6.845
 5248SOL    HW220991   6.024   2.869   6.838
 5248SOL     MW20992   6.031   2.783   6.853
 5249SOL     OW20993   3.349   0.156   2.719
 5249SOL    HW120994   3.444   0.163   2.712
 5249SOL    HW220995   3.325   0.086   2.659
 5249SOL     MW20996   3.358   0.147   2.710
 5250SOL     OW20997   1.919   1.393   7.804
 5250SOL    HW120998   1.893   1.485   7.809
 5250SOL    HW220999   2.000   1.393   7.752
 5250SOL     MW21000   1.926   1.405   7.798
 5251SOL     OW21001   6.568   1.297   0.150
 5251SOL    HW121002   6.647   1.350   0.156
 5251SOL    HW221003   6.600   1.207   0.142
 5251SOL     MW21004   6.583   1.292   0.150
 5252SOL     OW21005   8.015   9.044   6.982
 5252SOL    HW121006   8.041   8.992   7.058
 5252SOL    HW221007   7.995   8.979   6.915
 5252SOL     MW21008   8.016   9.028   6.983
 5253SOL     OW21009   3.908   6.201   7.797
 5253SOL    HW121010   3.869   6.114   7.793
 5253SOL    HW221011   3.993   6.188   7.839
 5253SOL     MW21012   3.914   6.188   7.802
 5254SOL     OW21013   9.843   0.259   6.604
 5254SOL    HW121014   9.838   0.352   6.629
 5254SOL    HW221015   9.754   0.237   6.579
 5254SOL     MW21016   9.830   0.269   6.604
 5255SOL     OW21017   0.483   6.666   0.764
 5255SOL    HW121018   0.465   6.666   0.670
 5255SOL    HW221019   0.525   6.581   0.779
 5255SOL     MW21020   0.486   6.654   0.753
 5256SOL     OW21021   0.073   1.800   0.754
 5256SOL    HW121022   0.108   1.881   0.790
 5256SOL    HW221023   0.050   1.747   0.831
 5256SOL     MW21024   0.074   1.803   0.769
 5257SOL     OW21025   9.681   0.426   0.130
 5257SOL    HW121026   9.674   0.513   0.090
 5257SOL    HW221027   9.591   0.395   0.136
 5257SOL     MW21028   9.668   0.434   0.125
 5258SOL     OW21029   9.837   4.639   7.980
 5258SOL    HW121030   9.906   4.689   8.024
 5258SOL    HW221031   9.828   4.560   8.033
 5258SOL     MW21032   9.845   4.635   7.993
 5259SOL     OW21033   7.200   1.606   8.371
 5259SOL    HW121034   7.157   1.664   8.308
 5259SOL    HW221035   7.262   1.555   8.318
 5259SOL     MW21036   7.203   1.607   8.355
 5260SOL     OW21037   0.246   4.499   7.005
 5260SOL    HW121038   0.188   4.515   6.930
 5260SOL    HW221039   0.257   4.585   7.045
 5260SOL     MW21040   0.239   4.512   7.000
 5261SOL     OW21041   5.601  10.158   5.659
 5261SOL    HW121042   5.601  10.076   5.708
 5261SOL    HW221043   5.663  10.214   5.706
 5261SOL     MW21044   5.609  10.155   5.672
 5262SOL     OW21045   9.630   5.730   8.452
 5262SOL    HW121046   9.577   5.745   8.374
 5262SOL    HW221047   9.627   5.814   8.499
 5262SOL     MW21048   9.623   5.743   8.448
 5263SOL     OW21049   1.408   3.616   9.035
 5263SOL    HW121050   1.451   3.673   9.099
 5263SOL    HW221051   1.379   3.541   9.086
 5263SOL     MW21052   1.409   3.614   9.051
 5264SOL     OW21053   8.001   4.369   7.891
 5264SOL    HW121054   8.035   4.293   7.939
 5264SOL    HW221055   8.050   4.443   7.926
 5264SOL     MW21056   8.012   4.368   7.902
 5265SOL     OW21057   4.069   3.340   9.096
 5265SOL    HW121058   3.997   3.329   9.158
 5265SOL    HW221059   4.028   3.339   9.010
 5265SOL     MW21060   4.054   3.338   9.093
 5266SOL     OW21061   2.712   2.106   9.780
 5266SOL    HW121062   2.633   2.076   9.735
 5266SOL    HW221063   2.725   2.195   9.747
 5266SOL     MW21064   2.703   2.114   9.770
 5267SOL     OW21065   9.437   8.728   7.678
 5267SOL    HW121066   9.448   8.661   7.610
 5267SOL    HW221067   9.502   8.794   7.656
 5267SOL     MW21068   9.447   8.728   7.666
 5268SOL     OW21069   2.885   6.719   4.843
 5268SOL    HW121070   2.846   6.723   4.756
 5268SOL    HW221071   2.937   6.639   4.842
 5268SOL     MW21072   2.887   6.709   4.831
 5269SOL     OW21073   2.474   3.943   9.067
 5269SOL    HW121074   2.545   3.937   9.004
 5269SOL    HW221075   2.412   4.005   9.028
 5269SOL     MW21076   2.475   3.951   9.054
 5270SOL     OW21077   4.923   1.256   7.272
 5270SOL    HW121078   4.828   1.266   7.258
 5270SOL    HW221079   4.956   1.227   7.187
 5270SOL     MW21080   4.915   1.254   7.258
 5271SOL     OW21081   2.716   9.140   3.671
 5271SOL    HW121082   2.786   9.114   3.730
 5271SOL    HW221083   2.651   9.183   3.727
 5271SOL     MW21084   2.716   9.143   3.686
 5272SOL     OW21085   6.873   7.785   7.860
 5272SOL    HW121086   6.777   7.787   7.862
 5272SOL    HW221087   6.896   7.707   7.910
 5272SOL     MW21088   6.863   7.775   7.867
 5273SOL     OW21089   0.877   8.338   7.389
 5273SOL    HW121090   0.912   8.270   7.447
 5273SOL    HW221091   0.952   8.368   7.339
 5273SOL     MW21092   0.892   8.333   7.390
 5274SOL     OW21093   2.643   5.117   1.240
 5274SOL    HW121094   2.689   5.096   1.321
 5274SOL    HW221095   2.645   5.036   1.189
 5274SOL     MW21096   2.649   5.103   1.244
 5275SOL     OW21097   0.571   8.092   6.789
 5275SOL    HW121098   0.496   8.139   6.751
 5275SOL    HW221099   0.546   8.000   6.784
 5275SOL     MW21100   0.557   8.086   6.783
 5276SOL     OW21101   3.722   4.540   6.377
 5276SOL    HW121102   3.717   4.624   6.333
 5276SOL    HW221103   3.641   4.494   6.353
 5276SOL     MW21104   3.710   4.545   6.368
 5277SOL     OW21105   2.534   9.431   5.035
 5277SOL    HW121106   2.574   9.457   5.118
 5277SOL    HW221107   2.499   9.343   5.053
 5277SOL     MW21108   2.534   9.422   5.049
 5278SOL     OW21109   6.139   4.493  -0.001
 5278SOL    HW121110   6.053   4.485  -0.042
 5278SOL    HW221111   6.126   4.461   0.088
 5278SOL     MW21112   6.126   4.488   0.006
 5279SOL     OW21113   6.422   7.417   6.659
 5279SOL    HW121114   6.444   7.509   6.676
 5279SOL    HW221115   6.398   7.416   6.566
 5279SOL     MW21116   6.422   7.429   6.648
 5280SOL     OW21117   1.969   4.673   3.334
 5280SOL    HW121118   1.884   4.673   3.291
 5280SOL    HW221119   1.968   4.752   3.389
 5280SOL     MW21120   1.958   4.684   3.336
 5281SOL     OW21121   0.643   8.512   6.466
 5281SOL    HW121122   0.735   8.484   6.473
 5281SOL    HW221123   0.616   8.486   6.378
 5281SOL     MW21124   0.652   8.504   6.455
 5282SOL     OW21125   4.672   2.468   9.295
 5282SOL    HW121126   4.752   2.510   9.325
 5282SOL    HW221127   4.642   2.522   9.221
 5282SOL     MW21128   4.679   2.481   9.289
 5283SOL     OW21129   4.064   3.140   0.066
 5283SOL    HW121130   4.105   3.097  -0.010
 5283SOL    HW221131   3.982   3.092   0.078
 5283SOL     MW21132   4.059   3.128   0.057
 5284SOL     OW21133   1.269   3.177   6.410
 5284SOL    HW121134   1.251   3.176   6.504
 5284SOL    HW221135   1.329   3.250   6.397
 5284SOL     MW21136   1.274   3.187   6.421
 5285SOL     OW21137   5.139   8.167   0.365
 5285SOL    HW121138   5.136   8.252   0.321
 5285SOL    HW221139   5.232   8.145   0.369
 5285SOL     MW21140   5.151   8.175   0.360
 5286SOL     OW21141   9.447   9.329   0.082
 5286SOL    HW121142   9.463   9.263   0.014
 5286SOL    HW221143   9.376   9.382   0.047
 5286SOL     MW21144   9.440   9.327   0.068
 5287SOL     OW21145   6.241   8.770   7.591
 5287SOL    HW121146   6.331   8.737   7.589
 5287SOL    HW221147   6.193   8.705   7.643
 5287SOL     MW21148   6.247   8.757   7.598
 5288SOL     OW21149   1.817   1.128   8.811
 5288SOL    HW121150   1.778   1.117   8.725
 5288SOL    HW221151   1.886   1.193   8.799
 5288SOL     MW21152   1.821   1.135   8.798
 5289SOL     OW21153   2.037   4.716   6.244
 5289SOL    HW121154   1.952   4.759   6.258
 5289SOL    HW221155   2.072   4.758   6.166
 5289SOL     MW21156   2.030   4.727   6.236
 5290SOL     OW21157   6.607   5.754   9.480
 5290SOL    HW121158   6.554   5.682   9.447
 5290SOL    HW221159   6.546   5.828   9.486
 5290SOL     MW21160   6.592   5.755   9.476
 5291SOL     OW21161   2.850   1.461   5.878
 5291SOL    HW121162   2.851   1.365   5.876
 5291SOL    HW221163   2.939   1.486   5.855
 5291SOL     MW21164   2.862   1.451   5.875
 5292SOL     OW21165   5.908   1.620   7.994
 5292SOL    HW121166   5.863   1.592   8.073
 5292SOL    HW221167   5.978   1.677   8.025
 5292SOL     MW21168   5.912   1.624   8.008
 5293SOL     OW21169   2.719   9.587   0.428
 5293SOL    HW121170   2.681   9.657   0.481
 5293SOL    HW221171   2.725   9.512   0.487
 5293SOL     MW21172   2.715   9.586   0.443
 5294SOL     OW21173   9.317   8.427   1.220
 5294SOL    HW121174   9.241   8.391   1.265
 5294SOL    HW221175   9.349   8.496   1.278
 5294SOL     MW21176   9.311   8.431   1.234
 5295SOL     OW21177   5.245   1.607   1.182
 5295SOL    HW121178   5.327   1.641   1.145
 5295SOL    HW221179   5.271   1.531   1.233
 5295SOL     MW21180   5.260   1.602   1.184
 5296SOL     OW21181   3.339   8.715   8.821
 5296SOL    HW121182   3.402   8.643   8.826
 5296SOL    HW221183   3.259   8.680   8.859
 5296SOL     MW21184   3.337   8.701   8.827
 5297SOL     OW21185   8.405   3.042   5.805
 5297SOL    HW121186   8.322   3.016   5.767
 5297SOL    HW221187   8.447   3.098   5.740
 5297SOL     MW21188   8.400   3.046   5.791
 5298SOL     OW21189   5.736   6.565   5.053
 5298SOL    HW121190   5.777   6.514   5.122
 5298SOL    HW221191   5.738   6.509   4.975
 5298SOL     MW21192   5.742   6.551   5.052
 5299SOL     OW21193   4.332   5.963   1.244
 5299SOL    HW121194   4.272   6.022   1.200
 5299SOL    HW221195   4.417   6.007   1.240
 5299SOL     MW21196   4.336   5.977   1.237
 5300SOL     OW21197   7.336   8.106   8.249
 5300SOL    HW121198   7.328   8.161   8.171
 5300SOL    HW221199   7.371   8.164   8.316
 5300SOL     MW21200   7.340   8.121   8.247
 5301SOL     OW21201   5.838   0.941   9.783
 5301SOL    HW121202   5.796   1.012   9.832
 5301SOL    HW221203   5.914   0.917   9.837
 5301SOL     MW21204   5.843   0.948   9.797
 5302SOL     OW21205   1.856   4.391   8.103
 5302SOL    HW121206   1.903   4.360   8.026
 5302SOL    HW221207   1.777   4.339   8.107
 5302SOL     MW21208   1.852   4.380   8.093
 5303SOL     OW21209   8.944   3.558   3.046
 5303SOL    HW121210   8.935   3.653   3.049
 5303SOL    HW221211   8.854   3.526   3.039
 5303SOL     MW21212   8.930   3.566   3.046
 5304SOL     OW21213   0.325   0.719   7.278
 5304SOL    HW121214   0.393   0.784   7.261
 5304SOL    HW221215   0.371   0.635   7.273
 5304SOL     MW21216   0.341   0.716   7.275
 5305SOL     OW21217   0.880   0.828   3.003
 5305SOL    HW121218   0.791   0.803   2.979
 5305SOL    HW221219   0.917   0.868   2.924
 5305SOL     MW21220   0.873   0.830   2.989
 5306SOL     OW21221   3.467   1.623   4.357
 5306SOL    HW121222   3.387   1.625   4.305
 5306SOL    HW221223   3.524   1.688   4.316
 5306SOL     MW21224   3.464   1.632   4.344
 5307SOL     OW21225   3.704  10.003   3.780
 5307SOL    HW121226   3.664   9.955   3.708
 5307SOL    HW221227   3.664   9.965   3.859
 5307SOL     MW21228   3.693   9.991   3.781
 5308SOL     OW21229   5.291   9.089   2.147
 5308SOL    HW121230   5.258   9.179   2.147
 5308SOL    HW221231   5.386   9.099   2.157
 5308SOL     MW21232   5.300   9.103   2.148
 5309SOL     OW21233   0.979   4.387   2.575
 5309SOL    HW121234   0.938   4.326   2.514
 5309SOL    HW221235   0.990   4.337   2.656
 5309SOL     MW21236   0.975   4.372   2.578
 5310SOL     OW21237   7.991   0.032   5.701
 5310SOL    HW121238   8.003   0.037   5.607
 5310SOL    HW221239   7.994   0.123   5.731
 5310SOL     MW21240   7.993   0.045   5.693
 5311SOL     OW21241   7.528   4.310   2.222
 5311SOL    HW121242   7.605   4.278   2.175
 5311SOL    HW221243   7.552   4.398   2.251
 5311SOL     MW21244   7.541   4.318   2.220
 5312SOL     OW21245   6.472   9.548   5.233
 5312SOL    HW121246   6.500   9.544   5.141
 5312SOL    HW221247   6.424   9.631   5.239
 5312SOL     MW21248   6.469   9.559   5.221
 5313SOL     OW21249   1.165   9.122   6.904
 5313SOL    HW121250   1.111   9.102   6.828
 5313SOL    HW221251   1.107   9.168   6.964
 5313SOL     MW21252   1.150   9.126   6.901
 5314SOL     OW21253   7.409   2.916   9.057
 5314SOL    HW121254   7.364   2.996   9.085
 5314SOL    HW221255   7.349   2.876   8.995
 5314SOL     MW21256   7.395   2.922   9.053
 5315SOL     OW21257   9.377   8.559   5.640
 5315SOL    HW121258   9.304   8.541   5.580
 5315SOL    HW221259   9.448   8.587   5.583
 5315SOL     MW21260   9.376   8.560   5.624
 5316SOL     OW21261   0.348   8.237   6.702
 5316SOL    HW121262   0.272   8.179   6.694
 5316SOL    HW221263   0.330   8.290   6.779
 5316SOL     MW21264   0.335   8.237   6.711
 5317SOL     OW21265   2.494   6.043   8.257
 5317SOL    HW121266   2.503   6.094   8.176
 5317SOL    HW221267   2.525   6.103   8.326
 5317SOL     MW21268   2.499   6.058   8.255
 5318SOL     OW21269   2.673   4.345   9.798
 5318SOL    HW121270   2.689   4.316   9.708
 5318SOL    HW221271   2.592   4.301   9.823
 5318SOL     MW21272   2.664   4.335   9.789
 5319SOL     OW21273   9.878   4.144   8.132
 5319SOL    HW121274   9.865   4.088   8.055
 5319SOL    HW221275   9.948   4.101   8.181
 5319SOL     MW21276   9.885   4.130   8.128
 5320SOL     OW21277   5.670   4.778   1.861
 5320SOL    HW121278   5.664   4.768   1.956
 5320SOL    HW221279   5.758   4.747   1.840
 5320SOL     MW21280   5.681   4.773   1.871
 5321SOL     OW21281   5.477   9.958   6.463
 5321SOL    HW121282   5.436   9.969   6.549
 5321SOL    HW221283   5.571   9.953   6.482
 5321SOL     MW21284   5.484   9.959   6.477
 5322SOL     OW21285   1.032   8.955   8.275
 5322SOL    HW121286   1.016   9.018   8.205
 5322SOL    HW221287   1.095   8.893   8.238
 5322SOL     MW21288   1.038   8.955   8.261
 5323SOL     OW21289   2.997   6.058   4.587
 5323SOL    HW121290   3.020   5.990   4.650
 5323SOL    HW221291   2.991   6.012   4.503
 5323SOL     MW21292   3.000   6.043   4.584
 5324SOL     OW21293   1.212   6.048   3.913
 5324SOL    HW121294   1.282   6.108   3.888
 5324SOL    HW221295   1.132   6.100   3.906
 5324SOL     MW21296   1.211   6.063   3.908
 5325SOL     OW21297   7.340   0.990   1.200
 5325SOL    HW121298   7.388   1.032   1.272
 5325SOL    HW221299   7.259   0.959   1.241
 5325SOL     MW21300   7.336   0.991   1.215
 5326SOL     OW21301   1.963   5.506   9.136
 5326SOL    HW121302   1.905   5.461   9.075
 5326SOL    HW221303   2.050   5.471   9.118
 5326SOL     MW21304   1.967   5.495   9.125
 5327SOL     OW21305   4.439   2.570   5.727
 5327SOL    HW121306   4.440   2.475   5.722
 5327SOL    HW221307   4.459   2.590   5.819
 5327SOL     MW21308   4.442   2.560   5.739
 5328SOL     OW21309   1.861   3.215   1.841
 5328SOL    HW121310   1.843   3.297   1.795
 5328SOL    HW221311   1.912   3.163   1.779
 5328SOL     MW21312   1.865   3.219   1.827
 5329SOL     OW21313   2.546   5.430   1.540
 5329SOL    HW121314   2.485   5.504   1.549
 5329SOL    HW221315   2.539   5.405   1.448
 5329SOL     MW21316   2.537   5.437   1.529
 5330SOL     OW21317   5.146   8.164   1.873
 5330SOL    HW121318   5.206   8.181   1.801
 5330SOL    HW221319   5.106   8.080   1.853
 5330SOL     MW21320   5.149   8.155   1.861
 5331SOL     OW21321   4.202   6.152   0.308
 5331SOL    HW121322   4.162   6.236   0.330
 5331SOL    HW221323   4.295   6.170   0.301
 5331SOL     MW21324   4.209   6.166   0.310
 5332SOL     OW21325   3.727  10.116   7.209
 5332SOL    HW121326   3.716  10.210   7.199
 5332SOL    HW221327   3.818  10.100   7.186
 5332SOL     MW21328   3.738  10.126   7.204
 5333SOL     OW21329   8.815   3.910   8.018
 5333SOL    HW121330   8.871   3.912   7.940
 5333SOL    HW221331   8.791   4.001   8.033
 5333SOL     MW21332   8.819   3.922   8.009
 5334SOL     OW21333   9.053   9.560   8.140
 5334SOL    HW121334   9.122   9.578   8.077
 5334SOL    HW221335   9.095   9.505   8.206
 5334SOL     MW21336   9.068   9.555   8.140
 5335SOL     OW21337   9.513   3.646   9.779
 5335SOL    HW121338   9.582   3.656   9.844
 5335SOL    HW221339   9.502   3.551   9.771
 5335SOL     MW21340   9.521   3.635   9.787
 5336SOL     OW21341   0.341   4.991   3.374
 5336SOL    HW121342   0.330   4.906   3.419
 5336SOL    HW221343   0.306   5.055   3.436
 5336SOL     MW21344   0.335   4.988   3.389
 5337SOL     OW21345   2.170   2.857   5.278
 5337SOL    HW121346   2.154   2.770   5.316
 5337SOL    HW221347   2.092   2.874   5.224
 5337SOL     MW21348   2.157   2.847   5.276
 5338SOL     OW21349   9.949   3.376   0.586
 5338SOL    HW121350   9.901   3.326   0.652
 5338SOL    HW221351  10.038   3.339   0.589
 5338SOL     MW21352   9.955   3.364   0.595
 5339SOL     OW21353   8.455   8.130   3.053
 5339SOL    HW121354   8.383   8.133   2.990
 5339SOL    HW221355   8.478   8.037   3.058
 5339SOL     MW21356   8.448   8.118   3.045
 5340SOL     OW21357   8.008   2.832   1.359
 5340SOL    HW121358   8.069   2.796   1.424
 5340SOL    HW221359   8.063   2.887   1.302
 5340SOL     MW21360   8.024   2.834   1.360
 5341SOL     OW21361   6.372   9.557   7.999
 5341SOL    HW121362   6.406   9.616   8.067
 5341SOL    HW221363   6.283   9.588   7.983
 5341SOL     MW21364   6.365   9.569   8.006
 5342SOL     OW21365   5.360   8.615   1.281
 5342SOL    HW121366   5.364   8.587   1.190
 5342SOL    HW221367   5.290   8.561   1.320
 5342SOL     MW21368   5.351   8.604   1.274
 5343SOL     OW21369   6.976   8.137   9.006
 5343SOL    HW121370   7.030   8.172   9.076
 5343SOL    HW221371   6.886   8.152   9.035
 5343SOL     MW21372   6.971   8.143   9.019
 5344SOL     OW21373   9.583   8.619   6.762
 5344SOL    HW121374   9.508   8.637   6.706
 5344SOL    HW221375   9.658   8.652   6.713
 5344SOL     MW21376   9.583   8.626   6.748
 5345SOL     OW21377   6.385   4.141   1.882
 5345SOL    HW121378   6.350   4.108   1.964
 5345SOL    HW221379   6.473   4.102   1.876
 5345SOL     MW21380   6.392   4.131   1.892
 5346SOL     OW21381   1.511   2.670   2.214
 5346SOL    HW121382   1.511   2.578   2.190
 5346SOL    HW221383   1.529   2.670   2.309
 5346SOL     MW21384   1.514   2.658   2.224
 5347SOL     OW21385   7.586   7.567   4.299
 5347SOL    HW121386   7.551   7.530   4.380
 5347SOL    HW221387   7.568   7.499   4.233
 5347SOL     MW21388   7.579   7.553   4.301
 5348SOL     OW21389   2.637   7.341   8.496
 5348SOL    HW121390   2.605   7.351   8.406
 5348SOL    HW221391   2.581   7.273   8.533
 5348SOL     MW21392   2.625   7.333   8.489
 5349SOL     OW21393   7.442   1.246   6.556
 5349SOL    HW121394   7.351   1.269   6.570
 5349SOL    HW221395   7.480   1.322   6.513
 5349SOL     MW21396   7.435   1.259   6.552
 5350SOL     OW21397   8.550   1.203   1.244
 5350SOL    HW121398   8.495   1.180   1.169
 5350SOL    HW221399   8.524   1.291   1.268
 5350SOL     MW21400   8.539   1.212   1.237
 5351SOL     OW21401   5.856   4.531   6.849
 5351SOL    HW121402   5.892   4.451   6.811
 5351SOL    HW221403   5.771   4.504   6.884
 5351SOL     MW21404   5.849   4.516   6.848
 5352SOL     OW21405   1.786   8.963   8.374
 5352SOL    HW121406   1.693   8.953   8.395
 5352SOL    HW221407   1.798   9.057   8.364
 5352SOL     MW21408   1.775   8.974   8.375
 5353SOL     OW21409   4.291   8.626   8.100
 5353SOL    HW121410   4.238   8.643   8.177
 5353SOL    HW221411   4.337   8.709   8.083
 5353SOL     MW21412   4.290   8.640   8.108
 5354SOL     OW21413   1.975   4.150   9.859
 5354SOL    HW121414   2.048   4.137   9.920
 5354SOL    HW221415   1.926   4.068   9.861
 5354SOL     MW21416   1.978   4.137   9.867
 5355SOL     OW21417   5.288   9.128   0.277
 5355SOL    HW121418   5.254   9.062   0.216
 5355SOL    HW221419   5.210   9.165   0.318
 5355SOL     MW21420   5.273   9.124   0.274
 5356SOL     OW21421   1.045   9.594   5.616
 5356SOL    HW121422   1.100   9.549   5.680
 5356SOL    HW221423   0.982   9.644   5.668
 5356SOL     MW21424   1.044   9.594   5.632
 5357SOL     OW21425   1.950   5.325   6.787
 5357SOL    HW121426   1.991   5.288   6.709
 5357SOL    HW221427   1.911   5.249   6.831
 5357SOL     MW21428   1.950   5.310   6.782
 5358SOL     OW21429   8.620   4.880   5.396
 5358SOL    HW121430   8.660   4.929   5.324
 5358SOL    HW221431   8.549   4.936   5.426
 5358SOL     MW21432   8.616   4.895   5.390
 5359SOL     OW21433   9.481   9.428   0.839
 5359SOL    HW121434   9.495   9.392   0.751
 5359SOL    HW221435   9.560   9.478   0.858
 5359SOL     MW21436   9.493   9.430   0.830
 5360SOL     OW21437   1.153   8.530   5.183
 5360SOL    HW121438   1.137   8.547   5.276
 5360SOL    HW221439   1.097   8.592   5.137
 5360SOL     MW21440   1.143   8.540   5.189
 5361SOL     OW21441   9.345   7.014   7.122
 5361SOL    HW121442   9.425   7.057   7.092
 5361SOL    HW221443   9.373   6.955   7.191
 5361SOL     MW21444   9.360   7.012   7.127
 5362SOL     OW21445   4.801   1.300   0.433
 5362SOL    HW121446   4.864   1.228   0.438
 5362SOL    HW221447   4.827   1.359   0.503
 5362SOL     MW21448   4.813   1.298   0.443
 5363SOL     OW21449   5.750   3.013   9.636
 5363SOL    HW121450   5.655   3.012   9.638
 5363SOL    HW221451   5.773   3.105   9.624
 5363SOL     MW21452   5.741   3.025   9.634
 5364SOL     OW21453   9.334   6.986   2.268
 5364SOL    HW121454   9.421   6.989   2.307
 5364SOL    HW221455   9.275   7.012   2.338
 5364SOL     MW21456   9.338   6.990   2.283
 5365SOL     OW21457   8.917   7.781   2.204
 5365SOL    HW121458   8.882   7.736   2.127
 5365SOL    HW221459   9.009   7.794   2.184
 5365SOL     MW21460   8.924   7.776   2.191
 5366SOL     OW21461   0.976   8.198   1.641
 5366SOL    HW121462   0.908   8.130   1.637
 5366SOL    HW221463   1.057   8.151   1.621
 5366SOL     MW21464   0.978   8.182   1.638
 5367SOL     OW21465   7.767   9.121   7.081
 5367SOL    HW121466   7.854   9.106   7.043
 5367SOL    HW221467   7.715   9.047   7.051
 5367SOL     MW21468   7.772   9.109   7.072
 5368SOL     OW21469   6.705   8.742   1.209
 5368SOL    HW121470   6.680   8.766   1.119
 5368SOL    HW221471   6.795   8.773   1.218
 5368SOL     MW21472   6.713   8.749   1.198
 5369SOL     OW21473   7.100   2.129   7.762
 5369SOL    HW121474   7.186   2.163   7.790
 5369SOL    HW221475   7.120   2.067   7.692
 5369SOL     MW21476   7.114   2.125   7.756
 5370SOL     OW21477   6.215   4.466   6.695
 5370SOL    HW121478   6.277   4.484   6.766
 5370SOL    HW221479   6.270   4.441   6.621
 5370SOL     MW21480   6.231   4.465   6.695
 5371SOL     OW21481   5.482   0.742   5.659
 5371SOL    HW121482   5.437   0.776   5.581
 5371SOL    HW221483   5.418   0.686   5.702
 5371SOL     MW21484   5.468   0.739   5.654
 5372SOL     OW21485   8.433   4.333   7.789
 5372SOL    HW121486   8.524   4.352   7.766
 5372SOL    HW221487   8.387   4.332   7.705
 5372SOL     MW21488   8.439   4.335   7.775
 5373SOL     OW21489   6.686   0.037   4.583
 5373SOL    HW121490   6.625   0.090   4.633
 5373SOL    HW221491   6.674  -0.052   4.616
 5373SOL     MW21492   6.676   0.032   4.594
 5374SOL     OW21493   4.454   6.702   7.304
 5374SOL    HW121494   4.364   6.688   7.274
 5374SOL    HW221495   4.447   6.708   7.399
 5374SOL     MW21496   4.441   6.701   7.312
 5375SOL     OW21497   2.425   0.775   9.847
 5375SOL    HW121498   2.414   0.766   9.752
 5375SOL    HW221499   2.499   0.718   9.867
 5375SOL     MW21500   2.434   0.766   9.837
 5376SOL     OW21501   2.533   2.005   7.381
 5376SOL    HW121502   2.468   2.074   7.398
 5376SOL    HW221503   2.617   2.045   7.406
 5376SOL     MW21504   2.536   2.020   7.387
 5377SOL     OW21505   4.820   4.339   5.391
 5377SOL    HW121506   4.751   4.343   5.458
 5377SOL    HW221507   4.789   4.395   5.321
 5377SOL     MW21508   4.807   4.347   5.391
 5378SOL     OW21509   1.238   7.614   2.502
 5378SOL    HW121510   1.334   7.621   2.498
 5378SOL    HW221511   1.217   7.543   2.441
 5378SOL     MW21512   1.248   7.605   2.493
 5379SOL     OW21513   8.904   9.136   7.902
 5379SOL    HW121514   8.919   9.227   7.924
 5379SOL    HW221515   8.966   9.117   7.831
 5379SOL     MW21516   8.914   9.146   7.895
 5380SOL     OW21517   0.184   4.013   7.545
 5380SOL    HW121518   0.233   3.931   7.540
 5380SOL    HW221519   0.183   4.047   7.456
 5380SOL     MW21520   0.190   4.007   7.532
 5381SOL     OW21521   0.498   6.316   2.706
 5381SOL    HW121522   0.425   6.330   2.767
 5381SOL    HW221523   0.456   6.277   2.629
 5381SOL     MW21524   0.482   6.313   2.704
 5382SOL     OW21525   6.332   8.358   3.441
 5382SOL    HW121526   6.297   8.432   3.491
 5382SOL    HW221527   6.257   8.323   3.394
 5382SOL     MW21528   6.317   8.364   3.441
 5383SOL     OW21529   3.941   4.449   7.456
 5383SOL    HW121530   3.885   4.523   7.432
 5383SOL    HW221531   3.880   4.379   7.478
 5383SOL     MW21532   3.925   4.450   7.456
 5384SOL     OW21533   3.548   7.976   2.621
 5384SOL    HW121534   3.636   7.954   2.654
 5384SOL    HW221535   3.502   7.893   2.619
 5384SOL     MW21536   3.554   7.962   2.625
 5385SOL     OW21537   2.117   2.205   6.457
 5385SOL    HW121538   2.103   2.270   6.388
 5385SOL    HW221539   2.033   2.201   6.503
 5385SOL     MW21540   2.104   2.213   6.454
 5386SOL     OW21541   6.980   0.502   0.379
 5386SOL    HW121542   7.014   0.491   0.291
 5386SOL    HW221543   6.985   0.415   0.418
 5386SOL     MW21544   6.985   0.489   0.373
 5387SOL     OW21545   6.252   8.529   3.654
 5387SOL    HW121546   6.305   8.458   3.690
 5387SOL    HW221547   6.290   8.608   3.691
 5387SOL     MW21548   6.264   8.530   3.664
 5388SOL     OW21549   1.541   0.142   2.182
 5388SOL    HW121550   1.635   0.134   2.197
 5388SOL    HW221551   1.533   0.214   2.119
 5388SOL     MW21552   1.553   0.151   2.175
 5389SOL     OW21553   9.443   2.451   5.188
 5389SOL    HW121554   9.492   2.515   5.135
 5389SOL    HW221555   9.396   2.504   5.252
 5389SOL     MW21556   9.443   2.467   5.189
 5390SOL     OW21557   9.195   9.429   6.376
 5390SOL    HW121558   9.280   9.473   6.376
 5390SOL    HW221559   9.150   9.465   6.299
 5390SOL     MW21560   9.200   9.440   6.366
 5391SOL     OW21561   2.494   7.910   0.866
 5391SOL    HW121562   2.495   8.003   0.843
 5391SOL    HW221563   2.563   7.901   0.931
 5391SOL     MW21564   2.503   7.921   0.872
 5392SOL     OW21565   1.481   2.343   8.207
 5392SOL    HW121566   1.562   2.298   8.182
 5392SOL    HW221567   1.448   2.380   8.125
 5392SOL     MW21568   1.488   2.342   8.193
 5393SOL     OW21569   6.799   7.098   7.346
 5393SOL    HW121570   6.775   7.189   7.326
 5393SOL    HW221571   6.733   7.069   7.408
 5393SOL     MW21572   6.787   7.107   7.352
 5394SOL     OW21573   7.045   5.667   1.964
 5394SOL    HW121574   7.088   5.584   1.984
 5394SOL    HW221575   7.004   5.693   2.047
 5394SOL     MW21576   7.045   5.660   1.978
 5395SOL     OW21577   1.522   6.023   1.607
 5395SOL    HW121578   1.586   6.049   1.541
 5395SOL    HW221579   1.544   6.077   1.683
 5395SOL     MW21580   1.534   6.034   1.608
 5396SOL     OW21581   7.174   4.595   5.814
 5396SOL    HW121582   7.227   4.660   5.767
 5396SOL    HW221583   7.087   4.635   5.820
 5396SOL     MW21584   7.170   4.609   5.808
 5397SOL     OW21585   4.369   2.233   2.475
 5397SOL    HW121586   4.352   2.217   2.568
 5397SOL    HW221587   4.293   2.283   2.445
 5397SOL     MW21588   4.357   2.238   2.484
 5398SOL     OW21589   9.107   2.239   5.597
 5398SOL    HW121590   9.137   2.329   5.589
 5398SOL    HW221591   9.061   2.221   5.514
 5398SOL     MW21592   9.105   2.248   5.584
 5399SOL     OW21593   8.198   2.734   1.533
 5399SOL    HW121594   8.189   2.638   1.533
 5399SOL    HW221595   8.273   2.750   1.475
 5399SOL     MW21596   8.207   2.723   1.525
 5400SOL     OW21597   8.032   3.873   2.325
 5400SOL    HW121598   7.952   3.885   2.376
 5400SOL    HW221599   8.003   3.844   2.239
 5400SOL     MW21600   8.017   3.871   2.321
 5401SOL     OW21601   2.657   4.939   0.397
 5401SOL    HW121602   2.718   4.972   0.462
 5401SOL    HW221603   2.713   4.905   0.327
 5401SOL     MW21604   2.673   4.939   0.396
 5402SOL     OW21605   1.162   6.601   6.404
 5402SOL    HW121606   1.115   6.679   6.373
 5402SOL    HW221607   1.162   6.542   6.329
 5402SOL     MW21608   1.156   6.604   6.390
 5403SOL     OW21609   6.304   1.776   3.911
 5403SOL    HW121610   6.316   1.767   4.005
 5403SOL    HW221611   6.239   1.845   3.901
 5403SOL     MW21612   6.297   1.784   3.922
 5404SOL     OW21613   2.451   9.165   5.079
 5404SOL    HW121614   2.465   9.126   5.166
 5404SOL    HW221615   2.513   9.119   5.022
 5404SOL     MW21616   2.461   9.153   5.083
 5405SOL     OW21617   2.787   8.790   0.720
 5405SOL    HW121618   2.745   8.722   0.667
 5405SOL    HW221619   2.867   8.812   0.671
 5405SOL     MW21620   2.792   8.784   0.706
 5406SOL     OW21621   6.628   6.050   7.869
 5406SOL    HW121622   6.715   6.012   7.873
 5406SOL    HW221623   6.642   6.144   7.876
 5406SOL     MW21624   6.641   6.058   7.871
 5407SOL     OW21625   3.830   2.312   2.287
 5407SOL    HW121626   3.802   2.374   2.354
 5407SOL    HW221627   3.823   2.361   2.205
 5407SOL     MW21628   3.826   2.327   2.285
 5408SOL     OW21629   7.100   3.210   2.308
 5408SOL    HW121630   7.190   3.189   2.334
 5408SOL    HW221631   7.054   3.221   2.391
 5408SOL     MW21632   7.106   3.209   2.323
 5409SOL     OW21633   5.710   3.278   8.450
 5409SOL    HW121634   5.680   3.189   8.470
 5409SOL    HW221635   5.698   3.288   8.356
 5409SOL     MW21636   5.705   3.267   8.440
 5410SOL     OW21637   2.970   2.145   1.747
 5410SOL    HW121638   2.890   2.155   1.696
 5410SOL    HW221639   3.040   2.177   1.690
 5410SOL     MW21640   2.969   2.151   1.733
 5411SOL     OW21641   6.384   9.267   5.833
 5411SOL    HW121642   6.310   9.328   5.828
 5411SOL    HW221643   6.345   9.185   5.862
 5411SOL     MW21644   6.368   9.264   5.836
 5412SOL     OW21645   5.378   3.402   9.665
 5412SOL    HW121646   5.340   3.485   9.636
 5412SOL    HW221647   5.470   3.423   9.682
 5412SOL     MW21648   5.385   3.416   9.663
 5413SOL     OW21649   7.516   6.456   0.396
 5413SOL    HW121650   7.550   6.507   0.469
 5413SOL    HW221651   7.534   6.365   0.420
 5413SOL     MW21652   7.523   6.451   0.409
 5414SOL     OW21653   3.068   3.414   2.078
 5414SOL    HW121654   3.071   3.395   1.984
 5414SOL    HW221655   3.109   3.337   2.118
 5414SOL     MW21656   3.074   3.401   2.070
 5415SOL     OW21657   1.782   5.962   6.014
 5415SOL    HW121658   1.801   5.888   5.955
 5415SOL    HW221659   1.733   6.024   5.961
 5415SOL     MW21660   1.778   5.960   5.999
 5416SOL     OW21661   8.008   7.144   5.006
 5416SOL    HW121662   8.068   7.206   5.048
 5416SOL    HW221663   7.970   7.094   5.078
 5416SOL     MW21664   8.011   7.146   5.021
 5417SOL     OW21665   7.663   1.248   6.159
 5417SOL    HW121666   7.719   1.208   6.225
 5417SOL    HW221667   7.654   1.181   6.091
 5417SOL     MW21668   7.669   1.233   6.159
 5418SOL     OW21669   6.899   8.298   1.592
 5418SOL    HW121670   6.942   8.272   1.510
 5418SOL    HW221671   6.809   8.315   1.568
 5418SOL     MW21672   6.893   8.297   1.578
 5419SOL     OW21673   6.252   5.633   1.557
 5419SOL    HW121674   6.302   5.663   1.481
 5419SOL    HW221675   6.188   5.571   1.522
 5419SOL     MW21676   6.250   5.629   1.542
 5420SOL     OW21677   1.100   1.182   5.149
 5420SOL    HW121678   1.175   1.212   5.202
 5420SOL    HW221679   1.136   1.113   5.094
 5420SOL     MW21680   1.115   1.177   5.149
 5421SOL     OW21681   5.415   8.626   3.174
 5421SOL    HW121682   5.391   8.583   3.256
 5421SOL    HW221683   5.350   8.595   3.111
 5421SOL     MW21684   5.403   8.616   3.177
 5422SOL     OW21685   7.751   2.201   7.536
 5422SOL    HW121686   7.694   2.214   7.612
 5422SOL    HW221687   7.742   2.282   7.485
 5422SOL     MW21688   7.742   2.214   7.539
 5423SOL     OW21689   8.807   2.810   6.037
 5423SOL    HW121690   8.726   2.860   6.021
 5423SOL    HW221691   8.876   2.876   6.038
 5423SOL     MW21692   8.805   2.826   6.035
 5424SOL     OW21693   4.474   6.194   0.289
 5424SOL    HW121694   4.546   6.255   0.302
 5424SOL    HW221695   4.517   6.113   0.261
 5424SOL     MW21696   4.490   6.191   0.287
 5425SOL     OW21697   1.589   5.171   4.393
 5425SOL    HW121698   1.636   5.125   4.323
 5425SOL    HW221699   1.608   5.263   4.378
 5425SOL     MW21700   1.598   5.177   4.382
 5426SOL     OW21701   3.221   3.449   8.309
 5426SOL    HW121702   3.226   3.524   8.249
 5426SOL    HW221703   3.304   3.452   8.357
 5426SOL     MW21704   3.233   3.460   8.307
 5427SOL     OW21705   9.408   1.373   4.361
 5427SOL    HW121706   9.428   1.286   4.396
 5427SOL    HW221707   9.320   1.392   4.393
 5427SOL     MW21708   9.399   1.364   4.370
 5428SOL     OW21709   0.201   5.208   0.259
 5428SOL    HW121710   0.291   5.181   0.278
 5428SOL    HW221711   0.198   5.300   0.285
 5428SOL     MW21712   0.213   5.217   0.265
 5429SOL     OW21713   3.724   1.517   3.755
 5429SOL    HW121714   3.691   1.541   3.842
 5429SOL    HW221715   3.782   1.589   3.731
 5429SOL     MW21716   3.727   1.530   3.763
 5430SOL     OW21717   8.136   7.589   9.218
 5430SOL    HW121718   8.062   7.640   9.186
 5430SOL    HW221719   8.127   7.590   9.313
 5430SOL     MW21720   8.125   7.596   9.226
 5431SOL     OW21721   8.974   4.404   6.706
 5431SOL    HW121722   8.917   4.354   6.646
 5431SOL    HW221723   8.928   4.402   6.790
 5431SOL     MW21724   8.960   4.397   6.709
 5432SOL     OW21725   5.086   6.915   9.437
 5432SOL    HW121726   5.084   6.907   9.342
 5432SOL    HW221727   5.138   6.993   9.454
 5432SOL     MW21728   5.092   6.924   9.426
 5433SOL     OW21729   0.781   6.192   0.753
 5433SOL    HW121730   0.690   6.166   0.764
 5433SOL    HW221731   0.796   6.186   0.659
 5433SOL     MW21732   0.771   6.188   0.742
 5434SOL     OW21733   5.048   2.332   7.148
 5434SOL    HW121734   4.984   2.291   7.207
 5434SOL    HW221735   5.030   2.426   7.156
 5434SOL     MW21736   5.037   2.339   7.157
 5435SOL     OW21737   7.016   9.474   9.237
 5435SOL    HW121738   7.084   9.525   9.195
 5435SOL    HW221739   7.021   9.388   9.197
 5435SOL     MW21740   7.025   9.469   9.226
 5436SOL     OW21741   7.750   7.043   1.734
 5436SOL    HW121742   7.688   7.103   1.776
 5436SOL    HW221743   7.727   7.046   1.641
 5436SOL     MW21744   7.738   7.051   1.727
 5437SOL     OW21745   1.828   1.432  10.069
 5437SOL    HW121746   1.878   1.483  10.132
 5437SOL    HW221747   1.842   1.477   9.985
 5437SOL     MW21748   1.837   1.445  10.066
 5438SOL     OW21749   7.889   4.633   9.251
 5438SOL    HW121750   7.980   4.657   9.266
 5438SOL    HW221751   7.890   4.538   9.240
 5438SOL     MW21752   7.901   4.623   9.251
 5439SOL     OW21753   5.002  10.095   2.060
 5439SOL    HW121754   5.058  10.091   1.982
 5439SOL    HW221755   5.059  10.132   2.128
 5439SOL     MW21756   5.017  10.099   2.059
 5440SOL     OW21757   7.108   4.281   0.399
 5440SOL    HW121758   7.017   4.253   0.412
 5440SOL    HW221759   7.119   4.356   0.457
 5440SOL     MW21760   7.097   4.287   0.408
 5441SOL     OW21761   8.613   1.612   7.158
 5441SOL    HW121762   8.703   1.639   7.177
 5441SOL    HW221763   8.563   1.694   7.156
 5441SOL     MW21764   8.619   1.627   7.160
 5442SOL     OW21765   4.470   8.940   4.387
 5442SOL    HW121766   4.421   8.974   4.461
 5442SOL    HW221767   4.436   8.852   4.373
 5442SOL     MW21768   4.459   8.933   4.395
 5443SOL     OW21769  10.033   4.196   3.816
 5443SOL    HW121770   9.950   4.175   3.858
 5443SOL    HW221771  10.028   4.290   3.799
 5443SOL     MW21772  10.022   4.206   3.819
 5444SOL     OW21773   7.152   2.242   6.276
 5444SOL    HW121774   7.087   2.176   6.252
 5444SOL    HW221775   7.139   2.257   6.369
 5444SOL     MW21776   7.142   2.235   6.285
 5445SOL     OW21777   0.499   6.142   0.792
 5445SOL    HW121778   0.416   6.170   0.831
 5445SOL    HW221779   0.489   6.047   0.780
 5445SOL     MW21780   0.486   6.133   0.796
 5446SOL     OW21781   2.944   3.599   2.254
 5446SOL    HW121782   2.983   3.536   2.192
 5446SOL    HW221783   2.990   3.681   2.237
 5446SOL     MW21784   2.956   3.601   2.243
 5447SOL     OW21785   4.934   8.306   0.919
 5447SOL    HW121786   5.025   8.276   0.925
 5447SOL    HW221787   4.884   8.242   0.970
 5447SOL     MW21788   4.940   8.293   0.927
 5448SOL     OW21789   8.286   3.982   2.372
 5448SOL    HW121790   8.332   3.901   2.394
 5448SOL    HW221791   8.197   3.955   2.353
 5448SOL     MW21792   8.280   3.968   2.373
 5449SOL     OW21793   7.644   1.482   8.089
 5449SOL    HW121794   7.667   1.436   8.008
 5449SOL    HW221795   7.692   1.565   8.083
 5449SOL     MW21796   7.653   1.487   8.078
 5450SOL     OW21797   2.168   6.432   5.683
 5450SOL    HW121798   2.146   6.391   5.767
 5450SOL    HW221799   2.114   6.387   5.619
 5450SOL     MW21800   2.158   6.420   5.686
 5451SOL     OW21801   0.799   7.579   1.344
 5451SOL    HW121802   0.891   7.599   1.325
 5451SOL    HW221803   0.750   7.648   1.299
 5451SOL     MW21804   0.805   7.591   1.336
 5452SOL     OW21805   1.544   7.843   8.593
 5452SOL    HW121806   1.611   7.901   8.557
 5452SOL    HW221807   1.466   7.859   8.541
 5452SOL     MW21808   1.543   7.853   8.581
 5453SOL     OW21809   4.859   3.820   4.365
 5453SOL    HW121810   4.920   3.811   4.439
 5453SOL    HW221811   4.826   3.909   4.372
 5453SOL     MW21812   4.863   3.831   4.376
 5454SOL     OW21813   0.256   0.304   5.269
 5454SOL    HW121814   0.341   0.285   5.230
 5454SOL    HW221815   0.256   0.399   5.283
 5454SOL     MW21816   0.267   0.314   5.266
 5455SOL     OW21817   9.195   9.435   8.337
 5455SOL    HW121818   9.178   9.362   8.396
 5455SOL    HW221819   9.208   9.510   8.395
 5455SOL     MW21820   9.194   9.435   8.353
 5456SOL     OW21821   3.193   2.695   3.323
 5456SOL    HW121822   3.230   2.718   3.408
 5456SOL    HW221823   3.268   2.663   3.272
 5456SOL     MW21824   3.208   2.694   3.328
 5457SOL     OW21825   0.888   8.629   4.026
 5457SOL    HW121826   0.900   8.545   4.071
 5457SOL    HW221827   0.827   8.610   3.955
 5457SOL     MW21828   0.881   8.615   4.023
 5458SOL     OW21829   0.044   2.015   2.492
 5458SOL    HW121830   0.032   1.936   2.439
 5458SOL    HW221831   0.025   2.087   2.432
 5458SOL     MW21832   0.040   2.014   2.477
 5459SOL     OW21833   8.545   0.514   8.502
 5459SOL    HW121834   8.559   0.593   8.554
 5459SOL    HW221835   8.459   0.482   8.530
 5459SOL     MW21836   8.536   0.521   8.513
 5460SOL     OW21837  10.117   0.881   1.388
 5460SOL    HW121838  10.059   0.840   1.452
 5460SOL    HW221839  10.058   0.925   1.327
 5460SOL     MW21840  10.101   0.881   1.388
 5461SOL     OW21841   3.953   6.310   2.991
 5461SOL    HW121842   4.024   6.334   3.051
 5461SOL    HW221843   3.896   6.254   3.043
 5461SOL     MW21844   3.955   6.306   3.006
 5462SOL     OW21845   5.877   5.642   1.595
 5462SOL    HW121846   5.840   5.694   1.523
 5462SOL    HW221847   5.937   5.702   1.640
 5462SOL     MW21848   5.880   5.657   1.591
 5463SOL     OW21849   8.079   0.878   0.651
 5463SOL    HW121850   8.035   0.849   0.731
 5463SOL    HW221851   8.021   0.849   0.581
 5463SOL     MW21852   8.065   0.870   0.652
 5464SOL     OW21853   9.034   9.794   8.282
 5464SOL    HW121854   9.116   9.834   8.253
 5464SOL    HW221855   9.032   9.710   8.237
 5464SOL     MW21856   9.045   9.788   8.272
 5465SOL     OW21857   6.464   8.891   1.221
 5465SOL    HW121858   6.545   8.855   1.258
 5465SOL    HW221859   6.483   8.901   1.128
 5465SOL     MW21860   6.478   8.887   1.214
 5466SOL     OW21861   0.224   5.162   3.559
 5466SOL    HW121862   0.149   5.217   3.538
 5466SOL    HW221863   0.226   5.160   3.655
 5466SOL     MW21864   0.214   5.169   3.569
 5467SOL     OW21865   8.554   6.990   9.804
 5467SOL    HW121866   8.500   7.017   9.730
 5467SOL    HW221867   8.549   7.063   9.866
 5467SOL     MW21868   8.546   7.003   9.802
 5468SOL     OW21869   0.779   9.394   2.526
 5468SOL    HW121870   0.732   9.314   2.504
 5468SOL    HW221871   0.870   9.375   2.504
 5468SOL     MW21872   0.785   9.381   2.520
 5469SOL     OW21873   1.770   2.944   1.863
 5469SOL    HW121874   1.773   3.036   1.887
 5469SOL    HW221875   1.752   2.898   1.945
 5469SOL     MW21876   1.768   2.950   1.877
 5470SOL     OW21877   4.921   1.859   1.181
 5470SOL    HW121878   4.946   1.774   1.144
 5470SOL    HW221879   4.845   1.839   1.236
 5470SOL     MW21880   4.914   1.845   1.183
 5471SOL     OW21881   0.362   8.087   9.417
 5471SOL    HW121882   0.393   8.083   9.507
 5471SOL    HW221883   0.361   8.180   9.396
 5471SOL     MW21884   0.366   8.099   9.427
 5472SOL     OW21885   9.243   2.771   6.861
 5472SOL    HW121886   9.203   2.787   6.776
 5472SOL    HW221887   9.238   2.855   6.907
 5472SOL     MW21888   9.237   2.784   6.856
 5473SOL     OW21889   9.378   1.107   4.903
 5473SOL    HW121890   9.370   1.178   4.839
 5473SOL    HW221891   9.305   1.049   4.884
 5473SOL     MW21892   9.367   1.109   4.892
 5474SOL     OW21893   4.670   9.615   4.781
 5474SOL    HW121894   4.629   9.597   4.696
 5474SOL    HW221895   4.698   9.707   4.774
 5474SOL     MW21896   4.668   9.625   4.769
 5475SOL     OW21897   1.582   3.123   0.782
 5475SOL    HW121898   1.587   3.031   0.806
 5475SOL    HW221899   1.599   3.125   0.688
 5475SOL     MW21900   1.585   3.111   0.773
 5476SOL     OW21901   2.461   0.197   6.138
 5476SOL    HW121902   2.523   0.269   6.127
 5476SOL    HW221903   2.507   0.135   6.196
 5476SOL     MW21904   2.476   0.198   6.144
 5477SOL     OW21905   3.636   8.877   9.101
 5477SOL    HW121906   3.638   8.954   9.044
 5477SOL    HW221907   3.544   8.855   9.108
 5477SOL     MW21908   3.624   8.885   9.094
 5478SOL     OW21909   2.796   7.802   7.878
 5478SOL    HW121910   2.887   7.802   7.849
 5478SOL    HW221911   2.796   7.862   7.953
 5478SOL     MW21912   2.809   7.810   7.884
 5479SOL     OW21913   7.521   1.360   2.479
 5479SOL    HW121914   7.493   1.446   2.448
 5479SOL    HW221915   7.610   1.350   2.446
 5479SOL     MW21916   7.529   1.370   2.470
 5480SOL     OW21917   5.839   7.805   2.879
 5480SOL    HW121918   5.825   7.720   2.838
 5480SOL    HW221919   5.839   7.867   2.806
 5480SOL     MW21920   5.837   7.802   2.864
 5481SOL     OW21921   7.059   4.917   7.382
 5481SOL    HW121922   7.009   4.886   7.458
 5481SOL    HW221923   6.995   4.965   7.329
 5481SOL     MW21924   7.043   4.919   7.385
 5482SOL     OW21925   8.873   9.866   8.501
 5482SOL    HW121926   8.781   9.843   8.484
 5482SOL    HW221927   8.918   9.844   8.420
 5482SOL     MW21928   8.866   9.860   8.488
 5483SOL     OW21929   5.866   7.379   7.654
 5483SOL    HW121930   5.899   7.311   7.712
 5483SOL    HW221931   5.850   7.455   7.710
 5483SOL     MW21932   5.868   7.380   7.669
 5484SOL     OW21933   7.975   5.444   5.791
 5484SOL    HW121934   7.913   5.372   5.777
 5484SOL    HW221935   7.975   5.491   5.708
 5484SOL     MW21936   7.966   5.440   5.778
 5485SOL     OW21937   9.160   3.152   3.226
 5485SOL    HW121938   9.208   3.155   3.143
 5485SOL    HW221939   9.128   3.241   3.239
 5485SOL     MW21940   9.162   3.164   3.217
 5486SOL     OW21941   2.986   2.139   5.230
 5486SOL    HW121942   3.032   2.056   5.235
 5486SOL    HW221943   2.913   2.122   5.170
 5486SOL     MW21944   2.982   2.126   5.222
 5487SOL     OW21945   5.830   4.865   8.761
 5487SOL    HW121946   5.886   4.837   8.689
 5487SOL    HW221947   5.785   4.943   8.727
 5487SOL     MW21948   5.832   4.872   8.747
 5488SOL     OW21949   1.818   1.961   1.654
 5488SOL    HW121950   1.789   2.052   1.661
 5488SOL    HW221951   1.879   1.962   1.580
 5488SOL     MW21952   1.822   1.974   1.645
 5489SOL     OW21953   9.327   1.775   7.917
 5489SOL    HW121954   9.255   1.721   7.885
 5489SOL    HW221955   9.352   1.734   8.000
 5489SOL     MW21956   9.321   1.762   7.924
 5490SOL     OW21957   2.875   5.533   4.272
 5490SOL    HW121958   2.806   5.474   4.302
 5490SOL    HW221959   2.928   5.551   4.349
 5490SOL     MW21960   2.873   5.528   4.286
 5491SOL     OW21961   2.327   1.858   8.981
 5491SOL    HW121962   2.307   1.858   9.074
 5491SOL    HW221963   2.264   1.796   8.944
 5491SOL     MW21964   2.316   1.849   8.988
 5492SOL     OW21965   4.668   5.808   8.294
 5492SOL    HW121966   4.728   5.877   8.323
 5492SOL    HW221967   4.656   5.753   8.372
 5492SOL     MW21968   4.675   5.810   8.309
 5493SOL     OW21969   4.277   9.122   5.204
 5493SOL    HW121970   4.279   9.201   5.150
 5493SOL    HW221971   4.283   9.050   5.141
 5493SOL     MW21972   4.278   9.123   5.188
 5494SOL     OW21973   0.979   8.185   2.846
 5494SOL    HW121974   0.955   8.105   2.800
 5494SOL    HW221975   1.042   8.228   2.788
 5494SOL     MW21976   0.985   8.180   2.832
 5495SOL     OW21977   8.146   2.848   1.782
 5495SOL    HW121978   8.228   2.882   1.818
 5495SOL    HW221979   8.172   2.806   1.700
 5495SOL     MW21980   8.161   2.847   1.775
 5496SOL     OW21981   5.525   0.990   9.521
 5496SOL    HW121982   5.618   0.978   9.505
 5496SOL    HW221983   5.512   0.962   9.611
 5496SOL     MW21984   5.535   0.985   9.531
 5497SOL     OW21985   5.401   2.195   6.579
 5497SOL    HW121986   5.385   2.241   6.497
 5497SOL    HW221987   5.490   2.159   6.570
 5497SOL     MW21988   5.411   2.196   6.567
 5498SOL     OW21989   0.171   5.890   0.796
 5498SOL    HW121990   0.133   5.964   0.750
 5498SOL    HW221991   0.163   5.913   0.889
 5498SOL     MW21992   0.165   5.903   0.803
 5499SOL     OW21993   5.871   2.555   6.941
 5499SOL    HW121994   5.913   2.634   6.908
 5499SOL    HW221995   5.860   2.570   7.035
 5499SOL     MW21996   5.875   2.568   6.949
 5500SOL     OW21997   5.845   1.490   7.740
 5500SOL    HW121998   5.880   1.521   7.823
 5500SOL    HW221999   5.803   1.407   7.762
 5500SOL     MW22000   5.844   1.483   7.754
  10.15200  10.15200  10.15200
