; Energy minimization parameters for TIP4P/Ice water model
; Note: Special settings for TIP4P added/corrected

; VARIOUS PREPROCESSING OPTIONS
; Preprocessor information: use cpp syntax.
include                  = 
; Turn off flexibility for energy minimization with constraints
define                   = 

; RUN CONTROL PARAMETERS
integrator               = steep
; Start time and timestep in ps
tinit                    = 0
dt                       = 0.001
nsteps                   = 5000
; For exact run continuation or redoing part of a run
init-step                = 0
; Part index is updated automatically on checkpointing (keeps files separate)
simulation-part          = 1
; Multiple time-stepping
mts                      = no
; mode for center of mass motion removal
comm-mode                = Linear
; number of steps for center of mass motion removal
nstcomm                  = 100
; group(s) for center of mass motion removal
comm-grps                = 

; ENERGY MINIMIZATION OPTIONS
; Force tolerance and initial step-size
emtol                    = 100.0
emstep                   = 0.001
; Max number of iterations in relax-shells
niter                    = 20
; Step size (ps^2) for minimization of flexible constraints
fcstep                   = 0
; Frequency of steepest descents steps when doing CG
nstcgsteep               = 1000
nbfgscorr                = 10

; OUTPUT CONTROL OPTIONS
; Output frequency for coords (x), velocities (v) and forces (f)
nstxout                  = 50
nstvout                  = 0
nstfout                  = 0
; Output frequency for energies to log file and energy file
nstlog                   = 1000
nstcalcenergy            = 100
nstenergy                = 1000
; Output frequency and precision for .xtc file
nstxout-compressed       = 0
compressed-x-precision   = 1000
; This selects the subset of atoms for the compressed
; trajectory file. You can select multiple groups. By
; default, all atoms will be written.
compressed-x-grps        = 
; Selection of energy groups
energygrps               = 

; NEIGHBORSEARCHING PARAMETERS
; cut-off scheme (Verlet: particle based cut-offs)
cutoff-scheme            = Verlet
; nblist update frequency
nstlist                  = 10
; Periodic boundary conditions: xyz, no, xy
pbc                      = xyz
periodic-molecules       = no
; Allowed energy drift due to the Verlet buffer in kJ/mol/ps per atom,
; a value of -1 means: use rlist
verlet-buffer-tolerance  = 0.005
; nblist cut-off        
rlist                    = 1.0

; OPTIONS FOR ELECTROSTATICS AND VDW
; Method for doing electrostatics
coulombtype              = PME
coulomb-modifier         = Potential-shift-Verlet
rcoulomb-switch          = 0
rcoulomb                 = 1.0
; Relative dielectric constant for the medium and the reaction field
epsilon-r                = 1
epsilon-rf               = 0
; Method for doing Van der Waals
vdwtype                  = Cut-off
vdw-modifier             = Potential-shift-Verlet
; cut-off lengths       
rvdw-switch              = 0
rvdw                     = 1.0
; Apply long range dispersion corrections for Energy and Pressure
DispCorr                 = EnerPres
; Extension of the potential lookup tables beyond the cut-off
table-extension          = 1
; Spacing for the PME/PPPM FFT grid
fourierspacing           = 0.16
; FFT grid size, when a value is 0 fourierspacing will be used
fourier-nx               = 0
fourier-ny               = 0
fourier-nz               = 0
; EWALD/PME/PPPM parameters
pme_order                = 4
ewald_rtol               = 1e-5
ewald-rtol-lj            = 0.001
lj-pme-comb-rule         = Geometric
ewald-geometry           = 3d
epsilon-surface          = 0

; OPTIONS FOR WEAK COUPLING ALGORITHMS
; Temperature coupling  
tcoupl                   = no
; Groups to couple separately
tc-grps                  = 
; Time constant (ps) and reference temperature (K)
tau-t                    = 
ref-t                    = 
; pressure coupling     
pcoupl                   = no
pcoupltype               = Isotropic
; Time constant (ps), compressibility (1/bar) and reference P (bar)
tau-p                    = 5
compressibility          = 
ref-p                    = 
; Scaling of reference coordinates, No, All or COM
refcoord-scaling         = No

; GENERATE VELOCITIES FOR STARTUP RUN
gen-vel                  = no
gen-temp                 = 300
gen-seed                 = 934016861

; OPTIONS FOR BONDS    
; IMPORTANT - Use h-bonds or all for water models with virtual sites
constraints              = h-bonds
; Type of constraint algorithm
constraint_algorithm     = Lincs
; Do not constrain the start configuration
continuation             = no
; Use successive overrelaxation to reduce the number of shake iterations
Shake-SOR                = no
; Relative tolerance of shake
shake-tol                = 0.0001
; Highest order in the expansion of the constraint coupling matrix
lincs-order              = 4
; Number of iterations in the final step of LINCS. For energy minimization with constraints 
; it should be 4 to 8 - higher value for TIP4P
lincs-iter               = 4
; Lincs will write a warning to the stderr if in one step a bond
; rotates over more degrees than
lincs-warnangle          = 30

; Free energy variables
free-energy              = no
