Single water molecule with virtual site
22000
    1SOL     OW    1   1.998   2.046   0.410  0.6791  0.5425 -0.1996
    1SOL    HW1    2   2.026   1.958   0.382  1.3111  0.9164 -0.7830
    1SOL    HW2    3   1.916   2.031   0.456 -0.6192 -0.0856 -2.5285
    1SOL     MW    4   1.991   2.032   0.412  0.5895  0.5083 -0.5915
    2SOL     OW    5   4.903   4.927   3.551 -0.0175 -0.3853 -0.3325
    2SOL    HW1    6   4.936   4.838   3.538 -1.4377 -0.8485 -0.9677
    2SOL    HW2    7   4.808   4.917   3.553 -0.1997  1.1372 -0.4884
    2SOL     MW    8   4.894   4.913   3.550 -0.2332 -0.2427 -0.4390
    3SOL     OW    9   4.752   0.632   4.072  0.3650 -0.3394 -0.0040
    3SOL    HW1   10   4.697   0.557   4.099 -1.0944  0.6705 -0.0355
    3SOL    HW2   11   4.800   0.656   4.151  0.5173 -1.0316  0.1204
    3SOL     MW   12   4.751   0.625   4.087  0.1891 -0.2967  0.0085
    4SOL     OW   13   2.381   0.610   0.390 -0.2504  0.2274  0.2741
    4SOL    HW1   14   2.407   0.524   0.356 -1.7242 -0.3254  0.4651
    4SOL    HW2   15   2.393   0.669   0.316 -0.1147 -0.3139 -0.1466
    4SOL     MW   16   2.386   0.606   0.376 -0.4305  0.0802  0.2432
    5SOL     OW   17   3.559   0.242   0.365  0.1109  0.3239  0.3470
    5SOL    HW1   18   3.513   0.305   0.421  0.7138  1.6307 -0.5901
    5SOL    HW2   19   3.646   0.234   0.403 -0.7152 -1.9694  1.9777
    5SOL     MW   20   3.564   0.249   0.377  0.0808  0.1912  0.4403
    6SOL     OW   21   2.867   2.252   5.113 -0.1918  0.0848  0.0870
    6SOL    HW1   22   2.776   2.224   5.112 -0.0262 -0.4817 -0.0697
    6SOL    HW2   23   2.916   2.174   5.083  0.1744  0.9867 -1.8171
    6SOL     MW   24   2.861   2.238   5.109 -0.1202  0.1299 -0.1903
    7SOL     OW   25   4.755   5.268   1.545  0.7048 -0.5093  0.3036
    7SOL    HW1   26   4.732   5.329   1.614  1.8675 -0.7600  0.9363
    7SOL    HW2   27   4.851   5.270   1.541  0.6856 -0.8228 -1.0067
    7SOL     MW   28   4.765   5.277   1.554  0.8587 -0.5852  0.2124
    8SOL     OW   29   2.247   1.668   4.590  0.1832 -0.0141 -0.3863
    8SOL    HW1   30   2.209   1.600   4.645  0.9140 -0.8766 -0.9229
    8SOL    HW2   31   2.186   1.676   4.516  1.7175 -2.4892 -2.0437
    8SOL     MW   32   2.233   1.660   4.587  0.4880 -0.4633 -0.6816
    9SOL     OW   33   4.923   3.966   3.775  0.0026 -0.1691 -0.0263
    9SOL    HW1   34   4.874   3.894   3.813  0.1517 -0.2751 -0.0352
    9SOL    HW2   35   4.860   4.010   3.718 -0.1502 -0.1585  0.1486
    9SOL     MW   36   4.908   3.962   3.772  0.0021 -0.1820 -0.0040
   10SOL     OW   37   0.720   3.737   3.796 -0.1226 -0.3778  0.4011
   10SOL    HW1   38   0.766   3.813   3.831  1.2262 -0.8373 -0.2930
   10SOL    HW2   39   0.720   3.674   3.868  2.8207 -1.3985 -0.3416
   10SOL     MW   40   0.726   3.739   3.811  0.4550 -0.5770  0.2078
   11SOL     OW   41   2.719   0.509   1.837  0.0631  0.1742  0.8082
   11SOL    HW1   42   2.715   0.534   1.929  0.2289 -1.5422  1.3333
   11SOL    HW2   43   2.737   0.590   1.790  0.0925  1.0636  2.2921
   11SOL     MW   44   2.721   0.523   1.843  0.0894  0.0629  1.0786
   12SOL     OW   45   1.289   1.737   4.327  0.2951 -0.2539  0.0341
   12SOL    HW1   46   1.238   1.802   4.278  0.1457  0.6400  1.3236
   12SOL    HW2   47   1.380   1.759   4.307  0.2673  0.7608  0.9063
   12SOL     MW   48   1.295   1.749   4.317  0.2713  0.0030  0.3250
   13SOL     OW   49   4.931   3.800   1.925 -0.0532  0.7374 -0.1454
   13SOL    HW1   50   5.016   3.759   1.910 -0.7515 -0.6669 -0.3789
   13SOL    HW2   51   4.939   3.844   2.010  0.1089 -1.5773  1.1044
   13SOL     MW   52   4.944   3.801   1.934 -0.1254  0.2369 -0.0086
   14SOL     OW   53   3.469   4.230   3.209 -0.3992  0.3172  0.1915
   14SOL    HW1   54   3.458   4.321   3.185  0.7877  0.1923 -0.9177
   14SOL    HW2   55   3.391   4.186   3.175  0.4670  0.4235 -2.0530
   14SOL     MW   56   3.457   4.236   3.201 -0.1229  0.3147 -0.2598
   15SOL     OW   57   3.268   2.774   4.112  0.1976  0.5225 -0.7221
   15SOL    HW1   58   3.352   2.819   4.127 -0.3169  1.1768  0.2694
   15SOL    HW2   59   3.232   2.760   4.200 -0.3122 -0.5966 -1.0909
   15SOL     MW   60   3.275   2.778   4.126  0.0598  0.4599 -0.6383
   16SOL     OW   61   2.432   0.375   3.664  0.3730  0.0669 -0.4686
   16SOL    HW1   62   2.384   0.296   3.641  1.6540 -0.9882  0.3461
   16SOL    HW2   63   2.493   0.347   3.732  1.6919  1.4924 -1.0102
   16SOL     MW   64   2.434   0.361   3.670  0.7229  0.1167 -0.4319
   17SOL     OW   65   2.074   3.293   3.020  0.1759  0.3817 -0.6845
   17SOL    HW1   66   2.078   3.219   2.960 -0.6056  0.0420 -0.3386
   17SOL    HW2   67   2.054   3.368   2.965 -1.7719 -0.1233 -0.7432
   17SOL     MW   68   2.072   3.293   3.005 -0.1914  0.2680 -0.6458
   18SOL     OW   69   0.573   2.370   3.119 -0.1676  0.7770 -0.3517
   18SOL    HW1   70   0.614   2.411   3.043  0.1582 -3.0214 -2.4459
   18SOL    HW2   71   0.481   2.363   3.096 -0.3827  1.0867  0.3736
   18SOL     MW   72   0.566   2.374   3.106 -0.1527  0.3075 -0.5359
   19SOL     OW   73   2.299   4.428   4.065 -0.0830  0.3051  0.5855
   19SOL    HW1   74   2.364   4.429   4.135  1.2717  0.4192 -0.6170
   19SOL    HW2   75   2.252   4.346   4.077  2.4116 -1.3761 -0.3036
   19SOL     MW   76   2.301   4.417   4.076  0.4350  0.0942  0.3040
   20SOL     OW   77   3.043   5.211   0.953 -0.0561 -0.3173  0.2639
   20SOL    HW1   78   3.038   5.117   0.939  2.2133 -0.2348 -1.7026
   20SOL    HW2   79   2.972   5.247   0.901 -0.3419 -0.8946  0.2498
   20SOL     MW   80   3.033   5.203   0.944  0.2109 -0.3839 -0.0026
   21SOL     OW   81   1.606   3.793   3.557 -0.4265  0.2052 -0.5372
   21SOL    HW1   82   1.514   3.794   3.583 -0.9371 -0.2608 -2.2107
   21SOL    HW2   83   1.613   3.720   3.495  0.5716  1.5862 -2.1183
   21SOL     MW   84   1.595   3.783   3.553 -0.3609  0.3284 -0.9752
   22SOL     OW   85   4.469   3.618   0.138  0.3466  0.4710 -0.3102
   22SOL    HW1   86   4.479   3.648   0.228  1.2351 -0.5528 -0.0562
   22SOL    HW2   87   4.515   3.684   0.086  1.5779  0.0190  0.1713
   22SOL     MW   88   4.476   3.631   0.143  0.6319  0.2724 -0.2112
   23SOL     OW   89   1.894   4.162   2.856  0.4499 -0.2566  0.1184
   23SOL    HW1   90   1.827   4.224   2.882  0.6270 -0.3482  0.8321
   23SOL    HW2   91   1.883   4.151   2.762  1.6558  2.3588 -0.4273
   23SOL     MW   92   1.884   4.168   2.847  0.6360  0.0830  0.1410
   24SOL     OW   93   1.218   3.833   0.163 -0.1280  0.7225 -0.4930
   24SOL    HW1   94   1.171   3.916   0.165 -2.6204 -0.5000 -2.4474
   24SOL    HW2   95   1.261   3.831   0.078  2.0824  0.9979  0.5310
   24SOL     MW   96   1.218   3.844   0.152 -0.1659  0.5951 -0.6182
   25SOL     OW   97   0.043   2.315   1.744  0.2164 -0.0189 -0.0742
   25SOL    HW1   98   0.003   2.243   1.793 -1.0574  1.3585  1.0181
   25SOL    HW2   99   0.041   2.389   1.804  0.3949  1.2449 -1.5595
   25SOL     MW  100   0.037   2.315   1.758  0.0690  0.3366 -0.1271
   26SOL     OW  101   1.796   0.337   0.061  0.5633 -0.3655  0.0397
   26SOL    HW1  102   1.747   0.329  -0.021  1.7696 -1.1988 -0.6271
   26SOL    HW2  103   1.883   0.303   0.041  1.0449 -0.1079  1.5371
   26SOL     MW  104   1.801   0.331   0.047  0.7905 -0.4430  0.1515
   27SOL     OW  105   4.139   4.445   0.715 -0.2955  0.6852 -0.2363
   27SOL    HW1  106   4.109   4.415   0.800 -1.8161 -0.3159 -1.0725
   27SOL    HW2  107   4.121   4.372   0.656  1.2464  1.1394 -1.3284
   27SOL     MW  108   4.132   4.431   0.718 -0.2926  0.6116 -0.4958
   28SOL     OW  109   4.481   1.682   1.556  0.1237  0.0677 -0.0332
   28SOL    HW1  110   4.422   1.729   1.615  0.5338  0.2758  0.2169
   28SOL    HW2  111   4.449   1.702   1.468 -0.3740 -0.0853  0.1117
   28SOL     MW  112   4.469   1.691   1.552  0.1119  0.0751  0.0199
   29SOL     OW  113   1.476   2.116   1.224  0.1953 -0.1006 -0.0087
   29SOL    HW1  114   1.430   2.040   1.189  0.0094 -0.8430  1.7465
   29SOL    HW2  115   1.419   2.149   1.294  1.0830  0.5953  0.4087
   29SOL     MW  116   1.462   2.110   1.229  0.2898 -0.1069  0.2837
   30SOL     OW  117   2.460   5.013   4.035 -0.3232  0.7007 -0.0279
   30SOL    HW1  118   2.375   4.978   4.006 -0.0558 -0.9342  1.0161
   30SOL    HW2  119   2.523   4.945   4.011  0.6674  1.7413 -0.4627
   30SOL     MW  120   2.457   4.999   4.028 -0.1539  0.6207  0.0541
   31SOL     OW  121   1.071   4.954   1.468 -0.0885 -0.3323 -0.6820
   31SOL    HW1  122   1.127   4.877   1.476 -2.4730 -2.0199  1.3959
   31SOL    HW2  123   1.012   4.933   1.396 -0.7584 -0.5103 -0.0959
   31SOL     MW  124   1.071   4.941   1.460 -0.4996 -0.5833 -0.3235
   32SOL     OW  125   3.319   4.617   0.414  0.4538 -0.0085 -0.1501
   32SOL    HW1  126   3.396   4.578   0.453  0.8825  1.8876  1.0534
   32SOL    HW2  127   3.245   4.576   0.459  0.9304  1.9637  2.6606
   32SOL     MW  128   3.319   4.607   0.425  0.5757  0.5121  0.3901
   33SOL     OW  129   0.888   2.234   5.233 -0.3363  0.4401 -0.0481
   33SOL    HW1  130   0.910   2.320   5.268  0.8441  0.8119 -1.5745
   33SOL    HW2  131   0.959   2.214   5.172 -0.4113 -1.7736  0.4959
   33SOL     MW  132   0.900   2.243   5.229 -0.1875  0.1923 -0.1803
   34SOL     OW  133   0.729   4.522   2.487 -0.5054  0.2348 -0.0560
   34SOL    HW1  134   0.809   4.471   2.480  0.2768  1.1901  1.4329
   34SOL    HW2  135   0.697   4.530   2.397  1.7142  0.8519 -0.8515
   34SOL     MW  136   0.735   4.516   2.474 -0.1014  0.4464  0.0373
   35SOL     OW  137   1.972   3.465   0.086 -0.0263 -0.2492 -0.1320
   35SOL    HW1  138   2.051   3.493   0.039 -0.9562 -0.2129 -1.7723
   35SOL    HW2  139   1.900   3.495   0.030 -1.2857  1.2512  2.1497
   35SOL     MW  140   1.973   3.473   0.072 -0.3209 -0.0424 -0.0457
   36SOL     OW  141   4.489   3.068   5.035 -0.7878 -0.3250 -0.2138
   36SOL    HW1  142   4.498   2.976   5.012 -0.2389  0.1440 -2.0971
   36SOL    HW2  143   4.409   3.073   5.087 -1.7041 -1.6505 -1.4419
   36SOL     MW  144   4.480   3.056   5.039 -0.8372 -0.4403 -0.6326
   37SOL     OW  145   0.002   3.807   1.376 -0.1182 -0.4675  0.0116
   37SOL    HW1  146  -0.067   3.743   1.359 -0.3593 -0.4839  0.9685
   37SOL    HW2  147   0.081   3.755   1.391 -0.7058 -0.7430  2.7882
   37SOL     MW  148   0.003   3.792   1.376 -0.2298 -0.5068  0.5141
   38SOL     OW  149   0.148   1.440   0.339 -0.0309 -0.2931  0.0792
   38SOL    HW1  150   0.184   1.486   0.263  0.4535 -0.0116  0.4812
   38SOL    HW2  151   0.117   1.357   0.303  0.4566 -0.2809 -0.3814
   38SOL     MW  152   0.149   1.435   0.324  0.0999 -0.2536  0.0713
   39SOL     OW  153   3.010   0.944   3.635  0.2988 -0.2861  0.3072
   39SOL    HW1  154   2.956   0.989   3.698  0.2336 -0.7601  0.5966
   39SOL    HW2  155   2.965   0.861   3.619 -0.4346  0.4046 -1.4299
   39SOL     MW  156   2.997   0.939   3.641  0.1913 -0.2569  0.1124
   40SOL     OW  157   4.608   2.268   3.182  0.4133  0.4766 -0.7339
   40SOL    HW1  158   4.619   2.173   3.186  0.0309  0.4478 -0.3142
   40SOL    HW2  159   4.651   2.301   3.261 -0.3407  0.5668 -0.3605
   40SOL     MW  160   4.616   2.259   3.193  0.2603  0.4849 -0.6271
   41SOL     OW  161   2.298   1.367   2.428  0.2150 -0.3460 -0.0755
   41SOL    HW1  162   2.240   1.443   2.428  0.2054 -0.2708 -2.3478
   41SOL    HW2  163   2.264   1.311   2.358  2.1229 -0.8838 -0.6426
   41SOL     MW  164   2.285   1.370   2.418  0.4705 -0.4082 -0.4576
   42SOL     OW  165   3.399   1.045   0.230 -0.3084  0.2887 -0.3971
   42SOL    HW1  166   3.479   1.021   0.276 -0.9592 -2.5210 -0.5423
   42SOL    HW2  167   3.340   1.074   0.300 -0.4489 -1.5331  0.3154
   42SOL     MW  168   3.401   1.046   0.246 -0.4149 -0.3346 -0.3208
   43SOL     OW  169   0.638   4.141   4.829 -0.2435 -0.3930  0.3546
   43SOL    HW1  170   0.562   4.121   4.774  0.4371 -1.4428 -0.2495
   43SOL    HW2  171   0.610   4.214   4.884 -0.7747  1.1426 -1.8184
   43SOL     MW  172   0.624   4.148   4.829 -0.2234 -0.3276 -0.0191
   44SOL     OW  173   2.731   0.608   4.499  0.2878  0.4516  0.1017
   44SOL    HW1  174   2.690   0.585   4.583  0.4236  0.2154  0.1052
   44SOL    HW2  175   2.689   0.690   4.473  0.4747  0.6965  0.5598
   44SOL     MW  176   2.719   0.616   4.507  0.3313  0.4528  0.1638
   45SOL     OW  177   3.184   1.149   4.605  0.0800  0.5303  0.3629
   45SOL    HW1  178   3.246   1.221   4.598 -1.8906  2.4654  1.4180
   45SOL    HW2  179   3.175   1.133   4.699  0.1631 -0.8178  0.1614
   45SOL     MW  180   3.191   1.156   4.617 -0.1741  0.6093  0.4778
   46SOL     OW  181   2.357   4.551   3.814  0.0766 -0.1951  0.5514
   46SOL    HW1  182   2.285   4.611   3.796 -1.2349 -1.7858  0.2670
   46SOL    HW2  183   2.332   4.509   3.896  1.0204 -0.2828  0.7967
   46SOL     MW  184   2.344   4.554   3.823  0.0271 -0.4209  0.5461
   47SOL     OW  185   3.922   3.115   0.890 -0.3664 -0.5809  0.2930
   47SOL    HW1  186   3.880   3.102   0.975 -2.3205 -1.2928 -0.7258
   47SOL    HW2  187   3.878   3.192   0.853  1.5797  0.7250  0.5277
   47SOL     MW  188   3.910   3.124   0.896 -0.3675 -0.5009  0.1875
   48SOL     OW  189   2.851   0.271   1.768  0.6998  0.0447  0.0812
   48SOL    HW1  190   2.806   0.352   1.792  1.2848 -0.0747  1.7377
   48SOL    HW2  191   2.796   0.232   1.700 -0.4079  1.0716  0.3507
   48SOL     MW  192   2.837   0.276   1.762  0.6294  0.1668  0.3404
   49SOL     OW  193   0.789   3.523   4.860  0.0801 -0.0222 -0.0732
   49SOL    HW1  194   0.709   3.553   4.903  0.6997  2.0530 -0.2784
   49SOL    HW2  195   0.812   3.442   4.906 -2.4594 -1.0636 -0.4368
   49SOL     MW  196   0.781   3.516   4.872 -0.1783  0.1169 -0.1497
   50SOL     OW  197   0.835   5.410   3.508  0.7269 -0.7732  0.3185
   50SOL    HW1  198   0.874   5.414   3.421 -0.2386  0.5706 -0.0803
   50SOL    HW2  199   0.813   5.318   3.520  2.1459 -1.2072 -0.2740
   50SOL     MW  200   0.837   5.398   3.498  0.7879 -0.6508  0.1851
   51SOL     OW  201   2.134   0.850   2.392  0.5683  0.0366 -0.2001
   51SOL    HW1  202   2.222   0.855   2.429 -0.3626  1.5711  2.0258
   51SOL    HW2  203   2.114   0.757   2.392  1.3783 -0.1796  1.4308
   51SOL     MW  204   2.143   0.838   2.397  0.5521  0.2140  0.3189
   52SOL     OW  205   1.166   1.190   2.837 -0.3614  0.0990 -0.4478
   52SOL    HW1  206   1.116   1.265   2.806 -0.9743 -0.1724 -0.1198
   52SOL    HW2  207   1.102   1.133   2.879 -0.3794 -1.8027 -2.8132
   52SOL     MW  208   1.151   1.192   2.839 -0.4463 -0.1935 -0.7220
   53SOL     OW  209   3.861   4.344   3.621 -0.4363  0.9188 -0.2114
   53SOL    HW1  210   3.944   4.336   3.668 -0.2751  0.7105 -0.5277
   53SOL    HW2  211   3.839   4.437   3.626  1.1027  1.4643 -2.3075
   53SOL     MW  212   3.869   4.355   3.628 -0.2075  0.9642 -0.5360
   54SOL     OW  213   3.077   5.159   4.725 -0.3163 -0.7545  0.2178
   54SOL    HW1  214   3.125   5.123   4.800  0.4522  1.1996  0.7141
   54SOL    HW2  215   3.090   5.253   4.730 -0.5952 -0.5118 -2.1556
   54SOL     MW  216   3.085   5.167   4.736 -0.2504 -0.4588 -0.0348
   55SOL     OW  217   1.656   3.903   0.158  0.0068 -0.1038  0.2288
   55SOL    HW1  218   1.575   3.951   0.137 -0.1646 -0.2371  0.5754
   55SOL    HW2  219   1.711   3.913   0.080 -1.1658 -1.7657 -0.9085
   55SOL     MW  220   1.652   3.910   0.144 -0.1741 -0.3454  0.1224
   56SOL     OW  221   1.478   3.758   1.300 -0.1596 -0.0171  0.1846
   56SOL    HW1  222   1.567   3.790   1.309  0.5577 -1.8115 -0.1265
   56SOL    HW2  223   1.469   3.734   1.208 -2.1173  3.2131 -0.6189
   56SOL     MW  224   1.489   3.759   1.289 -0.3266  0.1761  0.0346
   57SOL     OW  225   2.197   2.082   1.862 -0.1255 -0.1283 -0.3513
   57SOL    HW1  226   2.289   2.058   1.875 -0.4218 -0.2403  2.0780
   57SOL    HW2  227   2.195   2.177   1.871 -0.0970  0.0120 -1.6846
   57SOL     MW  228   2.209   2.091   1.865 -0.1616 -0.1245 -0.2038
   58SOL     OW  229   3.957   2.533   4.639 -0.0321  0.1856  0.0516
   58SOL    HW1  230   3.935   2.624   4.619  0.0922  0.0982 -0.4982
   58SOL    HW2  231   4.014   2.538   4.715 -0.2556  0.5494  0.1950
   58SOL     MW  232   3.962   2.546   4.646 -0.0455  0.2228 -0.0031
   59SOL     OW  233   4.699   2.343   2.202  0.1874 -0.0305  0.6032
   59SOL    HW1  234   4.745   2.389   2.131  0.6214 -0.9947  0.2386
   59SOL    HW2  235   4.608   2.370   2.193  0.3555  0.3862  0.1026
   59SOL     MW  236   4.693   2.353   2.191  0.2684 -0.1042  0.4868
   60SOL     OW  237   4.481   3.223   0.671  0.2597 -0.0437  0.2532
   60SOL    HW1  238   4.521   3.277   0.604 -0.8584 -1.3392 -1.5495
   60SOL    HW2  239   4.449   3.285   0.736  0.4389  1.3286 -0.9212
   60SOL     MW  240   4.482   3.238   0.671  0.1333 -0.0334 -0.1474
   61SOL     OW  241   2.591   0.552   3.331  0.2348 -0.6749 -0.0604
   61SOL    HW1  242   2.565   0.596   3.412  0.8572 -1.9624  0.8673
   61SOL    HW2  243   2.647   0.615   3.286 -1.5601  0.7613 -0.3995
   61SOL     MW  244   2.595   0.566   3.336  0.0770 -0.6549  0.0188
   62SOL     OW  245   4.300   5.391   0.152  0.4188 -0.0097  0.0854
   62SOL    HW1  246   4.272   5.479   0.129 -0.2802 -0.6049 -1.4508
   62SOL    HW2  247   4.222   5.337   0.140  1.4407 -1.2208 -1.4422
   62SOL     MW  248   4.286   5.396   0.148  0.4623 -0.2528 -0.3269
   63SOL     OW  249   1.989   1.063   0.787  0.3020 -0.3334 -0.4566
   63SOL    HW1  250   1.965   1.123   0.716 -2.5065 -1.6269 -0.7498
   63SOL    HW2  251   2.043   0.996   0.744 -0.4716 -0.5134 -1.1793
   63SOL     MW  252   1.993   1.062   0.771 -0.1801 -0.5317 -0.5934
   64SOL     OW  253   0.365   1.526   0.770 -0.9333 -0.3710 -0.5199
   64SOL    HW1  254   0.327   1.454   0.720  0.0329 -0.0895 -1.7016
   64SOL    HW2  255   0.445   1.489   0.808 -1.0169 -0.2334 -0.2094
   64SOL     MW  256   0.371   1.511   0.768 -0.8145 -0.3146 -0.6371
   65SOL     OW  257   0.098   0.722   0.398 -0.2550 -0.3906  0.3731
   65SOL    HW1  258   0.018   0.670   0.395  1.1674 -2.6539 -0.9116
   65SOL    HW2  259   0.156   0.672   0.456  0.0784  1.5539  1.8196
   65SOL     MW  260   0.095   0.708   0.406 -0.0187 -0.4335  0.3949
   66SOL     OW  261   0.890   0.332   0.726 -0.5653  0.1431 -0.9519
   66SOL    HW1  262   0.799   0.361   0.722 -0.7118 -0.3556 -1.4495
   66SOL    HW2  263   0.941   0.413   0.735 -1.0023  0.4976 -1.5754
   66SOL     MW  264   0.885   0.347   0.727 -0.6438  0.1237 -1.1028
   67SOL     OW  265   0.880   0.266   4.229  0.1252  0.3347  0.4031
   67SOL    HW1  266   0.788   0.243   4.227  0.2587 -0.2174 -1.4529
   67SOL    HW2  267   0.925   0.184   4.250  0.2062  0.5729  1.1731
   67SOL     MW  268   0.874   0.252   4.231  0.1540  0.2925  0.2569
   68SOL     OW  269   0.348   0.321   4.911  0.3131 -0.0011 -0.1693
   68SOL    HW1  270   0.386   0.408   4.897 -1.8142  1.1086  0.5320
   68SOL    HW2  271   0.423   0.265   4.930  1.6892  1.8103 -0.0047
   68SOL     MW  272   0.363   0.325   4.911  0.2120  0.3921 -0.0528
   69SOL     OW  273   5.232   1.157   2.636 -0.0445  0.4934  0.1266
   69SOL    HW1  274   5.148   1.133   2.676  0.9381 -0.4585  1.7394
   69SOL    HW2  275   5.254   1.082   2.581 -0.4397  0.9355 -0.6510
   69SOL     MW  276   5.223   1.143   2.634  0.0346  0.4248  0.2390
   70SOL     OW  277   4.364   2.668   1.557  0.2584 -0.4199 -0.1625
   70SOL    HW1  278   4.348   2.707   1.471  0.1037 -0.4223 -0.1340
   70SOL    HW2  279   4.460   2.661   1.562  0.2532 -0.6893 -0.4496
   70SOL     MW  280   4.375   2.673   1.546  0.2369 -0.4565 -0.1973
   71SOL     OW  281   1.808   4.878   2.464  0.1785  0.7213 -0.2347
   71SOL    HW1  282   1.889   4.891   2.513  0.1325 -0.8961  0.3413
   71SOL    HW2  283   1.742   4.864   2.532 -1.1610  4.4204 -0.5624
   71SOL     MW  284   1.810   4.878   2.480 -0.0080  1.0015 -0.2013
   72SOL     OW  285   0.969   3.060   1.786  0.0194 -0.2926 -0.3088
   72SOL    HW1  286   0.895   3.103   1.828  0.1134 -2.2283  2.0114
   72SOL    HW2  287   1.010   3.129   1.734 -0.4799  2.1593  2.2987
   72SOL     MW  288   0.965   3.075   1.784 -0.0351 -0.2231  0.3543
   73SOL     OW  289   3.504   1.555   1.239 -0.1541  0.1160 -0.2931
   73SOL    HW1  290   3.470   1.583   1.154  0.2220 -0.0262 -0.4932
   73SOL    HW2  291   3.594   1.527   1.221  0.1494  0.6899  0.2610
   73SOL     MW  292   3.512   1.555   1.225 -0.0627  0.1741 -0.2455
   74SOL     OW  293   0.929   0.139   5.491 -0.3893  0.1663  0.6225
   74SOL    HW1  294   0.957   0.196   5.419 -2.0850 -0.5876 -0.7147
   74SOL    HW2  295   1.006   0.085   5.509  0.0681  0.3516 -0.6619
   74SOL     MW  296   0.943   0.139   5.483 -0.5560  0.0898  0.2697
   75SOL     OW  297   3.070   4.836   0.616  0.1468  0.5587  0.2500
   75SOL    HW1  298   3.014   4.773   0.571 -0.1248  0.6794  0.4229
   75SOL    HW2  299   3.114   4.884   0.546 -0.5980  1.0422  0.1099
   75SOL     MW  300   3.069   4.834   0.601  0.0100  0.6400  0.2544
   76SOL     OW  301   1.795   1.476   4.777  0.2077 -0.5313 -0.5922
   76SOL    HW1  302   1.839   1.397   4.744  1.0600  0.4298 -1.8777
   76SOL    HW2  303   1.760   1.450   4.862 -0.3337 -2.5556 -1.3699
   76SOL     MW  304   1.797   1.462   4.784  0.2495 -0.6744 -0.8699
   77SOL     OW  305   0.995   5.327   3.291  0.1554  0.1324 -0.2500
   77SOL    HW1  306   1.055   5.369   3.229  0.3038  0.2719 -0.0114
   77SOL    HW2  307   0.922   5.296   3.236  0.2741  0.2750 -0.4905
   77SOL     MW  308   0.993   5.328   3.275  0.1913  0.1704 -0.2503
   78SOL     OW  309   0.459   5.474   4.836  0.3677  0.2314  0.0093
   78SOL    HW1  310   0.516   5.535   4.883 -0.4678  1.0292  0.0178
   78SOL    HW2  311   0.510   5.392   4.832  1.2757  0.7487  0.4975
   78SOL     MW  312   0.474   5.471   4.842  0.3774  0.4084  0.0761
   79SOL     OW  313   1.603   5.382   1.182 -0.2800  0.3846  0.5766
   79SOL    HW1  314   1.516   5.387   1.145 -0.7855  0.2143  1.6832
   79SOL    HW2  315   1.589   5.382   1.277  0.8677 -0.4882  0.7781
   79SOL     MW  316   1.590   5.383   1.190 -0.1936  0.2443  0.7527
   80SOL     OW  317   2.943   4.069   0.261 -0.7486 -0.1238 -0.7311
   80SOL    HW1  318   2.958   4.084   0.354 -0.5700 -2.8962 -0.2083
   80SOL    HW2  319   2.852   4.095   0.247 -0.1813  2.2640 -0.3082
   80SOL     MW  320   2.933   4.074   0.272 -0.6483 -0.1756 -0.6039
   81SOL     OW  321   0.138   1.160   0.273  0.2275  0.1947 -0.0030
   81SOL    HW1  322   0.232   1.163   0.253 -0.1057  1.6285 -1.4926
   81SOL    HW2  323   0.134   1.117   0.359  2.1375 -1.0667 -0.4659
   81SOL     MW  324   0.150   1.154   0.282  0.4397  0.2179 -0.2658
   82SOL     OW  325   3.270   4.961   4.565 -0.3406 -0.0016 -0.0760
   82SOL    HW1  326   3.276   5.036   4.624 -1.3006 -1.1967  1.6501
   82SOL    HW2  327   3.291   4.996   4.478 -0.9599  2.2835  0.6321
   82SOL     MW  328   3.273   4.975   4.561 -0.5531  0.1451  0.2516
   83SOL     OW  329   1.108   0.606   4.006 -0.4618 -0.4582  0.0707
   83SOL    HW1  330   1.180   0.551   4.037 -0.9507 -1.5021 -0.5466
   83SOL    HW2  331   1.116   0.604   3.910  0.5735  2.0614  0.0458
   83SOL     MW  332   1.119   0.598   3.997 -0.3883 -0.2596 -0.0157
   84SOL     OW  333   3.559   3.856   5.235 -0.6887  0.4012  0.4681
   84SOL    HW1  334   3.523   3.821   5.154 -0.1631 -1.9171  1.1380
   84SOL    HW2  335   3.490   3.910   5.272 -1.0049  1.3234 -1.3960
   84SOL     MW  336   3.545   3.858   5.229 -0.6605  0.2133  0.3074
   85SOL     OW  337   0.749   1.584   0.866 -0.1709 -0.1164  0.0664
   85SOL    HW1  338   0.828   1.615   0.911 -0.6380 -0.3595  1.0904
   85SOL    HW2  339   0.677   1.613   0.922 -0.9179  1.3832 -1.5920
   85SOL     MW  340   0.750   1.592   0.880 -0.3343  0.0527 -0.0190
   86SOL     OW  341   1.112   4.978   2.218 -0.3016  0.0199  0.0706
   86SOL    HW1  342   1.204   4.956   2.234 -0.2091 -0.1713 -0.6576
   86SOL    HW2  343   1.115   5.049   2.154 -0.6608 -1.3847 -1.5893
   86SOL     MW  344   1.125   4.984   2.211 -0.3375 -0.1948 -0.2508
   87SOL     OW  345   0.006   1.517   4.818 -0.0450  0.1252  0.2924
   87SOL    HW1  346   0.047   1.502   4.733 -0.0047 -2.7131  0.7135
   87SOL    HW2  347   0.039   1.602   4.846  1.6772  0.1361 -1.5514
   87SOL     MW  348   0.016   1.527   4.810  0.1922 -0.2553  0.1009
   88SOL     OW  349   0.238   0.022   1.977  0.1938  0.2131  0.1162
   88SOL    HW1  350   0.332   0.038   1.974 -0.1029  2.4274  1.1604
   88SOL    HW2  351   0.226  -0.033   2.055  0.6466 -0.5380 -0.3255
   88SOL     MW  352   0.249   0.017   1.987  0.2148  0.4100  0.1973
   89SOL     OW  353   0.874   5.209   2.121 -0.2003 -0.0325  0.6466
   89SOL    HW1  354   0.811   5.150   2.161 -2.7690  1.8152 -0.4004
   89SOL    HW2  355   0.861   5.293   2.166  1.1322  0.5588  0.0047
   89SOL     MW  356   0.864   5.213   2.133 -0.3667  0.2957  0.4193
   90SOL     OW  357   2.897   4.470   5.492 -0.5113  0.1080  0.1086
   90SOL    HW1  358   2.840   4.475   5.415 -1.0023  1.0482  0.5225
   90SOL    HW2  359   2.923   4.378   5.496 -1.2720 -0.1494 -0.6093
   90SOL     MW  360   2.893   4.458   5.482 -0.6797  0.1999  0.0677
   91SOL     OW  361   4.155   0.919   2.595 -0.1283 -0.0232  0.0326
   91SOL    HW1  362   4.087   0.981   2.569 -0.3290 -1.1981 -2.5814
   91SOL    HW2  363   4.110   0.857   2.653 -0.5577  0.7784  0.5749
   91SOL     MW  364   4.140   0.919   2.599 -0.2131 -0.0734 -0.2462
   92SOL     OW  365   3.544   2.174   2.457 -0.0052  0.0330 -0.5832
   92SOL    HW1  366   3.585   2.087   2.456  2.0840  0.8943 -2.5853
   92SOL    HW2  367   3.502   2.181   2.371 -0.4789  0.8440 -0.2927
   92SOL     MW  368   3.544   2.164   2.445  0.2122  0.2581 -0.8136
   93SOL     OW  369   1.407   1.620   3.524 -0.4664  0.7173  0.2328
   93SOL    HW1  370   1.499   1.600   3.542 -0.4005  1.9431  1.4766
   93SOL    HW2  371   1.408   1.661   3.437 -0.0868 -0.7438 -0.4868
   93SOL     MW  372   1.420   1.623   3.515 -0.4064  0.6856  0.3033
   94SOL     OW  373   2.290   1.321   1.391  0.0072  0.0612  0.0019
   94SOL    HW1  374   2.369   1.356   1.349  1.0304 -0.2912  1.5719
   94SOL    HW2  375   2.290   1.228   1.367  0.2208  0.0023  0.2305
   94SOL     MW  376   2.300   1.313   1.382  0.1736  0.0058  0.2440
   95SOL     OW  377   2.193   4.822   3.346 -0.0067 -0.6008  0.2765
   95SOL    HW1  378   2.130   4.751   3.354 -0.3155 -0.7512 -2.5513
   95SOL    HW2  379   2.276   4.779   3.327  0.5810 -0.3044  1.9815
   95SOL     MW  380   2.196   4.807   3.344  0.0308 -0.5812  0.1254
   96SOL     OW  381   0.230   3.660   1.379  0.0840 -0.4000 -0.0214
   96SOL    HW1  382   0.320   3.655   1.413 -0.7123 -2.7117  2.0553
   96SOL    HW2  383   0.236   3.627   1.290  1.4355  0.6207 -0.3456
   96SOL     MW  384   0.243   3.655   1.372  0.1587 -0.5737  0.2145
   97SOL     OW  385   4.820   1.630   3.852  0.0101 -0.6024 -0.0760
   97SOL    HW1  386   4.896   1.688   3.844 -0.6403  0.2544 -0.2619
   97SOL    HW2  387   4.813   1.614   3.946 -0.0247 -0.0502  0.0225
   97SOL     MW  388   4.830   1.636   3.864 -0.0821 -0.4128 -0.0878
   98SOL     OW  389   2.452   3.973   4.680 -0.4840  0.5224  0.1511
   98SOL    HW1  390   2.481   3.939   4.595 -1.0674  0.7872 -0.1635
   98SOL    HW2  391   2.512   3.934   4.743  0.3101  0.7440 -0.4374
   98SOL     MW  392   2.464   3.963   4.677 -0.4556  0.5879  0.0295
   99SOL     OW  393   1.040   3.408   2.373 -0.0596  0.5390 -0.1434
   99SOL    HW1  394   1.054   3.318   2.402 -2.5212  0.3171  0.5988
   99SOL    HW2  395   1.068   3.462   2.447 -0.9717  0.2342  0.4407
   99SOL     MW  396   1.046   3.404   2.387 -0.5136  0.4681  0.0351
  100SOL     OW  397   4.237   3.088   5.161 -0.0792 -0.5801 -0.4563
  100SOL    HW1  398   4.207   3.057   5.246  0.5148 -1.0989 -0.4230
  100SOL    HW2  399   4.187   3.168   5.145 -0.4937 -0.7027  0.1883
  100SOL     MW  400   4.226   3.094   5.170 -0.0550 -0.6664 -0.3651
  101SOL     OW  401   2.790   2.014   0.353  0.3923  0.0287 -0.0800
  101SOL    HW1  402   2.826   1.933   0.317 -0.4230 -1.4358  2.1792
  101SOL    HW2  403   2.726   2.043   0.287  0.5910 -1.2412 -0.8673
  101SOL     MW  404   2.786   2.007   0.339  0.3093 -0.3393  0.1181
  102SOL     OW  405   4.020   5.367   3.401  0.0794 -0.2053  0.4094
  102SOL    HW1  406   4.013   5.318   3.319 -3.5601  0.0601  0.3766
  102SOL    HW2  407   4.074   5.443   3.378 -0.3931 -0.4111 -1.6323
  102SOL     MW  408   4.026   5.371   3.387 -0.4740 -0.1973  0.1302
  103SOL     OW  409   3.842   2.300   2.427  0.0752 -0.2232  0.2119
  103SOL    HW1  410   3.770   2.239   2.444  0.1984 -0.3628  0.2384
  103SOL    HW2  411   3.801   2.376   2.388 -0.2177  0.0985  1.1313
  103SOL     MW  412   3.827   2.302   2.424  0.0523 -0.1987  0.3392
  104SOL     OW  413   3.463   1.202   3.314  0.4248  0.5761 -0.1300
  104SOL    HW1  414   3.479   1.154   3.232 -0.8955  0.1704 -0.1773
  104SOL    HW2  415   3.433   1.288   3.286  0.3626  0.5756 -0.0640
  104SOL     MW  416   3.461   1.207   3.299  0.2387  0.5214 -0.1275
  105SOL     OW  417   1.768   4.156   0.258  0.1135 -0.1783 -0.0732
  105SOL    HW1  418   1.815   4.149   0.341  0.9005 -0.1091 -0.5004
  105SOL    HW2  419   1.740   4.066   0.239 -1.2277  0.0005  0.9016
  105SOL     MW  420   1.771   4.143   0.267  0.0389 -0.1449  0.0005
  106SOL     OW  421   4.115   2.873   2.020  0.1080 -0.1482 -0.3363
  106SOL    HW1  422   4.121   2.863   2.116  0.7922  0.7757 -0.2717
  106SOL    HW2  423   4.073   2.958   2.007  0.6437  0.0429 -0.8542
  106SOL     MW  424   4.110   2.883   2.031  0.2722  0.0018 -0.3973
  107SOL     OW  425   5.276   4.001   1.555 -0.6123 -0.0386 -0.5728
  107SOL    HW1  426   5.257   4.095   1.551  2.3040  0.7153  0.4359
  107SOL    HW2  427   5.330   3.984   1.478  0.7079 -0.3495  0.3880
  107SOL     MW  428   5.281   4.011   1.544 -0.0421  0.0210 -0.3078
  108SOL     OW  429   4.525   1.606   1.086  0.0482  0.0104 -0.0479
  108SOL    HW1  430   4.539   1.517   1.118 -1.0865  0.7555  2.8443
  108SOL    HW2  431   4.431   1.609   1.067 -0.4016  1.1070  2.0103
  108SOL     MW  432   4.514   1.594   1.088 -0.1651  0.2582  0.6183
  109SOL     OW  433   5.506   4.825   0.829  0.5522  0.0908  0.0828
  109SOL    HW1  434   5.452   4.749   0.851  3.1571 -1.6392  0.9868
  109SOL    HW2  435   5.550   4.800   0.748  0.5532  1.1568 -0.2567
  109SOL     MW  436   5.504   4.812   0.821  0.9029  0.0014  0.1588
  110SOL     OW  437   4.954   4.141   5.110  0.5606  0.3734 -0.1774
  110SOL    HW1  438   4.862   4.161   5.091 -0.0289 -1.2500  0.8214
  110SOL    HW2  439   4.996   4.143   5.024 -0.5127  0.6025 -0.7260
  110SOL     MW  440   4.947   4.144   5.096  0.3368  0.1858 -0.1168
  111SOL     OW  441   2.769   0.344   2.601  0.1347 -0.1070  0.3432
  111SOL    HW1  442   2.859   0.351   2.568 -0.4093 -1.2176 -1.5170
  111SOL    HW2  443   2.758   0.250   2.619 -1.1504 -0.2540 -1.0448
  111SOL     MW  444   2.780   0.332   2.599 -0.1115 -0.2762 -0.0939
  112SOL     OW  445   5.191   4.484   2.426  0.0700  0.4736  0.0544
  112SOL    HW1  446   5.180   4.547   2.355  0.8465 -1.2025 -1.6059
  112SOL    HW2  447   5.285   4.474   2.436  0.1487 -3.0186 -2.2627
  112SOL     MW  448   5.202   4.491   2.418  0.1851 -0.2220 -0.4808
  113SOL     OW  449   1.015   2.029   0.685 -0.1697  0.4031 -0.3009
  113SOL    HW1  450   1.026   2.123   0.669  0.4580  0.2361 -0.8771
  113SOL    HW2  451   0.940   2.004   0.632  0.0130  0.4659 -0.5904
  113SOL     MW  452   1.006   2.039   0.676 -0.0606  0.3891 -0.4174
  114SOL     OW  453   3.701   1.885   1.330  0.4654  1.2882 -0.1145
  114SOL    HW1  454   3.755   1.812   1.298 -1.2281 -0.2537  0.3904
  114SOL    HW2  455   3.647   1.909   1.255 -0.3849  0.6399  0.2684
  114SOL     MW  456   3.701   1.878   1.316  0.1231  0.9934  0.0050
  115SOL     OW  457   2.859   3.086   2.135 -0.2077 -0.0180  0.3647
  115SOL    HW1  458   2.786   3.141   2.163 -2.2408 -2.2003 -0.3090
  115SOL    HW2  459   2.851   3.083   2.039  1.4856  0.5960  0.1820
  115SOL     MW  460   2.848   3.093   2.126 -0.2535 -0.2290  0.2494
  116SOL     OW  461   2.245   3.301   4.294  0.2638 -0.3798 -0.2813
  116SOL    HW1  462   2.333   3.265   4.296  0.0779 -0.8854 -0.7822
  116SOL    HW2  463   2.222   3.302   4.201 -0.0909  0.1576 -0.1892
  116SOL     MW  464   2.254   3.296   4.282  0.1911 -0.3755 -0.3363
  117SOL     OW  465   1.931   1.955   4.166 -0.5698 -0.7756  0.1346
  117SOL    HW1  466   1.872   1.897   4.215  0.2756 -0.3713  1.6958
  117SOL    HW2  467   1.908   2.043   4.195 -0.5093 -0.4727 -0.7278
  117SOL     MW  468   1.920   1.959   4.177 -0.4479 -0.6804  0.2287
  118SOL     OW  469   3.390   1.939   4.901  0.1869 -0.3022 -0.5196
  118SOL    HW1  470   3.314   1.944   4.843  0.6402 -0.3541 -1.1237
  118SOL    HW2  471   3.459   1.984   4.853  0.1803  0.9619  0.6031
  118SOL     MW  472   3.389   1.946   4.887  0.2470 -0.1391 -0.4498
  119SOL     OW  473   4.510   3.276   2.482 -0.1251  0.1259  0.0608
  119SOL    HW1  474   4.546   3.319   2.560  0.1356 -0.7150  0.4148
  119SOL    HW2  475   4.533   3.334   2.410 -1.3904  1.5245  0.7312
  119SOL     MW  476   4.518   3.290   2.483 -0.2603  0.2009  0.1986
  120SOL     OW  477   3.825   4.146   0.249 -0.8350  0.1136 -0.1634
  120SOL    HW1  478   3.833   4.223   0.307  1.5076  0.0844 -0.3486
  120SOL    HW2  479   3.740   4.109   0.271 -1.3260  1.8283  1.1060
  120SOL     MW  480   3.815   4.152   0.260 -0.5858  0.3405 -0.0175
  121SOL     OW  481   4.393   5.039   2.448 -0.6807  0.1534 -0.0834
  121SOL    HW1  482   4.327   4.972   2.433  0.0765 -0.2272 -1.9275
  121SOL    HW2  483   4.413   5.073   2.361  2.6999 -0.8644  0.1897
  121SOL     MW  484   4.387   5.034   2.434 -0.1238 -0.0348 -0.2948
  122SOL     OW  485   3.458   2.355   1.671 -0.5433 -0.2327  0.2949
  122SOL    HW1  486   3.497   2.301   1.602  0.3525 -0.7418  1.1813
  122SOL    HW2  487   3.378   2.307   1.696 -0.1015 -0.8147  0.6177
  122SOL     MW  488   3.452   2.341   1.665 -0.3633 -0.3795  0.4577
  123SOL     OW  489   0.531   3.921   4.995  0.1091  0.2648  0.1036
  123SOL    HW1  490   0.577   3.986   4.941  0.4611 -0.5570 -0.6114
  123SOL    HW2  491   0.566   3.837   4.965 -0.3673 -0.2554  0.9920
  123SOL     MW  492   0.542   3.919   4.984  0.0923  0.0842  0.1269
  124SOL     OW  493   0.670   0.459   0.025  0.3068  0.6251  0.1061
  124SOL    HW1  494   0.757   0.490   0.002  0.5844  0.0169  0.3158
  124SOL    HW2  495   0.684   0.371   0.061 -0.1700  1.3040  2.0733
  124SOL     MW  496   0.683   0.451   0.027  0.2800  0.6346  0.3991
  125SOL     OW  497   1.661   0.367   4.021 -0.2713 -0.7261 -0.5283
  125SOL    HW1  498   1.706   0.451   4.028 -2.5585  0.4560  1.7504
  125SOL    HW2  499   1.651   0.352   3.927  4.3206 -0.9231 -1.2054
  125SOL     MW  500   1.666   0.376   4.010  0.0389 -0.5935 -0.3127
  126SOL     OW  501   3.698   4.495   0.200  0.2459  0.0819 -0.0811
  126SOL    HW1  502   3.618   4.447   0.179  0.2755 -0.1832  0.3883
  126SOL    HW2  503   3.764   4.459   0.141 -0.0443  0.5132 -0.6789
  126SOL     MW  504   3.696   4.483   0.190  0.2108  0.1043 -0.0984
  127SOL     OW  505   4.186   4.548   3.117 -0.1685 -0.1606  0.0890
  127SOL    HW1  506   4.113   4.495   3.083  1.0016 -1.1338 -0.9970
  127SOL    HW2  507   4.263   4.514   3.071  1.2984 -0.5511  2.6733
  127SOL     MW  508   4.186   4.536   3.106  0.1864 -0.3441  0.2906
  128SOL     OW  509   0.624   4.977   1.010 -0.3312 -0.3775  0.0176
  128SOL    HW1  510   0.619   4.897   1.061 -0.9192 -0.1226  0.3778
  128SOL    HW2  511   0.536   4.988   0.974 -0.5311  0.6228  0.7794
  128SOL     MW  512   0.611   4.968   1.012 -0.4373 -0.2086  0.1686
  129SOL     OW  513   1.197   3.043   1.065  0.4450  0.2726 -0.0139
  129SOL    HW1  514   1.259   2.971   1.055  0.0844  0.0988 -1.2604
  129SOL    HW2  515   1.163   3.057   0.976  0.8438  2.2866  0.1074
  129SOL     MW  516   1.201   3.035   1.051  0.4501  0.5203 -0.1653
  130SOL     OW  517   4.607   0.654   2.277  0.0403 -0.2120  0.3500
  130SOL    HW1  518   4.529   0.637   2.331 -0.4641  1.3320  0.1679
  130SOL    HW2  519   4.681   0.639   2.336 -0.4851  0.6831  1.2704
  130SOL     MW  520   4.606   0.650   2.293 -0.0983  0.1162  0.4494
  131SOL     OW  521   2.131   3.291   3.533  0.5765  0.4945  0.3794
  131SOL    HW1  522   2.153   3.311   3.443  0.0041 -0.6118 -0.0296
  131SOL    HW2  523   2.203   3.326   3.584  1.6902 -0.2320 -0.6478
  131SOL     MW  524   2.143   3.298   3.528  0.6493  0.2479  0.1861
  132SOL     OW  525   2.718   2.891   2.468 -0.1003  0.3825  0.0599
  132SOL    HW1  526   2.747   2.973   2.509  0.6543 -0.7927  2.0368
  132SOL    HW2  527   2.779   2.825   2.502 -0.8059 -1.0464 -1.3240
  132SOL     MW  528   2.730   2.893   2.478 -0.0937  0.0321  0.1397
  133SOL     OW  529   4.517   1.961   0.763  0.3245 -0.3803 -0.4278
  133SOL    HW1  530   4.473   1.876   0.759  0.2363 -0.3595 -0.0134
  133SOL    HW2  531   4.590   1.954   0.703  1.1540 -1.2433  0.6426
  133SOL     MW  532   4.521   1.949   0.755  0.4242 -0.4936 -0.2280
  134SOL     OW  533   2.284   2.645   2.066  0.2004 -0.3966  0.0457
  134SOL    HW1  534   2.312   2.589   2.139 -0.3489 -0.6300  0.0832
  134SOL    HW2  535   2.202   2.684   2.096  0.7908  0.7733  0.1855
  134SOL     MW  536   2.277   2.643   2.080  0.2059 -0.2706  0.0696
  135SOL     OW  537   1.762   1.761   2.911 -0.3194  0.4644  0.4848
  135SOL    HW1  538   1.734   1.794   2.997 -2.1693  0.7842 -0.1976
  135SOL    HW2  539   1.715   1.678   2.901  0.7111 -0.0999  0.2082
  135SOL     MW  540   1.752   1.754   2.922 -0.4297  0.4315  0.3557
  136SOL     OW  541   1.383   1.164   0.460  0.0021  0.4127  0.3946
  136SOL    HW1  542   1.425   1.116   0.532  0.5277 -0.0158 -0.1898
  136SOL    HW2  543   1.411   1.119   0.381  0.7254  1.8390 -0.1998
  136SOL     MW  544   1.392   1.151   0.459  0.1702  0.5470  0.2360
  137SOL     OW  545   4.566   0.662   1.983  0.0755 -0.4096 -0.4912
  137SOL    HW1  546   4.537   0.691   2.069  1.8640  0.3091 -0.0848
  137SOL    HW2  547   4.529   0.574   1.974 -0.3177 -0.4143  0.9069
  137SOL     MW  548   4.557   0.654   1.993  0.2633 -0.3135 -0.2484
  138SOL     OW  549   4.333   0.474   5.423 -0.3018  0.1062  0.1583
  138SOL    HW1  550   4.369   0.557   5.453  0.6611  0.0171 -0.7004
  138SOL    HW2  551   4.385   0.451   5.347 -1.9833 -0.2036 -0.9571
  138SOL     MW  552   4.344   0.482   5.417 -0.3985  0.0525 -0.1074
  139SOL     OW  553   2.924   1.006   1.069  0.2339 -0.1911  0.8634
  139SOL    HW1  554   2.949   1.081   1.123  0.0918  0.2406  0.3395
  139SOL    HW2  555   2.887   0.943   1.131 -1.1751  0.8422  1.1192
  139SOL     MW  556   2.922   1.008   1.084  0.0251  0.0061  0.8273
  140SOL     OW  557   4.863   1.334   1.623  0.4594  0.0586 -0.0939
  140SOL    HW1  558   4.902   1.274   1.686 -0.4712  0.0369  0.4664
  140SOL    HW2  559   4.923   1.331   1.548 -0.1590 -2.4864 -0.5831
  140SOL     MW  560   4.877   1.326   1.621  0.2509 -0.2868 -0.0844
  141SOL     OW  561   1.823   2.942   3.632 -0.4114  0.2120 -0.2831
  141SOL    HW1  562   1.840   2.849   3.648 -0.6698  0.1338 -0.4453
  141SOL    HW2  563   1.907   2.985   3.648 -0.6997  0.1754  1.5286
  141SOL     MW  564   1.836   2.935   3.636 -0.4850  0.1966 -0.0611
  142SOL     OW  565   3.691   2.385   1.815  0.1240 -0.4105  0.3750
  142SOL    HW1  566   3.607   2.355   1.778  1.0386 -0.5310 -1.7427
  142SOL    HW2  567   3.748   2.394   1.739  1.7217  0.7554  1.6590
  142SOL     MW  568   3.687   2.382   1.800  0.4621 -0.2699  0.2628
  143SOL     OW  569   0.294   3.115   2.096  0.0793  0.6096 -0.5986
  143SOL    HW1  570   0.270   3.135   2.186  1.7758 -1.0969  0.3028
  143SOL    HW2  571   0.230   3.049   2.069 -1.9728  2.8739 -1.5886
  143SOL     MW  572   0.282   3.109   2.104  0.0314  0.6847 -0.6105
  144SOL     OW  573   2.982   2.013   5.057 -0.0463  0.3586  0.5135
  144SOL    HW1  574   3.073   1.997   5.082 -0.0800  1.3297  1.3282
  144SOL    HW2  575   2.933   2.001   5.138 -0.5217  0.8032  0.2930
  144SOL     MW  576   2.988   2.009   5.071 -0.1148  0.5492  0.5935
  145SOL     OW  577   3.659   4.302   2.052 -0.1457 -0.0393 -0.4485
  145SOL    HW1  578   3.648   4.328   2.144 -1.1194 -1.5148 -0.1145
  145SOL    HW2  579   3.597   4.358   2.004 -1.1732 -0.7130  0.0730
  145SOL     MW  580   3.649   4.313   2.058 -0.4150 -0.3285 -0.3333
  146SOL     OW  581   4.248   1.356   5.411 -0.1644 -0.1314 -0.5983
  146SOL    HW1  582   4.250   1.444   5.374 -0.4568  0.4809  0.7505
  146SOL    HW2  583   4.337   1.342   5.444  0.0954 -0.6709 -1.4897
  146SOL     MW  584   4.260   1.366   5.411 -0.1688 -0.1216 -0.5368
  147SOL     OW  585   4.668   3.820   3.369 -0.0243 -0.0255  0.6255
  147SOL    HW1  586   4.654   3.735   3.326 -2.4900  0.2594  0.6825
  147SOL    HW2  587   4.658   3.883   3.298  0.1539  0.2864  0.8795
  147SOL     MW  588   4.665   3.817   3.353 -0.3321  0.0548  0.6673
  148SOL     OW  589   1.105   1.842   1.361  0.3019  0.6574  0.2793
  148SOL    HW1  590   1.012   1.852   1.342 -0.5269 -1.0982  2.8331
  148SOL    HW2  591   1.125   1.913   1.422  0.2147  0.1614  0.8980
  148SOL     MW  592   1.095   1.853   1.366  0.1787  0.3544  0.7062
  149SOL     OW  593   0.575   1.834   0.782 -0.3218 -0.2992 -0.2125
  149SOL    HW1  594   0.517   1.811   0.855  0.4686  0.8611  0.8078
  149SOL    HW2  595   0.518   1.832   0.705 -1.4594 -0.3061  0.6091
  149SOL     MW  596   0.559   1.830   0.781 -0.3686 -0.1440  0.0354
  150SOL     OW  597   4.609   2.949   1.203  0.0382 -0.5004  0.0710
  150SOL    HW1  598   4.542   2.935   1.136  1.1184 -0.2957 -1.1021
  150SOL    HW2  599   4.625   3.044   1.201  2.0492 -0.8050 -1.4218
  150SOL     MW  600   4.602   2.960   1.194  0.4542 -0.5139 -0.2878
  151SOL     OW  601   2.989   5.319   1.189 -0.9779  0.0285  0.3487
  151SOL    HW1  602   3.008   5.269   1.110 -1.0994 -1.9219  1.4681
  151SOL    HW2  603   3.070   5.312   1.241 -0.8753  1.3353  0.3895
  151SOL     MW  604   3.003   5.311   1.185 -0.9805 -0.0581  0.5048
  152SOL     OW  605   5.134   5.297   1.221  0.0099  0.0836  0.6509
  152SOL    HW1  606   5.145   5.355   1.296  0.2579 -0.4477  1.0372
  152SOL    HW2  607   5.040   5.284   1.214  0.0249 -0.7198  1.5637
  152SOL     MW  608   5.123   5.303   1.230  0.0453 -0.0960  0.8258
  153SOL     OW  609   1.013   0.571   0.814  0.6318  0.0294 -0.5650
  153SOL    HW1  610   0.990   0.626   0.889  0.7586 -1.0088  0.2564
  153SOL    HW2  611   1.059   0.630   0.755 -0.8680  1.2728 -0.5793
  153SOL     MW  612   1.016   0.586   0.816  0.4470  0.0570 -0.4564
  154SOL     OW  613   1.038   3.374   0.698 -0.5881 -0.2521 -0.1517
  154SOL    HW1  614   1.099   3.447   0.695  1.6137 -2.0121 -0.6742
  154SOL    HW2  615   0.963   3.403   0.646  0.3585  1.4967 -0.6154
  154SOL     MW  616   1.036   3.388   0.690 -0.1644 -0.2536 -0.2844
  155SOL     OW  617   2.635   5.326   5.480  0.0207 -0.1052  0.4827
  155SOL    HW1  618   2.554   5.281   5.504  0.2892 -0.6519  0.3728
  155SOL    HW2  619   2.693   5.257   5.449 -0.0954  0.4946 -1.1732
  155SOL     MW  620   2.632   5.311   5.479  0.0412 -0.0981  0.2450
  156SOL     OW  621   2.937   1.869   2.487 -0.0197 -0.0696 -0.1913
  156SOL    HW1  622   2.862   1.927   2.470 -0.4305 -0.8676 -1.1434
  156SOL    HW2  623   2.932   1.851   2.581 -0.5713  0.4988 -0.1055
  156SOL     MW  624   2.926   1.875   2.497 -0.1492 -0.1005 -0.3079
  157SOL     OW  625   0.962   3.560   4.222  0.0635  0.0170 -0.2290
  157SOL    HW1  626   0.927   3.612   4.294 -0.5340  0.4947 -0.8512
  157SOL    HW2  627   1.056   3.558   4.237 -0.0423  0.1771  0.5147
  157SOL     MW  628   0.970   3.567   4.234 -0.0311  0.1028 -0.2126
  158SOL     OW  629   4.307   4.108   0.321 -0.0659  0.1425  0.6546
  158SOL    HW1  630   4.233   4.051   0.299  0.3261 -0.9855  2.0648
  158SOL    HW2  631   4.370   4.094   0.250 -0.5522 -0.1182  0.2679
  158SOL     MW  632   4.306   4.098   0.308 -0.0786 -0.0444  0.7924
  159SOL     OW  633   3.761   3.551   0.694 -0.1278  0.1934 -0.4400
  159SOL    HW1  634   3.742   3.490   0.766 -1.4891 -0.8275 -1.6025
  159SOL    HW2  635   3.840   3.515   0.654  0.1035  0.2380 -0.0347
  159SOL     MW  636   3.769   3.538   0.698 -0.2799  0.0620 -0.5419
  160SOL     OW  637   2.032   5.225   0.646 -0.6571  0.0159  0.0145
  160SOL    HW1  638   2.045   5.135   0.677 -1.6438  0.1713  0.9313
  160SOL    HW2  639   2.114   5.247   0.602 -0.2643 -1.2042  0.0828
  160SOL     MW  640   2.045   5.216   0.644 -0.7370 -0.1274  0.1471
  161SOL     OW  641   3.649   2.318   0.136 -0.3502  0.4487  0.1433
  161SOL    HW1  642   3.598   2.314   0.055  1.7933 -0.5908 -1.2587
  161SOL    HW2  643   3.728   2.267   0.117  0.7395  1.0978  2.5387
  161SOL     MW  644   3.653   2.311   0.123  0.0849  0.3962  0.2770
  162SOL     OW  645   1.097   3.914   4.403  0.2676  0.1291  0.2015
  162SOL    HW1  646   1.098   3.965   4.484  2.2314  2.5107 -1.2164
  162SOL    HW2  647   1.189   3.898   4.383 -0.2293 -2.3854 -0.4610
  162SOL     MW  648   1.109   3.918   4.411  0.4650  0.1112 -0.0785
  163SOL     OW  649   1.901   5.396   5.287 -0.6075 -0.0227  0.2567
  163SOL    HW1  650   1.887   5.370   5.377  0.3131 -0.2812  0.3381
  163SOL    HW2  651   1.813   5.403   5.249 -0.9512 -1.2324  0.7987
  163SOL     MW  652   1.888   5.394   5.294 -0.5299 -0.2203  0.3406
  164SOL     OW  653   5.154   1.647   1.346 -0.1172 -0.4439  0.0659
  164SOL    HW1  654   5.169   1.569   1.400 -1.2092 -0.6131  0.1407
  164SOL    HW2  655   5.064   1.638   1.315 -0.6295  1.3095  0.9320
  164SOL     MW  656   5.144   1.635   1.349 -0.3331 -0.2307  0.1925
  165SOL     OW  657   2.517   2.288   0.111  0.2823 -0.1886  0.2759
  165SOL    HW1  658   2.607   2.322   0.117 -1.0424  3.8613  0.1078
  165SOL    HW2  659   2.483   2.295   0.200  0.3442 -2.7053  0.5579
  165SOL     MW  660   2.525   2.294   0.124  0.1123  0.0178  0.2912
  166SOL     OW  661   3.447   2.129   1.477 -0.2287 -0.0081  0.4429
  166SOL    HW1  662   3.379   2.067   1.454  0.5870 -0.9099  0.3899
  166SOL    HW2  663   3.516   2.076   1.517 -0.2414  1.0951  2.0282
  166SOL     MW  664   3.447   2.114   1.479 -0.1206  0.0190  0.6491
  167SOL     OW  665   4.584   0.957   3.619  0.4304 -0.0697  0.3473
  167SOL    HW1  666   4.561   0.975   3.710  1.7477  1.7869  0.3900
  167SOL    HW2  667   4.665   0.906   3.624  0.7051  0.3446  0.2466
  167SOL     MW  668   4.592   0.953   3.632  0.6447  0.2359  0.3395
  168SOL     OW  669   1.514   2.649   4.812 -0.3830  0.1713  0.3638
  168SOL    HW1  670   1.435   2.683   4.853  0.6770  1.2121  1.6349
  168SOL    HW2  671   1.552   2.589   4.876  0.2987  0.3419  0.1371
  168SOL     MW  672   1.509   2.646   4.826 -0.1486  0.3343  0.5043
  169SOL     OW  673   3.664   5.318   2.661 -0.0402 -0.1576 -0.8886
  169SOL    HW1  674   3.738   5.365   2.698 -0.6345 -0.2551  0.4766
  169SOL    HW2  675   3.703   5.250   2.606  0.9745 -1.5170  1.3836
  169SOL     MW  676   3.679   5.315   2.659  0.0164 -0.3537 -0.3990
  170SOL     OW  677   1.457   1.096   4.126 -0.5475  0.1282 -0.1054
  170SOL    HW1  678   1.526   1.145   4.169 -0.8064 -0.6661  1.2832
  170SOL    HW2  679   1.377   1.145   4.146 -0.5298  0.4243 -0.7404
  170SOL     MW  680   1.455   1.109   4.135 -0.5799  0.0611 -0.0040
  171SOL     OW  681   4.970   3.222   3.760  0.0779  0.2126 -0.3865
  171SOL    HW1  682   4.896   3.272   3.726 -0.0649  1.0946  1.1379
  171SOL    HW2  683   5.042   3.241   3.700 -1.1111 -1.3972 -2.4418
  171SOL     MW  684   4.970   3.231   3.747 -0.1013  0.1147 -0.4580
  172SOL     OW  685   3.747   0.034   2.096  0.4265  0.4323  0.2294
  172SOL    HW1  686   3.837   0.009   2.118  0.5947  1.1929  0.4350
  172SOL    HW2  687   3.697   0.017   2.176  0.6157  1.0915  0.4993
  172SOL     MW  688   3.752   0.029   2.110  0.4746  0.6234  0.2934
  173SOL     OW  689   5.281   0.632   2.962 -0.2606 -0.9198  0.2148
  173SOL    HW1  690   5.365   0.593   2.984  1.1821  1.0844 -1.3962
  173SOL    HW2  691   5.278   0.713   3.011 -1.2017 -0.8875  0.1326
  173SOL     MW  692   5.292   0.637   2.971 -0.1931 -0.6457 -0.0131
  174SOL     OW  693   1.108   2.237   5.029 -0.0503  0.5156 -0.3046
  174SOL    HW1  694   1.197   2.215   5.055 -0.1193 -0.6693 -0.9914
  174SOL    HW2  695   1.099   2.201   4.941 -1.2492  0.4932 -0.1904
  174SOL     MW  696   1.118   2.229   5.021 -0.2209  0.3531 -0.3816
  175SOL     OW  697   2.966   0.906   4.231 -0.3921  0.5337  0.3239
  175SOL    HW1  698   3.059   0.925   4.234 -0.4175  0.6844  3.5331
  175SOL    HW2  699   2.931   0.969   4.167  1.6061  0.7554 -0.6174
  175SOL     MW  700   2.974   0.917   4.223 -0.1266  0.5838  0.6291
  176SOL     OW  701   3.487   3.029   1.447 -0.0279 -0.0829  0.3626
  176SOL    HW1  702   3.433   3.086   1.501 -0.3171  1.2675 -1.2560
  176SOL    HW2  703   3.507   2.954   1.503 -1.7549  0.4055  1.7250
  176SOL     MW  704   3.482   3.027   1.462 -0.2992  0.1646  0.3281
  177SOL     OW  705   2.389   5.003   2.338 -0.5201 -0.3145 -0.1388
  177SOL    HW1  706   2.351   4.969   2.257  0.7446 -1.3157 -0.3520
  177SOL    HW2  707   2.455   5.066   2.308  1.5082 -2.2761 -0.0627
  177SOL     MW  708   2.393   5.007   2.323 -0.0769 -0.7132 -0.1572
  178SOL     OW  709   1.701   3.761   0.626 -0.2331 -0.1516  0.5410
  178SOL    HW1  710   1.746   3.796   0.550 -0.6819 -0.2958  0.2034
  178SOL    HW2  711   1.643   3.693   0.591 -0.1343 -0.5155  1.0599
  178SOL     MW  712   1.699   3.756   0.611 -0.2802 -0.2199  0.5654
  179SOL     OW  713   2.349   4.929   3.538  0.1351  0.0002 -0.6540
  179SOL    HW1  714   2.290   4.862   3.502 -0.6026 -0.2494  0.9567
  179SOL    HW2  715   2.429   4.881   3.558  0.6273  0.1759 -2.0630
  179SOL     MW  716   2.352   4.913   3.536  0.1020 -0.0098 -0.6268
  180SOL     OW  717   5.486   4.441   2.425  0.1562 -0.0908 -0.1419
  180SOL    HW1  718   5.496   4.366   2.367  0.8979  0.2088 -0.4144
  180SOL    HW2  719   5.472   4.515   2.366 -0.6642 -0.0243  0.1273
  180SOL     MW  720   5.485   4.441   2.409  0.1456 -0.0416 -0.1423
  181SOL     OW  721   2.160   1.074   4.081 -0.1422  0.5608 -0.3580
  181SOL    HW1  722   2.184   1.108   3.995 -0.0331  0.5499 -0.3323
  181SOL    HW2  723   2.226   1.111   4.140 -0.3523  0.7550 -0.2438
  181SOL     MW  724   2.172   1.084   4.077 -0.1558  0.5855 -0.3391
  182SOL     OW  725   0.266   4.879   4.244 -0.3066  0.2457  0.0830
  182SOL    HW1  726   0.305   4.840   4.166  0.5928 -0.0897  0.6875
  182SOL    HW2  727   0.243   4.805   4.299 -0.8546  0.4843  0.1858
  182SOL     MW  728   0.268   4.864   4.241 -0.2593  0.2326  0.1782
  183SOL     OW  729   2.799   5.260   4.436  0.3053 -0.4884 -0.1571
  183SOL    HW1  730   2.869   5.324   4.422  0.2513 -0.4290 -0.1561
  183SOL    HW2  731   2.844   5.183   4.470  0.2387 -0.0569  0.9814
  183SOL     MW  732   2.814   5.259   4.439  0.2891 -0.4223 -0.0037
  184SOL     OW  733   3.779   0.742   4.414  0.2208  0.1358 -0.2349
  184SOL    HW1  734   3.707   0.806   4.408  1.5186  1.5792 -1.2960
  184SOL    HW2  735   3.791   0.729   4.508  0.4290  2.1308  0.0730
  184SOL     MW  736   3.771   0.749   4.426  0.4235  0.5985 -0.3363
  185SOL     OW  737   0.776   1.976   0.909 -0.2103 -0.5355  0.1714
  185SOL    HW1  738   0.739   2.054   0.868  1.4375 -0.3892 -1.1343
  185SOL    HW2  739   0.717   1.905   0.882 -0.9330  0.0493  0.1942
  185SOL     MW  740   0.763   1.977   0.900 -0.0858 -0.4371 -0.0012
  186SOL     OW  741   0.684   2.444   2.861  0.0251  0.1412  0.1983
  186SOL    HW1  742   0.668   2.529   2.819  0.4796 -0.5091 -1.3391
  186SOL    HW2  743   0.777   2.427   2.847  0.2942  0.0494  1.8228
  186SOL     MW  744   0.694   2.453   2.854  0.1225  0.0413  0.2101
  187SOL     OW  745   2.045   1.143   2.713 -0.2210  0.5277  0.3864
  187SOL    HW1  746   1.981   1.198   2.668 -0.8740 -0.9855 -0.6015
  187SOL    HW2  747   2.127   1.159   2.667 -0.5118  0.3282 -0.2168
  187SOL     MW  748   2.047   1.152   2.701 -0.3480  0.2972  0.1723
  188SOL     OW  749   4.602   3.978   1.400  0.2777  0.5924  0.2154
  188SOL    HW1  750   4.599   4.071   1.426  1.0086  1.0231 -1.1517
  188SOL    HW2  751   4.613   3.980   1.305  1.6462 -0.8836  0.3035
  188SOL     MW  752   4.603   3.991   1.391  0.5603  0.4518  0.0433
  189SOL     OW  753   3.677   2.697   4.861  0.5831  0.3310 -0.0406
  189SOL    HW1  754   3.615   2.767   4.883  0.6714  0.1373  0.8614
  189SOL    HW2  755   3.763   2.736   4.874  0.6344  0.1069  0.2991
  189SOL     MW  756   3.680   2.712   4.865  0.6019  0.2748  0.1265
  190SOL     OW  757   3.147   4.577   2.367 -0.1478 -0.0981  0.3622
  190SOL    HW1  758   3.096   4.497   2.370 -2.2006  1.1327  2.6737
  190SOL    HW2  759   3.110   4.627   2.295 -0.1078 -0.4832  0.0738
  190SOL     MW  760   3.135   4.573   2.358 -0.4187  0.0157  0.6344
  191SOL     OW  761   1.126   4.737   4.101  0.0012  0.2159 -0.1860
  191SOL    HW1  762   1.217   4.764   4.115 -0.1180  1.7617 -1.9608
  191SOL    HW2  763   1.132   4.652   4.057  0.6370  0.6220 -0.9097
  191SOL     MW  764   1.139   4.729   4.097  0.0707  0.4786 -0.5223
  192SOL     OW  765   0.207   3.195   2.336  0.0581  0.7270  0.1789
  192SOL    HW1  766   0.273   3.207   2.404  2.0178  0.4291 -1.5923
  192SOL    HW2  767   0.142   3.137   2.377  1.0259  0.7561  1.8674
  192SOL     MW  768   0.207   3.189   2.351  0.4521  0.6908  0.1678
  193SOL     OW  769   3.825   0.731   4.719  0.1142 -0.2326 -0.0826
  193SOL    HW1  770   3.733   0.709   4.732 -0.1135 -0.1453 -1.3888
  193SOL    HW2  771   3.870   0.646   4.722  0.0835 -0.2278  1.0821
  193SOL     MW  772   3.819   0.716   4.721  0.0794 -0.2202 -0.1016
  194SOL     OW  773   4.738   2.437   2.978 -0.7188 -0.0788  0.0529
  194SOL    HW1  774   4.676   2.459   2.909 -1.9772  1.0384  1.4715
  194SOL    HW2  775   4.688   2.381   3.038  0.1646 -0.5400  0.3818
  194SOL     MW  776   4.722   2.432   2.977 -0.7693  0.0095  0.2881
  195SOL     OW  777   0.294   0.000   1.181 -0.0775  0.1413 -0.5318
  195SOL    HW1  778   0.239   0.078   1.174 -1.9279 -0.9280  1.1540
  195SOL    HW2  779   0.333   0.006   1.268  2.3598  0.7166 -1.5642
  195SOL     MW  780   0.292   0.012   1.192  0.0015  0.0748 -0.4439
  196SOL     OW  781   3.670   1.985   0.031 -0.7031 -0.2198  0.1310
  196SOL    HW1  782   3.707   1.942  -0.046 -0.2903 -0.6445  0.5549
  196SOL    HW2  783   3.739   1.978   0.097 -0.3258  1.7807 -0.0040
  196SOL     MW  784   3.685   1.978   0.029 -0.5968 -0.0077  0.1699
  197SOL     OW  785   2.797   1.683   1.892  0.0909 -0.2750 -0.1339
  197SOL    HW1  786   2.864   1.652   1.832  1.1136 -1.0754  1.3674
  197SOL    HW2  787   2.740   1.607   1.907  0.1846 -0.2539  0.3533
  197SOL     MW  788   2.798   1.669   1.886  0.2412 -0.3799  0.1337
  198SOL     OW  789   1.219   4.902   5.284  0.0190 -0.0370  0.4974
  198SOL    HW1  790   1.197   4.896   5.192  0.6683  1.4564  0.2255
  198SOL    HW2  791   1.154   4.847   5.328 -1.8493  1.2080 -0.6113
  198SOL     MW  792   1.207   4.893   5.278 -0.1450  0.3316  0.3116
  199SOL     OW  793   5.390   3.239   2.595  0.0394  0.2431  0.3866
  199SOL    HW1  794   5.323   3.244   2.527 -0.2848 -1.0775  0.5756
  199SOL    HW2  795   5.345   3.199   2.670  0.9273 -0.2793  0.6534
  199SOL     MW  796   5.375   3.234   2.596  0.1152 -0.0049  0.4479
  200SOL     OW  797   4.152   2.504   2.621  0.2807  0.4975 -0.4689
  200SOL    HW1  798   4.192   2.483   2.705  0.6795  1.8093 -0.3087
  200SOL    HW2  799   4.078   2.561   2.643  1.6138  2.5865 -1.0952
  200SOL     MW  800   4.147   2.509   2.635  0.5138  0.9552 -0.5317
  201SOL     OW  801   5.420   4.148   0.291 -0.1321 -0.1123 -0.1369
  201SOL    HW1  802   5.326   4.131   0.291  0.1436 -1.8378 -0.0717
  201SOL    HW2  803   5.427   4.243   0.286 -1.8798  0.0892  0.4014
  201SOL     MW  804   5.408   4.158   0.291 -0.3302 -0.3174 -0.0557
  202SOL     OW  805   1.295   0.400   4.367  0.2601 -0.2989 -0.4212
  202SOL    HW1  806   1.317   0.418   4.275  0.6685 -0.2792 -0.3239
  202SOL    HW2  807   1.276   0.307   4.369  1.8200 -0.6478 -0.2436
  202SOL     MW  808   1.295   0.390   4.355  0.5250 -0.3432 -0.3842
  203SOL     OW  809   2.999   0.393   5.066  0.2114 -0.2272  0.0598
  203SOL    HW1  810   3.074   0.428   5.017 -0.5856  0.3732 -0.7615
  203SOL    HW2  811   3.006   0.433   5.153  0.3285  0.5775 -0.3076
  203SOL     MW  812   3.010   0.403   5.071  0.1199 -0.0381 -0.1002
  204SOL     OW  813   4.564   2.154   1.658 -0.6306 -0.1621 -0.3914
  204SOL    HW1  814   4.574   2.249   1.652 -1.6462 -0.0665 -0.7438
  204SOL    HW2  815   4.577   2.123   1.569  0.5861 -0.4642 -0.1302
  204SOL     MW  816   4.567   2.162   1.646 -0.6035 -0.1899 -0.4037
  205SOL     OW  817   0.474   1.468   5.318  0.2434  0.7049  0.0240
  205SOL    HW1  818   0.513   1.522   5.250 -0.5557  1.8329  0.4328
  205SOL    HW2  819   0.379   1.480   5.306  0.0547 -0.4036  0.2902
  205SOL     MW  820   0.466   1.477   5.307  0.1104  0.7075  0.1149
  206SOL     OW  821   3.589   3.983   0.775 -0.2147  0.2105 -0.0909
  206SOL    HW1  822   3.658   4.008   0.837 -0.6109 -0.1114  0.4872
  206SOL    HW2  823   3.630   3.992   0.689  0.9315 -1.0488  0.2842
  206SOL     MW  824   3.604   3.987   0.772 -0.1138 -0.0023  0.0374
  207SOL     OW  825   5.151   2.869   5.253 -0.2316  0.4761  0.2184
  207SOL    HW1  826   5.086   2.905   5.193 -1.0821 -2.1090 -0.5129
  207SOL    HW2  827   5.233   2.868   5.203 -0.7549 -0.8934 -0.6374
  207SOL     MW  828   5.154   2.874   5.239 -0.4165 -0.0561  0.0048
  208SOL     OW  829   0.994   3.676   3.692  0.0433  0.0000  0.2982
  208SOL    HW1  830   0.982   3.602   3.751 -1.0407  1.0432  1.4409
  208SOL    HW2  831   0.906   3.710   3.678  0.2859 -0.1445 -1.8666
  208SOL     MW  832   0.981   3.671   3.698 -0.0700  0.1210  0.1606
  209SOL     OW  833   4.317   0.009   2.523  0.2189 -0.2086  0.2114
  209SOL    HW1  834   4.316   0.081   2.586  4.6309  0.9575 -0.7099
  209SOL    HW2  835   4.353  -0.066   2.571  1.6021  0.0834 -0.3218
  209SOL     MW  836   4.321   0.008   2.538  0.9988 -0.0124  0.0156
  210SOL     OW  837   2.327   4.139   4.903 -0.2878  0.0250  0.0508
  210SOL    HW1  838   2.272   4.100   4.972  0.1866 -0.9387 -0.0937
  210SOL    HW2  839   2.314   4.081   4.827  0.3993  0.1785 -0.1891
  210SOL     MW  840   2.318   4.126   4.902 -0.1315 -0.0840 -0.0009
  211SOL     OW  841   0.348   4.759   4.020  0.1389 -0.2071  0.1559
  211SOL    HW1  842   0.395   4.681   4.052 -0.7090 -0.4842  0.7660
  211SOL    HW2  843   0.262   4.726   3.994 -0.4717  0.6236  1.0539
  211SOL     MW  844   0.343   4.744   4.021 -0.0574 -0.1326  0.3589
  212SOL     OW  845   1.821   4.701   1.729 -0.3433  0.6966 -0.3158
  212SOL    HW1  846   1.807   4.784   1.683 -3.2138  0.1164 -0.6655
  212SOL    HW2  847   1.734   4.675   1.758  0.4143 -2.3766 -0.4900
  212SOL     MW  848   1.808   4.709   1.727 -0.6277  0.2050 -0.3863
  213SOL     OW  849   2.669   0.536   4.159 -0.3202  0.3024  0.7795
  213SOL    HW1  850   2.586   0.488   4.147  0.7407 -1.3590 -0.3741
  213SOL    HW2  851   2.720   0.480   4.217  1.0096 -0.0973 -0.7161
  213SOL     MW  852   2.665   0.522   4.165  0.0016  0.0250  0.4230
  214SOL     OW  853   1.079   5.250   0.068  0.1973 -0.0564  0.6588
  214SOL    HW1  854   0.995   5.269   0.111  0.1022 -0.2333  0.5550
  214SOL    HW2  855   1.118   5.181   0.121 -0.5066 -1.1895 -0.2511
  214SOL     MW  856   1.073   5.244   0.081  0.0898 -0.2327  0.5224
  215SOL     OW  857   3.434   0.792   3.068 -0.1843 -0.0577  0.3957
  215SOL    HW1  858   3.521   0.754   3.078 -0.0887  0.0846  0.1222
  215SOL    HW2  859   3.382   0.752   3.138  0.6162  1.4181  1.9197
  215SOL     MW  860   3.439   0.782   3.079 -0.0637  0.1601  0.5640
  216SOL     OW  861   1.476   1.049   0.689  0.0182  0.0983 -0.5763
  216SOL    HW1  862   1.516   0.966   0.714 -1.3985 -0.6848 -0.8877
  216SOL    HW2  863   1.513   1.112   0.751  0.3889 -0.9157  0.2541
  216SOL     MW  864   1.487   1.047   0.701 -0.1226 -0.1435 -0.5064
  217SOL     OW  865   2.088   0.091   1.853 -0.0323  0.1194 -0.1009
  217SOL    HW1  866   2.083   0.115   1.946  0.9438  1.0094 -0.2542
  217SOL    HW2  867   2.114   0.172   1.809  2.2250 -0.9093 -0.8203
  217SOL     MW  868   2.091   0.105   1.860  0.4028  0.1007 -0.2184
  218SOL     OW  869   3.850   4.664   1.566  0.1769 -0.2946  0.1373
  218SOL    HW1  870   3.879   4.587   1.615  0.1179 -0.7540 -0.5383
  218SOL    HW2  871   3.755   4.665   1.576  0.2433  0.1192  0.7625
  218SOL     MW  872   3.841   4.654   1.574  0.1779 -0.3008  0.1305
  219SOL     OW  873   1.635   3.259   4.436  0.6779 -0.3458  0.8991
  219SOL    HW1  874   1.583   3.331   4.399 -0.6544 -0.9414  1.5518
  219SOL    HW2  875   1.705   3.245   4.372 -0.3325  0.0486 -0.3315
  219SOL     MW  876   1.637   3.267   4.422  0.3626 -0.3728  0.8213
  220SOL     OW  877   1.392   0.938   1.502 -0.4665  0.4425 -0.2015
  220SOL    HW1  878   1.393   1.023   1.458 -0.6654  0.3113 -0.4593
  220SOL    HW2  879   1.305   0.931   1.542 -1.2331 -0.5304 -1.9402
  220SOL     MW  880   1.381   0.949   1.502 -0.5965  0.2939 -0.4702
  221SOL     OW  881   2.846   0.415   3.325 -0.3730  0.0659 -0.1473
  221SOL    HW1  882   2.845   0.358   3.248 -2.4343  0.0006 -0.1335
  221SOL    HW2  883   2.761   0.460   3.323  0.6913  2.2535  0.5116
  221SOL     MW  884   2.834   0.414   3.314 -0.5072  0.3515 -0.0568
  222SOL     OW  885   2.303   5.461   4.226  0.3205  0.0506 -0.0548
  222SOL    HW1  886   2.261   5.421   4.150  1.2196 -2.0903  0.4835
  222SOL    HW2  887   2.394   5.472   4.199  0.1613  1.4799 -0.0637
  222SOL     MW  888   2.310   5.457   4.212  0.4201 -0.0452  0.0165
  223SOL     OW  889   5.379   0.886   2.305  0.1290  0.5794  0.7207
  223SOL    HW1  890   5.298   0.911   2.259  0.1348  0.5330  0.6852
  223SOL    HW2  891   5.395   0.796   2.277  0.6208  0.8523  0.1100
  223SOL     MW  892   5.370   0.878   2.295  0.1960  0.6099  0.6338
  224SOL     OW  893   1.241   4.246   4.072 -0.0885  0.3247 -0.2370
  224SOL    HW1  894   1.159   4.219   4.112 -0.5017  1.6911 -0.1155
  224SOL    HW2  895   1.260   4.178   4.008 -1.1511 -0.1706 -0.0448
  224SOL     MW  896   1.233   4.233   4.069 -0.2871  0.4419 -0.1948
  225SOL     OW  897   4.847   2.137   4.967 -0.2104  0.3116  0.1484
  225SOL    HW1  898   4.814   2.132   4.877  0.3680  0.2880 -0.0669
  225SOL    HW2  899   4.938   2.109   4.961 -0.7147 -1.7250  1.0684
  225SOL     MW  900   4.855   2.132   4.954 -0.2005  0.0344  0.2432
  226SOL     OW  901   3.909   3.823   0.659 -0.5748 -0.0303  0.1203
  226SOL    HW1  902   3.822   3.819   0.619 -0.2726 -0.1894 -0.5323
  226SOL    HW2  903   3.892   3.837   0.752 -1.2832  0.8552 -0.1281
  226SOL     MW  904   3.895   3.824   0.666 -0.6295  0.0675 -0.0010
  227SOL     OW  905   4.923   3.675   3.919 -0.5989  0.3121  0.0226
  227SOL    HW1  906   4.995   3.652   3.861  0.7042  1.8958  0.9174
  227SOL    HW2  907   4.844   3.665   3.865  0.5036  1.1419 -1.8437
  227SOL     MW  908   4.922   3.671   3.904 -0.2752  0.6369 -0.1081
  228SOL     OW  909   2.193   4.943   3.979 -0.2156  0.2405  0.0910
  228SOL    HW1  910   2.161   5.025   3.943 -0.9886  0.6595  1.6523
  228SOL    HW2  911   2.200   4.884   3.903  0.6527  1.8048 -1.0912
  228SOL     MW  912   2.189   4.946   3.964 -0.2027  0.5074  0.1420
  229SOL     OW  913   5.309   1.374   4.783  0.3946  0.2382  0.0633
  229SOL    HW1  914   5.387   1.428   4.795  1.4581 -1.2356  0.0451
  229SOL    HW2  915   5.309   1.314   4.858 -0.1327 -0.4781 -0.4859
  229SOL     MW  916   5.319   1.373   4.795  0.4668 -0.0565 -0.0130
  230SOL     OW  917   2.844   4.628   1.509 -0.2363  0.2777  0.5188
  230SOL    HW1  918   2.806   4.636   1.422  0.0777 -1.4321  0.1909
  230SOL    HW2  919   2.790   4.684   1.565 -0.4489  1.3914 -0.7472
  230SOL     MW  920   2.832   4.637   1.505 -0.2227  0.1974  0.3043
  231SOL     OW  921   2.851   1.799   3.281  0.0336  0.0727  0.1794
  231SOL    HW1  922   2.938   1.836   3.267 -0.0220  0.3252  0.4833
  231SOL    HW2  923   2.802   1.819   3.202  0.2644 -0.1090 -0.0101
  231SOL     MW  924   2.856   1.806   3.269  0.0572  0.0822  0.1948
  232SOL     OW  925   2.735   4.469   5.269  0.0904  0.0315 -0.0839
  232SOL    HW1  926   2.802   4.425   5.216 -0.6679  0.0291 -1.0609
  232SOL    HW2  927   2.655   4.462   5.217 -1.0893 -1.4678  1.8314
  232SOL     MW  928   2.733   4.462   5.255 -0.1704 -0.1706  0.0424
  233SOL     OW  929   2.182   3.275   4.036 -0.7798  0.4186  0.0666
  233SOL    HW1  930   2.102   3.230   4.011 -0.5010 -0.2903  0.4359
  233SOL    HW2  931   2.252   3.212   4.019 -0.4690  0.3456  1.4928
  233SOL     MW  932   2.181   3.261   4.030 -0.7005  0.3134  0.3082
  234SOL     OW  933   0.811   1.518   1.430 -0.0037 -0.0295 -0.3669
  234SOL    HW1  934   0.767   1.553   1.352  1.5384 -1.6770 -2.1116
  234SOL    HW2  935   0.899   1.556   1.427 -0.1772  0.5323  1.0889
  234SOL     MW  936   0.817   1.528   1.419  0.1805 -0.1756 -0.4058
  235SOL     OW  937   1.068   1.874   4.975 -0.0086  0.0511 -0.3634
  235SOL    HW1  938   0.988   1.923   4.955  0.5029  1.1335  0.1590
  235SOL    HW2  939   1.071   1.805   4.909 -0.3475  1.1855 -1.6072
  235SOL     MW  940   1.057   1.871   4.964  0.0146  0.3495 -0.4605
  236SOL     OW  941   1.984   1.033   2.136 -0.0127 -0.6646  0.1040
  236SOL    HW1  942   1.905   1.028   2.190  1.4923 -1.2031  2.3946
  236SOL    HW2  943   2.022   0.946   2.142  1.0055 -0.2809 -0.5700
  236SOL     MW  944   1.978   1.021   2.144  0.3269 -0.6854  0.3216
  237SOL     OW  945   1.613   1.144   3.605 -1.2940  0.2268  0.8652
  237SOL    HW1  946   1.567   1.164   3.687  1.2378  1.4334  2.1262
  237SOL    HW2  947   1.569   1.197   3.539 -2.7845 -0.0290  1.6156
  237SOL     MW  948   1.601   1.154   3.607 -1.1539  0.3548  1.1359
  238SOL     OW  949   0.974   4.074   3.567 -0.1689 -0.0579  0.6066
  238SOL    HW1  950   0.927   4.142   3.615 -1.1886  0.5911 -1.2248
  238SOL    HW2  951   0.916   4.050   3.496  0.3869 -2.5321  0.8958
  238SOL     MW  952   0.960   4.080   3.564 -0.2313 -0.3035  0.3990
  239SOL     OW  953   2.800   3.123   0.256 -0.1755  0.2369 -0.0175
  239SOL    HW1  954   2.742   3.157   0.187 -0.0620  0.7109  0.1146
  239SOL    HW2  955   2.855   3.198   0.280  1.4447 -0.5664 -1.1069
  239SOL     MW  956   2.800   3.138   0.250  0.0578  0.1926 -0.1463
  240SOL     OW  957   0.932   2.188   4.104 -0.2566  0.1874 -0.1624
  240SOL    HW1  958   1.020   2.199   4.138 -0.3825  1.2991 -0.1758
  240SOL    HW2  959   0.896   2.276   4.101 -0.9730 -0.1254 -1.2181
  240SOL     MW  960   0.939   2.201   4.108 -0.3700  0.2949 -0.3063
  241SOL     OW  961   0.539   1.065   5.229  0.0303 -0.1180 -0.2117
  241SOL    HW1  962   0.455   1.064   5.182 -0.2911  0.7514  0.3275
  241SOL    HW2  963   0.549   0.976   5.262 -1.2257  0.0293  0.6379
  241SOL     MW  964   0.529   1.053   5.227 -0.1820  0.0188 -0.0248
  242SOL     OW  965   0.654   3.763   0.659  0.5424  0.1143 -0.2606
  242SOL    HW1  966   0.672   3.811   0.740 -0.0820  0.7055 -0.4665
  242SOL    HW2  967   0.629   3.675   0.689  3.2962 -0.6675  0.0615
  242SOL     MW  968   0.653   3.758   0.674  0.8289  0.0886 -0.2450
  243SOL     OW  969   5.296   1.260   0.557 -0.3422 -0.0882  0.2456
  243SOL    HW1  970   5.259   1.321   0.493  0.4575 -0.5687 -0.6943
  243SOL    HW2  971   5.282   1.173   0.518 -1.8162 -0.5663  1.7407
  243SOL     MW  972   5.289   1.256   0.543 -0.4330 -0.2172  0.3203
  244SOL     OW  973   5.470   5.407   4.547  0.1713  0.0056  0.0610
  244SOL    HW1  974   5.417   5.368   4.477  2.0820  0.0089 -1.4452
  244SOL    HW2  975   5.522   5.334   4.581 -0.2685  0.1431  1.0543
  244SOL     MW  976   5.470   5.392   4.542  0.3692  0.0246 -0.0080
  245SOL     OW  977   2.568   1.644   3.446  0.2439 -0.3530  0.0015
  245SOL    HW1  978   2.526   1.708   3.389 -1.0037 -0.9432  0.2320
  245SOL    HW2  979   2.553   1.677   3.534  1.0474 -0.1110  0.0526
  245SOL     MW  980   2.560   1.657   3.450  0.1841 -0.3998  0.0394
  246SOL     OW  981   4.064   5.198   1.038  0.2912 -0.2418  0.3965
  246SOL    HW1  982   3.974   5.165   1.041  0.5399 -0.9383  0.5022
  246SOL    HW2  983   4.076   5.244   1.121  0.5733 -1.6406  1.1646
  246SOL     MW  984   4.054   5.200   1.049  0.3626 -0.5238  0.5141
  247SOL     OW  985   5.259   5.198   0.145  0.4467 -0.2531 -0.1514
  247SOL    HW1  986   5.228   5.216   0.057 -0.5532 -0.0765  0.2300
  247SOL    HW2  987   5.340   5.147   0.132  1.4828  1.5554 -1.1946
  247SOL     MW  988   5.266   5.194   0.132  0.4515  0.0140 -0.2405
  248SOL     OW  989   1.185   3.838   0.834 -0.5832 -0.5694  0.2981
  248SOL    HW1  990   1.143   3.776   0.893 -1.5757 -1.3559 -1.1729
  248SOL    HW2  991   1.126   3.913   0.831 -1.2976 -1.1518 -0.8039
  248SOL     MW  992   1.172   3.840   0.842 -0.8129 -0.7536 -0.0482
  249SOL     OW  993   2.852   4.000   1.713  0.8238  0.5652  0.0236
  249SOL    HW1  994   2.881   3.928   1.769 -0.5792  1.0031  1.3764
  249SOL    HW2  995   2.770   3.970   1.675  1.6301  0.3754 -1.6884
  249SOL     MW  996   2.845   3.986   1.715  0.7435  0.5986 -0.0248
  250SOL     OW  997   4.074   0.898   1.582  0.4124  0.0953 -0.0911
  250SOL    HW1  998   4.007   0.837   1.554  1.0044 -0.5211 -0.1804
  250SOL    HW2  999   4.096   0.949   1.504  1.6539 -1.2364 -0.6545
  250SOL     MW 1000   4.068   0.897   1.568  0.6592 -0.1669 -0.1789
  251SOL     OW 1001   2.284   4.027   3.265  0.4416 -0.5877 -0.0076
  251SOL    HW1 1002   2.264   4.027   3.359 -0.0539  2.2219 -0.0260
  251SOL    HW2 1003   2.380   4.024   3.262  0.4817 -0.3149  0.6338
  251SOL     MW 1004   2.294   4.027   3.277  0.3803 -0.1729  0.0763
  252SOL     OW 1005   3.812   1.693   4.115  0.2446 -0.1521 -0.3287
  252SOL    HW1 1006   3.759   1.669   4.192  0.1688 -0.8051 -0.5843
  252SOL    HW2 1007   3.901   1.668   4.139  0.2025 -0.4681 -0.4981
  252SOL     MW 1008   3.817   1.687   4.129  0.2287 -0.2825 -0.3859
  253SOL     OW 1009   4.424   2.088   3.907  0.6013  0.2967  0.2444
  253SOL    HW1 1010   4.361   2.136   3.852 -0.2021  0.2423  1.0884
  253SOL    HW2 1011   4.397   2.109   3.997  0.8962 -0.8867  0.6166
  253SOL     MW 1012   4.412   2.098   3.912  0.5329  0.1302  0.4081
  254SOL     OW 1013   3.664   4.721   5.308  0.5990  0.2274  0.4915
  254SOL    HW1 1014   3.685   4.808   5.340  0.9186 -0.0714  1.1051
  254SOL    HW2 1015   3.589   4.693   5.361 -1.8103  1.5059 -2.0362
  254SOL     MW 1016   3.657   4.729   5.319  0.3178  0.3593  0.2339
  255SOL     OW 1017   5.214   2.506   0.617 -0.1438 -0.0338  0.0329
  255SOL    HW1 1018   5.168   2.423   0.624  0.3471 -0.2676  0.5661
  255SOL    HW2 1019   5.298   2.483   0.575 -0.8808  0.5320 -1.8377
  255SOL     MW 1020   5.219   2.492   0.612 -0.1769  0.0109 -0.1471
  256SOL     OW 1021   2.361   0.656   4.482  0.4667 -0.3315  0.3390
  256SOL    HW1 1022   2.402   0.689   4.402 -1.0832  0.7489 -0.0488
  256SOL    HW2 1023   2.293   0.597   4.451 -0.8954  0.9501  0.7811
  256SOL     MW 1024   2.357   0.652   4.467  0.0748 -0.0136  0.3463
  257SOL     OW 1025   0.936   4.291   5.100 -0.2305 -0.6299  0.2311
  257SOL    HW1 1026   0.921   4.296   5.005  0.4668 -0.8074  0.0994
  257SOL    HW2 1027   0.855   4.256   5.136 -0.4742 -0.6335 -0.3121
  257SOL     MW 1028   0.923   4.287   5.092 -0.1694 -0.6543  0.1403
  258SOL     OW 1029   0.312   2.004   4.197  0.4292  0.0555 -0.4741
  258SOL    HW1 1030   0.392   2.026   4.244  0.1527  1.1304 -0.4880
  258SOL    HW2 1031   0.338   2.005   4.105  0.8924 -1.7313 -0.4066
  258SOL     MW 1032   0.326   2.007   4.191  0.4543 -0.0403 -0.4669
  259SOL     OW 1033   3.483   4.433   4.659  0.6266  0.3168  0.5255
  259SOL    HW1 1034   3.474   4.342   4.685  0.5684 -0.6044 -2.3900
  259SOL    HW2 1035   3.393   4.467   4.661  0.7542  0.6739  2.5551
  259SOL     MW 1036   3.469   4.426   4.663  0.6359  0.2409  0.4063
  260SOL     OW 1037   5.143   2.606   4.614 -0.3575  0.1430 -0.3134
  260SOL    HW1 1038   5.135   2.627   4.521 -0.8423 -0.8716 -0.5103
  260SOL    HW2 1039   5.223   2.554   4.620  0.0187  0.7427 -0.0602
  260SOL     MW 1040   5.153   2.602   4.603 -0.3721  0.0871 -0.3058
  261SOL     OW 1041   0.188   5.243   0.023 -0.2046  0.0249  0.1141
  261SOL    HW1 1042   0.138   5.323   0.037 -0.3168 -0.0146 -0.0662
  261SOL    HW2 1043   0.279   5.269   0.034 -0.3190 -0.3058  2.6179
  261SOL     MW 1044   0.193   5.257   0.027 -0.2351 -0.0249  0.4268
  262SOL     OW 1045   3.889   1.922   3.414 -0.4546 -0.0877  0.3057
  262SOL    HW1 1046   3.970   1.911   3.363 -0.1598  0.5250  0.6293
  262SOL    HW2 1047   3.849   1.835   3.414  0.5867 -0.5884  0.7650
  262SOL     MW 1048   3.895   1.908   3.408 -0.2748 -0.0726  0.4111
  263SOL     OW 1049   0.832   3.044   1.088 -0.5387 -0.6084  0.5380
  263SOL    HW1 1050   0.864   3.120   1.039 -2.5524 -1.4166 -2.2910
  263SOL    HW2 1051   0.911   3.001   1.121  0.7322  1.7289  0.7291
  263SOL     MW 1052   0.847   3.048   1.086 -0.6386 -0.4026  0.1830
  264SOL     OW 1053   1.175   3.611   2.535  0.4129  0.1228  0.0043
  264SOL    HW1 1054   1.105   3.677   2.530 -1.4560 -1.7837 -1.1707
  264SOL    HW2 1055   1.183   3.591   2.628  0.9483  1.8649  0.3737
  264SOL     MW 1056   1.166   3.617   2.547  0.2334  0.1006 -0.1041
  265SOL     OW 1057   2.690   0.981   3.087  0.1869 -1.1261 -0.2138
  265SOL    HW1 1058   2.659   1.007   3.174  0.2739  2.1814 -1.0172
  265SOL    HW2 1059   2.785   0.994   3.092 -0.0672  2.3535 -1.5755
  265SOL     MW 1060   2.699   0.986   3.099  0.1644 -0.2127 -0.5052
  266SOL     OW 1061   1.883   1.041   3.636  0.3637  0.2208 -0.3573
  266SOL    HW1 1062   1.791   1.063   3.647  0.3815 -0.3383  1.1792
  266SOL    HW2 1063   1.883   0.974   3.567 -0.4617 -0.3178  0.1508
  266SOL     MW 1064   1.870   1.035   3.628  0.2550  0.0731 -0.0822
  267SOL     OW 1065   4.319   2.466   0.474 -0.0324  0.3455 -0.7125
  267SOL    HW1 1066   4.367   2.547   0.459 -0.0814  0.8113  1.3253
  267SOL    HW2 1067   4.244   2.471   0.415 -0.9752  2.6386  0.5369
  267SOL     MW 1068   4.316   2.477   0.464 -0.1659  0.7168 -0.2701
  268SOL     OW 1069   1.898   4.495   4.465  0.4313  0.7059  0.5030
  268SOL    HW1 1070   1.966   4.497   4.398 -0.5075  0.3528 -0.4827
  268SOL    HW2 1071   1.929   4.556   4.532  1.6471  0.6557  0.0178
  268SOL     MW 1072   1.911   4.503   4.465  0.4686  0.6516  0.3050
  269SOL     OW 1073   1.759   2.321   3.005 -0.1129 -0.0250  0.0907
  269SOL    HW1 1074   1.814   2.281   2.939 -0.3442 -1.1013  0.5298
  269SOL    HW2 1075   1.802   2.404   3.026  0.2737  0.0514 -0.9694
  269SOL     MW 1076   1.772   2.327   2.999 -0.0920 -0.1596  0.0072
  270SOL     OW 1077   4.521   4.812   1.621 -0.4419  0.0557 -0.5118
  270SOL    HW1 1078   4.572   4.893   1.621  0.9759 -0.7088 -3.0660
  270SOL    HW2 1079   4.430   4.840   1.610 -0.2401  1.3420  0.8507
  270SOL     MW 1080   4.516   4.827   1.620 -0.2239  0.1259 -0.6722
  271SOL     OW 1081   1.843   2.663   2.609 -0.0242 -0.3162 -0.4983
  271SOL    HW1 1082   1.770   2.635   2.554  0.9399 -0.5837 -1.6744
  271SOL    HW2 1083   1.892   2.724   2.554  0.6830 -0.1893  0.2531
  271SOL     MW 1084   1.840   2.668   2.594  0.2007 -0.3351 -0.5554
  272SOL     OW 1085   3.502   0.359   0.117  0.2652  0.1747 -0.1534
  272SOL    HW1 1086   3.509   0.315   0.202  0.2712  0.2222 -0.1292
  272SOL    HW2 1087   3.409   0.354   0.096  0.3444 -0.2894 -0.3865
  272SOL     MW 1088   3.490   0.353   0.126  0.2767  0.1186 -0.1815
  273SOL     OW 1089   2.604   3.906   0.779 -0.0690  0.2730 -0.2273
  273SOL    HW1 1090   2.518   3.881   0.811  1.1430 -3.3900  0.6067
  273SOL    HW2 1091   2.666   3.860   0.835  2.4055  0.9802 -2.1541
  273SOL     MW 1092   2.601   3.897   0.791  0.4272 -0.1248 -0.3744
  274SOL     OW 1093   4.944   4.230   4.117  0.1912  0.1279 -0.7124
  274SOL    HW1 1094   4.893   4.309   4.101  0.3689  0.4686  0.2723
  274SOL    HW2 1095   4.985   4.246   4.203  1.3232 -0.4508 -1.1246
  274SOL     MW 1096   4.943   4.243   4.127  0.3675  0.0959 -0.6353
  275SOL     OW 1097   3.371   3.027   1.851 -0.2687  0.1707 -0.1216
  275SOL    HW1 1098   3.331   3.113   1.841 -0.6034  0.0163 -0.1504
  275SOL    HW2 1099   3.464   3.041   1.837 -0.4353  0.3637 -1.0580
  275SOL     MW 1100   3.378   3.040   1.848 -0.3362  0.1759 -0.2515
  276SOL     OW 1101   4.982   1.814   2.948  0.3684  0.2486 -0.3476
  276SOL    HW1 1102   4.972   1.754   2.874 -0.1359 -0.7889  0.5391
  276SOL    HW2 1103   5.075   1.809   2.970  0.3771 -0.0030 -0.4435
  276SOL     MW 1104   4.993   1.805   2.941  0.3017  0.0751 -0.2412
  277SOL     OW 1105   2.281   4.463   5.196 -0.4146  0.2493  0.5088
  277SOL    HW1 1106   2.244   4.549   5.179 -0.5375  0.1053  0.0321
  277SOL    HW2 1107   2.230   4.403   5.141  0.6522  0.0732 -0.3189
  277SOL     MW 1108   2.269   4.466   5.186 -0.2875  0.2062  0.3333
  278SOL     OW 1109   2.961   3.454   0.702 -0.1842 -0.7078  0.9913
  278SOL    HW1 1110   2.959   3.548   0.686  1.8480 -0.7703  0.0489
  278SOL    HW2 1111   2.961   3.446   0.798 -0.4664  0.2277  1.0840
  278SOL     MW 1112   2.961   3.466   0.713  0.0513 -0.5904  0.8769
  279SOL     OW 1113   3.623   4.220   2.486 -0.6200  0.2081  0.0009
  279SOL    HW1 1114   3.638   4.281   2.414 -0.7120 -1.8157 -1.8556
  279SOL    HW2 1115   3.691   4.154   2.476 -1.5508 -0.9214  0.8460
  279SOL     MW 1116   3.634   4.219   2.475 -0.7577 -0.2163 -0.1352
  280SOL     OW 1117   1.110   2.248   3.399  0.2562  0.7860  0.4093
  280SOL    HW1 1118   1.204   2.264   3.384  0.4662 -0.5746  0.1311
  280SOL    HW2 1119   1.090   2.296   3.479  1.6943 -0.5035  1.6164
  280SOL     MW 1120   1.120   2.256   3.408  0.4780  0.4294  0.5343
  281SOL     OW 1121   1.282   5.020   0.919  0.5401 -0.7470  0.6057
  281SOL    HW1 1122   1.225   5.077   0.971  1.5995  0.8446  0.0989
  281SOL    HW2 1123   1.236   4.936   0.916 -1.1259  0.0991  1.2968
  281SOL     MW 1124   1.268   5.016   0.926  0.4585 -0.4189  0.6305
  282SOL     OW 1125   4.431   4.337   1.127  0.3052  0.6521  0.2726
  282SOL    HW1 1126   4.339   4.359   1.142  0.3028  1.8602 -1.2824
  282SOL    HW2 1127   4.477   4.421   1.132  1.0614  0.3171 -0.7119
  282SOL     MW 1128   4.425   4.351   1.130  0.4066  0.7696 -0.0691
  283SOL     OW 1129   3.393   1.407   4.845 -0.1136 -0.2676 -0.2379
  283SOL    HW1 1130   3.410   1.493   4.882 -1.8539  0.4226 -0.9544
  283SOL    HW2 1131   3.455   1.349   4.890  1.2135  1.3619  0.1156
  283SOL     MW 1132   3.404   1.410   4.856 -0.1692  0.0446 -0.2868
  284SOL     OW 1133   4.500   3.632   0.927 -0.6217 -0.8965 -0.4723
  284SOL    HW1 1134   4.477   3.545   0.894 -0.7654 -0.6491 -1.0327
  284SOL    HW2 1135   4.577   3.657   0.877 -2.0342  0.3478 -2.1589
  284SOL     MW 1136   4.507   3.623   0.916 -0.8312 -0.6958 -0.7747
  285SOL     OW 1137   3.649   3.861   0.528  0.9303  0.2835  0.0362
  285SOL    HW1 1138   3.660   3.772   0.493 -1.4303 -0.5188  1.1281
  285SOL    HW2 1139   3.636   3.915   0.450 -0.3281 -0.7934 -0.5404
  285SOL     MW 1140   3.649   3.856   0.513  0.4432  0.0306  0.1055
  286SOL     OW 1141   1.986   3.744   1.552  0.0657  0.3886 -0.1923
  286SOL    HW1 1142   2.037   3.665   1.570 -1.9469 -0.6138  1.5642
  286SOL    HW2 1143   2.051   3.812   1.539  1.8517 -1.1646  0.1525
  286SOL     MW 1144   2.001   3.742   1.552  0.0352  0.0447  0.0905
  287SOL     OW 1145   5.029   4.332   2.201 -0.3343 -0.3085 -0.2173
  287SOL    HW1 1146   5.052   4.420   2.228  0.5795  0.0187 -1.9304
  287SOL    HW2 1147   4.959   4.343   2.137  0.6166 -0.7110 -1.3620
  287SOL     MW 1148   5.023   4.345   2.196 -0.0833 -0.3187 -0.6019
  288SOL     OW 1149   2.219   3.312   3.254  0.8486  0.0038 -0.2066
  288SOL    HW1 1150   2.276   3.388   3.250 -0.0874  0.7180 -0.4506
  288SOL    HW2 1151   2.173   3.312   3.170  0.6019 -0.6433 -0.0798
  288SOL     MW 1152   2.220   3.322   3.242  0.6894  0.0128 -0.2224
  289SOL     OW 1153   4.466   4.701   0.060 -0.0254 -0.2467 -0.3089
  289SOL    HW1 1154   4.375   4.700   0.089  0.6631  0.2437  2.0991
  289SOL    HW2 1155   4.496   4.611   0.068  0.0463 -0.1845  0.1440
  289SOL     MW 1156   4.458   4.689   0.065  0.0769 -0.1723  0.0761
  290SOL     OW 1157   5.137   2.497   2.117 -0.3072  0.1032  0.0102
  290SOL    HW1 1158   5.183   2.557   2.058  1.9885 -0.0173  1.5924
  290SOL    HW2 1159   5.104   2.554   2.187  0.3475 -0.2532  0.6074
  290SOL     MW 1160   5.139   2.513   2.118  0.0898  0.0390  0.3035
  291SOL     OW 1161   1.047   2.383   3.643 -0.3371 -0.1612 -0.6135
  291SOL    HW1 1162   1.027   2.320   3.713 -0.8942 -1.5253 -1.9423
  291SOL    HW2 1163   0.963   2.403   3.604 -0.2327  1.8454  0.0722
  291SOL     MW 1164   1.033   2.377   3.647 -0.3980 -0.0748 -0.7001
  292SOL     OW 1165   0.673   1.192   2.659  0.3889 -0.3503 -0.0543
  292SOL    HW1 1166   0.687   1.212   2.751  0.8791  0.4251 -0.2840
  292SOL    HW2 1167   0.732   1.252   2.612 -1.7059  1.1242 -0.9746
  292SOL     MW 1168   0.683   1.203   2.665  0.1730 -0.0475 -0.2090
  293SOL     OW 1169   4.412   5.412   5.413 -0.1299  0.1583 -0.0381
  293SOL    HW1 1170   4.507   5.409   5.424 -0.2617 -1.0966  0.9122
  293SOL    HW2 1171   4.377   5.407   5.501 -1.0956 -0.3493 -0.4323
  293SOL     MW 1172   4.420   5.411   5.426 -0.2776 -0.0789  0.0367
  294SOL     OW 1173   1.971   1.623   1.354  0.2916  0.1498 -0.1574
  294SOL    HW1 1174   2.005   1.688   1.416 -1.3122  0.1805  0.7463
  294SOL    HW2 1175   1.972   1.667   1.269  2.2783  0.2005 -0.1516
  294SOL     MW 1176   1.976   1.638   1.351  0.3432  0.1607 -0.0350
  295SOL     OW 1177   0.719   3.086   5.202 -0.7810 -0.0640 -0.1555
  295SOL    HW1 1178   0.639   3.040   5.228  0.2392 -1.1958  1.1190
  295SOL    HW2 1179   0.746   3.133   5.281 -0.3640  0.6025 -0.6824
  295SOL     MW 1180   0.712   3.086   5.216 -0.5876 -0.1266 -0.0549
  296SOL     OW 1181   3.499   3.838   3.281  0.4071  0.1216 -0.3599
  296SOL    HW1 1182   3.570   3.901   3.272 -1.3304  2.0895 -1.0764
  296SOL    HW2 1183   3.433   3.883   3.335  0.3198 -2.2629  1.7279
  296SOL     MW 1184   3.499   3.853   3.287  0.1615  0.0655 -0.1753
  297SOL     OW 1185   1.414   1.615   1.906  0.2395 -0.2413 -0.3170
  297SOL    HW1 1186   1.364   1.609   1.825 -2.1012  0.7246  0.9520
  297SOL    HW2 1187   1.370   1.555   1.966  0.8620  0.3309  0.7438
  297SOL     MW 1188   1.401   1.606   1.903  0.0083 -0.0343 -0.0035
  298SOL     OW 1189   0.894   3.720   0.522  0.0372  0.3600  0.4182
  298SOL    HW1 1190   0.811   3.730   0.569 -1.1557 -1.5042 -1.1253
  298SOL    HW2 1191   0.884   3.775   0.444  0.1439 -0.0410  0.1174
  298SOL     MW 1192   0.882   3.729   0.517 -0.1090  0.0552  0.1700
  299SOL     OW 1193   2.855   2.331   3.727  0.4065  0.5181 -0.0176
  299SOL    HW1 1194   2.900   2.253   3.759 -0.5071  0.3107  0.8115
  299SOL    HW2 1195   2.873   2.398   3.793  2.5597  1.5504 -1.5201
  299SOL     MW 1196   2.864   2.329   3.740  0.5733  0.6291 -0.1082
  300SOL     OW 1197   5.165   5.171   3.860 -0.0452  0.5335 -0.4557
  300SOL    HW1 1198   5.194   5.156   3.950 -3.7748 -0.6699  0.7275
  300SOL    HW2 1199   5.167   5.266   3.850  0.5498  0.6783  0.8232
  300SOL     MW 1200   5.170   5.182   3.871 -0.4671  0.3911 -0.1244
  301SOL     OW 1201   0.396   2.903   5.050 -0.0527  0.4482 -0.2240
  301SOL    HW1 1202   0.480   2.938   5.019 -0.1834  1.0321  0.0691
  301SOL    HW2 1203   0.399   2.810   5.025  2.0154 -0.3448  2.4450
  301SOL     MW 1204   0.408   2.895   5.042  0.2080  0.4200  0.1746
  302SOL     OW 1205   0.561   2.563   5.272  0.3261  0.3682  0.1250
  302SOL    HW1 1206   0.571   2.479   5.316 -0.9989 -0.7279 -1.5388
  302SOL    HW2 1207   0.501   2.545   5.200 -0.0484  2.7703 -0.2397
  302SOL     MW 1208   0.554   2.549   5.269  0.0974  0.5440 -0.1480
  303SOL     OW 1209   2.781   2.425   3.483 -0.2802 -0.7570  0.2897
  303SOL    HW1 1210   2.813   2.354   3.427 -0.9961 -1.8472  1.2174
  303SOL    HW2 1211   2.822   2.409   3.568  1.1357  1.1312  0.0324
  303SOL     MW 1212   2.791   2.414   3.487 -0.1860 -0.6496  0.3799
  304SOL     OW 1213   1.479  -0.009   0.194  0.0484 -0.2505  0.3342
  304SOL    HW1 1214   1.565   0.032   0.188  0.5537 -1.1048  1.2427
  304SOL    HW2 1215   1.447  -0.013   0.104  0.0277  1.9427  0.2012
  304SOL     MW 1216   1.486  -0.004   0.181  0.1136 -0.0703  0.4385
  305SOL     OW 1217   2.706   1.079   0.402  0.1632 -0.0035 -0.0719
  305SOL    HW1 1218   2.651   1.145   0.444  0.1623 -0.1537  0.1642
  305SOL    HW2 1219   2.690   1.090   0.309 -0.6839 -0.4012  0.0114
  305SOL     MW 1220   2.696   1.089   0.395  0.0491 -0.0772 -0.0289
  306SOL     OW 1221   4.689   5.036   4.891 -0.0817 -0.2045  0.6954
  306SOL    HW1 1222   4.630   5.062   4.962 -0.2461 -1.4947  1.0484
  306SOL    HW2 1223   4.777   5.056   4.923 -0.2663  2.2328 -0.0358
  306SOL     MW 1224   4.693   5.042   4.905 -0.1286 -0.0502  0.6445
  307SOL     OW 1225   3.426   4.644   2.395 -0.0265 -0.3329  0.5861
  307SOL    HW1 1226   3.342   4.631   2.352  0.1136 -0.8602  0.4743
  307SOL    HW2 1227   3.419   4.596   2.478  0.5558 -1.3143  0.0850
  307SOL     MW 1228   3.414   4.636   2.400  0.0707 -0.5359  0.5036
  308SOL     OW 1229   4.270   0.795   1.749 -0.1444  0.1487  0.7688
  308SOL    HW1 1230   4.199   0.837   1.700 -0.7495 -0.2653  1.2677
  308SOL    HW2 1231   4.226   0.731   1.805  0.5963  0.1223  1.3413
  308SOL     MW 1232   4.254   0.792   1.750 -0.1261  0.0894  0.9130
  309SOL     OW 1233   1.816   3.921   2.997  0.7219  0.4553 -0.3255
  309SOL    HW1 1234   1.831   4.001   2.947  3.1776  0.1462 -0.2173
  309SOL    HW2 1235   1.827   3.948   3.089  0.1283  0.2569 -0.1909
  309SOL     MW 1236   1.820   3.935   3.003  0.9725  0.3870 -0.2928
  310SOL     OW 1237   1.808   1.518   1.792 -0.1071  0.3903 -0.7282
  310SOL    HW1 1238   1.875   1.564   1.843 -1.3980  0.6005  0.8526
  310SOL    HW2 1239   1.747   1.484   1.857 -2.1429  1.1073 -2.1516
  310SOL     MW 1240   1.809   1.520   1.808 -0.5548  0.5151 -0.7070
  311SOL     OW 1241   1.118   0.620   4.374 -0.3645 -0.2213  0.3531
  311SOL    HW1 1242   1.127   0.634   4.468 -1.7018 -0.9578  0.6241
  311SOL    HW2 1243   1.176   0.546   4.355  0.4409  0.3791  0.4619
  311SOL     MW 1244   1.127   0.612   4.384 -0.4361 -0.2396  0.4042
  312SOL     OW 1245   1.908   0.015   2.684  0.0314  0.1957  0.0167
  312SOL    HW1 1246   1.980   0.022   2.747 -0.4642  0.6049  0.5493
  312SOL    HW2 1247   1.831   0.046   2.732 -0.5643 -0.5260 -0.4458
  312SOL     MW 1248   1.907   0.020   2.699 -0.1154  0.1536  0.0262
  313SOL     OW 1249   5.013   3.411   1.076  0.0244  0.2504 -0.2438
  313SOL    HW1 1250   4.959   3.408   0.997  0.8802 -0.5991 -0.8204
  313SOL    HW2 1251   4.981   3.488   1.124 -0.9437  0.4034 -1.0914
  313SOL     MW 1252   5.001   3.421   1.072  0.0093  0.1567 -0.4354
  314SOL     OW 1253   4.014   1.050   0.371  0.2927  0.1136  0.0775
  314SOL    HW1 1254   3.984   1.074   0.459 -0.5984  0.9090 -0.4328
  314SOL    HW2 1255   3.942   1.072   0.313  1.4778  1.1810 -1.0653
  314SOL     MW 1256   4.000   1.056   0.375  0.3323  0.3643 -0.1450
  315SOL     OW 1257   1.725   3.817   1.389 -0.3647 -0.0804 -0.6760
  315SOL    HW1 1258   1.803   3.777   1.349  1.1924  0.5745  1.4885
  315SOL    HW2 1259   1.739   3.911   1.380 -1.4535  0.0439 -1.1884
  315SOL     MW 1260   1.738   3.824   1.382 -0.3017  0.0244 -0.4537
  316SOL     OW 1261   4.133   4.535   2.257  0.2973 -0.4393  0.7543
  316SOL    HW1 1262   4.224   4.565   2.256  0.9690 -2.3377  0.7481
  316SOL    HW2 1263   4.136   4.449   2.216 -1.7320  0.0015 -0.4649
  316SOL     MW 1264   4.146   4.527   2.251  0.1146 -0.6355  0.5894
  317SOL     OW 1265   3.864   2.355   0.796  0.3046  0.0540 -0.2501
  317SOL    HW1 1266   3.774   2.376   0.771  0.2503  0.2505  0.1045
  317SOL    HW2 1267   3.905   2.440   0.811  0.8644  0.0188 -1.4702
  317SOL     MW 1268   3.857   2.370   0.795  0.3726  0.0757 -0.3666
  318SOL     OW 1269   2.185   2.136   3.921  0.5538 -0.0180 -0.6032
  318SOL    HW1 1270   2.242   2.064   3.944  0.4399 -0.5117 -1.7907
  318SOL    HW2 1271   2.230   2.181   3.849  0.8729  1.4254  0.4359
  318SOL     MW 1272   2.198   2.133   3.914  0.5814  0.1098 -0.6232
  319SOL     OW 1273   3.804   2.817   2.546  0.0819 -0.3332  0.3527
  319SOL    HW1 1274   3.712   2.826   2.522 -0.1060 -0.7755  0.8883
  319SOL    HW2 1275   3.850   2.810   2.462 -0.1175  1.9423 -0.0216
  319SOL     MW 1276   3.798   2.817   2.531  0.0298 -0.0865  0.3744
  320SOL     OW 1277   0.837   5.446   4.984 -0.0679 -0.0436  0.3484
  320SOL    HW1 1278   0.875   5.483   5.064  0.1662 -0.5473  0.4702
  320SOL    HW2 1279   0.898   5.377   4.958  0.8873  1.3533 -1.3307
  320SOL     MW 1280   0.851   5.442   4.992  0.0921  0.0766  0.1388
  321SOL     OW 1281   5.310   0.811   0.638  0.1044  0.3342  0.1341
  321SOL    HW1 1282   5.302   0.745   0.706 -0.2293 -0.1385 -0.3556
  321SOL    HW2 1283   5.390   0.859   0.661  1.0048 -0.9689 -0.1106
  321SOL     MW 1284   5.320   0.808   0.650  0.1807  0.0952  0.0353
  322SOL     OW 1285   0.372   3.576   3.784  0.0313  0.0312  0.3883
  322SOL    HW1 1286   0.388   3.670   3.795  0.4613 -0.0973  0.8818
  322SOL    HW2 1287   0.277   3.569   3.777  0.0210  0.5444 -0.0592
  322SOL     MW 1288   0.361   3.588   3.784  0.0878  0.0830  0.3945
  323SOL     OW 1289   2.249   4.343   4.580  0.4460 -0.6932  0.4099
  323SOL    HW1 1290   2.337   4.305   4.588  1.2941  1.1305  0.1606
  323SOL    HW2 1291   2.191   4.267   4.584  1.7627 -1.7156  4.0769
  323SOL     MW 1292   2.253   4.327   4.582  0.7374 -0.5854  0.8699
  324SOL     OW 1293   0.580   5.307   2.270 -0.7980  0.2471 -0.2735
  324SOL    HW1 1294   0.618   5.288   2.184  1.8787 -0.6810  0.9785
  324SOL    HW2 1295   0.496   5.260   2.270 -0.4558 -0.4545 -2.0497
  324SOL     MW 1296   0.574   5.298   2.258 -0.3917  0.0278 -0.3440
  325SOL     OW 1297   0.424   3.871   0.903  0.0131  0.5190  0.2599
  325SOL    HW1 1298   0.418   3.953   0.855 -2.3213  0.5722  0.5309
  325SOL    HW2 1299   0.360   3.879   0.974  0.5051 -1.1098  0.9500
  325SOL     MW 1300   0.414   3.883   0.906 -0.2348  0.3069  0.3892
  326SOL     OW 1301   3.279   2.207   0.172 -0.2335  0.2871  0.4331
  326SOL    HW1 1302   3.212   2.185   0.236 -1.0570  1.5754  0.0529
  326SOL    HW2 1303   3.285   2.302   0.175  3.0530  0.1758  1.9070
  326SOL     MW 1304   3.271   2.217   0.181  0.0980  0.4455  0.5803
  327SOL     OW 1305   5.493   0.978   2.974  0.1851 -0.0213 -0.1340
  327SOL    HW1 1306   5.490   1.051   2.912 -1.3925 -0.3138 -0.4452
  327SOL    HW2 1307   5.407   0.938   2.968  0.8408 -1.6008  0.4250
  327SOL     MW 1308   5.481   0.982   2.965  0.0611 -0.2733 -0.1006
  328SOL     OW 1309   1.492   3.002   2.599 -0.1985  0.0475  0.6494
  328SOL    HW1 1310   1.586   3.011   2.580 -0.3459  0.4211  0.0939
  328SOL    HW2 1311   1.455   2.964   2.519 -0.5207 -0.1144  0.8736
  328SOL     MW 1312   1.500   2.998   2.586 -0.2617  0.0760  0.6048
  329SOL     OW 1313   3.930   0.367   4.021 -0.2112  0.9495 -0.6902
  329SOL    HW1 1314   3.895   0.352   3.933 -0.9352 -0.8948 -0.1477
  329SOL    HW2 1315   3.855   0.399   4.071 -0.3580 -0.0167 -0.2694
  329SOL     MW 1316   3.915   0.369   4.016 -0.3284  0.5713 -0.5606
  330SOL     OW 1317   0.415   2.531   2.468 -0.6175  0.4365  0.0034
  330SOL    HW1 1318   0.365   2.476   2.528  0.0777  0.2385  0.4075
  330SOL    HW2 1319   0.452   2.469   2.405  0.2053  0.4228  0.4866
  330SOL     MW 1320   0.414   2.515   2.467 -0.4132  0.4080  0.1228
  331SOL     OW 1321   1.960   1.995   2.127 -0.4763  0.0934  0.1031
  331SOL    HW1 1322   1.994   2.036   2.047 -0.0186 -1.4266 -0.5277
  331SOL    HW2 1323   2.014   2.031   2.197 -0.9042  1.4754 -0.2464
  331SOL     MW 1324   1.972   2.005   2.126 -0.4723  0.0748 -0.0288
  332SOL     OW 1325   5.252   4.883   2.593 -0.4337 -0.6897 -0.1076
  332SOL    HW1 1326   5.247   4.975   2.616  0.8897 -1.0374  1.7962
  332SOL    HW2 1327   5.250   4.881   2.498  1.4876  1.4619 -0.2597
  332SOL     MW 1328   5.251   4.895   2.584  0.0030 -0.4469  0.1282
  333SOL     OW 1329   1.402   4.792   4.127  0.6154  0.1387 -0.3826
  333SOL    HW1 1330   1.456   4.848   4.183  0.3593 -0.6083  0.6388
  333SOL    HW2 1331   1.437   4.704   4.140 -0.8140 -0.3668  0.3122
  333SOL     MW 1332   1.414   4.788   4.137  0.3885 -0.0298 -0.1516
  334SOL     OW 1333   5.057   2.866   1.097 -0.3722 -0.2973  0.3130
  334SOL    HW1 1334   5.085   2.803   1.163  0.1489 -0.6112 -0.1915
  334SOL    HW2 1335   5.021   2.812   1.026 -0.5076  0.0029  0.1536
  334SOL     MW 1336   5.056   2.850   1.096 -0.3203 -0.2991  0.2237
  335SOL     OW 1337   1.890   5.397   1.159  0.2445 -0.1735  0.0929
  335SOL    HW1 1338   1.797   5.411   1.142  0.6205  0.2176 -1.8400
  335SOL    HW2 1339   1.902   5.424   1.250 -1.6022 -0.6944  0.5344
  335SOL     MW 1340   1.879   5.402   1.169  0.0466 -0.1909 -0.1078
  336SOL     OW 1341   4.338   4.444   4.977 -0.1540  0.1186 -0.3145
  336SOL    HW1 1342   4.271   4.477   4.917  0.5641 -0.1017 -1.2523
  336SOL    HW2 1343   4.405   4.406   4.921  0.9497  0.6508  0.5922
  336SOL     MW 1344   4.338   4.443   4.962  0.0912  0.1606 -0.3187
  337SOL     OW 1345   0.905   3.960   1.582 -0.3144 -0.3076  0.4797
  337SOL    HW1 1346   0.885   3.977   1.490 -2.1500 -2.0801  0.4815
  337SOL    HW2 1347   0.837   4.007   1.630 -2.8241 -3.7484  0.6247
  337SOL     MW 1348   0.893   3.969   1.576 -0.8992 -1.0092  0.4994
  338SOL     OW 1349   0.760   1.204   3.739 -0.0460  0.4211 -0.2142
  338SOL    HW1 1350   0.697   1.137   3.716 -0.7983  1.4248 -1.1489
  338SOL    HW2 1351   0.846   1.163   3.726 -0.4671  0.2273 -2.6681
  338SOL     MW 1352   0.763   1.190   3.734 -0.2039  0.5301 -0.6703
  339SOL     OW 1353   3.312   1.599   4.498  0.0543 -0.2560 -0.1966
  339SOL    HW1 1354   3.241   1.639   4.447  1.4862  0.3847 -1.8173
  339SOL    HW2 1355   3.359   1.674   4.534 -0.4464 -0.6961  1.4192
  339SOL     MW 1356   3.308   1.615   4.496  0.1796 -0.2290 -0.1972
  340SOL     OW 1357   1.387   4.544   4.696 -0.0820  0.3487 -0.2800
  340SOL    HW1 1358   1.416   4.634   4.678 -0.6112  1.1022  2.2158
  340SOL    HW2 1359   1.295   4.553   4.720 -0.1127 -0.8297  0.1278
  340SOL     MW 1360   1.379   4.558   4.697 -0.1573  0.2915  0.1108
  341SOL     OW 1361   3.420   2.860   4.503  0.1767  0.6755 -0.3980
  341SOL    HW1 1362   3.485   2.793   4.526  1.2725  1.7358 -0.2633
  341SOL    HW2 1363   3.342   2.811   4.480  0.7543 -0.6259  0.2845
  341SOL     MW 1364   3.419   2.844   4.503  0.4019  0.6431 -0.2880
  342SOL     OW 1365   3.938   4.658   4.564  0.1077 -0.1286  0.3459
  342SOL    HW1 1366   3.845   4.668   4.582  0.5200 -0.7679  3.4665
  342SOL    HW2 1367   3.954   4.564   4.570  0.9970 -0.0012  0.1539
  342SOL     MW 1368   3.928   4.647   4.567  0.2829 -0.1975  0.7400
  343SOL     OW 1369   3.680   4.061   3.270 -0.3581 -0.5381 -0.1828
  343SOL    HW1 1370   3.717   4.091   3.353  1.2077  0.7142 -1.2639
  343SOL    HW2 1371   3.603   4.117   3.257  0.0325  0.0329 -0.0916
  343SOL     MW 1372   3.674   4.073   3.280 -0.0948 -0.2927 -0.3160
  344SOL     OW 1373   5.321   3.589   0.030 -0.0174 -0.3185 -0.1079
  344SOL    HW1 1374   5.327   3.604   0.124  0.7272  0.3757 -0.2540
  344SOL    HW2 1375   5.397   3.535   0.009  0.4620  0.4757 -0.4754
  344SOL     MW 1376   5.332   3.584   0.040  0.1473 -0.1182 -0.1771
  345SOL     OW 1377   1.299   4.085   3.859  0.1410  0.3752  0.3969
  345SOL    HW1 1378   1.394   4.078   3.866  0.1587  0.1118 -0.0896
  345SOL    HW2 1379   1.282   4.086   3.765 -0.4351 -0.8753  0.4757
  345SOL     MW 1380   1.310   4.084   3.847  0.0658  0.1714  0.3421
  346SOL     OW 1381   3.322   4.431   0.740  0.0899  0.0131 -0.0403
  346SOL    HW1 1382   3.262   4.432   0.814  1.2950 -0.6459  0.9837
  346SOL    HW2 1383   3.380   4.506   0.755 -0.3245  0.5268 -0.9148
  346SOL     MW 1384   3.322   4.441   0.752  0.1963 -0.0065 -0.0202
  347SOL     OW 1385   0.560   4.116   1.099 -0.4637 -0.7338 -0.0985
  347SOL    HW1 1386   0.625   4.046   1.102 -0.7860 -1.1050 -1.2511
  347SOL    HW2 1387   0.554   4.139   1.006 -0.2237  0.9727  0.2621
  347SOL     MW 1388   0.568   4.110   1.087 -0.4748 -0.5541 -0.2051
  348SOL     OW 1389   2.938   0.286   1.342 -0.6972 -0.2654  0.6389
  348SOL    HW1 1390   2.954   0.377   1.318 -1.4629 -0.0916  0.7673
  348SOL    HW2 1391   2.979   0.276   1.428  0.3359 -0.3508  0.1529
  348SOL     MW 1392   2.946   0.297   1.350 -0.6612 -0.2535  0.5908
  349SOL     OW 1393   5.468   2.998   4.391 -0.0272  0.0120 -0.3618
  349SOL    HW1 1394   5.490   3.020   4.301 -0.5100  2.1607 -0.0069
  349SOL    HW2 1395   5.553   2.979   4.432  0.3055  0.1082 -0.9877
  349SOL     MW 1396   5.483   2.998   4.385 -0.0474  0.3141 -0.3983
  350SOL     OW 1397   4.873   0.219   4.072  0.4250  0.1190  0.7614
  350SOL    HW1 1398   4.816   0.275   4.125  1.2616  0.6682  1.1089
  350SOL    HW2 1399   4.925   0.280   4.020 -1.6959 -0.4173 -2.2104
  350SOL     MW 1400   4.872   0.235   4.072  0.2522  0.1208  0.4082
  351SOL     OW 1401   3.438   1.761   5.246 -0.0230 -0.3229  0.3914
  351SOL    HW1 1402   3.429   1.850   5.281 -0.2292  0.6191 -1.8554
  351SOL    HW2 1403   3.348   1.732   5.230  0.0763 -0.5234  0.1836
  351SOL     MW 1404   3.425   1.769   5.248 -0.0373 -0.2231  0.0610
  352SOL     OW 1405   0.599   1.353   0.355  0.2981  0.4928  0.3248
  352SOL    HW1 1406   0.556   1.438   0.362  1.2727  0.9438  1.0613
  352SOL    HW2 1407   0.692   1.373   0.359  0.5362 -0.6293  0.7406
  352SOL     MW 1408   0.605   1.367   0.356  0.4613  0.4025  0.4799
  353SOL     OW 1409   3.693   2.835   1.208 -0.1780 -0.3455 -0.0651
  353SOL    HW1 1410   3.716   2.927   1.193 -1.3937  0.2184  1.3093
  353SOL    HW2 1411   3.716   2.819   1.299 -1.1248 -1.0214  0.0684
  353SOL     MW 1412   3.699   2.846   1.218 -0.4690 -0.3606  0.1379
  354SOL     OW 1413   5.105   3.762   4.629  0.0858 -0.1330 -0.3180
  354SOL    HW1 1414   5.156   3.696   4.675  0.7998  1.3754  1.1646
  354SOL    HW2 1415   5.018   3.759   4.669 -0.1727 -0.7908 -0.9078
  354SOL     MW 1416   5.100   3.753   4.640  0.1471 -0.0186 -0.1979
  355SOL     OW 1417   3.439   4.494   4.386  0.0721 -0.4531  0.0700
  355SOL    HW1 1418   3.475   4.453   4.464 -0.3507 -1.2251 -0.1400
  355SOL    HW2 1419   3.464   4.587   4.395  2.5945 -1.0044 -0.3330
  355SOL     MW 1420   3.447   4.501   4.397  0.3546 -0.6312 -0.0125
  356SOL     OW 1421   1.584   2.183   5.248  0.0524 -0.2085 -0.5570
  356SOL    HW1 1422   1.643   2.116   5.215  2.0873 -0.7832  3.6190
  356SOL    HW2 1423   1.632   2.265   5.235  0.1477 -0.2412 -0.4061
  356SOL     MW 1424   1.598   2.185   5.242  0.3391 -0.2903  0.0253
  357SOL     OW 1425   1.103   2.311   4.537 -0.4157  0.7790 -0.8711
  357SOL    HW1 1426   1.155   2.377   4.583 -0.9473  1.1256 -0.7652
  357SOL    HW2 1427   1.018   2.352   4.524 -0.9752 -0.1343 -0.1962
  357SOL     MW 1428   1.099   2.325   4.542 -0.5626  0.7028 -0.7660
  358SOL     OW 1429   0.735   0.886   0.103 -0.6004  0.0330  0.2070
  358SOL    HW1 1430   0.804   0.946   0.076 -0.4090  0.0336  0.6882
  358SOL    HW2 1431   0.781   0.805   0.124 -0.8747 -0.3499 -0.6227
  358SOL     MW 1432   0.750   0.883   0.103 -0.6116 -0.0184  0.1601
  359SOL     OW 1433   1.385   5.101   4.981  0.2430 -0.5723  0.3681
  359SOL    HW1 1434   1.375   5.195   4.964 -0.0637 -0.7268 -0.3653
  359SOL    HW2 1435   1.458   5.095   5.043 -1.0799  0.2707  2.0857
  359SOL     MW 1436   1.394   5.113   4.987  0.0237 -0.4796  0.5005
  360SOL     OW 1437   3.982   1.071   4.305  0.1264  0.6974  0.1584
  360SOL    HW1 1438   3.960   1.009   4.235  0.3584  0.6124  0.1628
  360SOL    HW2 1439   3.897   1.110   4.328 -0.4631 -1.3253  1.7998
  360SOL     MW 1440   3.967   1.068   4.298  0.0783  0.4138  0.3799
  361SOL     OW 1441   2.778   3.218   5.239  0.2286  0.0073 -0.1304
  361SOL    HW1 1442   2.871   3.222   5.216  0.5231  0.0209  0.9826
  361SOL    HW2 1443   2.737   3.169   5.167  1.0684  0.1342 -0.7038
  361SOL     MW 1444   2.785   3.212   5.226  0.3813  0.0262 -0.0578
  362SOL     OW 1445   3.594   3.726   0.845  0.3575 -0.2595 -0.0986
  362SOL    HW1 1446   3.586   3.807   0.794 -1.8271 -1.2704 -1.5232
  362SOL    HW2 1447   3.650   3.669   0.791 -0.3713 -0.6448 -0.4645
  362SOL     MW 1448   3.600   3.729   0.831 -0.0346 -0.4474 -0.3396
  363SOL     OW 1449   2.071   5.474   3.158  0.5264 -0.5071  0.0521
  363SOL    HW1 1450   2.128   5.521   3.219  0.2576 -0.6054  0.3810
  363SOL    HW2 1451   2.116   5.391   3.142 -0.2033 -1.2168  1.4519
  363SOL     MW 1452   2.085   5.469   3.164  0.3920 -0.6159  0.2847
  364SOL     OW 1453   3.882   2.841   4.566 -0.1399 -0.1241 -0.0026
  364SOL    HW1 1454   3.973   2.855   4.593  0.5336  0.3824 -2.3214
  364SOL    HW2 1455   3.837   2.921   4.595  0.1174 -0.3923  1.1927
  364SOL     MW 1456   3.888   2.854   4.573 -0.0147 -0.0920 -0.1538
  365SOL     OW 1457   2.035   1.651   1.869 -0.1184  0.1638 -0.1877
  365SOL    HW1 1458   1.976   1.686   1.936  0.5521  0.8062  0.0802
  365SOL    HW2 1459   2.096   1.596   1.918 -0.8932 -1.0626 -0.5524
  365SOL     MW 1460   2.035   1.649   1.885 -0.1324  0.0852 -0.2007
  366SOL     OW 1461   4.473   3.740   1.471 -0.1264  0.3391 -0.0644
  366SOL    HW1 1462   4.533   3.813   1.482  0.8373 -0.2551 -1.1276
  366SOL    HW2 1463   4.456   3.708   1.560  2.4482 -0.4939  0.2312
  366SOL     MW 1464   4.479   3.745   1.484  0.3498  0.1470 -0.1677
  367SOL     OW 1465   2.384   2.447   0.789  0.1853 -0.1150 -0.3653
  367SOL    HW1 1466   2.390   2.360   0.827 -2.6478  0.5440  1.9405
  367SOL    HW2 1467   2.364   2.432   0.697  0.2104 -1.8651 -0.1173
  367SOL     MW 1468   2.382   2.433   0.782 -0.1926 -0.2618 -0.0216
  368SOL     OW 1469   2.455   1.568   3.954  0.0368  0.0613  0.3990
  368SOL    HW1 1470   2.417   1.555   3.867 -2.1644  0.4900  1.2451
  368SOL    HW2 1471   2.498   1.484   3.973 -0.1130 -0.3023 -0.7627
  368SOL     MW 1472   2.456   1.555   3.944 -0.2796  0.0700  0.3565
  369SOL     OW 1473   4.204   1.915   2.461  0.0302 -0.7646 -1.0895
  369SOL    HW1 1474   4.128   1.899   2.517 -0.4421  1.2211 -1.0978
  369SOL    HW2 1475   4.199   1.847   2.394  0.6920 -3.3513  1.2443
  369SOL     MW 1476   4.194   1.903   2.460  0.0557 -0.8455 -0.7765
  370SOL     OW 1477   0.023   5.402   1.144 -0.6553  0.2269  0.0249
  370SOL    HW1 1478   0.115   5.428   1.135 -0.4066 -0.2305  1.0516
  370SOL    HW2 1479   0.026   5.307   1.152 -1.1215  0.2970  1.1388
  370SOL     MW 1480   0.036   5.393   1.144 -0.6846  0.1747  0.3130
  371SOL     OW 1481   4.900   1.709   5.475  0.1438  0.0891 -0.6100
  371SOL    HW1 1482   4.833   1.662   5.426 -0.5181  0.9230 -0.5292
  371SOL    HW2 1483   4.949   1.758   5.409  0.8125 -0.6751 -0.6906
  371SOL     MW 1484   4.898   1.709   5.460  0.1447  0.0985 -0.6100
  372SOL     OW 1485   2.265   4.940   4.812  0.4541 -0.0808  0.0314
  372SOL    HW1 1486   2.318   4.948   4.733 -0.2016  0.6884 -0.3555
  372SOL    HW2 1487   2.282   5.022   4.860  1.1629 -0.7182  0.9025
  372SOL     MW 1488   2.274   4.952   4.808  0.4612 -0.0630  0.0965
  373SOL     OW 1489   3.769   3.637   4.075 -0.1937 -0.3471 -0.7186
  373SOL    HW1 1490   3.856   3.651   4.039 -0.6251  1.2500 -1.2183
  373SOL    HW2 1491   3.780   3.648   4.169 -0.1026  1.5280 -0.9038
  373SOL     MW 1492   3.782   3.641   4.083 -0.2395  0.1202 -0.8108
  374SOL     OW 1493   4.850   0.375   3.709 -0.1104  0.4487 -0.1005
  374SOL    HW1 1494   4.764   0.362   3.749 -0.5023 -0.8745 -1.2662
  374SOL    HW2 1495   4.870   0.291   3.669  0.4330  1.5498 -2.2905
  374SOL     MW 1496   4.841   0.362   3.709 -0.0900  0.4188 -0.5521
  375SOL     OW 1497   0.632   1.352   1.551 -0.4184 -0.0210  0.1386
  375SOL    HW1 1498   0.627   1.388   1.639 -1.2226  0.4970 -0.1122
  375SOL    HW2 1499   0.701   1.403   1.508  1.0852 -1.2963  0.9087
  375SOL     MW 1500   0.641   1.364   1.557 -0.3243 -0.1229  0.2085
  376SOL     OW 1501   5.264   3.610   4.137  0.2308 -0.4243 -0.2930
  376SOL    HW1 1502   5.350   3.635   4.172  0.0248 -0.2001  0.0531
  376SOL    HW2 1503   5.236   3.686   4.087  0.2684 -0.5293 -0.4750
  376SOL     MW 1504   5.272   3.623   4.135  0.2081 -0.4082 -0.2709
  377SOL     OW 1505   3.989   3.491   1.702  0.5718 -0.2227 -0.3893
  377SOL    HW1 1506   4.053   3.562   1.691  0.6828  0.1398  2.1867
  377SOL    HW2 1507   3.904   3.534   1.696  0.6329  0.0446  0.6328
  377SOL     MW 1508   3.986   3.506   1.699  0.5950 -0.1379  0.0950
  378SOL     OW 1509   2.500   0.280   4.318  0.2892 -0.5277 -0.2646
  378SOL    HW1 1510   2.459   0.312   4.237  0.1134 -1.4488 -0.5568
  378SOL    HW2 1511   2.526   0.190   4.297 -2.0168 -1.7048  1.4670
  378SOL     MW 1512   2.498   0.272   4.304 -0.0448 -0.8101 -0.0709
  379SOL     OW 1513   2.431   3.071   4.859  0.2397  0.0294  0.4833
  379SOL    HW1 1514   2.354   3.021   4.886 -0.1464  1.0134  1.2581
  379SOL    HW2 1515   2.398   3.159   4.844  1.1610  0.3851  0.5079
  379SOL     MW 1516   2.416   3.076   4.860  0.3117  0.2097  0.5908
  380SOL     OW 1517   3.650   1.993   1.049  0.3655 -0.1760  0.1604
  380SOL    HW1 1518   3.728   2.049   1.049  0.6061 -0.5057  0.3549
  380SOL    HW2 1519   3.662   1.936   0.973 -0.5981  1.0103 -0.9141
  380SOL     MW 1520   3.662   1.993   1.039  0.2682 -0.0607  0.0420
  381SOL     OW 1521   3.390   2.957   3.496  0.2760 -0.0325  0.1014
  381SOL    HW1 1522   3.370   2.881   3.442 -0.3295 -0.2921  0.6763
  381SOL    HW2 1523   3.485   2.968   3.487  0.6113 -1.6977  1.0474
  381SOL     MW 1524   3.400   2.948   3.488  0.2397 -0.2916  0.3061
  382SOL     OW 1525   0.573   2.306   5.405 -0.0104  0.0965  0.3664
  382SOL    HW1 1526   0.486   2.268   5.415 -0.8502  1.5765 -1.0286
  382SOL    HW2 1527   0.600   2.283   5.316 -0.0692  1.7535 -0.1094
  382SOL     MW 1528   0.565   2.298   5.395 -0.1313  0.5187  0.1147
  383SOL     OW 1529   4.174   3.386   3.996  0.8748 -0.6695 -0.7103
  383SOL    HW1 1530   4.253   3.403   4.048  0.2632  0.7661 -0.2119
  383SOL    HW2 1531   4.150   3.296   4.018  0.2942  0.0585  2.0444
  383SOL     MW 1532   4.181   3.376   4.006  0.7143 -0.3783 -0.2725
  384SOL     OW 1533   3.918   0.434   1.797 -0.7985 -0.0444 -0.1380
  384SOL    HW1 1534   3.875   0.386   1.867  0.4398 -0.4659  0.3555
  384SOL    HW2 1535   3.900   0.383   1.718 -1.2219 -0.1873  0.0459
  384SOL     MW 1536   3.910   0.421   1.796 -0.6888 -0.1204 -0.0468
  385SOL     OW 1537   1.723   5.351   1.854 -0.5740  0.0936 -0.5033
  385SOL    HW1 1538   1.755   5.441   1.846 -1.9101  0.5310 -1.0959
  385SOL    HW2 1539   1.680   5.348   1.939 -1.6395  0.3809 -1.0263
  385SOL     MW 1540   1.722   5.363   1.864 -0.8972  0.1912 -0.6534
  386SOL     OW 1541   0.051   5.160   3.796  0.0508 -0.2097 -0.6904
  386SOL    HW1 1542   0.010   5.246   3.784  0.0353 -0.4380 -2.6865
  386SOL    HW2 1543   0.119   5.175   3.861 -2.3248  0.4468  1.8658
  386SOL     MW 1544   0.054   5.174   3.803 -0.2710 -0.1521 -0.6150
  387SOL     OW 1545   2.396   3.944   1.805 -0.5557  0.0314 -0.3520
  387SOL    HW1 1546   2.343   3.994   1.743 -1.0630 -1.9517 -1.6238
  387SOL    HW2 1547   2.334   3.913   1.871 -0.8108 -1.3082 -1.1900
  387SOL     MW 1548   2.381   3.947   1.805 -0.6583 -0.4158 -0.6360
  388SOL     OW 1549   4.948   1.169   2.177 -0.1478 -0.1542  0.2877
  388SOL    HW1 1550   5.009   1.241   2.195 -1.2280  1.1060 -0.9218
  388SOL    HW2 1551   4.884   1.173   2.247  0.0366 -0.2335  0.4636
  388SOL     MW 1552   4.948   1.179   2.189 -0.2683  0.0048  0.1486
  389SOL     OW 1553   4.411   4.973   0.141  0.1422  0.3646 -0.7352
  389SOL    HW1 1554   4.410   4.887   0.099 -1.1656  0.8125 -1.6885
  389SOL    HW2 1555   4.372   5.032   0.076 -1.0821  1.2769  0.7550
  389SOL     MW 1556   4.406   4.969   0.126 -0.1986  0.5476 -0.6629
  390SOL     OW 1557   5.248   5.152   1.953  0.5718 -0.0928 -0.0462
  390SOL    HW1 1558   5.217   5.242   1.952 -0.2951 -0.3854 -0.4954
  390SOL    HW2 1559   5.190   5.105   1.893  1.0500 -0.9383  0.1250
  390SOL     MW 1560   5.236   5.158   1.945  0.5195 -0.2460 -0.0836
  391SOL     OW 1561   0.572   0.813   4.169  0.1236 -0.3550  0.3270
  391SOL    HW1 1562   0.656   0.858   4.183 -0.7174  0.6937  2.4798
  391SOL    HW2 1563   0.536   0.854   4.090  1.2432 -0.2279 -0.1424
  391SOL     MW 1564   0.578   0.825   4.160  0.1611 -0.1968  0.5535
  392SOL     OW 1565   4.906   4.341   0.165 -0.1256  0.3232 -0.3385
  392SOL    HW1 1566   4.837   4.379   0.111 -1.4603 -1.3927  0.0777
  392SOL    HW2 1567   4.892   4.378   0.252  0.3658  1.0313 -0.5496
  392SOL     MW 1568   4.895   4.351   0.169 -0.2391  0.1876 -0.3109
  393SOL     OW 1569   2.590   2.218   2.022  0.0790 -0.0907  0.1791
  393SOL    HW1 1570   2.653   2.156   2.057  0.3547  0.6881  1.0993
  393SOL    HW2 1571   2.533   2.239   2.096 -1.2718 -0.7889 -0.6405
  393SOL     MW 1572   2.591   2.213   2.037 -0.0657 -0.0798  0.1927
  394SOL     OW 1573   4.784   1.536   5.096  0.3264 -0.1265 -0.4046
  394SOL    HW1 1574   4.730   1.607   5.059 -0.6852 -1.0436 -0.7484
  394SOL    HW2 1575   4.870   1.548   5.056  0.3875  1.3332  0.0951
  394SOL     MW 1576   4.788   1.547   5.086  0.1985 -0.0534 -0.3836
  395SOL     OW 1577   2.135   4.235   2.951 -0.4875 -0.7520 -0.0279
  395SOL    HW1 1578   2.169   4.304   2.896 -0.2044 -0.5930  0.3438
  395SOL    HW2 1579   2.042   4.230   2.929 -0.6927  0.3157  0.5371
  395SOL     MW 1580   2.127   4.243   2.941 -0.4770 -0.5869  0.0982
  396SOL     OW 1581   4.750   5.296   4.650  0.0177  0.3238  0.4389
  396SOL    HW1 1582   4.784   5.237   4.582  3.0312  0.8238  1.3709
  396SOL    HW2 1583   4.709   5.237   4.714  2.0781 -0.7456  0.8659
  396SOL     MW 1584   4.749   5.280   4.649  0.7005  0.2472  0.6218
  397SOL     OW 1585   3.067   3.271   4.530  0.7719 -0.0227 -0.0166
  397SOL    HW1 1586   3.074   3.357   4.488 -0.6467 -0.2314 -0.7145
  397SOL    HW2 1587   3.061   3.209   4.458  0.6309 -0.6120  0.4950
  397SOL     MW 1588   3.067   3.274   4.515  0.5620 -0.1301 -0.0417
  398SOL     OW 1589   5.183   3.489   4.392 -0.6664  0.2765 -0.2303
  398SOL    HW1 1590   5.211   3.499   4.301 -0.0177  0.9058  0.0398
  398SOL    HW2 1591   5.108   3.548   4.400 -1.7289 -0.9261 -0.7672
  398SOL     MW 1592   5.176   3.498   4.381 -0.7221  0.1993 -0.2662
  399SOL     OW 1593   5.218   1.846   2.176  0.1534 -0.1061  0.0072
  399SOL    HW1 1594   5.299   1.835   2.225  0.8882  1.4460 -0.8049
  399SOL    HW2 1595   5.232   1.923   2.121 -1.6558 -0.1461 -0.6036
  399SOL     MW 1596   5.231   1.855   2.175  0.0088  0.0974 -0.1843
  400SOL     OW 1597   0.886   3.221   3.311  0.2396 -0.9221  0.4458
  400SOL    HW1 1598   0.825   3.147   3.312 -0.0583 -0.7064 -0.4496
  400SOL    HW2 1599   0.921   3.225   3.399 -0.1107 -1.8307  0.6333
  400SOL     MW 1600   0.882   3.211   3.323  0.1523 -1.0154  0.3505
  401SOL     OW 1601   2.894   3.914   4.925  0.1229 -0.4358 -0.4151
  401SOL    HW1 1602   2.930   3.981   4.866 -3.4974  2.0682 -0.0895
  401SOL    HW2 1603   2.839   3.860   4.869  2.0722 -2.5695 -0.4321
  401SOL     MW 1604   2.891   3.916   4.909 -0.1020 -0.3860 -0.3735
  402SOL     OW 1605   1.352   2.456   4.996 -0.6471  0.3641 -0.2307
  402SOL    HW1 1606   1.345   2.361   4.991 -0.7922  0.4232 -1.3040
  402SOL    HW2 1607   1.301   2.479   5.074 -0.8568 -0.4071 -0.1284
  402SOL     MW 1608   1.344   2.446   5.006 -0.6948  0.2683 -0.3614
  403SOL     OW 1609   2.101   2.434   4.622 -0.3935  0.7488 -0.1401
  403SOL    HW1 1610   2.172   2.490   4.592 -0.7138  2.7716  2.5235
  403SOL    HW2 1611   2.133   2.395   4.704 -1.5137 -0.1206 -0.0768
  403SOL     MW 1612   2.115   2.436   4.629 -0.5874  0.9040  0.2269
  404SOL     OW 1613   1.806   3.859   0.390  0.4895  0.2326 -0.2157
  404SOL    HW1 1614   1.765   3.856   0.303  0.5719 -0.6978 -0.2331
  404SOL    HW2 1615   1.859   3.779   0.394  0.9189  0.5464  0.4814
  404SOL     MW 1616   1.808   3.848   0.379  0.5584  0.1496 -0.1242
  405SOL     OW 1617   1.532   3.726   1.026 -0.5064  0.1255  0.5264
  405SOL    HW1 1618   1.517   3.654   0.965 -0.8084 -0.1958  0.9700
  405SOL    HW2 1619   1.507   3.804   0.977  0.6036  0.0149 -0.2349
  405SOL     MW 1620   1.526   3.727   1.011 -0.3976  0.0674  0.4837
  406SOL     OW 1621   1.874   2.965   2.952 -0.2293  0.3863  0.0141
  406SOL    HW1 1622   1.914   2.944   3.036 -0.2119  0.4777  0.0287
  406SOL    HW2 1623   1.820   2.889   2.931 -1.1359  0.8356  0.6463
  406SOL     MW 1624   1.872   2.952   2.960 -0.3490  0.4591  0.1012
  407SOL     OW 1625   0.887   4.012   4.834 -0.6446 -0.2604  0.6964
  407SOL    HW1 1626   0.855   3.937   4.783 -0.8485 -0.0672  0.5419
  407SOL    HW2 1627   0.811   4.068   4.846 -0.1938  0.6311 -0.4179
  407SOL     MW 1628   0.873   4.009   4.829 -0.6114 -0.1144  0.5257
  408SOL     OW 1629   0.583   0.839   5.387  0.4615 -0.3603 -0.2969
  408SOL    HW1 1630   0.500   0.812   5.426  0.0166  0.0970 -0.9068
  408SOL    HW2 1631   0.642   0.850   5.461 -0.3528  0.4259  0.2539
  408SOL     MW 1632   0.580   0.837   5.402  0.2921 -0.1929 -0.3049
  409SOL     OW 1633   2.963   0.174   5.421  0.0053 -0.0649 -0.5628
  409SOL    HW1 1634   2.877   0.210   5.401 -1.2676 -2.6541 -0.2501
  409SOL    HW2 1635   3.001   0.154   5.335  0.9297  2.2195 -0.7648
  409SOL     MW 1636   2.957   0.176   5.407 -0.0416 -0.1059 -0.5479
  410SOL     OW 1637   4.372   5.149   1.888 -0.2160 -0.2204  0.3760
  410SOL    HW1 1638   4.326   5.215   1.941 -0.8548  0.9980 -1.6029
  410SOL    HW2 1639   4.465   5.165   1.906 -0.3934  0.6565  0.5861
  410SOL     MW 1640   4.378   5.160   1.898 -0.3259  0.0616  0.1380
  411SOL     OW 1641   1.217   1.106   2.428 -0.1413 -0.1854 -0.1152
  411SOL    HW1 1642   1.249   1.178   2.482 -0.7755  0.9628 -1.2048
  411SOL    HW2 1643   1.261   1.029   2.462  1.3263  0.8629  0.4594
  411SOL     MW 1644   1.227   1.105   2.440 -0.0292  0.1102 -0.1845
  412SOL     OW 1645   5.190   3.363   0.789  0.1047  0.2455 -0.0876
  412SOL    HW1 1646   5.233   3.376   0.874 -0.9918 -0.4860  0.5939
  412SOL    HW2 1647   5.151   3.447   0.768 -0.5052  0.1508  0.6459
  412SOL     MW 1648   5.191   3.376   0.798 -0.1250  0.1343  0.1029
  413SOL     OW 1649   0.644   1.298   3.277  0.0671 -0.0195  0.0622
  413SOL    HW1 1650   0.643   1.317   3.371 -0.5672 -0.1709  0.0909
  413SOL    HW2 1651   0.583   1.224   3.267  1.0447 -0.8020 -0.3006
  413SOL     MW 1652   0.636   1.290   3.289  0.1133 -0.1452  0.0173
  414SOL     OW 1653   2.917   5.231   3.744 -0.0038  0.3448  0.5120
  414SOL    HW1 1654   2.905   5.216   3.838  0.1387  0.5670  0.5669
  414SOL    HW2 1655   3.008   5.262   3.736  0.2706 -0.5094  0.2047
  414SOL     MW 1656   2.928   5.233   3.755  0.0523  0.2598  0.4780
  415SOL     OW 1657   0.425   1.133   4.523 -0.2883 -0.1416 -0.3231
  415SOL    HW1 1658   0.404   1.141   4.430 -0.2386  0.8642 -0.2583
  415SOL    HW2 1659   0.353   1.178   4.567  0.2044  0.2749  0.0660
  415SOL     MW 1660   0.412   1.140   4.516 -0.2153  0.0498 -0.2620
  416SOL     OW 1661   1.138   4.998   3.867 -0.0069  0.2032 -0.6947
  416SOL    HW1 1662   1.132   4.911   3.827  0.3064  0.4079 -1.2099
  416SOL    HW2 1663   1.119   5.058   3.794  2.8170  0.6806 -1.1536
  416SOL     MW 1664   1.135   4.994   3.852  0.4153  0.2950 -0.8258
  417SOL     OW 1665   0.489   3.388   1.432  0.1558 -0.0250  0.1183
  417SOL    HW1 1666   0.484   3.484   1.431  0.6105  0.0038 -1.5704
  417SOL    HW2 1667   0.520   3.367   1.520  1.5856  1.4741  0.0215
  417SOL     MW 1668   0.492   3.398   1.444  0.4094  0.1807 -0.1220
  418SOL     OW 1669   4.712   4.271   0.620 -0.5511  0.4055  0.4347
  418SOL    HW1 1670   4.715   4.337   0.689 -1.7641  1.4336 -0.4425
  418SOL    HW2 1671   4.629   4.287   0.575 -0.0490 -0.5883 -0.9114
  418SOL     MW 1672   4.702   4.282   0.623 -0.6467  0.4101  0.1355
  419SOL     OW 1673   1.685   3.011   2.091 -0.7527  0.4069 -0.2445
  419SOL    HW1 1674   1.645   3.035   2.007 -1.6924  0.1587  0.1204
  419SOL    HW2 1675   1.769   2.974   2.067 -0.5384  1.3371 -1.0095
  419SOL     MW 1676   1.691   3.009   2.076 -0.8503  0.4987 -0.2983
  420SOL     OW 1677   1.809   2.170   4.300  0.0217 -0.4005 -0.3623
  420SOL    HW1 1678   1.863   2.250   4.304  0.0104 -0.4543  1.3156
  420SOL    HW2 1679   1.725   2.200   4.265  0.6482 -0.0651 -1.6625
  420SOL     MW 1680   1.805   2.185   4.296  0.1045 -0.3626 -0.3115
  421SOL     OW 1681   2.371   0.049   3.698 -0.8940  0.1350 -0.1021
  421SOL    HW1 1682   2.338  -0.017   3.637 -0.1449 -0.2848 -0.0695
  421SOL    HW2 1683   2.457   0.016   3.725  0.2127  1.8852 -1.2874
  421SOL     MW 1684   2.378   0.035   3.693 -0.6443  0.3141 -0.2572
  422SOL     OW 1685   0.570   2.569   4.755 -0.1920 -0.2464  0.1528
  422SOL    HW1 1686   0.575   2.481   4.718  1.3974 -0.4826  0.8531
  422SOL    HW2 1687   0.620   2.623   4.693  1.2797 -0.3885  1.1686
  422SOL     MW 1688   0.578   2.565   4.741  0.2200 -0.2973  0.3838
  423SOL     OW 1689   4.037   3.363   0.118  0.3658  0.2448 -0.1264
  423SOL    HW1 1690   3.994   3.445   0.142 -0.9948 -0.0519 -1.3884
  423SOL    HW2 1691   4.024   3.357   0.023 -2.2462 -2.8686  0.2727
  423SOL     MW 1692   4.030   3.373   0.108 -0.1688 -0.2141 -0.2425
  424SOL     OW 1693   5.324   3.113   2.849  0.4757 -0.1602  0.5819
  424SOL    HW1 1694   5.258   3.045   2.833  0.7809 -0.2215 -0.4481
  424SOL    HW2 1695   5.396   3.066   2.893  0.3567 -0.3486  0.5771
  424SOL     MW 1696   5.325   3.097   2.853  0.5008 -0.1938  0.4426
  425SOL     OW 1697   4.261   4.399   3.343 -0.4100  0.4106 -0.2188
  425SOL    HW1 1698   4.222   4.465   3.285  1.4197  1.5500 -0.2462
  425SOL    HW2 1699   4.303   4.450   3.412 -1.0242 -0.8715  1.1423
  425SOL     MW 1700   4.262   4.415   3.344 -0.2465  0.3914 -0.0393
  426SOL     OW 1701   0.043   0.750   3.475 -0.0492 -0.1012  0.8230
  426SOL    HW1 1702   0.026   0.708   3.560 -0.0487  0.6121  1.1820
  426SOL    HW2 1703   0.070   0.839   3.497 -0.6812  0.2961  0.0524
  426SOL     MW 1704   0.044   0.756   3.489 -0.1342  0.0482  0.7676
  427SOL     OW 1705   1.593   4.503   4.888  0.5282  0.0340  0.2119
  427SOL    HW1 1706   1.651   4.578   4.873  2.2884 -1.2201  0.4372
  427SOL    HW2 1707   1.544   4.494   4.806  1.5539  0.3918 -0.4641
  427SOL     MW 1708   1.594   4.512   4.875  0.9031 -0.0866  0.1512
  428SOL     OW 1709   5.467   0.788   0.105  0.1712 -0.3122  0.2194
  428SOL    HW1 1710   5.373   0.806   0.115  0.7913  2.8959  1.2760
  428SOL    HW2 1711   5.490   0.738   0.183 -0.0664  1.9550  1.8411
  428SOL     MW 1712   5.457   0.784   0.117  0.2227  0.4247  0.5799
  429SOL     OW 1713   2.362   0.865   3.239 -0.0544 -0.0082  0.1584
  429SOL    HW1 1714   2.354   0.921   3.162  0.0888 -0.3845 -0.1285
  429SOL    HW2 1715   2.272   0.848   3.266 -0.1180  1.6170  1.1711
  429SOL     MW 1716   2.349   0.870   3.233 -0.0437  0.1598  0.2561
  430SOL     OW 1717   5.509   1.110   4.586 -0.0735 -0.6511  0.3676
  430SOL    HW1 1718   5.541   1.086   4.499  0.8506  0.7062  0.3076
  430SOL    HW2 1719   5.429   1.160   4.569  1.9897  2.8465 -0.0375
  430SOL     MW 1720   5.503   1.113   4.572  0.3286  0.0023  0.3050
  431SOL     OW 1721   3.580   2.721   3.304  0.1265 -0.0788  0.1563
  431SOL    HW1 1722   3.595   2.678   3.219  1.8102 -0.1187  0.4439
  431SOL    HW2 1723   3.485   2.735   3.307 -0.2283 -1.9213 -0.8348
  431SOL     MW 1724   3.569   2.717   3.293  0.3054 -0.3321  0.0616
  432SOL     OW 1725   1.096   4.555   4.763  0.2752  0.1877 -0.0753
  432SOL    HW1 1726   1.093   4.623   4.830 -2.2441  0.1440 -0.0455
  432SOL    HW2 1727   1.071   4.599   4.682  1.2981 -0.1783 -0.6034
  432SOL     MW 1728   1.092   4.570   4.761  0.0738  0.1326 -0.1424
  433SOL     OW 1729   2.342   2.783   1.118 -0.1950 -0.3113 -0.9475
  433SOL    HW1 1730   2.247   2.781   1.126 -0.1378 -0.3209 -0.2410
  433SOL    HW2 1731   2.375   2.768   1.207  0.4727 -0.9972 -1.2945
  433SOL     MW 1732   2.334   2.781   1.131 -0.0974 -0.4049 -0.8991
  434SOL     OW 1733   2.727   4.386   2.849 -0.1211 -0.0639 -0.4700
  434SOL    HW1 1734   2.700   4.299   2.817 -0.8824 -0.0726  0.1609
  434SOL    HW2 1735   2.646   4.437   2.849 -0.3960 -0.3627  2.4164
  434SOL     MW 1736   2.712   4.381   2.845 -0.2605 -0.1053  0.0034
  435SOL     OW 1737   2.825   4.526   1.094  0.3793  0.3884 -0.2404
  435SOL    HW1 1738   2.779   4.447   1.067 -1.0251  1.4047 -0.8967
  435SOL    HW2 1739   2.856   4.565   1.013  1.8393  0.0905  0.1395
  435SOL     MW 1740   2.823   4.521   1.080  0.3868  0.4851 -0.2776
  436SOL     OW 1741   3.907   2.103   2.692 -0.4216  0.2708 -0.4402
  436SOL    HW1 1742   3.829   2.057   2.723  0.7880 -0.8223  1.1194
  436SOL    HW2 1743   3.884   2.196   2.700 -1.1566 -0.0068  1.1894
  436SOL     MW 1744   3.893   2.110   2.697 -0.3578  0.0863 -0.0110
  437SOL     OW 1745   0.662   5.213   1.185 -0.3426  0.1415  0.0522
  437SOL    HW1 1746   0.673   5.185   1.276 -1.7198  0.4253  0.3271
  437SOL    HW2 1747   0.644   5.132   1.138  0.9299 -0.0831 -0.0908
  437SOL     MW 1748   0.661   5.198   1.191 -0.3567  0.1495  0.0700
  438SOL     OW 1749   0.960   0.194   1.011  0.3642  0.4608  0.0446
  438SOL    HW1 1750   0.970   0.115   0.958 -1.5928  0.5255 -0.4846
  438SOL    HW2 1751   0.952   0.265   0.948 -0.9199  0.6748  0.4173
  438SOL     MW 1752   0.960   0.193   0.995 -0.0720  0.4983  0.0236
  439SOL     OW 1753   0.257   4.711   1.380 -0.7174 -0.8300  0.1887
  439SOL    HW1 1754   0.232   4.803   1.391  0.7919 -0.1287 -1.7631
  439SOL    HW2 1755   0.321   4.695   1.450 -1.1217 -0.4822  0.6489
  439SOL     MW 1756   0.262   4.721   1.391 -0.5687 -0.6888 -0.0121
  440SOL     OW 1757   5.442   2.467   0.448  0.9236  0.5699  0.6231
  440SOL    HW1 1758   5.495   2.546   0.440  1.0213  0.4646  0.2267
  440SOL    HW2 1759   5.475   2.409   0.380 -0.9746  1.2316 -0.9198
  440SOL     MW 1760   5.454   2.470   0.438  0.6813  0.6448  0.3621
  441SOL     OW 1761   1.334   3.848   0.427 -0.2060 -0.2021  0.7681
  441SOL    HW1 1762   1.300   3.826   0.340 -1.1625  0.2818  1.0145
  441SOL    HW2 1763   1.256   3.858   0.482  0.3682  0.0738  1.5493
  441SOL     MW 1764   1.319   3.846   0.423 -0.2575 -0.0999  0.9064
  442SOL     OW 1765   4.300   1.307   2.501 -0.3675  0.4431  0.1673
  442SOL    HW1 1766   4.230   1.369   2.519  1.2132  2.6352 -0.6990
  442SOL    HW2 1767   4.345   1.344   2.425  0.0053 -2.4141 -1.1488
  442SOL     MW 1768   4.297   1.321   2.493 -0.1046  0.3536 -0.1264
  443SOL     OW 1769   0.926   2.504   5.298  0.1363 -0.0273  0.4153
  443SOL    HW1 1770   0.877   2.587   5.300 -1.5643 -1.0000  0.5514
  443SOL    HW2 1771   0.958   2.493   5.388  0.0415  0.2832  0.4891
  443SOL     MW 1772   0.924   2.514   5.310 -0.1053 -0.1164  0.4435
  444SOL     OW 1773   5.174   0.390   3.111  0.0725  0.2048  0.1916
  444SOL    HW1 1774   5.189   0.454   3.041  0.5199  0.2789  0.3503
  444SOL    HW2 1775   5.112   0.433   3.170  0.9328  0.7964  0.6829
  444SOL     MW 1776   5.168   0.404   3.110  0.2485  0.2944  0.2791
  445SOL     OW 1777   2.677   2.877   3.107 -0.0192 -0.7307 -0.3126
  445SOL    HW1 1778   2.653   2.962   3.146  0.1996  0.0750 -1.8553
  445SOL    HW2 1779   2.644   2.812   3.169  0.0036  0.4859  1.0205
  445SOL     MW 1780   2.669   2.880   3.121  0.0133 -0.4585 -0.3408
  446SOL     OW 1781   4.063   1.393   3.264  0.1245  0.0315  0.1366
  446SOL    HW1 1782   3.973   1.421   3.252  0.2718  0.2252 -0.5654
  446SOL    HW2 1783   4.102   1.397   3.176  0.3010 -1.8421  0.0919
  446SOL     MW 1784   4.056   1.397   3.251  0.1681 -0.1946  0.0361
  447SOL     OW 1785   3.203   1.690   1.020  0.2990 -0.1859 -0.0119
  447SOL    HW1 1786   3.296   1.673   1.007  0.5646  0.4503  0.9593
  447SOL    HW2 1787   3.189   1.778   0.985  0.4466  0.4268  1.4083
  447SOL     MW 1788   3.213   1.700   1.013  0.3546 -0.0178  0.3099
  448SOL     OW 1789   1.075   5.023   4.728  0.4477 -0.5435  0.0454
  448SOL    HW1 1790   1.158   5.057   4.695 -0.6052 -0.4995 -2.8400
  448SOL    HW2 1791   1.025   5.100   4.753  0.9968 -0.5340  1.1756
  448SOL     MW 1792   1.079   5.038   4.727  0.3799 -0.5363 -0.1908
  449SOL     OW 1793   0.273   4.953   0.564 -0.0209 -0.8943 -0.3257
  449SOL    HW1 1794   0.203   5.018   0.567 -0.2341 -1.1358 -0.0089
  449SOL    HW2 1795   0.227   4.869   0.559  0.2560 -0.9861 -1.4986
  449SOL     MW 1796   0.257   4.950   0.564 -0.0123 -0.9391 -0.4409
  450SOL     OW 1797   0.822   1.576   3.784  0.2884  0.3388  0.4009
  450SOL    HW1 1798   0.861   1.494   3.754 -0.6337  0.1755 -0.4165
  450SOL    HW2 1799   0.748   1.548   3.839 -0.4176  0.5951 -0.3940
  450SOL     MW 1800   0.817   1.561   3.787  0.0693  0.3513  0.1839
  451SOL     OW 1801   2.645   3.822   1.198  0.4077 -0.0713 -0.2924
  451SOL    HW1 1802   2.704   3.836   1.124  0.7946  0.7870  0.1634
  451SOL    HW2 1803   2.695   3.771   1.261  0.9007  1.1631  0.3500
  451SOL     MW 1804   2.659   3.817   1.196  0.5261  0.2103 -0.1446
  452SOL     OW 1805   4.078   0.146   2.077 -0.3787  0.3626  0.4813
  452SOL    HW1 1806   4.166   0.113   2.060  0.3248  2.7905 -1.2080
  452SOL    HW2 1807   4.085   0.191   2.162  0.1683  0.9826  0.1144
  452SOL     MW 1808   4.091   0.148   2.086 -0.2104  0.7728  0.2046
  453SOL     OW 1809   0.763   3.078   3.776  0.0510  0.1744 -0.1953
  453SOL    HW1 1810   0.846   3.030   3.776  0.7894  1.4077 -0.2656
  453SOL    HW2 1811   0.745   3.095   3.869  0.0695  0.2217 -0.2003
  453SOL     MW 1812   0.772   3.074   3.789  0.1529  0.3467 -0.2055
  454SOL     OW 1813   4.154   1.039   1.371 -0.3434 -0.3100 -0.3200
  454SOL    HW1 1814   4.213   1.076   1.305 -1.0497 -0.3418 -0.9809
  454SOL    HW2 1815   4.091   1.109   1.389 -1.9069 -1.2422 -1.8422
  454SOL     MW 1816   4.153   1.054   1.364 -0.6489 -0.4398 -0.6138
  455SOL     OW 1817   5.059   2.588   2.663  0.3299  0.0735  0.0398
  455SOL    HW1 1818   5.102   2.604   2.747 -2.1965  1.8658  1.1522
  455SOL    HW2 1819   5.121   2.620   2.597  1.2255  1.3907  1.4359
  455SOL     MW 1820   5.073   2.595   2.666  0.1104  0.4920  0.3774
  456SOL     OW 1821   3.072   4.793   1.550  0.8410 -0.8953  0.0435
  456SOL    HW1 1822   2.996   4.743   1.518 -0.9300  1.8533 -0.4238
  456SOL    HW2 1823   3.110   4.738   1.618 -0.7696 -2.9684 -0.6163
  456SOL     MW 1824   3.067   4.779   1.555  0.3859 -0.8044 -0.1082
  457SOL     OW 1825   0.176   4.304   2.783  0.0909  0.2414 -0.6082
  457SOL    HW1 1826   0.136   4.293   2.870  0.1502 -0.1928 -0.6307
  457SOL    HW2 1827   0.138   4.384   2.749  1.2800  1.3256  0.4903
  457SOL     MW 1828   0.166   4.313   2.790  0.2589  0.3289 -0.4634
  458SOL     OW 1829   2.167   3.040   1.766 -0.3139  0.1757 -0.5273
  458SOL    HW1 1830   2.138   2.959   1.724  0.7020 -0.0925 -0.7275
  458SOL    HW2 1831   2.133   3.109   1.709 -1.7522 -0.0629  0.0013
  458SOL     MW 1832   2.158   3.039   1.752 -0.3707  0.1075 -0.4831
  459SOL     OW 1833   1.011   1.212   0.782  0.4291  0.3539 -0.0792
  459SOL    HW1 1834   1.030   1.253   0.697  0.8513 -0.7871 -0.5574
  459SOL    HW2 1835   1.072   1.138   0.787 -0.8725 -0.7308  0.3668
  459SOL     MW 1836   1.022   1.208   0.771  0.3108  0.0543 -0.0835
  460SOL     OW 1837   3.298   3.601   1.341 -0.9383 -0.5269  0.6009
  460SOL    HW1 1838   3.380   3.645   1.319 -0.9602 -1.5803 -1.9992
  460SOL    HW2 1839   3.297   3.597   1.436  2.2932 -0.9556  0.7104
  460SOL     MW 1840   3.309   3.606   1.351 -0.5064 -0.7264  0.2658
  461SOL     OW 1841   0.776   3.088   2.801  0.3088  0.2234  0.9499
  461SOL    HW1 1842   0.852   3.115   2.853 -0.1273  1.2084  1.1001
  461SOL    HW2 1843   0.810   3.072   2.713  0.8249 -0.1620  1.2146
  461SOL     MW 1844   0.791   3.089   2.796  0.3196  0.3041  1.0057
  462SOL     OW 1845   2.800   1.341   0.149 -0.1147  0.2742 -0.3269
  462SOL    HW1 1846   2.759   1.254   0.147 -0.7064  0.5205  0.4480
  462SOL    HW2 1847   2.890   1.324   0.175 -0.7902  0.0502  2.1075
  462SOL     MW 1848   2.806   1.327   0.152 -0.2853  0.2772  0.1050
  463SOL     OW 1849   4.767   0.848   3.323 -0.2242  0.2968 -0.4655
  463SOL    HW1 1850   4.704   0.860   3.394 -0.3067  1.1351 -0.6635
  463SOL    HW2 1851   4.788   0.937   3.295 -0.1735 -0.0207 -1.4708
  463SOL     MW 1852   4.761   0.862   3.329 -0.2285  0.3669 -0.6274
  464SOL     OW 1853   0.679   3.690   2.204  0.0678  0.2703 -0.0175
  464SOL    HW1 1854   0.686   3.730   2.117  0.0912  0.0287 -0.1275
  464SOL    HW2 1855   0.714   3.756   2.264 -0.8199  0.8302 -0.0844
  464SOL     MW 1856   0.684   3.705   2.200 -0.0485  0.3132 -0.0413
  465SOL     OW 1857   5.278   5.140   2.684 -0.2419 -0.3418  0.5006
  465SOL    HW1 1858   5.346   5.126   2.751  2.1117  2.5339 -1.0604
  465SOL    HW2 1859   5.215   5.198   2.727 -0.1398 -0.5969  1.0129
  465SOL     MW 1860   5.279   5.146   2.699  0.0886  0.0109  0.3595
  466SOL     OW 1861   3.922   2.226   0.555  0.1102  0.6288  0.2694
  466SOL    HW1 1862   3.973   2.148   0.577 -2.0619 -0.9359  0.0849
  466SOL    HW2 1863   3.915   2.274   0.637  2.2847  1.2031  0.1831
  466SOL     MW 1864   3.928   2.222   0.569  0.1105  0.4955  0.2330
  467SOL     OW 1865   1.545   3.171   2.896 -0.2235  0.4025 -0.0505
  467SOL    HW1 1866   1.465   3.126   2.869 -1.4676  3.1423 -1.3378
  467SOL    HW2 1867   1.613   3.135   2.838 -1.7047  1.9058 -2.9737
  467SOL     MW 1868   1.544   3.160   2.884 -0.5903  0.9735 -0.6172
  468SOL     OW 1869   5.489   4.365   1.986  0.0453 -0.3536  0.2749
  468SOL    HW1 1870   5.535   4.422   1.924 -1.3475  0.3469 -0.1576
  468SOL    HW2 1871   5.447   4.299   1.931  1.6535 -1.8876  0.7687
  468SOL     MW 1872   5.490   4.364   1.970  0.0743 -0.4658  0.2831
  469SOL     OW 1873   5.152   3.627   1.967  0.4119 -0.5891  0.6953
  469SOL    HW1 1874   5.182   3.546   1.926 -0.8816 -0.8721  0.2478
  469SOL    HW2 1875   5.091   3.598   2.035  1.0105 -0.0385  1.4810
  469SOL     MW 1876   5.148   3.612   1.970  0.3184 -0.5531  0.7408
  470SOL     OW 1877   2.814   2.586   0.094  0.3850  0.0137  0.1111
  470SOL    HW1 1878   2.736   2.623   0.134  1.6524  1.7269  1.1569
  470SOL    HW2 1879   2.882   2.595   0.162  1.2434 -2.5114 -0.3055
  470SOL     MW 1880   2.813   2.592   0.109  0.6711 -0.0956  0.1958
  471SOL     OW 1881   2.391   1.734   4.145 -0.0961  0.0933 -0.2542
  471SOL    HW1 1882   2.407   1.663   4.082  0.2374  1.5292 -1.8523
  471SOL    HW2 1883   2.460   1.724   4.210 -0.1401 -1.1270 -0.3741
  471SOL     MW 1884   2.402   1.723   4.145 -0.0572  0.1223 -0.4854
  472SOL     OW 1885   3.668   4.439   4.118 -0.3140 -0.3880  0.0211
  472SOL    HW1 1886   3.751   4.397   4.096 -0.6117 -0.3410 -1.2554
  472SOL    HW2 1887   3.672   4.451   4.213  0.7414 -1.2209  0.1049
  472SOL     MW 1888   3.680   4.435   4.128 -0.2120 -0.4937 -0.1394
  473SOL     OW 1889   5.178   2.169   2.967 -0.2528  0.0804 -0.2437
  473SOL    HW1 1890   5.236   2.218   2.909 -0.2228 -0.2404 -0.4817
  473SOL    HW2 1891   5.091   2.178   2.928 -0.3660  0.5354  0.0962
  473SOL     MW 1892   5.174   2.177   2.954 -0.2640  0.0984 -0.2300
  474SOL     OW 1893   3.725   3.336   4.514  0.1195  0.5407  0.5128
  474SOL    HW1 1894   3.729   3.325   4.419 -0.0215  1.4491  0.3904
  474SOL    HW2 1895   3.633   3.354   4.532  0.2490  1.0051  0.7377
  474SOL     MW 1896   3.713   3.337   4.504  0.1179  0.7254  0.5266
  475SOL     OW 1897   4.324   5.086   4.220  0.4726  0.3944  0.0798
  475SOL    HW1 1898   4.338   5.010   4.276 -2.4504  1.3613  2.4301
  475SOL    HW2 1899   4.385   5.152   4.253  1.2931 -0.1277 -0.3510
  475SOL     MW 1900   4.334   5.085   4.232  0.1896  0.4543  0.3381
  476SOL     OW 1901   4.082   4.038   3.116  0.2269  0.2245 -0.8061
  476SOL    HW1 1902   3.997   4.063   3.080 -0.5510 -0.2493  0.6047
  476SOL    HW2 1903   4.137   4.021   3.040 -1.0013  0.3311 -1.7415
  476SOL     MW 1904   4.078   4.039   3.101 -0.0431  0.1751 -0.7421
  477SOL     OW 1905   4.619   0.932   2.178 -0.1427  0.2963  0.5205
  477SOL    HW1 1906   4.526   0.921   2.160 -0.4339 -0.3561  2.2588
  477SOL    HW2 1907   4.646   0.850   2.218  1.4134  0.1391 -0.7608
  477SOL     MW 1908   4.610   0.920   2.181  0.0275  0.1873  0.5820
  478SOL     OW 1909   0.756   0.374   4.849 -0.0647 -0.6602  0.0729
  478SOL    HW1 1910   0.755   0.407   4.759 -3.0740  0.6126  0.4532
  478SOL    HW2 1911   0.798   0.444   4.900 -0.6814 -0.2124 -0.0180
  478SOL     MW 1912   0.761   0.388   4.844 -0.5527 -0.4286  0.1118
  479SOL     OW 1913   0.350   2.627   0.336 -0.2289 -0.2610 -0.3037
  479SOL    HW1 1914   0.420   2.692   0.345 -0.9054  0.4299 -0.0019
  479SOL    HW2 1915   0.355   2.576   0.417  0.1785 -0.4775 -0.4589
  479SOL     MW 1916   0.360   2.629   0.348 -0.2651 -0.1971 -0.2840
  480SOL     OW 1917   2.775   0.380   4.361 -0.3708  0.3085 -0.2171
  480SOL    HW1 1918   2.766   0.459   4.414 -0.2051 -0.6134  1.2313
  480SOL    HW2 1919   2.686   0.343   4.358 -0.2085 -0.1358  0.2404
  480SOL     MW 1920   2.762   0.386   4.368 -0.3267  0.1246  0.0394
  481SOL     OW 1921   4.007   3.670   2.416 -0.4766 -0.5921 -0.1520
  481SOL    HW1 1922   3.982   3.655   2.324  0.8473 -1.8347 -0.3502
  481SOL    HW2 1923   4.034   3.584   2.447  1.2800  0.2313  0.7045
  481SOL     MW 1924   4.007   3.656   2.408 -0.0620 -0.6485 -0.0634
  482SOL     OW 1925   1.731   3.282   3.905  0.1174  0.2888  0.0180
  482SOL    HW1 1926   1.790   3.354   3.884 -0.1738  0.6438  0.4070
  482SOL    HW2 1927   1.651   3.324   3.934 -0.5738 -0.1871 -1.1187
  482SOL     MW 1928   1.728   3.297   3.906 -0.0148  0.2725 -0.0826
  483SOL     OW 1929   4.403   4.193   2.496 -0.2554 -0.2015 -0.1672
  483SOL    HW1 1930   4.338   4.253   2.461 -0.9967 -1.4556 -1.0223
  483SOL    HW2 1931   4.466   4.180   2.425  0.4233  0.2765  0.3333
  483SOL     MW 1932   4.403   4.199   2.482 -0.2638 -0.3059 -0.2149
  484SOL     OW 1933   0.313   1.819   3.666 -0.3984  0.0066 -0.3107
  484SOL    HW1 1934   0.302   1.848   3.575 -0.3852  1.4717  0.1202
  484SOL    HW2 1935   0.226   1.789   3.692 -0.4681 -0.1558 -0.7143
  484SOL     MW 1936   0.300   1.819   3.657 -0.4060  0.1819 -0.3070
  485SOL     OW 1937   1.560   3.560   4.481  0.5027 -0.7702 -0.2368
  485SOL    HW1 1938   1.575   3.606   4.563  0.4202 -0.4468 -0.4005
  485SOL    HW2 1939   1.500   3.489   4.503 -0.0958 -0.2439 -0.1604
  485SOL     MW 1940   1.554   3.556   4.495  0.4110 -0.6558 -0.2486
  486SOL     OW 1941   4.380   2.968   4.612  0.4944 -0.1533  0.2882
  486SOL    HW1 1942   4.404   2.990   4.522  2.1630  0.2290  0.7781
  486SOL    HW2 1943   4.392   3.050   4.660 -0.3302 -0.3681  0.8660
  486SOL     MW 1944   4.385   2.982   4.606  0.6080 -0.1308  0.4319
  487SOL     OW 1945   1.184   0.780   1.899  0.6508 -0.3110 -0.2112
  487SOL    HW1 1946   1.190   0.829   1.818 -0.9448  1.0656  0.4545
  487SOL    HW2 1947   1.105   0.813   1.942  0.6806 -1.9877  1.2566
  487SOL     MW 1948   1.174   0.791   1.894  0.4400 -0.3514  0.0759
  488SOL     OW 1949   4.734   1.951   0.594  0.2762  0.1064  0.4693
  488SOL    HW1 1950   4.786   2.021   0.555  0.7754 -0.4161  0.1765
  488SOL    HW2 1951   4.675   1.923   0.524 -0.6162  0.8930  0.8893
  488SOL     MW 1952   4.733   1.956   0.579  0.2233  0.1419  0.4864
  489SOL     OW 1953   2.585   2.702   0.188  0.0652 -0.3679  0.2941
  489SOL    HW1 1954   2.637   2.735   0.261 -0.4320  0.3233  0.3373
  489SOL    HW2 1955   2.552   2.780   0.144  1.9785 -0.6931 -1.8886
  489SOL     MW 1956   2.588   2.717   0.192  0.2558 -0.3187  0.0061
  490SOL     OW 1957   4.876   1.644   0.230  0.4789  0.1513 -0.2782
  490SOL    HW1 1958   4.883   1.673   0.139  0.5056  0.3826 -0.2015
  490SOL    HW2 1959   4.814   1.571   0.227 -0.9334  1.3189 -0.2217
  490SOL     MW 1960   4.869   1.638   0.218  0.2924  0.3396 -0.2603
  491SOL     OW 1961   2.088   2.809   1.660 -0.3943 -0.0528  0.1376
  491SOL    HW1 1962   2.107   2.836   1.570 -0.7381 -1.2027 -0.3004
  491SOL    HW2 1963   1.995   2.826   1.672  0.1798  2.7904  1.2831
  491SOL     MW 1964   2.078   2.815   1.650 -0.3633  0.1751  0.2328
  492SOL     OW 1965   0.026   1.963   3.403 -0.6510  0.6047 -0.0295
  492SOL    HW1 1966   0.088   2.035   3.416 -0.0594  0.0506  0.2546
  492SOL    HW2 1967  -0.038   1.974   3.473 -0.4001  0.6847  0.1873
  492SOL     MW 1968   0.026   1.974   3.414 -0.5376  0.5409  0.0379
  493SOL     OW 1969   1.385   3.468   5.058  0.0397  0.0370 -0.0588
  493SOL    HW1 1970   1.311   3.476   5.119 -0.1468  1.7295 -0.4806
  493SOL    HW2 1971   1.385   3.550   5.009  1.6455 -0.3259 -0.7090
  493SOL     MW 1972   1.375   3.480   5.060  0.2307  0.2159 -0.2031
  494SOL     OW 1973   1.024   2.715   0.364  0.4710  0.3340 -0.4651
  494SOL    HW1 1974   0.955   2.739   0.425 -0.3445 -1.3421 -0.6766
  494SOL    HW2 1975   1.058   2.798   0.332  0.1568  1.2355  1.4052
  494SOL     MW 1976   1.020   2.729   0.368  0.3190  0.2298 -0.2418
  495SOL     OW 1977   3.188   3.254   3.206 -0.2885 -0.0887  0.0366
  495SOL    HW1 1978   3.281   3.276   3.196 -0.0313 -1.3177 -0.4665
  495SOL    HW2 1979   3.166   3.208   3.125 -1.3883  0.3529  0.0783
  495SOL     MW 1980   3.198   3.250   3.194 -0.4019 -0.1947 -0.0255
  496SOL     OW 1981   3.048   0.237   1.582 -0.0076  0.2030 -0.5657
  496SOL    HW1 1982   3.067   0.143   1.582 -3.9553 -0.7685 -1.6399
  496SOL    HW2 1983   2.996   0.252   1.661  1.3698  1.7963  0.1254
  496SOL     MW 1984   3.043   0.227   1.593 -0.3535  0.2866 -0.6172
  497SOL     OW 1985   3.633   4.796   2.804  0.0838  0.3108 -0.1228
  497SOL    HW1 1986   3.697   4.747   2.754  0.1940  0.6723 -0.3375
  497SOL    HW2 1987   3.599   4.734   2.869  0.2047 -0.0498 -0.4098
  497SOL     MW 1988   3.637   4.781   2.806  0.1149  0.3109 -0.1903
  498SOL     OW 1989   1.693   0.252   4.464  0.1389  0.0842  0.5563
  498SOL    HW1 1990   1.780   0.274   4.429 -0.3842  1.2510 -0.0705
  498SOL    HW2 1991   1.698   0.275   4.557  0.7566 -0.6470  0.7109
  498SOL     MW 1992   1.706   0.258   4.472  0.1516  0.1428  0.4927
  499SOL     OW 1993   0.395   1.835   2.097  0.0740 -0.3470 -0.2637
  499SOL    HW1 1994   0.449   1.900   2.052 -0.5489 -0.1760 -0.7953
  499SOL    HW2 1995   0.305   1.859   2.072 -0.3887  0.4430  1.9583
  499SOL     MW 1996   0.390   1.847   2.088 -0.0721 -0.2176 -0.0362
  500SOL     OW 1997   0.440   5.512   4.557 -0.5231  0.6432 -0.4098
  500SOL    HW1 1998   0.446   5.505   4.652  1.8882  2.1597 -0.3727
  500SOL    HW2 1999   0.531   5.517   4.527 -1.2295  0.8068 -2.7549
  500SOL     MW 2000   0.453   5.512   4.565 -0.2936  0.8693 -0.7204
  501SOL     OW 2001   2.115   0.412   0.749  0.0020 -0.1484  0.3403
  501SOL    HW1 2002   2.181   0.467   0.792  0.5668 -0.9821  0.5657
  501SOL    HW2 2003   2.042   0.409   0.812  0.6410 -0.9924  1.0644
  501SOL     MW 2004   2.114   0.419   0.763  0.1640 -0.3742  0.4681
  502SOL     OW 2005   0.224   4.338   4.731  0.0040  0.0161  0.2334
  502SOL    HW1 2006   0.213   4.352   4.825 -1.1242 -0.1991  0.1365
  502SOL    HW2 2007   0.288   4.404   4.705 -0.0514  0.4092  1.0568
  502SOL     MW 2008   0.231   4.349   4.740 -0.1553  0.0401  0.3311
  503SOL     OW 2009   1.865  -0.010   3.610  0.2463  0.3630 -0.5821
  503SOL    HW1 2010   1.832   0.079   3.602 -3.4318 -0.8613 -0.5264
  503SOL    HW2 2011   1.867  -0.044   3.521 -0.1959 -0.1017 -0.4178
  503SOL     MW 2012   1.861  -0.003   3.597 -0.3082  0.1357 -0.5525
  504SOL     OW 2013   2.936   4.006   3.976  0.4958 -0.8419 -0.0411
  504SOL    HW1 2014   2.860   3.966   3.934  1.2171 -0.5475 -1.7065
  504SOL    HW2 2015   2.959   4.079   3.919 -0.1601  1.3949  2.3928
  504SOL     MW 2016   2.929   4.010   3.963  0.5046 -0.5012  0.0623
  505SOL     OW 2017   1.650   0.626   5.373 -0.0336 -0.0952 -0.5190
  505SOL    HW1 2018   1.723   0.578   5.335  0.4024 -0.0896  0.2987
  505SOL    HW2 2019   1.690   0.696   5.424 -0.6528  0.8069 -1.2195
  505SOL     MW 2020   1.665   0.629   5.375 -0.0583  0.0269 -0.5032
  506SOL     OW 2021   0.315   0.963   1.522  0.1927  0.3795 -0.0921
  506SOL    HW1 2022   0.389   0.902   1.532  0.3362  0.2814 -1.5225
  506SOL    HW2 2023   0.356   1.049   1.514  0.1519  0.3576 -0.5973
  506SOL     MW 2024   0.330   0.966   1.522  0.2065  0.3634 -0.3526
  507SOL     OW 2025   1.193   0.382   4.815 -0.3267  0.3444 -0.3937
  507SOL    HW1 2026   1.190   0.414   4.905 -1.5011 -2.0664  0.4983
  507SOL    HW2 2027   1.115   0.328   4.806 -1.0915  1.7321 -3.3966
  507SOL     MW 2028   1.182   0.379   4.826 -0.5877  0.2067 -0.6778
  508SOL     OW 2029   1.720   1.223   4.220  0.4908  0.4864  0.5551
  508SOL    HW1 2030   1.790   1.286   4.239  1.0606 -0.7194  2.9153
  508SOL    HW2 2031   1.758   1.163   4.156  0.7979  1.1237  0.1292
  508SOL     MW 2032   1.735   1.223   4.214  0.6088  0.4099  0.8154
  509SOL     OW 2033   3.207   0.293   0.818  0.1134 -0.0319 -0.0390
  509SOL    HW1 2034   3.204   0.383   0.786 -0.8136 -0.4637 -1.2491
  509SOL    HW2 2035   3.247   0.299   0.905 -0.3938  1.5919  0.1027
  509SOL     MW 2036   3.212   0.306   0.825 -0.0796  0.1285 -0.1828
  510SOL     OW 2037   2.371   0.980   5.386  0.1784  0.1189  0.0005
  510SOL    HW1 2038   2.369   0.962   5.292  0.9214 -2.0102  0.3357
  510SOL    HW2 2039   2.284   1.013   5.406  0.2587  1.3905 -1.5527
  510SOL     MW 2040   2.359   0.982   5.376  0.2892  0.0035 -0.1634
  511SOL     OW 2041   3.599   4.767   1.996 -0.4114 -0.6867 -0.7748
  511SOL    HW1 2042   3.580   4.835   1.932  2.9482 -0.4097 -1.6531
  511SOL    HW2 2043   3.576   4.807   2.080 -1.4296  0.3493 -1.5181
  511SOL     MW 2044   3.594   4.782   1.999 -0.0963 -0.5100 -0.9931
  512SOL     OW 2045   0.335   3.091   3.819 -0.4575  0.0148 -0.1343
  512SOL    HW1 2046   0.378   3.007   3.806 -0.7349 -0.0613 -0.5444
  512SOL    HW2 2047   0.343   3.107   3.914  2.1007  0.8673 -0.4110
  512SOL     MW 2048   0.342   3.082   3.830 -0.1506  0.1193 -0.2267
  513SOL     OW 2049   2.583   5.304   3.413  0.3086  0.2220  0.3777
  513SOL    HW1 2050   2.614   5.393   3.430  0.5041  0.6234 -1.8501
  513SOL    HW2 2051   2.663   5.255   3.392 -0.0232  0.0600 -0.5197
  513SOL     MW 2052   2.598   5.310   3.413  0.2903  0.2542 -0.0429
  514SOL     OW 2053   0.298   2.309   0.195 -0.2505  0.2378 -0.6002
  514SOL    HW1 2054   0.339   2.274   0.274 -0.7853  0.1655 -0.3523
  514SOL    HW2 2055   0.369   2.354   0.150  0.0930  0.1577 -0.1510
  514SOL     MW 2056   0.313   2.310   0.200 -0.2763  0.2173 -0.5064
  515SOL     OW 2057   4.661   4.015   1.136  0.4400  0.2056  0.0921
  515SOL    HW1 2058   4.666   4.101   1.094  0.8005 -0.7374 -1.8989
  515SOL    HW2 2059   4.588   3.971   1.092 -0.1093 -0.3426  1.4822
  515SOL     MW 2060   4.652   4.021   1.125  0.4146  0.0049  0.0112
  516SOL     OW 2061   0.574   4.119   3.249  0.5344  0.3956 -0.7040
  516SOL    HW1 2062   0.557   4.213   3.243  0.9990  0.5606  0.3207
  516SOL    HW2 2063   0.580   4.090   3.158 -1.1951  1.0410 -1.0605
  516SOL     MW 2064   0.573   4.128   3.236  0.3642  0.5047 -0.6141
  517SOL     OW 2065   5.132   5.208   4.503  0.5494  0.2680 -0.3325
  517SOL    HW1 2066   5.094   5.245   4.423  0.1669 -0.5803 -0.5503
  517SOL    HW2 2067   5.222   5.184   4.478  0.0779 -1.0590 -0.8616
  517SOL     MW 2068   5.139   5.210   4.489  0.4345 -0.0248 -0.4330
  518SOL     OW 2069   1.479   0.067   2.448  0.2369  0.2619  0.2322
  518SOL    HW1 2070   1.560   0.056   2.399 -0.8079 -2.8761 -1.0571
  518SOL    HW2 2071   1.478  -0.006   2.511 -2.3252 -1.0233 -1.1040
  518SOL     MW 2072   1.490   0.055   2.450 -0.2485 -0.3334 -0.1212
  519SOL     OW 2073   0.052   3.414   3.402  0.2971 -0.8507  0.4939
  519SOL    HW1 2074   0.028   3.322   3.389 -2.3232 -0.0254 -1.4794
  519SOL    HW2 2075   0.037   3.455   3.316  0.3363  1.6150  1.5812
  519SOL     MW 2076   0.046   3.407   3.388 -0.0503 -0.4078  0.3747
  520SOL     OW 2077   3.620   4.307   0.995  0.2916  0.4758  0.1877
  520SOL    HW1 2078   3.653   4.298   0.905  0.2814 -2.2681  0.3670
  520SOL    HW2 2079   3.635   4.221   1.034 -0.6935  1.2853  2.4951
  520SOL     MW 2080   3.626   4.294   0.988  0.1577  0.2155  0.5224
  521SOL     OW 2081   0.206   1.501   5.351  0.5289  0.0254 -0.1553
  521SOL    HW1 2082   0.156   1.420   5.344  0.6808 -0.1517  0.7622
  521SOL    HW2 2083   0.148   1.568   5.313 -0.7506 -0.0389  1.5765
  521SOL     MW 2084   0.191   1.499   5.345  0.3772 -0.0071  0.2012
  522SOL     OW 2085   1.798   0.489   1.869 -0.0063 -0.4715 -0.5924
  522SOL    HW1 2086   1.710   0.458   1.889 -0.6454  1.2936 -0.5546
  522SOL    HW2 2087   1.810   0.565   1.925  0.6074  0.7595 -2.3208
  522SOL     MW 2088   1.788   0.495   1.880 -0.0097 -0.0683 -0.8199
  523SOL     OW 2089   3.295   0.620   1.304  0.3855  0.2567 -0.0195
  523SOL    HW1 2090   3.237   0.629   1.380 -3.1504 -0.0983 -2.4498
  523SOL    HW2 2091   3.324   0.528   1.307 -0.7644 -0.1102  0.2373
  523SOL     MW 2092   3.291   0.609   1.315 -0.2451  0.1596 -0.3120
  524SOL     OW 2093   0.547   1.647   5.095  0.5861  0.1222 -0.7939
  524SOL    HW1 2094   0.543   1.561   5.052  0.9077 -0.1110 -0.3613
  524SOL    HW2 2095   0.614   1.695   5.047  1.3228 -0.3239 -0.2266
  524SOL     MW 2096   0.555   1.642   5.083  0.7285  0.0308 -0.6594
  525SOL     OW 2097   1.642   2.711   5.234 -0.2945 -0.2826  0.2105
  525SOL    HW1 2098   1.568   2.753   5.191  0.7179  1.0284 -0.2919
  525SOL    HW2 2099   1.631   2.732   5.327 -3.2151 -4.2117  1.0135
  525SOL     MW 2100   1.631   2.719   5.241 -0.5513 -0.6350  0.2509
  526SOL     OW 2101   3.331   0.988   5.037 -0.5370  0.4626 -0.0584
  526SOL    HW1 2102   3.351   1.018   5.126 -0.0013 -0.3322  0.0990
  526SOL    HW2 2103   3.292   0.902   5.049 -0.0481  0.1578 -0.6220
  526SOL     MW 2104   3.328   0.981   5.051 -0.3991  0.3146 -0.1131
  527SOL     OW 2105   5.250   1.473   4.319  0.2286 -0.3137 -0.7544
  527SOL    HW1 2106   5.235   1.426   4.237 -2.0844  0.6979 -1.0007
  527SOL    HW2 2107   5.344   1.492   4.320  0.3082 -0.3192 -3.1870
  527SOL     MW 2108   5.261   1.469   4.308 -0.0720 -0.1783 -1.1150
  528SOL     OW 2109   2.066   1.796   0.274  0.3830 -0.2136  0.1588
  528SOL    HW1 2110   2.130   1.755   0.332  0.2878 -1.1547 -0.3839
  528SOL    HW2 2111   2.106   1.794   0.188 -0.0179 -0.0106 -0.0378
  528SOL     MW 2112   2.080   1.790   0.270  0.3162 -0.3130  0.0593
  529SOL     OW 2113   0.708   1.849   5.418 -0.5429  0.1448  0.6388
  529SOL    HW1 2114   0.762   1.795   5.360 -0.2093  0.6447  0.4703
  529SOL    HW2 2115   0.768   1.918   5.448 -0.8847  0.2531  1.0742
  529SOL     MW 2116   0.723   1.851   5.414 -0.5440  0.2266  0.6747
  530SOL     OW 2117   3.899   2.609   2.726 -0.1193  0.0851  0.0404
  530SOL    HW1 2118   3.884   2.664   2.803  1.8306  0.6464  0.0753
  530SOL    HW2 2119   3.870   2.662   2.652  0.8177  0.7947  0.1603
  530SOL     MW 2120   3.894   2.623   2.726  0.2692  0.2561  0.0612
  531SOL     OW 2121   2.697   4.605   2.010 -0.2267  0.3551  0.2500
  531SOL    HW1 2122   2.602   4.613   1.995  0.0074 -0.8297 -2.3839
  531SOL    HW2 2123   2.708   4.518   2.049 -0.0880 -0.3630 -1.3415
  531SOL     MW 2124   2.685   4.594   2.014 -0.1765  0.0990 -0.3186
  532SOL     OW 2125   4.723   3.797   0.805  0.4717  0.0820 -1.1433
  532SOL    HW1 2126   4.774   3.839   0.874 -0.0574 -0.3690 -0.4637
  532SOL    HW2 2127   4.666   3.867   0.771 -2.7467 -0.6117  2.1481
  532SOL     MW 2128   4.722   3.812   0.810 -0.0326 -0.0720 -0.6089
  533SOL     OW 2129   2.019   0.791   1.504  0.0610 -0.5019  0.9759
  533SOL    HW1 2130   1.929   0.761   1.510 -0.1136  0.0457  1.1255
  533SOL    HW2 2131   2.016   0.866   1.444  0.4466 -0.6023  0.8238
  533SOL     MW 2132   2.007   0.797   1.497  0.0894 -0.4417  0.9755
  534SOL     OW 2133   5.168   3.832   0.394  0.4522  0.1144 -0.0726
  534SOL    HW1 2134   5.221   3.753   0.388  2.0921  1.2095 -0.8588
  534SOL    HW2 2135   5.177   3.860   0.485 -1.7763 -1.6122  0.7674
  534SOL     MW 2136   5.177   3.825   0.405  0.3730  0.0294 -0.0654
  535SOL     OW 2137   5.404   2.605   1.474  0.6441 -0.1460  0.2627
  535SOL    HW1 2138   5.454   2.524   1.473 -2.1826 -2.0135 -0.7936
  535SOL    HW2 2139   5.331   2.587   1.533 -1.1773  0.8476 -1.5903
  535SOL     MW 2140   5.401   2.592   1.482  0.0185 -0.2636 -0.1288
  536SOL     OW 2141   2.717   2.215   2.828 -0.4170  0.1727  0.4500
  536SOL    HW1 2142   2.774   2.162   2.883  0.0982 -0.6828 -0.8647
  536SOL    HW2 2143   2.763   2.221   2.744 -1.1525  1.4852  0.1094
  536SOL     MW 2144   2.731   2.209   2.824 -0.4467  0.2342  0.2272
  537SOL     OW 2145   4.474   5.225   3.458  0.3283  0.0026  0.1275
  537SOL    HW1 2146   4.462   5.138   3.420  1.3376  0.5808 -1.6328
  537SOL    HW2 2147   4.512   5.209   3.544 -1.5572 -1.3436  0.7672
  537SOL     MW 2148   4.477   5.211   3.465  0.2104 -0.1008 -0.0233
  538SOL     OW 2149   5.366   1.259   5.482 -0.2641 -0.4817  0.1343
  538SOL    HW1 2150   5.415   1.205   5.544  1.5611  0.9004 -0.0398
  538SOL    HW2 2151   5.321   1.323   5.537  0.6099  0.1629  0.1131
  538SOL     MW 2152   5.366   1.260   5.498  0.0992 -0.2089  0.1080
  539SOL     OW 2153   3.290   2.853   5.072  0.1271  0.1987  0.2700
  539SOL    HW1 2154   3.259   2.802   4.996 -0.3723  1.2033 -0.2250
  539SOL    HW2 2155   3.347   2.793   5.119  0.0569 -0.6162 -0.6378
  539SOL     MW 2156   3.293   2.838   5.068  0.0505  0.2242  0.0812
  540SOL     OW 2157   0.677   4.216   5.265 -0.0604  0.3156  0.2405
  540SOL    HW1 2158   0.629   4.250   5.190 -0.8345  0.5525  0.8251
  540SOL    HW2 2159   0.652   4.274   5.338 -1.6714 -1.6337  1.3457
  540SOL     MW 2160   0.667   4.228   5.265 -0.3814  0.0851  0.4679
  541SOL     OW 2161   2.028   1.878   1.478  0.5922  0.1732  0.4937
  541SOL    HW1 2162   2.070   1.928   1.408 -0.6299 -0.6253 -0.8645
  541SOL    HW2 2163   2.019   1.941   1.550 -0.9200  1.9537 -1.1471
  541SOL     MW 2164   2.033   1.893   1.479  0.2242  0.3054  0.0901
  542SOL     OW 2165   3.483   0.033   3.393  0.3772  0.1730  0.1509
  542SOL    HW1 2166   3.545   0.039   3.320  0.5755  0.6593  0.3578
  542SOL    HW2 2167   3.513  -0.044   3.442  0.0202 -0.3814 -0.4773
  542SOL     MW 2168   3.496   0.023   3.389  0.3559  0.1638  0.0942
  543SOL     OW 2169   4.864   2.412   1.998  0.4355  0.5057  0.0081
  543SOL    HW1 2170   4.931   2.477   2.017 -1.1475  2.5104 -0.7945
  543SOL    HW2 2171   4.832   2.435   1.910 -2.5565  0.8829  1.0706
  543SOL     MW 2172   4.869   2.424   1.988 -0.1802  0.8263  0.0430
  544SOL     OW 2173   0.758   3.941   0.848 -0.0431 -0.5994 -0.2519
  544SOL    HW1 2174   0.702   4.019   0.848  0.5117 -0.1817 -1.6429
  544SOL    HW2 2175   0.724   3.888   0.920  0.7857  1.7813  2.0706
  544SOL     MW 2176   0.746   3.944   0.858  0.1431 -0.2228 -0.1266
  545SOL     OW 2177   1.331   4.612   2.215 -0.1632  0.1408  0.2674
  545SOL    HW1 2178   1.374   4.530   2.240  0.5200 -0.2283 -1.9398
  545SOL    HW2 2179   1.257   4.620   2.275  0.8544 -1.1039  1.7561
  545SOL     MW 2180   1.327   4.602   2.227  0.0657 -0.0764  0.1707
  546SOL     OW 2181   0.968   2.421   2.809  0.3411  0.3652  0.8364
  546SOL    HW1 2182   0.997   2.454   2.894 -2.2133  2.5969  0.9573
  546SOL    HW2 2183   1.001   2.484   2.745  0.5897 -0.2278  0.3638
  546SOL     MW 2184   0.976   2.434   2.812  0.0308  0.5857  0.7891
  547SOL     OW 2185   0.487   5.073   2.730  0.1387  0.0296  0.0564
  547SOL    HW1 2186   0.558   5.009   2.738  0.3909  0.2440 -0.4144
  547SOL    HW2 2187   0.530   5.157   2.743  0.3928  0.3353 -2.3303
  547SOL     MW 2188   0.503   5.076   2.733  0.2068  0.0996 -0.3281
  548SOL     OW 2189   5.008   4.823   0.284 -0.3821 -0.0643 -0.1731
  548SOL    HW1 2190   5.027   4.917   0.291 -0.5707 -0.0806  0.6431
  548SOL    HW2 2191   5.092   4.784   0.259 -0.8176  0.5671 -2.9714
  548SOL     MW 2192   5.022   4.831   0.281 -0.4661  0.0185 -0.4399
  549SOL     OW 2193   1.931   1.850   4.572 -0.4039  0.3066 -0.0536
  549SOL    HW1 2194   1.888   1.934   4.586 -1.1182 -0.1798  0.7807
  549SOL    HW2 2195   1.932   1.809   4.659 -0.1768 -0.5942 -0.4718
  549SOL     MW 2196   1.925   1.856   4.586 -0.4695  0.1199  0.0024
  550SOL     OW 2197   3.785   4.377   4.498  0.1485 -0.2021 -0.3751
  550SOL    HW1 2198   3.807   4.432   4.423  1.4041 -0.3624 -0.1405
  550SOL    HW2 2199   3.730   4.308   4.461 -0.4001  0.4927 -0.8887
  550SOL     MW 2200   3.780   4.375   4.483  0.2437 -0.1301 -0.4127
  551SOL     OW 2201   0.372   0.575   2.708 -0.0750 -0.4132 -0.3568
  551SOL    HW1 2202   0.295   0.626   2.683 -0.0278 -0.2676 -0.2106
  551SOL    HW2 2203   0.415   0.555   2.625 -0.0911 -0.2071 -0.4171
  551SOL     MW 2204   0.367   0.579   2.694 -0.0708 -0.3659 -0.3452
  552SOL     OW 2205   3.729   0.150   2.489 -0.0648  0.3368 -0.6152
  552SOL    HW1 2206   3.649   0.121   2.533  0.8207  0.9853  1.5621
  552SOL    HW2 2207   3.703   0.226   2.439 -0.8247  0.5968  0.1517
  552SOL     MW 2208   3.715   0.156   2.488 -0.0479  0.4591 -0.2190
  553SOL     OW 2209   0.009   2.278   0.244  0.6050  0.1356 -0.2028
  553SOL    HW1 2210  -0.016   2.314   0.159  1.0519  0.6379 -0.1298
  553SOL    HW2 2211   0.105   2.287   0.246  0.4598  1.8107  1.0909
  553SOL     MW 2212   0.019   2.284   0.232  0.6456  0.4286 -0.0189
  554SOL     OW 2213   2.200   2.352   4.881  0.2166 -0.4078 -0.4523
  554SOL    HW1 2214   2.289   2.364   4.913 -0.5654 -0.6782  2.0239
  554SOL    HW2 2215   2.183   2.259   4.892 -0.2084 -0.4555 -1.4257
  554SOL     MW 2216   2.210   2.342   4.887  0.0542 -0.4506 -0.2501
  555SOL     OW 2217   5.365   3.353   4.544 -0.0804 -0.1979  0.4233
  555SOL    HW1 2218   5.293   3.379   4.485 -0.6518  1.3967  1.7429
  555SOL    HW2 2219   5.341   3.266   4.575  0.0045 -0.8792 -1.3114
  555SOL     MW 2220   5.352   3.345   4.540 -0.1459 -0.0750  0.3674
  556SOL     OW 2221   5.420   3.642   1.747  0.6319 -0.0866  0.3121
  556SOL    HW1 2222   5.457   3.602   1.825  1.8652 -0.9277 -0.6701
  556SOL    HW2 2223   5.465   3.599   1.674 -0.1829  0.9681 -0.8519
  556SOL     MW 2224   5.431   3.631   1.748  0.6882 -0.0578  0.0232
  557SOL     OW 2225   5.112   1.870   4.816 -0.0906 -0.4519  0.4538
  557SOL    HW1 2226   5.153   1.827   4.742 -0.1492 -0.5887  0.5013
  557SOL    HW2 2227   5.019   1.846   4.810  0.1026 -1.4260  1.2404
  557SOL     MW 2228   5.105   1.861   4.805 -0.0725 -0.6014  0.5661
  558SOL     OW 2229   2.920   3.144   1.840 -0.0004  0.2565 -0.0876
  558SOL    HW1 2230   2.976   3.212   1.876 -1.2799  0.6373  1.2722
  558SOL    HW2 2231   2.865   3.190   1.776  0.4325  0.1060 -0.5769
  558SOL     MW 2232   2.920   3.159   1.836 -0.1143  0.2875  0.0295
  559SOL     OW 2233   5.216   0.962   1.243  0.8845  0.1901 -0.5069
  559SOL    HW1 2234   5.150   0.976   1.174  1.7318  1.6932 -1.0608
  559SOL    HW2 2235   5.218   0.867   1.254  0.5421 -0.0868 -2.3989
  559SOL     MW 2236   5.207   0.951   1.235  0.9525  0.3551 -0.8361
  560SOL     OW 2237   4.920   2.324   4.436  0.1475 -0.4199 -0.1150
  560SOL    HW1 2238   4.883   2.318   4.348 -0.9191  2.3615  0.0189
  560SOL    HW2 2239   4.844   2.343   4.493  1.1062  0.2509  0.9908
  560SOL     MW 2240   4.905   2.326   4.432  0.1330  0.0447  0.0518
  561SOL     OW 2241   2.587   2.173   3.338 -0.3326 -0.0352 -0.2667
  561SOL    HW1 2242   2.646   2.137   3.271 -0.0253  1.0579 -0.6025
  561SOL    HW2 2243   2.522   2.104   3.352 -0.1469 -0.4596 -1.3697
  561SOL     MW 2244   2.587   2.159   3.331 -0.2662  0.0548 -0.4604
  562SOL     OW 2245   4.591  -0.005   0.511  0.2786  0.0905  0.0684
  562SOL    HW1 2246   4.501  -0.012   0.478 -0.1612 -2.4601  1.5781
  562SOL    HW2 2247   4.624   0.075   0.470 -2.1329  0.2859 -1.7867
  562SOL     MW 2248   4.583   0.005   0.501 -0.1052 -0.2265  0.0219
  563SOL     OW 2249   3.509   4.645   0.806 -1.0981  0.1574  0.1414
  563SOL    HW1 2250   3.479   4.669   0.893 -1.8253 -0.2359  0.0092
  563SOL    HW2 2251   3.481   4.718   0.750 -1.4030  0.0075  0.0963
  563SOL     MW 2252   3.501   4.658   0.810 -1.2370  0.0843  0.1175
  564SOL     OW 2253   1.882   1.242   1.516  0.6352  0.9540 -0.0408
  564SOL    HW1 2254   1.901   1.311   1.451  1.1829 -0.1447 -1.0840
  564SOL    HW2 2255   1.941   1.260   1.589 -1.0976  3.1738  0.9416
  564SOL     MW 2256   1.892   1.254   1.517  0.4757  1.1049 -0.0490
  565SOL     OW 2257   3.207   5.317   1.370  0.2996  0.1687 -0.0582
  565SOL    HW1 2258   3.302   5.324   1.367  0.2929 -0.0059 -1.7695
  565SOL    HW2 2259   3.191   5.230   1.406  0.8424 -0.3825 -1.0920
  565SOL     MW 2260   3.218   5.306   1.375  0.3717  0.0711 -0.4276
  566SOL     OW 2261   4.435   2.911   5.432 -0.0803  0.1365  0.0545
  566SOL    HW1 2262   4.365   2.934   5.493  0.6721  0.6591  0.7311
  566SOL    HW2 2263   4.413   2.822   5.403  0.1876 -0.6283  2.0159
  566SOL     MW 2264   4.423   2.902   5.436  0.0570  0.1039  0.4095
  567SOL     OW 2265   1.565   1.713   0.893 -0.2981  0.4435  0.3147
  567SOL    HW1 2266   1.502   1.785   0.896  0.6643  1.5003 -2.3186
  567SOL    HW2 2267   1.615   1.722   0.974 -0.9170  2.0519  0.5611
  567SOL     MW 2268   1.563   1.724   0.904 -0.2519  0.8022 -0.0065
  568SOL     OW 2269   1.489   0.320   0.955  0.2186  0.3084  0.5034
  568SOL    HW1 2270   1.518   0.273   1.033 -0.2270 -0.2051  0.3619
  568SOL    HW2 2271   1.409   0.276   0.928  0.6050  0.1936 -0.5115
  568SOL     MW 2272   1.482   0.308   0.962  0.2106  0.2239  0.3477
  569SOL     OW 2273   2.697   5.062   4.228 -0.1623  0.5463  0.4627
  569SOL    HW1 2274   2.713   5.132   4.291  0.1937  1.0459 -0.1621
  569SOL    HW2 2275   2.610   5.028   4.251 -0.7448  1.7983  0.2393
  569SOL     MW 2276   2.687   5.067   4.239 -0.1928  0.7821  0.3486
  570SOL     OW 2277   3.257   1.226   2.802  0.3599 -0.0065  0.1247
  570SOL    HW1 2278   3.192   1.183   2.746 -0.1268  0.6204  0.1977
  570SOL    HW2 2279   3.236   1.197   2.890  0.6381 -0.3742  0.0741
  570SOL     MW 2280   3.246   1.216   2.806  0.3319  0.0284  0.1277
  571SOL     OW 2281   2.287   1.474   3.724 -0.2560 -0.4002 -0.1644
  571SOL    HW1 2282   2.313   1.445   3.637 -0.7317 -0.4090 -0.3054
  571SOL    HW2 2283   2.280   1.570   3.716  2.4224 -0.0331  0.5832
  571SOL     MW 2284   2.290   1.483   3.711  0.0404 -0.3520 -0.0828
  572SOL     OW 2285   4.608   1.980   3.201  0.3733  0.3796  0.3436
  572SOL    HW1 2286   4.531   1.940   3.162  0.5670 -0.0797  0.4265
  572SOL    HW2 2287   4.676   1.912   3.196  0.4892  0.4193  1.1898
  572SOL     MW 2288   4.607   1.965   3.195  0.4150  0.3232  0.4687
  573SOL     OW 2289   4.906   0.064   1.791  0.2206  0.0761 -0.4769
  573SOL    HW1 2290   4.948   0.083   1.707 -0.6587  1.4933 -0.6412
  573SOL    HW2 2291   4.824   0.020   1.768  0.9837 -1.5576 -0.2184
  573SOL     MW 2292   4.900   0.061   1.776  0.2050  0.0470 -0.4643
  574SOL     OW 2293   1.129   1.977   0.964 -0.1720 -0.1512  0.1106
  574SOL    HW1 2294   1.218   1.955   0.936 -0.3486 -0.9822  0.1875
  574SOL    HW2 2295   1.078   1.976   0.883 -0.8169 -3.2030  0.4523
  574SOL     MW 2296   1.134   1.974   0.950 -0.2826 -0.6738  0.1669
  575SOL     OW 2297   2.785   0.493   0.643  0.1061 -0.5902 -0.3459
  575SOL    HW1 2298   2.842   0.567   0.663 -1.8281  0.7244  0.6479
  575SOL    HW2 2299   2.844   0.424   0.612  2.1015  0.9393 -0.1240
  575SOL     MW 2300   2.800   0.494   0.641  0.1143 -0.2074 -0.1823
  576SOL     OW 2301   5.456   2.818   3.687 -0.4667 -0.3613 -0.1271
  576SOL    HW1 2302   5.505   2.822   3.770 -1.7607 -1.6595  0.7512
  576SOL    HW2 2303   5.495   2.745   3.640  0.0454  0.1664 -0.5439
  576SOL     MW 2304   5.468   2.809   3.692 -0.5720 -0.4650 -0.0650
  577SOL     OW 2305   3.955   5.471   2.964 -0.6414  0.0981  0.4301
  577SOL    HW1 2306   3.947   5.452   2.870  1.6399 -0.1406  0.2179
  577SOL    HW2 2307   3.904   5.403   3.007 -0.6138 -0.6013 -0.6101
  577SOL     MW 2308   3.947   5.460   2.957 -0.3307 -0.0282  0.2616
  578SOL     OW 2309   2.067   3.041   3.619  0.3546  0.0996 -0.5436
  578SOL    HW1 2310   2.040   2.995   3.539 -0.4556  0.9463 -0.7745
  578SOL    HW2 2311   2.096   3.127   3.589 -0.0404  0.4549  0.0692
  578SOL     MW 2312   2.067   3.046   3.604  0.1924  0.2614 -0.4922
  579SOL     OW 2313   2.635   4.262   3.870 -0.3526  0.1215  0.0151
  579SOL    HW1 2314   2.618   4.299   3.957  1.8412  1.8083 -0.1643
  579SOL    HW2 2315   2.608   4.331   3.809  1.4312  0.4712 -0.4424
  579SOL     MW 2316   2.629   4.276   3.874  0.1827  0.3956 -0.0706
  580SOL     OW 2317   5.223   4.735   1.825 -0.4894 -0.0240  0.2818
  580SOL    HW1 2318   5.185   4.711   1.741  1.0000  0.2691 -0.5067
  580SOL    HW2 2319   5.238   4.652   1.869  0.7926 -0.3356 -0.6981
  580SOL     MW 2320   5.220   4.721   1.820 -0.1164 -0.0265  0.0438
  581SOL     OW 2321   2.520   5.390   0.475 -0.5230  0.0946 -0.9966
  581SOL    HW1 2322   2.425   5.392   0.483 -0.5281  2.1164 -1.0317
  581SOL    HW2 2323   2.548   5.479   0.497  1.2171  0.0018 -2.5469
  581SOL     MW 2324   2.511   5.402   0.479 -0.2895  0.3542 -1.2100
  582SOL     OW 2325   3.387   4.225   4.348  0.4524  0.2692 -0.4031
  582SOL    HW1 2326   3.363   4.211   4.257  0.8079  1.0288 -0.6166
  582SOL    HW2 2327   3.384   4.320   4.360 -0.2235  0.1502  0.5541
  582SOL     MW 2328   3.383   4.236   4.338  0.4093  0.3554 -0.3030
  583SOL     OW 2329   3.455   2.178   3.104 -0.2132 -0.0973 -0.1170
  583SOL    HW1 2330   3.451   2.233   3.183  1.5805  0.2293 -0.2213
  583SOL    HW2 2331   3.442   2.089   3.137 -0.9371  0.1629  0.3373
  583SOL     MW 2332   3.452   2.174   3.119 -0.0692 -0.0183 -0.0699
  584SOL     OW 2333   0.083   1.046   5.278  0.3427 -0.0694 -0.2844
  584SOL    HW1 2334   0.059   1.137   5.260 -0.5390 -0.0290  0.9436
  584SOL    HW2 2335   0.074   1.037   5.373  4.2118 -0.3930  0.2042
  584SOL     MW 2336   0.079   1.057   5.288  0.7447 -0.1075 -0.0534
  585SOL     OW 2337   5.119   4.637   2.210  0.0496 -0.1060  0.7576
  585SOL    HW1 2338   5.144   4.595   2.127 -2.3988  0.8521 -0.5626
  585SOL    HW2 2339   5.025   4.653   2.202  0.1308  1.9847  2.8570
  585SOL     MW 2340   5.110   4.633   2.198 -0.2690  0.3043  0.8625
  586SOL     OW 2341   3.672   5.263   0.818 -0.1090 -0.4698  0.7363
  586SOL    HW1 2342   3.723   5.253   0.738  0.4204  1.6060  0.7709
  586SOL    HW2 2343   3.586   5.228   0.797  0.3541 -0.9941 -0.3518
  586SOL     MW 2344   3.668   5.257   0.805  0.0246 -0.2610  0.5945
  587SOL     OW 2345   3.165   2.140   5.446  0.1368  0.2042 -0.1375
  587SOL    HW1 2346   3.214   2.180   5.518  1.1609  1.9319 -1.7441
  587SOL    HW2 2347   3.123   2.213   5.401 -0.3358 -0.8293 -1.4435
  587SOL     MW 2348   3.166   2.155   5.450  0.2111  0.2976 -0.5295
  588SOL     OW 2349   0.328   5.094   4.842  0.1508  0.1363 -0.6063
  588SOL    HW1 2350   0.269   5.153   4.795 -0.2447 -0.0432 -0.3423
  588SOL    HW2 2351   0.329   5.014   4.789 -1.3621 -0.5701  0.3576
  588SOL     MW 2352   0.320   5.091   4.828 -0.1060  0.0171 -0.4410
  589SOL     OW 2353   1.170   3.566   2.808  0.5367 -0.5551  0.7095
  589SOL    HW1 2354   1.085   3.522   2.814  0.0802 -0.3801 -2.8007
  589SOL    HW2 2355   1.153   3.655   2.838 -0.4402 -0.6218  0.3868
  589SOL     MW 2356   1.156   3.572   2.813  0.3438 -0.5405  0.1937
  590SOL     OW 2357   1.379   4.294   1.173 -0.2092 -0.3029  0.2816
  590SOL    HW1 2358   1.357   4.203   1.153 -0.2151 -0.0871 -0.7021
  590SOL    HW2 2359   1.315   4.345   1.123  0.8689  0.2771 -0.5239
  590SOL     MW 2360   1.367   4.288   1.164 -0.0649 -0.1958  0.0408
  591SOL     OW 2361   5.205   2.934   1.779  0.4414 -0.8789  0.0401
  591SOL    HW1 2362   5.138   2.994   1.810 -0.3916 -1.8629  0.2326
  591SOL    HW2 2363   5.195   2.935   1.683  0.9169 -0.1789 -0.0062
  591SOL     MW 2364   5.195   2.942   1.770  0.3933 -0.9171  0.0598
  592SOL     OW 2365   4.469   4.960   3.284  0.3451  0.3849 -0.0816
  592SOL    HW1 2366   4.504   4.893   3.225  2.4356  1.1654  0.1940
  592SOL    HW2 2367   4.375   4.957   3.270  0.5316 -1.4317 -1.3245
  592SOL     MW 2368   4.461   4.950   3.274  0.6515  0.2455 -0.2118
  593SOL     OW 2369   1.880   0.025   4.014 -0.3304 -0.0295 -0.4141
  593SOL    HW1 2370   1.892   0.112   4.051  0.7438 -0.1981 -0.3223
  593SOL    HW2 2371   1.958   0.012   3.959 -0.4305 -0.9662 -0.3500
  593SOL     MW 2372   1.892   0.035   4.011 -0.1993 -0.1783 -0.3931
  594SOL     OW 2373   4.455   1.458   3.485 -0.1058 -0.7549  0.6782
  594SOL    HW1 2374   4.466   1.410   3.567  0.0475  0.8490  1.6513
  594SOL    HW2 2375   4.519   1.530   3.491 -1.2913  0.4051 -0.0424
  594SOL     MW 2376   4.465   1.461   3.497 -0.2447 -0.3830  0.7122
  595SOL     OW 2377   0.679   1.275   4.568  0.1702  0.0681  0.0260
  595SOL    HW1 2378   0.590   1.239   4.567  0.1649 -0.6151  4.7437
  595SOL    HW2 2379   0.734   1.205   4.533 -0.9499  0.3386 -2.5315
  595SOL     MW 2380   0.674   1.261   4.563  0.0188  0.0125  0.3167
  596SOL     OW 2381   4.700   3.007   4.701 -0.1578  0.2527 -0.0156
  596SOL    HW1 2382   4.626   3.066   4.710 -0.1507  0.2243  0.2379
  596SOL    HW2 2383   4.661   2.922   4.682 -0.1638  0.3563 -0.4735
  596SOL     MW 2384   4.685   3.003   4.700 -0.1577  0.2629 -0.0431
  597SOL     OW 2385   3.096   4.876   3.649 -0.6996 -0.0967  0.2729
  597SOL    HW1 2386   3.100   4.819   3.572 -0.0312 -0.9150  0.8928
  597SOL    HW2 2387   3.055   4.822   3.716 -0.1486  0.1810  0.8442
  597SOL     MW 2388   3.091   4.861   3.648 -0.5355 -0.1695  0.4332
  598SOL     OW 2389   0.624   4.482   2.217  0.3046 -0.3734 -0.0198
  598SOL    HW1 2390   0.538   4.521   2.237  0.5764 -0.4450  1.4377
  598SOL    HW2 2391   0.604   4.391   2.196 -0.0695 -0.1290 -0.7758
  598SOL     MW 2392   0.610   4.475   2.217  0.2909 -0.3502  0.0746
  599SOL     OW 2393   2.989  -0.020   4.321  0.4573 -0.9142 -0.1515
  599SOL    HW1 2394   3.065  -0.015   4.264  0.5922  1.7783  0.1106
  599SOL    HW2 2395   2.997   0.057   4.378 -2.7555 -0.1217 -0.5587
  599SOL     MW 2396   3.000  -0.009   4.321  0.0431 -0.4452 -0.1711
  600SOL     OW 2397   5.386   4.466   3.539 -0.2086  0.4480 -0.2155
  600SOL    HW1 2398   5.356   4.555   3.553  0.6159  0.5426  1.1245
  600SOL    HW2 2399   5.435   4.444   3.619  1.3578 -0.4638 -1.3820
  600SOL     MW 2400   5.388   4.475   3.552  0.1132  0.3380 -0.1921
  601SOL     OW 2401   3.071   3.573   0.397 -0.0711 -0.2317 -0.7227
  601SOL    HW1 2402   3.133   3.625   0.449  0.1997 -0.0518 -1.2179
  601SOL    HW2 2403   3.002   3.635   0.374 -0.5256 -0.4707 -0.0376
  601SOL     MW 2404   3.070   3.588   0.401 -0.0958 -0.2397 -0.6971
  602SOL     OW 2405   3.561   3.269   3.580  0.0537 -0.2502  0.2463
  602SOL    HW1 2406   3.623   3.316   3.523 -0.4274 -1.1871 -1.0843
  602SOL    HW2 2407   3.587   3.294   3.668  0.3262  1.8798 -0.3783
  602SOL     MW 2408   3.573   3.279   3.584  0.0256 -0.0896 -0.0168
  603SOL     OW 2409   3.852   4.141   0.848  0.1654  0.3010 -0.1433
  603SOL    HW1 2410   3.883   4.217   0.898 -2.0064  0.6556  0.7835
  603SOL    HW2 2411   3.890   4.066   0.894 -1.4403  0.6431  1.9382
  603SOL     MW 2412   3.861   4.141   0.861 -0.3429  0.3948  0.2616
  604SOL     OW 2413   1.926   5.441   1.428 -0.7334 -0.3070  0.3098
  604SOL    HW1 2414   1.894   5.531   1.425 -1.3674 -0.5230  0.4039
  604SOL    HW2 2415   2.008   5.446   1.477 -1.3006  0.0607  1.2460
  604SOL     MW 2416   1.933   5.454   1.434 -0.8951 -0.2866  0.4484
  605SOL     OW 2417   1.954   3.730   5.255 -0.3688  0.3353 -0.0046
  605SOL    HW1 2418   1.911   3.645   5.263 -0.2533  0.3798  1.3351
  605SOL    HW2 2419   2.048   3.711   5.260 -0.3141  0.4783 -0.4155
  605SOL     MW 2420   1.961   3.716   5.257 -0.3459  0.3606  0.1204
  606SOL     OW 2421   4.229   3.483   2.973 -0.6362 -0.5605 -0.1892
  606SOL    HW1 2422   4.316   3.479   2.932 -0.4915 -0.0570  0.0602
  606SOL    HW2 2423   4.237   3.426   3.050 -0.4174 -0.2483  0.0237
  606SOL     MW 2424   4.242   3.475   2.978 -0.5873 -0.4507 -0.1270
  607SOL     OW 2425   4.394   0.941   5.327  0.0364 -0.3126  0.2502
  607SOL    HW1 2426   4.455   0.998   5.374 -0.5006 -1.2720  2.2321
  607SOL    HW2 2427   4.311   0.988   5.331 -0.1873 -0.7509  1.0232
  607SOL     MW 2428   4.391   0.955   5.334 -0.0660 -0.5007  0.6210
  608SOL     OW 2429   3.968   1.556   5.072  0.5789 -0.4756  0.6889
  608SOL    HW1 2430   3.988   1.641   5.033  0.3747 -0.3509  0.8522
  608SOL    HW2 2431   3.872   1.553   5.074  0.5666 -1.1590 -0.2958
  608SOL     MW 2432   3.958   1.567   5.067  0.5498 -0.5508  0.5783
  609SOL     OW 2433   3.098   1.907   2.260 -0.3731  0.1153  0.0776
  609SOL    HW1 2434   3.032   1.886   2.326 -0.5043 -1.9749 -0.6340
  609SOL    HW2 2435   3.112   2.001   2.269 -1.1266  0.0702  2.3577
  609SOL     MW 2436   3.091   1.917   2.270 -0.4922 -0.1721  0.2887
  610SOL     OW 2437   3.272   2.256   4.318 -0.2936 -0.2046 -0.4293
  610SOL    HW1 2438   3.249   2.335   4.367  0.4763  1.3856 -2.4744
  610SOL    HW2 2439   3.360   2.273   4.285 -0.4194 -1.5965 -1.5868
  610SOL     MW 2440   3.281   2.269   4.320 -0.2069 -0.1779 -0.8603
  611SOL     OW 2441   3.915   4.338   4.010 -0.0247 -0.0777 -0.1147
  611SOL    HW1 2442   3.881   4.273   3.948 -0.4606  0.3180 -0.2900
  611SOL    HW2 2443   3.910   4.421   3.963  1.2007 -0.0007 -0.1546
  611SOL     MW 2444   3.910   4.340   3.995  0.0815 -0.0141 -0.1437
  612SOL     OW 2445   4.339   5.505   0.428  0.2032 -0.4558 -0.1675
  612SOL    HW1 2446   4.316   5.468   0.343 -1.7579  0.1779  0.0384
  612SOL    HW2 2447   4.292   5.452   0.491  0.6989 -0.1858  0.4359
  612SOL     MW 2448   4.330   5.493   0.425  0.0060 -0.3342 -0.0586
  613SOL     OW 2449   1.185   1.387   5.369 -0.7012 -0.2318 -0.0554
  613SOL    HW1 2450   1.094   1.361   5.357 -0.4484 -0.7599 -0.9188
  613SOL    HW2 2451   1.181   1.462   5.428 -1.6314 -0.7320  0.5444
  613SOL     MW 2452   1.172   1.394   5.376 -0.7924 -0.3702 -0.0909
  614SOL     OW 2453   0.893   5.186   2.760  0.1224  0.6933 -0.1920
  614SOL    HW1 2454   0.928   5.175   2.848  0.8022 -0.6292 -0.5917
  614SOL    HW2 2455   0.817   5.243   2.770  0.3249  0.7310  1.2130
  614SOL     MW 2456   0.887   5.192   2.773  0.2412  0.5204 -0.0567
  615SOL     OW 2457   1.367   0.670   1.146 -0.1563  0.0920 -0.6198
  615SOL    HW1 2458   1.330   0.756   1.127  0.7049  0.5989 -0.0854
  615SOL    HW2 2459   1.461   0.681   1.131 -0.0331 -0.7383 -0.4849
  615SOL     MW 2460   1.374   0.683   1.141 -0.0238  0.0485 -0.5297
  616SOL     OW 2461   3.949   1.043   0.661  0.4576 -0.3024 -0.0575
  616SOL    HW1 2462   4.025   1.039   0.718 -0.7079 -1.4158  1.5086
  616SOL    HW2 2463   3.928   0.951   0.643 -1.4063 -0.1007  0.8492
  616SOL     MW 2464   3.956   1.030   0.666  0.0499 -0.4251  0.2753
  617SOL     OW 2465   1.879   2.231   1.797 -0.1800 -0.0762  0.3066
  617SOL    HW1 2466   1.908   2.141   1.787  0.3114  0.0645  0.4259
  617SOL    HW2 2467   1.843   2.255   1.711  0.8589  0.0227 -0.1181
  617SOL     MW 2468   1.878   2.222   1.784  0.0260 -0.0439  0.2655
  618SOL     OW 2469   1.494   3.962   0.896 -0.4846  0.3542 -0.2046
  618SOL    HW1 2470   1.496   3.975   0.801  0.2726 -0.6319 -0.3411
  618SOL    HW2 2471   1.551   4.030   0.931 -0.6950  0.6663 -0.4603
  618SOL     MW 2472   1.502   3.973   0.888 -0.4110  0.2635 -0.2574
  619SOL     OW 2473   3.280   5.523   0.111 -0.1839  0.3689 -0.7064
  619SOL    HW1 2474   3.233   5.583   0.170 -0.0790  0.5259 -0.7819
  619SOL    HW2 2475   3.218   5.453   0.094 -0.3079  0.4555 -0.6145
  619SOL     MW 2476   3.265   5.522   0.117 -0.1864  0.4017 -0.7042
  620SOL     OW 2477   2.553   5.283   2.521 -0.0824 -0.2052  0.4464
  620SOL    HW1 2478   2.469   5.318   2.551  0.7000  1.4969  0.8051
  620SOL    HW2 2479   2.539   5.263   2.428 -1.2839 -1.3747  0.8468
  620SOL     MW 2480   2.540   5.285   2.512 -0.1388 -0.1336  0.5486
  621SOL     OW 2481   3.712   2.687   1.809  0.3652  0.0552  0.0178
  621SOL    HW1 2482   3.660   2.726   1.739 -0.7672 -1.0082  0.2235
  621SOL    HW2 2483   3.685   2.596   1.811  1.6608 -0.3407  0.7018
  621SOL     MW 2484   3.701   2.680   1.800  0.3872 -0.1412  0.1376
  622SOL     OW 2485   4.121   1.385   0.466 -0.5096  0.3725  0.3170
  622SOL    HW1 2486   4.160   1.361   0.550  0.2807  1.2286  0.2137
  622SOL    HW2 2487   4.169   1.334   0.401 -1.8296 -1.0962  0.4421
  622SOL     MW 2488   4.133   1.375   0.468 -0.5809  0.2900  0.3199
  623SOL     OW 2489   0.739   1.305   4.832 -0.0278  0.0887 -0.3654
  623SOL    HW1 2490   0.742   1.217   4.870  1.5888  0.5760  0.7826
  623SOL    HW2 2491   0.709   1.292   4.743  0.6700 -1.7141 -0.3815
  623SOL     MW 2492   0.735   1.292   4.825  0.2837 -0.0884 -0.2130
  624SOL     OW 2493   0.438   2.212   0.415  0.3887  0.3963 -0.1626
  624SOL    HW1 2494   0.366   2.167   0.459 -0.1899  0.5214 -0.9480
  624SOL    HW2 2495   0.489   2.251   0.486 -0.5904  0.7156  0.3942
  624SOL     MW 2496   0.435   2.211   0.430  0.1790  0.4561 -0.1934
  625SOL     OW 2497   0.362   5.318   1.575 -0.2701  0.3543  0.1601
  625SOL    HW1 2498   0.280   5.279   1.606  0.3829  0.7136  2.5792
  625SOL    HW2 2499   0.393   5.258   1.507 -1.7798 -0.6168  0.2869
  625SOL     MW 2500   0.355   5.304   1.570 -0.3854  0.2719  0.5027
  626SOL     OW 2501   4.137   1.285   1.936 -0.1565 -0.1151 -0.0787
  626SOL    HW1 2502   4.175   1.197   1.931  0.1552  0.0372 -0.4900
  626SOL    HW2 2503   4.149   1.311   2.027  1.1240  0.0968 -0.2894
  626SOL     MW 2504   4.144   1.276   1.948  0.0578 -0.0661 -0.1624
  627SOL     OW 2505   2.848   3.907   5.198  0.3033 -0.5629  0.3876
  627SOL    HW1 2506   2.895   3.824   5.192  0.3726 -0.6433  1.7655
  627SOL    HW2 2507   2.847   3.940   5.108  0.1494 -2.1077 -0.2090
  627SOL     MW 2508   2.854   3.901   5.185  0.2919 -0.7816  0.4928
  628SOL     OW 2509   5.086   1.089   4.548 -0.0719 -0.3353  0.2012
  628SOL    HW1 2510   5.109   1.034   4.623  0.6908  0.4697  0.5729
  628SOL    HW2 2511   5.153   1.158   4.548  0.1805 -0.5462 -1.4575
  628SOL     MW 2512   5.098   1.091   4.558  0.0647 -0.2553  0.0280
  629SOL     OW 2513   5.385   4.015   1.271 -0.0155 -0.0570  0.3920
  629SOL    HW1 2514   5.428   4.087   1.317  0.5979 -1.1147  1.5366
  629SOL    HW2 2515   5.443   3.939   1.286 -0.3583 -0.6733 -1.2284
  629SOL     MW 2516   5.399   4.014   1.279  0.0209 -0.2823  0.3280
  630SOL     OW 2517   0.327   2.357   1.809 -0.2567  0.1148  0.1685
  630SOL    HW1 2518   0.248   2.335   1.759 -0.0623  1.4388 -0.7935
  630SOL    HW2 2519   0.297   2.372   1.898 -0.5720 -2.6227  0.6125
  630SOL     MW 2520   0.313   2.356   1.814 -0.2730 -0.0754  0.0988
  631SOL     OW 2521   1.532   2.866   5.448  0.3899  0.3674  0.1206
  631SOL    HW1 2522   1.528   2.961   5.441  0.7177  0.3277 -0.7219
  631SOL    HW2 2523   1.566   2.849   5.536  1.1839  1.0467 -0.0434
  631SOL     MW 2524   1.536   2.876   5.459  0.5409  0.4535 -0.0148
  632SOL     OW 2525   4.553   0.679   0.323  0.0694 -0.1486 -0.1495
  632SOL    HW1 2526   4.472   0.714   0.285  0.1793 -0.6491 -0.8511
  632SOL    HW2 2527   4.536   0.586   0.333 -0.5960  0.1764  2.6636
  632SOL     MW 2528   4.540   0.671   0.320 -0.0054 -0.1722  0.1347
  633SOL     OW 2529   0.366   1.498   1.251 -0.0602 -0.1309  0.3108
  633SOL    HW1 2530   0.298   1.479   1.187  0.7850  0.1836 -0.7045
  633SOL    HW2 2531   0.396   1.412   1.281 -0.2598 -0.2825  0.0753
  633SOL     MW 2532   0.361   1.484   1.247  0.0267 -0.1090  0.1425
  634SOL     OW 2533   4.833   5.417   2.025 -0.4426 -0.4697  0.3775
  634SOL    HW1 2534   4.830   5.492   2.084  2.1143 -0.1300  0.1728
  634SOL    HW2 2535   4.909   5.433   1.969 -0.7499 -2.4671 -0.7019
  634SOL     MW 2536   4.843   5.429   2.025 -0.1398 -0.6928  0.2047
  635SOL     OW 2537   2.229   1.147   3.819  0.4622  0.0002  0.1329
  635SOL    HW1 2538   2.190   1.218   3.767 -0.5120 -1.3553 -1.0582
  635SOL    HW2 2539   2.323   1.158   3.807  0.2804 -0.1483 -1.8069
  635SOL     MW 2540   2.236   1.158   3.810  0.3066 -0.2022 -0.2885
  636SOL     OW 2541   5.081   4.986   1.807 -0.1594  0.3101 -0.0688
  636SOL    HW1 2542   5.133   5.014   1.731 -0.3211 -0.9744 -0.6799
  636SOL    HW2 2543   5.126   4.907   1.838  0.1912  1.0856  1.5019
  636SOL     MW 2544   5.094   4.979   1.801 -0.1340  0.2416  0.0604
  637SOL     OW 2545   4.495   3.370   0.032 -0.0216  0.5393 -0.4546
  637SOL    HW1 2546   4.455   3.304   0.088 -0.6607  0.9381 -0.4307
  637SOL    HW2 2547   4.465   3.453   0.068  1.0418  0.8622 -0.2848
  637SOL     MW 2548   4.486   3.372   0.044  0.0355  0.6364 -0.4285
  638SOL     OW 2549   1.398   4.240   0.542 -0.1266 -0.1708 -0.0009
  638SOL    HW1 2550   1.306   4.229   0.518 -0.1065  1.1976 -0.7660
  638SOL    HW2 2551   1.446   4.222   0.461  0.0528  2.5072 -0.5693
  638SOL     MW 2552   1.392   4.236   0.528 -0.0997  0.3738 -0.1804
  639SOL     OW 2553   2.351   5.234   5.475 -0.0064 -0.1139 -0.0315
  639SOL    HW1 2554   2.287   5.191   5.419  0.4200 -0.1738 -0.4714
  639SOL    HW2 2555   2.354   5.180   5.554  0.7966 -1.1230 -0.7230
  639SOL     MW 2556   2.343   5.221   5.478  0.1590 -0.2578 -0.1838
  640SOL     OW 2557   4.135   4.364   0.245 -0.2639 -0.3284 -0.7723
  640SOL    HW1 2558   4.175   4.277   0.250 -0.0860 -0.1773  1.0189
  640SOL    HW2 2559   4.204   4.423   0.274 -1.0314  0.1866  0.0487
  640SOL     MW 2560   4.150   4.360   0.250 -0.3433 -0.2388 -0.4208
  641SOL     OW 2561   4.103   5.287   5.405 -0.1798  0.3154  0.2062
  641SOL    HW1 2562   4.131   5.377   5.387 -0.4761  0.3734  0.0416
  641SOL    HW2 2563   4.014   5.295   5.438 -1.2736 -0.0992 -2.4355
  641SOL     MW 2564   4.095   5.301   5.407 -0.3669  0.2674 -0.1715
  642SOL     OW 2565   3.167   0.915   0.926 -0.7826  0.3589  0.1557
  642SOL    HW1 2566   3.100   0.974   0.961  0.6823  1.0318  1.9976
  642SOL    HW2 2567   3.142   0.829   0.959 -1.6117  0.3129 -0.5451
  642SOL     MW 2568   3.154   0.912   0.935 -0.6970  0.4432  0.3092
  643SOL     OW 2569   0.238   3.599   4.526  0.2125  0.3551  0.5187
  643SOL    HW1 2570   0.161   3.652   4.548 -1.1687 -0.9291 -0.9621
  643SOL    HW2 2571   0.271   3.568   4.610 -0.0644  2.0263  1.2687
  643SOL     MW 2572   0.232   3.602   4.540 -0.0106  0.4072  0.4203
  644SOL     OW 2573   0.825   3.119   0.422 -0.1187 -0.1994  0.6268
  644SOL    HW1 2574   0.800   3.064   0.496  0.0807 -0.5595  0.4321
  644SOL    HW2 2575   0.750   3.176   0.407 -0.7216 -1.0742  0.2187
  644SOL     MW 2576   0.812   3.119   0.430 -0.1730 -0.3656  0.5457
  645SOL     OW 2577   1.178   5.168   4.313  0.4691 -0.4663 -0.5127
  645SOL    HW1 2578   1.187   5.169   4.218  0.7087  1.1041 -0.4889
  645SOL    HW2 2579   1.178   5.260   4.339 -2.8083 -0.6593  0.7105
  645SOL     MW 2580   1.179   5.180   4.304  0.0603 -0.2809 -0.3449
  646SOL     OW 2581   2.706   3.863   3.821  0.0113 -0.2027 -0.1149
  646SOL    HW1 2582   2.711   3.767   3.826 -1.8927 -0.3058  0.5615
  646SOL    HW2 2583   2.619   3.880   3.785  0.4331  1.2965 -0.4894
  646SOL     MW 2584   2.695   3.852   3.817 -0.1882 -0.0148 -0.0743
  647SOL     OW 2585   4.808   1.264   4.369 -0.1185  0.6907 -0.5130
  647SOL    HW1 2586   4.767   1.297   4.289  0.6372 -0.3522 -1.3541
  647SOL    HW2 2587   4.735   1.240   4.426 -0.6568  1.1270 -1.0120
  647SOL     MW 2588   4.793   1.265   4.366 -0.0892  0.6091 -0.6933
  648SOL     OW 2589   4.888   1.201   0.984  0.1127 -0.2515 -0.1724
  648SOL    HW1 2590   4.848   1.266   0.927  1.3447 -0.6128 -1.5013
  648SOL    HW2 2591   4.884   1.241   1.071 -0.9515  0.7196 -0.6281
  648SOL     MW 2592   4.882   1.215   0.988  0.1353 -0.1695 -0.4126
  649SOL     OW 2593   4.252   5.231   3.070  0.0481 -0.1047 -0.2956
  649SOL    HW1 2594   4.261   5.321   3.101  1.8873 -0.5354  0.5644
  649SOL    HW2 2595   4.177   5.195   3.118  0.2953  0.4958  0.5460
  649SOL     MW 2596   4.243   5.238   3.081  0.3289 -0.0819 -0.0666
  650SOL     OW 2597   4.716   2.918   2.348  0.1760  0.0149 -0.0360
  650SOL    HW1 2598   4.772   2.963   2.284  0.0516  1.0717  0.5676
  650SOL    HW2 2599   4.729   2.825   2.330  0.1470  0.2785 -1.5938
  650SOL     MW 2600   4.726   2.912   2.337  0.1553  0.1926 -0.1644
  651SOL     OW 2601   0.456   3.318   2.772  0.6037 -0.5046  0.1969
  651SOL    HW1 2602   0.453   3.223   2.760  0.0179 -0.5138  0.3920
  651SOL    HW2 2603   0.370   3.341   2.805  1.0551 -0.0258  1.0834
  651SOL     MW 2604   0.444   3.308   2.775  0.5856 -0.4414  0.3425
  652SOL     OW 2605   1.907   4.173   1.872 -0.4819  0.3932 -0.3527
  652SOL    HW1 2606   1.855   4.105   1.830  0.2590  0.5131 -1.5103
  652SOL    HW2 2607   1.943   4.224   1.800  2.7757 -0.8031  0.2582
  652SOL     MW 2608   1.905   4.171   1.857  0.0562  0.2483 -0.4263
  653SOL     OW 2609   1.272   2.552   3.580 -0.2538  0.1479  0.1249
  653SOL    HW1 2610   1.196   2.506   3.616 -0.8019  0.1833 -0.9296
  653SOL    HW2 2611   1.318   2.587   3.656 -1.8514  0.9865  0.7430
  653SOL     MW 2612   1.268   2.550   3.595 -0.5426  0.2655  0.0662
  654SOL     OW 2613   0.182   2.812   1.615 -0.5721 -0.2217 -0.3326
  654SOL    HW1 2614   0.091   2.835   1.595 -0.6320 -0.6830 -0.6235
  654SOL    HW2 2615   0.202   2.741   1.553 -0.5484 -1.2481  0.8030
  654SOL     MW 2616   0.172   2.805   1.604 -0.5769 -0.4219 -0.2189
  655SOL     OW 2617   0.312   0.127   3.237  0.4492  0.2850  0.1456
  655SOL    HW1 2618   0.220   0.148   3.224  0.6290  1.8917  1.1542
  655SOL    HW2 2619   0.312   0.039   3.275 -0.7892  0.8633  1.5766
  655SOL     MW 2620   0.300   0.118   3.241  0.3068  0.5791  0.4739
  656SOL     OW 2621   0.906   3.272   0.944  0.1198 -0.2733  0.1539
  656SOL    HW1 2622   0.945   3.348   0.988 -1.0486  0.9139 -0.7513
  656SOL    HW2 2623   0.922   3.287   0.851  0.3682 -1.4472  0.0001
  656SOL     MW 2624   0.913   3.285   0.938 -0.0040 -0.2715  0.0114
  657SOL     OW 2625   3.700   1.773   0.898 -0.3699 -0.1345  0.0093
  657SOL    HW1 2626   3.652   1.794   0.817 -1.1767  0.9572  0.7455
  657SOL    HW2 2627   3.782   1.735   0.868 -2.3660 -3.9601 -1.3555
  657SOL     MW 2628   3.704   1.771   0.883 -0.7471 -0.5024 -0.0753
  658SOL     OW 2629   4.513   0.504   2.751  0.0335  0.5691  0.7766
  658SOL    HW1 2630   4.427   0.484   2.713 -0.2800 -1.5192  2.3749
  658SOL    HW2 2631   4.497   0.581   2.806 -0.5397  0.8599  0.2286
  658SOL     MW 2632   4.499   0.512   2.753 -0.0858  0.3272  0.9179
  659SOL     OW 2633   2.877   1.929   5.314  0.4199 -0.0976 -0.1091
  659SOL    HW1 2634   2.897   1.980   5.393 -0.0668 -3.0865  2.0988
  659SOL    HW2 2635   2.949   1.866   5.308 -0.4733 -1.0442 -1.0693
  659SOL     MW 2636   2.890   1.928   5.324  0.2342 -0.6273  0.0588
  660SOL     OW 2637   5.107   0.469   1.746  0.3099  0.5911 -0.0014
  660SOL    HW1 2638   5.158   0.400   1.788 -0.0947 -0.2565 -0.8547
  660SOL    HW2 2639   5.017   0.453   1.774  0.4181  1.8044  1.1317
  660SOL     MW 2640   5.102   0.458   1.755  0.2700  0.6403  0.0362
  661SOL     OW 2641   3.668   3.859   1.550 -0.2198 -0.1589  0.5014
  661SOL    HW1 2642   3.733   3.923   1.522 -1.2462  1.2056  1.1551
  661SOL    HW2 2643   3.656   3.802   1.474  1.1132  0.0675  0.1026
  661SOL     MW 2644   3.675   3.860   1.536 -0.1785  0.0552  0.5357
  662SOL     OW 2645   4.842   1.118   2.959  0.4944 -0.3892  0.1111
  662SOL    HW1 2646   4.852   1.209   2.988  0.6410 -0.9256  1.8311
  662SOL    HW2 2647   4.754   1.094   2.986  0.1286 -0.4907 -1.1456
  662SOL     MW 2648   4.832   1.127   2.967  0.4649 -0.4750  0.1734
  663SOL     OW 2649   2.533   2.760   2.647  0.1462  0.0038 -0.2992
  663SOL    HW1 2650   2.444   2.768   2.611  0.3392  0.4909 -0.6863
  663SOL    HW2 2651   2.589   2.802   2.581  0.3154  2.8572  1.4879
  663SOL     MW 2652   2.528   2.767   2.633  0.1950  0.4534 -0.1108
  664SOL     OW 2653   2.553   4.824   0.920 -0.2256  0.2072 -0.4083
  664SOL    HW1 2654   2.547   4.883   0.996  0.7027  1.0336 -0.9564
  664SOL    HW2 2655   2.464   4.823   0.884 -0.6908 -0.2240  0.6890
  664SOL     MW 2656   2.540   4.832   0.925 -0.1633  0.2604 -0.3344
  665SOL     OW 2657   5.204   4.915   0.589 -0.6427  0.2166 -0.0025
  665SOL    HW1 2658   5.174   4.972   0.518 -0.8495 -0.8405 -0.7986
  665SOL    HW2 2659   5.217   4.974   0.664  2.5136  1.8858 -1.6765
  665SOL     MW 2660   5.202   4.931   0.590 -0.2458  0.2990 -0.3350
  666SOL     OW 2661   1.625   5.489   4.449 -0.2306 -0.1119  0.0225
  666SOL    HW1 2662   1.630   5.584   4.438  0.5184  0.0168  1.2125
  666SOL    HW2 2663   1.633   5.454   4.361  1.5612  0.8831 -0.2623
  666SOL     MW 2664   1.627   5.497   4.436  0.1114  0.0394  0.1443
  667SOL     OW 2665   3.475   0.947   2.485  0.1592 -0.3925  0.2396
  667SOL    HW1 2666   3.560   0.955   2.529  0.0561 -1.1804  0.5928
  667SOL    HW2 2667   3.468   1.026   2.432  0.2985  0.5614  1.6069
  667SOL     MW 2668   3.486   0.959   2.484  0.1641 -0.3701  0.4711
  668SOL     OW 2669   0.402   1.944   2.929  0.1307 -0.5967  0.1219
  668SOL    HW1 2670   0.451   2.000   2.989 -0.2212  0.5380 -0.6289
  668SOL    HW2 2671   0.353   2.005   2.873 -0.7356 -1.6611 -0.3187
  668SOL     MW 2672   0.402   1.960   2.930 -0.0333 -0.5872 -0.0385
  669SOL     OW 2673   1.054   2.108   0.388 -0.2864 -0.3548  0.3084
  669SOL    HW1 2674   1.092   2.155   0.313  0.0601  0.0541  0.7248
  669SOL    HW2 2675   1.002   2.039   0.350 -0.3972  0.0672 -0.3203
  669SOL     MW 2676   1.052   2.105   0.373 -0.2547 -0.2430  0.2798
  670SOL     OW 2677   4.867   0.430   0.393  0.5058 -0.8382 -0.6669
  670SOL    HW1 2678   4.881   0.439   0.487  1.5950  1.0489 -0.9661
  670SOL    HW2 2679   4.947   0.390   0.360  0.6114 -0.4098 -0.9375
  670SOL     MW 2680   4.879   0.426   0.401  0.6666 -0.5266 -0.7436
  671SOL     OW 2681   0.911   4.787   0.790 -0.1943  0.5164  0.3545
  671SOL    HW1 2682   0.821   4.814   0.775 -0.1374  1.4670  1.5465
  671SOL    HW2 2683   0.958   4.814   0.711 -1.3307 -2.1131 -1.3356
  671SOL     MW 2684   0.905   4.794   0.778 -0.3396  0.2904  0.2875
  672SOL     OW 2685   0.343   2.761   3.237  0.0998  0.6831  0.1334
  672SOL    HW1 2686   0.398   2.755   3.159  0.4587 -1.0519  0.4702
  672SOL    HW2 2687   0.405   2.769   3.310 -0.0852 -0.4770  0.4458
  672SOL     MW 2688   0.359   2.761   3.236  0.1232  0.2935  0.2208
  673SOL     OW 2689   3.550   0.022   0.166 -0.3061 -0.1483  0.0868
  673SOL    HW1 2690   3.557   0.100   0.221  1.6941  0.1568 -0.5323
  673SOL    HW2 2691   3.457   0.018   0.142 -0.6296  1.4757  0.9283
  673SOL     MW 2692   3.538   0.032   0.170 -0.0805  0.1113  0.1167
  674SOL     OW 2693   3.477   1.729   1.745 -0.1406 -0.1667 -0.3403
  674SOL    HW1 2694   3.497   1.712   1.653  1.4685  1.3392 -0.3300
  674SOL    HW2 2695   3.457   1.823   1.747 -3.0034 -0.7061  0.4418
  674SOL     MW 2696   3.477   1.739   1.733 -0.3093 -0.0366 -0.2336
  675SOL     OW 2697   3.754   5.242   3.144  0.4777 -0.1598 -0.4510
  675SOL    HW1 2698   3.694   5.212   3.075  0.2669  0.3435 -0.4841
  675SOL    HW2 2699   3.699   5.248   3.222  1.2292 -3.4378  0.5098
  675SOL     MW 2700   3.739   5.238   3.145  0.5504 -0.5332 -0.3262
  676SOL     OW 2701   2.543   3.633   0.480  0.2590  0.5451 -0.5787
  676SOL    HW1 2702   2.540   3.543   0.448  1.9422  0.2442  0.0397
  676SOL    HW2 2703   2.459   3.645   0.525  0.0592 -0.7415 -0.5743
  676SOL     MW 2704   2.531   3.623   0.482  0.4587  0.3314 -0.4949
  677SOL     OW 2705   5.272   3.540   2.263  0.0474  0.0179 -0.2895
  677SOL    HW1 2706   5.297   3.629   2.290 -0.6453 -0.1352  0.9068
  677SOL    HW2 2707   5.184   3.550   2.225 -0.5068 -0.2979  0.8624
  677SOL     MW 2708   5.263   3.554   2.262 -0.1204 -0.0452  0.0265
  678SOL     OW 2709   0.723   3.393   4.609 -0.3458  0.0577 -0.4396
  678SOL    HW1 2710   0.811   3.377   4.576  0.1022  0.5000  0.4714
  678SOL    HW2 2711   0.736   3.451   4.685 -1.2135 -1.6153  1.0690
  678SOL     MW 2712   0.736   3.399   4.615 -0.4023 -0.1079 -0.1140
  679SOL     OW 2713   4.220   3.734   0.064  0.2790  0.2106  0.1793
  679SOL    HW1 2714   4.196   3.714  -0.027 -0.5491 -1.6733  0.7779
  679SOL    HW2 2715   4.285   3.668   0.087  0.8704  0.9930  0.8355
  679SOL     MW 2716   4.226   3.722   0.055  0.2471  0.0623  0.3482
  680SOL     OW 2717   3.162   0.978   3.277  0.0771 -0.4515  0.2395
  680SOL    HW1 2718   3.091   1.029   3.315 -0.2840 -1.5446  1.0703
  680SOL    HW2 2719   3.204   1.038   3.215 -1.3414  0.3210 -0.0101
  680SOL     MW 2720   3.158   0.993   3.274 -0.1624 -0.4946  0.3177
  681SOL     OW 2721   2.372   0.614   1.129 -0.1420 -0.2401  0.2761
  681SOL    HW1 2722   2.395   0.699   1.092  0.5576 -0.9603 -1.0370
  681SOL    HW2 2723   2.280   0.621   1.153  0.0674  1.0650  0.7487
  681SOL     MW 2724   2.363   0.626   1.127 -0.0197 -0.1614  0.1630
  682SOL     OW 2725   3.928   0.879   1.952 -0.2329 -0.1990  0.4449
  682SOL    HW1 2726   3.917   0.946   1.884 -1.2413  0.7299  1.4854
  682SOL    HW2 2727   3.906   0.924   2.034  1.6313 -1.0879  1.5036
  682SOL     MW 2728   3.924   0.894   1.954 -0.1177 -0.1936  0.7274
  683SOL     OW 2729   3.324   2.760   2.911  0.1846  0.0946  0.5786
  683SOL    HW1 2730   3.385   2.726   2.846  0.1392  0.7536  0.1845
  683SOL    HW2 2731   3.378   2.807   2.974  0.0895  0.7389  0.1911
  683SOL     MW 2732   3.339   2.762   2.911  0.1657  0.2700  0.4734
  684SOL     OW 2733   0.736   5.352   3.965  0.0144 -0.3337 -0.3090
  684SOL    HW1 2734   0.708   5.429   3.915 -0.6115  0.4308  1.1627
  684SOL    HW2 2735   0.713   5.278   3.909  1.4901  0.5400 -2.1756
  684SOL     MW 2736   0.729   5.352   3.951  0.1288 -0.1132 -0.3621
  685SOL     OW 2737   5.366   0.633   0.430 -0.0657  0.3608  0.3459
  685SOL    HW1 2738   5.328   0.546   0.419  1.3347 -0.0847 -1.5815
  685SOL    HW2 2739   5.321   0.670   0.506 -2.5933 -0.9967 -0.4005
  685SOL     MW 2740   5.355   0.626   0.439 -0.2174  0.1181 -0.0139
  686SOL     OW 2741   0.405   2.463   4.074 -0.5375  0.1835  0.3516
  686SOL    HW1 2742   0.480   2.476   4.132  2.1859 -1.6481 -2.4077
  686SOL    HW2 2743   0.372   2.551   4.057  1.8194  1.2019  0.7138
  686SOL     MW 2744   0.411   2.477   4.080  0.1462  0.0741  0.0290
  687SOL     OW 2745   2.961   0.755   2.885 -0.0959  0.3482  0.1205
  687SOL    HW1 2746   2.942   0.766   2.791 -0.5111 -0.8482  0.0446
  687SOL    HW2 2747   2.921   0.671   2.907  1.8533 -0.4253  0.8841
  687SOL     MW 2748   2.953   0.745   2.875  0.1106  0.0831  0.2130
  688SOL     OW 2749   2.012   4.831   4.159  0.4685 -0.1795 -0.4088
  688SOL    HW1 2750   2.006   4.884   4.238 -1.2792 -1.3328  0.2901
  688SOL    HW2 2751   2.089   4.865   4.113  0.6964  1.4464  1.0780
  688SOL     MW 2752   2.022   4.842   4.163  0.2640 -0.1159 -0.1147
  689SOL     OW 2753   4.387   3.368   0.882  0.1296  0.0116  0.0454
  689SOL    HW1 2754   4.376   3.345   0.974  1.2445 -1.3395 -0.1177
  689SOL    HW2 2755   4.304   3.408   0.856 -0.6350 -0.7208  1.3008
  689SOL     MW 2756   4.375   3.371   0.891  0.1768 -0.2688  0.1924
  690SOL     OW 2757   2.979   4.965   4.033  0.1397  0.0918 -0.2640
  690SOL    HW1 2758   2.989   4.898   3.965 -0.1375  0.0867 -0.3034
  690SOL    HW2 2759   2.884   4.977   4.040  0.1999  2.2420 -2.0162
  690SOL     MW 2760   2.967   4.957   4.024  0.1105  0.3804 -0.5051
  691SOL     OW 2761   3.093   3.372   2.395 -0.2176 -0.4686  0.1052
  691SOL    HW1 2762   3.083   3.302   2.331  1.1730 -1.0982  0.5424
  691SOL    HW2 2763   3.181   3.359   2.432  0.2334  1.7002 -0.0499
  691SOL     MW 2764   3.104   3.361   2.392  0.0302 -0.2615  0.1432
  692SOL     OW 2765   2.279   0.479   1.845  0.4445  0.0511 -0.3278
  692SOL    HW1 2766   2.300   0.490   1.938  0.4353  0.1483 -0.3369
  692SOL    HW2 2767   2.347   0.419   1.812 -0.4289 -1.1953  0.0756
  692SOL     MW 2768   2.291   0.473   1.853  0.3257 -0.1036 -0.2748
  693SOL     OW 2769   4.104   2.030   1.361 -0.3606 -0.1515  0.3969
  693SOL    HW1 2770   4.019   2.067   1.385 -0.3964 -0.5435  0.9019
  693SOL    HW2 2771   4.155   2.035   1.442 -0.0813 -0.3996  0.2363
  693SOL     MW 2772   4.099   2.035   1.375 -0.3278 -0.2377  0.4432
  694SOL     OW 2773   4.237   1.399   3.837  0.0428 -0.2885  0.0250
  694SOL    HW1 2774   4.146   1.375   3.824  0.2922 -0.9101 -0.5870
  694SOL    HW2 2775   4.241   1.492   3.815 -0.7493  0.1667  1.6035
  694SOL     MW 2776   4.226   1.409   3.833 -0.0302 -0.3109  0.1551
  695SOL     OW 2777   0.137   5.216   1.717 -0.0879 -0.2640  0.3934
  695SOL    HW1 2778   0.166   5.125   1.719  2.0551  0.2608 -1.6307
  695SOL    HW2 2779   0.073   5.220   1.647  0.5084 -0.0737 -0.1514
  695SOL     MW 2780   0.133   5.205   1.708  0.2808 -0.1678  0.0477
  696SOL     OW 2781   5.196   2.353   1.213 -0.0494 -0.0928 -0.0931
  696SOL    HW1 2782   5.160   2.355   1.302 -0.8796 -0.6032 -0.4077
  696SOL    HW2 2783   5.182   2.263   1.183  0.5678 -0.0242 -0.6046
  696SOL     MW 2784   5.189   2.341   1.221 -0.0781 -0.1523 -0.2043
  697SOL     OW 2785   4.406   3.703   1.723 -0.0483  0.0515  0.3315
  697SOL    HW1 2786   4.403   3.608   1.735 -1.5013  0.0306  0.0115
  697SOL    HW2 2787   4.314   3.728   1.712  0.3307  1.4827  0.2981
  697SOL     MW 2788   4.393   3.693   1.723 -0.1929  0.2413  0.2840
  698SOL     OW 2789   1.118   1.686   0.336  0.2400  0.6410 -0.2519
  698SOL    HW1 2790   1.103   1.636   0.256 -2.0392 -1.7714  1.5309
  698SOL    HW2 2791   1.196   1.738   0.317  0.5543 -0.7819 -3.5500
  698SOL     MW 2792   1.126   1.687   0.323 -0.0244  0.1248 -0.4558
  699SOL     OW 2793   0.132   3.293   0.891  0.1454  0.3143  0.2042
  699SOL    HW1 2794   0.138   3.204   0.926 -0.6636  1.0556  2.3976
  699SOL    HW2 2795   0.214   3.305   0.843 -0.1007 -1.8726 -0.9023
  699SOL     MW 2796   0.144   3.282   0.889  0.0034  0.1198  0.3505
  700SOL     OW 2797   3.666   1.521   2.408 -0.3412  0.5047 -0.2317
  700SOL    HW1 2798   3.686   1.428   2.410 -1.9002  0.1348 -0.9765
  700SOL    HW2 2799   3.727   1.559   2.471  1.5290 -0.7506 -1.1792
  700SOL     MW 2800   3.677   1.514   2.417 -0.2993  0.2859 -0.4594
  701SOL     OW 2801   2.769   0.802   5.309  0.6315 -0.0390  0.0723
  701SOL    HW1 2802   2.843   0.816   5.368  0.0865 -0.9634  1.0159
  701SOL    HW2 2803   2.779   0.869   5.241  0.3427  2.2441  2.1408
  701SOL     MW 2804   2.780   0.813   5.308  0.5193  0.1439  0.4777
  702SOL     OW 2805   2.917   1.219   3.165 -0.1892 -0.2487  0.1434
  702SOL    HW1 2806   2.960   1.144   3.124  0.9262  0.1274  0.5694
  702SOL    HW2 2807   2.912   1.196   3.258 -0.4429 -0.0687  0.1754
  702SOL     MW 2808   2.922   1.206   3.172 -0.0733 -0.1738  0.2051
  703SOL     OW 2809   2.475   5.192   5.146 -0.7682 -0.3189 -0.3708
  703SOL    HW1 2810   2.457   5.153   5.231 -1.1654  1.4488  0.3808
  703SOL    HW2 2811   2.528   5.269   5.165  0.3351 -0.6376 -1.8579
  703SOL     MW 2812   2.480   5.197   5.160 -0.6732 -0.1239 -0.4698
  704SOL     OW 2813   1.210   3.428   3.886 -0.0978  0.4628 -0.1030
  704SOL    HW1 2814   1.251   3.514   3.898  0.2820  0.4805 -1.4082
  704SOL    HW2 2815   1.116   3.445   3.898 -0.0245  1.0666 -0.3435
  704SOL     MW 2816   1.203   3.442   3.889 -0.0368  0.5465 -0.3110
  705SOL     OW 2817   1.751   5.160   4.442 -0.1386  0.1408  0.5650
  705SOL    HW1 2818   1.791   5.238   4.403 -0.7466  0.7246  1.0864
  705SOL    HW2 2819   1.803   5.088   4.408  0.5088  0.7780  0.1582
  705SOL     MW 2820   1.763   5.161   4.432 -0.1333  0.3051  0.5804
  706SOL     OW 2821   1.384   2.256   3.370 -0.0136 -0.0139 -0.3802
  706SOL    HW1 2822   1.415   2.257   3.461  1.6169 -0.6571 -0.9117
  706SOL    HW2 2823   1.415   2.339   3.334 -0.8211  0.3263 -0.3339
  706SOL     MW 2824   1.392   2.268   3.378  0.0971 -0.0547 -0.4455
  707SOL     OW 2825   1.138   0.911   4.355  0.0838  0.0287  0.4290
  707SOL    HW1 2826   1.110   0.822   4.376 -1.5256  0.5502  0.6721
  707SOL    HW2 2827   1.130   0.959   4.438  0.2949  0.5433  0.1603
  707SOL     MW 2828   1.133   0.906   4.369 -0.1044  0.1682  0.4255
  708SOL     OW 2829   0.803   1.680   0.594  0.0300 -0.0113 -0.0081
  708SOL    HW1 2830   0.897   1.677   0.610  0.1499  1.8503 -0.1636
  708SOL    HW2 2831   0.763   1.678   0.681  0.1056 -2.1218  0.0343
  708SOL     MW 2832   0.810   1.679   0.608  0.0563 -0.0448 -0.0234
  709SOL     OW 2833   1.653   1.530   3.253 -0.1405  0.0112  0.3262
  709SOL    HW1 2834   1.621   1.450   3.295  0.5377 -0.6329 -0.3360
  709SOL    HW2 2835   1.593   1.598   3.281 -2.3791 -1.2067 -1.1792
  709SOL     MW 2836   1.641   1.528   3.262 -0.3505 -0.2394  0.0345
  710SOL     OW 2837   0.481   5.088   0.231 -0.4954 -0.3358 -0.2866
  710SOL    HW1 2838   0.569   5.050   0.221 -0.1905 -0.4408  2.1656
  710SOL    HW2 2839   0.478   5.159   0.167  2.3412  1.2800  1.1601
  710SOL     MW 2840   0.492   5.092   0.221 -0.0726 -0.1324  0.2381
  711SOL     OW 2841   1.135   5.176   3.646  0.6453 -0.0861 -0.4761
  711SOL    HW1 2842   1.227   5.166   3.621  1.0585  0.8954  0.5250
  711SOL    HW2 2843   1.116   5.269   3.631  0.9683  0.6467  2.7178
  711SOL     MW 2844   1.145   5.187   3.641  0.7444  0.1446  0.0884
  712SOL     OW 2845   1.733   0.298   4.721 -0.1449  0.0324 -0.0762
  712SOL    HW1 2846   1.675   0.349   4.778  0.3399 -0.8953  1.2943
  712SOL    HW2 2847   1.701   0.208   4.730 -0.4540 -0.0511 -1.7908
  712SOL     MW 2848   1.721   0.292   4.730 -0.1213 -0.1037 -0.1225
  713SOL     OW 2849   0.568   5.013   3.390  0.3990 -0.1677 -0.3669
  713SOL    HW1 2850   0.500   4.981   3.449  0.8831 -0.0570  0.2524
  713SOL    HW2 2851   0.575   4.944   3.323 -0.6748  0.0520 -0.7351
  713SOL     MW 2852   0.560   4.999   3.389  0.3197 -0.1233 -0.3331
  714SOL     OW 2853   3.625   1.102   5.187 -0.0028 -0.0115  0.0567
  714SOL    HW1 2854   3.595   1.146   5.107  0.3892 -0.4397 -0.3313
  714SOL    HW2 2855   3.545   1.079   5.234 -0.2405  0.0481 -0.3173
  714SOL     MW 2856   3.610   1.105   5.183  0.0180 -0.0611 -0.0459
  715SOL     OW 2857   1.351   0.479   0.637 -0.0374 -0.2228  0.0551
  715SOL    HW1 2858   1.446   0.471   0.635 -0.1358 -2.1992  0.7386
  715SOL    HW2 2859   1.331   0.514   0.724  0.0279 -1.9175  0.8127
  715SOL     MW 2860   1.361   0.482   0.648 -0.0418 -0.7168  0.2490
  716SOL     OW 2861   3.838   3.013   0.105 -0.2042 -0.1805  0.1522
  716SOL    HW1 2862   3.765   3.075   0.104 -0.6147 -0.6605 -0.0153
  716SOL    HW2 2863   3.864   3.007   0.197  0.3264  0.7940  0.0860
  716SOL     MW 2864   3.832   3.020   0.117 -0.1881 -0.1139  0.1207
  717SOL     OW 2865   4.606   1.779   2.870  0.3579 -0.1246 -0.1303
  717SOL    HW1 2866   4.613   1.875   2.875 -1.8858  0.1017 -0.1364
  717SOL    HW2 2867   4.584   1.762   2.779 -1.4819 -0.4049  0.3282
  717SOL     MW 2868   4.604   1.790   2.859 -0.1916 -0.1319 -0.0694
  718SOL     OW 2869   3.792   3.086   1.144  0.1445  0.4764  0.1596
  718SOL    HW1 2870   3.738   3.163   1.163  0.5954  0.1977  2.8886
  718SOL    HW2 2871   3.866   3.093   1.203  0.6127 -1.6617 -0.0972
  718SOL     MW 2872   3.795   3.098   1.154  0.2682  0.1511  0.4923
  719SOL     OW 2873   0.329   4.189   4.427 -0.6438  0.3189 -0.1914
  719SOL    HW1 2874   0.349   4.106   4.384  0.7475  0.9760 -0.8857
  719SOL    HW2 2875   0.233   4.190   4.435 -0.6632 -1.4671  0.1037
  719SOL     MW 2876   0.319   4.178   4.422 -0.4592  0.1670 -0.2451
  720SOL     OW 2877   2.496   3.455   3.853  0.5600  0.0681  0.0375
  720SOL    HW1 2878   2.447   3.529   3.887  0.7583  0.1000  0.2586
  720SOL    HW2 2879   2.579   3.494   3.822  0.9906 -0.1700  0.8739
  720SOL     MW 2880   2.501   3.470   3.853  0.6446  0.0403  0.1798
  721SOL     OW 2881   3.569   1.843   0.679 -0.6160 -0.1506  0.1553
  721SOL    HW1 2882   3.628   1.885   0.616 -1.0691  0.1959 -0.0473
  721SOL    HW2 2883   3.496   1.904   0.688 -1.7731 -1.3092 -0.8946
  721SOL     MW 2884   3.567   1.857   0.672 -0.8327 -0.2599 -0.0133
  722SOL     OW 2885   5.369   2.572   0.982 -0.1193  0.3036  0.0616
  722SOL    HW1 2886   5.282   2.539   0.959  0.8579 -1.7579 -0.9092
  722SOL    HW2 2887   5.393   2.629   0.910  0.2782 -1.0332 -0.9023
  722SOL     MW 2888   5.360   2.575   0.969  0.0657 -0.1537 -0.1988
  723SOL     OW 2889   1.635   5.041   2.303 -0.3428 -0.1842  0.3345
  723SOL    HW1 2890   1.693   4.998   2.366 -0.7446  0.5289  1.2320
  723SOL    HW2 2891   1.669   5.131   2.297  0.4293 -0.5516 -1.4268
  723SOL     MW 2892   1.647   5.048   2.311 -0.2930 -0.1377  0.2182
  724SOL     OW 2893   0.823   3.513   1.328  0.7951 -0.0663  0.4230
  724SOL    HW1 2894   0.740   3.537   1.285  2.0398  0.3660 -1.8884
  724SOL    HW2 2895   0.837   3.583   1.392  0.3990  1.0585 -0.6595
  724SOL     MW 2896   0.814   3.526   1.331  0.9093  0.1433 -0.0337
  725SOL     OW 2897   4.876   1.187   5.334 -0.7112  0.4721 -0.4849
  725SOL    HW1 2898   4.849   1.226   5.251  0.6795  0.0646 -1.1571
  725SOL    HW2 2899   4.971   1.181   5.328 -0.7256 -1.1099  0.4549
  725SOL     MW 2900   4.885   1.192   5.322 -0.5260  0.2044 -0.4489
  726SOL     OW 2901   3.139   5.196   4.392  0.1162 -0.3291 -0.8008
  726SOL    HW1 2902   3.139   5.116   4.445  0.2978 -0.7230 -1.3835
  726SOL    HW2 2903   3.193   5.258   4.442 -0.3935 -0.4165 -0.1292
  726SOL     MW 2904   3.146   5.194   4.406  0.0720 -0.3939 -0.7888
  727SOL     OW 2905   1.294   0.971   2.090  0.0074 -0.3652 -0.2202
  727SOL    HW1 2906   1.231   0.933   2.030 -1.1695  0.0098  0.7387
  727SOL    HW2 2907   1.312   0.901   2.153 -0.9742  0.1436  0.6451
  727SOL     MW 2908   1.288   0.957   2.090 -0.2831 -0.2463  0.0253
  728SOL     OW 2909   5.488   2.689   0.752  0.2824  0.1285 -0.5478
  728SOL    HW1 2910   5.567   2.726   0.793 -0.0193  0.3860 -0.1883
  728SOL    HW2 2911   5.513   2.672   0.662  0.8969 -0.2313 -0.3201
  728SOL     MW 2912   5.502   2.691   0.746  0.3245  0.1147 -0.4688
  729SOL     OW 2913   2.655   4.911   0.497  0.2707  0.6017  0.1859
  729SOL    HW1 2914   2.684   4.906   0.588 -0.5590  2.0374  0.5549
  729SOL    HW2 2915   2.560   4.923   0.502 -0.2996 -2.4363 -0.9641
  729SOL     MW 2916   2.646   4.912   0.510  0.0823  0.3860  0.0808
  730SOL     OW 2917   0.242   2.009   5.159 -0.0291 -0.0812 -0.0256
  730SOL    HW1 2918   0.236   1.988   5.252 -0.7148  0.5415  0.0811
  730SOL    HW2 2919   0.167   2.066   5.142  0.0169 -0.2785 -0.9870
  730SOL     MW 2920   0.231   2.014   5.169 -0.1152 -0.0240 -0.1406
  731SOL     OW 2921   0.975   5.114   3.055  0.2540  0.0120  0.1169
  731SOL    HW1 2922   0.927   5.188   3.090 -1.3566 -0.4261 -1.0110
  731SOL    HW2 2923   1.062   5.119   3.095 -0.2738  1.6709  1.1259
  731SOL     MW 2924   0.980   5.124   3.065 -0.0338  0.1763  0.1009
  732SOL     OW 2925   2.166   2.133   0.199  0.0323  0.4109 -0.5433
  732SOL    HW1 2926   2.117   2.105   0.276  0.6460  2.4636  0.6937
  732SOL    HW2 2927   2.225   2.061   0.179 -0.9544 -0.6215  0.1720
  732SOL     MW 2928   2.167   2.120   0.206 -0.0179  0.5482 -0.2805
  733SOL     OW 2929   5.504   3.539   0.555 -0.5407 -0.4086  0.6840
  733SOL    HW1 2930   5.511   3.446   0.576 -0.5798  0.0005  2.6941
  733SOL    HW2 2931   5.498   3.583   0.640 -0.5930  1.4357 -0.2150
  733SOL     MW 2932   5.504   3.533   0.570 -0.5530 -0.1054  0.8335
  734SOL     OW 2933   0.999   5.407   4.025 -0.2086 -0.2234  0.3735
  734SOL    HW1 2934   0.913   5.391   3.987  1.0169 -2.2704 -1.9158
  734SOL    HW2 2935   1.039   5.471   3.966  0.5227 -0.8435  0.1780
  734SOL     MW 2936   0.993   5.413   4.012  0.0548 -0.5823  0.0391
  735SOL     OW 2937   0.329   1.432   2.795  0.2215 -0.1859  0.2661
  735SOL    HW1 2938   0.368   1.413   2.881  0.9809  0.9100  0.1846
  735SOL    HW2 2939   0.349   1.355   2.742  1.0895 -0.2279  0.6389
  735SOL     MW 2940   0.337   1.419   2.799  0.4405 -0.0441  0.3053
  736SOL     OW 2941   0.283   1.561   0.123  0.1150 -0.0641  0.0969
  736SOL    HW1 2942   0.255   1.652   0.113  0.0118 -0.0893  0.1558
  736SOL    HW2 2943   0.278   1.525   0.034 -1.7016 -0.5493  0.3589
  736SOL     MW 2944   0.278   1.569   0.110 -0.1434 -0.1328  0.1401
  737SOL     OW 2945   3.122   4.798   0.101  0.3470  0.1021  0.4539
  737SOL    HW1 2946   3.033   4.836   0.102 -0.9937 -2.8057  0.3400
  737SOL    HW2 2947   3.144   4.792   0.008 -0.6388 -1.8567  0.3049
  737SOL     MW 2948   3.113   4.803   0.088  0.0339 -0.5528  0.4186
  738SOL     OW 2949   2.442   1.115   0.863  0.2620  0.3876 -0.4703
  738SOL    HW1 2950   2.516   1.176   0.854  0.8700 -0.3218 -0.3510
  738SOL    HW2 2951   2.471   1.036   0.818 -0.0428 -0.2361  0.4066
  738SOL     MW 2952   2.456   1.113   0.856  0.3028  0.2082 -0.3363
  739SOL     OW 2953   1.513   5.058   0.075  0.3207  0.0354  0.1839
  739SOL    HW1 2954   1.572   5.128   0.103 -0.4151  0.6196  0.2780
  739SOL    HW2 2955   1.426   5.086   0.104  0.0606 -1.0885  0.5579
  739SOL     MW 2956   1.509   5.071   0.083  0.1866 -0.0372  0.2469
  740SOL     OW 2957   4.858   5.490   2.993  0.1164  0.5781 -0.3575
  740SOL    HW1 2958   4.895   5.578   2.988 -1.4585  1.2316 -1.1539
  740SOL    HW2 2959   4.780   5.499   3.047  0.8012 -0.6909  0.9349
  740SOL     MW 2960   4.853   5.503   2.999 -0.0034  0.4953 -0.2907
  741SOL     OW 2961   2.601   1.780   2.790 -0.1339  0.1598  0.7408
  741SOL    HW1 2962   2.547   1.855   2.815  1.6852  2.0560 -0.7311
  741SOL    HW2 2963   2.549   1.734   2.724 -0.9679  0.5014  1.1380
  741SOL     MW 2964   2.587   1.784   2.785 -0.0014  0.4609  0.5961
  742SOL     OW 2965   2.218   3.222   2.415 -0.1401  0.1052 -0.0741
  742SOL    HW1 2966   2.243   3.164   2.487  2.0632  1.7424  0.5936
  742SOL    HW2 2967   2.214   3.309   2.456 -0.0056  0.9105 -1.7111
  742SOL     MW 2968   2.221   3.226   2.430  0.1745  0.4339 -0.2046
  743SOL     OW 2969   1.574   0.895   3.697 -0.0988 -0.4048  0.4191
  743SOL    HW1 2970   1.583   0.980   3.652 -0.7673 -0.3873  0.3105
  743SOL    HW2 2971   1.490   0.901   3.742 -0.5954 -1.3553 -0.3410
  743SOL     MW 2972   1.564   0.907   3.697 -0.2556 -0.5304  0.3022
  744SOL     OW 2973   3.293   4.422   5.290 -0.2890 -0.3146  0.6459
  744SOL    HW1 2974   3.337   4.485   5.348  1.9124  0.6721 -1.8549
  744SOL    HW2 2975   3.227   4.474   5.244  0.0436 -0.3455  0.1297
  744SOL     MW 2976   3.290   4.438   5.291  0.0520 -0.1860  0.2399
  745SOL     OW 2977   5.245   1.063   3.579  0.3358 -0.0966  0.0460
  745SOL    HW1 2978   5.272   1.070   3.670  0.0008 -0.7862  0.2062
  745SOL    HW2 2979   5.275   0.977   3.552  0.7288  0.2387 -0.5978
  745SOL     MW 2980   5.252   1.052   3.587  0.3436 -0.1442 -0.0191
  746SOL     OW 2981   1.264   4.996   2.611  0.6015  0.3644 -0.0007
  746SOL    HW1 2982   1.248   4.971   2.702  1.2426 -0.2900 -0.0541
  746SOL    HW2 2983   1.203   4.941   2.561  1.4178 -0.5213 -0.0613
  746SOL     MW 2984   1.254   4.985   2.616  0.7976  0.1571 -0.0161
  747SOL     OW 2985   3.926   3.866   0.940 -0.0492 -0.1094 -0.5163
  747SOL    HW1 2986   4.010   3.891   0.978 -0.3900  0.3295 -0.0296
  747SOL    HW2 2987   3.925   3.770   0.945  0.6850 -0.1548 -1.1136
  747SOL     MW 2988   3.937   3.856   0.946  0.0037 -0.0565 -0.5312
  748SOL     OW 2989   1.276   4.074   1.011 -0.2732  0.2221 -0.4840
  748SOL    HW1 2990   1.196   4.040   0.973  0.5207 -3.7157  0.8854
  748SOL    HW2 2991   1.346   4.022   0.972  1.8170  3.5694 -1.7283
  748SOL     MW 2992   1.275   4.063   1.001  0.1150  0.1427 -0.4671
  749SOL     OW 2993   1.300   0.254   3.262  0.2893 -0.0039 -0.3930
  749SOL    HW1 2994   1.333   0.226   3.177  0.7762  0.9859 -0.5496
  749SOL    HW2 2995   1.270   0.344   3.246 -2.7333 -0.8915 -0.3341
  749SOL     MW 2996   1.300   0.263   3.248 -0.0519  0.0098 -0.4062
  750SOL     OW 2997   2.127   0.715   2.008  0.0623  0.0832 -0.5339
  750SOL    HW1 2998   2.213   0.740   2.042  0.1682  1.2267 -1.5513
  750SOL    HW2 2999   2.144   0.685   1.919 -0.3559 -1.7034 -0.0542
  750SOL     MW 3000   2.141   0.714   2.001  0.0203 -0.0034 -0.6063
  751SOL     OW 3001   3.228   3.378   5.474  0.2268 -0.2671  0.1742
  751SOL    HW1 3002   3.298   3.326   5.435  0.1754  1.2319 -2.1573
  751SOL    HW2 3003   3.158   3.315   5.492  1.7676 -1.6408  1.6845
  751SOL     MW 3004   3.228   3.363   5.471  0.4272 -0.2502  0.0637
  752SOL     OW 3005   4.006   2.049   3.968  0.0373 -0.6640 -0.1218
  752SOL    HW1 3006   4.054   1.971   3.941 -1.6139 -0.5094 -4.3629
  752SOL    HW2 3007   3.927   2.015   4.011  1.4820 -1.0475  2.3898
  752SOL     MW 3008   4.002   2.034   3.970  0.0095 -0.6948 -0.3545
  753SOL     OW 3009   2.164   1.714   3.428 -0.1376 -0.2338  0.5670
  753SOL    HW1 3010   2.131   1.624   3.428  1.8220 -1.0365 -1.3441
  753SOL    HW2 3011   2.128   1.752   3.347 -0.5941  0.5764  1.1423
  753SOL     MW 3012   2.155   1.707   3.417  0.0647 -0.2328  0.3872
  754SOL     OW 3013   3.766   1.422   4.843  0.2935 -0.2944 -0.0641
  754SOL    HW1 3014   3.848   1.373   4.842 -0.6043 -1.8549  0.0240
  754SOL    HW2 3015   3.736   1.422   4.752 -0.9666 -2.1660  0.3031
  754SOL     MW 3016   3.773   1.415   4.830  0.0031 -0.7563 -0.0028
  755SOL     OW 3017   1.134   0.469   3.296 -0.2161 -0.0117 -0.2761
  755SOL    HW1 3018   1.117   0.541   3.357  0.2464  0.8329 -1.1227
  755SOL    HW2 3019   1.048   0.432   3.279 -0.4226  0.1318  0.4067
  755SOL     MW 3020   1.120   0.474   3.302 -0.1816  0.1213 -0.2982
  756SOL     OW 3021   2.919   2.449   3.987 -0.1442  0.6397  0.0024
  756SOL    HW1 3022   3.005   2.461   4.026  0.6978 -0.4468 -1.4106
  756SOL    HW2 3023   2.874   2.532   4.001  1.0366  1.1387  0.9728
  756SOL     MW 3024   2.925   2.462   3.994  0.1281  0.5606 -0.0572
  757SOL     OW 3025   0.942   0.682   0.164 -0.3931 -0.2973  0.1177
  757SOL    HW1 3026   0.968   0.654   0.252 -0.2482  0.0996  0.2037
  757SOL    HW2 3027   1.023   0.718   0.126 -0.7740  0.8572  0.3510
  757SOL     MW 3028   0.957   0.683   0.171 -0.4248 -0.0885  0.1607
  758SOL     OW 3029   3.586   5.155   0.424 -0.1196  0.5429  0.5016
  758SOL    HW1 3030   3.657   5.176   0.485 -0.2310  0.8047  0.5382
  758SOL    HW2 3031   3.510   5.204   0.456  0.2279  2.0012 -0.7788
  758SOL     MW 3032   3.585   5.164   0.437 -0.0878  0.7744  0.3342
  759SOL     OW 3033   1.329   4.046   4.319 -1.0866 -0.0423  0.2495
  759SOL    HW1 3034   1.395   4.063   4.387  0.8721 -3.0659 -0.7145
  759SOL    HW2 3035   1.309   4.133   4.284  0.2408  1.2775  2.5114
  759SOL     MW 3036   1.335   4.060   4.324 -0.6444 -0.2716  0.4242
  760SOL     OW 3037   0.572   3.781   0.227  0.1383  0.3937  0.3305
  760SOL    HW1 3038   0.643   3.836   0.194 -0.9331  0.9456 -1.1676
  760SOL    HW2 3039   0.529   3.835   0.294  0.2407  0.6229  0.2134
  760SOL     MW 3040   0.576   3.796   0.232  0.0079  0.4988  0.1131
  761SOL     OW 3041   2.486   0.831   1.009 -0.1901 -0.2621 -0.6352
  761SOL    HW1 3042   2.508   0.859   0.920  0.5697  0.6321 -0.1880
  761SOL    HW2 3043   2.569   0.834   1.056 -0.8942  1.3857  0.6414
  761SOL     MW 3044   2.500   0.835   1.003 -0.1826  0.0800 -0.4032
  762SOL     OW 3045   5.100   1.477   2.927  0.1670  0.6399 -0.0910
  762SOL    HW1 3046   5.178   1.428   2.953  0.2806  0.9238  0.0993
  762SOL    HW2 3047   5.030   1.441   2.982  0.2206  0.5886 -0.0558
  762SOL     MW 3048   5.101   1.466   2.938  0.1895  0.6712 -0.0606
  763SOL     OW 3049   3.064   5.457   4.709  0.1752 -0.4302  1.2547
  763SOL    HW1 3050   3.095   5.509   4.783  0.9249  0.9087  0.0369
  763SOL    HW2 3051   2.986   5.502   4.678  1.2725  0.4978 -0.3032
  763SOL     MW 3052   3.058   5.470   4.715  0.4238 -0.1252  0.8811
  764SOL     OW 3053   0.621   1.446   1.820 -0.2785 -0.1328 -0.6849
  764SOL    HW1 3054   0.559   1.514   1.845  1.3238  0.3906  2.4273
  764SOL    HW2 3055   0.572   1.365   1.829 -0.6351  0.2600  1.7126
  764SOL     MW 3056   0.606   1.445   1.825 -0.1108 -0.0095  0.0566
  765SOL     OW 3057   2.863   5.011   3.576 -0.3388  0.0574 -0.5846
  765SOL    HW1 3058   2.934   4.954   3.606  1.2104  1.4273 -1.4876
  765SOL    HW2 3059   2.864   5.084   3.637 -2.1994 -0.7195  0.4539
  765SOL     MW 3060   2.873   5.013   3.588 -0.3807  0.1372 -0.5663
  766SOL     OW 3061   0.443   4.748   4.943 -0.2673 -0.1003 -0.0117
  766SOL    HW1 3062   0.514   4.684   4.938  0.2771  0.5790 -2.2248
  766SOL    HW2 3063   0.473   4.811   5.008  0.4023 -0.7119  0.2925
  766SOL     MW 3064   0.457   4.748   4.951 -0.1040 -0.0912 -0.2686
  767SOL     OW 3065   4.842   5.346   3.656  0.3400  0.2005  0.0126
  767SOL    HW1 3066   4.887   5.392   3.727  1.4123 -0.8795  0.0660
  767SOL    HW2 3067   4.894   5.365   3.578  0.0486  0.1097 -0.2076
  767SOL     MW 3068   4.855   5.355   3.655  0.4451  0.0429 -0.0098
  768SOL     OW 3069   2.724   2.033   2.410 -0.2253  0.1429 -0.0675
  768SOL    HW1 3070   2.729   2.078   2.326 -0.0865 -0.9000 -0.6395
  768SOL    HW2 3071   2.655   1.967   2.398  0.3561 -0.5647  0.3595
  768SOL     MW 3072   2.715   2.030   2.397 -0.1284 -0.0927 -0.0870
  769SOL     OW 3073   1.682   4.357   1.952  0.2029 -0.6124 -0.2068
  769SOL    HW1 3074   1.714   4.437   1.994 -0.6443 -0.3396 -0.0416
  769SOL    HW2 3075   1.760   4.308   1.930  0.7174 -0.0306  0.2821
  769SOL     MW 3076   1.697   4.361   1.955  0.1582 -0.4974 -0.1188
  770SOL     OW 3077   3.788   0.536   2.150 -0.1650 -0.5505 -0.5114
  770SOL    HW1 3078   3.831   0.459   2.114  0.9606  0.1592 -0.7348
  770SOL    HW2 3079   3.761   0.586   2.073  0.1937 -0.1457 -0.3824
  770SOL     MW 3080   3.790   0.533   2.135  0.0348 -0.4005 -0.5241
  771SOL     OW 3081   5.330   5.401   5.195  0.2411 -0.1064 -0.4850
  771SOL    HW1 3082   5.370   5.380   5.110  0.5085  2.3252 -1.0308
  771SOL    HW2 3083   5.265   5.468   5.174  0.9908  1.2476  1.3509
  771SOL     MW 3084   5.327   5.407   5.181  0.3780  0.4030 -0.3114
  772SOL     OW 3085   0.105   3.941   0.707 -0.5457 -0.1676 -0.4467
  772SOL    HW1 3086   0.083   3.868   0.766  0.8879 -0.0420  0.2844
  772SOL    HW2 3087   0.161   3.903   0.640  0.9883  0.3976  0.4661
  772SOL     MW 3088   0.109   3.926   0.706 -0.1463 -0.0747 -0.2255
  773SOL     OW 3089   2.733   0.126   2.258 -0.4637 -0.2763  0.4859
  773SOL    HW1 3090   2.750   0.099   2.167  0.0487  0.3294  0.3927
  773SOL    HW2 3091   2.784   0.065   2.311 -1.3743 -1.1254  0.4196
  773SOL     MW 3092   2.742   0.114   2.253 -0.5173 -0.3090  0.4644
  774SOL     OW 3093   1.406   4.363   2.275 -0.3566 -0.2065  0.2170
  774SOL    HW1 3094   1.412   4.377   2.370  0.7319  0.4050  0.0730
  774SOL    HW2 3095   1.460   4.285   2.259 -1.0507 -0.6864  0.1689
  774SOL     MW 3096   1.414   4.354   2.286 -0.3035 -0.1888  0.1911
  775SOL     OW 3097   2.339   4.491   3.114 -0.2183 -0.2974 -0.0583
  775SOL    HW1 3098   2.270   4.548   3.079  0.8880  0.2550 -1.4533
  775SOL    HW2 3099   2.402   4.552   3.151 -0.0013 -0.7381  0.2947
  775SOL     MW 3100   2.338   4.507   3.114 -0.0402 -0.2823 -0.1985
  776SOL     OW 3101   4.903   2.580   3.849  0.6851 -0.6176  0.0583
  776SOL    HW1 3102   4.967   2.525   3.805  0.5166 -1.3511  0.7288
  776SOL    HW2 3103   4.926   2.577   3.941 -1.3628 -2.3857  0.5938
  776SOL     MW 3104   4.915   2.572   3.855  0.3868 -0.9543  0.2206
  777SOL     OW 3105   2.074   1.964   1.074 -0.6252  0.2545  0.4639
  777SOL    HW1 3106   2.040   2.048   1.104  1.6027  1.2597  0.3886
  777SOL    HW2 3107   2.088   1.976   0.980 -1.1743 -0.5380  0.2755
  777SOL     MW 3108   2.071   1.977   1.066 -0.3993  0.2831  0.4284
  778SOL     OW 3109   3.823   2.192   3.801  0.6045 -0.1621  0.4767
  778SOL    HW1 3110   3.755   2.214   3.864  0.8545  1.0657  0.3289
  778SOL    HW2 3111   3.896   2.160   3.854  1.0633  1.4964  0.8829
  778SOL     MW 3112   3.824   2.191   3.816  0.6999  0.2263  0.5115
  779SOL     OW 3113   1.936   4.553   0.281  0.5044  0.8072 -0.0147
  779SOL    HW1 3114   1.965   4.624   0.338  1.8702  0.1143  0.1907
  779SOL    HW2 3115   1.993   4.558   0.205  0.8654 -0.2584  0.1567
  779SOL     MW 3116   1.948   4.563   0.279  0.7368  0.5705  0.0360
  780SOL     OW 3117   4.276   2.470   3.839  0.2445  0.1829 -0.1671
  780SOL    HW1 3118   4.360   2.500   3.874 -0.2495  0.9000  0.4434
  780SOL    HW2 3119   4.258   2.530   3.767  0.7959 -0.6935 -1.0593
  780SOL     MW 3120   4.285   2.482   3.834  0.2522  0.1615 -0.2050
  781SOL     OW 3121   3.279   5.013   0.186  0.2803  0.1363  0.7053
  781SOL    HW1 3122   3.200   5.052   0.223 -0.2312 -0.6037  0.4212
  781SOL    HW2 3123   3.254   4.923   0.165  0.3603  0.6762 -1.9822
  781SOL     MW 3124   3.265   5.006   0.188  0.2223  0.1094  0.3054
  782SOL     OW 3125   5.463   3.850   0.013  0.8803  0.3939  0.1669
  782SOL    HW1 3126   5.395   3.783   0.013  1.3111 -0.0446  0.2565
  782SOL    HW2 3127   5.415   3.933   0.023  0.4666 -0.0233  1.9055
  782SOL     MW 3128   5.448   3.852   0.014  0.8826  0.2787  0.4130
  783SOL     OW 3129   5.452   0.830   3.833 -0.1957 -0.4957  0.0651
  783SOL    HW1 3130   5.460   0.814   3.927 -2.0796 -0.6636  0.2376
  783SOL    HW2 3131   5.426   0.745   3.797 -0.8938 -0.0978 -0.3844
  783SOL     MW 3132   5.450   0.816   3.841 -0.5432 -0.4647  0.0279
  784SOL     OW 3133   0.423   4.621   1.576 -0.4339  0.2003  0.3642
  784SOL    HW1 3134   0.486   4.557   1.545 -0.3670  1.2347 -1.8463
  784SOL    HW2 3135   0.429   4.617   1.672 -0.6868 -3.2480  0.3532
  784SOL     MW 3136   0.432   4.612   1.585 -0.4589 -0.1245  0.0652
  785SOL     OW 3137   4.835   5.491   0.043 -0.0267  0.4296 -0.0848
  785SOL    HW1 3138   4.901   5.500  -0.026  0.2442 -0.2063  0.0783
  785SOL    HW2 3139   4.885   5.496   0.124 -0.2671  0.5846  0.0550
  785SOL     MW 3140   4.851   5.493   0.044 -0.0226  0.3649 -0.0440
  786SOL     OW 3141   1.799   2.761   0.570 -0.3412 -0.0458  0.0453
  786SOL    HW1 3142   1.872   2.707   0.599 -0.0383 -0.8166 -1.9789
  786SOL    HW2 3143   1.825   2.850   0.595  2.5999  0.0888 -2.7911
  786SOL     MW 3144   1.812   2.766   0.577  0.0954 -0.1314 -0.6088
  787SOL     OW 3145   2.138   4.006   5.075  0.3241  0.6767  0.3860
  787SOL    HW1 3146   2.159   4.015   5.168  1.5976  1.6495  0.0302
  787SOL    HW2 3147   2.163   3.916   5.054 -0.3145  0.3319  1.0560
  787SOL     MW 3148   2.144   3.995   5.084  0.4095  0.7612  0.4283
  788SOL     OW 3149   2.534   1.123   4.344 -0.3973  0.2644  0.4069
  788SOL    HW1 3150   2.478   1.076   4.407  1.4247 -1.4329  0.8684
  788SOL    HW2 3151   2.472   1.168   4.286 -2.1867 -0.0716  1.9452
  788SOL     MW 3152   2.518   1.123   4.345 -0.3929 -0.0092  0.6761
  789SOL     OW 3153   1.549   3.781   4.050  0.4017 -0.0975 -0.3386
  789SOL    HW1 3154   1.465   3.805   4.090 -0.5644 -2.2697 -0.8851
  789SOL    HW2 3155   1.603   3.752   4.123  0.4196  0.5690 -0.0765
  789SOL     MW 3156   1.545   3.780   4.066  0.2741 -0.3001 -0.3769
  790SOL     OW 3157   3.827   0.816   3.441 -0.4360  0.8915 -0.1168
  790SOL    HW1 3158   3.852   0.840   3.530 -1.5699  1.0207  0.1845
  790SOL    HW2 3159   3.858   0.889   3.387  0.5905  0.6362  0.1090
  790SOL     MW 3160   3.835   0.829   3.445 -0.4505  0.8745 -0.0458
  791SOL     OW 3161   5.248   2.388   3.990  0.2373  0.5828  0.4347
  791SOL    HW1 3162   5.231   2.307   4.038 -0.2034  0.4967  0.1407
  791SOL    HW2 3163   5.343   2.401   3.997  0.4912 -0.5648 -0.4553
  791SOL     MW 3164   5.259   2.379   3.997  0.2122  0.4168  0.2754
  792SOL     OW 3165   1.210   4.819   0.296  0.6660 -0.5840  0.1578
  792SOL    HW1 3166   1.212   4.776   0.211  1.5129  0.8905 -0.6065
  792SOL    HW2 3167   1.280   4.778   0.346  1.6920  0.1098 -0.6776
  792SOL     MW 3168   1.220   4.808   0.291  0.9181 -0.2922 -0.0575
  793SOL     OW 3169   1.531   4.999   1.318  0.1363 -0.3182  0.2219
  793SOL    HW1 3170   1.452   5.047   1.343  0.0402 -0.2966 -0.1263
  793SOL    HW2 3171   1.537   5.008   1.223  1.2177  0.6911  0.3640
  793SOL     MW 3172   1.521   5.007   1.309  0.2689 -0.1795  0.1941
  794SOL     OW 3173   4.342   5.528   3.657 -0.2073  0.4338  0.0367
  794SOL    HW1 3174   4.300   5.457   3.609  0.6506  0.2517 -0.4749
  794SOL    HW2 3175   4.435   5.504   3.659  0.4922  2.5720 -2.1029
  794SOL     MW 3176   4.349   5.516   3.651  0.0023  0.6971 -0.3201
  795SOL     OW 3177   5.213   3.301   2.392  0.7444 -0.5631  0.2730
  795SOL    HW1 3178   5.215   3.217   2.346 -0.6547 -0.2924 -0.3329
  795SOL    HW2 3179   5.243   3.365   2.329 -3.9617  0.2843 -1.5332
  795SOL     MW 3180   5.217   3.298   2.378 -0.0772 -0.4126 -0.0516
  796SOL     OW 3181   0.336   5.375   0.901 -0.1610 -0.5289 -0.1986
  796SOL    HW1 3182   0.382   5.367   0.818 -0.2549 -2.3826 -0.1201
  796SOL    HW2 3183   0.253   5.329   0.887  0.8562 -3.1882  1.5764
  796SOL     MW 3184   0.331   5.368   0.888 -0.0368 -1.1363  0.0508
  797SOL     OW 3185   4.351   1.440   1.561 -0.3277 -0.0376 -0.4295
  797SOL    HW1 3186   4.392   1.524   1.545  0.9736 -0.5683  0.0123
  797SOL    HW2 3187   4.421   1.376   1.552 -0.8360 -0.8919  1.2514
  797SOL     MW 3188   4.366   1.442   1.558 -0.2210 -0.2240 -0.1438
  798SOL     OW 3189   4.771   4.395   3.709 -0.2165  0.4660 -0.2206
  798SOL    HW1 3190   4.755   4.484   3.742  0.0211  1.1717 -1.9004
  798SOL    HW2 3191   4.866   4.389   3.703 -0.2033 -0.1350  0.4140
  798SOL     MW 3192   4.782   4.406   3.713 -0.1828  0.4801 -0.3613
  799SOL     OW 3193   4.364   0.902   2.136 -0.5151  0.4722 -0.5969
  799SOL    HW1 3194   4.321   0.959   2.072  2.3022  3.4425 -0.1190
  799SOL    HW2 3195   4.340   0.939   2.221 -1.0845 -1.0258 -0.0766
  799SOL     MW 3196   4.355   0.914   2.139 -0.2125  0.6703 -0.4626
  800SOL     OW 3197   3.139   2.547   2.916 -0.0396 -0.2931  0.0049
  800SOL    HW1 3198   3.063   2.595   2.883  0.1255  0.2857  0.4485
  800SOL    HW2 3199   3.203   2.615   2.938  0.2927 -0.7259  0.4038
  800SOL     MW 3200   3.137   2.563   2.915  0.0273 -0.2735  0.1183
  801SOL     OW 3201   4.345   2.125   4.173  0.1664  0.2003 -0.4335
  801SOL    HW1 3202   4.399   2.135   4.252 -1.2538  1.6165  0.4119
  801SOL    HW2 3203   4.304   2.039   4.183  0.4309  0.1290  0.0874
  801SOL     MW 3204   4.347   2.114   4.185  0.0109  0.3813 -0.2496
  802SOL     OW 3205   4.781   4.806   2.982 -0.1039  0.0982  0.8091
  802SOL    HW1 3206   4.823   4.720   2.975 -1.5302 -0.5020 -1.2527
  802SOL    HW2 3207   4.691   4.787   3.009 -0.3225  0.9890  0.7367
  802SOL     MW 3208   4.775   4.792   2.985 -0.3253  0.1373  0.5219
  803SOL     OW 3209   5.230   4.501   1.991  0.0591  0.5679  0.3257
  803SOL    HW1 3210   5.179   4.450   1.929 -0.2076 -0.3235  1.2488
  803SOL    HW2 3211   5.317   4.462   1.989 -0.3260 -0.4247  1.5431
  803SOL     MW 3212   5.235   4.489   1.982 -0.0286  0.3144  0.6138
  804SOL     OW 3213   5.284   5.452   4.133 -0.2106 -0.4471 -0.4926
  804SOL    HW1 3214   5.362   5.411   4.171  1.9701  1.2370 -2.8127
  804SOL    HW2 3215   5.266   5.526   4.190 -0.9886 -1.5809  0.7946
  804SOL     MW 3216   5.292   5.457   4.146 -0.0219 -0.3730 -0.6316
  805SOL     OW 3217   5.289   3.405   1.038  0.0178 -0.1383  0.3897
  805SOL    HW1 3218   5.320   3.496   1.042 -1.1944  0.3452 -0.7551
  805SOL    HW2 3219   5.197   3.410   1.062 -0.0585 -1.0715  0.3163
  805SOL     MW 3220   5.281   3.418   1.042 -0.1556 -0.1988  0.2258
  806SOL     OW 3221   4.239   1.041   3.289  0.0344 -0.3921 -0.2076
  806SOL    HW1 3222   4.277   0.997   3.365  0.1332 -1.6281 -0.9402
  806SOL    HW2 3223   4.144   1.033   3.302  0.0507 -0.5071 -0.1615
  806SOL     MW 3224   4.231   1.034   3.301  0.0499 -0.5739 -0.3000
  807SOL     OW 3225   2.984   2.886   4.454  0.4195  0.0018 -0.1383
  807SOL    HW1 3226   2.896   2.850   4.460  0.3661  0.3407  1.4022
  807SOL    HW2 3227   2.974   2.965   4.400 -0.3896  0.5209  0.7467
  807SOL     MW 3228   2.971   2.892   4.447  0.3034  0.1172  0.1881
  808SOL     OW 3229   3.296   4.886   0.461  0.6459 -0.3599  0.1392
  808SOL    HW1 3230   3.298   4.795   0.431  0.5471  0.1074 -1.3580
  808SOL    HW2 3231   3.283   4.937   0.381  0.9291  0.9864  0.9296
  808SOL     MW 3232   3.295   4.880   0.446  0.6708 -0.1159  0.0440
  809SOL     OW 3233   1.680   1.856   2.523 -0.1075 -0.0852 -0.1554
  809SOL    HW1 3234   1.689   1.911   2.445 -0.8801  1.1671  0.6098
  809SOL    HW2 3235   1.768   1.822   2.539  0.4350  1.1104 -0.5244
  809SOL     MW 3236   1.693   1.859   2.515 -0.1385  0.2443 -0.1020
  810SOL     OW 3237   3.035   0.732   4.020 -0.2123 -0.1751 -0.3410
  810SOL    HW1 3238   3.020   0.801   4.084  0.2114  0.9766 -1.4505
  810SOL    HW2 3239   2.947   0.701   3.998 -0.4089  0.0320  0.1240
  810SOL     MW 3240   3.021   0.737   4.026 -0.1817  0.0078 -0.4278
  811SOL     OW 3241   4.604   4.200   2.294 -0.6548 -0.0748 -0.4379
  811SOL    HW1 3242   4.583   4.136   2.226 -1.4903 -0.2895  0.0065
  811SOL    HW2 3243   4.700   4.196   2.302 -0.4822  0.3860 -2.0009
  811SOL     MW 3244   4.614   4.191   2.286 -0.7440 -0.0417 -0.5884
  812SOL     OW 3245   3.532   2.313   4.254  0.4824  0.0369  0.3757
  812SOL    HW1 3246   3.577   2.310   4.170 -1.4641  1.4923 -0.8017
  812SOL    HW2 3247   3.567   2.392   4.297 -0.6331  0.9946 -0.4075
  812SOL     MW 3248   3.543   2.323   4.248  0.0704  0.3616  0.1119
  813SOL     OW 3249   3.800   0.893   5.191 -0.4921  0.9457 -0.0650
  813SOL    HW1 3250   3.735   0.962   5.179  0.4573  1.5660 -1.9265
  813SOL    HW2 3251   3.831   0.872   5.103  2.9958  1.8159  0.7754
  813SOL     MW 3252   3.796   0.899   5.178  0.1051  1.1463 -0.2024
  814SOL     OW 3253   0.409   0.644   1.781  0.0604 -0.0067 -0.2579
  814SOL    HW1 3254   0.355   0.585   1.729 -0.6794  0.4293  0.0123
  814SOL    HW2 3255   0.470   0.586   1.827 -0.4724 -0.5327 -0.2068
  814SOL     MW 3256   0.410   0.628   1.780 -0.1109 -0.0188 -0.2147
  815SOL     OW 3257   4.405   1.700   0.771  0.1709 -0.0532 -0.3482
  815SOL    HW1 3258   4.348   1.690   0.695  1.0438  0.3435 -1.0843
  815SOL    HW2 3259   4.350   1.678   0.846 -0.9236  0.2784 -1.0329
  815SOL     MW 3260   4.390   1.696   0.771  0.1411  0.0448 -0.5394
  816SOL     OW 3261   4.591   3.685   2.986 -0.6709 -0.5125  0.0390
  816SOL    HW1 3262   4.664   3.734   2.948 -0.6947 -0.5309 -0.0291
  816SOL    HW2 3263   4.523   3.752   3.000  0.3690  0.1163  2.8107
  816SOL     MW 3264   4.592   3.701   2.983 -0.5342 -0.4304  0.4029
  817SOL     OW 3265   4.859   5.102   0.351 -0.2702  0.3443  0.0453
  817SOL    HW1 3266   4.783   5.072   0.301 -0.5751 -1.0056  1.2589
  817SOL    HW2 3267   4.835   5.191   0.379 -0.9376  0.3389 -0.4786
  817SOL     MW 3268   4.845   5.110   0.348 -0.4011  0.1619  0.1381
  818SOL     OW 3269   4.771   1.059   2.367  0.0407  0.1041  0.6611
  818SOL    HW1 3270   4.708   1.033   2.299  0.6666 -0.0241  0.1117
  818SOL    HW2 3271   4.718   1.069   2.446 -0.5545 -0.7460  0.3906
  818SOL     MW 3272   4.755   1.057   2.368  0.0448 -0.0276  0.5508
  819SOL     OW 3273   3.083   1.869   1.615 -0.1288 -0.5878 -0.1772
  819SOL    HW1 3274   2.992   1.885   1.590  0.0175 -1.2610 -1.1830
  819SOL    HW2 3275   3.087   1.776   1.635  0.1229 -0.3673  0.8674
  819SOL     MW 3276   3.071   1.859   1.614 -0.0752 -0.6487 -0.1720
  820SOL     OW 3277   2.808   0.074   4.660 -0.1789 -0.4412 -0.4327
  820SOL    HW1 3278   2.745   0.008   4.688  0.3845 -1.0938 -0.6646
  820SOL    HW2 3279   2.807   0.140   4.729 -0.4414 -0.9041  0.0131
  820SOL     MW 3280   2.800   0.074   4.673 -0.1384 -0.5913 -0.4039
  821SOL     OW 3281   0.566   2.102   3.182  0.5206 -0.4164  1.0287
  821SOL    HW1 3282   0.651   2.057   3.186  1.7861  1.7912  0.9283
  821SOL    HW2 3283   0.589   2.193   3.163 -1.9399  0.1495  0.4753
  821SOL     MW 3284   0.581   2.108   3.180  0.3598 -0.0431  0.9407
  822SOL     OW 3285   4.499   3.192   4.779  0.3549  0.2919 -0.0271
  822SOL    HW1 3286   4.498   3.154   4.868  1.3093 -0.3592 -0.2765
  822SOL    HW2 3287   4.532   3.280   4.791  0.6993  0.1293  0.2450
  822SOL     MW 3288   4.503   3.199   4.793  0.5297  0.1824 -0.0240
  823SOL     OW 3289   2.397   5.044   3.091 -0.2476  0.7303  0.0326
  823SOL    HW1 3290   2.404   4.954   3.059  1.1611  1.3451 -1.4923
  823SOL    HW2 3291   2.478   5.086   3.064 -0.8526  2.4623  0.7611
  823SOL     MW 3292   2.409   5.037   3.083 -0.1394  1.0462 -0.0746
  824SOL     OW 3293   1.698   5.179   0.999 -0.0088 -0.2664 -0.4900
  824SOL    HW1 3294   1.731   5.246   0.938  1.3334  0.7545  1.2735
  824SOL    HW2 3295   1.662   5.229   1.072 -0.2935 -1.4792  0.2277
  824SOL     MW 3296   1.697   5.195   1.001  0.1335 -0.2922 -0.1561
  825SOL     OW 3297   1.937   4.515   2.806  0.4836 -0.2817 -0.0743
  825SOL    HW1 3298   1.903   4.501   2.718  0.7060 -1.5650  0.0317
  825SOL    HW2 3299   2.032   4.510   2.796  0.5057 -0.5906  0.2600
  825SOL     MW 3300   1.945   4.513   2.793  0.5165 -0.4960 -0.0151
  826SOL     OW 3301   0.425   2.912   1.470 -0.3754  0.0240 -0.1054
  826SOL    HW1 3302   0.462   2.885   1.554 -0.3584 -0.6369 -0.3142
  826SOL    HW2 3303   0.336   2.878   1.471 -0.3815  0.0314 -0.3392
  826SOL     MW 3304   0.418   2.904   1.481 -0.3739 -0.0640 -0.1650
  827SOL     OW 3305   5.486   4.835   1.798  0.1646 -0.3246  0.0438
  827SOL    HW1 3306   5.403   4.795   1.822  0.3378 -0.7451 -0.0354
  827SOL    HW2 3307   5.495   4.818   1.704 -0.0356  0.4241 -0.1147
  827SOL     MW 3308   5.476   4.827   1.788  0.1609 -0.2804  0.0118
  828SOL     OW 3309   2.066  -0.017   3.809 -0.0597 -0.2740  0.7805
  828SOL    HW1 3310   2.010  -0.037   3.734 -0.3969 -0.4868  1.0897
  828SOL    HW2 3311   2.085   0.077   3.800  0.8268 -0.5180 -0.1962
  828SOL     MW 3312   2.061  -0.007   3.797  0.0142 -0.3355  0.6906
  829SOL     OW 3313   1.485   1.695   0.099  0.2150 -0.4992 -0.0741
  829SOL    HW1 3314   1.471   1.601   0.086 -0.7775 -0.4943  0.7414
  829SOL    HW2 3315   1.571   1.701   0.140  0.3866 -1.0343 -0.3465
  829SOL     MW 3316   1.494   1.683   0.103  0.1045 -0.5706 -0.0010
  830SOL     OW 3317   3.141   0.895   0.415  0.6047  0.0331 -0.0334
  830SOL    HW1 3318   3.110   0.928   0.499  1.0967  2.0476 -0.5851
  830SOL    HW2 3319   3.063   0.860   0.372 -0.1498  1.2920  0.2608
  830SOL     MW 3320   3.127   0.895   0.420  0.5694  0.4736 -0.0681
  831SOL     OW 3321   4.703   3.692   4.332  0.0837 -0.1506  0.1017
  831SOL    HW1 3322   4.690   3.785   4.349  1.1765 -0.1186  0.8959
  831SOL    HW2 3323   4.797   3.678   4.346  0.1852 -1.1201 -1.2987
  831SOL     MW 3324   4.714   3.703   4.336  0.2445 -0.2768  0.0201
  832SOL     OW 3325   3.671   3.722   5.463  0.1796  0.7798  0.4257
  832SOL    HW1 3326   3.658   3.762   5.377 -0.6492  0.3771  0.3648
  832SOL    HW2 3327   3.599   3.755   5.517 -0.4880 -0.5763  0.3961
  832SOL     MW 3328   3.660   3.732   5.459 -0.0218  0.5431  0.4135
  833SOL     OW 3329   0.095   2.372   2.432 -0.0537 -0.1659 -0.1698
  833SOL    HW1 3330   0.098   2.397   2.339 -1.2677  0.4165 -0.0773
  833SOL    HW2 3331   0.002   2.370   2.453  0.2168  0.1823  1.1679
  833SOL     MW 3332   0.083   2.375   2.422 -0.1806 -0.0406  0.0226
  834SOL     OW 3333   0.387   4.448   4.517  0.1603 -0.1851 -0.3793
  834SOL    HW1 3334   0.349   4.508   4.453 -1.6006 -0.3373  0.4675
  834SOL    HW2 3335   0.371   4.361   4.481 -0.4600 -0.2544  0.0438
  834SOL     MW 3336   0.380   4.444   4.504 -0.1601 -0.2149 -0.2084
  835SOL     OW 3337   1.375   1.212   2.229  1.0419 -0.0521 -0.0291
  835SOL    HW1 3338   1.320   1.193   2.306 -0.8166  0.4871 -1.1693
  835SOL    HW2 3339   1.378   1.129   2.181  3.0797 -0.6888  1.0895
  835SOL     MW 3340   1.368   1.198   2.233  1.0660 -0.0652 -0.0320
  836SOL     OW 3341   1.775   0.569   0.460 -0.0325 -0.5417  0.4517
  836SOL    HW1 3342   1.754   0.572   0.366 -1.8965  1.8561  0.8555
  836SOL    HW2 3343   1.856   0.518   0.464  1.5240  1.3697 -2.7462
  836SOL     MW 3344   1.783   0.562   0.448 -0.0739  0.0383  0.0756
  837SOL     OW 3345   3.654   4.655   4.597  0.0064  0.1356  0.1452
  837SOL    HW1 3346   3.630   4.562   4.604  0.2261 -0.0339 -1.0732
  837SOL    HW2 3347   3.667   4.683   4.687 -1.0150 -0.7666  0.6047
  837SOL     MW 3348   3.652   4.646   4.610 -0.1015 -0.0086  0.0430
  838SOL     OW 3349   3.654   0.929   0.849  0.1810  0.0792 -0.2252
  838SOL    HW1 3350   3.627   0.920   0.758 -0.7962  1.6359 -0.1260
  838SOL    HW2 3351   3.577   0.965   0.893  0.5535 -0.8680  1.2721
  838SOL     MW 3352   3.640   0.933   0.843  0.0996  0.1612 -0.0104
  839SOL     OW 3353   4.135   3.667   1.993 -0.0286 -0.7836 -0.1473
  839SOL    HW1 3354   4.065   3.643   2.053  0.4288  0.9239  1.1353
  839SOL    HW2 3355   4.090   3.698   1.914 -0.7092 -0.1975  0.4607
  839SOL     MW 3356   4.120   3.668   1.990 -0.0587 -0.4749  0.1071
  840SOL     OW 3357   2.127   3.274   0.254 -0.5805 -0.8252  0.3997
  840SOL    HW1 3358   2.141   3.350   0.312  1.8129 -1.4534  0.7668
  840SOL    HW2 3359   2.062   3.304   0.191  0.9030  1.8939  0.0007
  840SOL     MW 3360   2.120   3.288   0.253 -0.0588 -0.5438  0.3954
  841SOL     OW 3361   3.489   1.739   1.460  0.3493  0.1443 -0.3616
  841SOL    HW1 3362   3.573   1.774   1.431  0.8521  0.6026  1.5080
  841SOL    HW2 3363   3.483   1.652   1.420  1.7294  0.0976 -0.5009
  841SOL     MW 3364   3.499   1.732   1.451  0.6027  0.1997 -0.1287
  842SOL     OW 3365   0.575   2.746   2.545  0.4833 -0.2208  0.2341
  842SOL    HW1 3366   0.537   2.820   2.498  2.0146  0.2269 -0.3909
  842SOL    HW2 3367   0.516   2.673   2.527 -1.0164  0.8118  0.8053
  842SOL     MW 3368   0.562   2.746   2.536  0.4875 -0.0216  0.2269
  843SOL     OW 3369   1.159   5.182   2.019  0.3701  0.1890  0.2005
  843SOL    HW1 3370   1.207   5.263   2.039  0.2104  0.2871  0.1849
  843SOL    HW2 3371   1.067   5.204   2.034  0.2314  0.3121 -0.7915
  843SOL     MW 3372   1.153   5.196   2.024  0.3300  0.2188  0.0649
  844SOL     OW 3373   1.988   0.639   4.227 -0.1347 -0.2037  0.2674
  844SOL    HW1 3374   2.028   0.689   4.155 -3.0764 -1.6759 -2.6698
  844SOL    HW2 3375   2.061   0.592   4.267  2.0363  2.8108  0.1701
  844SOL     MW 3376   2.003   0.640   4.223 -0.2384  0.0039 -0.1410
  845SOL     OW 3377   2.325   1.549   2.796 -0.5465  0.3735 -0.0904
  845SOL    HW1 3378   2.365   1.609   2.732  0.5001  0.2082  0.3810
  845SOL    HW2 3379   2.367   1.465   2.779 -0.2570  0.3257  0.8020
  845SOL     MW 3380   2.336   1.546   2.785 -0.3667  0.3448  0.0931
  846SOL     OW 3381   1.641   0.372   3.741 -0.4681  0.4025 -0.3906
  846SOL    HW1 3382   1.564   0.390   3.687  0.2946  1.4868 -1.1505
  846SOL    HW2 3383   1.708   0.343   3.679 -0.2952 -0.6758  0.2831
  846SOL     MW 3384   1.640   0.371   3.726 -0.3422  0.4033 -0.4022
  847SOL     OW 3385   0.504   1.594   3.534 -0.3447 -0.0726 -0.5869
  847SOL    HW1 3386   0.557   1.514   3.533 -1.2895 -0.7195 -0.4205
  847SOL    HW2 3387   0.568   1.665   3.543  0.5441 -0.7749 -1.1003
  847SOL     MW 3388   0.520   1.593   3.535 -0.3522 -0.2542 -0.6336
  848SOL     OW 3389   0.222   2.527   3.340 -0.1126 -0.3934  0.0722
  848SOL    HW1 3390   0.285   2.477   3.392 -1.1195 -0.6042  1.1328
  848SOL    HW2 3391   0.273   2.601   3.305  0.3715  0.4393  2.3641
  848SOL     MW 3392   0.237   2.531   3.342 -0.1830 -0.3097  0.5234
  849SOL     OW 3393   1.206   2.518   5.206 -0.1428 -0.1495  0.2421
  849SOL    HW1 3394   1.256   2.515   5.288  0.9346  0.3258 -0.3762
  849SOL    HW2 3395   1.115   2.511   5.234  0.1608  0.6620  1.5494
  849SOL     MW 3396   1.200   2.517   5.221  0.0431  0.0237  0.3348
  850SOL     OW 3397   2.004   2.383   5.142  0.1383 -0.0367 -0.2858
  850SOL    HW1 3398   2.018   2.291   5.161  2.9601  0.0410 -1.4993
  850SOL    HW2 3399   2.003   2.388   5.046  0.5111  1.2214 -0.2428
  850SOL     MW 3400   2.006   2.372   5.131  0.5682  0.1431 -0.4433
  851SOL     OW 3401   1.506   4.571   3.006 -0.0753 -0.5099  0.4134
  851SOL    HW1 3402   1.474   4.597   2.919 -1.8295 -0.5928  1.0065
  851SOL    HW2 3403   1.556   4.490   2.989 -1.6949 -1.3987 -0.3603
  851SOL     MW 3404   1.508   4.563   2.992 -0.5294 -0.6407  0.3891
  852SOL     OW 3405   4.909   1.185   0.160  0.0659  0.6891 -0.0300
  852SOL    HW1 3406   4.927   1.156   0.250  2.5385  1.6466 -0.1353
  852SOL    HW2 3407   4.814   1.199   0.158 -0.4188 -1.6781  1.6772
  852SOL     MW 3408   4.899   1.183   0.172  0.3335  0.4994  0.1856
  853SOL     OW 3409   0.652   4.083   1.917 -0.0548 -0.2101  0.3075
  853SOL    HW1 3410   0.719   4.105   1.852  1.2157 -1.2556  1.1924
  853SOL    HW2 3411   0.577   4.053   1.866  0.7286 -0.5363 -0.6865
  853SOL     MW 3412   0.651   4.082   1.901  0.2216 -0.3947  0.2928
  854SOL     OW 3413   3.684   5.478   4.797  0.2203  0.0576 -0.4809
  854SOL    HW1 3414   3.602   5.481   4.846  1.4321 -2.3950  1.9916
  854SOL    HW2 3415   3.685   5.391   4.759  1.4296  0.2609 -0.9377
  854SOL     MW 3416   3.673   5.467   4.799  0.5462 -0.2451 -0.2096
  855SOL     OW 3417   1.534   0.483   4.471 -0.3156 -0.0482  0.2408
  855SOL    HW1 3418   1.584   0.407   4.443  0.1615  0.4248 -0.2159
  855SOL    HW2 3419   1.442   0.458   4.457 -0.1100 -0.0541 -1.1858
  855SOL     MW 3420   1.528   0.469   4.465 -0.2237  0.0146 -0.0127
  856SOL     OW 3421   0.956   0.111   0.574  0.2642  0.2652  0.0414
  856SOL    HW1 3422   0.997   0.151   0.498  1.1886  0.5041  0.6509
  856SOL    HW2 3423   0.938   0.185   0.633 -0.1636  0.0495  0.1858
  856SOL     MW 3424   0.959   0.127   0.572  0.3310  0.2683  0.1429
  857SOL     OW 3425   5.128   2.709   4.325 -0.2252  0.0327 -0.3950
  857SOL    HW1 3426   5.221   2.731   4.332 -0.3470  0.7156 -0.7819
  857SOL    HW2 3427   5.086   2.793   4.305 -1.0811 -0.0303  1.0481
  857SOL     MW 3428   5.135   2.724   4.323 -0.3568  0.1161 -0.2528
  858SOL     OW 3429   3.794   2.401   3.603 -0.1396 -0.3027  0.2672
  858SOL    HW1 3430   3.796   2.337   3.674 -0.0543  0.2133  0.7430
  858SOL    HW2 3431   3.886   2.417   3.582 -0.1439  0.0493  0.5095
  858SOL     MW 3432   3.807   2.395   3.610 -0.1287 -0.1859  0.3638
  859SOL     OW 3433   4.904   0.791   3.920 -0.0283 -0.1041 -0.5803
  859SOL    HW1 3434   4.845   0.718   3.939 -0.5991 -0.5493 -3.4884
  859SOL    HW2 3435   4.866   0.833   3.842  1.6947  1.6875 -0.5472
  859SOL     MW 3436   4.891   0.787   3.912  0.1268  0.0771 -0.9672
  860SOL     OW 3437   5.409   4.229   4.986  0.0731 -0.3292  0.0972
  860SOL    HW1 3438   5.386   4.144   4.949  0.7428 -0.2159 -0.6273
  860SOL    HW2 3439   5.337   4.251   5.044 -1.5264 -0.0892 -1.8640
  860SOL     MW 3440   5.396   4.221   4.989 -0.0521 -0.2816 -0.2642
  861SOL     OW 3441   4.771   1.928   5.147 -0.4171 -0.1847 -0.0586
  861SOL    HW1 3442   4.859   1.898   5.165 -0.3687  0.4220  0.7577
  861SOL    HW2 3443   4.783   2.009   5.097 -0.4749  0.6841  1.3005
  861SOL     MW 3444   4.784   1.935   5.142 -0.4183  0.0138  0.2341
  862SOL     OW 3445   5.334   0.149   3.448 -0.1013 -0.1043 -0.3799
  862SOL    HW1 3446   5.319   0.204   3.525  1.8045 -0.2071  0.1046
  862SOL    HW2 3447   5.363   0.210   3.380  0.9817 -0.3691 -0.1594
  862SOL     MW 3448   5.336   0.164   3.449  0.3009 -0.1538 -0.2850
  863SOL     OW 3449   4.219   5.349   2.034  0.3336  0.0938  0.3957
  863SOL    HW1 3450   4.251   5.387   2.116 -0.6545 -0.3076  0.9889
  863SOL    HW2 3451   4.232   5.418   1.969  0.1030  0.8392  1.1191
  863SOL     MW 3452   4.225   5.364   2.036  0.1696  0.1401  0.5729
  864SOL     OW 3453   1.220   0.158   2.390  0.0501  0.3920  0.9072
  864SOL    HW1 3454   1.177   0.110   2.461  1.0842 -1.1779  0.5127
  864SOL    HW2 3455   1.313   0.142   2.404  0.2926  0.5137 -0.4982
  864SOL     MW 3456   1.227   0.149   2.402  0.2219  0.1971  0.6649
  865SOL     OW 3457   3.075   1.245   0.151 -0.4075  0.0331 -0.0423
  865SOL    HW1 3458   3.043   1.180   0.088 -0.0110 -0.7692  0.5681
  865SOL    HW2 3459   3.115   1.313   0.097  0.2844 -0.8373 -0.6500
  865SOL     MW 3460   3.076   1.246   0.135 -0.2611 -0.1920 -0.0419
  866SOL     OW 3461   0.811   3.772   4.707  0.0850  0.1947 -0.0799
  866SOL    HW1 3462   0.803   3.701   4.770 -0.1945  0.0444 -0.2831
  866SOL    HW2 3463   0.722   3.786   4.674  0.4799 -0.9043 -1.7264
  866SOL     MW 3464   0.798   3.765   4.711  0.1006  0.0266 -0.3288
  867SOL     OW 3465   4.898   1.681   1.750  0.0778 -0.1139 -0.6196
  867SOL    HW1 3466   4.865   1.671   1.660  0.5591 -5.0984 -0.5164
  867SOL    HW2 3467   4.820   1.678   1.805 -0.0518 -3.5095 -0.7674
  867SOL     MW 3468   4.883   1.679   1.745  0.1251 -1.2417 -0.6256
  868SOL     OW 3469   2.843   0.217   3.959 -0.3937 -0.0673  0.4670
  868SOL    HW1 3470   2.819   0.209   3.867 -2.0979 -0.2894  0.9026
  868SOL    HW2 3471   2.801   0.143   4.002 -0.3532  0.5270  1.5613
  868SOL     MW 3472   2.834   0.206   3.952 -0.6176 -0.0172  0.6729
  869SOL     OW 3473   3.249   4.035   0.572  0.4171  0.3056  0.0718
  869SOL    HW1 3474   3.288   4.090   0.504 -0.2331 -0.0933 -0.6382
  869SOL    HW2 3475   3.269   4.080   0.654  2.0174  0.3067 -0.2937
  869SOL     MW 3476   3.257   4.048   0.574  0.5450  0.2521 -0.0729
  870SOL     OW 3477   3.099   1.253   0.933  0.4648 -0.0438 -0.2356
  870SOL    HW1 3478   3.098   1.344   0.905  0.3789  0.3302  0.9099
  870SOL    HW2 3479   3.049   1.252   1.015  0.6415 -1.0788 -0.1141
  870SOL     MW 3480   3.092   1.265   0.940  0.4770 -0.1327 -0.0651
  871SOL     OW 3481   1.752   4.626   5.253 -0.1178 -0.4275 -0.0860
  871SOL    HW1 3482   1.663   4.661   5.248  0.3445  0.8063 -0.2336
  871SOL    HW2 3483   1.745   4.535   5.228 -1.3844 -0.4119  0.1863
  871SOL     MW 3484   1.739   4.619   5.249 -0.2260 -0.2593 -0.0692
  872SOL     OW 3485   1.162   2.696   2.216  0.1379 -0.7162  0.4763
  872SOL    HW1 3486   1.201   2.666   2.298 -0.1731 -0.9311  0.5460
  872SOL    HW2 3487   1.078   2.651   2.211 -0.1720 -0.1428  0.3961
  872SOL     MW 3488   1.156   2.686   2.226  0.0543 -0.6680  0.4749
  873SOL     OW 3489   0.638   2.058   0.319  0.4508  0.4954 -0.1031
  873SOL    HW1 3490   0.564   2.110   0.350  1.0323  0.9040  0.6444
  873SOL    HW2 3491   0.702   2.062   0.390  1.4150  0.6056 -0.9373
  873SOL     MW 3492   0.637   2.066   0.333  0.6588  0.5652 -0.1148
  874SOL     OW 3493   0.561   4.435   3.745 -0.6734 -0.1456  0.3346
  874SOL    HW1 3494   0.645   4.414   3.705 -1.2662  0.8552 -1.6112
  874SOL    HW2 3495   0.573   4.522   3.782 -1.1181  0.5310 -1.0113
  874SOL     MW 3496   0.574   4.444   3.744 -0.8130  0.0802 -0.1084
  875SOL     OW 3497   4.949   1.942   0.246 -0.2153  0.4498 -0.2077
  875SOL    HW1 3498   4.925   1.852   0.268  0.7767  0.4043  0.7831
  875SOL    HW2 3499   4.877   1.973   0.191 -1.5851 -0.2683  1.1051
  875SOL     MW 3500   4.936   1.934   0.242 -0.2661  0.3470  0.1023
  876SOL     OW 3501   2.713   1.611   0.498  0.7407 -0.6368  0.2212
  876SOL    HW1 3502   2.737   1.642   0.586 -0.1594 -1.3667  0.7513
  876SOL    HW2 3503   2.791   1.567   0.466  1.9613  1.8729 -0.4468
  876SOL     MW 3504   2.727   1.609   0.506  0.7839 -0.3972  0.2026
  877SOL     OW 3505   0.001   0.565   3.677 -0.0283  0.1804 -0.2534
  877SOL    HW1 3506   0.059   0.538   3.748 -1.0034 -0.5656  0.2869
  877SOL    HW2 3507  -0.059   0.490   3.665 -0.0053  0.3569 -1.7324
  877SOL     MW 3508   0.001   0.551   3.685 -0.1564  0.1038 -0.3797
  878SOL     OW 3509   3.857   0.173   3.298 -0.1636 -0.0164  0.4405
  878SOL    HW1 3510   3.842   0.097   3.243  1.3952 -0.4749  0.5949
  878SOL    HW2 3511   3.771   0.215   3.306 -0.8275 -1.1417 -0.5365
  878SOL     MW 3512   3.843   0.169   3.292 -0.0431 -0.2296  0.3298
  879SOL     OW 3513   1.046   4.145   4.258  0.6404  0.0552 -0.2583
  879SOL    HW1 3514   1.068   4.071   4.315 -0.3290  0.9277  1.3011
  879SOL    HW2 3515   0.955   4.129   4.232  0.0306  1.2450  1.0262
  879SOL     MW 3516   1.037   4.133   4.262  0.4278  0.3327  0.1245
  880SOL     OW 3517   4.978   2.723   1.738 -0.0575  0.0578  0.1278
  880SOL    HW1 3518   5.071   2.709   1.719  0.1803  0.8980  0.6234
  880SOL    HW2 3519   4.975   2.736   1.833 -1.0004 -2.3921  0.5135
  880SOL     MW 3520   4.990   2.723   1.748 -0.1524 -0.1588  0.2464
  881SOL     OW 3521   1.504   1.205   4.762  0.2886 -0.1743  0.1973
  881SOL    HW1 3522   1.526   1.188   4.854  0.1672  0.1849  0.2932
  881SOL    HW2 3523   1.504   1.118   4.721  0.8511 -0.2874  0.4232
  881SOL     MW 3524   1.507   1.191   4.769  0.3480 -0.1412  0.2406
  882SOL     OW 3525   0.044   0.113   3.157 -0.2758  0.1083  0.0953
  882SOL    HW1 3526  -0.034   0.168   3.167 -1.1944 -0.7075 -2.0133
  882SOL    HW2 3527   0.073   0.129   3.067  1.1313 -0.7202  0.3722
  882SOL     MW 3528   0.037   0.123   3.146 -0.2101 -0.1130 -0.1512
  883SOL     OW 3529   0.359   3.455   4.024 -0.4224 -0.3458  0.3482
  883SOL    HW1 3530   0.272   3.486   4.050 -1.0027 -0.4361 -1.3086
  883SOL    HW2 3531   0.374   3.496   3.939  0.3612 -1.7332 -0.2239
  883SOL     MW 3532   0.349   3.465   4.016 -0.3951 -0.5447  0.0482
  884SOL     OW 3533   5.332   0.367   3.637  0.4312  0.3135  0.0873
  884SOL    HW1 3534   5.264   0.430   3.612  1.3261  0.6952 -1.5346
  884SOL    HW2 3535   5.305   0.336   3.723 -1.3570  1.0706 -0.1457
  884SOL     MW 3536   5.319   0.371   3.645  0.3110  0.4668 -0.1623
  885SOL     OW 3537   1.877   3.568   3.350  0.0711  0.5363  0.4856
  885SOL    HW1 3538   1.869   3.496   3.287  0.3713  0.7295  0.2178
  885SOL    HW2 3539   1.891   3.525   3.434  2.2383  0.2756  0.0432
  885SOL     MW 3540   1.878   3.553   3.353  0.4032  0.5272  0.3900
  886SOL     OW 3541   3.722   2.014   0.527 -0.0015 -0.5107 -0.5056
  886SOL    HW1 3542   3.652   2.068   0.489 -1.0646 -2.2593 -1.1359
  886SOL    HW2 3543   3.784   2.078   0.564 -1.5280  1.1063 -0.6056
  886SOL     MW 3544   3.721   2.030   0.527 -0.3500 -0.5284 -0.6039
  887SOL     OW 3545   3.695   0.117   5.298 -0.3299  0.0447 -0.1303
  887SOL    HW1 3546   3.704   0.074   5.384  2.9133  2.4371  0.9247
  887SOL    HW2 3547   3.714   0.047   5.235  1.2243 -0.9261  1.3219
  887SOL     MW 3548   3.699   0.102   5.301  0.3157  0.2361  0.2071
  888SOL     OW 3549   0.270   0.647   0.183 -0.1261  0.0691 -0.2029
  888SOL    HW1 3550   0.218   0.595   0.122 -1.0685  0.5538  0.1497
  888SOL    HW2 3551   0.206   0.678   0.248  1.1475 -2.2171  2.3407
  888SOL     MW 3552   0.254   0.644   0.184 -0.0815 -0.1733  0.1869
  889SOL     OW 3553   0.554   3.839   4.623 -0.5670 -0.2842  0.2541
  889SOL    HW1 3554   0.482   3.843   4.686 -0.5378  2.7222  0.2208
  889SOL    HW2 3555   0.513   3.808   4.542 -1.5306 -0.0365  0.6272
  889SOL     MW 3556   0.539   3.835   4.620 -0.6928  0.1537  0.2998
  890SOL     OW 3557   2.495   0.147   1.987  0.0895 -0.0489  0.4679
  890SOL    HW1 3558   2.497   0.188   2.074 -1.1664 -0.7364  0.8444
  890SOL    HW2 3559   2.479   0.220   1.927 -0.7378  0.2244  0.9955
  890SOL     MW 3560   2.493   0.162   1.991 -0.1909 -0.1046  0.5896
  891SOL     OW 3561   2.033   5.246   0.990 -0.3652  0.5589  0.1383
  891SOL    HW1 3562   1.966   5.270   0.927 -1.7990 -1.9287  0.6067
  891SOL    HW2 3563   1.993   5.262   1.076 -0.1618 -0.3802  0.4197
  891SOL     MW 3564   2.019   5.251   0.993 -0.5308  0.0977  0.2393
  892SOL     OW 3565   1.913   3.433   3.596  0.3334 -0.1741 -0.8717
  892SOL    HW1 3566   1.922   3.479   3.679 -1.4358 -0.2930 -0.5662
  892SOL    HW2 3567   1.999   3.393   3.581  0.7487  0.0058  0.8102
  892SOL     MW 3568   1.925   3.434   3.606  0.1512 -0.1659 -0.6043
  893SOL     OW 3569   3.280   1.552   5.163 -0.6345  0.3538 -0.1439
  893SOL    HW1 3570   3.201   1.562   5.111 -1.0521 -1.0930  0.1685
  893SOL    HW2 3571   3.352   1.567   5.102 -1.1146  2.1312 -0.3331
  893SOL     MW 3572   3.279   1.555   5.148 -0.7553  0.3983 -0.1273
  894SOL     OW 3573   2.502   2.331   4.029 -0.0809 -0.2625 -0.1412
  894SOL    HW1 3574   2.528   2.348   4.120 -0.0495 -2.5942  0.3651
  894SOL    HW2 3575   2.518   2.413   3.983 -1.1328  1.3269  2.1641
  894SOL     MW 3576   2.508   2.344   4.035 -0.2183 -0.3624  0.2372
  895SOL     OW 3577   0.420   1.276   1.423 -0.0488  0.4978 -0.4134
  895SOL    HW1 3578   0.464   1.218   1.361  1.2607  1.2259 -0.2207
  895SOL    HW2 3579   0.492   1.318   1.471 -1.0039  0.8155  0.7878
  895SOL     MW 3580   0.436   1.274   1.421 -0.0011  0.6385 -0.2258
  896SOL     OW 3581   2.230   0.042   3.359 -0.5584  0.1525  0.2437
  896SOL    HW1 3582   2.196   0.108   3.420  0.7867  0.3312  0.8426
  896SOL    HW2 3583   2.219  -0.041   3.406 -0.4488  0.1755  0.3104
  896SOL     MW 3584   2.224   0.039   3.374 -0.3626  0.1796  0.3332
  897SOL     OW 3585   2.172   2.537   1.703  0.1238 -0.7256  0.4589
  897SOL    HW1 3586   2.140   2.496   1.623  1.1649 -0.9655  0.1602
  897SOL    HW2 3587   2.143   2.628   1.696  0.6892 -0.6048 -0.4668
  897SOL     MW 3588   2.163   2.544   1.691  0.3400 -0.7416  0.2941
  898SOL     OW 3589   3.166   1.233   1.394 -0.6180  0.1188 -0.5998
  898SOL    HW1 3590   3.254   1.249   1.360 -0.3261  0.8298  0.4472
  898SOL    HW2 3591   3.169   1.143   1.428  0.3172  0.7877  1.1947
  898SOL     MW 3592   3.178   1.223   1.394 -0.4529  0.3045 -0.2174
  899SOL     OW 3593   1.627   4.725   0.421 -0.4729  0.4746 -0.3384
  899SOL    HW1 3594   1.614   4.757   0.331 -0.4817  0.3323 -0.3873
  899SOL    HW2 3595   1.655   4.635   0.411 -0.9524  0.3045 -0.1862
  899SOL     MW 3596   1.629   4.717   0.408 -0.5386  0.4325 -0.3245
  900SOL     OW 3597   3.069   3.496   3.149  0.0081 -0.7305 -0.1371
  900SOL    HW1 3598   3.146   3.549   3.128 -1.2724  0.5492 -1.9554
  900SOL    HW2 3599   3.101   3.406   3.153  1.4315 -0.3748 -2.0749
  900SOL     MW 3600   3.083   3.491   3.146  0.0273 -0.5104 -0.6426
  901SOL     OW 3601   0.424   4.530   0.853  0.1361 -0.5350  0.5226
  901SOL    HW1 3602   0.467   4.534   0.767  0.0075 -1.9700  0.3728
  901SOL    HW2 3603   0.493   4.504   0.914 -0.1204 -1.1447  0.5651
  901SOL     MW 3604   0.439   4.527   0.849  0.0843 -0.8102  0.5082
  902SOL     OW 3605   3.354   4.675   1.049 -0.8961  0.5065  0.4527
  902SOL    HW1 3606   3.429   4.630   1.087  0.4503 -0.5715 -3.0749
  902SOL    HW2 3607   3.289   4.605   1.037 -1.8775  1.1168  2.0015
  902SOL     MW 3608   3.355   4.659   1.052 -0.8470  0.4436  0.1864
  903SOL     OW 3609   1.375   1.335   4.346 -0.3770  0.0971 -0.0354
  903SOL    HW1 3610   1.325   1.362   4.423 -0.8066  0.4388 -0.4244
  903SOL    HW2 3611   1.430   1.411   4.325 -0.5797  0.1651 -0.3215
  903SOL     MW 3612   1.376   1.349   4.354 -0.4621  0.1522 -0.1263
  904SOL     OW 3613   4.923   1.078   3.228 -0.0571 -0.2042 -0.4024
  904SOL    HW1 3614   4.877   1.094   3.146  0.2329  0.4014 -0.4512
  904SOL    HW2 3615   4.994   1.142   3.229 -2.8232  3.2551  2.5751
  904SOL     MW 3616   4.927   1.088   3.217 -0.3904  0.3429 -0.0082
  905SOL     OW 3617   2.873   4.251   4.156 -0.0095  0.2310 -0.4599
  905SOL    HW1 3618   2.898   4.313   4.224 -0.4509 -0.4818  0.3706
  905SOL    HW2 3619   2.791   4.285   4.122 -0.6404 -0.2607  0.5085
  905SOL     MW 3620   2.865   4.264   4.161 -0.1538  0.0689 -0.2178
  906SOL     OW 3621   0.830   4.736   0.063 -0.0267 -0.2075  0.0803
  906SOL    HW1 3622   0.848   4.819   0.018 -1.3163 -0.3039 -0.6749
  906SOL    HW2 3623   0.846   4.754   0.155  0.1459  0.7501 -0.1261
  906SOL     MW 3624   0.834   4.750   0.069 -0.1770 -0.0916 -0.0491
  907SOL     OW 3625   0.056   3.537   3.784  0.0896  0.0037  0.5057
  907SOL    HW1 3626   0.031   3.573   3.698  0.3389 -0.0634  0.4062
  907SOL    HW2 3627   0.085   3.448   3.766 -0.3554 -0.1900  0.7306
  907SOL     MW 3628   0.056   3.530   3.770  0.0632 -0.0314  0.5226
  908SOL     OW 3629   2.176   4.348   2.122 -0.0279 -0.2716  0.0262
  908SOL    HW1 3630   2.117   4.421   2.104 -0.7433 -0.6955  0.6035
  908SOL    HW2 3631   2.222   4.333   2.039 -0.6418  0.1492 -0.3995
  908SOL     MW 3632   2.174   4.356   2.108 -0.2068 -0.2720  0.0466
  909SOL     OW 3633   0.892   3.007   4.341 -0.1062  0.2083 -0.2721
  909SOL    HW1 3634   0.840   3.085   4.320  0.1995  0.6839  0.6741
  909SOL    HW2 3635   0.980   3.029   4.311  0.1308  0.5194  0.6104
  909SOL     MW 3636   0.897   3.021   4.334 -0.0332  0.3141 -0.0260
  910SOL     OW 3637   0.474   1.864   4.704  0.1636  0.1656  0.4401
  910SOL    HW1 3638   0.440   1.840   4.790 -0.0431 -2.0108 -0.1892
  910SOL    HW2 3639   0.411   1.828   4.642 -0.1465  2.4383 -0.6519
  910SOL     MW 3640   0.461   1.856   4.707  0.0940  0.1786  0.2085
  911SOL     OW 3641   0.543   3.926   2.753  0.2398  0.1287  0.1948
  911SOL    HW1 3642   0.486   3.853   2.728 -1.2757  0.7573  1.5874
  911SOL    HW2 3643   0.544   3.983   2.676  1.1803 -1.1819 -0.7919
  911SOL     MW 3644   0.535   3.924   2.739  0.1624  0.0369  0.2494
  912SOL     OW 3645   2.791   3.544   3.065 -0.2030  0.0425 -0.5564
  912SOL    HW1 3646   2.864   3.519   3.121 -1.6765  0.5104  1.6625
  912SOL    HW2 3647   2.765   3.463   3.022  0.9575 -0.3237 -0.6091
  912SOL     MW 3648   2.798   3.530   3.066 -0.2451  0.0562 -0.2649
  913SOL     OW 3649   3.370   2.272   0.830  0.0893 -0.5474 -0.2556
  913SOL    HW1 3650   3.402   2.244   0.916  0.1101 -0.9647 -0.3974
  913SOL    HW2 3651   3.315   2.348   0.849 -1.1103 -1.5204  0.2810
  913SOL     MW 3652   3.367   2.279   0.844 -0.0694 -0.7345 -0.2025
  914SOL     OW 3653   3.118   1.789   5.299 -0.1232 -0.4142  0.6517
  914SOL    HW1 3654   3.077   1.709   5.267  0.1015 -0.3341  0.1581
  914SOL    HW2 3655   3.157   1.764   5.383 -0.9584 -0.5549  1.0075
  914SOL     MW 3656   3.118   1.775   5.306 -0.2054 -0.4223  0.6332
  915SOL     OW 3657   0.023   4.211   3.333 -0.0524 -0.5801 -0.0121
  915SOL    HW1 3658   0.028   4.118   3.356 -0.3470 -0.4200  0.7465
  915SOL    HW2 3659  -0.002   4.212   3.241  0.0311 -1.2537 -0.0476
  915SOL     MW 3660   0.020   4.199   3.324 -0.0808 -0.6492  0.0852
  916SOL     OW 3661   0.415   0.694   3.402 -0.0436  0.3097  0.4273
  916SOL    HW1 3662   0.356   0.630   3.440  1.4973 -2.0432 -0.8437
  916SOL    HW2 3663   0.395   0.692   3.308  0.2710  1.4212  0.3283
  916SOL     MW 3664   0.405   0.685   3.394  0.2061  0.1426  0.2429
  917SOL     OW 3665   2.464   4.257   0.702 -0.2180  0.1678  0.0859
  917SOL    HW1 3666   2.458   4.184   0.641  0.5944 -1.9560  2.3573
  917SOL    HW2 3667   2.374   4.286   0.714 -0.6422 -0.8713 -0.4365
  917SOL     MW 3668   2.451   4.251   0.696 -0.1658 -0.2579  0.3212
  918SOL     OW 3669   4.072   3.974   1.770 -0.5053  0.5202  0.0193
  918SOL    HW1 3670   3.999   4.034   1.756 -1.6240 -0.9359 -0.6268
  918SOL    HW2 3671   4.052   3.931   1.853 -0.1874  0.3829  0.0268
  918SOL     MW 3672   4.060   3.976   1.779 -0.6131  0.3058 -0.0667
  919SOL     OW 3673   0.693   5.395   5.470 -0.2783  0.4233  0.4616
  919SOL    HW1 3674   0.749   5.370   5.544  1.6439  0.5024 -0.8991
  919SOL    HW2 3675   0.677   5.489   5.482  2.0374  0.9918 -0.4310
  919SOL     MW 3676   0.698   5.404   5.482  0.2921  0.5105  0.1583
  920SOL     OW 3677   3.562   1.898   2.470 -0.0035 -0.0005  0.3158
  920SOL    HW1 3678   3.641   1.877   2.420 -0.5019  0.5199 -0.7300
  920SOL    HW2 3679   3.490   1.877   2.411 -0.6480 -0.3283  1.2029
  920SOL     MW 3680   3.563   1.892   2.455 -0.1573  0.0254  0.2945
  921SOL     OW 3681   1.890   0.674   1.072 -0.5634  0.3327  0.0812
  921SOL    HW1 3682   1.969   0.668   1.125 -0.8988  1.6820  0.8000
  921SOL    HW2 3683   1.902   0.754   1.019 -1.0930  0.1106 -0.3979
  921SOL     MW 3684   1.902   0.684   1.072 -0.6798  0.4844  0.1135
  922SOL     OW 3685   2.203   3.972   2.833  0.2575  0.2494 -0.0782
  922SOL    HW1 3686   2.147   3.958   2.757 -0.8394 -1.5129  0.9997
  922SOL    HW2 3687   2.189   4.064   2.857  0.3682  0.7385 -1.7510
  922SOL     MW 3688   2.194   3.982   2.826  0.1248  0.0780 -0.1583
  923SOL     OW 3689   1.362   0.651   1.438 -0.3571 -0.4404  0.4177
  923SOL    HW1 3690   1.365   0.654   1.342 -0.1218  0.1125  0.4354
  923SOL    HW2 3691   1.379   0.742   1.465 -2.0696 -0.2454  0.9436
  923SOL     MW 3692   1.365   0.664   1.429 -0.5559 -0.3398  0.4908
  924SOL     OW 3693   4.350   3.671   3.356  0.0171 -0.2845 -0.3607
  924SOL    HW1 3694   4.299   3.692   3.278  0.3363  0.3083 -0.4139
  924SOL    HW2 3695   4.294   3.613   3.407 -1.3936  1.6311  0.3731
  924SOL     MW 3696   4.336   3.666   3.352 -0.1298  0.0531 -0.2691
  925SOL     OW 3697   2.919   1.225   0.500 -0.0950  0.2722 -0.4655
  925SOL    HW1 3698   2.860   1.178   0.440 -0.6501  0.7426 -0.2984
  925SOL    HW2 3699   3.007   1.204   0.468 -0.3581 -0.2153 -0.8912
  925SOL     MW 3700   2.923   1.216   0.488 -0.2051  0.2699 -0.5003
  926SOL     OW 3701   3.296   4.028   5.039  0.4362  0.6549  0.2824
  926SOL    HW1 3702   3.357   3.954   5.049  0.6474  0.7849 -0.0461
  926SOL    HW2 3703   3.214   3.996   5.077  0.7739  0.5602  0.9405
  926SOL     MW 3704   3.293   4.013   5.046  0.5101  0.6597  0.3268
  927SOL     OW 3705   1.767   3.015   2.550 -0.3582 -0.1201  0.7155
  927SOL    HW1 3706   1.829   2.943   2.562  0.6500  0.7672  0.8943
  927SOL    HW2 3707   1.804   3.068   2.480 -1.4232 -0.1013  0.1385
  927SOL     MW 3708   1.780   3.012   2.542 -0.3659  0.0018  0.6619
  928SOL     OW 3709   2.549   3.554   4.182 -0.0026 -0.1550 -0.0689
  928SOL    HW1 3710   2.561   3.474   4.131 -0.1064  0.4167 -0.9972
  928SOL    HW2 3711   2.456   3.575   4.173 -0.0272 -0.0549  0.3780
  928SOL     MW 3712   2.538   3.546   4.174 -0.0199 -0.0646 -0.1337
  929SOL     OW 3713   3.178   4.538   2.839  0.2683  0.0422  0.3601
  929SOL    HW1 3714   3.238   4.531   2.764 -1.9638 -1.0252 -1.4205
  929SOL    HW2 3715   3.187   4.629   2.868  1.4566  0.3872 -0.9683
  929SOL     MW 3716   3.188   4.549   2.833  0.1279 -0.0550 -0.0583
  930SOL     OW 3717   0.825   1.001   0.798 -0.0073 -0.3924 -0.9504
  930SOL    HW1 3718   0.883   1.077   0.793 -1.5356  0.8524 -0.5128
  930SOL    HW2 3719   0.796   0.987   0.708  0.6870 -0.7966 -1.1141
  930SOL     MW 3720   0.829   1.010   0.785 -0.1195 -0.2792 -0.9136
  931SOL     OW 3721   3.064   0.078   1.159 -0.4035 -0.4877  0.1839
  931SOL    HW1 3722   3.028  -0.007   1.182  0.6161 -1.0225 -0.1063
  931SOL    HW2 3723   3.029   0.139   1.224  0.3158 -1.4671  1.5333
  931SOL     MW 3724   3.055   0.075   1.171 -0.1695 -0.6915  0.3265
  932SOL     OW 3725   3.479   0.364   2.635 -0.1711 -0.2987  0.0851
  932SOL    HW1 3726   3.563   0.388   2.674  0.8745 -1.6300 -1.2543
  932SOL    HW2 3727   3.413   0.397   2.697  1.3021  1.1713  0.9331
  932SOL     MW 3728   3.481   0.372   2.649  0.1679 -0.2801  0.0190
  933SOL     OW 3729   5.032   3.868   1.262  0.4199 -0.2223  0.2268
  933SOL    HW1 3730   5.082   3.943   1.230 -2.2951  1.0507 -1.5013
  933SOL    HW2 3731   4.981   3.903   1.335 -0.9493 -0.2528 -0.6614
  933SOL     MW 3732   5.032   3.883   1.267 -0.1297 -0.0551 -0.1253
  934SOL     OW 3733   1.605   3.569   5.195 -0.1734 -0.0175 -0.3626
  934SOL    HW1 3734   1.517   3.534   5.181 -0.8451  0.0610  2.8535
  934SOL    HW2 3735   1.595   3.664   5.192  0.4656  0.0334 -2.9761
  934SOL     MW 3736   1.592   3.577   5.193 -0.1778 -0.0000 -0.2815
  935SOL     OW 3737   0.203   2.179   4.654  0.0096 -0.0872  0.3246
  935SOL    HW1 3738   0.290   2.174   4.695  0.7524  0.8847 -1.0574
  935SOL    HW2 3739   0.216   2.233   4.577 -1.6924 -0.5474 -0.3289
  935SOL     MW 3740   0.217   2.185   4.650 -0.1195 -0.0183  0.0507
  936SOL     OW 3741   0.660   2.218   3.514 -0.4287  0.0377  0.1694
  936SOL    HW1 3742   0.644   2.164   3.591  0.4189 -0.0151  0.3090
  936SOL    HW2 3743   0.699   2.159   3.450 -0.5559  0.2244 -0.0877
  936SOL     MW 3744   0.663   2.203   3.515 -0.3317  0.0558  0.1536
  937SOL     OW 3745   3.668   0.333   1.348  0.1763  0.0657  0.8554
  937SOL    HW1 3746   3.721   0.309   1.424 -0.8722  0.9810  1.9051
  937SOL    HW2 3747   3.703   0.417   1.320 -0.3717  0.4325  1.2458
  937SOL     MW 3748   3.680   0.341   1.355 -0.0385  0.2383  1.0492
  938SOL     OW 3749   0.427   1.645   2.636  0.0092 -0.1045  0.3598
  938SOL    HW1 3750   0.411   1.554   2.660  0.2717 -0.1776  0.2629
  938SOL    HW2 3751   0.361   1.665   2.570 -0.1997 -0.1516  0.5554
  938SOL     MW 3752   0.416   1.635   2.630  0.0164 -0.1207  0.3731
  939SOL     OW 3753   4.418   2.781   3.186 -0.8865 -0.1627  0.2101
  939SOL    HW1 3754   4.476   2.756   3.114 -0.0153 -1.7532  1.4179
  939SOL    HW2 3755   4.330   2.771   3.150 -0.4760 -1.1530 -0.5629
  939SOL     MW 3756   4.414   2.776   3.171 -0.7140 -0.5101  0.2686
  940SOL     OW 3757   3.668   2.836   3.755 -0.2403 -0.5295 -0.1978
  940SOL    HW1 3758   3.647   2.903   3.691 -0.8929  0.2726  0.8299
  940SOL    HW2 3759   3.592   2.777   3.754  0.2458 -1.1528 -0.9590
  940SOL     MW 3760   3.655   2.837   3.747 -0.2627 -0.5054 -0.1619
  941SOL     OW 3761   0.067   2.880   3.919 -0.1439 -0.1472 -0.0338
  941SOL    HW1 3762   0.035   2.943   3.984 -1.7920 -1.1899  0.2321
  941SOL    HW2 3763   0.137   2.833   3.964 -0.9729 -0.5597  0.8538
  941SOL     MW 3764   0.072   2.882   3.934 -0.4772 -0.3431  0.1214
  942SOL     OW 3765   3.519   2.932   3.071  0.4267  0.3192 -0.4295
  942SOL    HW1 3766   3.569   2.890   3.142  0.1853  0.3136 -0.2622
  942SOL    HW2 3767   3.507   3.022   3.101  1.4711  0.6907 -1.0605
  942SOL     MW 3768   3.524   2.938   3.085  0.5348  0.3684 -0.4919
  943SOL     OW 3769   1.589   0.781   1.633  0.6491 -0.2077 -0.0440
  943SOL    HW1 3770   1.660   0.840   1.661  0.9196 -0.3033 -0.5011
  943SOL    HW2 3771   1.533   0.837   1.579  1.4923 -0.6065 -1.3798
  943SOL     MW 3772   1.591   0.797   1.629  0.7990 -0.2742 -0.2853
  944SOL     OW 3773   4.441   3.644   3.718 -0.2875 -0.2220  0.1857
  944SOL    HW1 3774   4.441   3.715   3.654  1.0393 -0.4637 -0.1240
  944SOL    HW2 3775   4.387   3.576   3.679  0.8072 -0.5165 -0.8747
  944SOL     MW 3776   4.434   3.645   3.704  0.0384 -0.2942  0.0013
  945SOL     OW 3777   1.142   0.185   1.714  0.0549 -0.2431 -0.1116
  945SOL    HW1 3778   1.099   0.184   1.800 -2.7801 -2.7935 -1.3485
  945SOL    HW2 3779   1.218   0.128   1.724 -0.2800 -0.5655  0.6837
  945SOL     MW 3780   1.146   0.177   1.727 -0.3717 -0.6298 -0.1710
  946SOL     OW 3781   3.265   1.447   0.049 -0.2837 -0.0584 -0.0260
  946SOL    HW1 3782   3.323   1.427   0.122 -1.5635 -0.2928  0.9602
  946SOL    HW2 3783   3.315   1.424  -0.029  0.5902 -1.1624  0.8379
  946SOL     MW 3784   3.279   1.442   0.048 -0.3384 -0.2385  0.2230
  947SOL     OW 3785   0.858   4.325   0.051 -0.1059 -0.3622 -0.1523
  947SOL    HW1 3786   0.911   4.337   0.130  1.0838  0.7294 -1.0643
  947SOL    HW2 3787   0.907   4.371  -0.017 -1.6669 -0.3310 -1.2956
  947SOL     MW 3788   0.872   4.333   0.053 -0.1559 -0.2111 -0.4289
  948SOL     OW 3789   3.023   2.321   0.571  0.6669  0.3421  0.0247
  948SOL    HW1 3790   3.101   2.272   0.596  0.9530  0.2410 -1.0224
  948SOL    HW2 3791   3.041   2.411   0.599  0.7046  0.1220  0.7305
  948SOL     MW 3792   3.036   2.327   0.578  0.7105  0.2989 -0.0213
  949SOL     OW 3793   2.936   4.343   1.990  0.2633  0.1289  0.1479
  949SOL    HW1 3794   2.971   4.270   2.041 -1.2151 -0.3019  0.6084
  949SOL    HW2 3795   2.916   4.305   1.905 -1.0732 -0.1940  0.5782
  949SOL     MW 3796   2.938   4.328   1.986 -0.1155  0.0275  0.2678
  950SOL     OW 3797   2.373   4.108   2.648  0.3093 -0.5273  0.4968
  950SOL    HW1 3798   2.310   4.161   2.599  0.6185 -1.1251 -0.5737
  950SOL    HW2 3799   2.319   4.057   2.708 -0.4510 -2.2870 -1.5595
  950SOL     MW 3800   2.357   4.108   2.650  0.2486 -0.8445  0.0760
  951SOL     OW 3801   2.649   1.867   1.717  0.0316 -0.4735  0.1023
  951SOL    HW1 3802   2.578   1.827   1.668  1.5355 -1.8913 -1.0530
  951SOL    HW2 3803   2.682   1.798   1.774 -1.1468  0.9167  2.6265
  951SOL     MW 3804   2.644   1.852   1.718  0.0754 -0.4772  0.2865
  952SOL     OW 3805   4.688   0.810   0.931 -0.2023  0.5835  0.2448
  952SOL    HW1 3806   4.712   0.895   0.893  0.7098 -0.0409 -0.6103
  952SOL    HW2 3807   4.660   0.832   1.020 -0.9180  1.8943 -0.2679
  952SOL     MW 3808   4.687   0.825   0.938 -0.1758  0.6759  0.0607
  953SOL     OW 3809   3.975   3.940   3.711  0.5595  0.3240 -0.1049
  953SOL    HW1 3810   4.057   3.959   3.666  1.6365 -1.4227  1.0201
  953SOL    HW2 3811   3.963   3.845   3.702 -0.4721  0.2985  1.1639
  953SOL     MW 3812   3.984   3.930   3.703  0.5656  0.0855  0.2172
  954SOL     OW 3813   2.182   1.312   5.348  0.2849  0.9115  0.2087
  954SOL    HW1 3814   2.091   1.325   5.322  0.1040 -1.0155 -0.2389
  954SOL    HW2 3815   2.183   1.228   5.392  1.8721  0.8478  0.1067
  954SOL     MW 3816   2.170   1.303   5.350  0.4741  0.6436  0.1348
  955SOL     OW 3817   3.242   2.354   2.708  0.1055  0.1100 -0.7264
  955SOL    HW1 3818   3.200   2.425   2.756  0.1330 -0.9326  0.9297
  955SOL    HW2 3819   3.333   2.382   2.698 -0.0875  0.6854 -0.8546
  955SOL     MW 3820   3.249   2.367   2.713  0.0832  0.0471 -0.5208
  956SOL     OW 3821   0.633   4.484   1.020 -0.1570 -0.3830 -0.7256
  956SOL    HW1 3822   0.659   4.439   1.100 -0.8080  1.2317  0.4312
  956SOL    HW2 3823   0.693   4.449   0.953  2.0927  0.0230  0.9444
  956SOL     MW 3824   0.645   4.473   1.021  0.0582 -0.1110 -0.3452
  957SOL     OW 3825   4.876   3.593   1.267  0.1151 -0.0701 -0.5790
  957SOL    HW1 3826   4.801   3.550   1.308  2.2414 -1.1970  2.5473
  957SOL    HW2 3827   4.865   3.686   1.290 -0.6903 -0.0878 -0.8480
  957SOL     MW 3828   4.864   3.600   1.276  0.2929 -0.2241 -0.1945
  958SOL     OW 3829   3.236   4.275   2.602  0.2275 -0.6228  0.0358
  958SOL    HW1 3830   3.287   4.199   2.574 -0.1353 -0.5440 -0.8655
  958SOL    HW2 3831   3.163   4.279   2.541  0.0585  0.2601  0.2799
  958SOL     MW 3832   3.233   4.265   2.590  0.1559 -0.4934 -0.0526
  959SOL     OW 3833   0.986   5.414   1.809 -0.4682 -0.3280  0.3951
  959SOL    HW1 3834   0.930   5.372   1.745  0.2879 -2.1165  0.8631
  959SOL    HW2 3835   1.074   5.385   1.787 -0.0793 -0.0961  1.5759
  959SOL     MW 3836   0.990   5.405   1.798 -0.3141 -0.5375  0.6170
  960SOL     OW 3837   1.763   1.572   0.568  0.0337 -0.1393 -0.1232
  960SOL    HW1 3838   1.668   1.578   0.566  0.1224  2.6142 -0.6798
  960SOL    HW2 3839   1.782   1.499   0.626 -2.4068 -0.8108 -0.0887
  960SOL     MW 3840   1.753   1.563   0.576 -0.2828  0.1409 -0.1935
  961SOL     OW 3841   3.036   3.572   1.239  0.1348 -0.1592  0.1954
  961SOL    HW1 3842   3.122   3.604   1.267 -0.2209  0.1309  0.9872
  961SOL    HW2 3843   3.031   3.597   1.147  0.3672  1.0031  0.4784
  961SOL     MW 3844   3.047   3.580   1.230  0.1182  0.0363  0.3400
  962SOL     OW 3845   1.391   3.264   2.009  0.4277  0.0292  0.4258
  962SOL    HW1 3846   1.402   3.265   2.104  3.5692 -1.5423  0.2130
  962SOL    HW2 3847   1.340   3.185   1.991 -1.9123  1.3442  0.8009
  962SOL     MW 3848   1.386   3.254   2.020  0.5356 -0.0053  0.4477
  963SOL     OW 3849   3.936   2.181   4.784  0.0130  0.0348 -0.2274
  963SOL    HW1 3850   3.983   2.222   4.857 -0.6719 -1.8647  1.3635
  963SOL    HW2 3851   3.862   2.239   4.767 -0.0204  0.3263  0.8428
  963SOL     MW 3852   3.932   2.195   4.792 -0.0837 -0.1816  0.1307
  964SOL     OW 3853   3.068   3.016   1.631 -0.0123  0.4710  0.0098
  964SOL    HW1 3854   3.011   3.068   1.687 -1.8871  1.2049 -2.4108
  964SOL    HW2 3855   3.157   3.041   1.657 -0.8166  1.8024  1.6339
  964SOL     MW 3856   3.073   3.026   1.642 -0.3728  0.7489 -0.0974
  965SOL     OW 3857   2.444   1.693   2.597  0.2721  0.2731 -0.0254
  965SOL    HW1 3858   2.421   1.745   2.519  0.8811  0.3520 -0.1595
  965SOL    HW2 3859   2.503   1.625   2.564  0.9522  0.6235  0.4503
  965SOL     MW 3860   2.449   1.691   2.582  0.4456  0.3309  0.0205
  966SOL     OW 3861   2.741   0.048   3.469 -0.5407  0.3791 -0.1322
  966SOL    HW1 3862   2.812   0.035   3.406 -1.0728  0.7064 -0.8142
  966SOL    HW2 3863   2.785   0.058   3.554  0.1587 -0.6722 -0.3485
  966SOL     MW 3864   2.756   0.048   3.472 -0.5182  0.2817 -0.2531
  967SOL     OW 3865   5.042   0.449   4.828 -0.2916  0.1110  0.2235
  967SOL    HW1 3866   4.972   0.491   4.778  1.4555  1.0387 -1.6395
  967SOL    HW2 3867   5.101   0.522   4.850 -0.2679 -0.5169  2.4356
  967SOL     MW 3868   5.041   0.465   4.824 -0.0533  0.1514  0.2705
  968SOL     OW 3869   3.604   4.141   1.726  0.9314 -0.0961 -0.4354
  968SOL    HW1 3870   3.582   4.211   1.664 -2.3484 -0.5204  0.1028
  968SOL    HW2 3871   3.539   4.148   1.795  2.5474 -1.6597  1.3594
  968SOL     MW 3872   3.592   4.151   1.727  0.7075 -0.3637 -0.1214
  969SOL     OW 3873   3.951   5.008   0.061  0.0167  0.1296  0.0646
  969SOL    HW1 3874   4.017   4.983  -0.004 -0.0486  1.8846 -0.7307
  969SOL    HW2 3875   3.924   4.925   0.101  0.6649 -0.9192 -1.5722
  969SOL     MW 3876   3.956   4.994   0.057  0.0952  0.2247 -0.2627
  970SOL     OW 3877   4.669   1.326   1.940  0.1302 -0.0073  0.8155
  970SOL    HW1 3878   4.626   1.266   1.879  1.2218  0.1657 -0.1647
  970SOL    HW2 3879   4.762   1.315   1.921  0.4849  0.2222  2.3134
  970SOL     MW 3880   4.676   1.316   1.929  0.3248  0.0468  0.8852
  971SOL     OW 3881   4.890   2.007   3.793  0.7370  0.0755 -0.6268
  971SOL    HW1 3882   4.945   2.064   3.740  0.4066  1.2854  0.2978
  971SOL    HW2 3883   4.802   2.044   3.786  0.9639  1.4237  2.1798
  971SOL     MW 3884   4.886   2.019   3.785  0.7231  0.4198 -0.1247
  972SOL     OW 3885   1.604   1.405   2.236  0.6584 -0.0328  0.7582
  972SOL    HW1 3886   1.530   1.347   2.253 -0.0966  0.6571 -0.0797
  972SOL    HW2 3887   1.598   1.473   2.303  0.8072 -0.2256  0.9690
  972SOL     MW 3888   1.593   1.406   2.247  0.5768  0.0341  0.6738
  973SOL     OW 3889   3.055   2.602   3.755  0.2729  0.4021  0.3812
  973SOL    HW1 3890   3.074   2.677   3.812 -1.3920  1.3641 -0.2476
  973SOL    HW2 3891   3.026   2.533   3.815 -1.9559  1.5630  0.7403
  973SOL     MW 3892   3.054   2.603   3.771 -0.2511  0.6878  0.3449
  974SOL     OW 3893   3.016   1.575   2.218  0.5163  0.1808  0.4692
  974SOL    HW1 3894   2.956   1.644   2.189 -1.1637 -1.6282 -0.6541
  974SOL    HW2 3895   3.033   1.596   2.310  0.4395  2.3000  0.0570
  974SOL     MW 3896   3.010   1.587   2.226  0.2799  0.2226  0.2625
  975SOL     OW 3897   0.422   2.721   5.472 -0.3641  0.0839 -0.0610
  975SOL    HW1 3898   0.499   2.742   5.526  0.0000 -1.0334 -0.1327
  975SOL    HW2 3899   0.458   2.679   5.394 -0.9112  1.4647 -1.1072
  975SOL     MW 3900   0.438   2.718   5.469 -0.3887  0.1193 -0.2115
  976SOL     OW 3901   3.223   0.557   0.736  0.3473  0.5258 -0.2428
  976SOL    HW1 3902   3.249   0.529   0.648  0.1515 -2.1139  0.4597
  976SOL    HW2 3903   3.137   0.597   0.723  0.6016  0.7736 -1.3153
  976SOL     MW 3904   3.215   0.559   0.722  0.3552  0.2039 -0.2926
  977SOL     OW 3905   0.071   0.417   4.092 -0.1789 -0.0554 -0.1791
  977SOL    HW1 3906   0.129   0.365   4.147 -0.2157  0.1530  0.0565
  977SOL    HW2 3907   0.071   0.504   4.131  0.2248  0.2389 -0.8263
  977SOL     MW 3908   0.078   0.422   4.105 -0.1295  0.0122 -0.2345
  978SOL     OW 3909   2.018   5.153   2.206  0.5193  0.2934  0.3861
  978SOL    HW1 3910   2.064   5.146   2.289  2.1024 -0.3399 -0.4958
  978SOL    HW2 3911   2.065   5.222   2.159 -0.9646  1.3249  0.3699
  978SOL     MW 3912   2.031   5.161   2.211  0.5327  0.3470  0.2652
  979SOL     OW 3913   5.151   5.415   1.923 -0.5216 -0.2706 -0.8670
  979SOL    HW1 3914   5.227   5.449   1.970 -1.7301  1.1394  0.1924
  979SOL    HW2 3915   5.174   5.423   1.830  0.1202  1.4538 -0.6048
  979SOL     MW 3916   5.164   5.421   1.917 -0.5979  0.1512 -0.6892
  980SOL     OW 3917   3.416   0.638   3.784  0.0203 -0.1110  0.0973
  980SOL    HW1 3918   3.331   0.679   3.797  0.0808 -0.1885  0.7765
  980SOL    HW2 3919   3.398   0.544   3.779  0.1283 -0.1926  0.9760
  980SOL     MW 3920   3.402   0.631   3.785  0.0430 -0.1324  0.3069
  981SOL     OW 3921   4.518   3.581   2.114 -0.1489  0.4815 -0.1588
  981SOL    HW1 3922   4.435   3.543   2.087 -0.2909  1.0283 -0.5018
  981SOL    HW2 3923   4.564   3.598   2.032 -0.6668  2.3473 -0.0966
  981SOL     MW 3924   4.513   3.578   2.100 -0.2377  0.8062 -0.1966
  982SOL     OW 3925   1.723   2.507   3.298  0.2577  0.1202 -0.1566
  982SOL    HW1 3926   1.635   2.520   3.263  0.9057  1.7307 -1.3378
  982SOL    HW2 3927   1.740   2.586   3.350  1.4222  0.3770 -0.8951
  982SOL     MW 3928   1.713   2.520   3.300  0.5016  0.3715 -0.4150
  983SOL     OW 3929   3.649   4.457   2.299 -0.1817  0.2629 -0.4233
  983SOL    HW1 3930   3.722   4.516   2.317  0.1205  0.3114 -1.7170
  983SOL    HW2 3931   3.575   4.516   2.282  0.1867  0.2936 -1.9912
  983SOL     MW 3932   3.649   4.473   2.300 -0.0914  0.2736 -0.8084
  984SOL     OW 3933   0.568   4.890   5.126 -0.0980 -0.1869 -0.0756
  984SOL    HW1 3934   0.617   4.957   5.079 -0.1703 -0.6250 -0.7807
  984SOL    HW2 3935   0.520   4.938   5.193 -0.6591  0.5574 -0.9900
  984SOL     MW 3936   0.568   4.905   5.129 -0.1832 -0.1457 -0.2935
  985SOL     OW 3937   1.589   4.683   3.817  0.3073  0.2407  0.4537
  985SOL    HW1 3938   1.555   4.772   3.821 -0.0971  0.1769 -1.0034
  985SOL    HW2 3939   1.665   4.683   3.874  0.5533  1.6413  0.1473
  985SOL     MW 3940   1.594   4.695   3.825  0.2860  0.4206  0.2164
  986SOL     OW 3941   0.188   0.550   5.437 -0.2872  0.3537  0.3592
  986SOL    HW1 3942   0.204   0.456   5.427  0.2686  0.4801  0.0341
  986SOL    HW2 3943   0.094   0.557   5.452 -0.5485 -0.1492 -0.9585
  986SOL     MW 3944   0.177   0.538   5.438 -0.2475  0.3030  0.1381
  987SOL     OW 3945   0.850   3.286   1.499 -0.5340  0.2442  0.8909
  987SOL    HW1 3946   0.835   3.203   1.455  0.1876  0.7310 -0.3307
  987SOL    HW2 3947   0.819   3.352   1.437  2.3829  1.0432  0.1312
  987SOL     MW 3948   0.844   3.284   1.485 -0.0443  0.4172  0.6242
  988SOL     OW 3949   0.329   0.259   4.506  0.1029  0.1295 -0.3563
  988SOL    HW1 3950   0.262   0.262   4.573 -0.6578  1.6837 -1.1316
  988SOL    HW2 3951   0.382   0.182   4.527 -1.8723 -1.0942  0.3024
  988SOL     MW 3952   0.327   0.249   4.518 -0.2653  0.1740 -0.3720
  989SOL     OW 3953   1.224   1.569   4.060  0.5479 -0.2476 -0.2068
  989SOL    HW1 3954   1.314   1.584   4.033  0.2323  0.7249 -0.7233
  989SOL    HW2 3955   1.217   1.614   4.145  0.1522  0.9308 -0.8459
  989SOL     MW 3956   1.235   1.577   4.068  0.4522  0.0418 -0.3623
  990SOL     OW 3957   1.810   1.222   4.680 -0.5392 -0.3724  0.2419
  990SOL    HW1 3958   1.873   1.226   4.608 -0.5123  0.6995  0.3164
  990SOL    HW2 3959   1.725   1.223   4.637 -0.5235  0.2856  0.2199
  990SOL     MW 3960   1.807   1.223   4.664 -0.5335 -0.1396  0.2490
  991SOL     OW 3961   4.004   2.683   1.827 -0.5944  0.3257  0.8323
  991SOL    HW1 3962   4.009   2.745   1.900 -1.2631  0.2947  0.9108
  991SOL    HW2 3963   3.911   2.675   1.809 -0.4478  0.1486  0.1244
  991SOL     MW 3964   3.993   2.690   1.834 -0.6647  0.2977  0.7476
  992SOL     OW 3965   4.879   1.242   4.061  0.3339  0.2265 -0.0172
  992SOL    HW1 3966   4.932   1.170   4.094 -1.1545 -1.1413 -0.5152
  992SOL    HW2 3967   4.888   1.237   3.966 -1.0543 -0.3812 -0.1521
  992SOL     MW 3968   4.887   1.232   4.053 -0.0533 -0.0394 -0.1024
  993SOL     OW 3969   1.428   2.751   0.678 -0.2673  0.0808  0.2497
  993SOL    HW1 3970   1.467   2.737   0.592 -0.1603 -1.2185  0.4935
  993SOL    HW2 3971   1.480   2.698   0.737 -0.9484  0.1845  0.9586
  993SOL     MW 3972   1.440   2.742   0.674 -0.3446 -0.0801  0.3779
  994SOL     OW 3973   4.127   2.527   4.072  0.0840  0.1813 -0.2530
  994SOL    HW1 3974   4.177   2.502   3.994  1.0408  1.4599 -0.0983
  994SOL    HW2 3975   4.133   2.451   4.129  0.9339 -0.1090 -0.7009
  994SOL     MW 3976   4.135   2.513   4.069  0.3272  0.3143 -0.2925
  995SOL     OW 3977   4.976   4.828   0.909 -0.0429 -0.4348 -0.5984
  995SOL    HW1 3978   5.022   4.809   0.828  0.7701  0.3021 -0.3183
  995SOL    HW2 3979   5.029   4.785   0.977 -0.9523 -1.4224 -0.4882
  995SOL     MW 3980   4.989   4.819   0.907 -0.0559 -0.4685 -0.5459
  996SOL     OW 3981   5.122   3.010   5.484 -0.1429  0.2566  1.1566
  996SOL    HW1 3982   5.125   3.101   5.453 -1.4393 -0.1218 -0.2263
  996SOL    HW2 3983   5.135   2.957   5.405 -2.6164 -0.7509  1.3208
  996SOL     MW 3984   5.124   3.015   5.469 -0.6503  0.0701  0.9926
  997SOL     OW 3985   0.880   0.368   3.220  0.1826 -0.4981  0.3281
  997SOL    HW1 3986   0.819   0.395   3.289  0.7995  0.1319  0.6478
  997SOL    HW2 3987   0.856   0.422   3.145  0.5300 -0.0211  0.5492
  997SOL     MW 3988   0.869   0.379   3.219  0.3124 -0.3491  0.4009
  998SOL     OW 3989   0.245   2.742   2.400 -0.3210 -0.4034 -0.6265
  998SOL    HW1 3990   0.299   2.810   2.360 -1.5482  1.1634  0.2665
  998SOL    HW2 3991   0.305   2.670   2.416  0.6539 -0.2563 -3.2273
  998SOL     MW 3992   0.260   2.741   2.397 -0.3550 -0.1727 -0.8564
  999SOL     OW 3993   1.368   3.826   2.336  0.2696 -0.3239 -0.2334
  999SOL    HW1 3994   1.389   3.857   2.425 -1.1832  1.0104 -0.3011
  999SOL    HW2 3995   1.436   3.863   2.281  1.1361 -1.0909  0.2941
  999SOL     MW 3996   1.380   3.835   2.341  0.1907 -0.2476 -0.1716
 1000SOL     OW 3997   2.703   0.329   3.558 -0.3622  0.4249  0.2144
 1000SOL    HW1 3998   2.768   0.339   3.488  1.7246 -1.2062  1.7550
 1000SOL    HW2 3999   2.622   0.306   3.513  0.2845  1.7157 -1.7596
 1000SOL     MW 4000   2.701   0.327   3.543  0.0057  0.3791  0.1561
 1001SOL     OW 4001   0.870   0.486   4.401  0.0785 -0.0799  0.1124
 1001SOL    HW1 4002   0.948   0.537   4.381  0.0126 -0.1986 -0.4599
 1001SOL    HW2 4003   0.876   0.409   4.344 -0.7084  0.1599 -0.3179
 1001SOL     MW 4004   0.881   0.483   4.391 -0.0363 -0.0636 -0.0225
 1002SOL     OW 4005   4.264   1.043   1.927 -0.3431 -0.1414  0.0230
 1002SOL    HW1 4006   4.254   0.955   1.893 -0.0763  0.2785 -1.1912
 1002SOL    HW2 4007   4.347   1.074   1.889 -0.0153  0.3338  1.0900
 1002SOL     MW 4008   4.274   1.035   1.917 -0.2631 -0.0210  0.0032
 1003SOL     OW 4009   4.449   2.733   0.461 -0.2442  0.1193 -0.1086
 1003SOL    HW1 4010   4.458   2.752   0.368  0.3003  1.5876  0.2186
 1003SOL    HW2 4011   4.435   2.818   0.502 -0.1255 -0.4617  1.1987
 1003SOL     MW 4012   4.448   2.747   0.454 -0.1549  0.2387  0.1114
 1004SOL     OW 4013   1.743   3.718   3.805  0.4108  0.6762  0.2685
 1004SOL    HW1 4014   1.679   3.745   3.871  1.1797  1.4717  0.7080
 1004SOL    HW2 4015   1.700   3.735   3.721 -1.0239 -1.3663  0.4927
 1004SOL     MW 4016   1.728   3.724   3.803  0.3212  0.5083  0.3578
 1005SOL     OW 4017   2.748   3.123   3.541 -0.3939 -0.3143  0.2911
 1005SOL    HW1 4018   2.771   3.110   3.633 -0.1088 -2.7049 -0.0661
 1005SOL    HW2 4019   2.653   3.112   3.538 -0.3588 -0.5992  0.2407
 1005SOL     MW 4020   2.738   3.120   3.553 -0.3508 -0.6743  0.2362
 1006SOL     OW 4021   0.466   3.004   0.599  0.8359  0.2086 -0.1447
 1006SOL    HW1 4022   0.381   3.038   0.572  1.2732  0.0285 -1.9289
 1006SOL    HW2 4023   0.446   2.926   0.650 -0.0780  0.0155 -0.7700
 1006SOL     MW 4024   0.452   2.998   0.602  0.7718  0.1583 -0.4690
 1007SOL     OW 4025   3.012   4.838   4.904  0.1451  0.3414 -0.2124
 1007SOL    HW1 4026   3.017   4.832   4.809  0.8518  0.4636 -0.1898
 1007SOL    HW2 4027   3.024   4.748   4.934  1.2386  0.4756 -0.2024
 1007SOL     MW 4028   3.015   4.825   4.896  0.3874  0.3759 -0.2080
 1008SOL     OW 4029   1.222   4.900   2.860  0.4345 -0.1075  0.4653
 1008SOL    HW1 4030   1.306   4.908   2.906 -0.1455  1.0998  1.3766
 1008SOL    HW2 4031   1.173   4.834   2.909  0.4157  0.0352  0.6397
 1008SOL     MW 4032   1.227   4.892   2.873  0.3539  0.0742  0.6114
 1009SOL     OW 4033   1.763   0.995   4.822 -0.2524  0.5751  0.2275
 1009SOL    HW1 4034   1.799   1.069   4.774 -0.8356  0.2732 -0.7016
 1009SOL    HW2 4035   1.692   0.963   4.767  0.5093 -1.1823  0.2130
 1009SOL     MW 4036   1.758   1.001   4.808 -0.2284  0.2980  0.1005
 1010SOL     OW 4037   4.001   3.118   2.014 -0.3705 -0.2834  0.1224
 1010SOL    HW1 4038   4.045   3.140   1.932 -1.0598  1.5281  0.2001
 1010SOL    HW2 4039   4.034   3.182   2.077 -0.0721 -1.4690  1.2119
 1010SOL     MW 4040   4.012   3.130   2.011 -0.4231 -0.1992  0.2795
 1011SOL     OW 4041   2.126   0.554   4.999  0.5270  0.1220 -0.0806
 1011SOL    HW1 4042   2.150   0.474   4.952  0.8218  1.4104 -2.2307
 1011SOL    HW2 4043   2.042   0.580   4.961  0.3033  0.6968  0.7830
 1011SOL     MW 4044   2.118   0.547   4.988  0.5366  0.3728 -0.2537
 1012SOL     OW 4045   1.890   4.853   0.656 -0.2219  0.4055 -0.2511
 1012SOL    HW1 4046   1.919   4.913   0.725 -0.5229  0.8168 -0.4752
 1012SOL    HW2 4047   1.797   4.873   0.645 -0.5192 -0.6340  0.2009
 1012SOL     MW 4048   1.881   4.864   0.664 -0.3024  0.3210 -0.2205
 1013SOL     OW 4049   2.885   4.270   1.721  0.0949  0.2115  0.0368
 1013SOL    HW1 4050   2.936   4.294   1.644 -1.4803  1.6478 -0.6176
 1013SOL    HW2 4051   2.876   4.175   1.716 -0.1406  0.3047 -1.6617
 1013SOL     MW 4052   2.891   4.260   1.710 -0.1488  0.4173 -0.2799
 1014SOL     OW 4053   4.528   4.030   2.097 -0.4245  0.5080  0.5701
 1014SOL    HW1 4054   4.540   3.998   2.008  0.0805 -0.0347  0.8259
 1014SOL    HW2 4055   4.487   3.957   2.144  2.1072 -0.4064  1.5370
 1014SOL     MW 4056   4.524   4.016   2.091 -0.0158  0.3119  0.7346
 1015SOL     OW 4057   0.759   4.845   4.747 -0.3140  0.1809  0.1184
 1015SOL    HW1 4058   0.699   4.773   4.728 -2.3414  2.3354 -2.3360
 1015SOL    HW2 4059   0.840   4.823   4.701 -1.2801 -0.0976 -1.5200
 1015SOL     MW 4060   0.762   4.832   4.739 -0.7168  0.4334 -0.4324
 1016SOL     OW 4061   3.010   1.889   3.747 -0.5627 -0.6282 -0.1034
 1016SOL    HW1 4062   2.961   1.909   3.667 -1.7199  2.7080  1.2484
 1016SOL    HW2 4063   2.959   1.820   3.789 -1.3178 -0.7062 -1.1091
 1016SOL     MW 4064   2.996   1.883   3.742 -0.8201 -0.1897 -0.0568
 1017SOL     OW 4065   0.931   1.896   0.271 -0.1933 -0.1551 -0.0437
 1017SOL    HW1 4066   0.852   1.842   0.276 -0.0407 -0.5868 -1.5726
 1017SOL    HW2 4067   1.003   1.835   0.288  0.0596 -0.7936 -2.8307
 1017SOL     MW 4068   0.930   1.880   0.274 -0.1388 -0.2992 -0.6245
 1018SOL     OW 4069   0.248   4.240   3.491 -0.1464  0.0190  0.4221
 1018SOL    HW1 4070   0.299   4.169   3.452 -1.0655 -0.3623 -0.1245
 1018SOL    HW2 4071   0.174   4.251   3.432  0.0945  1.6016  0.3723
 1018SOL     MW 4072   0.245   4.232   3.478 -0.2377  0.1807  0.3419
 1019SOL     OW 4073   1.365   3.218   2.520 -0.3160  1.0181  0.0858
 1019SOL    HW1 4074   1.363   3.289   2.584  0.0210  0.8088  0.3292
 1019SOL    HW2 4075   1.433   3.159   2.551 -1.3427  0.0105  0.5124
 1019SOL     MW 4076   1.374   3.219   2.533 -0.4088  0.8543  0.1759
 1020SOL     OW 4077   1.043   3.908   1.981  0.1503 -1.0202  0.5077
 1020SOL    HW1 4078   1.133   3.909   1.948 -0.5181 -1.2446 -1.5122
 1020SOL    HW2 4079   1.052   3.899   2.076  2.2630  0.3153  0.5054
 1020SOL     MW 4080   1.057   3.907   1.989  0.3447 -0.8706  0.2356
 1021SOL     OW 4081   2.037   5.206   3.530 -0.3859 -0.1050 -0.3291
 1021SOL    HW1 4082   2.056   5.151   3.454  0.1167  0.8470 -0.9116
 1021SOL    HW2 4083   2.053   5.149   3.605  0.9239 -0.5343 -0.8939
 1021SOL     MW 4084   2.042   5.190   3.530 -0.1420 -0.0347 -0.4835
 1022SOL     OW 4085   2.865   1.799   2.753 -0.2930 -0.0911 -0.0858
 1022SOL    HW1 4086   2.770   1.791   2.764 -0.2126  0.9206  1.5692
 1022SOL    HW2 4087   2.898   1.710   2.766 -0.8919 -0.2119  0.6585
 1022SOL     MW 4088   2.857   1.786   2.756 -0.3628  0.0288  0.2371
 1023SOL     OW 4089   3.706   0.951   2.641  0.1056 -0.6396 -0.5577
 1023SOL    HW1 4090   3.732   0.859   2.640 -0.5467 -0.8729  0.7413
 1023SOL    HW2 4091   3.783   0.998   2.607  1.7067 -1.4218  1.6893
 1023SOL     MW 4092   3.720   0.945   2.637  0.2333 -0.7762 -0.0805
 1024SOL     OW 4093   5.196   4.266   5.155 -0.2544  0.5191  0.0333
 1024SOL    HW1 4094   5.225   4.294   5.242 -0.1858  2.3675 -0.5417
 1024SOL    HW2 4095   5.117   4.215   5.172 -0.3832  1.0507  1.1715
 1024SOL     MW 4096   5.189   4.263   5.169 -0.2625  0.8394  0.1091
 1025SOL     OW 4097   4.361   2.481   1.216 -0.0490  0.2552  0.5789
 1025SOL    HW1 4098   4.298   2.415   1.246  1.1951 -1.3525 -0.1784
 1025SOL    HW2 4099   4.309   2.560   1.203 -1.9205 -1.0079 -0.0131
 1025SOL     MW 4100   4.346   2.482   1.219 -0.1334 -0.1312  0.3973
 1026SOL     OW 4101   0.384   0.403   2.181  0.3667  0.3755 -0.2406
 1026SOL    HW1 4102   0.321   0.342   2.142  0.9584 -0.2263 -0.2814
 1026SOL    HW2 4103   0.407   0.363   2.265 -0.6886  1.5290  0.6417
 1026SOL     MW 4104   0.378   0.390   2.187  0.3043  0.4498 -0.1274
 1027SOL     OW 4105   2.237   0.350   0.116 -0.0894 -0.8031 -0.4188
 1027SOL    HW1 4106   2.186   0.427   0.089  0.8738 -0.4972 -1.4308
 1027SOL    HW2 4107   2.328   0.376   0.104  0.2419 -2.4867 -1.8858
 1027SOL     MW 4108   2.242   0.364   0.111  0.0848 -0.9885 -0.7524
 1028SOL     OW 4109   4.919   3.654   5.410 -0.4381 -0.0381  0.1595
 1028SOL    HW1 4110   4.931   3.749   5.407  0.3206 -0.0905  1.1873
 1028SOL    HW2 4111   5.003   3.619   5.380 -1.2503 -0.4085 -1.8572
 1028SOL     MW 4112   4.932   3.662   5.405 -0.4453 -0.0950  0.0265
 1029SOL     OW 4113   0.856   0.096   3.199 -0.3398 -0.8494 -0.1290
 1029SOL    HW1 4114   0.862   0.191   3.193 -1.1306 -0.8659 -1.8624
 1029SOL    HW2 4115   0.770   0.080   3.239 -0.9412 -0.8197 -1.3626
 1029SOL     MW 4116   0.845   0.107   3.204 -0.5272 -0.8476 -0.5283
 1030SOL     OW 4117   3.169   4.524   0.052  0.1466  0.3281  0.0993
 1030SOL    HW1 4118   3.150   4.616   0.071  0.7033  0.5392 -0.3584
 1030SOL    HW2 4119   3.087   4.489   0.017  0.0884  0.7880 -0.2256
 1030SOL     MW 4120   3.155   4.531   0.050  0.2137  0.4184 -0.0060
 1031SOL     OW 4121   4.011   4.026   2.211 -0.0128  0.2823 -0.4137
 1031SOL    HW1 4122   3.945   4.036   2.280  0.5108  0.8432  0.0151
 1031SOL    HW2 4123   4.048   4.113   2.200  1.4332 -0.2377  0.1419
 1031SOL     MW 4124   4.007   4.039   2.219  0.2523  0.2878 -0.2812
 1032SOL     OW 4125   4.065   1.366   0.120  0.0886  0.3476 -0.3665
 1032SOL    HW1 4126   4.122   1.348   0.046 -0.1758  2.9077 -1.3063
 1032SOL    HW2 4127   3.977   1.369   0.083 -0.6286 -2.4364  0.8620
 1032SOL     MW 4128   4.061   1.364   0.105 -0.0435  0.3175 -0.3277
 1033SOL     OW 4129   3.934   4.426   0.035 -0.0798 -0.2159 -0.4594
 1033SOL    HW1 4130   3.931   4.336   0.003  1.3947 -0.8510  1.0364
 1033SOL    HW2 4131   4.003   4.425   0.102 -2.6411  1.1161  2.4046
 1033SOL     MW 4132   3.943   4.414   0.040 -0.2260 -0.1221  0.1273
 1034SOL     OW 4133   2.960   0.300   0.584 -0.0261  0.2276  0.1286
 1034SOL    HW1 4134   2.940   0.279   0.492  1.3105 -0.6405  0.0037
 1034SOL    HW2 4135   2.994   0.218   0.620 -0.1510  0.6759  1.2919
 1034SOL     MW 4136   2.962   0.286   0.576  0.1370  0.1711  0.2684
 1035SOL     OW 4137   5.107   2.461   0.972  0.0912  0.2086  0.2849
 1035SOL    HW1 4138   5.039   2.528   0.963  1.2210  1.4689  0.8546
 1035SOL    HW2 4139   5.111   2.444   1.067  0.5054  0.0617  0.2398
 1035SOL     MW 4140   5.098   2.467   0.984  0.2990  0.3585  0.3555
 1036SOL     OW 4141   1.825   4.768   1.028  0.4269  0.0412 -0.3483
 1036SOL    HW1 4142   1.898   4.830   1.019 -0.1065  0.6693 -0.4175
 1036SOL    HW2 4143   1.837   4.707   0.955 -0.0048  1.0804 -1.3182
 1036SOL     MW 4144   1.837   4.768   1.017  0.2970  0.2656 -0.4881
 1037SOL     OW 4145   3.136   3.255   0.623 -0.4242 -0.0488 -0.0462
 1037SOL    HW1 4146   3.068   3.319   0.641 -1.2998 -0.2914 -2.1557
 1037SOL    HW2 4147   3.212   3.307   0.596 -1.0865  0.1636 -1.6106
 1037SOL     MW 4148   3.137   3.271   0.622 -0.6311 -0.0529 -0.5406
 1038SOL     OW 4149   3.352   0.651   1.888  0.2216  0.2586  0.3554
 1038SOL    HW1 4150   3.334   0.576   1.943  2.6332  0.9943  2.3434
 1038SOL    HW2 4151   3.286   0.647   1.818 -0.6619 -2.7669  1.2400
 1038SOL     MW 4152   3.341   0.641   1.886  0.4273 -0.0495  0.7420
 1039SOL     OW 4153   3.527   4.854   3.897  0.6849 -0.3753  0.0367
 1039SOL    HW1 4154   3.476   4.774   3.883  1.2896 -0.7968  0.2333
 1039SOL    HW2 4155   3.465   4.914   3.939  0.4410 -1.0039  0.5967
 1039SOL     MW 4156   3.512   4.851   3.901  0.7335 -0.5166  0.1385
 1040SOL     OW 4157   4.499   4.760   4.623 -0.0809 -0.8899  0.0693
 1040SOL    HW1 4158   4.496   4.665   4.623  0.0731 -0.8961 -0.1503
 1040SOL    HW2 4159   4.424   4.787   4.676 -0.6894 -1.1182 -0.6604
 1040SOL     MW 4160   4.489   4.751   4.630 -0.1421 -0.9215 -0.0585
 1041SOL     OW 4161   3.058   4.303   3.974  0.3570  0.5953 -0.3041
 1041SOL    HW1 4162   3.076   4.396   3.987 -0.4357  0.7944 -0.5584
 1041SOL    HW2 4163   2.991   4.283   4.039  0.2431  0.2986 -0.5114
 1041SOL     MW 4164   3.051   4.313   3.985  0.2350  0.5822 -0.3662
 1042SOL     OW 4165   3.169   1.493   1.510  0.5339 -0.5018  0.0165
 1042SOL    HW1 4166   3.180   1.409   1.465  0.0286  0.1388 -1.3609
 1042SOL    HW2 4167   3.171   1.558   1.440  0.6920  0.6285  1.0397
 1042SOL     MW 4168   3.171   1.490   1.495  0.4872 -0.2635 -0.0312
 1043SOL     OW 4169   1.146   5.418   4.383 -0.6193  0.3681  0.2334
 1043SOL    HW1 4170   1.132   5.419   4.478 -1.1320 -0.2777  0.1699
 1043SOL    HW2 4171   1.062   5.445   4.345 -0.7276 -0.3768 -0.0637
 1043SOL     MW 4172   1.133   5.422   4.391 -0.7029  0.1809  0.1848
 1044SOL     OW 4173   2.746   5.191   0.635  0.2232 -0.0704  0.0348
 1044SOL    HW1 4174   2.751   5.099   0.664 -0.0125  0.3483  1.5260
 1044SOL    HW2 4175   2.652   5.210   0.632  0.2002  1.0398  3.1560
 1044SOL     MW 4176   2.734   5.181   0.639  0.1884  0.1353  0.6555
 1045SOL     OW 4177   2.072   4.565   1.757 -0.1540  0.0879  0.2617
 1045SOL    HW1 4178   1.997   4.613   1.724 -0.5019 -0.4031  0.3347
 1045SOL    HW2 4179   2.148   4.612   1.721 -0.5070  0.1253 -0.4581
 1045SOL     MW 4180   2.072   4.578   1.748 -0.2483  0.0268  0.1747
 1046SOL     OW 4181   1.501   1.074   0.221 -0.1752  0.1025 -0.3471
 1046SOL    HW1 4182   1.563   1.015   0.179 -0.1290 -0.5915  0.6857
 1046SOL    HW2 4183   1.417   1.053   0.181 -0.4620 -1.8257  1.1245
 1046SOL     MW 4184   1.498   1.064   0.210 -0.2076 -0.2504 -0.0101
 1047SOL     OW 4185   5.046   4.423   3.668 -0.0752  0.0676 -0.3230
 1047SOL    HW1 4186   5.063   4.362   3.597 -0.3089 -0.7992  0.3529
 1047SOL    HW2 4187   5.054   4.371   3.748 -0.3501  0.8997  0.2719
 1047SOL     MW 4188   5.050   4.408   3.669 -0.1437  0.0629 -0.1520
 1048SOL     OW 4189   5.018   1.522   3.473  0.1679  0.4231 -0.1470
 1048SOL    HW1 4190   4.995   1.615   3.475 -1.4510  0.0822 -0.9751
 1048SOL    HW2 4191   5.071   1.513   3.394 -0.4186  0.5219 -0.5683
 1048SOL     MW 4192   5.022   1.533   3.463 -0.1289  0.3905 -0.3151
 1049SOL     OW 4193   0.052   3.033   1.260  0.1430 -0.3120  0.1272
 1049SOL    HW1 4194   0.104   3.093   1.314  1.7133 -1.3371 -0.1591
 1049SOL    HW2 4195  -0.019   3.086   1.225  1.2668  1.2744  0.1734
 1049SOL     MW 4196   0.050   3.048   1.263  0.5056 -0.2365  0.0949
 1050SOL     OW 4197   1.449   3.757   2.789 -0.3891  0.2357 -0.1339
 1050SOL    HW1 4198   1.538   3.724   2.790 -0.2098  0.6109 -1.4719
 1050SOL    HW2 4199   1.441   3.808   2.870  0.4964 -0.0608  0.1474
 1050SOL     MW 4200   1.460   3.759   2.800 -0.2458  0.2463 -0.2761
 1051SOL     OW 4201   5.329   3.591   4.709  0.0322  0.2370 -0.0857
 1051SOL    HW1 4202   5.331   3.571   4.803 -1.1464 -1.4473 -0.3782
 1051SOL    HW2 4203   5.346   3.507   4.667 -1.8109  0.4804 -1.3967
 1051SOL     MW 4204   5.331   3.577   4.716 -0.3745  0.0431 -0.3015
 1052SOL     OW 4205   0.075   4.806   4.653 -0.0324  0.4611  0.1954
 1052SOL    HW1 4206   0.158   4.841   4.621 -0.6225  2.3561  0.5898
 1052SOL    HW2 4207   0.050   4.740   4.588  1.6427  0.0329 -0.0526
 1052SOL     MW 4208   0.082   4.802   4.640  0.1136  0.6585  0.2151
 1053SOL     OW 4209   4.192   5.198   1.677  0.2608 -0.4375  0.3479
 1053SOL    HW1 4210   4.242   5.185   1.757  0.0643 -1.7298  0.2778
 1053SOL    HW2 4211   4.233   5.140   1.613 -0.7355 -0.8198  0.0371
 1053SOL     MW 4212   4.204   5.189   1.679  0.1003 -0.6629  0.2967
 1054SOL     OW 4213   5.537   3.610   2.441 -0.1508  0.2078 -0.2216
 1054SOL    HW1 4214   5.540   3.565   2.356  0.4744  0.6188 -0.4219
 1054SOL    HW2 4215   5.477   3.683   2.427  1.2179  1.2692 -0.8209
 1054SOL     MW 4216   5.529   3.614   2.428  0.1176  0.4060 -0.3292
 1055SOL     OW 4217   0.278   3.758   3.485 -0.3599  0.2003  1.2883
 1055SOL    HW1 4218   0.361   3.720   3.515 -0.6977  0.5429  2.7431
 1055SOL    HW2 4219   0.262   3.832   3.544 -0.3464  1.8758 -0.7093
 1055SOL     MW 4220   0.287   3.763   3.497 -0.4036  0.4719  1.2153
 1056SOL     OW 4221   0.822   3.001   0.689  0.5099  0.1565  0.3028
 1056SOL    HW1 4222   0.900   3.010   0.744  1.2037 -0.3152 -0.5842
 1056SOL    HW2 4223   0.748   3.009   0.751  1.2507  0.4229  1.1777
 1056SOL     MW 4224   0.822   3.003   0.705  0.7030  0.1289  0.3011
 1057SOL     OW 4225   2.514   1.876   2.109  0.6282  0.0846 -0.0515
 1057SOL    HW1 4226   2.492   1.783   2.104  0.1334  0.2227 -0.4896
 1057SOL    HW2 4227   2.478   1.914   2.029  0.9527  0.6311  0.0538
 1057SOL     MW 4228   2.506   1.869   2.098  0.6053  0.1767 -0.0963
 1058SOL     OW 4229   0.643   3.310   0.384 -0.3637 -0.0835 -0.1796
 1058SOL    HW1 4230   0.547   3.312   0.381 -0.3689 -1.1665 -1.6643
 1058SOL    HW2 4231   0.670   3.361   0.308  0.1295 -2.8127 -1.9801
 1058SOL     MW 4232   0.633   3.317   0.373 -0.2980 -0.5966 -0.6218
 1059SOL     OW 4233   4.685   5.261   2.698 -1.0332 -0.0872  0.1274
 1059SOL    HW1 4234   4.717   5.187   2.645 -0.1174  0.5296 -0.1992
 1059SOL    HW2 4235   4.593   5.271   2.671 -0.9311 -0.5807 -0.4271
 1059SOL     MW 4236   4.677   5.252   2.687 -0.8962 -0.0706  0.0088
 1060SOL     OW 4237   1.552   4.962   1.047 -0.3348 -0.1136  0.3511
 1060SOL    HW1 4238   1.466   4.984   1.013 -0.5626 -1.6715 -0.1244
 1060SOL    HW2 4239   1.609   5.033   1.016 -1.1401  0.1235 -0.6292
 1060SOL     MW 4240   1.548   4.975   1.039 -0.4738 -0.2913  0.1552
 1061SOL     OW 4241   0.753   0.123   2.409  0.3244 -0.1276  0.0896
 1061SOL    HW1 4242   0.661   0.123   2.381  0.3500 -1.2157 -0.0307
 1061SOL    HW2 4243   0.781   0.214   2.398 -0.6725  0.1759 -0.0820
 1061SOL     MW 4244   0.744   0.135   2.404  0.1936 -0.2332  0.0503
 1062SOL     OW 4245   2.104   2.720   0.896 -0.5681 -0.2324  0.0574
 1062SOL    HW1 4246   2.079   2.691   0.809 -1.5537  0.2837  0.1564
 1062SOL    HW2 4247   2.110   2.815   0.889  1.2668 -0.3186  0.0802
 1062SOL     MW 4248   2.101   2.729   0.884 -0.4538 -0.1745  0.0738
 1063SOL     OW 4249   2.737   1.347   2.760  0.5135  1.0414 -0.1652
 1063SOL    HW1 4250   2.732   1.401   2.681  1.3834 -0.1500 -1.0684
 1063SOL    HW2 4251   2.784   1.269   2.732  1.3505  0.8437  1.6970
 1063SOL     MW 4252   2.742   1.344   2.745  0.7432  0.8545 -0.0361
 1064SOL     OW 4253   0.634   3.288   1.673  0.4561  0.1632 -0.2159
 1064SOL    HW1 4254   0.713   3.286   1.621  0.7081  0.4826  0.1440
 1064SOL    HW2 4255   0.643   3.215   1.734  0.5078  0.2413 -0.1292
 1064SOL     MW 4256   0.646   3.278   1.674  0.4969  0.2167 -0.1558
 1065SOL     OW 4257   0.832   1.763   4.628  0.2223 -0.5282  0.1101
 1065SOL    HW1 4258   0.912   1.754   4.576 -0.5642 -1.8078 -0.9204
 1065SOL    HW2 4259   0.768   1.799   4.567  0.4370  2.3250  1.4015
 1065SOL     MW 4260   0.834   1.767   4.613  0.1453 -0.3164  0.1452
 1066SOL     OW 4261   4.232   0.465   2.067  0.1980 -0.0597  0.0272
 1066SOL    HW1 4262   4.313   0.433   2.026 -0.3397 -1.7750  0.2309
 1066SOL    HW2 4263   4.196   0.525   2.002  1.8517  1.1222  0.1310
 1066SOL     MW 4264   4.238   0.468   2.053  0.3482 -0.1315  0.0685
 1067SOL     OW 4265   1.502   2.438   2.952 -0.0661 -0.2648 -0.0469
 1067SOL    HW1 4266   1.482   2.492   2.876  0.3032  0.1300  0.1281
 1067SOL    HW2 4267   1.593   2.410   2.938 -0.0778 -0.3929  0.1315
 1067SOL     MW 4268   1.512   2.441   2.940 -0.0180 -0.2289  0.0006
 1068SOL     OW 4269   2.625   2.970   1.872  0.1490  0.1976 -0.3903
 1068SOL    HW1 4270   2.575   2.937   1.947 -1.0254  0.3303 -1.0965
 1068SOL    HW2 4271   2.559   2.998   1.809  1.1096  2.1238 -0.6028
 1068SOL     MW 4272   2.610   2.969   1.874  0.1202  0.4747 -0.5140
 1069SOL     OW 4273   3.027   0.411   3.733 -0.2797 -0.6004  0.4316
 1069SOL    HW1 4274   3.096   0.380   3.675 -0.2402  1.6830 -0.8471
 1069SOL    HW2 4275   3.066   0.407   3.820  1.5513  0.6968 -0.2658
 1069SOL     MW 4276   3.042   0.407   3.737 -0.0280 -0.1185  0.1656
 1070SOL     OW 4277   3.470   3.733   3.923 -0.8359 -0.0255  0.6207
 1070SOL    HW1 4278   3.540   3.723   3.859 -0.4148 -0.8133  1.1857
 1070SOL    HW2 4279   3.397   3.769   3.874 -1.0489 -2.0767 -0.6788
 1070SOL     MW 4280   3.470   3.737   3.908 -0.8079 -0.4076  0.5219
 1071SOL     OW 4281   1.895   0.846   4.413 -0.0560  0.2844  0.0147
 1071SOL    HW1 4282   1.936   0.788   4.349  1.5864  0.2312  1.0529
 1071SOL    HW2 4283   1.804   0.816   4.417  0.4003 -1.2944 -0.5217
 1071SOL     MW 4284   1.889   0.834   4.405  0.2264  0.0648  0.0822
 1072SOL     OW 4285   1.849   4.371   4.147 -0.4850 -0.3783 -0.4129
 1072SOL    HW1 4286   1.802   4.348   4.067  0.0413 -1.2772 -0.4815
 1072SOL    HW2 4287   1.806   4.321   4.216 -0.6293  0.0182 -0.2112
 1072SOL     MW 4288   1.837   4.361   4.146 -0.4336 -0.4459 -0.3950
 1073SOL     OW 4289   2.117   3.132   2.012 -0.0502  0.0281 -0.2148
 1073SOL    HW1 4290   2.132   3.090   1.928  2.7043  0.6447 -0.1030
 1073SOL    HW2 4291   2.181   3.203   2.016 -0.7955  0.6576  1.9831
 1073SOL     MW 4292   2.127   3.136   2.001  0.2202  0.1958  0.0960
 1074SOL     OW 4293   3.941   1.452   3.702 -0.3110 -0.5174  0.1059
 1074SOL    HW1 4294   3.942   1.391   3.777  2.7150  0.6598  1.1631
 1074SOL    HW2 4295   3.967   1.398   3.627 -0.5801 -1.1237  0.4386
 1074SOL     MW 4296   3.944   1.436   3.702  0.0600 -0.4406  0.2929
 1075SOL     OW 4297   1.846   0.841   5.414 -0.0458 -0.2917 -0.0012
 1075SOL    HW1 4298   1.918   0.801   5.463 -0.6424  0.4262  1.5624
 1075SOL    HW2 4299   1.887   0.914   5.368  0.3682 -0.3518  0.2575
 1075SOL     MW 4300   1.861   0.846   5.415 -0.0704 -0.2032  0.2440
 1076SOL     OW 4301   0.577   5.237   4.872  0.1295 -0.3614  0.1491
 1076SOL    HW1 4302   0.590   5.269   4.961 -0.7199 -0.5374  0.3406
 1076SOL    HW2 4303   0.496   5.187   4.875 -1.4899  2.0090 -1.3406
 1076SOL     MW 4304   0.568   5.234   4.884 -0.2028 -0.0661 -0.0256
 1077SOL     OW 4305   5.090   1.711   4.356 -0.5716 -0.2535  0.3770
 1077SOL    HW1 4306   5.131   1.785   4.312  2.4545 -0.2414  2.8759
 1077SOL    HW2 4307   5.145   1.636   4.335 -0.0126 -0.5497  2.5731
 1077SOL     MW 4308   5.103   1.711   4.347 -0.0891 -0.2917  1.0088
 1078SOL     OW 4309   0.799   2.652   2.397 -0.2267 -0.0702 -0.1097
 1078SOL    HW1 4310   0.712   2.682   2.423 -0.0591  1.1067 -0.8262
 1078SOL    HW2 4311   0.793   2.557   2.396 -2.0943 -0.0092 -2.0080
 1078SOL     MW 4312   0.787   2.643   2.400 -0.4555  0.0964 -0.4616
 1079SOL     OW 4313   1.854   0.899   3.412 -0.0367 -0.4614  0.3572
 1079SOL    HW1 4314   1.802   0.954   3.353 -0.3113 -1.8334 -0.7510
 1079SOL    HW2 4315   1.940   0.894   3.370  0.0544 -0.7026  0.5717
 1079SOL     MW 4316   1.859   0.906   3.398 -0.0614 -0.6785  0.2369
 1080SOL     OW 4317   3.664   0.668   1.689  0.0421  0.1601 -0.1971
 1080SOL    HW1 4318   3.679   0.684   1.783 -1.1234  2.1525 -0.3023
 1080SOL    HW2 4319   3.617   0.585   1.687 -1.1193  0.7295  1.1242
 1080SOL     MW 4320   3.660   0.659   1.702 -0.2710  0.5048 -0.0334
 1081SOL     OW 4321   2.294   3.829   0.043  0.2009 -0.3308  0.2493
 1081SOL    HW1 4322   2.217   3.885   0.055  0.1661 -0.3139 -0.0539
 1081SOL    HW2 4323   2.271   3.772  -0.030  0.5000 -0.2859  0.1205
 1081SOL     MW 4324   2.280   3.829   0.035  0.2365 -0.3225  0.1912
 1082SOL     OW 4325   4.312   4.507   1.837  0.2186 -0.4529 -0.0316
 1082SOL    HW1 4326   4.397   4.548   1.853 -0.6391  1.5268 -0.2485
 1082SOL    HW2 4327   4.251   4.580   1.831 -1.0920 -1.6214 -2.5889
 1082SOL     MW 4328   4.316   4.522   1.838 -0.0732 -0.3437 -0.4050
 1083SOL     OW 4329   4.838   5.173   4.089 -0.1175 -0.1508 -0.0420
 1083SOL    HW1 4330   4.816   5.164   4.182 -2.6093 -0.2354 -0.5805
 1083SOL    HW2 4331   4.828   5.085   4.053 -1.4568  0.2878 -0.8056
 1083SOL     MW 4332   4.834   5.160   4.097 -0.6331 -0.1032 -0.2173
 1084SOL     OW 4333   2.727   1.501   1.427  0.4454 -0.4456 -0.0636
 1084SOL    HW1 4334   2.673   1.435   1.385 -0.6053 -1.1978  2.3105
 1084SOL    HW2 4335   2.807   1.503   1.374 -0.7431 -1.3236 -2.0173
 1084SOL     MW 4336   2.731   1.492   1.414  0.1441 -0.6650 -0.0071
 1085SOL     OW 4337   1.114   3.891   0.572 -0.3079  0.0802  0.6355
 1085SOL    HW1 4338   1.161   3.864   0.651 -0.9049  2.1534  1.7875
 1085SOL    HW2 4339   1.045   3.825   0.562  0.7089 -1.0706  0.9110
 1085SOL     MW 4340   1.111   3.878   0.582 -0.2514  0.2044  0.8276
 1086SOL     OW 4341   2.276   5.379   2.496  0.1474 -0.0705  0.2269
 1086SOL    HW1 4342   2.236   5.308   2.446  1.8743  0.0759 -1.4819
 1086SOL    HW2 4343   2.265   5.456   2.441  0.4584  0.4757  0.9185
 1086SOL     MW 4344   2.269   5.380   2.482  0.4217  0.0227  0.0900
 1087SOL     OW 4345   1.656   1.736   2.203  0.5390  0.3541  0.0158
 1087SOL    HW1 4346   1.599   1.697   2.269 -1.2625  0.6781 -1.2642
 1087SOL    HW2 4347   1.597   1.758   2.131  2.1056  1.8561 -0.8808
 1087SOL     MW 4348   1.640   1.734   2.203  0.5074  0.5998 -0.2771
 1088SOL     OW 4349   2.656   5.467   3.004  0.1177  0.5087  0.2256
 1088SOL    HW1 4350   2.619   5.485   2.918  0.5362  0.3815  0.0157
 1088SOL    HW2 4351   2.634   5.543   3.057 -5.9402 -1.8813  2.0136
 1088SOL     MW 4352   2.648   5.479   3.000 -0.6412  0.1699  0.4380
 1089SOL     OW 4353   3.851   2.084   1.489  0.4868  0.3744 -0.2311
 1089SOL    HW1 4354   3.852   2.174   1.458  1.6759  0.3254 -0.3685
 1089SOL    HW2 4355   3.813   2.034   1.417  3.4367  0.2261 -1.8304
 1089SOL     MW 4356   3.846   2.089   1.475  1.0438  0.3479 -0.4648
 1090SOL     OW 4357   2.941   2.847   2.206  0.0616 -0.1050 -0.3768
 1090SOL    HW1 4358   2.902   2.935   2.205  1.8549  0.7306 -0.0006
 1090SOL    HW2 4359   2.994   2.843   2.126  0.8615 -0.4252  0.1578
 1090SOL     MW 4360   2.943   2.858   2.195  0.4106 -0.0356 -0.2542
 1091SOL     OW 4361   3.165   3.547   2.202  0.4377  0.4883  0.3867
 1091SOL    HW1 4362   3.197   3.485   2.137 -1.0887 -0.2580  0.3128
 1091SOL    HW2 4363   3.144   3.493   2.278 -4.5339  0.1540 -0.9120
 1091SOL     MW 4364   3.167   3.532   2.204 -0.4368  0.3429  0.2020
 1092SOL     OW 4365   4.607   1.293   0.546 -0.2577  0.7919 -0.3541
 1092SOL    HW1 4366   4.554   1.214   0.538 -0.3260  0.9326 -1.5493
 1092SOL    HW2 4367   4.561   1.346   0.612 -1.4722  0.7933 -1.1661
 1092SOL     MW 4368   4.594   1.290   0.554 -0.4304  0.8110 -0.6242
 1093SOL     OW 4369   2.127   2.693   4.970 -0.2772  0.1990  0.2588
 1093SOL    HW1 4370   2.053   2.713   4.914 -0.9945 -2.2803  0.1941
 1093SOL    HW2 4371   2.088   2.656   5.049  0.8555 -0.3844  0.5656
 1093SOL     MW 4372   2.112   2.691   4.973 -0.2213 -0.2132  0.2914
 1094SOL     OW 4373   1.212   1.019   0.781 -0.2889 -0.2784  0.0873
 1094SOL    HW1 4374   1.218   0.965   0.859 -0.8678 -0.3070  0.1206
 1094SOL    HW2 4375   1.302   1.035   0.755 -0.0167  1.0678  1.6751
 1094SOL     MW 4376   1.225   1.014   0.788 -0.3301 -0.1010  0.3055
 1095SOL     OW 4377   4.166   1.813   1.202 -0.2070  0.5074  0.6274
 1095SOL    HW1 4378   4.088   1.760   1.217  0.9000 -1.2635  0.4320
 1095SOL    HW2 4379   4.152   1.892   1.253 -1.8461 -0.0357  1.0771
 1095SOL     MW 4380   4.154   1.817   1.211 -0.2786  0.1960  0.6616
 1096SOL     OW 4381   4.305   2.317   5.143 -0.5367 -0.0827 -0.8794
 1096SOL    HW1 4382   4.294   2.255   5.215  1.0911  2.1867  1.5246
 1096SOL    HW2 4383   4.393   2.300   5.111 -0.5048  0.2169 -0.9559
 1096SOL     MW 4384   4.315   2.306   5.149 -0.3134  0.2630 -0.5661
 1097SOL     OW 4385   1.848   3.048   0.687 -0.3033  0.0928  0.1462
 1097SOL    HW1 4386   1.869   3.096   0.606  0.1555 -0.4027 -0.0357
 1097SOL    HW2 4387   1.931   3.046   0.735 -0.3603 -0.3684  0.2268
 1097SOL     MW 4388   1.862   3.054   0.682 -0.2492 -0.0360  0.1326
 1098SOL     OW 4389   5.282   2.845   3.098 -0.2209 -0.8325 -0.2819
 1098SOL    HW1 4390   5.291   2.817   3.190 -0.1219  1.1415  0.3656
 1098SOL    HW2 4391   5.187   2.851   3.084 -0.2609 -2.1048 -0.6517
 1098SOL     MW 4392   5.270   2.842   3.109 -0.2130 -0.7381 -0.2445
 1099SOL     OW 4393   5.156   1.338   2.218 -0.4026 -0.1571 -0.0794
 1099SOL    HW1 4394   5.118   1.422   2.191 -0.6749  0.3031  1.5766
 1099SOL    HW2 4395   5.137   1.333   2.312  1.2660 -1.1973  0.2393
 1099SOL     MW 4396   5.149   1.349   2.227 -0.2147 -0.2352  0.1863
 1100SOL     OW 4397   1.510   2.755   4.242 -0.0454  0.1369  0.5410
 1100SOL    HW1 4398   1.536   2.693   4.175  0.4713  0.9331 -0.0043
 1100SOL    HW2 4399   1.513   2.841   4.199 -0.1315  0.6124  1.4497
 1100SOL     MW 4400   1.514   2.758   4.227  0.0126  0.3080  0.5899
 1101SOL     OW 4401   0.059   2.390   4.753 -0.4424  0.4748  0.0672
 1101SOL    HW1 4402   0.121   2.323   4.725  0.9304  2.1784 -1.1872
 1101SOL    HW2 4403  -0.023   2.366   4.710  0.4499  0.4373 -1.7043
 1101SOL     MW 4404   0.056   2.378   4.743 -0.1375  0.6990 -0.3400
 1102SOL     OW 4405   5.269   1.798   2.783 -0.4500  0.6436  0.1096
 1102SOL    HW1 4406   5.360   1.822   2.770 -0.4682  0.2894 -0.7834
 1102SOL    HW2 4407   5.259   1.715   2.735 -1.5715  1.3802 -0.9985
 1102SOL     MW 4408   5.280   1.790   2.775 -0.6034  0.6950 -0.1597
 1103SOL     OW 4409   4.099   4.909   3.963 -0.2910 -0.0779  0.0127
 1103SOL    HW1 4410   4.040   4.852   4.013 -1.0389 -0.9198 -1.7320
 1103SOL    HW2 4411   4.071   4.998   3.984 -0.6312 -0.4069  1.0018
 1103SOL     MW 4412   4.088   4.913   3.972 -0.4374 -0.2355 -0.0890
 1104SOL     OW 4413   5.259   5.461   0.283 -0.4687  0.1330 -0.2066
 1104SOL    HW1 4414   5.286   5.447   0.374  0.2233 -0.2008 -0.4577
 1104SOL    HW2 4415   5.308   5.396   0.233  0.0475  1.0698 -0.9596
 1104SOL     MW 4416   5.270   5.451   0.289 -0.3061  0.2141 -0.3417
 1105SOL     OW 4417   3.321   3.230   3.808 -0.1213  0.6673  0.1236
 1105SOL    HW1 4418   3.393   3.182   3.850  0.6951  0.3797 -1.5168
 1105SOL    HW2 4419   3.292   3.293   3.874  0.7775 -0.0844  1.2734
 1105SOL     MW 4420   3.327   3.232   3.823  0.1095  0.5275  0.0576
 1106SOL     OW 4421   1.748   4.660   3.569  0.9500 -0.0264 -0.0873
 1106SOL    HW1 4422   1.706   4.693   3.648  1.0385 -0.5271  0.1700
 1106SOL    HW2 4423   1.729   4.726   3.502 -0.3057 -0.2689  0.0051
 1106SOL     MW 4424   1.740   4.673   3.570  0.7929 -0.1264 -0.0402
 1107SOL     OW 4425   2.248   1.748   3.696 -0.3467  0.4550 -0.0262
 1107SOL    HW1 4426   2.163   1.758   3.739 -0.3716 -0.1585  0.0808
 1107SOL    HW2 4427   2.229   1.757   3.603 -0.3502  1.4278  0.0597
 1107SOL     MW 4428   2.234   1.751   3.689 -0.3505  0.5034 -0.0003
 1108SOL     OW 4429   0.543   0.948   0.319 -0.4485 -0.6520  0.3189
 1108SOL    HW1 4430   0.596   0.930   0.241 -0.4904 -0.7616  0.3150
 1108SOL    HW2 4431   0.491   1.025   0.296 -0.9262 -1.0622  0.0047
 1108SOL     MW 4432   0.543   0.956   0.305 -0.5184 -0.7219  0.2761
 1109SOL     OW 4433   2.262   3.776   3.159  0.3903  0.5598 -0.5409
 1109SOL    HW1 4434   2.273   3.857   3.211  1.1362  0.8108 -1.0651
 1109SOL    HW2 4435   2.183   3.791   3.108  0.8521  1.2324 -1.0893
 1109SOL     MW 4436   2.253   3.789   3.159  0.5528  0.6841 -0.6852
 1110SOL     OW 4437   4.596   1.074   3.079 -0.6403 -0.1026 -0.3017
 1110SOL    HW1 4438   4.547   1.128   3.142 -1.8073 -0.2791 -1.0226
 1110SOL    HW2 4439   4.545   0.993   3.074  0.2510 -0.6673 -0.3903
 1110SOL     MW 4440   4.582   1.071   3.087 -0.6774 -0.2023 -0.4106
 1111SOL     OW 4441   5.397   3.512   2.917 -0.3637 -0.7944 -0.1753
 1111SOL    HW1 4442   5.442   3.470   2.844  1.4682  0.3450  0.2320
 1111SOL    HW2 4443   5.307   3.480   2.911  0.1022 -1.9306 -1.9889
 1111SOL     MW 4444   5.391   3.502   2.906 -0.0545 -0.7940 -0.3646
 1112SOL     OW 4445   1.265   1.565   2.504  0.2473  0.1487  0.8902
 1112SOL    HW1 4446   1.192   1.588   2.446  0.5092 -1.0074  0.0592
 1112SOL    HW2 4447   1.297   1.649   2.537 -1.4157  0.6875  1.2302
 1112SOL     MW 4448   1.259   1.579   2.501  0.0587  0.0657  0.8241
 1113SOL     OW 4449   0.130   0.260   2.052  0.5500  0.1097  0.2035
 1113SOL    HW1 4450   0.167   0.174   2.033  2.6647  0.9709  0.1380
 1113SOL    HW2 4451   0.053   0.242   2.106  1.3060 -1.7888  0.7276
 1113SOL     MW 4452   0.125   0.246   2.057  0.9363 -0.0299  0.2652
 1114SOL     OW 4453   5.109   3.518   1.401  0.2220  0.1844 -0.3645
 1114SOL    HW1 4454   5.016   3.524   1.381  0.1781 -2.0397 -1.0677
 1114SOL    HW2 4455   5.114   3.521   1.496 -0.9222 -2.7461 -0.1372
 1114SOL     MW 4456   5.097   3.519   1.411  0.0621 -0.5093 -0.4286
 1115SOL     OW 4457   0.994   5.088   3.450 -0.0839 -0.0811  0.1817
 1115SOL    HW1 4458   1.008   5.151   3.379  1.2058 -0.9259 -0.3576
 1115SOL    HW2 4459   1.056   5.114   3.517 -1.2599  0.6779  1.0176
 1115SOL     MW 4460   1.004   5.100   3.449 -0.0686 -0.0927  0.2216
 1116SOL     OW 4461   4.360   4.271   0.018  0.6630  0.1009 -0.1715
 1116SOL    HW1 4462   4.301   4.332  -0.026  1.1379  0.2763 -0.5763
 1116SOL    HW2 4463   4.307   4.193   0.035 -0.1303  0.8656  0.9486
 1116SOL     MW 4464   4.345   4.268   0.014  0.6202  0.2275 -0.0752
 1117SOL     OW 4465   0.907   2.036   5.457 -0.1076  0.5812  0.0046
 1117SOL    HW1 4466   0.891   2.085   5.376 -0.8009  0.0957 -0.1562
 1117SOL    HW2 4467   0.897   2.101   5.527  2.2611  1.4443 -0.3546
 1117SOL     MW 4468   0.904   2.051   5.456  0.1179  0.6320 -0.0654
 1118SOL     OW 4469   1.437   0.604   0.885  0.1327 -0.0696 -0.0696
 1118SOL    HW1 4470   1.466   0.518   0.916 -0.5545 -0.6025 -0.8631
 1118SOL    HW2 4471   1.387   0.640   0.958 -2.3090 -1.7252 -0.8223
 1118SOL     MW 4472   1.434   0.597   0.899 -0.2884 -0.3642 -0.2777
 1119SOL     OW 4473   2.750   3.755   4.160 -0.4713  0.0987  0.0413
 1119SOL    HW1 4474   2.676   3.694   4.166 -1.6051  1.5319  2.6989
 1119SOL    HW2 4475   2.828   3.698   4.157 -1.5487 -1.4951  0.6966
 1119SOL     MW 4476   2.751   3.739   4.161 -0.7689  0.0771  0.4871
 1120SOL     OW 4477   2.349   1.916   3.932  0.3425  0.4080 -0.2377
 1120SOL    HW1 4478   2.299   1.864   3.870  0.1094  0.0914  0.2099
 1120SOL    HW2 4479   2.356   1.861   4.010  0.1817  1.0046  0.2057
 1120SOL     MW 4480   2.343   1.901   3.934  0.2895  0.4457 -0.1178
 1121SOL     OW 4481   2.632   4.383   4.130  0.0053  0.2959 -0.0611
 1121SOL    HW1 4482   2.614   4.330   4.207  0.0361 -0.9921 -0.9145
 1121SOL    HW2 4483   2.663   4.467   4.165  0.6129 -0.4792  1.3078
 1121SOL     MW 4484   2.634   4.387   4.145  0.0912  0.0182  0.0082
 1122SOL     OW 4485   1.012   2.163   3.817 -0.4411 -0.1993 -0.1607
 1122SOL    HW1 4486   1.091   2.129   3.858 -0.5060 -0.0287  0.1030
 1122SOL    HW2 4487   0.953   2.184   3.890 -1.7607 -2.7591 -0.3739
 1122SOL     MW 4488   1.014   2.161   3.832 -0.6275 -0.5208 -0.1539
 1123SOL     OW 4489   1.551   2.176   1.677 -0.1486 -0.2280 -0.0310
 1123SOL    HW1 4490   1.484   2.161   1.610 -0.1302 -1.7247  0.2384
 1123SOL    HW2 4491   1.623   2.219   1.630 -0.4939 -0.4432 -0.7764
 1123SOL     MW 4492   1.552   2.179   1.662 -0.1926 -0.4584 -0.0951
 1124SOL     OW 4493   2.875   3.095   3.781 -0.2224 -0.6602  0.5501
 1124SOL    HW1 4494   2.953   3.111   3.728 -0.8823  0.0391 -0.2420
 1124SOL    HW2 4495   2.886   3.151   3.858 -0.1469 -0.2252  0.2241
 1124SOL     MW 4496   2.887   3.105   3.785 -0.3010 -0.5076  0.3996
 1125SOL     OW 4497   5.243   0.572   0.798  0.2431 -0.1621 -0.0854
 1125SOL    HW1 4498   5.321   0.525   0.827 -0.7633 -1.4475  0.6058
 1125SOL    HW2 4499   5.183   0.568   0.872 -1.5113 -1.5261 -1.4661
 1125SOL     MW 4500   5.246   0.565   0.812 -0.1284 -0.5187 -0.1782
 1126SOL     OW 4501   3.122   0.696   5.361  0.2148  0.6016 -0.1080
 1126SOL    HW1 4502   3.217   0.686   5.352  0.5312 -0.2292  2.9660
 1126SOL    HW2 4503   3.087   0.610   5.336  0.1081  1.2164 -2.2455
 1126SOL     MW 4504   3.130   0.683   5.357  0.2430  0.5725  0.0181
 1127SOL     OW 4505   1.733   4.911   1.511  0.0427  0.0365 -0.2300
 1127SOL    HW1 4506   1.727   4.994   1.464  0.2353 -0.3379 -0.9237
 1127SOL    HW2 4507   1.646   4.898   1.548 -0.6810 -0.5322 -1.9968
 1127SOL     MW 4508   1.720   4.920   1.510 -0.0288 -0.0904 -0.5612
 1128SOL     OW 4509   2.675   4.965   3.288 -0.0899  0.0529 -0.1132
 1128SOL    HW1 4510   2.648   4.922   3.370  1.6106 -2.3631 -0.7192
 1128SOL    HW2 4511   2.594   4.972   3.237 -0.5509 -1.9949  0.2663
 1128SOL     MW 4512   2.660   4.960   3.292  0.0769 -0.5478 -0.1437
 1129SOL     OW 4513   1.625   3.232   1.032  0.4000  0.4321 -0.5379
 1129SOL    HW1 4514   1.610   3.159   1.092  0.6705  0.3052 -0.6242
 1129SOL    HW2 4515   1.608   3.195   0.945 -1.6152  1.0215 -0.4600
 1129SOL     MW 4516   1.620   3.217   1.028  0.1652  0.4943 -0.5390
 1130SOL     OW 4517   4.633   4.264   4.420 -0.3025 -0.3549  0.1925
 1130SOL    HW1 4518   4.721   4.295   4.398 -0.4759 -1.4568 -2.4890
 1130SOL    HW2 4519   4.579   4.294   4.347 -2.0529 -0.2374  1.4839
 1130SOL     MW 4520   4.638   4.272   4.407 -0.5614 -0.4874  0.0054
 1131SOL     OW 4521   2.830   5.183   2.197 -0.2670  0.3817  0.5601
 1131SOL    HW1 4522   2.827   5.123   2.272  1.5887  1.3305  1.4679
 1131SOL    HW2 4523   2.827   5.125   2.121  1.6229 -0.9589  1.4051
 1131SOL     MW 4524   2.829   5.167   2.197  0.2371  0.3289  0.7960
 1132SOL     OW 4525   0.762   3.738   1.029 -0.0052 -0.5246  0.5678
 1132SOL    HW1 4526   0.738   3.771   1.116  0.2304 -1.3327  0.9537
 1132SOL    HW2 4527   0.856   3.759   1.021 -0.1522  0.0514  0.2633
 1132SOL     MW 4528   0.772   3.746   1.040  0.0067 -0.5558  0.5787
 1133SOL     OW 4529   0.140   1.636   2.701 -0.5860  0.3334 -0.0627
 1133SOL    HW1 4530   0.212   1.579   2.727  0.8179  1.8968 -0.3230
 1133SOL    HW2 4531   0.080   1.579   2.653 -0.6238 -1.4663  1.9884
 1133SOL     MW 4532   0.142   1.621   2.698 -0.4022  0.3016  0.1783
 1134SOL     OW 4533   4.720   0.592   2.514  0.6185 -0.1534  0.0726
 1134SOL    HW1 4534   4.652   0.568   2.576  1.0465  0.0994  0.6564
 1134SOL    HW2 4535   4.755   0.675   2.548  0.6669  0.1399 -0.6647
 1134SOL     MW 4536   4.716   0.600   2.527  0.6826 -0.0799  0.0520
 1135SOL     OW 4537   3.716   1.258   2.410 -0.3075  0.3385  0.4188
 1135SOL    HW1 4538   3.688   1.229   2.496 -0.8418 -0.7811 -0.1114
 1135SOL    HW2 4539   3.661   1.210   2.349  1.1410 -0.1129 -0.5928
 1135SOL     MW 4540   3.705   1.248   2.413 -0.1845  0.1271  0.2113
 1136SOL     OW 4541   3.947   3.894   5.100 -0.1768  0.0102 -0.0088
 1136SOL    HW1 4542   3.858   3.923   5.077  0.6480  1.2651 -1.8188
 1136SOL    HW2 4543   3.959   3.923   5.190 -1.0421  1.2345 -0.2624
 1136SOL     MW 4544   3.936   3.902   5.109 -0.1822  0.3439 -0.2865
 1137SOL     OW 4545   2.604   4.773   3.973 -0.1056 -0.1037 -0.5319
 1137SOL    HW1 4546   2.652   4.729   3.903  0.3877 -1.8999  0.8707
 1137SOL    HW2 4547   2.647   4.744   4.053 -2.4126 -0.3532  0.6864
 1137SOL     MW 4548   2.616   4.763   3.974 -0.3497 -0.3790 -0.1792
 1138SOL     OW 4549   5.092   4.657   0.538 -0.1549 -0.2713  0.6530
 1138SOL    HW1 4550   5.017   4.683   0.485  0.8878 -1.0226 -1.3117
 1138SOL    HW2 4551   5.135   4.739   0.562 -0.1878  0.0659 -0.4055
 1138SOL     MW 4552   5.088   4.671   0.534 -0.0190 -0.3270  0.2462
 1139SOL     OW 4553   4.987   3.687   4.387  0.0083 -0.1413  0.0001
 1139SOL    HW1 4554   5.024   3.741   4.457  1.0573 -1.1727  0.2742
 1139SOL    HW2 4555   4.993   3.742   4.309  1.7398 -0.1083  0.1273
 1139SOL     MW 4556   4.993   3.702   4.386  0.3825 -0.2757  0.0541
 1140SOL     OW 4557   5.136   4.103   1.165  0.3514 -0.3402  0.1642
 1140SOL    HW1 4558   5.229   4.097   1.187  0.3590  0.4482  0.4036
 1140SOL    HW2 4559   5.135   4.148   1.081  0.2161 -1.1015 -0.2471
 1140SOL     MW 4560   5.149   4.109   1.157  0.3342 -0.3365  0.1411
 1141SOL     OW 4561   4.885   5.179   1.177 -0.0563 -0.4757  0.2171
 1141SOL    HW1 4562   4.861   5.145   1.091 -1.0795  0.7305 -0.0090
 1141SOL    HW2 4563   4.907   5.102   1.228 -0.3540 -1.2880 -0.8520
 1141SOL     MW 4564   4.885   5.164   1.172 -0.2341 -0.4227  0.0428
 1142SOL     OW 4565   1.682   2.645   0.791  0.3242  0.0684 -0.0038
 1142SOL    HW1 4566   1.729   2.680   0.716  1.2598  0.2250  0.6411
 1142SOL    HW2 4567   1.732   2.674   0.867 -1.0771  0.6522  0.7478
 1142SOL     MW 4568   1.695   2.653   0.791  0.2615  0.1680  0.1841
 1143SOL     OW 4569   2.555   4.628   1.580  0.0003  0.9450  0.5032
 1143SOL    HW1 4570   2.561   4.609   1.487 -1.0390 -0.2374  0.6468
 1143SOL    HW2 4571   2.462   4.647   1.594 -0.0606  0.0450  1.4649
 1143SOL     MW 4572   2.543   4.628   1.570 -0.1477  0.6647  0.6520
 1144SOL     OW 4573   3.202   2.272   5.110 -0.4479 -0.1661 -0.1712
 1144SOL    HW1 4574   3.269   2.304   5.171 -0.0847 -1.5194  0.1583
 1144SOL    HW2 4575   3.202   2.177   5.120 -1.6951 -0.2808 -0.9342
 1144SOL     MW 4576   3.211   2.264   5.120 -0.5669 -0.3636 -0.2296
 1145SOL     OW 4577   0.029   3.268   0.631 -0.0373 -0.1457 -0.2069
 1145SOL    HW1 4578  -0.057   3.227   0.625 -0.8881  1.2136  1.6919
 1145SOL    HW2 4579   0.045   3.278   0.725  1.6524  0.7350 -0.5341
 1145SOL     MW 4580   0.020   3.264   0.643  0.0756  0.1558  0.0046
 1146SOL     OW 4581   2.934   2.182   3.400  0.6754 -0.0952  0.1487
 1146SOL    HW1 4582   2.943   2.146   3.312 -0.5581 -0.3393  0.1046
 1146SOL    HW2 4583   2.899   2.109   3.451 -2.3621  1.0967 -0.0407
 1146SOL     MW 4584   2.930   2.167   3.395  0.1006  0.0323  0.1173
 1147SOL     OW 4585   5.316   1.574   5.244  0.1931  0.7321 -0.1853
 1147SOL    HW1 4586   5.250   1.564   5.313  0.7647 -0.7719  0.1856
 1147SOL    HW2 4587   5.290   1.654   5.197 -0.8114  1.1944  1.0983
 1147SOL     MW 4588   5.303   1.584   5.247  0.1348  0.5919  0.0374
 1148SOL     OW 4589   4.525   5.326   3.027  0.4708  0.1286  0.1154
 1148SOL    HW1 4590   4.582   5.256   2.994  0.9575 -0.5956  2.3466
 1148SOL    HW2 4591   4.445   5.280   3.055  0.9489  0.3686  1.9669
 1148SOL     MW 4592   4.522   5.310   3.026  0.6007  0.0634  0.6649
 1149SOL     OW 4593   1.000   0.207   1.478  0.2478 -0.2888 -0.3572
 1149SOL    HW1 4594   1.045   0.192   1.561  0.7449 -0.5622 -0.6717
 1149SOL    HW2 4595   0.918   0.250   1.503  1.4047  1.8145  0.1210
 1149SOL     MW 4596   0.995   0.211   1.493  0.4704 -0.0426 -0.3352
 1150SOL     OW 4597   1.624   1.442   1.966  0.2533 -0.6750 -0.6364
 1150SOL    HW1 4598   1.626   1.424   2.060  0.6810  0.6611 -0.3597
 1150SOL    HW2 4599   1.561   1.513   1.956 -0.5740 -1.5019 -1.5134
 1150SOL     MW 4600   1.616   1.450   1.977  0.1995 -0.6065 -0.7172
 1151SOL     OW 4601   4.808   3.385   3.980 -0.1689 -0.1891 -0.2029
 1151SOL    HW1 4602   4.792   3.362   3.889 -1.0702  1.0480 -0.3786
 1151SOL    HW2 4603   4.774   3.473   3.989  1.6270  0.4494  0.8722
 1151SOL     MW 4604   4.801   3.393   3.969 -0.0485  0.0634 -0.0819
 1152SOL     OW 4605   3.614   0.680   5.164 -0.3421 -1.0260 -0.3160
 1152SOL    HW1 4606   3.549   0.680   5.234 -0.1212 -0.7346 -0.1091
 1152SOL    HW2 4607   3.688   0.730   5.199 -0.4947 -0.2945 -1.0036
 1152SOL     MW 4608   3.615   0.687   5.178 -0.3329 -0.8883 -0.3807
 1153SOL     OW 4609   1.580   0.918   3.132 -0.1407  0.1161  0.5158
 1153SOL    HW1 4610   1.489   0.943   3.118 -0.2948 -0.9562 -0.5551
 1153SOL    HW2 4611   1.609   0.883   3.048  1.2655  0.4284  0.8423
 1153SOL     MW 4612   1.572   0.917   3.119  0.0278  0.0138  0.4156
 1154SOL     OW 4613   2.669   1.756   3.070 -0.5804  0.9479 -0.1285
 1154SOL    HW1 4614   2.646   1.779   2.980  0.1528  0.2854 -0.4956
 1154SOL    HW2 4615   2.693   1.664   3.066  2.1824  1.5580  0.1922
 1154SOL     MW 4616   2.669   1.747   3.058 -0.1099  0.9408 -0.1347
 1155SOL     OW 4617   3.353   1.277   3.614 -0.0525 -0.1505  0.3124
 1155SOL    HW1 4618   3.395   1.238   3.538  1.0362  0.4763  0.5695
 1155SOL    HW2 4619   3.264   1.299   3.585  0.5505  0.6886 -0.9750
 1155SOL     MW 4620   3.347   1.275   3.600  0.1751  0.0468  0.1738
 1156SOL     OW 4621   3.642   0.386   2.343 -0.1109  0.0020 -0.3956
 1156SOL    HW1 4622   3.693   0.429   2.275  0.3168 -0.6891 -0.5221
 1156SOL    HW2 4623   3.599   0.458   2.389  0.0129  0.5129 -1.0558
 1156SOL     MW 4624   3.643   0.402   2.340 -0.0367 -0.0222 -0.5015
 1157SOL     OW 4625   5.206   4.065   2.760 -0.1886 -0.3965 -0.5829
 1157SOL    HW1 4626   5.264   4.058   2.684 -0.6975 -1.3274 -0.9021
 1157SOL    HW2 4627   5.170   3.977   2.771  0.0968 -0.3598  0.9324
 1157SOL     MW 4628   5.209   4.052   2.751 -0.2187 -0.5168 -0.4219
 1158SOL     OW 4629   0.253   2.396   2.666 -0.3802 -0.2576 -0.2201
 1158SOL    HW1 4630   0.194   2.398   2.591 -0.3288  0.3809 -0.2468
 1158SOL    HW2 4631   0.223   2.467   2.722 -0.5464 -0.8559  0.4676
 1158SOL     MW 4632   0.241   2.406   2.663 -0.3957 -0.2522 -0.1311
 1159SOL     OW 4633   3.182   0.856   3.822 -0.0212  0.3715  0.2186
 1159SOL    HW1 4634   3.132   0.825   3.898 -0.4536  0.9000  0.1559
 1159SOL    HW2 4635   3.117   0.862   3.752  0.0608  1.3480  0.2137
 1159SOL     MW 4636   3.167   0.852   3.823 -0.0683  0.5741  0.2095
 1160SOL     OW 4637   0.867   0.355   2.342  0.1425  0.2134  0.3795
 1160SOL    HW1 4638   0.867   0.434   2.398  0.6906  0.0870  0.5626
 1160SOL    HW2 4639   0.878   0.389   2.253  0.3640  0.3483  0.4570
 1160SOL     MW 4640   0.869   0.371   2.338  0.2460  0.2145  0.4146
 1161SOL     OW 4641   4.061   4.735   2.660  0.6624  0.0891 -0.1493
 1161SOL    HW1 4642   4.072   4.792   2.583 -1.2556 -1.3287 -1.5646
 1161SOL    HW2 4643   3.971   4.705   2.655  0.5970 -0.3791  2.5002
 1161SOL     MW 4644   4.051   4.739   2.649  0.3955 -0.1647  0.0168
 1162SOL     OW 4645   0.160   3.033   1.005 -0.0038  0.0995  0.2701
 1162SOL    HW1 4646   0.252   3.008   1.001 -0.1272 -0.2972 -0.2736
 1162SOL    HW2 4647   0.134   3.016   1.096  0.3571 -0.1701  0.3265
 1162SOL     MW 4648   0.169   3.027   1.017  0.0281  0.0098  0.2045
 1163SOL     OW 4649   1.558   3.795   1.635 -0.0817  0.1517 -0.2091
 1163SOL    HW1 4650   1.580   3.794   1.542  0.6642 -0.0049 -0.0405
 1163SOL    HW2 4651   1.465   3.817   1.638  0.4800  3.0569 -0.8825
 1163SOL     MW 4652   1.549   3.798   1.623  0.0943  0.5216 -0.2770
 1164SOL     OW 4653   0.457   3.122   4.601 -0.6186  0.0511  0.1762
 1164SOL    HW1 4654   0.546   3.121   4.635 -0.1532  0.9776 -0.9621
 1164SOL    HW2 4655   0.407   3.171   4.667 -0.1502  0.0989  0.4949
 1164SOL     MW 4656   0.462   3.129   4.615 -0.4929  0.1822  0.0659
 1165SOL     OW 4657   5.433   5.441   2.902  0.1463 -0.6151  0.2289
 1165SOL    HW1 4658   5.386   5.404   2.976 -1.3437  1.2303  0.2805
 1165SOL    HW2 4659   5.378   5.513   2.872  1.9632  0.3396 -1.0296
 1165SOL     MW 4660   5.419   5.446   2.908  0.1903 -0.2383  0.0665
 1166SOL     OW 4661   4.021   4.241   2.644 -0.1733 -0.1032  0.4932
 1166SOL    HW1 4662   4.044   4.322   2.598 -0.6411 -0.3394 -0.1728
 1166SOL    HW2 4663   4.099   4.186   2.635 -0.2709 -0.1621 -0.0707
 1166SOL     MW 4664   4.035   4.245   2.636 -0.2494 -0.1429  0.3277
 1167SOL     OW 4665   3.035   2.391   3.099 -0.8553 -0.1255  0.2051
 1167SOL    HW1 4666   3.015   2.447   3.174 -0.7591  1.2230 -0.7293
 1167SOL    HW2 4667   3.078   2.449   3.036  3.0763 -2.1245  0.7388
 1167SOL     MW 4668   3.038   2.406   3.101 -0.3132 -0.2130  0.1512
 1168SOL     OW 4669   1.584   5.314   2.098 -0.3018 -0.5411 -0.1163
 1168SOL    HW1 4670   1.633   5.342   2.175 -0.5549  0.4580 -0.3111
 1168SOL    HW2 4671   1.499   5.356   2.106  0.3815  1.3842 -2.0007
 1168SOL     MW 4672   1.579   5.324   2.109 -0.2439 -0.1475 -0.3961
 1169SOL     OW 4673   3.137   5.168   3.168  0.0844  0.1117  0.0589
 1169SOL    HW1 4674   3.109   5.227   3.238 -2.6069  0.6933 -1.3710
 1169SOL    HW2 4675   3.074   5.183   3.098  1.4345 -1.9543 -1.7085
 1169SOL     MW 4676   3.125   5.178   3.168 -0.0961 -0.0881 -0.3714
 1170SOL     OW 4677   3.113   3.211   3.640 -0.0802 -0.5333  0.0217
 1170SOL    HW1 4678   3.193   3.216   3.692 -0.8447  0.3053  1.1624
 1170SOL    HW2 4679   3.137   3.158   3.564  1.4224 -0.6865  0.5735
 1170SOL     MW 4680   3.127   3.204   3.637  0.0191 -0.4410  0.2495
 1171SOL     OW 4681   2.674   1.178   1.613  0.3358  0.3142  0.4402
 1171SOL    HW1 4682   2.603   1.242   1.613  0.7657  0.8415  2.1633
 1171SOL    HW2 4683   2.715   1.187   1.527 -0.5772  1.2640  0.0868
 1171SOL     MW 4684   2.670   1.188   1.601  0.2708  0.5130  0.6245
 1172SOL     OW 4685   4.803   0.632   0.206  0.2907 -0.3697 -0.5150
 1172SOL    HW1 4686   4.717   0.662   0.235  0.7418 -0.1658  0.6670
 1172SOL    HW2 4687   4.828   0.564   0.268  1.7251  0.7946  0.2618
 1172SOL     MW 4688   4.795   0.627   0.218  0.5444 -0.1856 -0.2514
 1173SOL     OW 4689   1.602   0.824   0.819 -0.1990 -0.1607 -0.4025
 1173SOL    HW1 4690   1.647   0.796   0.739 -0.0027 -0.9458 -0.0282
 1173SOL    HW2 4691   1.552   0.748   0.847 -1.8806  0.7319 -0.8658
 1173SOL     MW 4692   1.601   0.810   0.812 -0.3989 -0.1462 -0.4145
 1174SOL     OW 4693   4.684   3.141   4.444 -0.0833 -0.5424 -0.4387
 1174SOL    HW1 4694   4.666   3.061   4.492 -0.8394 -0.4762 -0.5925
 1174SOL    HW2 4695   4.755   3.183   4.492 -0.1625 -0.9606  0.0476
 1174SOL     MW 4696   4.691   3.136   4.456 -0.1957 -0.5898 -0.3939
 1175SOL     OW 4697   2.812   1.049   2.614 -0.1437  0.2212 -0.3244
 1175SOL    HW1 4698   2.902   1.070   2.641 -0.4899  0.4998  0.6512
 1175SOL    HW2 4699   2.807   1.078   2.523  0.2134  1.8871  0.1620
 1175SOL     MW 4700   2.824   1.056   2.606 -0.1423  0.4829 -0.1277
 1176SOL     OW 4701   0.978   3.823   2.585 -0.2956 -0.1196  0.0032
 1176SOL    HW1 4702   0.942   3.902   2.626 -1.5914 -1.0450  0.6989
 1176SOL    HW2 4703   0.939   3.751   2.634  2.3948 -1.2095  0.7198
 1176SOL     MW 4704   0.968   3.824   2.597 -0.1079 -0.3908  0.1933
 1177SOL     OW 4705   2.597   0.859   5.509  0.2343  0.3216  0.0560
 1177SOL    HW1 4706   2.666   0.847   5.444 -0.4459 -0.2446 -0.5800
 1177SOL    HW2 4707   2.522   0.889   5.459 -0.2976 -0.1083  0.5795
 1177SOL     MW 4708   2.596   0.861   5.494  0.0711  0.1875  0.0409
 1178SOL     OW 4709   4.993   4.547   3.191  0.5371 -0.3939 -0.6299
 1178SOL    HW1 4710   5.049   4.611   3.235 -0.0701 -0.2330 -0.0821
 1178SOL    HW2 4711   5.052   4.477   3.165  1.0080 -0.1833 -0.1372
 1178SOL     MW 4712   5.008   4.546   3.193  0.5187 -0.3439 -0.4899
 1179SOL     OW 4713   0.718   4.726   1.364 -0.2994  0.2990 -0.5253
 1179SOL    HW1 4714   0.719   4.639   1.403 -0.2512  0.3137 -0.4944
 1179SOL    HW2 4715   0.687   4.784   1.434 -1.3290  0.1582 -0.8381
 1179SOL     MW 4716   0.714   4.722   1.378 -0.4315  0.2821 -0.5633
 1180SOL     OW 4717   3.116   0.506   4.470 -0.5219  0.3565  0.4306
 1180SOL    HW1 4718   3.190   0.503   4.410 -0.6767  1.4301  0.1508
 1180SOL    HW2 4719   3.086   0.416   4.476  0.3899  0.0134  0.0232
 1180SOL     MW 4720   3.122   0.494   4.463 -0.4200  0.4548  0.3382
 1181SOL     OW 4721   0.145   4.028   2.179  0.0278  0.5997  0.4566
 1181SOL    HW1 4722   0.113   3.947   2.141  0.6614  1.1700 -1.3744
 1181SOL    HW2 4723   0.185   4.001   2.262  2.5273 -1.4182 -1.2275
 1181SOL     MW 4724   0.146   4.014   2.185  0.4495  0.4049 -0.0165
 1182SOL     OW 4725   5.211   3.549   5.044 -0.1066 -0.5399  0.2086
 1182SOL    HW1 4726   5.130   3.597   5.027 -0.5361 -1.4355 -0.3131
 1182SOL    HW2 4727   5.279   3.617   5.042 -0.6387 -0.0101 -1.0764
 1182SOL     MW 4728   5.209   3.565   5.041 -0.2360 -0.5891 -0.0345
 1183SOL     OW 4729   1.340   3.815   3.627  0.4056 -0.1264  0.1931
 1183SOL    HW1 4730   1.283   3.759   3.574 -0.0187 -0.5378  1.0701
 1183SOL    HW2 4731   1.309   3.904   3.610  0.0251 -0.2840  0.0509
 1183SOL     MW 4732   1.328   3.819   3.618  0.2973 -0.2030  0.2920
 1184SOL     OW 4733   3.240   0.895   1.706 -0.2250 -0.7824  0.4706
 1184SOL    HW1 4734   3.232   0.987   1.733 -1.0313 -1.0874  1.3255
 1184SOL    HW2 4735   3.318   0.893   1.650 -0.7693  0.5960 -0.3722
 1184SOL     MW 4736   3.250   0.907   1.702 -0.4068 -0.6379  0.4722
 1185SOL     OW 4737   3.942   2.755   4.908 -1.0691  0.3743 -0.1648
 1185SOL    HW1 4738   4.012   2.703   4.868 -0.2925  1.3496 -0.1211
 1185SOL    HW2 4739   3.975   2.845   4.905 -1.7697  0.6920  1.0290
 1185SOL     MW 4740   3.956   2.760   4.903 -1.0589  0.5483  0.0018
 1186SOL     OW 4741   4.114   0.172   1.552  0.1243 -0.5432  0.4746
 1186SOL    HW1 4742   4.125   0.079   1.536 -0.1039 -0.4570 -0.2298
 1186SOL    HW2 4743   4.159   0.188   1.635 -1.5754 -1.6565  1.6886
 1186SOL     MW 4744   4.122   0.162   1.561 -0.1352 -0.6814  0.5431
 1187SOL     OW 4745   2.049   0.550   3.904  0.2262 -0.1135 -0.0505
 1187SOL    HW1 4746   1.976   0.561   3.965  0.4609 -0.3814  0.2849
 1187SOL    HW2 4747   2.008   0.543   3.818 -0.1417 -0.2355  0.1325
 1187SOL     MW 4748   2.034   0.550   3.901  0.2083 -0.1660  0.0193
 1188SOL     OW 4749   3.476   3.202   0.282 -0.4088 -0.2754  0.1703
 1188SOL    HW1 4750   3.524   3.132   0.326 -1.1769 -2.2612 -1.9237
 1188SOL    HW2 4751   3.384   3.183   0.300 -0.6034  1.6690  1.5534
 1188SOL     MW 4752   3.470   3.190   0.290 -0.5383 -0.2810  0.0746
 1189SOL     OW 4753   1.527   1.498   1.324  0.2903  0.3812  0.3971
 1189SOL    HW1 4754   1.540   1.429   1.389  0.4675 -0.8494 -0.9147
 1189SOL    HW2 4755   1.583   1.474   1.251 -0.7296  1.1511 -0.6725
 1189SOL     MW 4756   1.536   1.486   1.323  0.1769  0.3192  0.0766
 1190SOL     OW 4757   5.421   0.958   4.812  0.3667 -0.2091  0.2413
 1190SOL    HW1 4758   5.437   0.869   4.782 -1.0840 -0.6648  0.7456
 1190SOL    HW2 4759   5.446   1.013   4.737  0.9915 -1.0336 -0.1806
 1190SOL     MW 4760   5.427   0.953   4.798  0.2556 -0.3814  0.2524
 1191SOL     OW 4761   1.697   0.110   2.844  0.0488 -0.0699 -0.8402
 1191SOL    HW1 4762   1.662   0.180   2.789 -0.1763  0.6632  0.2045
 1191SOL    HW2 4763   1.752   0.154   2.908 -0.2782 -0.8251 -0.0147
 1191SOL     MW 4764   1.700   0.125   2.845 -0.0255 -0.0729 -0.5885
 1192SOL     OW 4765   5.058   4.223   3.876 -0.0069 -0.0640  0.3712
 1192SOL    HW1 4766   5.005   4.158   3.829  0.2732 -0.8839  1.1620
 1192SOL    HW2 4767   5.032   4.213   3.968  1.8268 -0.8117  0.8585
 1192SOL     MW 4768   5.047   4.213   3.882  0.2776 -0.2750  0.5432
 1193SOL     OW 4769   4.975   0.815   5.301 -0.3029  0.1516  0.1604
 1193SOL    HW1 4770   4.889   0.786   5.270 -0.3740  0.8233 -0.2913
 1193SOL    HW2 4771   4.957   0.857   5.385 -0.2711 -0.5993  0.5554
 1193SOL     MW 4772   4.961   0.816   5.309 -0.3082  0.1409  0.1528
 1194SOL     OW 4773   2.959   4.449   4.342  0.6586 -0.1712  0.1512
 1194SOL    HW1 4774   3.036   4.499   4.316  0.0874  0.8788  0.3677
 1194SOL    HW2 4775   2.989   4.391   4.411  1.1975  0.4642  0.4627
 1194SOL     MW 4776   2.973   4.448   4.348  0.6543  0.0556  0.2222
 1195SOL     OW 4777   3.397   4.519   3.158 -0.4588 -0.3649  0.0622
 1195SOL    HW1 4778   3.471   4.568   3.123 -0.6169  0.7965  1.2709
 1195SOL    HW2 4779   3.370   4.461   3.087 -0.0205  1.0170 -1.2817
 1195SOL     MW 4780   3.403   4.517   3.144 -0.4211 -0.0226  0.0440
 1196SOL     OW 4781   5.240   4.817   3.811 -0.1301  0.2009 -0.2911
 1196SOL    HW1 4782   5.225   4.736   3.858  1.3970 -0.4933 -0.9399
 1196SOL    HW2 4783   5.160   4.868   3.825 -0.6523 -0.9298  1.0681
 1196SOL     MW 4784   5.227   4.813   3.819  0.0052 -0.0447 -0.1955
 1197SOL     OW 4785   0.242   4.495   1.204 -0.0853  0.4048  0.0565
 1197SOL    HW1 4786   0.276   4.540   1.126  1.5534 -1.1814 -0.2254
 1197SOL    HW2 4787   0.257   4.557   1.276  0.9918  0.8065 -0.4838
 1197SOL     MW 4788   0.249   4.510   1.203  0.2802  0.2454 -0.0541
 1198SOL     OW 4789   3.692   2.510   1.067 -0.5376  0.2165  0.1890
 1198SOL    HW1 4790   3.685   2.484   0.975  0.0689 -0.4546  0.3178
 1198SOL    HW2 4791   3.772   2.562   1.071 -0.7161  0.4839  0.2875
 1198SOL     MW 4792   3.702   2.513   1.055 -0.4800  0.1622  0.2196
 1199SOL     OW 4793   4.999   5.456   5.342 -0.3974  0.3303 -0.5482
 1199SOL    HW1 4794   5.070   5.400   5.374 -0.4992  0.8779  0.7073
 1199SOL    HW2 4795   4.964   5.411   5.265  1.4319  0.1408 -1.3221
 1199SOL     MW 4796   5.004   5.443   5.336 -0.1649  0.3785 -0.4834
 1200SOL     OW 4797   1.584   2.305   4.200  0.7236  0.0234 -0.1755
 1200SOL    HW1 4798   1.567   2.323   4.292  3.5705 -0.8711  0.6246
 1200SOL    HW2 4799   1.626   2.385   4.168  3.5249 -1.0739  0.5009
 1200SOL     MW 4800   1.587   2.319   4.208  1.4837 -0.2446  0.0232
 1201SOL     OW 4801   4.486   1.016   3.876 -0.2793 -0.4841 -0.2698
 1201SOL    HW1 4802   4.511   0.969   3.956 -2.2586 -0.0894  0.6477
 1201SOL    HW2 4803   4.391   1.020   3.879 -0.3822  0.0462 -2.3966
 1201SOL     MW 4804   4.477   1.010   3.887 -0.5595 -0.3596 -0.4326
 1202SOL     OW 4805   4.994   2.779   0.261  0.1775 -0.2199  0.2340
 1202SOL    HW1 4806   5.036   2.695   0.283 -2.2809 -1.2250  1.4473
 1202SOL    HW2 4807   4.951   2.763   0.178 -0.3572 -0.1917  0.5030
 1202SOL     MW 4808   4.994   2.766   0.253 -0.2253 -0.3514  0.4335
 1203SOL     OW 4809   2.719   2.689   2.111  0.3928  0.3033 -0.2255
 1203SOL    HW1 4810   2.782   2.737   2.164  0.0907 -0.3912  0.8201
 1203SOL    HW2 4811   2.764   2.671   2.029  2.0771 -1.2935  0.9546
 1203SOL     MW 4812   2.733   2.693   2.107  0.5788 -0.0051  0.0741
 1204SOL     OW 4813   1.341   0.313   0.406 -0.3048  0.4028 -0.0044
 1204SOL    HW1 4814   1.421   0.262   0.417 -1.0878 -0.6936  0.8335
 1204SOL    HW2 4815   1.326   0.353   0.492 -1.3243 -0.4298  0.2222
 1204SOL     MW 4816   1.349   0.312   0.419 -0.5474  0.1432  0.1389
 1205SOL     OW 4817   4.448   2.692   2.250  0.4154  0.3419  0.0459
 1205SOL    HW1 4818   4.443   2.786   2.229  0.3301  0.4445  0.5142
 1205SOL    HW2 4819   4.405   2.684   2.335 -0.5779 -0.3028 -0.5103
 1205SOL     MW 4820   4.442   2.704   2.259  0.2702  0.2690  0.0341
 1206SOL     OW 4821   5.527   0.528   1.727 -0.2663 -0.7783  0.0164
 1206SOL    HW1 4822   5.470   0.516   1.652 -0.4319 -1.3523  0.2293
 1206SOL    HW2 4823   5.538   0.440   1.764 -0.3641 -0.4790  0.7903
 1206SOL     MW 4824   5.521   0.515   1.722 -0.3018 -0.8153  0.1492
 1207SOL     OW 4825   0.681   0.671   0.476  0.0003  0.5074  0.3077
 1207SOL    HW1 4826   0.639   0.652   0.392  1.2050  2.0205 -0.6931
 1207SOL    HW2 4827   0.626   0.738   0.516 -0.7971 -0.5011  0.9443
 1207SOL     MW 4828   0.668   0.677   0.470  0.0551  0.5753  0.2587
 1208SOL     OW 4829   4.783   3.502   1.685  0.1383  0.5987 -0.1835
 1208SOL    HW1 4830   4.879   3.505   1.678  0.1397  1.0122  0.0156
 1208SOL    HW2 4831   4.752   3.535   1.601  0.1686  2.6752  0.5587
 1208SOL     MW 4832   4.792   3.507   1.673  0.1426  0.9338 -0.0568
 1209SOL     OW 4833   2.267   4.289   3.289  1.0442 -0.0023  0.3218
 1209SOL    HW1 4834   2.274   4.198   3.260  0.6671  0.1398 -0.2143
 1209SOL    HW2 4835   2.295   4.340   3.214 -1.0875  0.4143 -0.2568
 1209SOL     MW 4836   2.272   4.283   3.275  0.7065  0.0729  0.1718
 1210SOL     OW 4837   5.477   3.423   1.917 -0.5195  0.7372 -0.2409
 1210SOL    HW1 4838   5.532   3.379   1.852 -0.7531  1.1713 -0.7385
 1210SOL    HW2 4839   5.539   3.469   1.974 -0.3352  0.7496 -0.4493
 1210SOL     MW 4840   5.492   3.423   1.916 -0.5261  0.7973 -0.3359
 1211SOL     OW 4841   4.888   2.763   2.003  0.2428  0.0633 -0.2841
 1211SOL    HW1 4842   4.931   2.838   2.043 -0.1350 -0.6954  1.6299
 1211SOL    HW2 4843   4.802   2.795   1.977  0.2820  0.4257  0.0264
 1211SOL     MW 4844   4.882   2.777   2.005  0.1972  0.0100  0.0153
 1212SOL     OW 4845   3.763   1.806   5.375 -0.6538  0.0619 -0.1982
 1212SOL    HW1 4846   3.754   1.846   5.289 -0.4538  1.2580  0.3043
 1212SOL    HW2 4847   3.855   1.782   5.381 -0.7499 -0.3791 -0.4588
 1212SOL     MW 4848   3.774   1.808   5.365 -0.6398  0.1636 -0.1656
 1213SOL     OW 4849   2.355   3.680   4.622  0.5252 -0.6529 -0.3164
 1213SOL    HW1 4850   2.294   3.653   4.553  0.4037  1.5142 -1.1376
 1213SOL    HW2 4851   2.409   3.748   4.581  1.5315 -0.4528  1.2698
 1213SOL     MW 4852   2.354   3.685   4.607  0.6443 -0.3343 -0.2134
 1214SOL     OW 4853   4.566   4.674   4.220 -0.1290  0.1940 -0.0618
 1214SOL    HW1 4854   4.543   4.705   4.133 -1.2709  1.2566  0.5928
 1214SOL    HW2 4855   4.533   4.741   4.279  2.0532  0.3047  1.1274
 1214SOL     MW 4856   4.559   4.687   4.216  0.0110  0.3519  0.1863
 1215SOL     OW 4857   1.726   4.056   5.269  0.3230  0.0756  0.0656
 1215SOL    HW1 4858   1.777   4.034   5.191 -0.1575  2.3468 -0.9768
 1215SOL    HW2 4859   1.648   4.001   5.264  0.8005 -0.5613 -0.4670
 1215SOL     MW 4860   1.722   4.046   5.258  0.3226  0.2956 -0.1464
 1216SOL     OW 4861   0.267   2.156   1.395  0.0116 -0.1201  0.4199
 1216SOL    HW1 4862   0.188   2.102   1.391 -0.5595  0.5757  1.7350
 1216SOL    HW2 4863   0.237   2.243   1.372  0.4814  0.0562  0.4764
 1216SOL     MW 4864   0.252   2.160   1.392 -0.0020 -0.0028  0.6045
 1217SOL     OW 4865   1.178   1.552   3.324  0.1304  0.4134 -0.5410
 1217SOL    HW1 4866   1.083   1.544   3.323  0.0059  1.6604 -0.8123
 1217SOL    HW2 4867   1.196   1.614   3.395  1.0128 -2.3219  1.7824
 1217SOL     MW 4868   1.167   1.559   3.334  0.2324  0.2131 -0.2648
 1218SOL     OW 4869   1.089   2.847   2.933 -0.7908 -0.0977 -0.2358
 1218SOL    HW1 4870   1.047   2.930   2.957 -2.3379 -0.8699 -0.1365
 1218SOL    HW2 4871   1.157   2.834   3.000 -1.5532  0.3427  0.6477
 1218SOL     MW 4872   1.093   2.857   2.945 -1.1016 -0.1424 -0.1035
 1219SOL     OW 4873   5.005   2.317   2.664  0.4277 -0.7166  0.3965
 1219SOL    HW1 4874   5.067   2.288   2.597  0.7786  0.1692  0.3137
 1219SOL    HW2 4875   5.009   2.413   2.660  0.2414 -0.6484  1.4864
 1219SOL     MW 4876   5.014   2.326   2.655  0.4499 -0.5882  0.5320
 1220SOL     OW 4877   3.135   3.835   5.355 -0.0349  0.2578  0.2287
 1220SOL    HW1 4878   3.186   3.796   5.284 -0.4587 -1.3485  0.7710
 1220SOL    HW2 4879   3.101   3.917   5.318  2.1556  0.9255 -0.4340
 1220SOL     MW 4880   3.137   3.841   5.340  0.2029  0.1315  0.2125
 1221SOL     OW 4881   2.502   4.205   0.279 -0.5094 -0.8295  0.2270
 1221SOL    HW1 4882   2.417   4.228   0.243 -0.6396 -0.9747  0.4417
 1221SOL    HW2 4883   2.483   4.143   0.349 -0.3185  0.0771  1.1082
 1221SOL     MW 4884   2.488   4.200   0.284 -0.5013 -0.7270  0.3745
 1222SOL     OW 4885   0.474   1.060   4.887  0.2083 -0.4642  0.6908
 1222SOL    HW1 4886   0.521   1.013   4.956 -0.0145  0.7349  1.7062
 1222SOL    HW2 4887   0.464   0.996   4.817 -1.5549 -2.5009  2.6214
 1222SOL     MW 4888   0.479   1.045   4.887 -0.0590 -0.5769  1.0873
 1223SOL     OW 4889   1.552   3.514   1.389 -0.0812 -0.1195 -0.2215
 1223SOL    HW1 4890   1.485   3.471   1.442  0.3666  0.8877  1.2174
 1223SOL    HW2 4891   1.507   3.587   1.347 -0.1385 -0.1442 -0.2028
 1223SOL     MW 4892   1.537   3.518   1.390 -0.0287  0.0127 -0.0253
 1224SOL     OW 4893   4.417   2.612   5.451  0.2853 -0.1972  0.0153
 1224SOL    HW1 4894   4.383   2.546   5.512  0.7133 -0.0283  0.4443
 1224SOL    HW2 4895   4.366   2.599   5.371  1.1139 -1.8082 -0.3075
 1224SOL     MW 4896   4.405   2.601   5.448  0.4544 -0.3913  0.0296
 1225SOL     OW 4897   3.178   0.083   4.904 -0.4597  0.3538 -0.2423
 1225SOL    HW1 4898   3.141   0.098   4.991 -0.3544  0.6061 -0.2400
 1225SOL    HW2 4899   3.265   0.047   4.921  0.2379  1.9703 -0.2146
 1225SOL     MW 4900   3.185   0.080   4.918 -0.3516  0.6053 -0.2382
 1226SOL     OW 4901   4.953   0.179   1.523 -0.0543 -0.4090 -0.5426
 1226SOL    HW1 4902   4.873   0.128   1.510 -0.7467  0.5168 -0.0589
 1226SOL    HW2 4903   4.957   0.236   1.447  0.9858 -1.4933 -1.3330
 1226SOL     MW 4904   4.943   0.180   1.511 -0.0075 -0.4303 -0.5839
 1227SOL     OW 4905   2.430   0.505   2.361 -0.0677 -0.0579 -0.0680
 1227SOL    HW1 4906   2.371   0.491   2.434 -0.3346 -0.6779 -0.3942
 1227SOL    HW2 4907   2.503   0.555   2.398 -1.0580  1.2672  0.2085
 1227SOL     MW 4908   2.432   0.510   2.376 -0.2369  0.0370 -0.0747
 1228SOL     OW 4909   5.216   1.730   4.618  0.5988  0.3387 -0.0142
 1228SOL    HW1 4910   5.196   1.648   4.664  0.3059  0.4057 -0.0204
 1228SOL    HW2 4911   5.153   1.733   4.546 -0.4239  1.3120  0.8831
 1228SOL     MW 4912   5.204   1.719   4.615  0.4218  0.4787  0.1058
 1229SOL     OW 4913   1.839   4.199   2.575  0.4926  0.1949 -0.1838
 1229SOL    HW1 4914   1.904   4.143   2.531  0.9970 -0.2372  1.0653
 1229SOL    HW2 4915   1.755   4.161   2.551  0.7769 -0.2919 -0.4333
 1229SOL     MW 4916   1.837   4.186   2.565  0.5987  0.0712 -0.0493
 1230SOL     OW 4917   3.118   3.132   2.976  0.1256 -0.0649  0.4163
 1230SOL    HW1 4918   3.067   3.172   2.905  0.9533  0.9930  0.3937
 1230SOL    HW2 4919   3.068   3.054   3.001 -0.7946  0.2119 -0.5112
 1230SOL     MW 4920   3.105   3.127   2.970  0.1131  0.1147  0.2885
 1231SOL     OW 4921   0.192   4.390   0.762  0.2432 -0.2149 -0.3486
 1231SOL    HW1 4922   0.196   4.435   0.677  0.1681 -0.5131 -0.5114
 1231SOL    HW2 4923   0.267   4.424   0.811  0.7673 -0.6537 -0.8386
 1231SOL     MW 4924   0.203   4.401   0.757  0.3036 -0.3141 -0.4364
 1232SOL     OW 4925   3.023   0.387   2.003  0.3649  0.3249 -0.3365
 1232SOL    HW1 4926   3.014   0.299   1.966  1.0978 -0.0926  0.4567
 1232SOL    HW2 4927   3.113   0.391   2.035 -0.3796  0.4715  1.8728
 1232SOL     MW 4928   3.034   0.376   2.002  0.3634  0.2885  0.0675
 1233SOL     OW 4929   4.185   0.297   2.295  0.3205 -0.1018  0.4091
 1233SOL    HW1 4930   4.187   0.349   2.215 -0.1868 -1.5347 -0.5626
 1233SOL    HW2 4931   4.276   0.270   2.308  0.3336 -0.2129  0.0871
 1233SOL     MW 4932   4.197   0.300   2.286  0.2540 -0.3096  0.2350
 1234SOL     OW 4933   5.489   1.558   2.144 -0.0878 -0.4504  0.1453
 1234SOL    HW1 4934   5.416   1.542   2.085 -1.4437  3.1229  0.5819
 1234SOL    HW2 4935   5.567   1.542   2.091 -1.2423  0.2082 -1.8620
 1234SOL     MW 4936   5.490   1.554   2.129 -0.4256  0.1192 -0.0660
 1235SOL     OW 4937   1.338   0.883   3.406 -0.7523 -0.0214 -0.5938
 1235SOL    HW1 4938   1.291   0.897   3.324 -0.5425 -0.4102 -0.7861
 1235SOL    HW2 4939   1.332   0.966   3.452 -0.2223  0.4393 -1.3319
 1235SOL     MW 4940   1.330   0.896   3.401 -0.6527 -0.0117 -0.7190
 1236SOL     OW 4941   5.320   4.812   5.505 -0.3063 -1.0032  0.2137
 1236SOL    HW1 4942   5.322   4.854   5.419  1.5421 -0.0669  0.6519
 1236SOL    HW2 4943   5.365   4.729   5.492  1.1476 -0.2920  0.5055
 1236SOL     MW 4944   5.326   4.806   5.491  0.1381 -0.7815  0.3119
 1237SOL     OW 4945   0.971   1.961   2.291 -0.5834  0.4766  0.0376
 1237SOL    HW1 4946   0.995   2.053   2.275 -1.8617  0.7803 -0.2275
 1237SOL    HW2 4947   0.878   1.964   2.310 -0.5832 -0.7540  0.2764
 1237SOL     MW 4948   0.962   1.974   2.291 -0.7554  0.3519  0.0341
 1238SOL     OW 4949   2.464   5.014   0.132  0.3689 -0.1179  0.1697
 1238SOL    HW1 4950   2.463   4.918   0.123 -0.4234 -0.3943  2.3863
 1238SOL    HW2 4951   2.553   5.035   0.159  1.1891  0.0887 -2.4921
 1238SOL     MW 4952   2.476   5.004   0.135  0.3726 -0.1273  0.1098
 1239SOL     OW 4953   5.124   3.918   3.300 -0.0031  0.1128  0.2775
 1239SOL    HW1 4954   5.063   3.858   3.343 -0.1857  0.4938  0.5614
 1239SOL    HW2 4955   5.200   3.864   3.278 -0.5172 -0.4092 -0.2468
 1239SOL     MW 4956   5.126   3.903   3.303 -0.0969  0.0938  0.2452
 1240SOL     OW 4957   5.153   1.235   3.197 -0.5259  0.1087 -0.2198
 1240SOL    HW1 4958   5.210   1.228   3.121 -0.1983 -0.4184  0.0665
 1240SOL    HW2 4959   5.162   1.326   3.225 -0.8055  0.3583 -0.9253
 1240SOL     MW 4960   5.162   1.247   3.191 -0.5194  0.0714 -0.2762
 1241SOL     OW 4961   1.118   4.616   2.379 -0.0754 -0.3952  0.0162
 1241SOL    HW1 4962   1.083   4.698   2.413  1.6050  0.4292 -0.1498
 1241SOL    HW2 4963   1.062   4.595   2.304 -0.2492  0.8430 -0.2187
 1241SOL     MW 4964   1.105   4.624   2.373  0.1274 -0.1176 -0.0377
 1242SOL     OW 4965   4.889   2.809   4.199  0.0881 -0.4120 -0.9067
 1242SOL    HW1 4966   4.862   2.899   4.179 -0.7313 -0.6821 -1.0148
 1242SOL    HW2 4967   4.822   2.754   4.160  0.4589 -1.0669 -0.6286
 1242SOL     MW 4968   4.876   2.814   4.191  0.0278 -0.5365 -0.8838
 1243SOL     OW 4969   1.376   5.487   0.711  0.2478  0.2393  0.1032
 1243SOL    HW1 4970   1.319   5.419   0.747 -1.6347  1.5046 -0.3143
 1243SOL    HW2 4971   1.340   5.505   0.624 -1.5684  4.0616  1.4294
 1243SOL     MW 4972   1.364   5.480   0.704 -0.2500  0.9240  0.2255
 1244SOL     OW 4973   0.517   2.717   1.168 -0.3622  0.0630 -0.3538
 1244SOL    HW1 4974   0.533   2.695   1.260 -3.0016 -1.8563 -0.2337
 1244SOL    HW2 4975   0.504   2.633   1.126 -1.1594  1.0079 -2.0791
 1244SOL     MW 4976   0.517   2.703   1.175 -0.8247 -0.0682 -0.5698
 1245SOL     OW 4977   1.048   1.637   2.353  0.0398 -0.4426  0.1145
 1245SOL    HW1 4978   1.036   1.592   2.269 -0.2108  0.6929 -0.4650
 1245SOL    HW2 4979   1.081   1.724   2.330  2.3093 -0.8970  1.2923
 1245SOL     MW 4980   1.051   1.642   2.339  0.3115 -0.3509  0.1951
 1246SOL     OW 4981   3.500   4.208   5.020 -0.2019 -0.0810  0.0711
 1246SOL    HW1 4982   3.579   4.161   5.044 -0.4329 -1.2376 -1.2787
 1246SOL    HW2 4983   3.429   4.147   5.040 -0.5287 -0.2197 -1.3936
 1246SOL     MW 4984   3.501   4.193   5.026 -0.2769 -0.2553 -0.3077
 1247SOL     OW 4985   2.719   4.843   1.625 -0.5059 -0.2612 -0.0692
 1247SOL    HW1 4986   2.648   4.779   1.628 -2.4011  1.7048  0.4587
 1247SOL    HW2 4987   2.714   4.880   1.536 -0.7991  0.5289  0.2640
 1247SOL     MW 4988   2.709   4.840   1.613 -0.8004  0.1097  0.0467
 1248SOL     OW 4989   1.991   2.824   2.436  0.2433  0.4162 -0.7186
 1248SOL    HW1 4990   2.008   2.895   2.374  0.0376  1.3613  0.2762
 1248SOL    HW2 4991   2.074   2.813   2.482  0.2887 -0.0412 -0.9008
 1248SOL     MW 4992   2.005   2.832   2.434  0.2217  0.4819 -0.6092
 1249SOL     OW 4993   3.673   1.970   2.849 -0.0080 -0.0004  0.0463
 1249SOL    HW1 4994   3.585   2.010   2.847 -0.1718 -0.3763 -0.6094
 1249SOL    HW2 4995   3.666   1.899   2.913  0.4726  1.4101  1.7398
 1249SOL     MW 4996   3.660   1.966   2.857  0.0347  0.1389  0.1860
 1250SOL     OW 4997   3.902   5.319   3.786 -0.1375 -0.1170  0.2261
 1250SOL    HW1 4998   3.931   5.406   3.758  1.4328 -0.7577 -0.2248
 1250SOL    HW2 4999   3.873   5.277   3.705  1.1641 -0.7547  0.0640
 1250SOL     MW 5000   3.902   5.325   3.771  0.2490 -0.2891  0.1436
 1251SOL     OW 5001   0.421   3.266   5.076  0.0047 -0.0937 -0.3456
 1251SOL    HW1 5002   0.465   3.300   5.154 -0.1482 -0.9768  0.1325
 1251SOL    HW2 5003   0.488   3.216   5.030  0.6561  1.9666 -1.8279
 1251SOL     MW 5004   0.436   3.264   5.080  0.0718  0.0647 -0.4808
 1252SOL     OW 5005   4.579   0.649   4.729  0.9699 -0.0098 -0.0689
 1252SOL    HW1 5006   4.550   0.665   4.639 -0.9395  1.7040  0.7645
 1252SOL    HW2 5007   4.521   0.580   4.761 -0.3575  1.3995  0.6954
 1252SOL     MW 5008   4.567   0.642   4.721  0.5343  0.4105  0.1461
 1253SOL     OW 5009   3.936   2.433   0.381 -0.6668 -0.1090 -0.4015
 1253SOL    HW1 5010   3.864   2.494   0.390  0.7072  1.4010  1.1625
 1253SOL    HW2 5011   3.918   2.364   0.445 -0.3535  0.6717  0.5393
 1253SOL     MW 5012   3.924   2.432   0.391 -0.4397  0.1993 -0.0644
 1254SOL     OW 5013   5.329   0.156   0.135 -0.6264 -0.2633  0.0531
 1254SOL    HW1 5014   5.261   0.184   0.074 -0.8463 -1.7528 -0.4224
 1254SOL    HW2 5015   5.291   0.080   0.180  0.7764 -1.2479 -0.3594
 1254SOL     MW 5016   5.314   0.149   0.133 -0.4672 -0.5962 -0.0664
 1255SOL     OW 5017   0.280   3.476   5.511  0.1106  0.0611 -0.2431
 1255SOL    HW1 5018   0.212   3.507   5.452  0.0176 -0.5905 -0.4838
 1255SOL    HW2 5019   0.233   3.442   5.587  0.1056 -1.1765 -0.7760
 1255SOL     MW 5020   0.265   3.476   5.513  0.0974 -0.1932 -0.3472
 1256SOL     OW 5021   4.065   2.940   1.206  0.7072  0.2518 -0.0488
 1256SOL    HW1 5022   4.041   2.858   1.163 -0.0249 -0.9040  2.3985
 1256SOL    HW2 5023   4.112   2.990   1.139 -1.2085 -0.9764 -2.4480
 1256SOL     MW 5024   4.068   2.936   1.191  0.3509 -0.0691 -0.0424
 1257SOL     OW 5025   1.441   4.717   1.198  0.0984 -0.3357 -0.7064
 1257SOL    HW1 5026   1.525   4.734   1.242 -0.0244  0.0762 -0.6340
 1257SOL    HW2 5027   1.417   4.800   1.158 -0.1992 -0.4976 -0.8670
 1257SOL     MW 5028   1.449   4.730   1.199  0.0419 -0.3020 -0.7183
 1258SOL     OW 5029   4.026   1.628   1.508  0.1291 -0.3583  0.2788
 1258SOL    HW1 5030   4.023   1.717   1.544  0.6666  0.0862 -0.7199
 1258SOL    HW2 5031   3.971   1.576   1.566 -3.6657  1.4505 -1.3511
 1258SOL     MW 5032   4.018   1.633   1.521 -0.3092 -0.0551 -0.0749
 1259SOL     OW 5033   4.503   5.487   0.781 -0.4101  0.5165 -0.5556
 1259SOL    HW1 5034   4.514   5.514   0.690  1.9167  0.9214 -0.2203
 1259SOL    HW2 5035   4.423   5.531   0.810 -0.9392  0.7380 -2.2517
 1259SOL     MW 5036   4.494   5.496   0.772 -0.1682  0.6008 -0.7387
 1260SOL     OW 5037   0.941   3.480   3.884  0.0121  0.0525 -0.7647
 1260SOL    HW1 5038   0.897   3.430   3.815  0.0790 -1.7782  0.4381
 1260SOL    HW2 5039   0.871   3.508   3.942  0.1832 -0.7553 -0.1520
 1260SOL     MW 5040   0.926   3.477   3.882  0.0441 -0.3026 -0.5204
 1261SOL     OW 5041   3.139   4.475   0.538  0.1603 -0.0391 -0.3588
 1261SOL    HW1 5042   3.196   4.450   0.610 -0.3075 -2.1845 -0.6509
 1261SOL    HW2 5043   3.067   4.523   0.580  1.5255  1.6320  0.1466
 1261SOL     MW 5044   3.137   4.478   0.553  0.2811 -0.1030 -0.3301
 1262SOL     OW 5045   2.093   3.934   2.589  0.2732 -0.0402  0.0333
 1262SOL    HW1 5046   2.144   3.854   2.581  1.1259  0.5904 -1.1276
 1262SOL    HW2 5047   2.015   3.908   2.637  0.8568 -1.4086  0.2885
 1262SOL     MW 5048   2.090   3.920   2.595  0.4665 -0.1395 -0.0886
 1263SOL     OW 5049   3.250   3.923   4.213  0.1087 -0.4430  0.3906
 1263SOL    HW1 5050   3.341   3.901   4.194  0.2260  0.1963  0.2083
 1263SOL    HW2 5051   3.199   3.866   4.154  0.3681 -1.0860  0.7725
 1263SOL     MW 5052   3.255   3.912   4.202  0.1594 -0.4435  0.4175
 1264SOL     OW 5053   4.229   4.933   1.989 -0.1961  0.1515 -0.0003
 1264SOL    HW1 5054   4.283   5.004   1.954 -0.4810  0.6713  0.5944
 1264SOL    HW2 5055   4.203   4.882   1.912  2.1008 -0.8081 -0.2008
 1264SOL     MW 5056   4.233   4.936   1.974  0.0747  0.0923  0.0528
 1265SOL     OW 5057   2.940   0.516   5.295  0.1758  0.5652 -0.2831
 1265SOL    HW1 5058   2.856   0.562   5.299 -0.2861 -0.1946 -0.9434
 1265SOL    HW2 5059   2.935   0.450   5.364  0.3110  0.6302 -0.2087
 1265SOL     MW 5060   2.928   0.514   5.305  0.1318  0.4717 -0.3620
 1266SOL     OW 5061   3.377   4.645   3.588  0.0242 -0.2301  0.0211
 1266SOL    HW1 5062   3.416   4.715   3.535 -0.2633 -0.7402 -0.8842
 1266SOL    HW2 5063   3.314   4.603   3.530 -1.0352 -0.1756  1.0964
 1266SOL     MW 5064   3.374   4.649   3.573 -0.1571 -0.2914  0.0440
 1267SOL     OW 5065   2.348   1.249   4.643 -0.2919  0.1707 -0.6746
 1267SOL    HW1 5066   2.427   1.221   4.689 -0.5700  0.4837  0.0094
 1267SOL    HW2 5067   2.290   1.173   4.646  0.6132 -0.6644 -2.6983
 1267SOL     MW 5068   2.351   1.235   4.649 -0.2075  0.1004 -0.8549
 1268SOL     OW 5069   5.453   5.086   2.910 -0.0172 -0.0060  0.0279
 1268SOL    HW1 5070   5.507   5.154   2.948 -0.8209  0.7017 -0.0648
 1268SOL    HW2 5071   5.463   5.011   2.969 -0.0307  0.5722  0.7780
 1268SOL     MW 5072   5.461   5.085   2.923 -0.1272  0.1671  0.1164
 1269SOL     OW 5073   2.020   1.283   3.661  0.4385  0.3459  0.9547
 1269SOL    HW1 5074   2.009   1.201   3.612 -0.7159  1.2988 -0.4959
 1269SOL    HW2 5075   2.021   1.351   3.593 -0.6928  1.6997  2.2185
 1269SOL     MW 5076   2.019   1.281   3.645  0.1309  0.6564  0.9296
 1270SOL     OW 5077   5.155   3.537   5.320  0.2610  0.8928 -0.1681
 1270SOL    HW1 5078   5.197   3.504   5.240 -0.0549  0.2776 -0.0906
 1270SOL    HW2 5079   5.226   3.580   5.367  0.6384  0.5499 -0.4060
 1270SOL     MW 5080   5.170   3.538   5.315  0.2693  0.7638 -0.1897
 1271SOL     OW 5081   0.610   2.522   4.242  0.1754 -0.0122  0.1511
 1271SOL    HW1 5082   0.573   2.460   4.305 -0.7033  0.8459  0.4978
 1271SOL    HW2 5083   0.591   2.608   4.278  1.1370  0.4793 -0.4641
 1271SOL     MW 5084   0.602   2.525   4.255  0.1866  0.1695  0.1150
 1272SOL     OW 5085   2.092   0.249   3.481 -0.0192  0.0250  0.0814
 1272SOL    HW1 5086   2.128   0.253   3.570 -1.7463  1.6284  0.7616
 1272SOL    HW2 5087   2.152   0.304   3.429  0.9624 -0.8695  0.2283
 1272SOL     MW 5088   2.105   0.257   3.486 -0.1195  0.1204  0.1927
 1273SOL     OW 5089   1.722   1.866   4.941  0.6652 -0.2194 -0.1554
 1273SOL    HW1 5090   1.660   1.833   5.005  0.3856  0.6741  0.0430
 1273SOL    HW2 5091   1.670   1.919   4.881  1.0253 -0.5344 -0.7653
 1273SOL     MW 5092   1.707   1.869   4.941  0.6760 -0.1415 -0.2108
 1274SOL     OW 5093   0.542   4.292   5.038 -0.3553  0.1808 -0.0830
 1274SOL    HW1 5094   0.577   4.371   4.996 -0.5330 -0.1850 -0.9197
 1274SOL    HW2 5095   0.447   4.302   5.031 -0.3939 -1.0664 -2.0490
 1274SOL     MW 5096   0.534   4.304   5.032 -0.3844 -0.0362 -0.4602
 1275SOL     OW 5097   2.980   0.048   3.278  0.2252 -0.4359  0.2116
 1275SOL    HW1 5098   2.972   0.035   3.183  0.1645  0.6553  0.0594
 1275SOL    HW2 5099   3.058   0.101   3.288 -0.8197  1.0663  0.6207
 1275SOL     MW 5100   2.989   0.053   3.266  0.0764 -0.0869  0.2462
 1276SOL     OW 5101   2.965   4.904   1.853 -0.3231  0.2226  0.3674
 1276SOL    HW1 5102   2.977   4.973   1.788 -0.2644  0.2860  0.4453
 1276SOL    HW2 5103   2.960   4.823   1.801 -1.4073  0.3821  0.2002
 1276SOL     MW 5104   2.966   4.902   1.837 -0.4611  0.2526  0.3554
 1277SOL     OW 5105   1.501   2.340   2.501  0.2823  0.3525 -0.1529
 1277SOL    HW1 5106   1.406   2.347   2.515  0.3907  0.8789  0.3545
 1277SOL    HW2 5107   1.509   2.286   2.422 -0.5172  1.8556 -1.3235
 1277SOL     MW 5108   1.489   2.334   2.492  0.1893  0.6256 -0.2422
 1278SOL     OW 5109   0.576   0.267   1.828 -0.2651  0.6214 -0.2396
 1278SOL    HW1 5110   0.561   0.349   1.875 -1.0147 -0.4759  1.4951
 1278SOL    HW2 5111   0.553   0.198   1.890  1.3168 -0.9544 -1.3054
 1278SOL     MW 5112   0.571   0.269   1.842 -0.1531  0.2616 -0.1496
 1279SOL     OW 5113   2.276   2.484   2.269 -0.4468 -0.5164  0.2018
 1279SOL    HW1 5114   2.187   2.454   2.249 -0.6065  0.4990 -0.7378
 1279SOL    HW2 5115   2.271   2.517   2.359 -0.9427 -0.7385  0.2601
 1279SOL     MW 5116   2.263   2.484   2.278 -0.5350 -0.4097  0.0832
 1280SOL     OW 5117   3.944   0.464   1.056  0.0955  0.2895 -0.3429
 1280SOL    HW1 5118   3.937   0.400   0.985 -2.1859  0.4508 -0.3389
 1280SOL    HW2 5119   3.897   0.541   1.024  0.2370  0.8760  0.7970
 1280SOL     MW 5120   3.937   0.466   1.042 -0.1925  0.3902 -0.1890
 1281SOL     OW 5121   0.550   2.038   1.977  0.0046 -0.0732  0.7726
 1281SOL    HW1 5122   0.542   2.092   1.899  0.7795 -1.3151 -0.2116
 1281SOL    HW2 5123   0.605   2.089   2.036  0.2540  0.4590  0.0959
 1281SOL     MW 5124   0.556   2.052   1.975  0.1424 -0.1687  0.5491
 1282SOL     OW 5125   0.290   3.403   2.046  0.3108 -0.5622  0.2565
 1282SOL    HW1 5126   0.349   3.440   2.112  0.6372  0.3533 -0.5337
 1282SOL    HW2 5127   0.298   3.308   2.058  1.7921 -0.4548  0.3046
 1282SOL     MW 5128   0.299   3.395   2.057  0.5541 -0.4246  0.1567
 1283SOL     OW 5129   0.764   1.672   1.203  0.3771 -0.3406  0.4971
 1283SOL    HW1 5130   0.755   1.760   1.240 -0.0433  0.0626 -0.5139
 1283SOL    HW2 5131   0.825   1.683   1.129 -1.5103 -0.3863 -1.1464
 1283SOL     MW 5132   0.771   1.685   1.198  0.0665 -0.2925  0.1398
 1284SOL     OW 5133   0.083   3.940   4.169 -0.7723  0.6284  0.1956
 1284SOL    HW1 5134   0.047   4.028   4.165 -0.5444  0.6902 -1.2820
 1284SOL    HW2 5135   0.066   3.903   4.082  0.8817 -0.0705  0.1206
 1284SOL     MW 5136   0.076   3.947   4.157 -0.5190  0.5427 -0.0134
 1285SOL     OW 5137   2.968   0.284   2.971 -0.0048 -0.2231 -0.0892
 1285SOL    HW1 5138   3.062   0.300   2.977 -0.2715  1.7694 -0.3670
 1285SOL    HW2 5139   2.930   0.370   2.952 -2.1062 -0.5338  2.1411
 1285SOL     MW 5140   2.975   0.298   2.969 -0.3235  0.0033  0.1736
 1286SOL     OW 5141   4.677   2.912   1.921  0.0250 -0.2552 -0.2310
 1286SOL    HW1 5142   4.591   2.882   1.894 -0.7637  0.8102  1.0131
 1286SOL    HW2 5143   4.720   2.940   1.840 -1.4737  0.9008 -0.6561
 1286SOL     MW 5144   4.671   2.911   1.907 -0.2828  0.0438 -0.1208
 1287SOL     OW 5145   1.389   5.138   3.514 -0.2454 -0.0145  0.0198
 1287SOL    HW1 5146   1.409   5.217   3.463  0.0831 -0.5159 -0.6422
 1287SOL    HW2 5147   1.372   5.070   3.448  1.2657 -0.9481  0.5300
 1287SOL     MW 5148   1.390   5.139   3.498  0.0022 -0.2076 -0.0006
 1288SOL     OW 5149   5.321   2.903   0.733  0.2779  0.4522  0.2565
 1288SOL    HW1 5150   5.392   2.839   0.734 -0.4885 -0.4527  2.2565
 1288SOL    HW2 5151   5.245   2.855   0.700  0.1722  0.9079 -0.1738
 1288SOL     MW 5152   5.320   2.888   0.729  0.1605  0.3917  0.4677
 1289SOL     OW 5153   3.145   5.037   5.235 -0.1076  0.7719 -0.0148
 1289SOL    HW1 5154   3.092   5.110   5.267 -1.1559 -0.2203  0.5728
 1289SOL    HW2 5155   3.161   5.058   5.143 -2.8085  0.4091 -0.6406
 1289SOL     MW 5156   3.140   5.049   5.227 -0.6122  0.5895 -0.0199
 1290SOL     OW 5157   5.386   2.064   0.314  0.0433 -0.5210  0.5017
 1290SOL    HW1 5158   5.319   2.035   0.252  0.1017  0.8213 -0.2170
 1290SOL    HW2 5159   5.420   2.145   0.277  1.0016 -0.3730  1.6381
 1290SOL     MW 5160   5.381   2.071   0.301  0.1801 -0.3204  0.5579
 1291SOL     OW 5161   3.434   3.251   2.250  0.2505 -0.4542  0.5473
 1291SOL    HW1 5162   3.507   3.193   2.271 -0.5860 -0.9710  2.1979
 1291SOL    HW2 5163   3.375   3.196   2.197  0.1504 -0.6483  0.8589
 1291SOL     MW 5164   3.436   3.236   2.245  0.1244 -0.5498  0.8114
 1292SOL     OW 5165   1.306   3.007   3.531  0.0774 -0.4336  0.2976
 1292SOL    HW1 5166   1.259   3.075   3.579  1.1299  0.5477 -0.0030
 1292SOL    HW2 5167   1.311   3.040   3.441  0.0527 -1.2155 -0.0003
 1292SOL     MW 5168   1.301   3.021   3.525  0.2158 -0.4068  0.2171
 1293SOL     OW 5169   1.500   1.574   4.057 -0.2279  0.2656  0.2840
 1293SOL    HW1 5170   1.566   1.519   4.016 -0.5012 -0.4986  0.8523
 1293SOL    HW2 5171   1.526   1.579   4.149  0.1962  1.6918  0.1072
 1293SOL     MW 5172   1.512   1.567   4.064 -0.2076  0.3547  0.3367
 1294SOL     OW 5173   4.620   3.951   4.373 -0.1614 -0.6345 -0.2076
 1294SOL    HW1 5174   4.677   3.985   4.304  0.8000 -1.6913  0.0430
 1294SOL    HW2 5175   4.540   4.003   4.365 -0.1629 -0.8672 -2.2583
 1294SOL     MW 5176   4.617   3.963   4.362 -0.0322 -0.8080 -0.4499
 1295SOL     OW 5177   1.714   0.110   0.249  0.6388 -0.1017  0.5643
 1295SOL    HW1 5178   1.668   0.161   0.317 -1.4212 -0.1658 -0.7002
 1295SOL    HW2 5179   1.742   0.176   0.185 -2.3121 -0.4177 -1.2376
 1295SOL     MW 5180   1.711   0.126   0.250 -0.0356 -0.1529  0.1516
 1296SOL     OW 5181   4.544   3.940   1.832  0.1511 -0.3466  0.6850
 1296SOL    HW1 5182   4.466   3.984   1.799 -0.2988 -0.1235  1.9929
 1296SOL    HW2 5183   4.523   3.847   1.830  0.3889 -0.3827 -0.2933
 1296SOL     MW 5184   4.531   3.933   1.828  0.1225 -0.3214  0.7293
 1297SOL     OW 5185   3.212   0.028   2.961  0.1214 -0.2554 -0.2085
 1297SOL    HW1 5186   3.117   0.023   2.974  0.1885 -2.1581 -0.2396
 1297SOL    HW2 5187   3.233  -0.044   2.902  1.5438  0.3963 -0.5471
 1297SOL     MW 5188   3.202   0.018   2.955  0.3219 -0.4237 -0.2582
 1298SOL     OW 5189   1.759   3.413   1.180 -0.5205  0.1544  0.0116
 1298SOL    HW1 5190   1.709   3.358   1.120 -0.9142 -0.3780  0.7947
 1298SOL    HW2 5191   1.694   3.445   1.243  0.3243 -2.2216  2.2972
 1298SOL     MW 5192   1.743   3.410   1.181 -0.4598 -0.2370  0.4246
 1299SOL     OW 5193   3.857   4.087   4.792 -0.2852  0.5115  0.5061
 1299SOL    HW1 5194   3.905   4.064   4.713  1.3800 -1.2975  1.9333
 1299SOL    HW2 5195   3.909   4.049   4.863 -2.0034  1.5694  2.4314
 1299SOL     MW 5196   3.870   4.079   4.791 -0.2923  0.4104  0.9573
 1300SOL     OW 5197   4.093   5.190   4.327  0.3433  0.5988 -0.2618
 1300SOL    HW1 5198   4.172   5.158   4.284  1.1739  0.4997  1.2725
 1300SOL    HW2 5199   4.087   5.282   4.300  1.1405  0.6841 -0.1841
 1300SOL     MW 5200   4.103   5.198   4.317  0.5624  0.5970 -0.0449
 1301SOL     OW 5201   4.706   0.766   5.482  1.2524 -0.1354  0.1522
 1301SOL    HW1 5202   4.681   0.858   5.494  2.2250  0.2682 -0.7648
 1301SOL    HW2 5203   4.750   0.742   5.563 -0.7193 -0.4159  1.1992
 1301SOL     MW 5204   4.708   0.775   5.495  1.1179 -0.1188  0.1697
 1302SOL     OW 5205   1.728   2.130   1.384 -0.1487  0.2538  0.2124
 1302SOL    HW1 5206   1.659   2.123   1.318  1.4367 -1.6555 -1.4304
 1302SOL    HW2 5207   1.721   2.049   1.435  1.2758 -0.3882 -0.5194
 1302SOL     MW 5208   1.718   2.118   1.382  0.2564 -0.0895 -0.1072
 1303SOL     OW 5209   2.686   0.600   2.086  0.0477 -0.1027  0.4541
 1303SOL    HW1 5210   2.731   0.530   2.133 -0.1351 -0.8418 -0.4315
 1303SOL    HW2 5211   2.719   0.681   2.124  3.5900 -0.5187 -1.3566
 1303SOL     MW 5212   2.696   0.601   2.097  0.4998 -0.2582  0.0912
 1304SOL     OW 5213   1.439   4.089   0.093 -0.1026  0.1312 -0.2281
 1304SOL    HW1 5214   1.420   4.056   0.006  0.4860 -1.8916  0.3603
 1304SOL    HW2 5215   1.476   4.176   0.078 -0.5383  0.0544 -1.9364
 1304SOL     MW 5216   1.441   4.097   0.079 -0.0820 -0.1514 -0.3788
 1305SOL     OW 5217   0.000   1.563   4.311 -0.8524  0.1449  0.3725
 1305SOL    HW1 5218   0.068   1.523   4.257 -0.7971  0.3560  0.2889
 1305SOL    HW2 5219  -0.010   1.651   4.277  0.3965  0.8757  1.7873
 1305SOL     MW 5220   0.008   1.569   4.299 -0.6769  0.2717  0.5516
 1306SOL     OW 5221   0.780   1.996   0.560 -0.2826 -0.0336  0.1343
 1306SOL    HW1 5222   0.774   1.907   0.596 -1.9800 -0.3746 -0.8537
 1306SOL    HW2 5223   0.736   2.051   0.624 -0.2790 -0.0933  0.1884
 1306SOL     MW 5224   0.773   1.991   0.574 -0.5106 -0.0875  0.0086
 1307SOL     OW 5225   3.367   1.097   5.289 -0.1143  0.5026 -0.2783
 1307SOL    HW1 5226   3.378   1.189   5.314  1.0602 -0.1514  1.9738
 1307SOL    HW2 5227   3.366   1.050   5.373  1.3477 -1.7066 -1.3955
 1307SOL     MW 5228   3.368   1.103   5.304  0.2405  0.1173 -0.1255
 1308SOL     OW 5229   2.025   3.519   2.887  0.1228  0.0918  0.1095
 1308SOL    HW1 5230   1.939   3.538   2.849 -0.1752 -2.6147 -0.7483
 1308SOL    HW2 5231   2.057   3.604   2.916 -1.3065  1.7653 -2.7492
 1308SOL     MW 5232   2.018   3.533   2.886 -0.1097 -0.0472 -0.3907
 1309SOL     OW 5233   4.499   0.809   5.120  0.6901  0.0119 -0.3482
 1309SOL    HW1 5234   4.468   0.861   5.194  0.5500  1.1109 -1.1672
 1309SOL    HW2 5235   4.570   0.756   5.157  0.0724 -0.0824  0.7582
 1309SOL     MW 5236   4.505   0.809   5.135  0.5881  0.1472 -0.3095
 1310SOL     OW 5237   2.148   3.806   3.768 -0.0682  0.6691 -0.3366
 1310SOL    HW1 5238   2.176   3.864   3.697  1.4120  0.6214  0.1784
 1310SOL    HW2 5239   2.063   3.841   3.795 -0.1617  1.3271 -1.4264
 1310SOL     MW 5240   2.140   3.819   3.762  0.1184  0.7512 -0.4140
 1311SOL     OW 5241   4.099   1.415   2.204 -0.2182 -0.1434 -0.3334
 1311SOL    HW1 5242   4.076   1.334   2.249 -1.8891  0.6364  0.3167
 1311SOL    HW2 5243   4.190   1.432   2.229 -0.0324 -1.5032 -0.0345
 1311SOL     MW 5244   4.108   1.407   2.213 -0.4181 -0.2215 -0.2057
 1312SOL     OW 5245   0.827   4.805   1.773 -0.0999  0.1165 -0.2207
 1312SOL    HW1 5246   0.917   4.816   1.743 -0.3850  2.4748 -0.4158
 1312SOL    HW2 5247   0.829   4.830   1.865 -0.7220  1.2631 -0.5019
 1312SOL     MW 5248   0.840   4.810   1.782 -0.2220  0.5882 -0.2848
 1313SOL     OW 5249   2.107   3.521   2.146  0.1085 -0.4242  0.3787
 1313SOL    HW1 5250   2.054   3.471   2.208 -1.1738 -1.1780 -1.2484
 1313SOL    HW2 5251   2.173   3.459   2.115  1.2765  0.1818  1.5233
 1313SOL     MW 5252   2.109   3.506   2.150  0.0931 -0.4441  0.3137
 1314SOL     OW 5253   4.810   4.959   2.580  0.4855  0.1966 -0.4770
 1314SOL    HW1 5254   4.885   4.969   2.637 -0.6125  1.7738  0.7810
 1314SOL    HW2 5255   4.826   4.877   2.533  3.7114  1.2260 -1.4471
 1314SOL     MW 5256   4.822   4.949   2.581  0.7718  0.5474 -0.4382
 1315SOL     OW 5257   0.167   3.228   1.424  0.2535  0.3556 -0.3554
 1315SOL    HW1 5258   0.260   3.236   1.402  0.2533  1.0893 -0.1190
 1315SOL    HW2 5259   0.167   3.195   1.513  0.2857  0.1199 -0.4429
 1315SOL     MW 5260   0.179   3.225   1.433  0.2578  0.4227 -0.3354
 1316SOL     OW 5261   0.057   1.693   5.216 -0.3604  0.3298 -0.1165
 1316SOL    HW1 5262   0.065   1.773   5.268 -0.4300  0.3024 -0.0648
 1316SOL    HW2 5263  -0.035   1.669   5.222 -0.5827  0.8950 -1.0960
 1316SOL     MW 5264   0.046   1.700   5.224 -0.3997  0.4022 -0.2414
 1317SOL     OW 5265   4.609   4.919   3.561  0.1824  0.3720 -0.3990
 1317SOL    HW1 5266   4.516   4.896   3.550  0.7233 -2.0125 -0.4711
 1317SOL    HW2 5267   4.630   4.969   3.482 -0.8071  0.0253 -0.9030
 1317SOL     MW 5268   4.599   4.922   3.549  0.1220  0.0044 -0.4766
 1318SOL     OW 5269   3.260   0.738   2.855  0.0697 -0.1593  0.0857
 1318SOL    HW1 5270   3.317   0.756   2.930  0.4360 -2.3314  0.3960
 1318SOL    HW2 5271   3.171   0.743   2.891  0.2679 -2.0652  0.9315
 1318SOL     MW 5272   3.256   0.741   2.870  0.1457 -0.7081  0.2413
 1319SOL     OW 5273   3.675   0.467   0.883 -0.1286 -0.1400  0.1176
 1319SOL    HW1 5274   3.594   0.496   0.841 -0.7268  0.2547  1.4706
 1319SOL    HW2 5275   3.650   0.392   0.936  0.4780 -0.2949  0.1956
 1319SOL     MW 5276   3.661   0.461   0.885 -0.1275 -0.1077  0.3102
 1320SOL     OW 5277   4.544   0.565   3.085  0.0705  0.0240  0.3134
 1320SOL    HW1 5278   4.497   0.520   3.155 -0.3779 -0.6962 -0.4274
 1320SOL    HW2 5279   4.475   0.611   3.037  0.4434  0.9609  0.6620
 1320SOL     MW 5280   4.528   0.565   3.088  0.0603  0.0532  0.2606
 1321SOL     OW 5281   4.176   0.306   1.775 -0.1835 -0.7309  0.3116
 1321SOL    HW1 5282   4.214   0.369   1.715 -0.0362 -0.8915  0.2344
 1321SOL    HW2 5283   4.084   0.330   1.780 -0.0743 -0.3437  0.4950
 1321SOL     MW 5284   4.169   0.317   1.768 -0.1490 -0.7004  0.3259
 1322SOL     OW 5285   3.399   4.067   2.563 -0.5172 -0.2796  0.2781
 1322SOL    HW1 5286   3.395   4.009   2.486  0.1133  1.5648 -1.2170
 1322SOL    HW2 5287   3.469   4.128   2.543  0.1516 -0.1722  2.6905
 1322SOL     MW 5288   3.408   4.067   2.550 -0.3423 -0.0169  0.4015
 1323SOL     OW 5289   0.880   1.459   0.410 -0.8660 -0.1620  0.3385
 1323SOL    HW1 5290   0.875   1.538   0.465 -0.6733  0.4004 -0.4449
 1323SOL    HW2 5291   0.893   1.492   0.321  0.7571 -1.1045  0.1786
 1323SOL     MW 5292   0.881   1.474   0.406 -0.6216 -0.2132  0.2115
 1324SOL     OW 5293   4.332   1.054   2.380  0.2830  0.1643  0.4767
 1324SOL    HW1 5294   4.327   0.997   2.457 -1.7466 -1.3353 -0.6574
 1324SOL    HW2 5295   4.312   1.142   2.413  0.7649 -0.2259  1.8479
 1324SOL     MW 5296   4.329   1.058   2.395  0.0747 -0.0900  0.5086
 1325SOL     OW 5297   1.146   1.189   4.251 -0.0427 -0.2512 -0.0031
 1325SOL    HW1 5298   1.222   1.231   4.293 -0.6975 -0.6043  1.6187
 1325SOL    HW2 5299   1.141   1.103   4.293 -1.2924 -0.2552 -0.1359
 1325SOL     MW 5300   1.156   1.183   4.262 -0.2990 -0.2993  0.1973
 1326SOL     OW 5301   2.414   3.263   1.189 -0.1493  0.2863 -0.2346
 1326SOL    HW1 5302   2.416   3.191   1.127  1.7890  0.3994 -0.3386
 1326SOL    HW2 5303   2.341   3.241   1.248  0.0676 -1.4758 -0.5735
 1326SOL     MW 5304   2.404   3.250   1.189  0.1407  0.0644 -0.2942
 1327SOL     OW 5305   1.732   1.980   2.277  0.1059 -0.0480  0.4038
 1327SOL    HW1 5306   1.821   2.003   2.250  0.0252 -0.2794 -0.0809
 1327SOL    HW2 5307   1.725   1.887   2.258 -0.5844  0.1869 -0.5662
 1327SOL     MW 5308   1.743   1.971   2.271  0.0021 -0.0475  0.2081
 1328SOL     OW 5309   3.806   1.370   0.052 -0.4828 -0.0640 -0.3965
 1328SOL    HW1 5310   3.746   1.404   0.118  0.4723  0.9146 -0.0075
 1328SOL    HW2 5311   3.757   1.373  -0.030 -1.1211  0.2447 -0.0090
 1328SOL     MW 5312   3.791   1.375   0.050 -0.4402  0.1092 -0.2920
 1329SOL     OW 5313   5.268   1.443   3.815  0.4099 -0.0058 -0.1402
 1329SOL    HW1 5314   5.186   1.486   3.790  0.4507  0.1078 -0.0820
 1329SOL    HW2 5315   5.307   1.416   3.732 -0.6750 -1.9312 -0.0679
 1329SOL     MW 5316   5.262   1.445   3.801  0.2694 -0.2496 -0.1226
 1330SOL     OW 5317   0.008   2.402   4.008  0.2362  0.1942 -0.1185
 1330SOL    HW1 5318   0.062   2.371   4.081  1.1870 -0.5341 -1.1007
 1330SOL    HW2 5319   0.006   2.497   4.019  2.5257  0.3561 -0.5467
 1330SOL     MW 5320   0.015   2.410   4.019  0.6723  0.1180 -0.3083
 1331SOL     OW 5321   0.758   3.775   5.442 -0.5003  0.1807 -0.3957
 1331SOL    HW1 5322   0.852   3.792   5.430 -0.3379 -1.6470 -2.3088
 1331SOL    HW2 5323   0.717   3.825   5.371 -0.6859 -1.0632 -1.2054
 1331SOL     MW 5324   0.765   3.784   5.431 -0.5034 -0.2327 -0.7621
 1332SOL     OW 5325   4.684   3.392   0.261  0.5083  0.1147 -0.2518
 1332SOL    HW1 5326   4.625   3.383   0.186 -1.4395 -0.5622  1.3022
 1332SOL    HW2 5327   4.747   3.459   0.233 -2.1948  2.4442 -1.2634
 1332SOL     MW 5328   4.685   3.400   0.247 -0.1177  0.3371 -0.1788
 1333SOL     OW 5329   2.720   4.366   2.149 -0.0173 -0.2016 -0.1848
 1333SOL    HW1 5330   2.656   4.307   2.109 -0.1658 -0.8485  0.9587
 1333SOL    HW2 5331   2.804   4.342   2.108 -0.3618  0.0733 -1.0745
 1333SOL     MW 5332   2.723   4.355   2.138 -0.0837 -0.2517 -0.1507
 1334SOL     OW 5333   0.617   3.564   1.782  0.0278 -0.6379  0.0094
 1334SOL    HW1 5334   0.671   3.494   1.747  0.1876 -1.4062  1.7135
 1334SOL    HW2 5335   0.678   3.624   1.826 -0.3148 -0.5770  0.4178
 1334SOL     MW 5336   0.632   3.563   1.783  0.0032 -0.7331  0.2937
 1335SOL     OW 5337   1.276   4.445   0.250 -0.5259 -0.2914 -0.2506
 1335SOL    HW1 5338   1.237   4.360   0.234  0.6297 -0.7638 -0.6875
 1335SOL    HW2 5339   1.282   4.452   0.345  0.0536 -1.0336 -0.2211
 1335SOL     MW 5340   1.272   4.435   0.260 -0.2924 -0.4548 -0.3054
 1336SOL     OW 5341   5.313   2.395   4.610 -0.2135  0.2738  0.2251
 1336SOL    HW1 5342   5.268   2.322   4.653 -1.7224  0.2597 -1.2857
 1336SOL    HW2 5343   5.275   2.398   4.522  2.0791  0.9093 -0.8077
 1336SOL     MW 5344   5.302   2.386   4.604 -0.1080  0.3574 -0.1172
 1337SOL     OW 5345   4.346   2.387   3.239 -0.1169 -0.0373  0.4488
 1337SOL    HW1 5346   4.388   2.450   3.297  1.5813  0.0674 -0.8013
 1337SOL    HW2 5347   4.419   2.339   3.200 -1.1165  0.4392 -2.1929
 1337SOL     MW 5348   4.362   2.389   3.242 -0.0229  0.0409 -0.0749
 1338SOL     OW 5349   4.555   0.828   4.091  0.3324 -0.1517  0.3053
 1338SOL    HW1 5350   4.634   0.775   4.084  0.5963  0.4385 -2.4090
 1338SOL    HW2 5351   4.557   0.863   4.180  2.7507 -0.6891  0.5309
 1338SOL     MW 5352   4.566   0.825   4.102  0.6934 -0.1446 -0.0297
 1339SOL     OW 5353   3.872   0.725   1.505 -0.1307 -0.4117  0.3270
 1339SOL    HW1 5354   3.812   0.722   1.430  0.8570  1.2219 -0.6016
 1339SOL    HW2 5355   3.818   0.702   1.580 -1.5629 -0.4387 -0.6664
 1339SOL     MW 5356   3.857   0.721   1.505 -0.1905 -0.1955  0.0683
 1340SOL     OW 5357   1.228   1.825   2.220 -0.4786  0.6428  0.1674
 1340SOL    HW1 5358   1.302   1.841   2.161 -0.7076  0.2632 -0.2329
 1340SOL    HW2 5359   1.165   1.893   2.200 -1.2636 -0.4282 -1.2184
 1340SOL     MW 5360   1.230   1.836   2.209 -0.6150  0.4475 -0.0730
 1341SOL     OW 5361   3.458   1.460   4.220 -0.1013 -0.2425 -0.0608
 1341SOL    HW1 5362   3.384   1.428   4.270  1.7897 -0.9359  2.5093
 1341SOL    HW2 5363   3.508   1.381   4.198 -0.2883  0.1611 -2.1346
 1341SOL     MW 5364   3.455   1.445   4.224  0.1281 -0.2815  0.0060
 1342SOL     OW 5365   1.288   2.704   3.097 -0.2479 -0.0041 -0.1270
 1342SOL    HW1 5366   1.259   2.736   3.183  1.1259 -1.4176  0.9062
 1342SOL    HW2 5367   1.235   2.626   3.082  0.8530 -0.8512  0.3432
 1342SOL     MW 5368   1.277   2.698   3.107  0.0851 -0.3084  0.0753
 1343SOL     OW 5369   0.928   4.102   3.074 -0.2519 -0.4353  0.2562
 1343SOL    HW1 5370   0.912   4.196   3.069 -1.0783 -0.5629  0.2858
 1343SOL    HW2 5371   0.843   4.062   3.055  0.0750 -1.1736  0.2989
 1343SOL     MW 5372   0.914   4.109   3.071 -0.3191 -0.5519  0.2659
 1344SOL     OW 5373   3.600   0.255   3.607 -0.3563  0.1464 -0.0764
 1344SOL    HW1 5374   3.638   0.167   3.611 -0.3403  0.1876  1.3789
 1344SOL    HW2 5375   3.582   0.270   3.514 -0.0484 -1.2575 -0.3811
 1344SOL     MW 5376   3.602   0.245   3.595 -0.3127 -0.0370  0.0784
 1345SOL     OW 5377   3.260   3.960   3.391 -0.0258  0.5099  0.5836
 1345SOL    HW1 5378   3.215   3.953   3.307 -1.8415 -0.7241  1.5842
 1345SOL    HW2 5379   3.282   4.052   3.399  1.0761  0.4953 -1.6549
 1345SOL     MW 5380   3.257   3.971   3.381 -0.1219  0.3419  0.4170
 1346SOL     OW 5381   4.260   1.430   4.111 -0.3727 -0.0192 -0.0616
 1346SOL    HW1 5382   4.240   1.405   4.021 -0.7995 -0.4527  0.1523
 1346SOL    HW2 5383   4.261   1.347   4.159  0.5680  0.1284  0.1969
 1346SOL     MW 5384   4.258   1.415   4.105 -0.3035 -0.0577  0.0020
 1347SOL     OW 5385   3.405   5.190   4.722  0.3161  0.1629 -0.1471
 1347SOL    HW1 5386   3.399   5.274   4.676  0.1685 -0.0538 -0.5244
 1347SOL    HW2 5387   3.399   5.213   4.815 -2.3851  0.3461 -0.2925
 1347SOL     MW 5388   3.404   5.205   4.729 -0.0673  0.1584 -0.2174
 1348SOL     OW 5389   0.464   0.134   0.856  0.2275 -0.0405  0.0210
 1348SOL    HW1 5390   0.449   0.048   0.895 -1.2480  0.7922  1.3970
 1348SOL    HW2 5391   0.552   0.159   0.885 -0.0853 -0.2779  1.2031
 1348SOL     MW 5392   0.474   0.126   0.865 -0.0132  0.0396  0.3653
 1349SOL     OW 5393   4.719   0.331   2.401 -0.2788  0.6981 -0.3958
 1349SOL    HW1 5394   4.759   0.396   2.460  0.1843  0.3744 -0.3475
 1349SOL    HW2 5395   4.767   0.250   2.419 -2.0436 -0.1323  0.8451
 1349SOL     MW 5396   4.731   0.329   2.412 -0.4540  0.5428 -0.2223
 1350SOL     OW 5397   0.900   2.584   1.568  0.0479  0.1184 -0.0154
 1350SOL    HW1 5398   0.825   2.535   1.601 -0.2634 -0.2265 -1.1964
 1350SOL    HW2 5399   0.874   2.676   1.578  0.7859  0.1449  2.5515
 1350SOL     MW 5400   0.886   2.590   1.574  0.1053  0.0756  0.1711
 1351SOL     OW 5401   2.505   3.294   1.793  0.3088 -0.3595 -0.3087
 1351SOL    HW1 5402   2.448   3.228   1.754  0.2078  0.7402 -2.1796
 1351SOL    HW2 5403   2.590   3.280   1.751  0.2361  0.7719 -0.8899
 1351SOL     MW 5404   2.509   3.283   1.782  0.2854 -0.0592 -0.6387
 1352SOL     OW 5405   4.324   4.101   1.759  0.2188  0.4708  0.1679
 1352SOL    HW1 5406   4.240   4.058   1.778  1.1302 -2.3995 -1.5607
 1352SOL    HW2 5407   4.340   4.156   1.836 -3.0778  0.9658  0.6842
 1352SOL     MW 5408   4.315   4.102   1.772 -0.1022  0.1512  0.0047
 1353SOL     OW 5409   1.864   3.210   2.376  0.0842 -0.5362  0.0518
 1353SOL    HW1 5410   1.928   3.161   2.324  0.4152  0.7027 -0.7293
 1353SOL    HW2 5411   1.820   3.267   2.314 -0.6621 -0.2056  0.8618
 1353SOL     MW 5412   1.867   3.211   2.361  0.0283 -0.3250  0.0557
 1354SOL     OW 5413   4.113   3.117   4.104 -0.5893 -0.1373  0.0702
 1354SOL    HW1 5414   4.180   3.049   4.109  0.1362  0.6368  1.4686
 1354SOL    HW2 5415   4.069   3.113   4.189 -0.4577  1.2037  0.2124
 1354SOL     MW 5416   4.116   3.107   4.116 -0.4740  0.1474  0.2775
 1355SOL     OW 5417   0.012   1.823   4.236 -0.1210 -0.3670 -0.2833
 1355SOL    HW1 5418   0.050   1.861   4.157 -1.5723  2.7375  0.3771
 1355SOL    HW2 5419   0.053   1.870   4.308 -1.6572 -0.3387  0.6177
 1355SOL     MW 5420   0.023   1.834   4.235 -0.5230  0.0546 -0.0732
 1356SOL     OW 5421   4.089   1.323   4.952  0.4890 -0.6109  0.0978
 1356SOL    HW1 5422   4.064   1.398   5.005  0.3727 -2.0022  2.1101
 1356SOL    HW2 5423   4.148   1.359   4.886 -1.7870  1.7039 -0.8540
 1356SOL     MW 5424   4.093   1.338   4.950  0.1670 -0.4866  0.2405
 1357SOL     OW 5425   0.075   3.945   3.396  0.0497  0.3998  0.4097
 1357SOL    HW1 5426   0.168   3.949   3.375  0.0560  1.7557  0.6376
 1357SOL    HW2 5427   0.047   3.860   3.362  1.0644  0.5627 -0.9238
 1357SOL     MW 5428   0.084   3.934   3.389  0.1871  0.6042  0.2609
 1358SOL     OW 5429   0.198   4.974   1.824 -0.0839  0.0355 -0.5434
 1358SOL    HW1 5430   0.228   5.008   1.908  0.2335  2.6466 -1.5984
 1358SOL    HW2 5431   0.116   4.929   1.843 -0.7596  1.8017  1.0052
 1358SOL     MW 5432   0.191   4.972   1.838 -0.1322  0.6246 -0.4770
 1359SOL     OW 5433   2.751   2.914   1.430  0.6350 -0.4620  0.3133
 1359SOL    HW1 5434   2.777   2.882   1.517  0.3141  0.7490  0.8849
 1359SOL    HW2 5435   2.685   2.980   1.448  2.3657  1.6663 -0.6554
 1359SOL     MW 5436   2.746   2.919   1.444  0.8248 -0.0126  0.2599
 1360SOL     OW 5437   3.806   0.378   5.326 -0.5789  0.1485 -0.1640
 1360SOL    HW1 5438   3.896   0.397   5.351 -0.2296 -0.1349 -1.1901
 1360SOL    HW2 5439   3.798   0.283   5.332 -0.0768 -0.0823 -2.3956
 1360SOL     MW 5440   3.817   0.368   5.330 -0.4643  0.0793 -0.6024
 1361SOL     OW 5441   1.279   4.669   0.075 -0.2606  0.1787 -0.3862
 1361SOL    HW1 5442   1.204   4.680   0.017 -0.6046 -0.4637 -0.0627
 1361SOL    HW2 5443   1.271   4.580   0.110  0.8173 -0.0236 -0.5953
 1361SOL     MW 5444   1.268   4.658   0.072 -0.1618  0.0650 -0.3708
 1362SOL     OW 5445   0.576   2.067   4.318 -0.4263 -0.7079  0.6473
 1362SOL    HW1 5446   0.619   2.055   4.233 -1.2572 -0.6940  0.2176
 1362SOL    HW2 5447   0.613   1.998   4.373  1.8200  0.6711  0.9803
 1362SOL     MW 5448   0.587   2.056   4.314 -0.2358 -0.5204  0.6343
 1363SOL     OW 5449   1.099   0.163   0.329  0.5097 -0.2496  0.1937
 1363SOL    HW1 5450   1.117   0.143   0.237  0.1895  0.3530 -0.0073
 1363SOL    HW2 5451   1.170   0.221   0.356  0.0750  0.3733  0.0303
 1363SOL     MW 5452   1.111   0.168   0.320  0.4081 -0.0847  0.1447
 1364SOL     OW 5453   2.882   3.969   4.507  0.0969 -0.1722  0.2436
 1364SOL    HW1 5454   2.841   3.998   4.426  1.8178 -0.0613 -0.6375
 1364SOL    HW2 5455   2.972   3.947   4.482 -0.2823 -3.6989  1.3486
 1364SOL     MW 5456   2.888   3.970   4.492  0.2775 -0.6319  0.2738
 1365SOL     OW 5457   0.339   1.090   0.628 -0.0496  0.6142  0.0094
 1365SOL    HW1 5458   0.267   1.036   0.596  0.4172  0.5302 -0.9199
 1365SOL    HW2 5459   0.331   1.086   0.723  0.4627 -1.7805  0.0032
 1365SOL     MW 5460   0.328   1.082   0.637  0.0822  0.2806 -0.1165
 1366SOL     OW 5461   2.594   0.582   5.440  0.4397  0.1950  0.0587
 1366SOL    HW1 5462   2.615   0.675   5.450  0.1517  0.4049 -1.1261
 1366SOL    HW2 5463   2.680   0.539   5.438  0.5481  0.1738  2.5733
 1366SOL     MW 5464   2.609   0.589   5.441  0.4155  0.2204  0.2377
 1367SOL     OW 5465   1.466   2.024   3.181  0.2051 -0.2130 -0.2513
 1367SOL    HW1 5466   1.441   2.098   3.235  1.3572  0.3565 -0.4599
 1367SOL    HW2 5467   1.407   2.028   3.106 -1.1913 -0.8258  0.7722
 1367SOL     MW 5468   1.455   2.034   3.178  0.1722 -0.2188 -0.1416
 1368SOL     OW 5469   1.117   4.104   3.274 -0.5682  0.0849 -0.6807
 1368SOL    HW1 5470   1.046   4.103   3.210 -0.4365 -1.5154 -0.8375
 1368SOL    HW2 5471   1.078   4.064   3.352 -0.1529  0.2194 -0.4037
 1368SOL     MW 5472   1.102   4.099   3.276 -0.4946 -0.1123 -0.6645
 1369SOL     OW 5473   4.230   0.070   3.352 -0.0810 -0.0638 -0.4729
 1369SOL    HW1 5474   4.314   0.115   3.358 -0.1610  0.3286 -1.9763
 1369SOL    HW2 5475   4.217   0.054   3.259 -1.7916  0.1033 -0.3060
 1369SOL     MW 5476   4.239   0.074   3.340 -0.3219  0.0115 -0.6528
 1370SOL     OW 5477   2.054   0.166   0.053  0.5158 -0.0357 -0.0447
 1370SOL    HW1 5478   2.122   0.226   0.083  0.4168  0.6625 -1.1632
 1370SOL    HW2 5479   2.094   0.079   0.060  1.0991  0.2623  0.4204
 1370SOL     MW 5480   2.069   0.162   0.058  0.5810  0.0984 -0.1326
 1371SOL     OW 5481   4.765   0.937   0.575  0.6054  0.9275 -0.2958
 1371SOL    HW1 5482   4.757   0.980   0.660  2.7456  0.0421  0.4195
 1371SOL    HW2 5483   4.708   0.860   0.582  0.2952  1.1899  0.1091
 1371SOL     MW 5484   4.756   0.932   0.588  0.8517  0.8436 -0.1451
 1372SOL     OW 5485   4.287   4.233   4.562 -0.2185 -0.1544  0.0276
 1372SOL    HW1 5486   4.356   4.299   4.567 -0.0947 -0.1137 -1.6875
 1372SOL    HW2 5487   4.206   4.282   4.578  0.0896 -0.2185  2.1411
 1372SOL     MW 5488   4.286   4.248   4.565 -0.1604 -0.1575  0.0812
 1373SOL     OW 5489   1.614   1.750   5.382 -0.6454 -0.2945 -0.2040
 1373SOL    HW1 5490   1.596   1.844   5.389  0.7260 -0.1051  1.3595
 1373SOL    HW2 5491   1.580   1.713   5.463 -0.8959 -1.1088 -0.6737
 1373SOL     MW 5492   1.607   1.758   5.394 -0.4946 -0.3786 -0.0568
 1374SOL     OW 5493   3.364   1.724   0.491  0.1717  0.2859 -0.3826
 1374SOL    HW1 5494   3.408   1.693   0.413  1.6139  2.2659 -0.4177
 1374SOL    HW2 5495   3.432   1.727   0.558 -1.2474 -2.4670  1.3790
 1374SOL     MW 5496   3.379   1.720   0.490  0.1748  0.1818 -0.1502
 1375SOL     OW 5497   5.468   1.137   2.410 -0.1514 -0.0668 -0.2253
 1375SOL    HW1 5498   5.432   1.075   2.347  1.7363 -0.0152 -1.4319
 1375SOL    HW2 5499   5.514   1.083   2.474 -1.4943 -0.0770  0.7687
 1375SOL     MW 5500   5.470   1.121   2.410 -0.0781 -0.0612 -0.2539
 1376SOL     OW 5501   2.999   1.825   4.842 -0.8486 -0.3155  0.4433
 1376SOL    HW1 5502   3.035   1.758   4.901  0.5805  0.5131  0.5589
 1376SOL    HW2 5503   2.953   1.886   4.900 -2.0811 -1.1048  0.3460
 1376SOL     MW 5504   2.998   1.824   4.858 -0.8221 -0.3102  0.4458
 1377SOL     OW 5505   0.579   4.347   0.025 -1.1466  0.3191  0.5669
 1377SOL    HW1 5506   0.553   4.436   0.002 -0.5062 -0.0923 -2.0084
 1377SOL    HW2 5507   0.673   4.354   0.041 -1.0200  0.0464 -0.0464
 1377SOL     MW 5508   0.588   4.360   0.024 -1.0434  0.2271  0.1378
 1378SOL     OW 5509   3.188   4.016   1.433  0.3792 -0.2024  0.4449
 1378SOL    HW1 5510   3.263   3.977   1.478  1.1904 -0.3347 -0.9577
 1378SOL    HW2 5511   3.211   4.108   1.422 -0.2625  0.0626  1.1552
 1378SOL     MW 5512   3.201   4.023   1.438  0.4020 -0.1846  0.3517
 1379SOL     OW 5513   5.346   3.310   3.124  0.5258  0.0631  0.0630
 1379SOL    HW1 5514   5.296   3.299   3.043  0.1728 -0.0752  0.2937
 1379SOL    HW2 5515   5.321   3.396   3.157  0.1739 -0.1492  0.3560
 1379SOL     MW 5516   5.336   3.320   3.118  0.4309  0.0159  0.1335
 1380SOL     OW 5517   4.327   1.174   1.196 -0.0458  0.0388 -0.5744
 1380SOL    HW1 5518   4.402   1.226   1.226  0.6608 -0.5517 -1.2639
 1380SOL    HW2 5519   4.270   1.236   1.152 -0.9228  0.8631  1.5630
 1380SOL     MW 5520   4.330   1.189   1.194 -0.0687  0.0703 -0.3796
 1381SOL     OW 5521   2.569   1.026   3.337  0.6073  0.1811 -0.3017
 1381SOL    HW1 5522   2.603   0.983   3.416  0.8961  0.0583 -0.4913
 1381SOL    HW2 5523   2.488   0.979   3.318  0.7354 -0.0435 -0.2975
 1381SOL     MW 5524   2.562   1.014   3.345  0.6634  0.1343 -0.3266
 1382SOL     OW 5525   0.160   5.265   4.710  0.2836  0.1931  0.2769
 1382SOL    HW1 5526   0.176   5.350   4.751  0.0633 -0.1629  1.1154
 1382SOL    HW2 5527   0.200   5.272   4.623 -0.3681  1.4034  0.0558
 1382SOL     MW 5528   0.167   5.277   4.704  0.1663  0.3081  0.3600
 1383SOL     OW 5529   5.011   4.948   3.831  0.3865 -0.0087  0.1177
 1383SOL    HW1 5530   5.045   5.037   3.835  0.5682 -0.0573 -0.2946
 1383SOL    HW2 5531   4.960   4.945   3.749 -0.4403  0.0076  0.6247
 1383SOL     MW 5532   5.009   4.959   3.820  0.2997 -0.0131  0.1304
 1384SOL     OW 5533   1.694   0.581   0.200  0.1103 -0.2072  0.7442
 1384SOL    HW1 5534   1.600   0.563   0.202 -0.7501  3.1015 -1.5860
 1384SOL    HW2 5535   1.734   0.499   0.171 -1.8201 -2.0708  2.9595
 1384SOL     MW 5536   1.687   0.568   0.197 -0.2653 -0.0127  0.7287
 1385SOL     OW 5537   0.917   3.237   0.150 -0.0107  0.6354 -0.3581
 1385SOL    HW1 5538   0.859   3.211   0.078 -0.4393  0.1792  0.1465
 1385SOL    HW2 5539   0.893   3.180   0.222  1.6907 -0.1908 -0.3936
 1385SOL     MW 5540   0.906   3.226   0.150  0.1606  0.4628 -0.2950
 1386SOL     OW 5541   1.577   4.188   2.164  0.0104 -0.2927  0.2199
 1386SOL    HW1 5542   1.533   4.122   2.110 -1.7411  0.7597  0.2968
 1386SOL    HW2 5543   1.593   4.261   2.105 -1.1473  0.5312  0.8864
 1386SOL     MW 5544   1.574   4.189   2.149 -0.3811 -0.0401  0.3200
 1387SOL     OW 5545   3.799   1.268   0.753  0.4531 -0.2775 -0.2323
 1387SOL    HW1 5546   3.794   1.308   0.666  1.1800 -0.2224 -0.2556
 1387SOL    HW2 5547   3.818   1.176   0.736 -1.9565 -0.8384 -0.2042
 1387SOL     MW 5548   3.801   1.261   0.739  0.2266 -0.3456 -0.2316
 1388SOL     OW 5549   0.517   0.044   2.286 -0.0337 -0.0130  0.3917
 1388SOL    HW1 5550   0.446   0.065   2.348 -1.0664 -1.1248 -0.3657
 1388SOL    HW2 5551   0.519  -0.052   2.284 -0.3895 -0.0166 -1.6563
 1388SOL     MW 5552   0.508   0.034   2.294 -0.2206 -0.1631  0.0142
 1389SOL     OW 5553   3.309   4.965   2.246  0.3562  0.0442 -0.1527
 1389SOL    HW1 5554   3.273   5.008   2.168  1.9130  0.8325 -0.4782
 1389SOL    HW2 5555   3.232   4.935   2.294 -0.6480 -0.9866 -2.2510
 1389SOL     MW 5556   3.294   4.967   2.242  0.4306  0.0116 -0.4789
 1390SOL     OW 5557   3.480   5.202   4.116 -0.3960  0.3608  0.2035
 1390SOL    HW1 5558   3.461   5.286   4.075 -1.3380 -0.3761 -0.9439
 1390SOL    HW2 5559   3.574   5.188   4.100 -0.0779  1.4666  0.9809
 1390SOL     MW 5560   3.490   5.211   4.108 -0.4800  0.4105  0.1537
 1391SOL     OW 5561   5.052   4.543   1.077 -0.4185  0.1456  0.5246
 1391SOL    HW1 5562   5.073   4.544   0.983 -1.4468  0.3921  0.2786
 1391SOL    HW2 5563   5.071   4.633   1.106  0.5925 -0.1242  0.7276
 1391SOL     MW 5564   5.057   4.555   1.068 -0.4209  0.1425  0.5188
 1392SOL     OW 5565   1.648   2.282   0.260  0.3757  0.5757  0.3748
 1392SOL    HW1 5566   1.677   2.207   0.209 -0.2783  1.6575 -1.6632
 1392SOL    HW2 5567   1.678   2.262   0.349  3.1829 -0.5484 -0.6901
 1392SOL     MW 5568   1.656   2.269   0.265  0.6654  0.5700 -0.0428
 1393SOL     OW 5569   4.536   2.757   0.157  0.7206 -0.2916  0.0319
 1393SOL    HW1 5570   4.586   2.835   0.179  1.5163 -0.7397 -0.1451
 1393SOL    HW2 5571   4.513   2.768   0.065  1.0527 -0.3800 -0.0629
 1393SOL     MW 5572   4.540   2.769   0.147  0.8724 -0.3638 -0.0047
 1394SOL     OW 5573   4.801   4.394   1.387 -0.2023  0.0449 -0.1887
 1394SOL    HW1 5574   4.799   4.437   1.302  1.7473  1.8425  0.5549
 1394SOL    HW2 5575   4.875   4.332   1.381  0.3499  0.6319  0.3452
 1394SOL     MW 5576   4.811   4.391   1.375  0.1344  0.3658 -0.0168
 1395SOL     OW 5577   3.972   0.709   0.037  0.1582  0.0030 -0.0668
 1395SOL    HW1 5578   3.993   0.643  -0.029 -3.3176 -2.5664  1.0674
 1395SOL    HW2 5579   3.968   0.791  -0.011  1.5651 -1.0977 -2.2308
 1395SOL     MW 5580   3.974   0.711   0.022 -0.1202 -0.4909 -0.2054
 1396SOL     OW 5581   3.619   3.281   0.566  0.1964 -0.0741 -0.0683
 1396SOL    HW1 5582   3.595   3.242   0.650  1.0031  0.2009  0.3067
 1396SOL    HW2 5583   3.618   3.208   0.504  1.3605 -0.6452  0.5601
 1396SOL     MW 5584   3.616   3.266   0.569  0.4616 -0.1139  0.0667
 1397SOL     OW 5585   2.746   2.012   4.504 -0.2477  0.0134 -0.3811
 1397SOL    HW1 5586   2.795   2.084   4.464  0.4658  0.9689  1.9999
 1397SOL    HW2 5587   2.655   2.030   4.481  0.0712  0.7704 -1.1410
 1397SOL     MW 5588   2.740   2.024   4.496 -0.1088  0.2439 -0.1630
 1398SOL     OW 5589   1.728   1.975   0.988 -0.0337  0.6253  0.3417
 1398SOL    HW1 5590   1.725   1.904   1.052 -0.0152  0.0302 -0.3074
 1398SOL    HW2 5591   1.639   2.009   0.986  0.1522  1.2038  1.2882
 1398SOL     MW 5592   1.716   1.970   0.997 -0.0062  0.6230  0.3817
 1399SOL     OW 5593   1.121   3.045   4.184  0.8619  0.6927 -0.1422
 1399SOL    HW1 5594   1.114   2.949   4.185 -0.8347  0.7578  1.9772
 1399SOL    HW2 5595   1.192   3.065   4.244  2.2716  0.7880 -1.7589
 1399SOL     MW 5596   1.129   3.035   4.192  0.8233  0.7143 -0.0746
 1400SOL     OW 5597   1.637   5.379   5.183  0.0981 -0.1739  0.4192
 1400SOL    HW1 5598   1.640   5.438   5.108  0.2143  0.0584  0.6042
 1400SOL    HW2 5599   1.547   5.385   5.215  0.5299  1.1985  1.4542
 1400SOL     MW 5600   1.626   5.388   5.178  0.1718  0.0420  0.5834
 1401SOL     OW 5601   1.121   3.185   4.555 -0.2975 -0.0268  0.4758
 1401SOL    HW1 5602   1.164   3.100   4.563  1.8396  1.0019  0.5223
 1401SOL    HW2 5603   1.103   3.212   4.646 -1.0401 -0.4220  0.4586
 1401SOL     MW 5604   1.124   3.177   4.569 -0.1099  0.0584  0.4797
 1402SOL     OW 5605   4.251   3.652   4.345 -0.3522 -0.2328 -0.0021
 1402SOL    HW1 5606   4.177   3.686   4.396  0.2107 -0.7572  1.1838
 1402SOL    HW2 5607   4.327   3.666   4.400  0.4183  0.0413 -1.0984
 1402SOL     MW 5608   4.251   3.659   4.359 -0.1727 -0.2665  0.0100
 1403SOL     OW 5609   4.030   3.613   3.939 -0.4478  0.0831 -0.4229
 1403SOL    HW1 5610   4.088   3.675   3.984 -1.0955 -0.4456  1.1881
 1403SOL    HW2 5611   4.072   3.528   3.952  0.1465  0.0719 -2.1534
 1403SOL     MW 5612   4.044   3.610   3.946 -0.4550  0.0104 -0.4390
 1404SOL     OW 5613   0.453   3.815   3.890 -0.2427  0.2206 -0.5600
 1404SOL    HW1 5614   0.545   3.805   3.868  0.2571  1.9164  0.4975
 1404SOL    HW2 5615   0.445   3.907   3.918 -2.3693  0.2829 -1.1664
 1404SOL     MW 5616   0.464   3.826   3.891 -0.4617  0.4572 -0.4993
 1405SOL     OW 5617   2.462   5.176   3.625 -0.0623  0.0200 -0.0747
 1405SOL    HW1 5618   2.511   5.220   3.556 -0.8594  2.0525  0.5757
 1405SOL    HW2 5619   2.421   5.101   3.581 -0.1987  1.0097 -1.7268
 1405SOL     MW 5620   2.463   5.172   3.610 -0.1879  0.4267 -0.2096
 1406SOL     OW 5621   3.165   4.615   1.725  0.0532 -0.0032 -0.2805
 1406SOL    HW1 5622   3.076   4.583   1.739 -0.1085  0.4063 -0.3353
 1406SOL    HW2 5623   3.212   4.540   1.689  0.1418 -0.6742  1.1933
 1406SOL     MW 5624   3.159   4.601   1.722  0.0434 -0.0383 -0.0895
 1407SOL     OW 5625   0.935   2.771   3.430  0.5289 -0.2723 -0.2937
 1407SOL    HW1 5626   1.028   2.773   3.407  0.4365 -1.2207 -0.7719
 1407SOL    HW2 5627   0.899   2.697   3.381 -0.2426 -0.6462  0.7932
 1407SOL     MW 5628   0.942   2.762   3.420  0.4127 -0.4502 -0.2118
 1408SOL     OW 5629   2.166   0.711   3.607  0.4381 -0.0498  0.3284
 1408SOL    HW1 5630   2.105   0.638   3.617 -0.0126  0.1742 -0.6852
 1408SOL    HW2 5631   2.144   0.771   3.679  0.4783 -0.6656  0.8625
 1408SOL     MW 5632   2.155   0.709   3.618  0.3829 -0.1025  0.2639
 1409SOL     OW 5633   1.072   1.680   4.506 -0.1409 -0.0587  0.6488
 1409SOL    HW1 5634   1.034   1.637   4.429  0.7469 -0.2760  0.3254
 1409SOL    HW2 5635   1.144   1.733   4.471  0.0972  0.0508  1.2989
 1409SOL     MW 5636   1.076   1.681   4.491  0.0106 -0.0732  0.6927
 1410SOL     OW 5637   4.485   0.412   4.358  0.7133 -0.4891  0.0787
 1410SOL    HW1 5638   4.529   0.358   4.424  0.7580 -0.6584 -0.0894
 1410SOL    HW2 5639   4.479   0.498   4.398  0.7158 -0.5984  0.3171
 1410SOL     MW 5640   4.490   0.416   4.372  0.7196 -0.5266  0.0882
 1411SOL     OW 5641   4.432   1.593   3.178 -0.3944 -0.3401 -0.7034
 1411SOL    HW1 5642   4.368   1.530   3.145 -1.2405  0.2813 -0.2901
 1411SOL    HW2 5643   4.389   1.678   3.167  0.1373  0.0412  0.0719
 1411SOL     MW 5644   4.417   1.596   3.172 -0.4367 -0.2052 -0.5434
 1412SOL     OW 5645   3.551   5.236   3.381 -0.1915  0.0943  0.0603
 1412SOL    HW1 5646   3.513   5.185   3.452 -0.2372 -0.0272 -0.0498
 1412SOL    HW2 5647   3.497   5.214   3.304  0.7466 -0.9217 -0.3413
 1412SOL     MW 5648   3.539   5.226   3.380 -0.0714 -0.0588 -0.0085
 1413SOL     OW 5649   4.575   4.584   1.802  0.5309 -0.5496  0.1661
 1413SOL    HW1 5650   4.552   4.655   1.743 -0.1210 -0.1968  0.8311
 1413SOL    HW2 5651   4.631   4.526   1.749 -0.1359 -0.3163 -0.8264
 1413SOL     MW 5652   4.580   4.586   1.787  0.3534 -0.4707  0.1220
 1414SOL     OW 5653   2.498   3.463   4.634 -0.0791  0.5177 -0.4476
 1414SOL    HW1 5654   2.540   3.450   4.719  0.8270  1.7978 -0.6829
 1414SOL    HW2 5655   2.453   3.547   4.641 -1.4069 -0.1340 -0.7046
 1414SOL     MW 5656   2.497   3.472   4.647 -0.1358  0.6023 -0.5138
 1415SOL     OW 5657   2.440   4.673   3.315 -0.6324 -0.4544 -0.1666
 1415SOL    HW1 5658   2.467   4.597   3.366 -0.3742  0.2380  0.7374
 1415SOL    HW2 5659   2.520   4.703   3.271 -0.3843  0.2485  0.7433
 1415SOL     MW 5660   2.454   4.667   3.316 -0.5642 -0.2667  0.0775
 1416SOL     OW 5661   1.407   2.804   1.099  0.2134  0.0421 -0.2382
 1416SOL    HW1 5662   1.438   2.731   1.045 -0.4864  1.3760 -2.6319
 1416SOL    HW2 5663   1.398   2.767   1.187  0.3703 -2.5996 -1.2247
 1416SOL     MW 5664   1.410   2.789   1.103  0.1403 -0.1339 -0.6931
 1417SOL     OW 5665   4.370   4.106   4.336 -0.1868  0.0859 -0.4197
 1417SOL    HW1 5666   4.282   4.081   4.307 -0.3001  1.5738 -1.4573
 1417SOL    HW2 5667   4.354   4.154   4.418 -0.2769 -0.1813 -0.2783
 1417SOL     MW 5668   4.356   4.109   4.343 -0.2142  0.2502 -0.5403
 1418SOL     OW 5669   4.616   3.573   4.095  0.1410 -0.1003 -0.2515
 1418SOL    HW1 5670   4.654   3.619   4.170 -0.4540  1.1963 -0.7072
 1418SOL    HW2 5671   4.563   3.639   4.051 -0.6235 -1.2030 -1.0449
 1418SOL     MW 5672   4.614   3.588   4.099 -0.0419 -0.0742 -0.4196
 1419SOL     OW 5673   4.324   1.081   4.768  0.0992 -0.4330 -0.2071
 1419SOL    HW1 5674   4.282   1.054   4.686  1.3805  0.2832 -1.1304
 1419SOL    HW2 5675   4.381   1.008   4.792  0.9077 -0.0128 -0.8133
 1419SOL     MW 5676   4.326   1.067   4.760  0.3804 -0.2801 -0.4129
 1420SOL     OW 5677   2.473   0.074   5.107  0.2529 -0.4221 -0.6824
 1420SOL    HW1 5678   2.397   0.125   5.137  1.2146  0.9205 -0.4321
 1420SOL    HW2 5679   2.448   0.044   5.019 -1.5316 -2.1378  0.3293
 1420SOL     MW 5680   2.459   0.077   5.099  0.1421 -0.4723 -0.5126
 1421SOL     OW 5681   3.952   0.071   4.021  0.1977  0.1182 -0.0852
 1421SOL    HW1 5682   3.933   0.164   4.034  2.8145  0.7202 -0.0338
 1421SOL    HW2 5683   3.989   0.067   3.932  0.0956 -0.8709 -0.0901
 1421SOL     MW 5684   3.954   0.083   4.011  0.5361  0.0661 -0.0789
 1422SOL     OW 5685   4.856   0.113   4.516  0.2073  0.1757  0.2661
 1422SOL    HW1 5686   4.764   0.142   4.520  0.4626  0.8853  1.7711
 1422SOL    HW2 5687   4.881   0.100   4.607  1.6339  0.0467 -0.1188
 1422SOL     MW 5688   4.847   0.115   4.529  0.4337  0.2538  0.4169
 1423SOL     OW 5689   1.885   3.608   0.344  0.2257  0.4834  0.1825
 1423SOL    HW1 5690   1.913   3.591   0.254 -2.1978  0.5903 -0.6680
 1423SOL    HW2 5691   1.858   3.523   0.377  2.0829  0.2608  1.2195
 1423SOL     MW 5692   1.885   3.594   0.336  0.1495  0.4678  0.2076
 1424SOL     OW 5693   1.670   2.257   0.536  0.3214 -0.1106  0.2993
 1424SOL    HW1 5694   1.677   2.162   0.529 -0.3039 -0.1590  0.2431
 1424SOL    HW2 5695   1.696   2.277   0.626 -1.2163 -0.5263  0.8688
 1424SOL     MW 5696   1.674   2.247   0.547  0.0303 -0.1731  0.3684
 1425SOL     OW 5697   1.298   4.231   4.963  0.0087 -0.2466  0.0921
 1425SOL    HW1 5698   1.338   4.309   5.001  1.7936 -0.9712 -0.1658
 1425SOL    HW2 5699   1.252   4.189   5.036 -0.2792  0.6049  0.4127
 1425SOL     MW 5700   1.297   4.236   4.978  0.2102 -0.2295  0.1005
 1426SOL     OW 5701   3.588   5.006   1.839 -0.1563  0.1854  0.2060
 1426SOL    HW1 5702   3.547   5.076   1.890 -1.1925 -0.6140  0.4900
 1426SOL    HW2 5703   3.648   5.052   1.780  0.9079  1.1391  1.9503
 1426SOL     MW 5704   3.591   5.022   1.838 -0.1525  0.2062  0.4790
 1427SOL     OW 5705   5.069   3.407   3.434 -0.4135 -0.0202 -0.0468
 1427SOL    HW1 5706   5.016   3.473   3.479 -0.9263 -0.8136  0.5322
 1427SOL    HW2 5707   5.130   3.376   3.501 -0.1592 -0.1234 -0.3234
 1427SOL     MW 5708   5.070   3.412   3.449 -0.4483 -0.1408 -0.0061
 1428SOL     OW 5709   1.072   1.578   1.415  0.5301 -0.1075  0.3367
 1428SOL    HW1 5710   1.140   1.542   1.357  0.6890  0.8359 -0.0822
 1428SOL    HW2 5711   1.088   1.673   1.414  0.4289 -0.0538  1.7973
 1428SOL     MW 5712   1.083   1.586   1.407  0.5379  0.0267  0.4769
 1429SOL     OW 5713   2.108   0.669   2.715  0.0783 -0.2675 -0.5571
 1429SOL    HW1 5714   2.066   0.741   2.668 -2.0077 -0.3663  0.9920
 1429SOL    HW2 5715   2.161   0.713   2.782  1.2728 -0.1723 -1.5263
 1429SOL     MW 5716   2.109   0.685   2.718 -0.0417 -0.2680 -0.4791
 1430SOL     OW 5717   4.214   3.790   5.041 -0.2194 -0.4971 -0.2940
 1430SOL    HW1 5718   4.142   3.841   5.078 -1.1350 -1.6577 -0.4239
 1430SOL    HW2 5719   4.171   3.722   4.988  0.8421 -2.6097  1.3983
 1430SOL     MW 5720   4.198   3.788   5.039 -0.1998 -0.9376 -0.0837
 1431SOL     OW 5721   0.120   1.800   2.046 -0.2736  0.1984  0.3143
 1431SOL    HW1 5722   0.081   1.791   1.960  2.5883 -1.8411 -0.9264
 1431SOL    HW2 5723   0.077   1.732   2.099  0.4240 -0.9703 -0.5754
 1431SOL     MW 5724   0.109   1.789   2.042  0.2055 -0.2334  0.0276
 1432SOL     OW 5725   4.569   1.672   3.747 -0.4191  0.3619  0.7567
 1432SOL    HW1 5726   4.650   1.638   3.784 -0.6384 -0.0289  0.8813
 1432SOL    HW2 5727   4.596   1.747   3.695 -0.1787  1.3891  2.2886
 1432SOL     MW 5728   4.583   1.678   3.745 -0.4163  0.4475  0.9796
 1433SOL     OW 5729   1.422   3.448   3.422 -0.3970 -0.9250 -0.0574
 1433SOL    HW1 5730   1.337   3.481   3.453  0.4606  0.7199  0.6618
 1433SOL    HW2 5731   1.454   3.394   3.495  0.0087  0.0289  0.4954
 1433SOL     MW 5732   1.415   3.445   3.436 -0.2270 -0.5753  0.1138
 1434SOL     OW 5733   5.353   5.034   4.932  0.6420  0.4300  0.6712
 1434SOL    HW1 5734   5.277   5.090   4.952  0.6307  0.2685  1.0898
 1434SOL    HW2 5735   5.428   5.084   4.964  0.6701  0.3924  0.6647
 1434SOL     MW 5736   5.353   5.048   4.939  0.6442  0.4032  0.7267
 1435SOL     OW 5737   2.774   1.572   4.525 -0.7891  0.0252  0.2335
 1435SOL    HW1 5738   2.790   1.653   4.574 -0.7197  0.9483 -1.2819
 1435SOL    HW2 5739   2.681   1.555   4.536 -0.4937 -0.7262  2.0503
 1435SOL     MW 5740   2.764   1.580   4.533 -0.7400  0.0483  0.2740
 1436SOL     OW 5741   4.491   4.608   1.176 -0.2425  0.5879  0.5270
 1436SOL    HW1 5742   4.560   4.634   1.236 -0.5063 -2.2800  2.2760
 1436SOL    HW2 5743   4.417   4.584   1.233 -0.6388 -1.8754 -0.8603
 1436SOL     MW 5744   4.490   4.608   1.192 -0.3313 -0.1296  0.5756
 1437SOL     OW 5745   3.906   0.865   4.137  0.4910 -0.0383 -0.5192
 1437SOL    HW1 5746   3.943   0.798   4.195  0.6620 -1.7282 -2.4462
 1437SOL    HW2 5747   3.823   0.826   4.107  0.0105  1.1513 -0.7731
 1437SOL     MW 5748   3.900   0.850   4.141  0.4493 -0.1056 -0.8127
 1438SOL     OW 5749   3.365   1.946   3.790  0.3334 -0.6127 -0.3987
 1438SOL    HW1 5750   3.452   1.912   3.771  0.2486 -1.1984  0.2285
 1438SOL    HW2 5751   3.368   1.971   3.883 -0.0795 -0.3700 -0.4461
 1438SOL     MW 5752   3.377   1.945   3.800  0.2665 -0.6588 -0.3206
 1439SOL     OW 5753   4.635   2.664   4.151  0.2358  0.6217 -0.2153
 1439SOL    HW1 5754   4.623   2.573   4.123  1.0997 -0.0214  1.3400
 1439SOL    HW2 5755   4.605   2.716   4.077 -2.8152 -0.8860 -0.1724
 1439SOL     MW 5756   4.630   2.658   4.137 -0.0585  0.3322 -0.0002
 1440SOL     OW 5757   4.743   2.328   3.415  0.0641  0.3561  0.5325
 1440SOL    HW1 5758   4.717   2.267   3.484 -2.2508  0.9737  0.2790
 1440SOL    HW2 5759   4.828   2.295   3.386 -1.0705 -2.8580  0.3411
 1440SOL     MW 5760   4.751   2.315   3.420 -0.4001  0.0067  0.4726
 1441SOL     OW 5761   3.956   5.223   5.190  0.4019 -0.0800 -0.2376
 1441SOL    HW1 5762   4.009   5.230   5.110  1.1255 -0.1245  0.2277
 1441SOL    HW2 5763   4.014   5.253   5.260 -0.2334 -0.0199  0.2721
 1441SOL     MW 5764   3.971   5.228   5.188  0.4138 -0.0779 -0.1064
 1442SOL     OW 5765   0.485   0.813   2.755 -0.7247 -0.2488 -0.9090
 1442SOL    HW1 5766   0.434   0.733   2.764 -0.7017  0.0134  3.4142
 1442SOL    HW2 5767   0.425   0.883   2.780  0.4743  0.5698 -0.2422
 1442SOL     MW 5768   0.470   0.811   2.760 -0.5603 -0.1034 -0.2374
 1443SOL     OW 5769   3.892   4.954   5.150 -0.1793  0.3256  0.1823
 1443SOL    HW1 5770   3.922   5.044   5.162 -0.7437  0.3785  1.3857
 1443SOL    HW2 5771   3.817   4.946   5.210  0.9664 -1.4813  1.4617
 1443SOL     MW 5772   3.886   4.965   5.159 -0.1010  0.0895  0.5164
 1444SOL     OW 5773   3.224   1.938   2.711 -0.6315 -0.3536 -0.4360
 1444SOL    HW1 5774   3.306   1.988   2.712 -1.5954  1.3282  1.7958
 1444SOL    HW2 5775   3.238   1.869   2.775 -1.0463  0.1258  0.1803
 1444SOL     MW 5776   3.237   1.935   2.720 -0.8171 -0.0627 -0.0527
 1445SOL     OW 5777   3.928   5.498   1.833 -0.6933  0.1049 -0.0138
 1445SOL    HW1 5778   3.972   5.530   1.911  1.0661  1.2241 -1.4015
 1445SOL    HW2 5779   3.902   5.409   1.856 -0.7689  0.5889  2.0266
 1445SOL     MW 5780   3.930   5.490   1.847 -0.4667  0.3207  0.0741
 1446SOL     OW 5781   5.003   5.406   0.588 -1.1732  0.4592  0.0891
 1446SOL    HW1 5782   5.004   5.346   0.663 -0.5558 -0.3848 -0.5691
 1446SOL    HW2 5783   4.971   5.489   0.623 -0.9802  0.0493  1.2664
 1446SOL     MW 5784   4.999   5.409   0.603 -1.0641  0.2904  0.1590
 1447SOL     OW 5785   3.588   0.255   4.577 -0.2131  0.1043  0.2089
 1447SOL    HW1 5786   3.564   0.185   4.516  1.4517  0.4527 -0.9235
 1447SOL    HW2 5787   3.671   0.225   4.614  0.6564  1.5625 -0.4885
 1447SOL     MW 5788   3.596   0.241   4.574  0.1280  0.3475 -0.0374
 1448SOL     OW 5789   3.580   2.358   2.119 -0.0293  0.3440  0.1138
 1448SOL    HW1 5790   3.646   2.397   2.177  0.0750  1.9311 -1.0142
 1448SOL    HW2 5791   3.627   2.291   2.071  0.1991 -0.0949  0.9294
 1448SOL     MW 5792   3.595   2.354   2.121  0.0155  0.4985  0.0717
 1449SOL     OW 5793   5.265   1.862   1.022 -0.6448  0.0047 -0.9787
 1449SOL    HW1 5794   5.323   1.794   1.056  0.8882  0.2274 -2.9274
 1449SOL    HW2 5795   5.244   1.833   0.933 -1.1772  1.3616 -1.3206
 1449SOL     MW 5796   5.270   1.849   1.015 -0.5101  0.2173 -1.2870
 1450SOL     OW 5797   2.923   2.564   1.480  0.0782  0.0365 -0.5921
 1450SOL    HW1 5798   2.985   2.633   1.504  0.4224 -0.1081 -1.0526
 1450SOL    HW2 5799   2.943   2.492   1.539 -0.6765  0.5313  0.2933
 1450SOL     MW 5800   2.934   2.564   1.491  0.0230  0.0836 -0.5350
 1451SOL     OW 5801   2.257   2.831   2.982 -0.6988 -0.5209  0.3712
 1451SOL    HW1 5802   2.347   2.851   2.958 -0.9977  0.2422 -0.1334
 1451SOL    HW2 5803   2.256   2.832   3.077 -1.0600  3.8258  0.5083
 1451SOL     MW 5804   2.269   2.834   2.991 -0.7876  0.1668  0.3217
 1452SOL     OW 5805   1.751   2.723   2.876 -0.1101 -0.3753  0.1485
 1452SOL    HW1 5806   1.792   2.657   2.931 -0.4534  0.0753  0.9556
 1452SOL    HW2 5807   1.794   2.713   2.790  0.7999 -0.7248  0.6340
 1452SOL     MW 5808   1.762   2.713   2.872 -0.0338 -0.3617  0.3225
 1453SOL     OW 5809   3.022   0.319   4.176 -0.0611  0.0693  0.2639
 1453SOL    HW1 5810   2.982   0.338   4.261  0.3238 -1.5053  0.8543
 1453SOL    HW2 5811   2.950   0.291   4.121 -0.0540 -1.1733  0.8276
 1453SOL     MW 5812   3.007   0.318   4.180 -0.0083 -0.3098  0.4192
 1454SOL     OW 5813   0.319   5.039   3.021  0.4103 -0.0311  0.4603
 1454SOL    HW1 5814   0.254   5.109   3.033  1.2344  0.4514  2.4515
 1454SOL    HW2 5815   0.311   5.016   2.928 -1.8374  0.7490  0.3840
 1454SOL     MW 5816   0.309   5.046   3.010  0.2187  0.1388  0.7180
 1455SOL     OW 5817   3.366   0.927  -0.013 -0.0032  0.0862  0.4528
 1455SOL    HW1 5818   3.442   0.869  -0.006  0.2650  0.5030  1.0560
 1455SOL    HW2 5819   3.357   0.966   0.074 -1.0400 -0.1147  0.4505
 1455SOL     MW 5820   3.375   0.924  -0.001 -0.1067  0.1153  0.5337
 1456SOL     OW 5821   1.048   4.092   5.461 -0.1424 -0.2201 -0.6875
 1456SOL    HW1 5822   0.958   4.113   5.486  0.2218  0.2054  0.3421
 1456SOL    HW2 5823   1.086   4.177   5.436 -0.1016 -0.4401 -1.3880
 1456SOL     MW 5824   1.041   4.107   5.461 -0.0879 -0.1925 -0.6432
 1457SOL     OW 5825   3.777   2.338   2.737  0.0527 -0.5006  0.0050
 1457SOL    HW1 5826   3.839   2.409   2.754 -2.9134  1.9977  1.3875
 1457SOL    HW2 5827   3.764   2.297   2.822 -1.2529 -0.0069  0.0602
 1457SOL     MW 5828   3.784   2.342   2.751 -0.5222 -0.0979  0.1985
 1458SOL     OW 5829   1.519   0.256   2.639  0.0687 -0.0132 -0.1122
 1458SOL    HW1 5830   1.507   0.338   2.591  0.4606 -0.1054 -0.3717
 1458SOL    HW2 5831   1.503   0.188   2.573 -0.6711 -0.1544  0.2003
 1458SOL     MW 5832   1.515   0.258   2.623  0.0219 -0.0446 -0.1051
 1459SOL     OW 5833   2.119   0.485   2.158  0.4763 -0.1122  0.1301
 1459SOL    HW1 5834   2.123   0.560   2.097  0.8908 -1.8247 -2.0754
 1459SOL    HW2 5835   2.078   0.521   2.236  0.7619  2.4629 -0.7851
 1459SOL     MW 5836   2.114   0.500   2.160  0.5706  0.0039 -0.2899
 1460SOL     OW 5837   1.543   0.063   4.981  0.1097 -0.6822  0.4010
 1460SOL    HW1 5838   1.589   0.063   4.897 -1.4753  0.1514 -0.5058
 1460SOL    HW2 5839   1.522   0.155   4.998  1.9725 -0.5796  2.6490
 1460SOL     MW 5840   1.546   0.075   4.972  0.1470 -0.5562  0.5815
 1461SOL     OW 5841   0.141   5.092   3.544 -0.0820 -0.5407  0.3805
 1461SOL    HW1 5842   0.107   5.113   3.631 -0.3913 -0.1407  0.1660
 1461SOL    HW2 5843   0.082   5.025   3.511 -2.1468  1.7779 -0.9336
 1461SOL     MW 5844   0.129   5.086   3.552 -0.4015 -0.1749  0.1748
 1462SOL     OW 5845   1.934   0.519   3.649  0.1213  0.0307 -0.0333
 1462SOL    HW1 5846   1.897   0.435   3.624  0.6814 -0.0910 -0.4858
 1462SOL    HW2 5847   1.861   0.580   3.645 -0.7228 -0.7299  2.0532
 1462SOL     MW 5848   1.920   0.516   3.645  0.0831 -0.0880  0.1866
 1463SOL     OW 5849   0.397   4.945   0.832  0.2793 -0.2555  0.0700
 1463SOL    HW1 5850   0.339   4.896   0.890  0.8000 -0.8216  0.1277
 1463SOL    HW2 5851   0.351   4.948   0.748  0.4080 -1.1862 -0.0434
 1463SOL     MW 5852   0.383   4.939   0.829  0.3667 -0.4569  0.0625
 1464SOL     OW 5853   3.268   4.804   2.962  0.1893 -0.4891 -0.0099
 1464SOL    HW1 5854   3.269   4.880   2.904 -0.5145 -1.5344 -1.4266
 1464SOL    HW2 5855   3.353   4.807   3.006  0.2991  0.9264 -0.2641
 1464SOL     MW 5856   3.280   4.815   2.960  0.1094 -0.4393 -0.2348
 1465SOL     OW 5857   4.346   0.946   0.934  0.2453 -0.1480 -0.5206
 1465SOL    HW1 5858   4.391   0.920   0.854 -0.7017  0.6817 -1.3388
 1465SOL    HW2 5859   4.411   0.931   1.003  0.0126 -4.0937 -0.9196
 1465SOL     MW 5860   4.361   0.940   0.933  0.0866 -0.5673 -0.6844
 1466SOL     OW 5861   3.489   5.105   0.015  0.5941 -0.0122  0.2215
 1466SOL    HW1 5862   3.417   5.079   0.071 -0.5653  0.5947 -0.9257
 1466SOL    HW2 5863   3.541   5.165   0.069 -1.1623  1.5222  0.3056
 1466SOL     MW 5864   3.486   5.110   0.030  0.2017  0.2760  0.0784
 1467SOL     OW 5865   1.583   2.384   4.501 -0.5951 -0.2520  0.3205
 1467SOL    HW1 5866   1.664   2.385   4.553  0.5220 -0.0884 -1.3312
 1467SOL    HW2 5867   1.539   2.304   4.528  1.6248 -1.9838 -0.8681
 1467SOL     MW 5868   1.588   2.373   4.512 -0.1460 -0.4630 -0.0617
 1468SOL     OW 5869   3.781   0.612   0.510  0.2642  0.4076  0.0175
 1468SOL    HW1 5870   3.853   0.664   0.544  1.1826 -0.8489  0.0684
 1468SOL    HW2 5871   3.787   0.622   0.415  0.1589  0.7591  0.0495
 1468SOL     MW 5872   3.791   0.620   0.502  0.3737  0.2858  0.0287
 1469SOL     OW 5873   3.223   2.865   0.639 -0.4223 -0.4731 -0.0463
 1469SOL    HW1 5874   3.179   2.928   0.581 -1.9086  0.3315  1.8731
 1469SOL    HW2 5875   3.307   2.849   0.596 -0.9764  0.9720 -1.8211
 1469SOL     MW 5876   3.228   2.872   0.625 -0.6969 -0.1703 -0.0268
 1470SOL     OW 5877   5.101   4.231   0.760  0.0753 -0.2838 -0.2292
 1470SOL    HW1 5878   5.032   4.200   0.819 -0.4542 -2.8404 -2.0132
 1470SOL    HW2 5879   5.176   4.175   0.782  0.2227 -0.4622 -1.1529
 1470SOL     MW 5880   5.102   4.219   0.771  0.0239 -0.6519 -0.5936
 1471SOL     OW 5881   3.397   1.307   1.268  0.2874  0.6589 -0.8482
 1471SOL    HW1 5882   3.476   1.255   1.287 -0.9670 -0.6219  1.2865
 1471SOL    HW2 5883   3.428   1.398   1.269  1.5890  0.2543  1.0772
 1471SOL     MW 5884   3.412   1.312   1.271  0.2938  0.4321 -0.3018
 1472SOL     OW 5885   4.444   1.263   3.732 -0.0659 -0.1543  0.3024
 1472SOL    HW1 5886   4.469   1.190   3.789 -2.1401 -0.5172  0.8206
 1472SOL    HW2 5887   4.378   1.311   3.782  0.0259  1.1093 -0.7287
 1472SOL     MW 5888   4.439   1.259   3.747 -0.3327 -0.0331  0.2334
 1473SOL     OW 5889   2.088   2.359   1.905  0.0737  0.4767 -0.1751
 1473SOL    HW1 5890   2.005   2.341   1.862  0.3504  0.5087 -0.7284
 1473SOL    HW2 5891   2.128   2.428   1.854  1.4388 -1.0426 -1.2716
 1473SOL     MW 5892   2.082   2.366   1.893  0.2946  0.2765 -0.3971
 1474SOL     OW 5893   3.918   3.614   5.228 -0.3334  0.4501 -0.7132
 1474SOL    HW1 5894   3.933   3.662   5.147 -1.7257  0.8502 -0.7600
 1474SOL    HW2 5895   3.927   3.680   5.297  0.6246  0.1567 -0.5427
 1474SOL     MW 5896   3.922   3.629   5.226 -0.3919  0.4644 -0.6965
 1475SOL     OW 5897   3.078   0.597   1.506 -0.6932  0.0720 -0.0238
 1475SOL    HW1 5898   3.111   0.555   1.584  1.5961 -1.2070 -1.5617
 1475SOL    HW2 5899   2.986   0.615   1.525 -0.2821 -0.3897  2.8118
 1475SOL     MW 5900   3.070   0.594   1.519 -0.3298 -0.1622  0.1509
 1476SOL     OW 5901   4.156   1.967   5.488  0.0366  0.2188 -0.6876
 1476SOL    HW1 5902   4.153   2.003   5.577  0.2425  0.9906 -0.9777
 1476SOL    HW2 5903   4.236   1.914   5.486 -0.9254 -1.3361  0.1225
 1476SOL     MW 5904   4.167   1.965   5.500 -0.0651  0.1134 -0.6177
 1477SOL     OW 5905   2.014   3.628   4.104  0.2129  0.1752  0.1060
 1477SOL    HW1 5906   2.032   3.711   4.148  0.3666  1.0978 -1.6222
 1477SOL    HW2 5907   1.967   3.577   4.170  2.3586  0.5978  2.1003
 1477SOL     MW 5908   2.010   3.633   4.119  0.5223  0.3563  0.1418
 1478SOL     OW 5909   4.582   2.043   1.407  0.8034  0.2732  0.5581
 1478SOL    HW1 5910   4.536   1.960   1.421 -1.4978  1.4122  0.2604
 1478SOL    HW2 5911   4.673   2.025   1.431  0.2714 -2.1789  0.9707
 1478SOL     MW 5912   4.588   2.030   1.412  0.4221  0.0965  0.5736
 1479SOL     OW 5913   5.113   3.409   0.216 -0.2533  0.5624 -0.1625
 1479SOL    HW1 5914   5.162   3.383   0.138  1.3039  1.5625  0.4407
 1479SOL    HW2 5915   5.103   3.328   0.266 -1.0518 -0.0404 -1.2605
 1479SOL     MW 5916   5.118   3.395   0.212 -0.1512  0.6159 -0.2291
 1480SOL     OW 5917   4.084   0.651   1.910 -0.0010  0.1367 -0.3579
 1480SOL    HW1 5918   4.038   0.735   1.912 -0.5815 -0.1668 -0.6449
 1480SOL    HW2 5919   4.024   0.593   1.863  0.2468 -0.5261  0.1359
 1480SOL     MW 5920   4.069   0.655   1.904 -0.0457  0.0066 -0.3300
 1481SOL     OW 5921   1.006   2.438   0.028 -0.1881  0.0430 -0.7007
 1481SOL    HW1 5922   0.922   2.397   0.047 -1.3629  2.2793 -0.6522
 1481SOL    HW2 5923   1.002   2.522   0.074  2.2667  0.0442 -0.3701
 1481SOL     MW 5924   0.994   2.444   0.037 -0.0158  0.3441 -0.6496
 1482SOL     OW 5925   5.532   1.407   2.377  0.0310  0.1645  0.3997
 1482SOL    HW1 5926   5.510   1.314   2.375  0.8693 -0.0259 -0.6063
 1482SOL    HW2 5927   5.499   1.441   2.294 -1.5929  1.1007  1.3812
 1482SOL     MW 5928   5.524   1.399   2.365 -0.0748  0.2649  0.3964
 1483SOL     OW 5929   0.512   4.089   3.665  0.2054  0.0426 -0.3170
 1483SOL    HW1 5930   0.427   4.060   3.698  1.1824 -1.8152  0.7634
 1483SOL    HW2 5931   0.548   4.013   3.620  1.9930  0.2058  0.7287
 1483SOL     MW 5932   0.505   4.075   3.663  0.5775 -0.1855 -0.0309
 1484SOL     OW 5933   0.192   1.943   0.986  0.2425 -0.2262 -0.3273
 1484SOL    HW1 5934   0.254   1.960   1.057 -0.4826 -0.0210  0.2656
 1484SOL    HW2 5935   0.187   1.847   0.981 -1.8969 -0.3030  1.8862
 1484SOL     MW 5936   0.200   1.932   0.995 -0.1430 -0.2090  0.0504
 1485SOL     OW 5937   2.550   4.015   3.235 -0.8881  0.3731 -0.0156
 1485SOL    HW1 5938   2.605   4.050   3.306 -0.8697  1.1886 -0.4184
 1485SOL    HW2 5939   2.582   3.926   3.222  0.8731  1.0552 -0.7306
 1485SOL     MW 5940   2.562   4.008   3.243 -0.6486  0.5746 -0.1660
 1486SOL     OW 5941   3.986   3.987   5.365 -0.2021 -0.1551  0.6417
 1486SOL    HW1 5942   3.961   3.917   5.426 -1.4955  0.2772  0.6238
 1486SOL    HW2 5943   3.933   4.062   5.392 -3.0132 -0.7080 -2.7653
 1486SOL     MW 5944   3.976   3.988   5.377 -0.7545 -0.1713  0.1807
 1487SOL     OW 5945   4.963   4.965   1.336  0.2049  0.0457  0.1255
 1487SOL    HW1 5946   4.907   4.911   1.391  0.0176  1.0300  0.9248
 1487SOL    HW2 5947   5.023   5.008   1.397  1.5392 -0.6161 -0.6599
 1487SOL     MW 5948   4.964   4.964   1.351  0.3593  0.0891  0.1274
 1488SOL     OW 5949   1.705   4.884   2.082 -0.6630  0.1336  0.1353
 1488SOL    HW1 5950   1.685   4.936   2.160  0.4851  3.0261 -1.3642
 1488SOL    HW2 5951   1.621   4.846   2.057 -2.0150  2.7635  0.3292
 1488SOL     MW 5952   1.691   4.886   2.089 -0.6904  0.8768 -0.0404
 1489SOL     OW 5953   3.497   1.639   4.928  0.6135 -0.2062 -0.3719
 1489SOL    HW1 5954   3.584   1.637   4.890  0.7972 -0.8856  0.0619
 1489SOL    HW2 5955   3.481   1.732   4.948  1.7814 -0.2302  0.7813
 1489SOL     MW 5956   3.506   1.651   4.926  0.7954 -0.3009 -0.1583
 1490SOL     OW 5957   2.629   1.524   5.037  0.2544 -0.1547 -0.5392
 1490SOL    HW1 5958   2.624   1.471   4.958 -0.2681 -0.6433 -0.1814
 1490SOL    HW2 5959   2.578   1.603   5.017  2.3055  0.9780 -1.6350
 1490SOL     MW 5960   2.622   1.527   5.024  0.4601 -0.0680 -0.6385
 1491SOL     OW 5961   3.267   4.450   1.257  0.2351 -0.1313  0.1084
 1491SOL    HW1 5962   3.182   4.436   1.215 -1.3533 -0.4989  3.2018
 1491SOL    HW2 5963   3.260   4.536   1.298  0.8760 -0.6924  1.4327
 1491SOL     MW 5964   3.255   4.460   1.257  0.1076 -0.2563  0.7030
 1492SOL     OW 5965   0.094   4.551   1.543 -0.1687  0.1008  0.3475
 1492SOL    HW1 5966   0.069   4.567   1.634 -0.6207 -1.3832  0.5024
 1492SOL    HW2 5967   0.096   4.639   1.503 -2.2876  0.5967  1.1912
 1492SOL     MW 5968   0.091   4.565   1.550 -0.5147 -0.0322  0.4819
 1493SOL     OW 5969   3.668   1.468   3.600 -0.0597  0.3615 -0.3556
 1493SOL    HW1 5970   3.743   1.436   3.649  0.0042  0.0704 -0.6395
 1493SOL    HW2 5971   3.597   1.475   3.664  0.3203  1.0295 -0.0020
 1493SOL     MW 5972   3.668   1.465   3.615  0.0001  0.4122 -0.3462
 1494SOL     OW 5973   1.789   5.283   2.294 -0.5117 -0.3830  0.0109
 1494SOL    HW1 5974   1.862   5.238   2.251 -0.1081 -0.4579  0.7616
 1494SOL    HW2 5975   1.807   5.274   2.388 -0.7999  0.7380  0.1840
 1494SOL     MW 5976   1.801   5.276   2.301 -0.4962 -0.2422  0.1352
 1495SOL     OW 5977   1.711   1.378   0.210 -0.3059 -0.2567  0.0756
 1495SOL    HW1 5978   1.705   1.325   0.290 -0.9995  1.4458  1.2106
 1495SOL    HW2 5979   1.748   1.462   0.240 -1.8228  0.8930 -1.1223
 1495SOL     MW 5980   1.715   1.382   0.225 -0.6034  0.1272  0.0672
 1496SOL     OW 5981   0.639   2.148   0.744  0.2235  0.2440  0.5250
 1496SOL    HW1 5982   0.547   2.128   0.763 -0.0903 -0.2154 -1.3018
 1496SOL    HW2 5983   0.637   2.231   0.698  0.6318 -0.1452 -0.2232
 1496SOL     MW 5984   0.626   2.156   0.741  0.2362  0.1298  0.1784
 1497SOL     OW 5985   3.700   3.411   4.893  0.5988 -0.0842 -0.2673
 1497SOL    HW1 5986   3.664   3.357   4.963 -0.4550  0.7394 -0.1420
 1497SOL    HW2 5987   3.755   3.352   4.842 -0.3476 -1.2091 -0.0128
 1497SOL     MW 5988   3.702   3.396   4.896  0.3296 -0.1247 -0.2162
 1498SOL     OW 5989   5.032   0.985   0.012 -0.1285  0.1321  0.2844
 1498SOL    HW1 5990   5.095   1.034  -0.039 -0.8103 -1.1502 -1.9120
 1498SOL    HW2 5991   4.986   1.051   0.064  0.3791  1.5461 -0.9927
 1498SOL     MW 5992   5.034   1.000   0.012 -0.1520  0.1498 -0.1831
 1499SOL     OW 5993   2.496   2.651   0.930 -0.2801 -0.2805  0.1324
 1499SOL    HW1 5994   2.428   2.689   0.986 -1.1599 -0.9608 -0.4417
 1499SOL    HW2 5995   2.458   2.569   0.899 -0.0354  0.2948 -1.8522
 1499SOL     MW 5996   2.482   2.645   0.933 -0.3656 -0.2946 -0.2120
 1500SOL     OW 5997   0.531   3.528   4.262 -0.0735  0.8112 -0.3100
 1500SOL    HW1 5998   0.505   3.465   4.329 -0.3926  1.1308 -0.1309
 1500SOL    HW2 5999   0.482   3.502   4.184 -1.4335  1.7716  0.1839
 1500SOL     MW 6000   0.521   3.516   4.260 -0.2995  0.9835 -0.2194
 1501SOL     OW 6001   4.096   3.077   3.617  0.0693 -0.9852 -0.4606
 1501SOL    HW1 6002   4.160   3.077   3.546  0.8765  0.6767  0.1918
 1501SOL    HW2 6003   4.105   2.992   3.659  0.8338 -1.3168 -1.2780
 1501SOL     MW 6004   4.106   3.066   3.613  0.2808 -0.8062 -0.4828
 1502SOL     OW 6005   4.528   2.811   3.917  0.6198  0.0415  0.1333
 1502SOL    HW1 6006   4.493   2.724   3.896 -0.3815  0.6952 -0.9607
 1502SOL    HW2 6007   4.553   2.848   3.833  1.7118  0.5661  0.6619
 1502SOL     MW 6008   4.527   2.804   3.903  0.6320  0.2000  0.0572
 1503SOL     OW 6009   0.509   3.920   0.451  0.4209  0.1013 -0.5214
 1503SOL    HW1 6010   0.560   3.862   0.507 -0.0842 -0.2573 -0.4262
 1503SOL    HW2 6011   0.418   3.902   0.474  0.2560  0.9164 -0.5078
 1503SOL     MW 6012   0.504   3.910   0.461  0.3307  0.1627 -0.5067
 1504SOL     OW 6013   0.355   3.969   4.243 -0.1538  0.1855 -0.0673
 1504SOL    HW1 6014   0.369   3.891   4.298  2.1985 -0.1876 -1.0665
 1504SOL    HW2 6015   0.261   3.968   4.224 -0.8623 -0.3480  2.8738
 1504SOL     MW 6016   0.344   3.958   4.248  0.0674  0.0635  0.1941
 1505SOL     OW 6017   5.129   3.690   2.586 -0.6599 -0.5859  0.5334
 1505SOL    HW1 6018   5.156   3.717   2.673 -1.5255  0.1519  0.5865
 1505SOL    HW2 6019   5.100   3.599   2.597 -0.7066 -0.5164  0.9930
 1505SOL     MW 6020   5.129   3.681   2.599 -0.7827 -0.4773  0.6024
 1506SOL     OW 6021   3.907   3.597   0.205 -0.5546  0.2622 -0.5295
 1506SOL    HW1 6022   3.967   3.647   0.261 -1.8512 -0.1463  1.3292
 1506SOL    HW2 6023   3.828   3.586   0.258 -2.4992  1.1621 -3.0129
 1506SOL     MW 6024   3.904   3.602   0.220 -0.9908  0.3283 -0.6136
 1507SOL     OW 6025   3.384   0.338   1.314  0.3456  0.0709 -0.2568
 1507SOL    HW1 6026   3.356   0.324   1.224  1.1154  0.9644 -0.6559
 1507SOL    HW2 6027   3.479   0.327   1.312  0.4850  1.0441  0.2366
 1507SOL     MW 6028   3.393   0.335   1.302  0.4679  0.3221 -0.2441
 1508SOL     OW 6029   1.692   0.883   0.131 -0.0795  0.1347 -0.3217
 1508SOL    HW1 6030   1.685   0.793   0.164 -1.8156  0.0283 -0.8582
 1508SOL    HW2 6031   1.751   0.876   0.056  0.0121 -0.5079 -0.1987
 1508SOL     MW 6032   1.699   0.870   0.125 -0.3008  0.0339 -0.3773
 1509SOL     OW 6033   0.833   0.875   4.662 -0.3153  0.4036 -0.0421
 1509SOL    HW1 6034   0.753   0.834   4.693 -0.6715  1.3331  0.3086
 1509SOL    HW2 6035   0.804   0.941   4.599 -0.1530  2.7585  2.1429
 1509SOL     MW 6036   0.819   0.879   4.658 -0.3414  0.8456  0.2992
 1510SOL     OW 6037   2.943   4.872   1.294 -0.1909  0.1950 -0.3670
 1510SOL    HW1 6038   2.849   4.869   1.314  0.1186 -0.5540  1.1172
 1510SOL    HW2 6039   2.971   4.958   1.324 -0.4787  0.6221 -1.2789
 1510SOL     MW 6040   2.934   4.883   1.301 -0.1880  0.1517 -0.2900
 1511SOL     OW 6041   2.166   5.208   3.090  0.1164  0.4086 -0.5107
 1511SOL    HW1 6042   2.243   5.153   3.106 -0.2453  0.3980  1.3601
 1511SOL    HW2 6043   2.121   5.165   3.017 -0.0803 -1.7678  0.8032
 1511SOL     MW 6044   2.170   5.195   3.082  0.0412  0.1143 -0.0821
 1512SOL     OW 6045   0.056   3.517   1.548 -0.1525  0.1096 -0.3400
 1512SOL    HW1 6046   0.114   3.555   1.483  0.6980  0.0958  0.3848
 1512SOL    HW2 6047   0.115   3.477   1.613 -0.9236  1.0969  1.0235
 1512SOL     MW 6048   0.072   3.516   1.548 -0.1418  0.2406 -0.0590
 1513SOL     OW 6049   4.963   2.959   3.652  0.4228 -0.0878  0.1996
 1513SOL    HW1 6050   4.971   3.044   3.696  1.3748  0.0635 -0.2534
 1513SOL    HW2 6051   5.036   2.907   3.686 -1.2480 -1.4403  1.9790
 1513SOL     MW 6052   4.974   2.963   3.663  0.3260 -0.2495  0.3781
 1514SOL     OW 6053   1.622   0.738   4.382  0.0584 -0.8622  0.1889
 1514SOL    HW1 6054   1.551   0.762   4.322  0.6472 -0.5025 -0.3782
 1514SOL    HW2 6055   1.605   0.646   4.403  0.7301 -1.5077 -1.8463
 1514SOL     MW 6056   1.610   0.729   4.377  0.2280 -0.9007 -0.1613
 1515SOL     OW 6057   3.112   2.279   4.845 -0.4089 -0.0858 -0.2889
 1515SOL    HW1 6058   3.029   2.323   4.827 -0.3409  0.3101  0.3512
 1515SOL    HW2 6059   3.125   2.289   4.939 -0.0300 -0.8460 -0.2549
 1515SOL     MW 6060   3.103   2.287   4.855 -0.3488 -0.1348 -0.1982
 1516SOL     OW 6061   3.339   3.316   1.326 -0.2732 -0.3340 -0.0078
 1516SOL    HW1 6062   3.352   3.410   1.314  1.3340 -0.3857  0.9545
 1516SOL    HW2 6063   3.285   3.289   1.252  1.1169  0.9666 -1.5684
 1516SOL     MW 6064   3.334   3.325   1.315  0.1302 -0.1659 -0.0883
 1517SOL     OW 6065   0.268   2.720   4.024 -0.3883 -0.6332  0.5334
 1517SOL    HW1 6066   0.280   2.773   4.103 -0.0124  1.4155 -0.8225
 1517SOL    HW2 6067   0.331   2.756   3.962 -1.5430 -1.3490 -1.1087
 1517SOL     MW 6068   0.278   2.732   4.026 -0.4931 -0.4538  0.1299
 1518SOL     OW 6069   3.645   2.311   3.980  0.3637 -0.3720 -0.2212
 1518SOL    HW1 6070   3.566   2.347   3.941  0.2876 -0.9692 -0.6405
 1518SOL    HW2 6071   3.712   2.378   3.966  0.0506 -0.0799 -0.3183
 1518SOL     MW 6072   3.644   2.325   3.973  0.3113 -0.4130 -0.2907
 1519SOL     OW 6073   1.246   4.733   0.863 -0.6369 -0.5891 -0.4187
 1519SOL    HW1 6074   1.202   4.665   0.813 -0.1609 -0.8135 -0.5345
 1519SOL    HW2 6075   1.332   4.741   0.822  0.4671 -2.0525  1.4711
 1519SOL     MW 6076   1.252   4.725   0.851 -0.4242 -0.8162 -0.1800
 1520SOL     OW 6077   2.569   3.859   5.203 -0.2050  0.7789 -0.1358
 1520SOL    HW1 6078   2.664   3.860   5.211 -0.1004 -0.4372 -0.9100
 1520SOL    HW2 6079   2.545   3.767   5.215 -0.9682  0.5441 -2.8276
 1520SOL     MW 6080   2.578   3.847   5.205 -0.2936  0.5836 -0.6023
 1521SOL     OW 6081   5.500   5.312   2.618  0.2570 -0.7869 -0.3905
 1521SOL    HW1 6082   5.484   5.362   2.698  2.3601 -0.3394 -0.2144
 1521SOL    HW2 6083   5.444   5.234   2.627 -2.6995  1.1767 -0.4373
 1521SOL     MW 6084   5.490   5.308   2.630  0.1422 -0.4624 -0.3731
 1522SOL     OW 6085   4.152   1.804   3.633  0.0700 -0.3761  0.0510
 1522SOL    HW1 6086   4.124   1.738   3.569 -1.0034 -1.5794  1.6971
 1522SOL    HW2 6087   4.081   1.809   3.696  1.1500  0.6663  1.2575
 1522SOL     MW 6088   4.139   1.796   3.633  0.0709 -0.3978  0.4349
 1523SOL     OW 6089   5.237   2.166   4.747  0.6338  0.1051  0.3021
 1523SOL    HW1 6090   5.198   2.131   4.827  0.8770 -0.5600  0.1347
 1523SOL    HW2 6091   5.174   2.144   4.679  0.3114  0.8823  0.3361
 1523SOL     MW 6092   5.223   2.158   4.749  0.6231  0.1202  0.2842
 1524SOL     OW 6093   3.085   1.151   2.378  0.1917  0.4544  0.0580
 1524SOL    HW1 6094   3.012   1.195   2.334  0.2800  0.5050 -0.0396
 1524SOL    HW2 6095   3.105   1.076   2.323  0.9212  1.0408 -0.5125
 1524SOL     MW 6096   3.078   1.147   2.364  0.3017  0.5401 -0.0319
 1525SOL     OW 6097   3.637   1.097   1.668 -0.3277 -0.1143 -0.0978
 1525SOL    HW1 6098   3.620   1.082   1.761 -1.2933 -1.4249 -0.4544
 1525SOL    HW2 6099   3.629   1.192   1.657 -1.8723 -0.1032  0.8656
 1525SOL     MW 6100   3.634   1.108   1.679 -0.6655 -0.2892 -0.0162
 1526SOL     OW 6101   0.044   4.988   5.287  0.3560  0.1294 -0.4530
 1526SOL    HW1 6102  -0.049   4.983   5.265 -1.0294  0.1497  4.2946
 1526SOL    HW2 6103   0.074   4.897   5.288 -0.7301 -0.2604  1.5327
 1526SOL     MW 6104   0.035   4.975   5.284  0.0234  0.0796  0.4532
 1527SOL     OW 6105   0.097   4.985   0.290  0.7414  0.3940 -0.2283
 1527SOL    HW1 6106   0.074   5.029   0.208 -0.2331  0.8519  0.2756
 1527SOL    HW2 6107   0.180   4.940   0.271  0.0256 -0.3385 -1.7616
 1527SOL     MW 6108   0.105   4.984   0.277  0.5139  0.3571 -0.3669
 1528SOL     OW 6109   3.046   3.232   5.140 -0.0036  0.4161  0.3839
 1528SOL    HW1 6110   3.100   3.266   5.069 -0.0595 -0.5815 -0.1534
 1528SOL    HW2 6111   3.106   3.178   5.192 -0.4018 -0.4943 -0.0752
 1528SOL     MW 6112   3.062   3.229   5.138 -0.0647  0.1593  0.2498
 1529SOL     OW 6113   2.189   3.914   1.476  0.3172  0.1462  0.1371
 1529SOL    HW1 6114   2.273   3.886   1.439 -0.0552  0.7148 -1.2063
 1529SOL    HW2 6115   2.213   3.985   1.536  0.8117  0.1482 -0.0539
 1529SOL     MW 6116   2.204   3.920   1.479  0.3336  0.2230 -0.0694
 1530SOL     OW 6117   2.095   4.543   2.450 -0.0822 -0.5511  0.6556
 1530SOL    HW1 6118   2.120   4.458   2.487  0.5825 -0.2957  0.8127
 1530SOL    HW2 6119   2.163   4.563   2.387 -0.3214 -0.2048  0.5024
 1530SOL     MW 6120   2.107   4.534   2.447 -0.0250 -0.4701  0.6562
 1531SOL     OW 6121   2.305   5.208   4.372  0.0971 -0.5241  0.2299
 1531SOL    HW1 6122   2.309   5.141   4.304 -1.6470  0.2336 -0.6593
 1531SOL    HW2 6123   2.296   5.291   4.325 -0.2283  0.0998  1.3514
 1531SOL     MW 6124   2.304   5.210   4.357 -0.1814 -0.3382  0.2612
 1532SOL     OW 6125   1.274   1.871   3.634  0.2569 -0.3438 -0.1234
 1532SOL    HW1 6126   1.180   1.891   3.637  0.0767 -1.1967  0.2964
 1532SOL    HW2 6127   1.278   1.777   3.614  1.0424 -0.1723 -0.8297
 1532SOL     MW 6128   1.262   1.861   3.632  0.3384 -0.4355 -0.1619
 1533SOL     OW 6129   3.852   1.957   4.925  0.0122  0.1903 -0.3051
 1533SOL    HW1 6130   3.798   1.900   4.870 -1.5222  2.1979 -1.0188
 1533SOL    HW2 6131   3.860   2.037   4.873 -0.6923  1.8271  1.9779
 1533SOL     MW 6132   3.846   1.960   4.910 -0.2891  0.6808 -0.0939
 1534SOL     OW 6133   2.692   2.958   1.036 -0.2805  0.5814  0.3912
 1534SOL    HW1 6134   2.600   2.982   1.032 -0.5647 -0.6226 -0.7221
 1534SOL    HW2 6135   2.693   2.865   1.058  0.5779  0.1099 -1.4313
 1534SOL     MW 6136   2.680   2.949   1.039 -0.2032  0.3559 -0.0039
 1535SOL     OW 6137   3.577   2.802   1.579 -0.0192  0.2194 -0.2611
 1535SOL    HW1 6138   3.654   2.769   1.532 -0.7755 -1.1038 -0.6456
 1535SOL    HW2 6139   3.517   2.727   1.580  0.2249 -0.1111  3.5100
 1535SOL     MW 6140   3.579   2.787   1.573 -0.0881 -0.0032  0.1947
 1536SOL     OW 6141   2.479   2.028   0.041 -0.1201  0.6322  0.1533
 1536SOL    HW1 6142   2.407   2.017  -0.021 -0.5135  0.2521  0.6620
 1536SOL    HW2 6143   2.484   2.122   0.056 -0.8884  0.6218  0.5341
 1536SOL     MW 6144   2.470   2.039   0.035 -0.2764  0.5796  0.2730
 1537SOL     OW 6145   3.028   2.602   0.566  0.2491 -0.4878  0.3117
 1537SOL    HW1 6146   3.092   2.670   0.586  0.6045 -0.3793 -1.1388
 1537SOL    HW2 6147   2.951   2.627   0.616  0.9918 -0.0753  1.2976
 1537SOL     MW 6148   3.027   2.614   0.576  0.3969 -0.4177  0.2492
 1538SOL     OW 6149   1.556   3.066   5.109  0.3840 -1.0652  0.6577
 1538SOL    HW1 6150   1.493   2.995   5.094 -2.3882  0.6622  3.0301
 1538SOL    HW2 6151   1.572   3.103   5.023 -0.1029 -2.9313 -0.2898
 1538SOL     MW 6152   1.550   3.061   5.096 -0.0546 -1.0839  0.8494
 1539SOL     OW 6153   5.233   2.507   4.986 -0.0370  0.6352 -0.3306
 1539SOL    HW1 6154   5.304   2.443   4.980 -0.9397 -0.3781 -0.5422
 1539SOL    HW2 6155   5.273   2.590   4.961  0.9374 -0.0144 -0.9848
 1539SOL     MW 6156   5.248   2.510   4.982 -0.0273  0.4114 -0.4471
 1540SOL     OW 6157   0.405   5.123   1.377 -0.0521  0.2998  0.3529
 1540SOL    HW1 6158   0.500   5.120   1.385  0.1254 -0.0929 -1.3460
 1540SOL    HW2 6159   0.390   5.137   1.283 -1.6635  1.0026  0.6939
 1540SOL     MW 6160   0.416   5.124   1.365 -0.2451  0.3415  0.1702
 1541SOL     OW 6161   4.631   5.218   1.956 -0.1467 -0.4981 -0.0770
 1541SOL    HW1 6162   4.617   5.188   2.046  1.6842 -0.4429  0.2583
 1541SOL    HW2 6163   4.691   5.291   1.964  0.6075 -0.9420 -1.3941
 1541SOL     MW 6164   4.637   5.224   1.969  0.2012 -0.5504 -0.2091
 1542SOL     OW 6165   2.642   1.085   5.058 -0.6237  0.3567 -0.0889
 1542SOL    HW1 6166   2.723   1.036   5.073 -0.3525  0.8531  0.1014
 1542SOL    HW2 6167   2.643   1.153   5.126 -1.4950 -0.0012  0.2983
 1542SOL     MW 6168   2.653   1.088   5.069 -0.7045  0.3754 -0.0112
 1543SOL     OW 6169   5.373   1.342   3.582  0.0006  0.2589  0.0562
 1543SOL    HW1 6170   5.468   1.327   3.577 -0.2739 -1.3287 -1.1031
 1543SOL    HW2 6171   5.334   1.256   3.570 -1.6153  0.8122  0.9886
 1543SOL     MW 6172   5.381   1.329   3.580 -0.2538  0.1197  0.0257
 1544SOL     OW 6173   2.835   1.551   3.618  0.1649 -0.0552  0.1011
 1544SOL    HW1 6174   2.799   1.538   3.530  0.4314 -1.1638  0.1366
 1544SOL    HW2 6175   2.770   1.605   3.663  0.2407  0.9030 -0.9062
 1544SOL     MW 6176   2.822   1.557   3.612  0.2110 -0.0754 -0.0297
 1545SOL     OW 6177   1.288   1.288   3.293  0.4211 -0.0976  0.5301
 1545SOL    HW1 6178   1.228   1.357   3.320 -2.6768 -2.6051  0.6395
 1545SOL    HW2 6179   1.287   1.292   3.197  1.4749  0.9153  0.5440
 1545SOL     MW 6180   1.280   1.297   3.284  0.1460 -0.2987  0.5467
 1546SOL     OW 6181   4.400   0.713   2.894 -0.7620 -0.3805  0.1854
 1546SOL    HW1 6182   4.379   0.791   2.946  2.0597 -0.3318  1.4589
 1546SOL    HW2 6183   4.394   0.743   2.803  0.6759  1.5073  0.6447
 1546SOL     MW 6184   4.396   0.728   2.889 -0.1887 -0.1199  0.4186
 1547SOL     OW 6185   4.718   3.658   5.159  0.4302  0.0431  0.3335
 1547SOL    HW1 6186   4.631   3.619   5.146 -0.3542  1.8482 -0.1404
 1547SOL    HW2 6187   4.734   3.650   5.253  0.3161 -1.3788  0.2585
 1547SOL     MW 6188   4.708   3.651   5.170  0.3093  0.0947  0.2596
 1548SOL     OW 6189   3.899   3.659   2.169 -0.5699  0.5590  0.3352
 1548SOL    HW1 6190   3.888   3.724   2.100 -1.1608  0.7680  0.6263
 1548SOL    HW2 6191   3.815   3.613   2.173 -0.2027 -0.1523  0.2095
 1548SOL     MW 6192   3.886   3.661   2.160 -0.6000  0.4914  0.3575
 1549SOL     OW 6193   5.128   5.066   0.368 -0.0340 -0.1363  0.6444
 1549SOL    HW1 6194   5.170   5.109   0.294  0.5983 -0.0424  1.0529
 1549SOL    HW2 6195   5.035   5.088   0.359  0.0084 -0.2637 -0.2112
 1549SOL     MW 6196   5.121   5.074   0.357  0.0568 -0.1408  0.5842
 1550SOL     OW 6197   4.311   5.081   1.456 -0.5023 -0.3040  0.4851
 1550SOL    HW1 6198   4.401   5.091   1.424  0.2793 -2.9980  1.5184
 1550SOL    HW2 6199   4.265   5.036   1.385 -1.0681  1.0642 -0.0391
 1550SOL     MW 6200   4.317   5.076   1.442 -0.4733 -0.4824  0.5536
 1551SOL     OW 6201   2.817   3.864   0.974  0.4877  0.0169 -0.2909
 1551SOL    HW1 6202   2.884   3.797   0.967  0.6108 -0.0031  0.9341
 1551SOL    HW2 6203   2.864   3.944   0.998  0.1265  0.0932  0.1900
 1551SOL     MW 6204   2.832   3.866   0.976  0.4557  0.0244 -0.0613
 1552SOL     OW 6205   4.270   2.066   1.595  0.4461 -0.6672  0.3225
 1552SOL    HW1 6206   4.347   2.122   1.599 -0.9277  1.5597 -1.7723
 1552SOL    HW2 6207   4.211   2.099   1.663  0.7333 -1.4759  0.9912
 1552SOL     MW 6208   4.272   2.078   1.604  0.2999 -0.4763  0.1306
 1553SOL     OW 6209   3.263   3.490   2.747  0.1272  0.4970  0.4473
 1553SOL    HW1 6210   3.167   3.497   2.744  0.1658  0.8137 -0.0460
 1553SOL    HW2 6211   3.284   3.425   2.680  0.3937  1.8229 -0.7922
 1553SOL     MW 6212   3.253   3.482   2.738  0.1682  0.7180  0.2141
 1554SOL     OW 6213   3.700   2.041   3.613  0.4985 -0.1948 -0.1530
 1554SOL    HW1 6214   3.762   2.020   3.544  0.8919  3.3666 -1.0954
 1554SOL    HW2 6215   3.747   2.100   3.671 -0.9846 -0.0841  1.0039
 1554SOL     MW 6216   3.715   2.046   3.611  0.3518  0.2994 -0.1241
 1555SOL     OW 6217   5.190   3.774   2.822  0.4725  0.4738 -0.2757
 1555SOL    HW1 6218   5.144   3.737   2.898  0.4769  1.4620  0.2282
 1555SOL    HW2 6219   5.278   3.795   2.855  0.3438  1.2964 -0.4197
 1555SOL     MW 6220   5.196   3.772   2.837  0.4558  0.7175 -0.2273
 1556SOL     OW 6221   5.448   5.443   2.380  0.1536  0.6137 -0.2260
 1556SOL    HW1 6222   5.373   5.391   2.350  0.0230  1.1802 -0.9086
 1556SOL    HW2 6223   5.477   5.399   2.460  0.8299 -1.2344 -1.4263
 1556SOL     MW 6224   5.442   5.430   2.387  0.2270  0.4412 -0.4794
 1557SOL     OW 6225   3.579   1.095   1.339  0.3553  0.1088  0.2406
 1557SOL    HW1 6226   3.551   1.007   1.314 -1.0407  0.5682  0.1019
 1557SOL    HW2 6227   3.555   1.102   1.431  0.4096  0.3611  0.2352
 1557SOL     MW 6228   3.572   1.084   1.348  0.1747  0.2046  0.2212
 1558SOL     OW 6229   5.283   5.099   3.607  0.1629  0.0109  0.1550
 1558SOL    HW1 6230   5.329   5.181   3.589  1.2831 -0.5131  0.5204
 1558SOL    HW2 6231   5.242   5.113   3.693  1.2603 -0.1599  0.7332
 1558SOL     MW 6232   5.284   5.112   3.616  0.4614 -0.0827  0.2820
 1559SOL     OW 6233   0.103   2.592   4.432  0.1938 -0.0879  0.2064
 1559SOL    HW1 6234   0.025   2.628   4.391  1.6373  2.9528 -0.1928
 1559SOL    HW2 6235   0.090   2.608   4.526 -0.1777 -0.6958  0.2578
 1559SOL     MW 6236   0.091   2.599   4.439  0.3380  0.2395  0.1596
 1560SOL     OW 6237   4.973   1.589   0.903 -0.5262  0.1661 -0.2523
 1560SOL    HW1 6238   5.057   1.543   0.905 -1.0906 -1.0249 -1.8764
 1560SOL    HW2 6239   4.986   1.660   0.841 -0.2293  1.1101  0.8397
 1560SOL     MW 6240   4.986   1.592   0.895 -0.5622  0.1329 -0.3239
 1561SOL     OW 6241   3.257   0.465   2.097  0.5840 -0.2027 -0.2677
 1561SOL    HW1 6242   3.323   0.407   2.135  1.2055  0.4005 -0.4067
 1561SOL    HW2 6243   3.246   0.534   2.162 -2.1375 -1.8262  1.1594
 1561SOL     MW 6244   3.264   0.467   2.111  0.3014 -0.3400 -0.0943
 1562SOL     OW 6245   4.440   0.023   2.880  0.0433 -0.2988 -0.3218
 1562SOL    HW1 6246   4.480  -0.056   2.916  0.3731 -0.9569 -2.0068
 1562SOL    HW2 6247   4.490   0.095   2.919 -0.7329 -0.8444  1.8018
 1562SOL     MW 6248   4.452   0.022   2.890 -0.0168 -0.4608 -0.2628
 1563SOL     OW 6249   2.916   1.693   3.922  0.5849  0.3044 -0.5019
 1563SOL    HW1 6250   2.993   1.671   3.973  0.9617 -0.2513 -1.2780
 1563SOL    HW2 6251   2.862   1.746   3.980  0.1803 -1.7449  1.1073
 1563SOL     MW 6252   2.919   1.697   3.936  0.5811 -0.0462 -0.3898
 1564SOL     OW 6253   4.504   1.571   1.972  0.1028 -0.7069  0.0641
 1564SOL    HW1 6254   4.421   1.540   1.934 -0.3061 -0.2329  0.5499
 1564SOL    HW2 6255   4.567   1.503   1.949 -0.1328 -0.4615 -1.4279
 1564SOL     MW 6256   4.501   1.558   1.964  0.0161 -0.6101 -0.0713
 1565SOL     OW 6257   4.973   1.771   0.682  0.1053  0.6966 -0.2160
 1565SOL    HW1 6258   4.912   1.841   0.659  1.2047  1.8694  0.3137
 1565SOL    HW2 6259   4.962   1.706   0.612 -2.5356  0.2944  0.4600
 1565SOL     MW 6260   4.964   1.771   0.669 -0.1022  0.8003 -0.0538
 1566SOL     OW 6261   0.062   2.327   3.736 -0.1407 -0.8986 -0.2972
 1566SOL    HW1 6262   0.137   2.269   3.749  1.8893  1.3395 -1.3158
 1566SOL    HW2 6263   0.040   2.358   3.824  1.9629  0.4920 -0.2004
 1566SOL     MW 6264   0.069   2.323   3.750  0.4156 -0.4103 -0.4213
 1567SOL     OW 6265   2.195   5.487   1.482  0.0081 -0.1702  0.4613
 1567SOL    HW1 6266   2.174   5.580   1.491 -0.2592 -0.3207  1.4908
 1567SOL    HW2 6267   2.279   5.477   1.525  0.2687 -0.3250 -0.0735
 1567SOL     MW 6268   2.203   5.498   1.489  0.0072 -0.2113  0.5279
 1568SOL     OW 6269   2.739   4.937   0.752  0.1347  0.2431  0.4153
 1568SOL    HW1 6270   2.682   4.891   0.813  1.6973 -0.0185  1.7764
 1568SOL    HW2 6271   2.823   4.942   0.798  0.9046  1.5751 -1.0376
 1568SOL     MW 6272   2.743   4.932   0.767  0.4486  0.3872  0.4030
 1569SOL     OW 6273   1.852   1.103   4.005  0.1262  0.4253  0.1210
 1569SOL    HW1 6274   1.874   1.189   3.972  1.6814 -0.0387 -0.1317
 1569SOL    HW2 6275   1.937   1.060   4.020 -0.6038 -1.2055 -0.1617
 1569SOL     MW 6276   1.866   1.108   4.003  0.2373  0.1434  0.0490
 1570SOL     OW 6277   0.621   0.689   4.750  0.2140 -0.0549  0.5151
 1570SOL    HW1 6278   0.640   0.635   4.674 -0.7778 -1.5612  1.2966
 1570SOL    HW2 6279   0.569   0.761   4.715 -0.4407 -0.8557 -0.2036
 1570SOL     MW 6280   0.617   0.692   4.735 -0.0076 -0.3654  0.5236
 1571SOL     OW 6281   0.994   4.556   0.907  0.6149  0.9112  0.0072
 1571SOL    HW1 6282   0.953   4.638   0.879  1.2742  1.0742 -0.5253
 1571SOL    HW2 6283   1.005   4.565   1.001 -1.6488  0.3608  0.3767
 1571SOL     MW 6284   0.990   4.568   0.916  0.3990  0.8591 -0.0147
 1572SOL     OW 6285   1.780   1.175   5.408 -0.2342 -0.8034 -0.3117
 1572SOL    HW1 6286   1.837   1.212   5.341  0.2499 -3.5331 -1.5067
 1572SOL    HW2 6287   1.837   1.165   5.484  0.1153 -0.8882 -0.5839
 1572SOL     MW 6288   1.796   1.179   5.409 -0.1220 -1.1822 -0.5091
 1573SOL     OW 6289   3.311   4.233   1.806 -0.0170 -0.8682  0.4542
 1573SOL    HW1 6290   3.299   4.285   1.886 -0.0538 -0.0337 -0.0764
 1573SOL    HW2 6291   3.335   4.298   1.740 -2.5151 -1.1635 -0.8482
 1573SOL     MW 6292   3.313   4.249   1.808 -0.3582 -0.7956  0.2075
 1574SOL     OW 6293   4.634   0.697   0.588  0.1864 -0.1929  0.4257
 1574SOL    HW1 6294   4.615   0.683   0.496  2.6916  0.2495 -0.2132
 1574SOL    HW2 6295   4.627   0.610   0.627 -2.6275 -0.1408  0.2687
 1574SOL     MW 6296   4.630   0.683   0.581  0.1449 -0.1264  0.3186
 1575SOL     OW 6297   5.347   1.991   3.637  0.5759 -0.0265 -0.0829
 1575SOL    HW1 6298   5.388   2.033   3.713  0.6330  0.0975 -0.1819
 1575SOL    HW2 6299   5.258   2.026   3.636  0.5115 -0.1824  0.0445
 1575SOL     MW 6300   5.340   2.001   3.647  0.5749 -0.0308 -0.0791
 1576SOL     OW 6301   5.534   3.044   2.453 -0.3196 -0.2009 -0.2071
 1576SOL    HW1 6302   5.479   3.046   2.375 -1.5816  0.2634  0.6499
 1576SOL    HW2 6303   5.499   3.114   2.508  1.5770  0.5666  0.1084
 1576SOL     MW 6304   5.522   3.054   2.450 -0.2342 -0.0351 -0.0493
 1577SOL     OW 6305   0.073   4.144   4.455  0.2223  0.3709  0.0764
 1577SOL    HW1 6306   0.043   4.218   4.508  0.2178  1.9897 -2.0722
 1577SOL    HW2 6307   0.038   4.161   4.368  0.9929 -1.7258 -0.6988
 1577SOL     MW 6308   0.064   4.156   4.450  0.3254  0.3066 -0.3171
 1578SOL     OW 6309   4.165   2.988   2.490 -0.1689 -0.1579 -0.3516
 1578SOL    HW1 6310   4.229   2.943   2.545  1.1245  0.8249 -0.9829
 1578SOL    HW2 6311   4.100   3.021   2.552  0.0527 -0.9860  0.3452
 1578SOL     MW 6312   4.165   2.987   2.506  0.0350 -0.1371 -0.3428
 1579SOL     OW 6313   2.266   0.213   5.228  0.5053 -0.4954 -0.0713
 1579SOL    HW1 6314   2.265   0.309   5.228  2.4898 -0.2685  3.6887
 1579SOL    HW2 6315   2.181   0.188   5.263  0.3240 -0.0385 -0.1817
 1579SOL     MW 6316   2.255   0.223   5.233  0.7479 -0.4034  0.4199
 1580SOL     OW 6317   5.117   3.388   2.898  0.2496  0.0971 -0.2996
 1580SOL    HW1 6318   5.105   3.392   2.803  1.5315 -0.0456 -0.4750
 1580SOL    HW2 6319   5.060   3.316   2.925  1.0873 -0.9433 -1.1842
 1580SOL     MW 6320   5.107   3.379   2.888  0.5349 -0.0621 -0.4422
 1581SOL     OW 6321   5.113   2.071   5.008  0.3778  0.3271 -0.3973
 1581SOL    HW1 6322   5.187   2.082   5.067 -0.4308  1.0189  0.5203
 1581SOL    HW2 6323   5.124   1.984   4.971  2.2967  0.8744 -1.2047
 1581SOL     MW 6324   5.124   2.061   5.011  0.5272  0.4938 -0.3825
 1582SOL     OW 6325   0.121   5.250   3.043 -0.3694 -0.5023  0.5306
 1582SOL    HW1 6326   0.086   5.305   3.113 -0.6640 -0.6960  0.5373
 1582SOL    HW2 6327   0.170   5.310   2.988 -0.9073 -0.1804  0.3922
 1582SOL     MW 6328   0.123   5.265   3.045 -0.4814 -0.4850  0.5129
 1583SOL     OW 6329   0.191   2.614   1.418  0.6088 -0.2403 -0.0435
 1583SOL    HW1 6330   0.152   2.639   1.334 -2.0925  0.6655  1.3332
 1583SOL    HW2 6331   0.140   2.538   1.446  2.0020 -1.0217  0.4438
 1583SOL     MW 6332   0.179   2.608   1.410  0.4328 -0.2235  0.2073
 1584SOL     OW 6333   2.664   0.096   0.529  0.9559  0.0600  0.5531
 1584SOL    HW1 6334   2.617   0.179   0.539  1.2277  0.2933 -0.0395
 1584SOL    HW2 6335   2.748   0.121   0.490  0.7586 -0.5708 -0.2890
 1584SOL     MW 6336   2.669   0.110   0.525  0.9660  0.0065  0.3601
 1585SOL     OW 6337   4.180   2.037   0.242  0.6372  0.0386  0.4021
 1585SOL    HW1 6338   4.259   2.087   0.264  0.5659  0.9130 -1.2101
 1585SOL    HW2 6339   4.175   1.970   0.310  2.3523  0.4302  0.9704
 1585SOL     MW 6340   4.190   2.035   0.254  0.8585  0.2090  0.2616
 1586SOL     OW 6341   1.650   4.826   0.180 -0.0820  0.3135 -0.1275
 1586SOL    HW1 6342   1.707   4.809   0.105  0.8064  1.2336  0.3195
 1586SOL    HW2 6343   1.596   4.900   0.153 -0.9418 -0.4259 -0.4721
 1586SOL     MW 6344   1.651   4.833   0.166 -0.0781  0.3378 -0.1137
 1587SOL     OW 6345   2.913   1.517   1.643 -0.4051 -0.1103  0.1305
 1587SOL    HW1 6346   2.993   1.528   1.591 -0.1890 -0.0138  0.4783
 1587SOL    HW2 6347   2.843   1.507   1.578 -0.1533  0.1117 -0.1794
 1587SOL     MW 6348   2.914   1.517   1.627 -0.3421 -0.0675  0.1356
 1588SOL     OW 6349   4.645   0.399   4.134 -0.1495 -0.4772 -0.1431
 1588SOL    HW1 6350   4.610   0.400   4.044 -0.5681  0.3931  0.0169
 1588SOL    HW2 6351   4.567   0.394   4.190  0.1666 -3.0508  0.1771
 1588SOL     MW 6352   4.630   0.399   4.129 -0.1633 -0.7064 -0.0785
 1589SOL     OW 6353   4.287   0.375   0.155 -0.2785 -0.2022 -0.3251
 1589SOL    HW1 6354   4.311   0.399   0.065  1.1316  0.9050  0.2949
 1589SOL    HW2 6355   4.367   0.392   0.206 -0.8017 -1.5641  1.0141
 1589SOL     MW 6356   4.301   0.381   0.150 -0.1591 -0.2365 -0.0614
 1590SOL     OW 6357   1.572   3.580   1.818 -0.2454 -0.4427 -0.2256
 1590SOL    HW1 6358   1.570   3.644   1.747  1.3706 -0.0517  0.0480
 1590SOL    HW2 6359   1.480   3.565   1.839 -0.6833  1.5997 -0.4725
 1590SOL     MW 6360   1.559   3.586   1.812 -0.0869 -0.1152 -0.2220
 1591SOL     OW 6361   2.286   2.810   4.665  0.6060 -0.2355  0.0888
 1591SOL    HW1 6362   2.336   2.860   4.601  0.7756  0.6387  0.8709
 1591SOL    HW2 6363   2.195   2.837   4.651  0.7198  0.4822  0.6452
 1591SOL     MW 6364   2.281   2.821   4.655  0.6441 -0.0213  0.2689
 1592SOL     OW 6365   4.701   3.635   2.513  0.3079 -0.5825  0.3664
 1592SOL    HW1 6366   4.767   3.695   2.549  1.7187  0.2066 -3.1075
 1592SOL    HW2 6367   4.619   3.684   2.518  1.1316  1.0417 -0.7795
 1592SOL     MW 6368   4.699   3.650   2.518  0.6086 -0.2577 -0.2553
 1593SOL     OW 6369   5.150   0.575   3.587  0.4135  0.1735 -0.2078
 1593SOL    HW1 6370   5.133   0.598   3.678 -0.3936 -1.4733  0.0808
 1593SOL    HW2 6371   5.196   0.652   3.552 -0.1294  1.2445  1.3013
 1593SOL     MW 6372   5.154   0.589   3.594  0.2318  0.0960  0.0341
 1594SOL     OW 6373   4.748   1.481   5.385  0.1470  0.1339 -0.1108
 1594SOL    HW1 6374   4.810   1.408   5.384 -0.0261 -0.0135 -0.7032
 1594SOL    HW2 6375   4.731   1.499   5.292  1.0145  1.6347 -0.0112
 1594SOL     MW 6376   4.754   1.474   5.372  0.2405  0.3160 -0.1772
 1595SOL     OW 6377   2.731   5.114   5.113  0.0704 -0.0778  0.0301
 1595SOL    HW1 6378   2.753   5.150   5.027  0.7493  0.0797  0.2675
 1595SOL    HW2 6379   2.640   5.140   5.127 -0.0490 -0.1232 -0.6512
 1595SOL     MW 6380   2.722   5.123   5.104  0.1457 -0.0627 -0.0297
 1596SOL     OW 6381   5.153   3.570   3.724 -0.8924  0.4368  0.3671
 1596SOL    HW1 6382   5.177   3.660   3.704  0.0225 -0.5973 -4.3038
 1596SOL    HW2 6383   5.218   3.541   3.787  1.2213  1.9727 -0.9754
 1596SOL     MW 6384   5.165   3.578   3.730 -0.4848  0.5043 -0.4422
 1597SOL     OW 6385   0.983   1.424   3.617  0.3358 -0.4422  0.3605
 1597SOL    HW1 6386   1.062   1.477   3.630  0.2641 -0.4131  0.6850
 1597SOL    HW2 6387   0.946   1.456   3.535  1.3774 -1.3564 -0.4901
 1597SOL     MW 6388   0.989   1.435   3.608  0.4663 -0.5613  0.2897
 1598SOL     OW 6389   0.181   3.748   5.156 -0.0413 -0.3046 -0.0215
 1598SOL    HW1 6390   0.194   3.829   5.206 -1.1214  1.0669 -1.8101
 1598SOL    HW2 6391   0.263   3.701   5.165  0.0015  0.1198  2.5243
 1598SOL     MW 6392   0.193   3.753   5.164 -0.1809 -0.0629  0.0804
 1599SOL     OW 6393   4.512   2.427   0.950  0.4354  0.2595  0.0435
 1599SOL    HW1 6394   4.571   2.490   0.909 -0.2097  0.8573  0.0094
 1599SOL    HW2 6395   4.474   2.475   1.024  0.3346 -0.2639  0.3336
 1599SOL     MW 6396   4.515   2.442   0.955  0.3350  0.2696  0.0780
 1600SOL     OW 6397   0.374   3.183   4.079  0.2043  0.1298 -0.2398
 1600SOL    HW1 6398   0.384   3.277   4.069  1.7717  0.0411  0.2846
 1600SOL    HW2 6399   0.324   3.173   4.161 -0.2686  0.4910 -0.4771
 1600SOL     MW 6400   0.368   3.194   4.089  0.3516  0.1665 -0.2011
 1601SOL     OW 6401   4.247   4.979   0.388  0.4151  0.2331 -0.4592
 1601SOL    HW1 6402   4.176   4.935   0.342  1.0959 -1.1921 -0.1930
 1601SOL    HW2 6403   4.322   4.975   0.327  1.0892 -0.9442  0.4101
 1601SOL     MW 6404   4.248   4.973   0.373  0.5974 -0.1172 -0.3064
 1602SOL     OW 6405   1.804   1.598   5.229  0.3435 -0.2730 -0.1220
 1602SOL    HW1 6406   1.755   1.557   5.158 -0.3745 -2.5731  1.6094
 1602SOL    HW2 6407   1.738   1.622   5.294  1.0659  1.1318  0.1414
 1602SOL     MW 6408   1.789   1.596   5.228  0.3441 -0.3935  0.1465
 1603SOL     OW 6409   3.285   3.917   3.813 -0.0732 -0.4947  0.1946
 1603SOL    HW1 6410   3.209   3.911   3.755 -1.0609  0.6778  1.3229
 1603SOL    HW2 6411   3.325   4.001   3.791  0.6023 -0.8599 -0.0105
 1603SOL     MW 6412   3.280   3.928   3.802 -0.1152 -0.3860  0.3189
 1604SOL     OW 6413   0.284   0.050   2.481  0.2244 -0.1986  0.1405
 1604SOL    HW1 6414   0.232   0.113   2.531 -2.6947 -1.2780 -1.2741
 1604SOL    HW2 6415   0.291  -0.026   2.539 -2.3015 -1.0735 -0.5339
 1604SOL     MW 6416   0.278   0.048   2.495 -0.5084 -0.4616 -0.1406
 1605SOL     OW 6417   0.414   4.774   2.538 -0.3637  0.2925  0.1379
 1605SOL    HW1 6418   0.423   4.704   2.473 -0.1865 -0.0124  0.4896
 1605SOL    HW2 6419   0.450   4.737   2.619  0.5452  1.0984  0.1148
 1605SOL     MW 6420   0.420   4.759   2.540 -0.2175  0.3600  0.1821
 1606SOL     OW 6421   5.405   4.435   4.235  1.1392  0.1100  0.6630
 1606SOL    HW1 6422   5.313   4.454   4.216  0.9335 -0.5688  0.9515
 1606SOL    HW2 6423   5.424   4.488   4.313  0.3149 -1.4844  1.9936
 1606SOL     MW 6424   5.395   4.445   4.243  1.0006 -0.1959  0.8809
 1607SOL     OW 6425   1.555   1.310   3.381 -0.2049  0.1997  0.1393
 1607SOL    HW1 6426   1.460   1.302   3.371 -0.1432 -2.0869  0.6449
 1607SOL    HW2 6427   1.589   1.235   3.331  1.2612  0.4556  0.7308
 1607SOL     MW 6428   1.546   1.299   3.373  0.0007 -0.0736  0.2870
 1608SOL     OW 6429   4.614   0.395   3.840  0.8315  0.1058 -0.2385
 1608SOL    HW1 6430   4.534   0.351   3.813 -1.0059  1.0733  3.0652
 1608SOL    HW2 6431   4.599   0.487   3.820  0.6847  0.4171  1.1943
 1608SOL     MW 6432   4.601   0.402   3.834  0.5645  0.2779  0.3990
 1609SOL     OW 6433   2.481   3.306   2.276  0.0643 -0.1220  0.0307
 1609SOL    HW1 6434   2.394   3.275   2.301 -0.1622 -0.0916 -0.6928
 1609SOL    HW2 6435   2.511   3.244   2.209  0.5620 -0.0790  0.2072
 1609SOL     MW 6436   2.473   3.293   2.270  0.1008 -0.1121 -0.0429
 1610SOL     OW 6437   4.317   0.036   4.252 -0.0767  0.1767 -0.2083
 1610SOL    HW1 6438   4.295   0.058   4.342  1.7176  2.7952 -0.3183
 1610SOL    HW2 6439   4.406   0.002   4.256  0.2694  0.9467 -1.0384
 1610SOL     MW 6440   4.326   0.034   4.264  0.2114  0.6327 -0.3349
 1611SOL     OW 6441   5.220   0.220   1.790  0.2652  0.4334 -0.1523
 1611SOL    HW1 6442   5.314   0.236   1.778  1.0815 -3.2472  0.1553
 1611SOL    HW2 6443   5.207   0.132   1.755 -2.4370 -0.4095  2.5975
 1611SOL     MW 6444   5.231   0.210   1.784  0.0114 -0.1754  0.2592
 1612SOL     OW 6445  -0.020   2.781   2.493  0.3791  0.1397 -0.7107
 1612SOL    HW1 6446   0.064   2.772   2.448  0.1399  1.6832 -1.5469
 1612SOL    HW2 6447  -0.030   2.875   2.506 -0.7164 -0.1000  0.3774
 1612SOL     MW 6448  -0.010   2.793   2.488  0.1995  0.3152 -0.6768
 1613SOL     OW 6449   4.283   3.775   1.263  0.1981 -0.2670 -0.0789
 1613SOL    HW1 6450   4.346   3.767   1.335 -0.8081  0.8049  0.9416
 1613SOL    HW2 6451   4.332   3.819   1.194  1.0474 -0.9208  0.0769
 1613SOL     MW 6452   4.298   3.780   1.264  0.1770 -0.2107  0.0794
 1614SOL     OW 6453   0.130   4.675   3.883  0.0781  0.1964  0.0836
 1614SOL    HW1 6454   0.162   4.680   3.793 -2.5087 -1.2584 -1.0466
 1614SOL    HW2 6455   0.072   4.750   3.892 -2.4501 -1.4901 -0.8265
 1614SOL     MW 6456   0.126   4.686   3.872 -0.6103 -0.2263 -0.1909
 1615SOL     OW 6457   0.962   4.255   0.715  0.4639 -0.1400  0.4708
 1615SOL    HW1 6458   0.941   4.218   0.629 -0.6826  1.4569  0.0252
 1615SOL    HW2 6459   1.045   4.300   0.702  0.1754  0.3039  0.1077
 1615SOL     MW 6460   0.970   4.256   0.701  0.2708  0.1347  0.3619
 1616SOL     OW 6461   2.896   0.144   0.326  0.2306  0.1754 -0.4321
 1616SOL    HW1 6462   2.880   0.089   0.250  0.1775 -0.3944 -0.0145
 1616SOL    HW2 6463   2.990   0.134   0.345 -0.0990 -1.1110  0.6535
 1616SOL     MW 6464   2.907   0.135   0.318  0.1791 -0.0744 -0.2298
 1617SOL     OW 6465   1.650   3.654   4.759  0.0128  0.3317 -0.0785
 1617SOL    HW1 6466   1.736   3.692   4.739 -0.1181  0.2980 -0.7209
 1617SOL    HW2 6467   1.668   3.588   4.826  0.5473  0.0562 -0.4877
 1617SOL     MW 6468   1.664   3.650   4.765  0.0671  0.2901 -0.2200
 1618SOL     OW 6469   0.847   3.966   3.899  0.1698 -0.6283 -0.3197
 1618SOL    HW1 6470   0.823   4.000   3.985 -0.1194  0.8996 -0.9761
 1618SOL    HW2 6471   0.940   3.945   3.907 -0.2982 -2.5426  0.9638
 1618SOL     MW 6472   0.856   3.968   3.912  0.0679 -0.6803 -0.2353
 1619SOL     OW 6473   1.560   1.940   2.788 -0.0846 -0.4398  0.6618
 1619SOL    HW1 6474   1.630   1.889   2.828  0.1286 -0.2646  0.5109
 1619SOL    HW2 6475   1.529   1.887   2.715  1.7965  0.6928 -1.0600
 1619SOL     MW 6476   1.565   1.926   2.783  0.1973 -0.2638  0.4098
 1620SOL     OW 6477   4.589   4.489   4.587 -0.7572 -0.0555 -0.4350
 1620SOL    HW1 6478   4.611   4.412   4.534  0.5868 -0.3304  0.4651
 1620SOL    HW2 6479   4.632   4.472   4.671  2.8245  3.2897 -1.2841
 1620SOL     MW 6480   4.598   4.476   4.591 -0.0943  0.3577 -0.4281
 1621SOL     OW 6481   3.029   3.752   2.091 -0.4604 -0.0550 -0.5194
 1621SOL    HW1 6482   3.080   3.681   2.130  0.7664  0.1874 -1.6018
 1621SOL    HW2 6483   3.030   3.821   2.156  1.6191  0.3720 -0.9178
 1621SOL     MW 6484   3.036   3.752   2.105 -0.0154  0.0351 -0.7187
 1622SOL     OW 6485   2.141   0.486   4.481 -0.3993  0.6089  0.1560
 1622SOL    HW1 6486   2.192   0.409   4.505  0.5584  0.9964 -0.5392
 1622SOL    HW2 6487   2.073   0.493   4.548 -0.1686 -0.5266  0.5166
 1622SOL     MW 6488   2.139   0.477   4.493 -0.2394  0.5082  0.1109
 1623SOL     OW 6489   3.548   2.644   4.594 -0.0386 -0.0177 -0.3005
 1623SOL    HW1 6490   3.592   2.670   4.675  0.5924  0.3258 -0.7421
 1623SOL    HW2 6491   3.463   2.610   4.623 -0.7660  2.1655  0.3714
 1623SOL     MW 6492   3.542   2.643   4.609 -0.0515  0.3223 -0.2695
 1624SOL     OW 6493   1.191   0.610   4.653 -0.3257  0.5613  0.2273
 1624SOL    HW1 6494   1.271   0.663   4.662 -1.6661  2.7566  0.1061
 1624SOL    HW2 6495   1.205   0.535   4.710  2.0832  0.5063 -0.3014
 1624SOL     MW 6496   1.204   0.607   4.662 -0.1819  0.8494  0.1398
 1625SOL     OW 6497   0.234   3.831   0.483 -0.1854 -0.2522 -0.2233
 1625SOL    HW1 6498   0.181   3.832   0.404  1.0081 -1.1779 -1.0693
 1625SOL    HW2 6499   0.251   3.738   0.500  1.0884  0.0122  0.0536
 1625SOL     MW 6500   0.229   3.819   0.475  0.1466 -0.3412 -0.2999
 1626SOL     OW 6501   1.920   1.709   4.848 -0.1618 -0.0409  0.1343
 1626SOL    HW1 6502   1.892   1.618   4.837  1.3485 -0.3540 -1.6524
 1626SOL    HW2 6503   1.846   1.752   4.893 -1.2014 -1.9567  0.3635
 1626SOL     MW 6504   1.906   1.703   4.853 -0.0984 -0.3409 -0.0753
 1627SOL     OW 6505   0.734   4.133   2.394 -0.0151 -0.1619  0.1126
 1627SOL    HW1 6506   0.648   4.128   2.437  0.4698  2.7500  1.6847
 1627SOL    HW2 6507   0.714   4.162   2.305 -0.7554 -1.6776 -0.2470
 1627SOL     MW 6508   0.720   4.136   2.388 -0.0494  0.0260  0.2758
 1628SOL     OW 6509   0.411   4.469   3.496  0.0712 -0.1895  0.0370
 1628SOL    HW1 6510   0.338   4.408   3.504 -2.2615  2.4255  0.1230
 1628SOL    HW2 6511   0.463   4.455   3.575 -2.2564  0.1790  1.7187
 1628SOL     MW 6512   0.409   4.459   3.508 -0.5560  0.2120  0.2749
 1629SOL     OW 6513   2.864   5.084   2.457 -0.4791 -0.1261  0.2621
 1629SOL    HW1 6514   2.807   5.011   2.483  0.7788 -1.7382 -1.2716
 1629SOL    HW2 6515   2.906   5.112   2.538 -1.2485 -0.8540  0.9346
 1629SOL     MW 6516   2.862   5.078   2.471 -0.4134 -0.4410  0.1462
 1630SOL     OW 6517   0.113   4.769   2.065  0.3137 -0.3333  0.3369
 1630SOL    HW1 6518   0.066   4.723   2.135  1.9015  0.4179  1.9475
 1630SOL    HW2 6519   0.116   4.860   2.093  1.8683 -0.1912 -0.1866
 1630SOL     MW 6520   0.107   4.775   2.078  0.7366 -0.2131  0.4832
 1631SOL     OW 6521   3.278   2.499   0.434 -0.0845 -0.0330  0.1060
 1631SOL    HW1 6522   3.212   2.433   0.458 -0.4171  0.1936 -0.1850
 1631SOL    HW2 6523   3.268   2.510   0.339 -2.5522  3.0863  0.5646
 1631SOL     MW 6524   3.268   2.491   0.424 -0.4613  0.4173  0.1286
 1632SOL     OW 6525   3.370   5.183   5.316 -0.9468  0.3352 -0.2103
 1632SOL    HW1 6526   3.404   5.148   5.398 -1.1205  2.1564  0.6848
 1632SOL    HW2 6527   3.292   5.131   5.297  0.2470 -1.4880 -0.3659
 1632SOL     MW 6528   3.364   5.171   5.324 -0.8095  0.3349 -0.1108
 1633SOL     OW 6529   0.168   0.244   0.295  0.2338  0.5379  0.4694
 1633SOL    HW1 6530   0.124   0.299   0.230  2.2412 -0.6738 -2.0946
 1633SOL    HW2 6531   0.210   0.306   0.354 -0.2940  1.7017 -0.3359
 1633SOL     MW 6532   0.167   0.259   0.295  0.4329  0.5314  0.0159
 1634SOL     OW 6533   1.995   3.094   4.885  0.0404 -0.2033  0.0596
 1634SOL    HW1 6534   1.923   3.060   4.939  1.7939 -1.6282  1.6361
 1634SOL    HW2 6535   1.952   3.127   4.806 -2.4118 -0.1923  1.3027
 1634SOL     MW 6536   1.979   3.094   4.882 -0.0536 -0.3936  0.4391
 1635SOL     OW 6537   1.541   0.779   5.175 -0.8709  0.3534  0.4555
 1635SOL    HW1 6538   1.558   0.868   5.206 -0.8098  0.4245  0.2169
 1635SOL    HW2 6539   1.591   0.723   5.234  2.5837  0.6827 -1.8849
 1635SOL     MW 6540   1.550   0.784   5.187 -0.3977  0.4073  0.1085
 1636SOL     OW 6541   3.236   1.681   2.594 -0.0556 -0.7371  0.2027
 1636SOL    HW1 6542   3.247   1.777   2.592 -0.4260 -0.6971 -1.0187
 1636SOL    HW2 6543   3.291   1.650   2.522  0.2194 -1.4662  0.7274
 1636SOL     MW 6544   3.244   1.690   2.584 -0.0685 -0.8299  0.1089
 1637SOL     OW 6545   2.742   2.287   1.692 -0.2857 -0.7303 -0.2542
 1637SOL    HW1 6546   2.765   2.211   1.745 -2.6060 -0.2233  1.6332
 1637SOL    HW2 6547   2.738   2.359   1.754  2.1592  1.1228 -2.0424
 1637SOL     MW 6548   2.745   2.286   1.707 -0.2690 -0.4127 -0.2408
 1638SOL     OW 6549   4.827   1.262   4.712 -0.6388  0.5257  0.0035
 1638SOL    HW1 6550   4.885   1.251   4.637 -2.1393 -1.4561 -0.9750
 1638SOL    HW2 6551   4.885   1.264   4.788  0.8611  1.7208 -1.1129
 1638SOL     MW 6552   4.843   1.261   4.712 -0.6389  0.4198 -0.2785
 1639SOL     OW 6553   5.213   4.260   3.448 -0.0682  0.1232  0.2747
 1639SOL    HW1 6554   5.275   4.190   3.471 -0.1726 -0.0445  0.0467
 1639SOL    HW2 6555   5.265   4.340   3.454 -0.4095  0.2457  2.4322
 1639SOL     MW 6556   5.229   4.261   3.452 -0.1282  0.1171  0.5344
 1640SOL     OW 6557   4.988   2.964   2.559  0.3332 -0.4405  0.0318
 1640SOL    HW1 6558   5.046   2.939   2.631 -0.1883 -0.5635  0.4188
 1640SOL    HW2 6559   4.912   2.907   2.569  0.4139 -0.7133 -0.8426
 1640SOL     MW 6560   4.985   2.953   2.570  0.2739 -0.4938 -0.0338
 1641SOL     OW 6561   0.405   2.357   3.450 -0.7888  0.5678 -0.1214
 1641SOL    HW1 6562   0.332   2.295   3.447 -1.3788  1.2506 -0.0738
 1641SOL    HW2 6563   0.479   2.305   3.480 -1.3174 -0.0820  0.0812
 1641SOL     MW 6564   0.405   2.342   3.454 -0.9393  0.5722 -0.0877
 1642SOL     OW 6565   0.688   2.718   3.920 -0.2168 -0.6807  0.0035
 1642SOL    HW1 6566   0.712   2.765   4.000  1.3011 -1.4209  0.0163
 1642SOL    HW2 6567   0.767   2.671   3.895 -1.3835 -2.4562 -0.5524
 1642SOL     MW 6568   0.702   2.718   3.928 -0.1695 -1.0193 -0.0696
 1643SOL     OW 6569   5.204   1.451   0.384 -0.0137  0.6889  0.1267
 1643SOL    HW1 6570   5.272   1.517   0.392  0.1705  0.5472 -0.2548
 1643SOL    HW2 6571   5.127   1.489   0.426  0.1649  1.0430  0.1283
 1643SOL     MW 6572   5.203   1.465   0.391  0.0352  0.7175  0.0755
 1644SOL     OW 6573   4.059   0.501   5.401  0.5146  0.1468 -0.2124
 1644SOL    HW1 6574   4.051   0.547   5.317  0.6849 -1.3176 -1.0560
 1644SOL    HW2 6575   4.152   0.484   5.410  0.5451  0.6508  0.4858
 1644SOL     MW 6576   4.070   0.505   5.391  0.5416  0.0176 -0.2320
 1645SOL     OW 6577   3.424   1.703   0.204  0.5199 -0.2322 -0.3547
 1645SOL    HW1 6578   3.419   1.798   0.190  0.2966 -0.3441 -1.0838
 1645SOL    HW2 6579   3.475   1.671   0.129 -0.8702 -0.8826 -1.0660
 1645SOL     MW 6580   3.430   1.711   0.192  0.3028 -0.3348 -0.5485
 1646SOL     OW 6581   2.496   2.432   1.324 -0.0991 -0.2866  0.1009
 1646SOL    HW1 6582   2.554   2.508   1.323 -0.8278  0.2941  0.7254
 1646SOL    HW2 6583   2.497   2.401   1.414 -1.7314  0.5251  0.4348
 1646SOL     MW 6584   2.504   2.438   1.336 -0.4168 -0.0992  0.2299
 1647SOL     OW 6585   2.709   1.603   0.129 -0.0103 -0.2481 -0.3015
 1647SOL    HW1 6586   2.769   1.650   0.187 -1.2262 -0.8762  1.5509
 1647SOL    HW2 6587   2.739   1.512   0.133  0.3617 -0.1742 -1.2856
 1647SOL     MW 6588   2.721   1.597   0.137 -0.1239 -0.3227 -0.1847
 1648SOL     OW 6589   3.763   1.949   4.051  0.2636  0.1306 -0.5526
 1648SOL    HW1 6590   3.713   1.975   4.128  1.1235  0.5792 -0.1247
 1648SOL    HW2 6591   3.794   1.861   4.071  0.7582  0.3707 -0.2296
 1648SOL     MW 6592   3.760   1.941   4.064  0.4459  0.2233 -0.4516
 1649SOL     OW 6593   3.970   3.073   4.360 -0.2533 -0.3201  0.2376
 1649SOL    HW1 6594   3.961   3.008   4.429  1.4720  0.7768  1.5676
 1649SOL    HW2 6595   4.042   3.129   4.388 -0.0892  0.7227 -2.0265
 1649SOL     MW 6596   3.978   3.072   4.373  0.0010 -0.0321  0.1119
 1650SOL     OW 6597   5.030   2.557   4.091 -0.1003 -0.2310  0.1126
 1650SOL    HW1 6598   5.042   2.582   4.183  0.1452 -1.0593  0.3177
 1650SOL    HW2 6599   5.104   2.499   4.072  0.4563  0.7770 -0.9400
 1650SOL     MW 6600   5.042   2.552   4.101  0.0077 -0.2068 -0.0014
 1651SOL     OW 6601   5.165   4.621   4.857 -0.2098  0.2737 -0.3726
 1651SOL    HW1 6602   5.094   4.650   4.800  0.0114 -0.1460 -0.8725
 1651SOL    HW2 6603   5.122   4.578   4.930 -0.5193  1.2914  0.0586
 1651SOL     MW 6604   5.150   4.619   4.859 -0.2217  0.3542 -0.3819
 1652SOL     OW 6605   3.707   5.176   1.649 -0.1759  0.3184  0.0771
 1652SOL    HW1 6606   3.755   5.221   1.719  1.2588  0.1574 -0.7644
 1652SOL    HW2 6607   3.758   5.194   1.570 -0.3430 -1.6022 -0.5193
 1652SOL     MW 6608   3.721   5.184   1.648 -0.0053  0.0382 -0.1164
 1653SOL     OW 6609   5.500   1.423   2.644 -0.4464 -0.2444 -0.9901
 1653SOL    HW1 6610   5.516   1.404   2.551 -1.6216  1.1497 -1.5301
 1653SOL    HW2 6611   5.476   1.339   2.682  0.0078 -0.8349 -1.9632
 1653SOL     MW 6612   5.499   1.409   2.636 -0.5435 -0.1363 -1.1937
 1654SOL     OW 6613   2.318   2.114   2.375 -0.4454 -0.5587  0.0441
 1654SOL    HW1 6614   2.308   2.172   2.450  0.7916 -1.0853  0.6410
 1654SOL    HW2 6615   2.386   2.154   2.322 -1.8690  0.2423 -1.2670
 1654SOL     MW 6616   2.326   2.127   2.378 -0.4705 -0.5217 -0.0520
 1655SOL     OW 6617   2.185   4.836   2.160  0.1211 -0.2884  0.1485
 1655SOL    HW1 6618   2.113   4.784   2.124 -2.2050  3.3156 -0.8697
 1655SOL    HW2 6619   2.242   4.853   2.085  0.7581 -1.0686  0.4355
 1655SOL     MW 6620   2.183   4.831   2.145 -0.1062  0.0916  0.0501
 1656SOL     OW 6621   5.000   0.265   4.329 -0.0167  0.0967  0.4902
 1656SOL    HW1 6622   4.940   0.208   4.377 -0.7633  0.6414  0.2427
 1656SOL    HW2 6623   4.965   0.265   4.239  0.4783  0.2615  0.2944
 1656SOL     MW 6624   4.987   0.257   4.323 -0.0506  0.1922  0.4306
 1657SOL     OW 6625   1.098   0.906   3.171  0.1233 -0.5560  0.5876
 1657SOL    HW1 6626   1.055   0.944   3.094  0.8629  0.4950  0.6738
 1657SOL    HW2 6627   1.126   0.819   3.143  0.9332  0.0403 -0.5471
 1657SOL     MW 6628   1.096   0.900   3.157  0.3318 -0.3343  0.4465
 1658SOL     OW 6629   1.886   2.550   3.967  0.0945 -0.3339 -0.4744
 1658SOL    HW1 6630   1.868   2.570   3.875  1.0077 -0.1195 -0.6218
 1658SOL    HW2 6631   1.933   2.466   3.965 -0.5568 -0.7153 -0.1378
 1658SOL     MW 6632   1.890   2.541   3.954  0.1297 -0.3564 -0.4489
 1659SOL     OW 6633   2.199   4.547   4.750  0.1278 -0.0491  0.1607
 1659SOL    HW1 6634   2.195   4.483   4.679  1.0951 -0.0825  0.1132
 1659SOL    HW2 6635   2.125   4.606   4.734 -0.9449 -1.3154  0.3856
 1659SOL     MW 6636   2.189   4.547   4.738  0.1136 -0.2240  0.1846
 1660SOL     OW 6637   1.675   1.412   5.055 -0.0757 -0.0611  0.2596
 1660SOL    HW1 6638   1.590   1.450   5.033  0.8749  1.7923 -0.4395
 1660SOL    HW2 6639   1.672   1.401   5.150 -1.1583 -0.2441  0.2244
 1660SOL     MW 6640   1.663   1.415   5.065 -0.0935  0.1637  0.1608
 1661SOL     OW 6641   0.807   2.449   3.531 -0.1757 -0.6884  0.3353
 1661SOL    HW1 6642   0.753   2.509   3.479  1.3007 -1.0293 -1.7081
 1661SOL    HW2 6643   0.758   2.366   3.530  0.4214 -1.0584 -1.6790
 1661SOL     MW 6644   0.793   2.446   3.524  0.1034 -0.7841 -0.2108
 1662SOL     OW 6645   3.581   4.460   4.975  0.2208  0.0994 -0.0372
 1662SOL    HW1 6646   3.514   4.396   5.000  0.2232 -0.1420 -0.6391
 1662SOL    HW2 6647   3.629   4.418   4.904  1.6749 -0.1426  1.0585
 1662SOL     MW 6648   3.578   4.446   4.969  0.4168  0.0343  0.0292
 1663SOL     OW 6649   5.483  -0.006   1.564  0.5069 -0.3073  0.3554
 1663SOL    HW1 6650   5.557   0.019   1.619  0.1429  0.6684  0.4177
 1663SOL    HW2 6651   5.451   0.077   1.527 -0.9953 -0.6116  0.8968
 1663SOL     MW 6652   5.489   0.009   1.566  0.2557 -0.2169  0.4366
 1664SOL     OW 6653   0.909   4.618   3.685 -0.1645 -0.0529 -0.2726
 1664SOL    HW1 6654   0.984   4.659   3.728 -1.3243  0.7477  1.1069
 1664SOL    HW2 6655   0.936   4.609   3.593  1.4949  0.4631  0.1206
 1664SOL     MW 6656   0.923   4.623   3.678 -0.0973  0.1243 -0.0340
 1665SOL     OW 6657   0.960   2.634   1.998  0.6147 -0.1248  0.0155
 1665SOL    HW1 6658   1.002   2.620   1.913  0.5847 -1.0519  0.1386
 1665SOL    HW2 6659   0.869   2.607   1.985 -0.6441  3.9568 -0.8583
 1665SOL     MW 6660   0.953   2.628   1.985  0.4413  0.2997 -0.0855
 1666SOL     OW 6661   1.459   4.191   2.989  0.3012  0.0795  0.1822
 1666SOL    HW1 6662   1.470   4.098   3.009 -1.4356  0.0741  1.3942
 1666SOL    HW2 6663   1.399   4.223   3.057 -0.9972  1.5393 -1.5404
 1666SOL     MW 6664   1.452   4.183   3.001 -0.1072  0.2752  0.1135
 1667SOL     OW 6665   1.955   4.973   1.984 -0.2026  0.3025  0.3720
 1667SOL    HW1 6666   1.862   4.953   1.998 -0.2959  1.3037  1.3562
 1667SOL    HW2 6667   1.981   5.021   2.062  1.2599 -0.2877  0.2784
 1667SOL     MW 6668   1.946   4.977   1.996 -0.0184  0.3578  0.4918
 1668SOL     OW 6669   2.624   2.200   3.648  0.1118  0.3023 -0.3364
 1668SOL    HW1 6670   2.695   2.256   3.681 -0.4084  0.0954  1.2538
 1668SOL    HW2 6671   2.642   2.190   3.555  1.8248  0.7565 -0.0924
 1668SOL     MW 6672   2.636   2.206   3.640  0.2723  0.3356 -0.0896
 1669SOL     OW 6673   2.022   1.372   1.320 -0.3050  0.2256 -0.2050
 1669SOL    HW1 6674   2.002   1.464   1.335 -1.3777 -0.1048  0.5293
 1669SOL    HW2 6675   2.112   1.362   1.349 -0.1664  1.0559 -0.3273
 1669SOL     MW 6676   2.031   1.383   1.326 -0.4307  0.2929 -0.1226
 1670SOL     OW 6677   2.794   5.425   2.456 -0.1372 -0.5580 -0.0614
 1670SOL    HW1 6678   2.858   5.381   2.400 -0.8157 -1.0818 -0.4345
 1670SOL    HW2 6679   2.728   5.358   2.475 -1.9232  0.6172 -1.7700
 1670SOL     MW 6680   2.794   5.410   2.451 -0.4689 -0.4703 -0.3416
 1671SOL     OW 6681   0.771   1.790   4.995 -0.4883 -0.0135 -0.8681
 1671SOL    HW1 6682   0.786   1.718   4.934  0.6371  0.3625 -1.0766
 1671SOL    HW2 6683   0.761   1.867   4.938 -0.0567  0.2394 -0.6130
 1671SOL     MW 6684   0.772   1.791   4.979 -0.2787  0.0711 -0.8618
 1672SOL     OW 6685   4.368   5.108   3.945 -0.4009 -0.1876 -0.5643
 1672SOL    HW1 6686   4.404   5.196   3.936 -1.5326  0.2259 -1.3529
 1672SOL    HW2 6687   4.343   5.101   4.037 -2.1144  1.0862 -0.8795
 1672SOL     MW 6688   4.369   5.119   3.956 -0.7838  0.0394 -0.7129
 1673SOL     OW 6689   0.252   0.273   4.239 -0.0699 -0.0066  0.2406
 1673SOL    HW1 6690   0.338   0.290   4.201  0.2231  1.3509  1.3963
 1673SOL    HW2 6691   0.271   0.246   4.329 -0.8385  1.4870  0.8936
 1673SOL     MW 6692   0.266   0.272   4.246 -0.1339  0.3771  0.4840
 1674SOL     OW 6693   3.700   1.531   3.918 -0.7436 -0.8326 -0.1593
 1674SOL    HW1 6694   3.752   1.568   3.990 -1.0039  1.2619 -0.9624
 1674SOL    HW2 6695   3.666   1.608   3.872 -0.8209 -2.1044 -2.3638
 1674SOL     MW 6696   3.702   1.546   3.922 -0.7891 -0.7218 -0.5641
 1675SOL     OW 6697   4.385   0.854   0.659  0.4280  0.6594  0.8206
 1675SOL    HW1 6698   4.456   0.801   0.623 -0.3423 -0.1161  0.4097
 1675SOL    HW2 6699   4.313   0.844   0.596  0.4876  2.7715  0.3457
 1675SOL     MW 6700   4.385   0.846   0.646  0.3324  0.8393  0.7014
 1676SOL     OW 6701   2.866   0.763   0.928 -0.3917  0.0753 -0.2203
 1676SOL    HW1 6702   2.839   0.692   0.987  0.4273 -0.9811 -1.0843
 1676SOL    HW2 6703   2.905   0.828   0.986  1.0902 -1.2803  0.3778
 1676SOL     MW 6704   2.868   0.762   0.944 -0.0820 -0.2493 -0.2561
 1677SOL     OW 6705   3.248   5.206   2.376  0.1824  0.1659  0.9401
 1677SOL    HW1 6706   3.274   5.115   2.360 -0.6292 -0.2011  1.6664
 1677SOL    HW2 6707   3.280   5.254   2.299 -0.6620 -0.9750 -0.1610
 1677SOL     MW 6708   3.256   5.201   2.364 -0.0405 -0.0371  0.8896
 1678SOL     OW 6709   4.365   1.761   5.178  0.3650 -0.1909 -0.2131
 1678SOL    HW1 6710   4.302   1.827   5.147 -1.0120 -1.8913 -1.1804
 1678SOL    HW2 6711   4.444   1.780   5.128 -0.1054  0.5280 -0.7192
 1678SOL     MW 6712   4.367   1.773   5.167  0.1164 -0.3230 -0.4114
 1679SOL     OW 6713   2.271   5.157   0.314 -0.4573 -0.2525 -0.6742
 1679SOL    HW1 6714   2.343   5.099   0.291 -0.5350 -0.7367  0.2296
 1679SOL    HW2 6715   2.195   5.121   0.269 -0.3926 -0.5205 -0.5669
 1679SOL     MW 6716   2.270   5.145   0.305 -0.4590 -0.3538 -0.5381
 1680SOL     OW 6717   5.156   3.003   0.234  0.4218 -0.4693 -0.5607
 1680SOL    HW1 6718   5.102   2.929   0.262  0.1374  0.2276  0.7990
 1680SOL    HW2 6719   5.156   2.998   0.138 -2.0225 -0.5034 -0.6119
 1680SOL     MW 6720   5.149   2.992   0.225  0.0546 -0.3801 -0.3846
 1681SOL     OW 6721   4.236   0.070   4.523 -0.3755  0.4147  0.2160
 1681SOL    HW1 6722   4.249   0.165   4.531  1.2234  0.1828  0.6986
 1681SOL    HW2 6723   4.284   0.033   4.598 -1.0467 -0.7756  0.0815
 1681SOL     MW 6724   4.244   0.078   4.534 -0.2506  0.2233  0.2629
 1682SOL     OW 6725   1.521   0.087   3.781  0.2361 -0.0887 -0.0897
 1682SOL    HW1 6726   1.573   0.167   3.777 -0.6916  0.6964  1.8912
 1682SOL    HW2 6727   1.585   0.017   3.785  1.1701  0.7925  1.3805
 1682SOL     MW 6728   1.537   0.089   3.781  0.2369  0.1355  0.3747
 1683SOL     OW 6729   4.055   0.269   4.345 -0.3149 -0.2555 -0.4678
 1683SOL    HW1 6730   3.975   0.218   4.351 -0.8206  0.6430  0.9352
 1683SOL    HW2 6731   4.041   0.328   4.270 -1.6618  0.9949  0.7101
 1683SOL     MW 6732   4.043   0.270   4.336 -0.5642  0.0337 -0.1205
 1684SOL     OW 6733   5.141   1.358   0.115 -0.2337 -0.1353  0.7927
 1684SOL    HW1 6734   5.069   1.300   0.137  0.7728 -0.9452  2.1460
 1684SOL    HW2 6735   5.170   1.394   0.199  0.3743  0.8745  0.1798
 1684SOL     MW 6736   5.136   1.355   0.129 -0.0164 -0.1084  0.8923
 1685SOL     OW 6737   0.004   2.270   0.675  0.0889  0.1721  0.5810
 1685SOL    HW1 6738   0.015   2.297   0.766 -1.0143  1.1427  0.4448
 1685SOL    HW2 6739  -0.003   2.351   0.626 -0.7781 -0.3497 -0.1863
 1685SOL     MW 6740   0.005   2.284   0.681 -0.1763  0.2325  0.4594
 1686SOL     OW 6741   5.318   1.656   1.688 -0.7923  0.0981 -0.9291
 1686SOL    HW1 6742   5.239   1.709   1.694 -0.8024  0.1467 -1.3971
 1686SOL    HW2 6743   5.295   1.586   1.627 -1.4733 -1.7198  1.2974
 1686SOL     MW 6744   5.304   1.654   1.680 -0.8853 -0.1400 -0.6925
 1687SOL     OW 6745   1.286   1.002   0.088 -0.5039  0.4345  0.1005
 1687SOL    HW1 6746   1.294   1.032  -0.003 -2.1005  0.0537 -0.2081
 1687SOL    HW2 6747   1.221   1.061   0.126 -0.7749 -0.1946  0.6237
 1687SOL     MW 6748   1.278   1.014   0.081 -0.7552  0.2986  0.1294
 1688SOL     OW 6749   1.630   2.526   1.440 -0.6123  0.2051  0.1306
 1688SOL    HW1 6750   1.700   2.591   1.434 -2.6725  2.6806  0.7393
 1688SOL    HW2 6751   1.589   2.527   1.354 -1.0094  0.1395  0.3165
 1688SOL     MW 6752   1.634   2.535   1.428 -0.9430  0.5294  0.2376
 1689SOL     OW 6753   5.496   4.187   4.152  0.6551  0.2700  0.7440
 1689SOL    HW1 6754   5.432   4.145   4.095  2.2709  0.2290 -1.1131
 1689SOL    HW2 6755   5.456   4.272   4.175  0.6259  1.0065 -1.7918
 1689SOL     MW 6756   5.482   4.193   4.148  0.8686  0.3636  0.1528
 1690SOL     OW 6757   2.554   0.551   5.046  0.3644 -0.7322  0.4946
 1690SOL    HW1 6758   2.492   0.622   5.029 -0.9045 -2.0614 -0.7601
 1690SOL    HW2 6759   2.635   0.580   5.004  0.0501  0.2285  0.5134
 1690SOL     MW 6760   2.557   0.565   5.038  0.1513 -0.7817  0.3283
 1691SOL     OW 6761   1.196   5.214   4.050 -0.1319 -0.1915  0.2207
 1691SOL    HW1 6762   1.120   5.272   4.046  1.6325  2.2497 -0.4333
 1691SOL    HW2 6763   1.181   5.149   3.981 -1.2244  0.7653 -0.4560
 1691SOL     MW 6764   1.184   5.213   4.040 -0.0415  0.2658  0.0416
 1692SOL     OW 6765   1.971   1.000   2.925  0.5087  0.4265  0.5225
 1692SOL    HW1 6766   1.953   1.064   2.994  0.1979  1.6800 -0.6699
 1692SOL    HW2 6767   1.991   1.053   2.848  3.0492 -0.9010  0.1399
 1692SOL     MW 6768   1.971   1.016   2.924  0.8088  0.4165  0.3105
 1693SOL     OW 6769   1.405   0.680   0.441 -0.4260 -0.1912 -0.5563
 1693SOL    HW1 6770   1.386   0.610   0.504  0.0673 -0.3431 -0.5739
 1693SOL    HW2 6771   1.320   0.722   0.426 -0.0293  2.4189  3.2060
 1693SOL     MW 6772   1.391   0.676   0.448 -0.3062  0.1396 -0.0523
 1694SOL     OW 6773   4.062   1.799   4.981  0.3515  0.0533 -0.3706
 1694SOL    HW1 6774   3.995   1.864   4.960  2.5981  2.4193 -0.7315
 1694SOL    HW2 6775   4.113   1.789   4.901  2.2710  0.7006  0.7023
 1694SOL     MW 6776   4.060   1.806   4.967  0.9121  0.4588 -0.2748
 1695SOL     OW 6777   4.581   3.901   5.079  0.0710  0.2152 -0.6059
 1695SOL    HW1 6778   4.639   3.828   5.098  2.1011  2.1795  1.3607
 1695SOL    HW2 6779   4.511   3.894   5.143 -0.7345 -0.9054 -1.5551
 1695SOL     MW 6780   4.580   3.890   5.090  0.2358  0.3287 -0.4690
 1696SOL     OW 6781   2.144   5.087   5.353  0.0337  0.0983 -0.0748
 1696SOL    HW1 6782   2.119   5.142   5.279  2.0431  0.5014 -0.5051
 1696SOL    HW2 6783   2.064   5.081   5.406 -0.6200  2.3075 -0.7011
 1696SOL     MW 6784   2.130   5.094   5.350  0.2162  0.4498 -0.2170
 1697SOL     OW 6785   3.631   5.233   5.240  0.7076 -0.6387  0.0760
 1697SOL    HW1 6786   3.542   5.211   5.268  1.2482  0.3731  2.8886
 1697SOL    HW2 6787   3.679   5.150   5.244  0.3717 -0.8096  0.6048
 1697SOL     MW 6788   3.626   5.219   5.244  0.7351 -0.5255  0.5257
 1698SOL     OW 6789   3.699   1.027   4.745  0.0270 -0.3293 -0.6879
 1698SOL    HW1 6790   3.681   0.948   4.796  0.5386 -0.7451 -1.1421
 1698SOL    HW2 6791   3.794   1.039   4.753 -0.0781  0.3813 -0.4217
 1698SOL     MW 6792   3.709   1.018   4.753  0.0817 -0.2896 -0.7132
 1699SOL     OW 6793   4.563   5.458   4.519 -0.0568 -0.0651 -0.1257
 1699SOL    HW1 6794   4.488   5.427   4.569 -0.7503  0.3575 -0.8597
 1699SOL    HW2 6795   4.639   5.417   4.560 -0.8890 -2.8050 -1.0833
 1699SOL     MW 6796   4.563   5.449   4.531 -0.2621 -0.3770 -0.3534
 1700SOL     OW 6797   0.874   0.957   3.319  0.0639 -0.6116 -0.4155
 1700SOL    HW1 6798   0.943   0.921   3.263 -0.0786 -0.2269 -0.8498
 1700SOL    HW2 6799   0.903   0.938   3.408  1.1192  0.2043 -0.5642
 1700SOL     MW 6800   0.887   0.950   3.323  0.1867 -0.4500 -0.4940
 1701SOL     OW 6801   0.144   4.273   3.743  0.4826 -0.0241  0.3312
 1701SOL    HW1 6802   0.178   4.266   3.654 -0.2578  3.1778 -0.3422
 1701SOL    HW2 6803   0.220   4.302   3.795  0.3508  0.5655  0.2026
 1701SOL     MW 6804   0.159   4.276   3.738  0.3652  0.4861  0.2233
 1702SOL     OW 6805   3.439   2.104   2.820  0.3180  0.1702 -0.1233
 1702SOL    HW1 6806   3.417   2.125   2.911 -0.6335 -0.2378 -0.2413
 1702SOL    HW2 6807   3.456   2.188   2.779  0.3723  0.3879  0.3387
 1702SOL     MW 6808   3.438   2.118   2.827  0.1972  0.1446 -0.0770
 1703SOL     OW 6809   4.923   4.005   0.586  0.0547 -0.3777 -0.3303
 1703SOL    HW1 6810   4.840   3.967   0.556 -0.9448  1.5897 -0.1964
 1703SOL    HW2 6811   4.900   4.051   0.667  0.7178  2.3496 -1.6147
 1703SOL     MW 6812   4.909   4.006   0.593  0.0094  0.2541 -0.4852
 1704SOL     OW 6813   4.592   0.415   0.672  0.9058  0.0022 -0.0129
 1704SOL    HW1 6814   4.599   0.383   0.762  1.3114 -1.0530 -0.4092
 1704SOL    HW2 6815   4.555   0.341   0.623 -0.5976  1.0005 -0.4781
 1704SOL     MW 6816   4.588   0.401   0.677  0.7580 -0.0054 -0.1288
 1705SOL     OW 6817   2.328   0.490   5.191 -0.4714 -0.5293 -0.1568
 1705SOL    HW1 6818   2.275   0.495   5.111 -0.0530 -1.6359 -0.5130
 1705SOL    HW2 6819   2.418   0.503   5.161 -0.5161  1.9543  0.5224
 1705SOL     MW 6820   2.333   0.493   5.176 -0.4211 -0.3440 -0.1133
 1706SOL     OW 6821   1.881   3.437   0.911  0.0690  0.8689 -1.0369
 1706SOL    HW1 6822   1.867   3.531   0.921 -0.4549  0.5749  1.9243
 1706SOL    HW2 6823   1.810   3.408   0.855 -0.4035  2.0907 -1.0992
 1706SOL     MW 6824   1.870   3.445   0.905 -0.0651  0.9938 -0.6468
 1707SOL     OW 6825   3.965   0.681   2.335 -0.1449 -0.0715 -0.2613
 1707SOL    HW1 6826   4.058   0.684   2.313  0.2174 -0.0403  1.1284
 1707SOL    HW2 6827   3.924   0.632   2.264  0.8185  0.4849 -1.2330
 1707SOL     MW 6828   3.972   0.675   2.323  0.0335  0.0076 -0.2051
 1708SOL     OW 6829   0.631   1.840   4.469  0.5201 -0.3386  0.3524
 1708SOL    HW1 6830   0.590   1.760   4.434  1.6459 -1.2009  0.9369
 1708SOL    HW2 6831   0.599   1.845   4.559  1.4936 -0.8828  0.7355
 1708SOL     MW 6832   0.621   1.830   4.476  0.8026 -0.5279  0.4826
 1709SOL     OW 6833   0.748   2.784   1.039 -0.1267  0.2991 -0.1958
 1709SOL    HW1 6834   0.670   2.776   1.093 -0.0569  0.8093 -0.0212
 1709SOL    HW2 6835   0.762   2.878   1.029  0.0468  0.2100 -0.8312
 1709SOL     MW 6836   0.740   2.795   1.045 -0.0940  0.3557 -0.2578
 1710SOL     OW 6837   1.673   1.225   0.433  0.6047 -0.2068 -0.0531
 1710SOL    HW1 6838   1.712   1.142   0.407  0.8275 -0.7694  1.8899
 1710SOL    HW2 6839   1.579   1.208   0.436  0.7658 -0.9547  2.0220
 1710SOL     MW 6840   1.666   1.212   0.430  0.6563 -0.3832  0.4877
 1711SOL     OW 6841   0.708   0.993   3.092 -0.0415  0.8840 -0.4631
 1711SOL    HW1 6842   0.625   1.030   3.123 -0.7949 -1.6076  0.7256
 1711SOL    HW2 6843   0.759   0.981   3.172 -0.8203 -2.8056 -0.3519
 1711SOL     MW 6844   0.703   0.997   3.107 -0.2477  0.0521 -0.2881
 1712SOL     OW 6845   3.587   1.335   1.523 -0.1812  0.0560  0.2982
 1712SOL    HW1 6846   3.520   1.373   1.579 -0.1745 -0.3448  0.5824
 1712SOL    HW2 6847   3.669   1.377   1.550 -0.3594  0.7784 -0.2659
 1712SOL     MW 6848   3.589   1.345   1.534 -0.2043  0.0993  0.2605
 1713SOL     OW 6849   1.623   0.432   0.647 -0.1048 -0.5854  0.1289
 1713SOL    HW1 6850   1.677   0.481   0.584 -1.3073 -1.7000 -1.8898
 1713SOL    HW2 6851   1.658   0.457   0.732  1.2998  1.4060 -0.9219
 1713SOL     MW 6852   1.635   0.442   0.650 -0.0776 -0.4674 -0.2842
 1714SOL     OW 6853   0.491   4.401   3.245  0.4227  0.2730 -0.1445
 1714SOL    HW1 6854   0.401   4.397   3.215  0.7578 -0.6465 -1.0647
 1714SOL    HW2 6855   0.485   4.437   3.334 -0.8213  0.3648 -0.2508
 1714SOL     MW 6856   0.478   4.405   3.253  0.3004  0.1616 -0.2826
 1715SOL     OW 6857   3.692   4.434   0.746  0.4333  0.0550 -0.3232
 1715SOL    HW1 6858   3.634   4.508   0.763  0.4517 -0.0314  0.1570
 1715SOL    HW2 6859   3.774   4.473   0.716  0.2240  0.1921 -0.7173
 1715SOL     MW 6860   3.695   4.449   0.744  0.4076  0.0618 -0.3116
 1716SOL     OW 6861   0.146   3.637   4.858  0.4077  0.0684 -0.9260
 1716SOL    HW1 6862   0.204   3.712   4.845 -0.3835  0.5403 -1.8440
 1716SOL    HW2 6863   0.074   3.672   4.911  0.6390 -0.3631 -0.3131
 1716SOL     MW 6864   0.144   3.652   4.863  0.3323  0.0739 -0.9671
 1717SOL     OW 6865   4.813   2.627   2.226  0.1794 -0.4416  0.5341
 1717SOL    HW1 6866   4.837   2.661   2.141  0.2263  1.8027  1.3765
 1717SOL    HW2 6867   4.895   2.622   2.275 -0.0727  0.1319  1.0377
 1717SOL     MW 6868   4.827   2.631   2.221  0.1518 -0.0624  0.7153
 1718SOL     OW 6869   5.103   2.732   0.697  0.3931 -0.2123 -0.2115
 1718SOL    HW1 6870   5.025   2.748   0.643  0.0874  0.0089  0.2833
 1718SOL    HW2 6871   5.140   2.651   0.662 -0.1469 -0.4049 -0.3550
 1718SOL     MW 6872   5.097   2.724   0.685  0.2793 -0.2085 -0.1642
 1719SOL     OW 6873   2.567   3.132   1.464  0.1727  0.4655 -0.9080
 1719SOL    HW1 6874   2.522   3.144   1.381 -0.2471 -0.1499 -0.7736
 1719SOL    HW2 6875   2.499   3.106   1.526 -0.2266  4.1747  0.5206
 1719SOL     MW 6876   2.552   3.130   1.461  0.0624  0.8819 -0.6977
 1720SOL     OW 6877   2.375   2.700   5.132 -0.4197 -0.0140 -0.2879
 1720SOL    HW1 6878   2.283   2.673   5.137 -0.7339  1.0681  0.1150
 1720SOL    HW2 6879   2.393   2.708   5.039 -2.2950  4.6477 -0.4930
 1720SOL     MW 6880   2.365   2.697   5.120 -0.7143  0.7590 -0.2613
 1721SOL     OW 6881   1.088   2.683   4.597 -0.3824 -0.4333 -0.2886
 1721SOL    HW1 6882   1.083   2.646   4.685  0.2903 -1.0555 -0.5063
 1721SOL    HW2 6883   1.039   2.622   4.543 -0.5833 -0.1807 -0.3963
 1721SOL     MW 6884   1.080   2.670   4.602 -0.3189 -0.4830 -0.3324
 1722SOL     OW 6885   5.268   5.066   1.096  0.7901 -0.3901 -0.1743
 1722SOL    HW1 6886   5.230   5.144   1.136  1.1794 -0.8511  1.1422
 1722SOL    HW2 6887   5.275   5.088   1.003  1.0045  1.1939  0.1847
 1722SOL     MW 6888   5.264   5.079   1.089  0.8714 -0.2390  0.0512
 1723SOL     OW 6889   0.266   0.626   0.595 -0.2242 -0.4588 -0.0990
 1723SOL    HW1 6890   0.331   0.677   0.546 -0.2611 -1.3222 -1.0894
 1723SOL    HW2 6891   0.294   0.535   0.585  0.0536 -0.6438  1.9484
 1723SOL     MW 6892   0.278   0.620   0.587 -0.1918 -0.5999  0.0433
 1724SOL     OW 6893   0.477   3.220   3.563  0.0678 -0.0332 -0.7027
 1724SOL    HW1 6894   0.446   3.175   3.642 -0.6474  1.0188 -0.3579
 1724SOL    HW2 6895   0.540   3.160   3.524  0.2350 -0.6845  0.5282
 1724SOL     MW 6896   0.481   3.206   3.568 -0.0059  0.0207 -0.4907
 1725SOL     OW 6897   3.695   0.436   5.077 -0.2316 -0.0730  0.0254
 1725SOL    HW1 6898   3.667   0.527   5.075 -0.6005 -0.1860 -1.0304
 1725SOL    HW2 6899   3.723   0.421   5.167 -1.2086  0.7675  0.4972
 1725SOL     MW 6900   3.695   0.446   5.089 -0.4127  0.0249 -0.0532
 1726SOL     OW 6901   0.530   5.437   4.127  0.5269  0.3121  0.1727
 1726SOL    HW1 6902   0.592   5.389   4.072  0.8252  1.4571 -0.5316
 1726SOL    HW2 6903   0.495   5.372   4.188  0.2409 -0.9684 -1.3208
 1726SOL     MW 6904   0.534   5.422   4.128  0.5286  0.2939 -0.1231
 1727SOL     OW 6905   4.374   3.440   1.760  0.0480 -0.2368  0.1252
 1727SOL    HW1 6906   4.462   3.403   1.759 -0.6983 -2.1206  0.3456
 1727SOL    HW2 6907   4.340   3.421   1.848 -0.6394  0.3020 -0.0138
 1727SOL     MW 6908   4.381   3.432   1.772 -0.1449 -0.4178  0.1361
 1728SOL     OW 6909   1.468   3.122   5.381 -0.1130 -0.1441 -0.5728
 1728SOL    HW1 6910   1.480   3.085   5.294  2.2636  1.1166 -0.8718
 1728SOL    HW2 6911   1.545   3.178   5.394 -1.0461  0.7187  1.8223
 1728SOL     MW 6912   1.480   3.125   5.371  0.0813  0.1417 -0.2907
 1729SOL     OW 6913   4.364   1.866   3.138 -0.0724  0.6301 -0.0836
 1729SOL    HW1 6914   4.297   1.882   3.204 -0.0551  0.8669 -0.1200
 1729SOL    HW2 6915   4.322   1.890   3.055  0.3490  1.6715 -0.0108
 1729SOL     MW 6916   4.350   1.871   3.135 -0.0133  0.8021 -0.0787
 1730SOL     OW 6917   3.405   3.612   2.346 -0.6138 -0.5501  0.5669
 1730SOL    HW1 6918   3.378   3.644   2.432 -0.1637  0.2042  0.4345
 1730SOL    HW2 6919   3.322   3.596   2.300 -0.8477 -0.0136  0.7959
 1730SOL     MW 6920   3.390   3.614   2.351 -0.5847 -0.3764  0.5799
 1731SOL     OW 6921   5.160   0.189   2.553  0.1103  0.5907 -0.2632
 1731SOL    HW1 6922   5.121   0.272   2.526  0.2959  1.1984  1.2378
 1731SOL    HW2 6923   5.141   0.129   2.481  0.9592  2.1980 -1.9209
 1731SOL     MW 6924   5.152   0.192   2.539  0.2495  0.8888 -0.2843
 1732SOL     OW 6925   2.538   1.368   1.224 -0.2947 -0.3598 -0.1613
 1732SOL    HW1 6926   2.537   1.272   1.221  0.3913 -0.3560 -0.7848
 1732SOL    HW2 6927   2.528   1.395   1.133 -3.5658  0.2464  0.2408
 1732SOL     MW 6928   2.537   1.359   1.212 -0.6426 -0.2777 -0.1911
 1733SOL     OW 6929   0.579   1.316   4.161 -0.2526 -0.2689  0.5651
 1733SOL    HW1 6930   0.642   1.259   4.119  0.3530 -0.3206  1.5189
 1733SOL    HW2 6931   0.504   1.260   4.180 -0.1770 -0.4446  0.3396
 1733SOL     MW 6932   0.577   1.301   4.158 -0.1609 -0.2995  0.6631
 1734SOL     OW 6933   2.121   0.728   5.235  0.2824 -0.0992  0.4089
 1734SOL    HW1 6934   2.111   0.670   5.160  3.3339  2.0107 -1.9065
 1734SOL    HW2 6935   2.184   0.683   5.292  0.2914 -0.4092  0.1566
 1734SOL     MW 6936   2.128   0.714   5.233  0.6943  0.1430  0.0634
 1735SOL     OW 6937   3.685   3.686   3.651 -0.2995  0.4355 -0.0106
 1735SOL    HW1 6938   3.673   3.770   3.696 -0.4805  0.0817  0.6069
 1735SOL    HW2 6939   3.778   3.666   3.662 -0.2627  0.5395 -0.1323
 1735SOL     MW 6940   3.696   3.695   3.659 -0.3189  0.4019  0.0561
 1736SOL     OW 6941   3.365   3.471   3.512 -0.4849  0.1855 -0.6393
 1736SOL    HW1 6942   3.416   3.399   3.549 -1.9926 -1.1039 -0.9661
 1736SOL    HW2 6943   3.428   3.521   3.460  0.9651  0.1417  0.9868
 1736SOL     MW 6944   3.380   3.468   3.510 -0.4927  0.0060 -0.4644
 1737SOL     OW 6945   2.180   4.354   4.939  0.4329 -0.0695 -0.5051
 1737SOL    HW1 6946   2.239   4.281   4.921 -0.9187 -0.9573 -1.5525
 1737SOL    HW2 6947   2.199   4.417   4.870 -1.3846 -1.3849 -2.3591
 1737SOL     MW 6948   2.191   4.352   4.927  0.0064 -0.3660 -0.8955
 1738SOL     OW 6949   3.325   4.022   1.173 -0.1627 -0.0395  0.2110
 1738SOL    HW1 6950   3.265   4.011   1.099 -1.2202  1.3614  0.8258
 1738SOL    HW2 6951   3.282   3.979   1.246  0.6473 -0.9693  0.1715
 1738SOL     MW 6952   3.311   4.014   1.173 -0.1960  0.0239  0.2884
 1739SOL     OW 6953   3.315   1.202   2.040  0.0910  0.2784  0.3042
 1739SOL    HW1 6954   3.313   1.292   2.072 -2.1684 -0.2322  1.8793
 1739SOL    HW2 6955   3.255   1.201   1.966 -0.2344  0.0239  0.5621
 1739SOL     MW 6956   3.307   1.214   2.035 -0.2569  0.1754  0.5509
 1740SOL     OW 6957   5.481   4.462   3.826 -0.1273  0.0513  0.6734
 1740SOL    HW1 6958   5.532   4.539   3.850 -0.9662  0.0718  2.5087
 1740SOL    HW2 6959   5.546   4.393   3.813  0.4950  0.5873  0.9168
 1740SOL     MW 6960   5.497   4.463   3.827 -0.1565  0.1262  0.9532
 1741SOL     OW 6961   1.941   0.141   0.609  0.2804  0.4530  0.0755
 1741SOL    HW1 6962   1.978   0.216   0.561  1.8648 -0.6875 -0.5569
 1741SOL    HW2 6963   2.017   0.093   0.641 -0.5855 -2.1685 -1.4998
 1741SOL     MW 6964   1.956   0.145   0.607  0.3771 -0.0533 -0.2216
 1742SOL     OW 6965   3.651   1.514   2.134  0.3994  0.4005  0.0305
 1742SOL    HW1 6966   3.671   1.501   2.227 -1.0210 -0.2903  0.2630
 1742SOL    HW2 6967   3.699   1.593   2.110  0.2689  0.9655  1.5207
 1742SOL     MW 6968   3.660   1.523   2.144  0.1907  0.3836  0.2624
 1743SOL     OW 6969   4.905   5.120   5.048  0.3120 -0.4051  0.0065
 1743SOL    HW1 6970   4.960   5.140   4.972 -0.0006 -1.0644 -0.3959
 1743SOL    HW2 6971   4.883   5.206   5.084 -0.3500 -0.0282 -1.2304
 1743SOL     MW 6972   4.910   5.134   5.043  0.1809 -0.4431 -0.2141
 1744SOL     OW 6973   4.701   3.543   4.656  0.1251  0.5137 -0.2862
 1744SOL    HW1 6974   4.628   3.559   4.597  1.0113  1.6016 -1.1399
 1744SOL    HW2 6975   4.765   3.495   4.604  0.3010  0.1511  0.2488
 1744SOL     MW 6976   4.700   3.539   4.641  0.2681  0.6113 -0.3291
 1745SOL     OW 6977   2.942   3.282   2.810 -0.3524 -0.3928 -0.4815
 1745SOL    HW1 6978   2.867   3.264   2.867  0.8855 -1.6252  0.8626
 1745SOL    HW2 6979   2.956   3.376   2.819 -1.5530 -0.1864 -0.5539
 1745SOL     MW 6980   2.934   3.292   2.819 -0.3474 -0.5309 -0.3103
 1746SOL     OW 6981   2.500   1.411   5.412 -0.5629  0.3035  0.1305
 1746SOL    HW1 6982   2.569   1.473   5.385 -0.0925 -0.7036 -1.0845
 1746SOL    HW2 6983   2.421   1.464   5.417 -0.2493  0.9518 -1.2964
 1746SOL     MW 6984   2.499   1.427   5.409 -0.4574  0.2552 -0.2251
 1747SOL     OW 6985   0.771   1.877   1.686 -0.2478 -0.0569 -0.2378
 1747SOL    HW1 6986   0.826   1.949   1.654  0.2662  0.3381  1.4442
 1747SOL    HW2 6987   0.833   1.807   1.706 -0.6440 -0.5904 -0.8402
 1747SOL     MW 6988   0.787   1.877   1.684 -0.2320 -0.0756 -0.0925
 1748SOL     OW 6989   5.364   3.679   1.015 -0.3259 -0.2931  0.0119
 1748SOL    HW1 6990   5.340   3.702   1.105 -0.0359  0.5145 -0.1067
 1748SOL    HW2 6991   5.291   3.709   0.962 -0.3007 -0.3637 -0.0625
 1748SOL     MW 6992   5.351   3.687   1.020 -0.2835 -0.1939 -0.0141
 1749SOL     OW 6993   4.508   2.973   3.380 -0.2488 -0.2065 -0.2862
 1749SOL    HW1 6994   4.567   3.038   3.341  1.0934 -0.4436  1.2533
 1749SOL    HW2 6995   4.486   2.915   3.307  0.3060  0.6807 -1.1927
 1749SOL     MW 6996   4.513   2.974   3.365  0.0065 -0.1190 -0.2010
 1750SOL     OW 6997   0.865   0.579   2.485  0.2284  0.0760  0.1031
 1750SOL    HW1 6998   0.936   0.637   2.459  0.5342  0.3917  1.5654
 1750SOL    HW2 6999   0.869   0.577   2.581 -0.2083 -1.8228  0.1133
 1750SOL     MW 7000   0.875   0.587   2.495  0.2108 -0.1371  0.3012
 1751SOL     OW 7001   1.325   0.064   3.552  0.2536  0.0355 -0.0963
 1751SOL    HW1 7002   1.310   0.150   3.513 -2.8041 -0.1159  0.4699
 1751SOL    HW2 7003   1.401   0.076   3.609  1.6128  1.5769 -2.0785
 1751SOL     MW 7004   1.333   0.077   3.554  0.0250  0.2225 -0.2868
 1752SOL     OW 7005   2.728   3.480   5.320  0.2598 -0.0641 -0.5508
 1752SOL    HW1 7006   2.766   3.466   5.407  0.1526 -1.4456 -0.6991
 1752SOL    HW2 7007   2.731   3.393   5.279  1.6944  0.8498 -2.5075
 1752SOL     MW 7008   2.734   3.466   5.326  0.4384 -0.1270 -0.8341
 1753SOL     OW 7009   3.059   0.982   1.493  0.1727 -1.0853 -0.6776
 1753SOL    HW1 7010   3.043   0.923   1.420 -1.1564 -0.6018 -0.7999
 1753SOL    HW2 7011   3.106   0.929   1.558 -1.5548 -2.4648 -0.5048
 1753SOL     MW 7012   3.063   0.967   1.492 -0.2387 -1.2059 -0.6708
 1754SOL     OW 7013   3.047   0.138   5.138  0.0666 -0.5983  0.3829
 1754SOL    HW1 7014   2.974   0.095   5.094  1.8574  0.1453 -3.8208
 1754SOL    HW2 7015   3.047   0.227   5.102  3.0436 -0.6234  0.0894
 1754SOL     MW 7016   3.037   0.144   5.127  0.7083 -0.5016 -0.2223
 1755SOL     OW 7017   0.727   1.260   5.190  0.0152  0.3646  1.2833
 1755SOL    HW1 7018   0.666   1.310   5.136  1.8406  1.0218 -0.3001
 1755SOL    HW2 7019   0.675   1.188   5.225 -1.1524 -0.7001 -2.1881
 1755SOL     MW 7020   0.712   1.257   5.187  0.1038  0.3097  0.6031
 1756SOL     OW 7021   5.084   0.237   4.664  0.3442 -0.3114  0.0337
 1756SOL    HW1 7022   5.006   0.238   4.609 -0.8249 -2.9088  1.4289
 1756SOL    HW2 7023   5.084   0.322   4.709 -0.7718  0.3375 -1.1531
 1756SOL     MW 7024   5.074   0.249   4.663  0.0367 -0.5736  0.0618
 1757SOL     OW 7025   3.097   4.210   4.979 -0.0462  0.1647  0.3066
 1757SOL    HW1 7026   3.169   4.157   5.014  1.2588  1.5152 -0.2073
 1757SOL    HW2 7027   3.085   4.178   4.889  0.5308  0.5095  0.0988
 1757SOL     MW 7028   3.105   4.199   4.971  0.2071  0.3928  0.2095
 1758SOL     OW 7029   4.440   0.715   5.490 -0.5473  0.0733 -0.1467
 1758SOL    HW1 7030   4.536   0.717   5.488 -0.5487 -0.3350 -1.4852
 1758SOL    HW2 7031   4.413   0.789   5.434 -1.0426  0.9274  1.1698
 1758SOL     MW 7032   4.449   0.725   5.482 -0.6142  0.1333 -0.1497
 1759SOL     OW 7033   2.267   4.493   1.075  0.2440  0.4396  0.6996
 1759SOL    HW1 7034   2.249   4.553   1.147  1.0043  0.2503  1.0479
 1759SOL    HW2 7035   2.232   4.538   0.998 -0.8084  0.5248  1.2079
 1759SOL     MW 7036   2.260   4.507   1.074  0.2047  0.4256  0.8149
 1760SOL     OW 7037   0.778   5.182   0.861 -0.4960  0.3638  0.4759
 1760SOL    HW1 7038   0.743   5.269   0.879  1.9503  1.1347  2.0194
 1760SOL    HW2 7039   0.716   5.122   0.904 -1.7023  1.3711  0.1994
 1760SOL     MW 7040   0.765   5.185   0.869 -0.3291  0.6031  0.6464
 1761SOL     OW 7041   0.784   2.903   2.008  0.1953  0.5712  0.2500
 1761SOL    HW1 7042   0.857   2.841   2.000 -0.6487 -0.4097 -0.0674
 1761SOL    HW2 7043   0.789   2.934   2.098  0.1912 -0.5385  0.6551
 1761SOL     MW 7044   0.795   2.898   2.019  0.0811  0.2899  0.2618
 1762SOL     OW 7045   4.408   3.911   0.524 -0.1209 -0.4767  0.1422
 1762SOL    HW1 7046   4.378   3.968   0.453  0.1057  2.7591  2.4419
 1762SOL    HW2 7047   4.341   3.918   0.591  0.7187 -1.6678  1.1703
 1762SOL     MW 7048   4.395   3.919   0.523  0.0226 -0.2015  0.5900
 1763SOL     OW 7049   1.039   4.552   1.175  0.6292  0.2772 -0.3838
 1763SOL    HW1 7050   1.008   4.639   1.201 -0.0038 -0.1099  0.2024
 1763SOL    HW2 7051   1.132   4.564   1.158  0.8965  0.7725  1.2262
 1763SOL     MW 7052   1.047   4.565   1.176  0.5800  0.2918 -0.0882
 1764SOL     OW 7053   4.635   3.005   0.232  0.1842  0.0068 -0.0028
 1764SOL    HW1 7054   4.677   3.046   0.308  0.2277  0.8532 -0.4746
 1764SOL    HW2 7055   4.700   3.009   0.163  0.8669 -2.5002  0.3966
 1764SOL     MW 7056   4.649   3.011   0.233  0.2819 -0.2167 -0.0126
 1765SOL     OW 7057   3.670   3.516   2.207 -0.3718 -0.5631 -0.3308
 1765SOL    HW1 7058   3.692   3.429   2.241  1.0753  0.2875  1.0419
 1765SOL    HW2 7059   3.607   3.551   2.270  0.7385  0.2092  0.3954
 1765SOL     MW 7060   3.664   3.509   2.220 -0.0276 -0.3447 -0.0484
 1766SOL     OW 7061   2.916   1.315   2.238  0.4733  0.1521 -0.1632
 1766SOL    HW1 7062   2.946   1.404   2.223  1.4487 -0.3983 -1.6962
 1766SOL    HW2 7063   2.903   1.278   2.151 -0.8122 -0.9306  0.4373
 1766SOL     MW 7064   2.919   1.322   2.225  0.4316 -0.0676 -0.2887
 1767SOL     OW 7065   3.122   5.210   0.324 -0.4218  0.3029 -0.2563
 1767SOL    HW1 7066   3.048   5.246   0.373 -0.4627  2.0169 -1.4929
 1767SOL    HW2 7067   3.114   5.248   0.236  0.1301 -2.0001 -1.3782
 1767SOL     MW 7068   3.111   5.220   0.319 -0.3530  0.2236 -0.5737
 1768SOL     OW 7069   1.068   5.342   5.316 -0.1352 -0.2830  0.1492
 1768SOL    HW1 7070   1.041   5.264   5.267  0.3278 -1.2005  1.2995
 1768SOL    HW2 7071   1.077   5.311   5.406 -1.3999  1.4447  0.9371
 1768SOL     MW 7072   1.065   5.327   5.321 -0.2431 -0.1739  0.4100
 1769SOL     OW 7073   4.216   4.023   2.622 -0.5556 -0.2679  0.5918
 1769SOL    HW1 7074   4.297   4.064   2.592 -1.6123  1.1329 -0.4838
 1769SOL    HW2 7075   4.194   3.960   2.552  1.5593 -3.6445  2.6526
 1769SOL     MW 7076   4.224   4.020   2.608 -0.4132 -0.5338  0.7244
 1770SOL     OW 7077   0.285   4.189   1.741 -0.3765  0.0061  0.4631
 1770SOL    HW1 7078   0.307   4.242   1.664  0.4089 -0.7891  0.1156
 1770SOL    HW2 7079   0.292   4.249   1.815  0.2233  0.4608  0.0503
 1770SOL     MW 7080   0.289   4.204   1.740 -0.1901 -0.0397  0.3608
 1771SOL     OW 7081   2.842   2.059   1.806 -0.3564 -0.5819 -0.7204
 1771SOL    HW1 7082   2.784   1.983   1.795  0.8713 -1.3449 -2.3987
 1771SOL    HW2 7083   2.920   2.023   1.847 -0.5436  0.2073  0.3825
 1771SOL     MW 7084   2.845   2.044   1.810 -0.2164 -0.5784 -0.7978
 1772SOL     OW 7085   2.475   1.096   1.153  0.0813 -0.0946  0.1663
 1772SOL    HW1 7086   2.395   1.084   1.204 -0.1235  1.4325  0.2306
 1772SOL    HW2 7087   2.447   1.085   1.062  0.5353 -3.3121  0.2845
 1772SOL     MW 7088   2.461   1.093   1.148  0.1149 -0.3221  0.1908
 1773SOL     OW 7089   2.873   4.900   0.067  0.4193 -0.0300 -0.4106
 1773SOL    HW1 7090   2.808   4.931   0.131  0.6260 -0.3432 -0.0443
 1773SOL    HW2 7091   2.841   4.814   0.041  0.5837 -0.0993 -0.3791
 1773SOL     MW 7092   2.860   4.893   0.072  0.4693 -0.0815 -0.3571
 1774SOL     OW 7093   1.428   2.575   2.699 -0.5276  0.4517 -0.3160
 1774SOL    HW1 7094   1.453   2.589   2.607 -1.6544  0.7388 -0.6006
 1774SOL    HW2 7095   1.414   2.663   2.734  2.0809  0.4924  0.8231
 1774SOL     MW 7096   1.429   2.588   2.691 -0.3282  0.4958 -0.2010
 1775SOL     OW 7097   5.266   2.378   1.890  0.8395  0.6270  0.2945
 1775SOL    HW1 7098   5.296   2.287   1.890 -0.0508  0.3173 -0.9509
 1775SOL    HW2 7099   5.181   2.375   1.934  0.5968  0.7673 -0.1561
 1775SOL     MW 7100   5.259   2.365   1.896  0.6870  0.6042  0.0662
 1776SOL     OW 7101   0.853   1.925   1.291 -0.7010 -0.1190  0.4646
 1776SOL    HW1 7102   0.874   1.992   1.227  0.7186  0.6561  1.6807
 1776SOL    HW2 7103   0.788   1.966   1.349  1.9253  1.2129  2.6667
 1776SOL     MW 7104   0.847   1.939   1.291 -0.1565  0.1646  0.9246
 1777SOL     OW 7105   3.196   4.833   4.239  0.9940  0.3445  0.6129
 1777SOL    HW1 7106   3.102   4.843   4.249  0.5754 -1.3229 -1.1658
 1777SOL    HW2 7107   3.218   4.878   4.158  1.5970  0.0238  0.5862
 1777SOL     MW 7108   3.187   4.841   4.230  1.0188  0.0769  0.3699
 1778SOL     OW 7109   3.825   0.173   1.186  0.0862 -0.4922 -0.2531
 1778SOL    HW1 7110   3.783   0.091   1.211 -0.5509 -0.3782 -0.9350
 1778SOL    HW2 7111   3.794   0.236   1.251  1.5405 -1.0198  1.0273
 1778SOL     MW 7112   3.816   0.171   1.198  0.1962 -0.5479 -0.1726
 1779SOL     OW 7113   4.821   4.245   4.695 -0.1296 -0.0212 -0.0020
 1779SOL    HW1 7114   4.902   4.221   4.740 -0.7587 -1.5637  0.4102
 1779SOL    HW2 7115   4.776   4.161   4.681 -0.3830  0.4688 -2.7537
 1779SOL     MW 7116   4.826   4.230   4.699 -0.2484 -0.1628 -0.3168
 1780SOL     OW 7117   0.721   2.273   3.863  0.2136  0.1608 -0.3193
 1780SOL    HW1 7118   0.632   2.304   3.843 -0.6456 -0.2324  2.4308
 1780SOL    HW2 7119   0.726   2.188   3.821 -0.4166  0.5162 -1.1496
 1780SOL     MW 7120   0.710   2.266   3.854  0.0131  0.1557 -0.0609
 1781SOL     OW 7121   2.567   0.254   3.910  0.1435 -0.3198  0.4361
 1781SOL    HW1 7122   2.650   0.299   3.898 -1.1717  1.5262 -3.1183
 1781SOL    HW2 7123   2.584   0.163   3.885  0.7077  0.4916 -2.3589
 1781SOL     MW 7124   2.580   0.248   3.905  0.0424  0.0378 -0.4184
 1782SOL     OW 7125   4.176   5.338   0.605  0.2352  0.3918  0.0892
 1782SOL    HW1 7126   4.105   5.346   0.541  0.8608  0.9009 -0.5499
 1782SOL    HW2 7127   4.175   5.245   0.630 -0.8905  0.4596  0.3788
 1782SOL     MW 7128   4.166   5.327   0.600  0.1679  0.4694  0.0422
 1783SOL     OW 7129   2.185   4.574   0.831  0.6857 -0.1092  0.1419
 1783SOL    HW1 7130   2.091   4.578   0.812  0.9465  1.1602 -1.0080
 1783SOL    HW2 7131   2.213   4.491   0.791 -0.7080 -3.0784  4.5877
 1783SOL     MW 7132   2.176   4.563   0.823  0.5332 -0.3379  0.5854
 1784SOL     OW 7133   4.024   3.585   0.994  0.4377 -0.4718  0.4456
 1784SOL    HW1 7134   4.085   3.571   0.921 -0.2330 -1.3221  0.0203
 1784SOL    HW2 7135   4.062   3.538   1.068 -0.8008 -3.0963 -0.4407
 1784SOL     MW 7136   4.037   3.577   0.994  0.1808 -0.9395  0.2691
 1785SOL     OW 7137   3.339   0.250   1.053 -0.2405 -0.1066 -0.6866
 1785SOL    HW1 7138   3.432   0.244   1.032 -0.2164 -0.7832 -0.3941
 1785SOL    HW2 7139   3.308   0.160   1.052 -0.6149 -0.0085  0.4977
 1785SOL     MW 7140   3.347   0.237   1.050 -0.2876 -0.1845 -0.4878
 1786SOL     OW 7141   0.439   3.653   5.175  0.0868 -0.2782  0.0807
 1786SOL    HW1 7142   0.450   3.576   5.230  0.8681  0.7142  1.3725
 1786SOL    HW2 7143   0.430   3.726   5.237 -1.5932  0.5731 -1.0804
 1786SOL     MW 7144   0.439   3.652   5.191 -0.0342 -0.0301  0.0983
 1787SOL     OW 7145   2.312   0.189   0.354 -0.1010  0.1806  0.7199
 1787SOL    HW1 7146   2.263   0.108   0.346 -0.2600  0.2813  0.6541
 1787SOL    HW2 7147   2.292   0.237   0.274  0.8112 -0.1555  0.2738
 1787SOL     MW 7148   2.303   0.185   0.342  0.0004  0.1490  0.6510
 1788SOL     OW 7149   3.158   3.605   4.554  0.2570  0.4009 -0.1860
 1788SOL    HW1 7150   3.078   3.572   4.513  0.0891  0.7049 -0.1009
 1788SOL    HW2 7151   3.159   3.563   4.640  0.4233  0.0438 -0.3610
 1788SOL     MW 7152   3.147   3.595   4.560  0.2568  0.3937 -0.1981
 1789SOL     OW 7153   4.759   3.707   2.246  0.4174 -0.7277  0.0386
 1789SOL    HW1 7154   4.677   3.691   2.198  0.8644 -1.8571 -0.3701
 1789SOL    HW2 7155   4.740   3.678   2.335 -0.2202  0.8140  0.4500
 1789SOL     MW 7156   4.745   3.701   2.251  0.3918 -0.6722  0.0390
 1790SOL     OW 7157   1.816   0.177   1.371  0.5517 -0.1048 -0.4915
 1790SOL    HW1 7158   1.744   0.180   1.308  0.8258  0.7288 -0.7795
 1790SOL    HW2 7159   1.799   0.250   1.430  0.7015 -0.4295 -0.0467
 1790SOL     MW 7160   1.804   0.187   1.370  0.6088 -0.0363 -0.4704
 1791SOL     OW 7161   2.434   1.875   2.371  0.0516 -0.1136  0.5256
 1791SOL    HW1 7162   2.398   1.961   2.393  0.0019 -0.3238  1.2930
 1791SOL    HW2 7163   2.466   1.885   2.281 -1.4743  0.2069 -0.0022
 1791SOL     MW 7164   2.434   1.888   2.362 -0.1604 -0.0987  0.5578
 1792SOL     OW 7165   1.364   3.321   1.065 -0.0979 -0.1110 -0.0736
 1792SOL    HW1 7166   1.453   3.296   1.041  0.3047 -0.2649  1.4307
 1792SOL    HW2 7167   1.311   3.244   1.047 -0.2639  0.4989 -2.4902
 1792SOL     MW 7168   1.369   3.307   1.060 -0.0661 -0.0496 -0.1964
 1793SOL     OW 7169   3.907   4.691   3.651  0.3004 -0.8029  0.3015
 1793SOL    HW1 7170   3.903   4.784   3.673  0.9552 -0.5209 -0.7330
 1793SOL    HW2 7171   3.982   4.683   3.593  0.3500 -2.0104  0.5107
 1793SOL     MW 7172   3.916   4.703   3.646  0.3952 -0.9274  0.1904
 1794SOL     OW 7173   4.917   2.752   1.443 -0.5215  0.6475 -0.2381
 1794SOL    HW1 7174   4.926   2.725   1.534  1.1949  0.3831 -0.4527
 1794SOL    HW2 7175   4.918   2.848   1.446 -0.9487  0.6466  0.0445
 1794SOL     MW 7176   4.918   2.761   1.455 -0.3480  0.6118 -0.2290
 1795SOL     OW 7177   1.725   2.376   0.798  0.4652 -0.2915  0.4096
 1795SOL    HW1 7178   1.813   2.370   0.836  0.6471 -0.0420  0.0365
 1795SOL    HW2 7179   1.705   2.470   0.799  0.6027 -0.2492 -0.3999
 1795SOL     MW 7180   1.734   2.388   0.803  0.5082 -0.2522  0.2504
 1796SOL     OW 7181   1.153   0.670   3.073 -0.3629  0.1316 -0.5521
 1796SOL    HW1 7182   1.138   0.596   3.131  0.9149 -0.6095 -1.1449
 1796SOL    HW2 7183   1.229   0.646   3.022 -1.2893  0.8823 -2.3755
 1796SOL     MW 7184   1.161   0.657   3.074 -0.3157  0.1329 -0.8772
 1797SOL     OW 7185   4.308   0.599   3.492 -0.2140 -0.0397  0.4157
 1797SOL    HW1 7186   4.280   0.543   3.565  0.1192 -1.0409 -0.2014
 1797SOL    HW2 7187   4.228   0.617   3.444 -0.3725  0.2866  0.7964
 1797SOL     MW 7188   4.294   0.594   3.496 -0.1904 -0.1305  0.3839
 1798SOL     OW 7189   0.046   1.320   5.012 -0.3738 -0.5024  0.3007
 1798SOL    HW1 7190   0.033   1.397   4.957  0.6412  1.1759  2.2987
 1798SOL    HW2 7191   0.135   1.292   4.994 -0.5105 -0.8094  0.0875
 1798SOL     MW 7192   0.056   1.327   5.002 -0.2556 -0.3179  0.5409
 1799SOL     OW 7193   4.246   1.327   4.509 -0.1046 -1.2375 -0.4132
 1799SOL    HW1 7194   4.326   1.358   4.467  0.1991 -0.6000  0.6088
 1799SOL    HW2 7195   4.243   1.373   4.593  0.6474 -4.3202  1.4582
 1799SOL     MW 7196   4.256   1.338   4.515  0.0375 -1.5665 -0.0238
 1800SOL     OW 7197   1.169   2.921   1.318 -0.4725 -0.1629 -0.0349
 1800SOL    HW1 7198   1.109   2.847   1.305 -3.1104  1.8765 -0.4170
 1800SOL    HW2 7199   1.176   2.961   1.231 -0.1798  0.7889  0.4120
 1800SOL     MW 7200   1.162   2.916   1.304 -0.7881  0.2396 -0.0262
 1801SOL     OW 7201   0.717   2.355   1.622  0.1453  0.3037  0.3212
 1801SOL    HW1 7202   0.654   2.309   1.677 -0.5669  1.7882  0.8053
 1801SOL    HW2 7203   0.688   2.337   1.533  0.0807 -0.4348  0.4838
 1801SOL     MW 7204   0.704   2.346   1.617  0.0407  0.4041  0.4082
 1802SOL     OW 7205   0.916   1.568   3.365  0.5176 -0.0222 -0.0780
 1802SOL    HW1 7206   0.849   1.593   3.301 -0.4003 -0.8677  0.5137
 1802SOL    HW2 7207   0.931   1.647   3.417  0.7256  0.4586 -0.8490
 1802SOL     MW 7208   0.909   1.582   3.363  0.4220 -0.0713 -0.1022
 1803SOL     OW 7209   5.405   2.713   4.305  0.2311  0.1444 -0.0047
 1803SOL    HW1 7210   5.432   2.705   4.213  0.5514  0.6191  0.0427
 1803SOL    HW2 7211   5.436   2.800   4.331 -1.2685  0.6678  0.0870
 1803SOL     MW 7212   5.413   2.724   4.296  0.0723  0.2787  0.0140
 1804SOL     OW 7213   2.313   4.560   0.242 -0.1301  0.7658 -0.0399
 1804SOL    HW1 7214   2.366   4.625   0.195  2.3175  0.2207  1.7484
 1804SOL    HW2 7215   2.283   4.604   0.321  1.0128 -0.0112  0.8698
 1804SOL     MW 7216   2.316   4.574   0.246  0.3531  0.5878  0.3232
 1805SOL     OW 7217   5.488   4.888   3.447 -0.2791 -0.3708  0.1269
 1805SOL    HW1 7218   5.552   4.825   3.415 -1.1912  0.1137 -3.0065
 1805SOL    HW2 7219   5.428   4.837   3.502 -0.5002 -2.1075 -1.6174
 1805SOL     MW 7220   5.488   4.873   3.450 -0.4316 -0.5394 -0.5295
 1806SOL     OW 7221   0.419   0.955   3.485 -0.0322  0.3398  0.1944
 1806SOL    HW1 7222   0.407   0.867   3.449  1.4590  0.0927  0.2436
 1806SOL    HW2 7223   0.330   0.985   3.504 -0.6066 -0.9332 -0.3356
 1806SOL     MW 7224   0.405   0.947   3.482  0.0912  0.1352  0.1297
 1807SOL     OW 7225   5.335   4.898   3.217 -0.0614 -0.1500  0.0446
 1807SOL    HW1 7226   5.384   4.904   3.299  1.1284  0.7761 -0.6989
 1807SOL    HW2 7227   5.394   4.853   3.157 -0.3789  0.3675 -0.6701
 1807SOL     MW 7228   5.350   4.893   3.220  0.0560  0.0442 -0.1516
 1808SOL     OW 7229   2.468   2.246   0.945 -0.0746 -0.5838  0.7152
 1808SOL    HW1 7230   2.446   2.154   0.927  1.8905 -1.0665  0.6057
 1808SOL    HW2 7231   2.429   2.264   1.030 -2.3237 -0.8248 -0.1904
 1808SOL     MW 7232   2.460   2.236   0.954 -0.1128 -0.6812  0.5786
 1809SOL     OW 7233   4.573   4.013   3.193  0.0058  0.4931  0.2503
 1809SOL    HW1 7234   4.492   4.064   3.200  0.4680  1.2132  0.4350
 1809SOL    HW2 7235   4.602   4.027   3.103 -1.9497 -2.6898 -1.0624
 1809SOL     MW 7236   4.566   4.022   3.182 -0.1952  0.1616  0.0985
 1810SOL     OW 7237   2.356   3.103   5.214  0.4105 -0.5974  0.0513
 1810SOL    HW1 7238   2.427   3.039   5.221 -0.0209 -1.2033 -0.9192
 1810SOL    HW2 7239   2.306   3.076   5.137  0.0639  0.7579 -0.2370
 1810SOL     MW 7240   2.359   3.091   5.204  0.3058 -0.4966 -0.1181
 1811SOL     OW 7241   0.430   2.989   1.045 -0.3886 -0.1890  0.0967
 1811SOL    HW1 7242   0.466   3.044   1.115 -0.4716  1.1630 -0.8963
 1811SOL    HW2 7243   0.450   2.900   1.073  0.5685  0.3678  1.3013
 1811SOL     MW 7244   0.437   2.985   1.059 -0.2709  0.0679  0.1252
 1812SOL     OW 7245   2.983   1.248   1.207 -0.4454 -0.2397 -0.2112
 1812SOL    HW1 7246   3.058   1.234   1.264  0.4561  0.1029 -1.2726
 1812SOL    HW2 7247   2.957   1.339   1.224 -1.4914 -0.7625  1.1306
 1812SOL     MW 7248   2.989   1.259   1.217 -0.4648 -0.2639 -0.1734
 1813SOL     OW 7249   1.660   3.304   3.575  0.3547 -0.5334  1.2036
 1813SOL    HW1 7250   1.751   3.328   3.592  0.8340 -2.1225  0.9825
 1813SOL    HW2 7251   1.631   3.261   3.656 -0.4912  0.6930  1.5875
 1813SOL     MW 7252   1.668   3.302   3.588  0.3053 -0.5822  1.2255
 1814SOL     OW 7253   4.655   2.139   3.725 -0.1479  0.3339 -0.0907
 1814SOL    HW1 7254   4.653   2.107   3.635  1.6848  1.1745 -0.4746
 1814SOL    HW2 7255   4.566   2.127   3.756 -0.4858 -1.3190 -1.5320
 1814SOL     MW 7256   4.643   2.133   3.717  0.0533  0.2245 -0.3364
 1815SOL     OW 7257   4.846   3.765   4.712  0.2538 -0.0522 -0.1259
 1815SOL    HW1 7258   4.793   3.695   4.672  0.6901 -0.4995  0.0659
 1815SOL    HW2 7259   4.808   3.846   4.678  0.3010 -0.4077 -1.0742
 1815SOL     MW 7260   4.834   3.766   4.702  0.3189 -0.1603 -0.2277
 1816SOL     OW 7261   1.150   2.148   2.525  0.2589  0.0585 -0.6121
 1816SOL    HW1 7262   1.226   2.103   2.488  1.0494  0.4023  0.5369
 1816SOL    HW2 7263   1.186   2.230   2.559  0.2114 -1.3454  3.3781
 1816SOL     MW 7264   1.165   2.153   2.524  0.3589 -0.0841  0.0795
 1817SOL     OW 7265   1.529   3.890   2.108  0.0567  0.1481  0.5968
 1817SOL    HW1 7266   1.594   3.844   2.054  0.2802 -0.5150  1.4044
 1817SOL    HW2 7267   1.446   3.875   2.063  0.3168  0.1273  0.1064
 1817SOL     MW 7268   1.527   3.882   2.095  0.1218  0.0560  0.6395
 1818SOL     OW 7269   5.126   5.327   2.814 -0.3219 -0.2780  0.4429
 1818SOL    HW1 7270   5.175   5.401   2.850  1.0295 -0.0682 -1.6741
 1818SOL    HW2 7271   5.071   5.365   2.745 -1.0912 -0.9945  0.6360
 1818SOL     MW 7272   5.125   5.342   2.809 -0.2436 -0.3462  0.1839
 1819SOL     OW 7273   5.188   2.695   1.346  0.0872  0.2110 -0.2397
 1819SOL    HW1 7274   5.261   2.638   1.369  0.8089  1.0400 -0.3854
 1819SOL    HW2 7275   5.115   2.636   1.330  0.9306 -0.7124 -0.8537
 1819SOL     MW 7276   5.188   2.680   1.347  0.2979  0.1983 -0.3420
 1820SOL     OW 7277   2.038   0.959   0.145 -0.1883 -0.0556  0.1883
 1820SOL    HW1 7278   2.008   1.049   0.160  0.6859  0.1673  0.6521
 1820SOL    HW2 7279   2.111   0.947   0.206 -0.4119 -1.1460  0.2636
 1820SOL     MW 7280   2.044   0.970   0.155 -0.1008 -0.1724  0.2608
 1821SOL     OW 7281   4.047   0.718   2.772  0.2297  0.2019 -0.1407
 1821SOL    HW1 7282   3.969   0.692   2.724  1.3941  0.4676 -2.2984
 1821SOL    HW2 7283   4.107   0.644   2.763  1.1862  1.0264 -0.8408
 1821SOL     MW 7284   4.045   0.705   2.764  0.5152  0.3487 -0.5253
 1822SOL     OW 7285   4.220   3.002   0.064 -0.3998  0.2223  0.5159
 1822SOL    HW1 7286   4.267   3.072   0.109  0.9005 -0.4770  0.2815
 1822SOL    HW2 7287   4.169   3.047  -0.003  1.9259  0.8175 -0.9398
 1822SOL     MW 7288   4.219   3.018   0.061  0.0882  0.2083  0.2885
 1823SOL     OW 7289   1.097   3.834   2.237  0.2338 -0.1740  0.2712
 1823SOL    HW1 7290   1.030   3.868   2.297 -0.7619  1.5310 -1.6458
 1823SOL    HW2 7291   1.180   3.854   2.279 -0.4285  1.0870  1.0427
 1823SOL     MW 7292   1.099   3.841   2.251  0.0107  0.2252  0.1171
 1824SOL     OW 7293   3.473   1.057   3.062  0.5410  0.0354  0.2926
 1824SOL    HW1 7294   3.559   1.044   3.021  0.9229  0.4338  0.9530
 1824SOL    HW2 7295   3.435   0.969   3.066  0.1009  0.0801 -1.7217
 1824SOL     MW 7296   3.479   1.044   3.057  0.5332  0.0951  0.1104
 1825SOL     OW 7297   2.371   4.882   1.969  0.2976 -0.5939  0.4530
 1825SOL    HW1 7298   2.409   4.795   1.981 -1.2853 -1.1935  1.4674
 1825SOL    HW2 7299   2.303   4.869   1.904  0.1475 -0.0798  0.5085
 1825SOL     MW 7300   2.367   4.868   1.962  0.0644 -0.6054  0.5970
 1826SOL     OW 7301   0.888   0.239   3.828 -0.4659 -0.4503  0.3979
 1826SOL    HW1 7302   0.896   0.271   3.738  0.5975  0.6713  0.8631
 1826SOL    HW2 7303   0.889   0.318   3.881  1.1969 -1.1769  1.5358
 1826SOL     MW 7304   0.889   0.254   3.823 -0.0990 -0.3971  0.6137
 1827SOL     OW 7305   1.772   4.134   0.717  0.3075  0.2418 -0.0652
 1827SOL    HW1 7306   1.693   4.090   0.684  0.8379  0.4890 -1.7643
 1827SOL    HW2 7307   1.756   4.227   0.700  1.0809  0.2644 -0.6787
 1827SOL     MW 7308   1.759   4.140   0.710  0.4830  0.2781 -0.3764
 1828SOL     OW 7309   0.872   3.474   3.189 -0.0836  0.1699  0.0148
 1828SOL    HW1 7310   0.880   3.387   3.227 -1.3912 -0.2111 -0.5276
 1828SOL    HW2 7311   0.812   3.521   3.247  1.3774  1.0847  0.8718
 1828SOL     MW 7312   0.865   3.469   3.202 -0.0630  0.2417  0.0571
 1829SOL     OW 7313   4.871   4.208   3.005  0.1796 -0.0369  0.3157
 1829SOL    HW1 7314   4.937   4.183   3.069  0.6942 -0.0924 -0.2299
 1829SOL    HW2 7315   4.919   4.257   2.939 -0.6986  1.9226  1.0513
 1829SOL     MW 7316   4.886   4.211   3.005  0.1306  0.2193  0.3413
 1830SOL     OW 7317   1.080   4.872   2.471  1.1646  0.2188  0.1310
 1830SOL    HW1 7318   0.992   4.863   2.507  0.8361  1.8270 -0.2074
 1830SOL    HW2 7319   1.067   4.912   2.385  2.1037 -1.4016 -0.8100
 1830SOL     MW 7320   1.067   4.876   2.464  1.2468  0.2172 -0.0412
 1831SOL     OW 7321   4.184   3.936   3.520  0.3566 -0.2742 -0.1924
 1831SOL    HW1 7322   4.178   4.026   3.488 -1.2792  0.2744  1.4770
 1831SOL    HW2 7323   4.128   3.885   3.461  0.3080  0.0236 -0.4045
 1831SOL     MW 7324   4.176   3.941   3.508  0.1299 -0.1603  0.0037
 1832SOL     OW 7325   3.184   2.485   4.066  0.0712  0.9630 -0.0391
 1832SOL    HW1 7326   3.238   2.560   4.092  1.3602 -0.1400  0.5911
 1832SOL    HW2 7327   3.173   2.434   4.146  1.5168 -0.9066 -0.9571
 1832SOL     MW 7328   3.190   2.488   4.080  0.4392  0.5629 -0.0778
 1833SOL     OW 7329   0.671   1.971   2.356  0.1737  0.1828 -0.1932
 1833SOL    HW1 7330   0.644   1.884   2.387  2.5628 -1.0858 -1.3634
 1833SOL    HW2 7331   0.590   2.011   2.324 -0.8930 -1.9672 -0.3760
 1833SOL     MW 7332   0.656   1.964   2.356  0.3517 -0.2773 -0.3753
 1834SOL     OW 7333   2.650   4.277   3.164  0.4726  0.5401  0.5273
 1834SOL    HW1 7334   2.587   4.205   3.172 -1.3808  1.7653 -1.6515
 1834SOL    HW2 7335   2.658   4.291   3.069  3.0013  1.3785  0.7998
 1834SOL     MW 7336   2.643   4.269   3.152  0.5635  0.8178  0.2708
 1835SOL     OW 7337   4.524   4.770   3.084 -0.0246 -0.0713 -0.1885
 1835SOL    HW1 7338   4.486   4.818   3.010 -1.1767 -0.1143  0.3413
 1835SOL    HW2 7339   4.532   4.680   3.054 -0.2069 -0.0267 -0.3733
 1835SOL     MW 7340   4.520   4.765   3.070 -0.2042 -0.0711 -0.1421
 1836SOL     OW 7341   4.806   1.824   2.595 -0.0645  0.2537 -0.0106
 1836SOL    HW1 7342   4.846   1.909   2.576  0.8754 -0.5354 -1.8053
 1836SOL    HW2 7343   4.877   1.774   2.637  0.0130 -0.2763 -0.7595
 1836SOL     MW 7344   4.821   1.829   2.598  0.0724  0.0762 -0.3529
 1837SOL     OW 7345   3.389   0.689   4.130  0.0422 -0.2547  0.0358
 1837SOL    HW1 7346   3.479   0.692   4.098  0.5822 -1.1418  1.3425
 1837SOL    HW2 7347   3.346   0.623   4.075  0.3901 -0.3379 -0.1383
 1837SOL     MW 7348   3.395   0.680   4.118  0.1617 -0.3853  0.1883
 1838SOL     OW 7349   5.377   5.132   4.431  0.3959 -0.7564  0.9438
 1838SOL    HW1 7350   5.374   5.067   4.501 -0.0425 -1.5778  0.1706
 1838SOL    HW2 7351   5.393   5.082   4.352 -0.2908  0.0319  0.2865
 1838SOL     MW 7352   5.378   5.117   4.430  0.2445 -0.7609  0.7513
 1839SOL     OW 7353   0.882   3.004   2.540 -0.3782  0.1935 -0.9944
 1839SOL    HW1 7354   0.855   2.972   2.454  0.7379 -0.5194 -1.1046
 1839SOL    HW2 7355   0.960   3.057   2.522 -0.9171  1.1756 -0.5580
 1839SOL     MW 7356   0.889   3.007   2.526 -0.3005  0.2298 -0.9505
 1840SOL     OW 7357   2.157   5.122   2.442  0.1515  0.2655  0.0601
 1840SOL    HW1 7358   2.233   5.074   2.410 -0.4630 -0.5398 -0.2372
 1840SOL    HW2 7359   2.121   5.065   2.510  0.4992  1.1994  1.0547
 1840SOL     MW 7360   2.162   5.108   2.447  0.1156  0.2828  0.1539
 1841SOL     OW 7361   2.393   4.702   4.863 -0.3885 -0.1835  0.0281
 1841SOL    HW1 7362   2.348   4.785   4.849 -2.3546 -1.5270 -2.9042
 1841SOL    HW2 7363   2.343   4.640   4.809  2.4683 -2.7398  0.0930
 1841SOL     MW 7364   2.380   4.705   4.854 -0.2686 -0.7083 -0.3578
 1842SOL     OW 7365   3.629   3.034   0.430 -0.0899  0.3389  0.6806
 1842SOL    HW1 7366   3.589   2.954   0.463 -0.6390 -0.6935 -2.1319
 1842SOL    HW2 7367   3.721   3.011   0.414 -0.6494 -0.4550 -1.8905
 1842SOL     MW 7368   3.636   3.020   0.432 -0.2391  0.0931 -0.0439
 1843SOL     OW 7369   1.780   5.044   3.261 -0.3437 -0.1011  0.3692
 1843SOL    HW1 7370   1.867   5.083   3.256  0.7489 -2.5320 -2.3882
 1843SOL    HW2 7371   1.731   5.084   3.188 -1.3888  0.7617  1.4936
 1843SOL     MW 7372   1.785   5.055   3.250 -0.3373 -0.3122  0.1494
 1844SOL     OW 7373   3.966   0.409   0.551 -0.0179 -0.1875 -0.2837
 1844SOL    HW1 7374   3.888   0.465   0.559 -0.5648 -1.0330  0.4056
 1844SOL    HW2 7375   3.939   0.340   0.491  0.4806 -0.0229 -0.7003
 1844SOL     MW 7376   3.952   0.408   0.544 -0.0244 -0.2792 -0.2470
 1845SOL     OW 7377   1.396   1.918   0.872  0.2280  0.0201 -0.1659
 1845SOL    HW1 7378   1.353   1.895   0.789  0.0060  0.6553 -0.2291
 1845SOL    HW2 7379   1.429   2.007   0.858  0.8818 -0.1682  0.1560
 1845SOL     MW 7380   1.394   1.927   0.859  0.2861  0.0803 -0.1311
 1846SOL     OW 7381   0.328   1.020   2.462 -0.1761  0.5263 -0.4776
 1846SOL    HW1 7382   0.413   0.977   2.469 -0.6156 -0.5021 -1.2304
 1846SOL    HW2 7383   0.332   1.068   2.380 -0.0044  1.2452 -0.0613
 1846SOL     MW 7384   0.340   1.021   2.452 -0.2121  0.4847 -0.5229
 1847SOL     OW 7385   3.423   4.729   0.186  0.6746  0.9001  0.2488
 1847SOL    HW1 7386   3.487   4.784   0.231  1.6054 -0.4512  0.6409
 1847SOL    HW2 7387   3.377   4.683   0.257 -0.7294  1.8078 -0.0282
 1847SOL     MW 7388   3.426   4.730   0.202  0.6109  0.8404  0.2643
 1848SOL     OW 7389   1.399   2.842   5.115 -0.1880  0.0437 -0.6917
 1848SOL    HW1 7390   1.360   2.823   5.030  0.8724  2.1936 -1.7524
 1848SOL    HW2 7391   1.326   2.838   5.176 -0.9428 -1.7392 -1.6346
 1848SOL     MW 7392   1.384   2.839   5.112 -0.1469  0.0931 -0.9613
 1849SOL     OW 7393   3.159   4.777   5.350 -0.5750 -0.3862 -0.5344
 1849SOL    HW1 7394   3.129   4.712   5.287  0.3309  0.1890 -1.6003
 1849SOL    HW2 7395   3.139   4.862   5.309 -1.9823  0.0545  0.9434
 1849SOL     MW 7396   3.152   4.780   5.336 -0.6425 -0.2495 -0.4789
 1850SOL     OW 7397   5.026   5.501   3.186 -0.6810 -0.0754 -0.4559
 1850SOL    HW1 7398   4.965   5.477   3.116 -1.2466  1.4428 -0.5248
 1850SOL    HW2 7399   5.112   5.480   3.151 -1.1135 -2.1158 -0.4207
 1850SOL     MW 7400   5.029   5.495   3.172 -0.8154 -0.1457 -0.4604
 1851SOL     OW 7401   2.336   2.414   0.519 -0.0545 -0.1277  0.1941
 1851SOL    HW1 7402   2.370   2.499   0.492  1.0740 -0.3260  0.9502
 1851SOL    HW2 7403   2.400   2.351   0.488 -0.0283 -0.5602  1.0879
 1851SOL     MW 7404   2.349   2.417   0.511  0.1009 -0.2126  0.4162
 1852SOL     OW 7405   3.329   5.064   1.208 -0.0574  0.7290 -0.2959
 1852SOL    HW1 7406   3.416   5.038   1.177 -0.3771  0.9789 -1.4626
 1852SOL    HW2 7407   3.271   4.994   1.178 -0.0965 -0.0887  1.5933
 1852SOL     MW 7408   3.333   5.051   1.200 -0.1057  0.6526 -0.1987
 1853SOL     OW 7409   1.913   2.809   5.268  0.2440  0.3704 -0.2586
 1853SOL    HW1 7410   1.826   2.769   5.256  0.9537 -1.3457  0.0729
 1853SOL    HW2 7411   1.919   2.824   5.362  0.8693 -0.9162 -0.0739
 1853SOL     MW 7412   1.902   2.806   5.279  0.4237 -0.0337 -0.1891
 1854SOL     OW 7413   4.358   5.442   1.647  0.2297  0.4057 -0.6298
 1854SOL    HW1 7414   4.320   5.356   1.635 -3.0210  1.7023 -0.7522
 1854SOL    HW2 7415   4.326   5.471   1.733  2.5572  0.9604  0.1511
 1854SOL     MW 7416   4.349   5.435   1.657  0.1054  0.6548 -0.5412
 1855SOL     OW 7417   0.776   3.360   3.701 -0.2977  0.2232 -0.0581
 1855SOL    HW1 7418   0.745   3.272   3.720  1.0326 -0.1837  0.3894
 1855SOL    HW2 7419   0.703   3.403   3.657 -1.4541 -0.6548  0.9482
 1855SOL     MW 7420   0.762   3.354   3.697 -0.2743  0.0503  0.1376
 1856SOL     OW 7421   1.972   1.713   1.110  0.0894  0.1266  0.1782
 1856SOL    HW1 7422   2.013   1.799   1.103 -1.6260  1.0252  0.5476
 1856SOL    HW2 7423   2.031   1.654   1.063  1.4361  1.4501  0.1450
 1856SOL     MW 7424   1.985   1.717   1.103  0.0398  0.4256  0.2235
 1857SOL     OW 7425   2.059   1.480   2.214 -0.0797 -0.3778  0.2955
 1857SOL    HW1 7426   2.019   1.394   2.230 -1.2768  0.1292  0.1112
 1857SOL    HW2 7427   1.986   1.537   2.191  0.5839  0.9117  1.2548
 1857SOL     MW 7428   2.044   1.476   2.213 -0.1515 -0.1360  0.3998
 1858SOL     OW 7429   0.957   1.002   2.963 -0.4967 -0.2171 -0.3034
 1858SOL    HW1 7430   0.958   0.942   2.889 -0.4653  0.8595 -1.2182
 1858SOL    HW2 7431   0.866   1.005   2.991 -0.3708 -1.2535  0.2445
 1858SOL     MW 7432   0.945   0.995   2.957 -0.4755 -0.2117 -0.3528
 1859SOL     OW 7433   1.997   3.842   3.391  0.0583 -0.0019 -0.2247
 1859SOL    HW1 7434   1.966   3.755   3.367  0.8583 -0.1038 -0.9393
 1859SOL    HW2 7435   1.951   3.901   3.331  3.0227 -0.3562 -3.1820
 1859SOL     MW 7436   1.987   3.838   3.380  0.5649 -0.0633 -0.7189
 1860SOL     OW 7437   0.914   0.068   5.199 -0.2800  0.3366  0.1891
 1860SOL    HW1 7438   0.929  -0.004   5.260  0.0326  0.2298 -0.0154
 1860SOL    HW2 7439   0.998   0.113   5.193 -1.0806  2.3848  2.4265
 1860SOL     MW 7440   0.927   0.064   5.206 -0.3457  0.5979  0.4627
 1861SOL     OW 7441   1.096   2.869   2.639 -0.6877 -0.1316 -0.0634
 1861SOL    HW1 7442   1.005   2.891   2.620 -0.9174 -1.2713 -0.3174
 1861SOL    HW2 7443   1.102   2.866   2.734 -1.1395 -0.9319 -0.0538
 1861SOL     MW 7444   1.085   2.872   2.649 -0.7794 -0.3927 -0.0963
 1862SOL     OW 7445   5.100   2.405   5.223  0.1537  0.5357  0.0794
 1862SOL    HW1 7446   5.016   2.417   5.178  0.6121 -2.0676 -1.6376
 1862SOL    HW2 7447   5.164   2.446   5.165  0.2198  1.8539  1.0279
 1862SOL     MW 7448   5.097   2.412   5.210  0.2243  0.3628 -0.0240
 1863SOL     OW 7449   3.439   0.309   2.182 -0.5344  0.3850  0.5354
 1863SOL    HW1 7450   3.489   0.271   2.109 -0.5707  0.8341  0.2773
 1863SOL    HW2 7451   3.506   0.330   2.247 -0.4688  0.2746  0.5063
 1863SOL     MW 7452   3.455   0.306   2.181 -0.5305  0.4306  0.4967
 1864SOL     OW 7453   4.873   5.157   2.154 -0.5850 -0.5876  0.1068
 1864SOL    HW1 7454   4.853   5.246   2.129 -0.5116 -0.2141  1.2810
 1864SOL    HW2 7455   4.858   5.105   2.076 -1.8787  0.2720 -0.2332
 1864SOL     MW 7456   4.868   5.162   2.140 -0.7492 -0.4216  0.2191
 1865SOL     OW 7457   3.992   0.439   3.559 -0.8366 -0.2486 -0.0737
 1865SOL    HW1 7458   4.063   0.460   3.620  0.3285 -0.5597 -1.2457
 1865SOL    HW2 7459   4.005   0.346   3.540 -2.8478 -0.8442  1.2474
 1865SOL     MW 7460   4.004   0.429   3.564 -0.9505 -0.3706 -0.0536
 1866SOL     OW 7461   5.523   0.544   5.092  0.2412  0.2304 -0.2333
 1866SOL    HW1 7462   5.428   0.549   5.092  0.2375  0.1598 -0.4690
 1866SOL    HW2 7463   5.550   0.603   5.163  0.0721  1.1897 -0.9468
 1866SOL     MW 7464   5.514   0.553   5.102  0.2179  0.3500 -0.3610
 1867SOL     OW 7465   3.893   1.606   2.560  0.3731  0.5692  0.1470
 1867SOL    HW1 7466   3.976   1.570   2.529  0.6684  1.2289  0.1473
 1867SOL    HW2 7467   3.904   1.701   2.554 -0.9817  0.6693 -1.4198
 1867SOL     MW 7468   3.906   1.614   2.555  0.2305  0.6715 -0.0638
 1868SOL     OW 7469   1.540   3.063   3.150 -0.1714  0.3005 -0.2430
 1868SOL    HW1 7470   1.599   3.104   3.214 -1.1147  1.7227 -0.2502
 1868SOL    HW2 7471   1.552   3.116   3.071  0.1276 -0.7415 -0.9093
 1868SOL     MW 7472   1.550   3.076   3.148 -0.2581  0.3517 -0.3336
 1869SOL     OW 7473   2.301   0.757   2.922 -0.4632 -0.5427  0.5117
 1869SOL    HW1 7474   2.339   0.705   2.993 -1.5084 -1.1734  0.6351
 1869SOL    HW2 7475   2.308   0.848   2.953 -0.0747 -0.7406  1.0158
 1869SOL     MW 7476   2.307   0.763   2.936 -0.5516 -0.6542  0.5962
 1870SOL     OW 7477   3.373   0.489   4.328  0.2318 -0.1489  0.6129
 1870SOL    HW1 7478   3.392   0.555   4.261 -1.1457 -1.2163 -0.9244
 1870SOL    HW2 7479   3.457   0.471   4.370  1.4821 -0.5298 -1.8906
 1870SOL     MW 7480   3.387   0.495   4.325  0.2147 -0.3438  0.0691
 1871SOL     OW 7481   4.355   5.499   1.371 -0.1561  0.1953  0.5153
 1871SOL    HW1 7482   4.359   5.483   1.465 -0.1073 -0.5672  0.3856
 1871SOL    HW2 7483   4.315   5.586   1.364 -1.4811 -0.3171  1.2073
 1871SOL     MW 7484   4.350   5.509   1.383 -0.3278  0.0237  0.5910
 1872SOL     OW 7485   2.855   3.508   4.947 -0.0119  0.0568  0.2095
 1872SOL    HW1 7486   2.944   3.512   4.912 -0.1007  1.1218  0.0622
 1872SOL    HW2 7487   2.863   3.544   5.036 -0.1087 -0.9216  0.6348
 1872SOL     MW 7488   2.868   3.513   4.955 -0.0369  0.0684  0.2469
 1873SOL     OW 7489   3.637   4.426   2.670 -0.0666  0.1967 -0.5055
 1873SOL    HW1 7490   3.635   4.354   2.607  1.9533  0.2941 -0.7680
 1873SOL    HW2 7491   3.650   4.383   2.754 -0.4956  0.1699 -0.4548
 1873SOL     MW 7492   3.639   4.410   2.673  0.1475  0.2062 -0.5340
 1874SOL     OW 7493   2.480   4.392   1.234 -0.5595 -0.5087 -0.1313
 1874SOL    HW1 7494   2.409   4.417   1.174 -0.2769  0.0602 -0.2319
 1874SOL    HW2 7495   2.445   4.316   1.281 -1.2698 -0.1885 -0.1222
 1874SOL     MW 7496   2.466   4.385   1.232 -0.6171 -0.3891 -0.1436
 1875SOL     OW 7497   1.383   0.560   5.476  0.3223 -0.3319 -0.1532
 1875SOL    HW1 7498   1.395   0.550   5.570 -1.4576 -0.7752  0.0727
 1875SOL    HW2 7499   1.471   0.577   5.442  1.0462 -0.4704  1.5359
 1875SOL     MW 7500   1.396   0.561   5.484  0.1802 -0.4102  0.1045
 1876SOL     OW 7501   1.233   0.120   2.115  0.0333 -0.3272 -0.0841
 1876SOL    HW1 7502   1.146   0.108   2.075  0.7856 -1.2492 -1.5133
 1876SOL    HW2 7503   1.214   0.143   2.206 -1.7474  1.4524 -0.8227
 1876SOL     MW 7504   1.218   0.122   2.122 -0.1051 -0.2118 -0.3758
 1877SOL     OW 7505   4.017   0.510   1.467 -0.4833  0.0119 -0.7152
 1877SOL    HW1 7506   3.959   0.437   1.487 -0.3179 -0.0905 -0.5988
 1877SOL    HW2 7507   3.963   0.588   1.478 -0.2939 -0.0166  0.5453
 1877SOL     MW 7508   4.002   0.511   1.471 -0.4356 -0.0057 -0.5299
 1878SOL     OW 7509   4.558   4.506   2.974  0.0954  0.1516  0.3343
 1878SOL    HW1 7510   4.614   4.458   3.035  1.2530  2.0013  0.8326
 1878SOL    HW2 7511   4.483   4.449   2.959  2.1110 -2.5324 -0.4219
 1878SOL     MW 7512   4.556   4.492   2.980  0.5225  0.0393  0.2996
 1879SOL     OW 7513   4.604   4.443   2.168  0.1478 -0.6231  0.0216
 1879SOL    HW1 7514   4.608   4.361   2.217 -0.0924 -0.6477  0.0019
 1879SOL    HW2 7515   4.536   4.494   2.213 -0.0729 -0.6460 -0.2833
 1879SOL     MW 7516   4.595   4.439   2.181  0.0858 -0.6295 -0.0221
 1880SOL     OW 7517   3.698   0.131   1.726  0.1842 -0.0172 -0.5806
 1880SOL    HW1 7518   3.770   0.081   1.763  1.3938  1.3420 -1.0105
 1880SOL    HW2 7519   3.666   0.184   1.799 -0.5397 -0.7749 -0.3366
 1880SOL     MW 7520   3.703   0.132   1.740  0.2495  0.0637 -0.6056
 1881SOL     OW 7521   4.619   3.346   2.206  0.0199  0.5303 -0.4367
 1881SOL    HW1 7522   4.586   3.279   2.147 -0.7389 -0.9964  1.6264
 1881SOL    HW2 7523   4.584   3.428   2.170 -0.7789 -0.3694 -1.8330
 1881SOL     MW 7524   4.610   3.348   2.193 -0.1897  0.2037 -0.3470
 1882SOL     OW 7525   4.119   4.893   5.391 -0.0330 -0.5147  0.1953
 1882SOL    HW1 7526   4.179   4.950   5.343 -0.5913 -0.0600  0.0299
 1882SOL    HW2 7527   4.100   4.822   5.330 -0.3590 -0.1915 -0.0886
 1882SOL     MW 7528   4.124   4.891   5.376 -0.1520 -0.4100  0.1348
 1883SOL     OW 7529   5.180   0.524   2.088  0.2131  0.6311  0.3711
 1883SOL    HW1 7530   5.256   0.551   2.139  1.2533 -2.0028  0.3755
 1883SOL    HW2 7531   5.179   0.583   2.013  3.6034 -0.4676 -0.7338
 1883SOL     MW 7532   5.190   0.535   2.084  0.8094  0.1288  0.2230
 1884SOL     OW 7533   4.480   0.176   3.404  0.2467 -0.0432  0.0259
 1884SOL    HW1 7534   4.513   0.138   3.486 -0.1175  0.8589  0.6119
 1884SOL    HW2 7535   4.548   0.159   3.340  0.4196 -1.0019  0.4555
 1884SOL     MW 7536   4.493   0.169   3.407  0.2210 -0.0508  0.1625
 1885SOL     OW 7537   4.761   4.546   0.737 -0.0255  0.0079 -0.2755
 1885SOL    HW1 7538   4.730   4.601   0.809 -0.6736 -1.5554  0.6822
 1885SOL    HW2 7539   4.856   4.555   0.740 -0.1174  1.1100 -0.1873
 1885SOL     MW 7540   4.770   4.555   0.747 -0.1251 -0.0542 -0.1348
 1886SOL     OW 7541   4.213   1.168   4.177  0.0141 -0.1547  0.4422
 1886SOL    HW1 7542   4.192   1.141   4.088 -1.4042  0.9478  0.4112
 1886SOL    HW2 7543   4.139   1.138   4.230 -1.0350  2.4325  0.6027
 1886SOL     MW 7544   4.200   1.161   4.172 -0.3180  0.3419  0.4596
 1887SOL     OW 7545   2.229   2.591   2.534  0.4275 -0.2863 -0.4232
 1887SOL    HW1 7546   2.220   2.582   2.628  0.5380 -1.1780 -0.4848
 1887SOL    HW2 7547   2.256   2.682   2.520  0.0696 -0.0568  0.3702
 1887SOL     MW 7548   2.232   2.602   2.545  0.3942 -0.3754 -0.3247
 1888SOL     OW 7549   0.584   0.503   1.963 -0.2631  0.2480 -0.0923
 1888SOL    HW1 7550   0.543   0.485   2.048 -0.3619  2.4191  0.3814
 1888SOL    HW2 7551   0.669   0.541   1.985 -0.3525  0.9818 -0.9485
 1888SOL     MW 7552   0.590   0.506   1.977 -0.2884  0.6389 -0.1438
 1889SOL     OW 7553   2.537   2.712   3.290  0.5730 -0.2253  0.5909
 1889SOL    HW1 7554   2.545   2.632   3.237  1.7882 -0.5061  1.1602
 1889SOL    HW2 7555   2.587   2.693   3.369 -0.6510  0.4349  1.5631
 1889SOL     MW 7556   2.544   2.699   3.294  0.5718 -0.1742  0.7984
 1890SOL     OW 7557   2.025   4.770   0.426 -0.2688  0.2553 -0.0721
 1890SOL    HW1 7558   1.989   4.802   0.509 -1.2055 -1.1764  0.1070
 1890SOL    HW2 7559   2.106   4.726   0.451 -0.6935 -0.4246  0.1449
 1890SOL     MW 7560   2.031   4.768   0.441 -0.4520 -0.0289 -0.0188
 1891SOL     OW 7561   3.736   4.738   4.837 -0.2668 -0.1208 -0.2779
 1891SOL    HW1 7562   3.673   4.728   4.909 -0.6942  0.5337 -0.5518
 1891SOL    HW2 7563   3.759   4.831   4.839  1.3844 -0.5166  0.3821
 1891SOL     MW 7564   3.730   4.749   4.847 -0.1021 -0.0860 -0.2260
 1892SOL     OW 7565   1.539   2.385   1.137  0.1082  0.3134 -0.4632
 1892SOL    HW1 7566   1.631   2.366   1.120  0.0664 -0.1263 -0.2192
 1892SOL    HW2 7567   1.499   2.299   1.150 -0.4536  0.4663 -1.1376
 1892SOL     MW 7568   1.546   2.371   1.136  0.0270  0.2748 -0.5211
 1893SOL     OW 7569   2.464   5.164   1.937 -0.6623  0.6304  0.0105
 1893SOL    HW1 7570   2.549   5.141   1.975 -0.0741  1.6199 -0.6673
 1893SOL    HW2 7571   2.405   5.096   1.969  0.3989 -0.1379  0.4132
 1893SOL     MW 7572   2.468   5.152   1.947 -0.4403  0.6602 -0.0265
 1894SOL     OW 7573   2.371   3.523   1.747  0.1770  0.2947  0.0561
 1894SOL    HW1 7574   2.408   3.574   1.675  1.8006  0.6972  1.1172
 1894SOL    HW2 7575   2.424   3.443   1.750 -2.4471 -1.7352 -1.7137
 1894SOL     MW 7576   2.383   3.519   1.737  0.0423  0.0757 -0.0393
 1895SOL     OW 7577   4.592   2.497   1.356 -0.4003 -0.3267  0.3582
 1895SOL    HW1 7578   4.510   2.481   1.310  0.9430  1.3550 -2.8794
 1895SOL    HW2 7579   4.596   2.592   1.369  1.0465 -0.3659  0.4360
 1895SOL     MW 7580   4.582   2.507   1.352 -0.0248 -0.1056 -0.0670
 1896SOL     OW 7581   1.971   4.824   3.012 -0.3473 -0.6337  0.0881
 1896SOL    HW1 7582   1.894   4.794   2.964 -1.4769  0.1211  1.3450
 1896SOL    HW2 7583   1.952   4.804   3.103  0.9283 -0.3517  0.4401
 1896SOL     MW 7584   1.958   4.818   3.017 -0.3277 -0.4942  0.3046
 1897SOL     OW 7585   3.380   1.588   2.399 -0.1747 -0.0870 -0.0453
 1897SOL    HW1 7586   3.377   1.650   2.326  0.5042  1.0732  0.8767
 1897SOL    HW2 7587   3.468   1.551   2.395 -0.4499 -0.7151 -0.3620
 1897SOL     MW 7588   3.391   1.592   2.388 -0.1204 -0.0154  0.0361
 1898SOL     OW 7589   1.286   3.813   1.669 -0.3992  0.0000  0.4607
 1898SOL    HW1 7590   1.259   3.905   1.659 -1.1626 -0.0412  1.8527
 1898SOL    HW2 7591   1.249   3.769   1.593 -0.7316  0.6959  0.2063
 1898SOL     MW 7592   1.278   3.820   1.658 -0.5467  0.0881  0.6138
 1899SOL     OW 7593   2.968   2.931   3.077 -0.6682  0.2187  0.0043
 1899SOL    HW1 7594   3.005   2.882   3.151  0.7189  0.2514 -0.6259
 1899SOL    HW2 7595   2.873   2.919   3.085 -0.4332 -1.9586  0.3152
 1899SOL     MW 7596   2.960   2.923   3.088 -0.4499 -0.0699 -0.0386
 1900SOL     OW 7597   4.265   0.243   1.349 -0.3011 -0.5993 -0.1186
 1900SOL    HW1 7598   4.200   0.235   1.419  0.1928 -0.5826  0.3508
 1900SOL    HW2 7599   4.235   0.317   1.297 -0.2342 -0.0788  0.5674
 1900SOL     MW 7600   4.253   0.252   1.351 -0.2256 -0.5270  0.0369
 1901SOL     OW 7601   1.106   1.112   4.559  0.9184 -0.1357 -0.0635
 1901SOL    HW1 7602   1.141   1.197   4.582  2.2790 -0.2180 -1.6188
 1901SOL    HW2 7603   1.108   1.062   4.640  1.0131  0.9990  0.6516
 1901SOL     MW 7604   1.111   1.116   4.573  1.1142  0.0060 -0.1765
 1902SOL     OW 7605   2.080   2.816   3.417  0.0129 -0.1539 -0.0264
 1902SOL    HW1 7606   2.066   2.723   3.434 -0.6282 -0.0815 -0.1146
 1902SOL    HW2 7607   2.002   2.843   3.368  0.5691  0.2525 -0.6912
 1902SOL     MW 7608   2.067   2.807   3.413  0.0015 -0.0895 -0.1278
 1903SOL     OW 7609   1.253   2.957   4.581  0.2343  0.2798  0.6550
 1903SOL    HW1 7610   1.342   2.991   4.569  0.3670  0.5287  2.1036
 1903SOL    HW2 7611   1.247   2.882   4.522  0.9182  1.1037 -0.4984
 1903SOL     MW 7612   1.264   2.952   4.572  0.3442  0.4242  0.6948
 1904SOL     OW 7613   5.018   5.411   3.449  0.2631 -0.2607  0.0349
 1904SOL    HW1 7614   5.013   5.458   3.366  0.3911  0.1445  0.2565
 1904SOL    HW2 7615   5.046   5.322   3.425 -0.2690 -0.3120 -0.4120
 1904SOL     MW 7616   5.021   5.405   3.435  0.2087 -0.2131  0.0046
 1905SOL     OW 7617   4.058   2.339   4.994  0.1161 -0.2216  0.5213
 1905SOL    HW1 7618   4.147   2.324   5.028 -0.4393 -2.7031  1.1322
 1905SOL    HW2 7619   4.002   2.335   5.071 -0.7145 -0.8791 -0.0960
 1905SOL     MW 7620   4.063   2.336   5.009 -0.0704 -0.6441  0.5204
 1906SOL     OW 7621  -0.013   1.363   1.363  0.1473 -0.4131 -0.2886
 1906SOL    HW1 7622  -0.012   1.269   1.343  1.7181 -0.5526  0.2867
 1906SOL    HW2 7623   0.069   1.396   1.326 -1.4284  1.2700 -2.6332
 1906SOL     MW 7624  -0.002   1.355   1.355  0.1466 -0.2054 -0.5267
 1907SOL     OW 7625   1.444   4.404   1.837 -0.3925 -0.3143  0.3305
 1907SOL    HW1 7626   1.514   4.372   1.894  0.8959  1.2034 -0.2923
 1907SOL    HW2 7627   1.461   4.498   1.829 -1.2071 -0.2734 -1.6032
 1907SOL     MW 7628   1.456   4.412   1.844 -0.3287 -0.1045 -0.0135
 1908SOL     OW 7629   0.318   5.218   2.258 -0.0766 -0.3525  0.2151
 1908SOL    HW1 7630   0.307   5.190   2.349 -0.9228  0.9636  0.5557
 1908SOL    HW2 7631   0.258   5.292   2.249  2.0386  1.3849 -0.5776
 1908SOL     MW 7632   0.308   5.224   2.269  0.0942  0.0585  0.1543
 1909SOL     OW 7633   4.677   3.650   1.901 -0.0962 -0.0515  0.2181
 1909SOL    HW1 7634   4.756   3.698   1.925  0.0510 -1.3456  2.5746
 1909SOL    HW2 7635   4.701   3.603   1.821  1.0770  0.5827  0.1735
 1909SOL     MW 7636   4.690   3.650   1.893  0.0815 -0.1403  0.5292
 1910SOL     OW 7637   2.219   2.968   5.006 -0.2149 -0.1662 -0.0334
 1910SOL    HW1 7638   2.188   2.878   5.015 -1.0059 -0.0060 -1.0152
 1910SOL    HW2 7639   2.144   3.017   4.972  0.5140  0.6490 -0.5320
 1910SOL     MW 7640   2.205   2.963   5.003 -0.2232 -0.0350 -0.2326
 1911SOL     OW 7641   4.444   3.761   2.493 -0.1528  0.2768 -0.5414
 1911SOL    HW1 7642   4.405   3.821   2.557  0.1629 -0.6360  0.5346
 1911SOL    HW2 7643   4.424   3.801   2.408 -2.0778  0.6625  0.0262
 1911SOL     MW 7644   4.436   3.774   2.490 -0.3694  0.2058 -0.3202
 1912SOL     OW 7645   5.076   5.126   3.415 -0.1049  0.3097  0.2575
 1912SOL    HW1 7646   5.027   5.052   3.448  1.5464 -1.0884 -0.2891
 1912SOL    HW2 7647   5.154   5.130   3.470  0.9494  0.1604 -1.1742
 1912SOL     MW 7648   5.080   5.117   3.427  0.2593  0.1015 -0.0088
 1913SOL     OW 7649   0.925   4.320   2.449  0.0538 -0.0627 -0.3829
 1913SOL    HW1 7650   0.999   4.328   2.388  0.0109  0.5081 -0.3645
 1913SOL    HW2 7651   0.877   4.243   2.418 -0.0787  0.3376 -1.2049
 1913SOL     MW 7652   0.928   4.310   2.436  0.0302  0.0680 -0.4910
 1914SOL     OW 7653   3.557   3.210   0.818  0.3688  0.1051  0.8013
 1914SOL    HW1 7654   3.592   3.265   0.888  0.2164  2.1529 -0.6349
 1914SOL    HW2 7655   3.463   3.227   0.818  0.2532 -0.4970  0.5924
 1914SOL     MW 7656   3.549   3.219   0.827  0.3327  0.2997  0.5799
 1915SOL     OW 7657   5.089   1.517   4.753 -0.1186  0.9682 -0.4713
 1915SOL    HW1 7658   5.058   1.501   4.664 -0.7727 -2.7526  0.2696
 1915SOL    HW2 7659   5.159   1.453   4.766 -1.3303  0.0672  2.2587
 1915SOL     MW 7660   5.094   1.506   4.743 -0.3697  0.3462 -0.0042
 1916SOL     OW 7661   0.257  -0.006   4.173 -0.0033 -0.6356 -0.4165
 1916SOL    HW1 7662   0.350  -0.026   4.164  0.5669  1.1940  0.8417
 1916SOL    HW2 7663   0.253   0.089   4.177 -1.8398 -0.7029  0.5246
 1916SOL     MW 7664   0.269   0.004   4.172 -0.1737 -0.3984 -0.1205
 1917SOL     OW 7665   3.170   2.283   3.471  0.6413  0.1356 -0.1260
 1917SOL    HW1 7666   3.209   2.240   3.547  1.4598 -0.0224 -0.6208
 1917SOL    HW2 7667   3.092   2.231   3.452  1.0511 -0.5119 -0.0840
 1917SOL     MW 7668   3.165   2.270   3.479  0.8066  0.0272 -0.1869
 1918SOL     OW 7669   5.317   3.614   0.337 -0.4310 -0.4390  0.0717
 1918SOL    HW1 7670   5.262   3.536   0.329 -0.1979 -0.7100  1.0002
 1918SOL    HW2 7671   5.381   3.592   0.406 -0.7673  0.8009  0.8130
 1918SOL     MW 7672   5.319   3.600   0.345 -0.4449 -0.3086  0.2964
 1919SOL     OW 7673   0.464   4.596   1.860 -0.0152 -0.5481 -0.2858
 1919SOL    HW1 7674   0.442   4.658   1.929 -0.5402 -0.3481 -0.6218
 1919SOL    HW2 7675   0.559   4.594   1.858  0.0321  0.9488 -0.8834
 1919SOL     MW 7676   0.474   4.604   1.869 -0.0795 -0.3197 -0.4114
 1920SOL     OW 7677   1.496   5.391   4.665  0.0744 -0.3793  0.3067
 1920SOL    HW1 7678   1.522   5.398   4.573  0.6578  1.2088  0.5654
 1920SOL    HW2 7679   1.464   5.479   4.688  1.6599 -0.1989  2.1183
 1920SOL     MW 7680   1.495   5.404   4.656  0.3663 -0.1413  0.5854
 1921SOL     OW 7681   4.604   4.981   0.786  0.1650 -0.4988  0.1069
 1921SOL    HW1 7682   4.539   5.052   0.781  1.0078  0.2921  0.1672
 1921SOL    HW2 7683   4.551   4.902   0.799 -0.9256 -0.1635 -1.9582
 1921SOL     MW 7684   4.588   4.980   0.787  0.1316 -0.3472 -0.1629
 1922SOL     OW 7685   1.144   2.044   1.534  0.5391 -0.0579 -0.1389
 1922SOL    HW1 7686   1.172   1.984   1.603  1.7983  1.3089  0.6038
 1922SOL    HW2 7687   1.057   2.073   1.561 -1.5002 -3.6547 -1.9964
 1922SOL     MW 7688   1.136   2.040   1.547  0.4342 -0.3580 -0.2889
 1923SOL     OW 7689   1.865   3.506   4.310 -0.4383  0.3743  0.8974
 1923SOL    HW1 7690   1.796   3.567   4.282  0.5690  0.6159 -1.2648
 1923SOL    HW2 7691   1.837   3.421   4.277 -1.6217 -0.3598  3.5324
 1923SOL     MW 7692   1.852   3.503   4.302 -0.4620  0.3080  0.9610
 1924SOL     OW 7693   2.690   0.130   0.830  0.2549 -0.0250 -0.3675
 1924SOL    HW1 7694   2.784   0.148   0.833  0.3677 -0.6153 -0.1901
 1924SOL    HW2 7695   2.672   0.116   0.737  0.3474  0.0668 -0.3999
 1924SOL     MW 7696   2.700   0.130   0.818  0.2825 -0.0921 -0.3480
 1925SOL     OW 7697   3.701   2.818   2.073  0.2880 -0.1763 -0.1156
 1925SOL    HW1 7698   3.712   2.769   1.991  1.3402  0.7623 -0.5638
 1925SOL    HW2 7699   3.615   2.793   2.105 -0.9900  0.8424 -2.5007
 1925SOL     MW 7700   3.691   2.808   2.066  0.2576  0.0871 -0.4969
 1926SOL     OW 7701   3.716   1.736   4.788 -0.2374 -0.1516  0.3368
 1926SOL    HW1 7702   3.754   1.649   4.775  0.2615 -0.0381  0.9840
 1926SOL    HW2 7703   3.657   1.748   4.714  1.4035 -0.1108 -1.0444
 1926SOL     MW 7704   3.713   1.726   4.776  0.0506 -0.1308  0.2380
 1927SOL     OW 7705   0.663   4.905   1.600 -0.3634  0.1287 -0.9030
 1927SOL    HW1 7706   0.581   4.908   1.648 -0.0005  0.2683 -0.2887
 1927SOL    HW2 7707   0.726   4.869   1.662 -0.0635 -0.4388 -1.5247
 1927SOL     MW 7708   0.660   4.900   1.615 -0.2742  0.0711 -0.9040
 1928SOL     OW 7709   0.664   4.879   2.759  0.3287 -0.1687 -0.1838
 1928SOL    HW1 7710   0.721   4.892   2.834  0.7288  1.1676 -0.7009
 1928SOL    HW2 7711   0.722   4.845   2.691  0.1273 -0.5812 -0.1554
 1928SOL     MW 7712   0.679   4.876   2.760  0.3554 -0.0444 -0.2496
 1929SOL     OW 7713   1.589   2.128   4.802 -0.1758  0.3968 -0.1219
 1929SOL    HW1 7714   1.646   2.115   4.726  0.7338  0.3864  0.5608
 1929SOL    HW2 7715   1.505   2.090   4.774  0.0726  0.6018 -1.2073
 1929SOL     MW 7716   1.585   2.121   4.788 -0.0199  0.4230 -0.1761
 1930SOL     OW 7717   3.274   5.487   5.361  0.7482  0.0861  0.0468
 1930SOL    HW1 7718   3.270   5.525   5.449 -1.1323  1.0320 -0.3955
 1930SOL    HW2 7719   3.260   5.393   5.374  0.5659  0.2103  0.7721
 1930SOL     MW 7720   3.271   5.480   5.375  0.4706  0.2301  0.0849
 1931SOL     OW 7721   5.000   3.024   5.071 -0.2582 -0.4745 -0.4586
 1931SOL    HW1 7722   4.953   3.089   5.123 -0.0314  0.2177 -1.1089
 1931SOL    HW2 7723   4.946   2.945   5.077 -0.2688 -0.3984  0.7677
 1931SOL     MW 7724   4.987   3.022   5.079 -0.2291 -0.3711 -0.3811
 1932SOL     OW 7725   3.352   3.620   0.791 -0.2942 -0.1597 -0.2786
 1932SOL    HW1 7726   3.428   3.665   0.827 -0.4236  0.7753 -1.1253
 1932SOL    HW2 7727   3.282   3.638   0.854 -0.7349  2.1714 -1.3074
 1932SOL     MW 7728   3.353   3.629   0.804 -0.3709  0.2798 -0.5310
 1933SOL     OW 7729   0.419   3.699   2.688  0.4218  0.4978  0.2306
 1933SOL    HW1 7730   0.388   3.677   2.600  1.0742 -0.3089  0.1861
 1933SOL    HW2 7731   0.482   3.630   2.708  1.3935  1.5083  0.7280
 1933SOL     MW 7732   0.423   3.687   2.679  0.6404  0.5252  0.2916
 1934SOL     OW 7733   0.703   5.383   2.505  0.0512 -0.0941 -0.3907
 1934SOL    HW1 7734   0.730   5.474   2.500 -1.9892  0.6310  0.4485
 1934SOL    HW2 7735   0.660   5.365   2.422 -2.3710  0.7821  0.5803
 1934SOL     MW 7736   0.701   5.393   2.493 -0.5494  0.1214 -0.1471
 1935SOL     OW 7737   1.442   3.484   0.866 -0.3502 -0.0631  0.3211
 1935SOL    HW1 7738   1.409   3.431   0.939 -1.2627 -3.0741 -2.0508
 1935SOL    HW2 7739   1.368   3.493   0.807  1.3396 -1.5053 -2.2052
 1935SOL     MW 7740   1.428   3.478   0.868 -0.2456 -0.6624 -0.3381
 1936SOL     OW 7741   3.499   2.086   3.436  0.1732  0.2697  0.4309
 1936SOL    HW1 7742   3.491   2.179   3.415  0.7913  0.8045  2.3966
 1936SOL    HW2 7743   3.566   2.082   3.504  0.2544 -1.6453  0.2987
 1936SOL     MW 7744   3.507   2.098   3.442  0.2673  0.0840  0.6776
 1937SOL     OW 7745   3.772   2.800   0.617 -0.3761  0.2088 -0.3519
 1937SOL    HW1 7746   3.713   2.849   0.674 -1.2632  2.3796 -2.9341
 1937SOL    HW2 7747   3.847   2.858   0.604  0.1164 -0.5169 -0.8193
 1937SOL     MW 7748   3.774   2.814   0.623 -0.4292  0.4032 -0.7623
 1938SOL     OW 7749   3.319   2.881   3.744 -0.4359  0.1205  0.3108
 1938SOL    HW1 7750   3.357   2.793   3.748 -0.1785  0.2579  1.8442
 1938SOL    HW2 7751   3.342   2.914   3.658 -0.1300 -1.1427 -0.1078
 1938SOL     MW 7752   3.328   2.874   3.733 -0.3601 -0.0310  0.4608
 1939SOL     OW 7753   2.305   0.244   4.512  0.3269 -0.2862  0.3853
 1939SOL    HW1 7754   2.378   0.248   4.451  0.5581 -0.6801  0.6275
 1939SOL    HW2 7755   2.305   0.153   4.542  0.1273 -0.1307  0.8595
 1939SOL     MW 7756   2.315   0.232   4.508  0.3311 -0.3183  0.4817
 1940SOL     OW 7757   1.915   0.285   4.089 -0.5018  0.3457 -0.4698
 1940SOL    HW1 7758   1.916   0.298   4.183  1.2739  0.8871 -0.5228
 1940SOL    HW2 7759   1.826   0.309   4.062 -1.2381 -0.4464  1.1074
 1940SOL     MW 7760   1.903   0.290   4.098 -0.3619  0.3120 -0.2647
 1941SOL     OW 7761   3.243   4.779   2.628  0.9530  0.4045  0.0992
 1941SOL    HW1 7762   3.284   4.693   2.621 -0.8572 -0.6071  1.0270
 1941SOL    HW2 7763   3.315   4.841   2.619  2.4606 -1.2212  0.3906
 1941SOL     MW 7764   3.258   4.776   2.626  0.9123  0.0495  0.2633
 1942SOL     OW 7765   2.965   0.221   0.949 -0.4741 -0.4394  0.3806
 1942SOL    HW1 7766   3.045   0.233   0.898 -0.5484 -0.8229  0.1764
 1942SOL    HW2 7767   2.991   0.167   1.023 -0.0186  1.3380  1.5965
 1942SOL     MW 7768   2.979   0.216   0.952 -0.4228 -0.2518  0.5167
 1943SOL     OW 7769   3.944   4.798   4.197  0.2087  0.4698 -0.1801
 1943SOL    HW1 7770   3.870   4.760   4.149  0.8266  0.2872 -1.0039
 1943SOL    HW2 7771   3.914   4.885   4.224 -0.6168  0.0560  0.2709
 1943SOL     MW 7772   3.930   4.804   4.195  0.1808  0.3896 -0.2303
 1944SOL     OW 7773   4.589   3.571   3.248 -0.3744 -0.0677 -0.5198
 1944SOL    HW1 7774   4.501   3.600   3.272 -0.6062 -1.6063  0.6492
 1944SOL    HW2 7775   4.597   3.594   3.155 -1.5505  1.1491 -0.3489
 1944SOL     MW 7776   4.578   3.578   3.239 -0.5638 -0.1110 -0.3395
 1945SOL     OW 7777   2.329   5.350   1.291  0.0381  0.0140  0.4351
 1945SOL    HW1 7778   2.363   5.282   1.349 -0.0964  1.1148  1.8651
 1945SOL    HW2 7779   2.255   5.387   1.339 -1.4118 -0.4173 -1.3737
 1945SOL     MW 7780   2.324   5.346   1.305 -0.1751  0.1041  0.3841
 1946SOL     OW 7781   5.192   2.868   4.714  0.1410  0.5235 -0.1203
 1946SOL    HW1 7782   5.161   2.783   4.683 -0.0924  0.1001  1.1930
 1946SOL    HW2 7783   5.123   2.898   4.774  1.1021  0.7468  0.9001
 1946SOL     MW 7784   5.178   2.861   4.718  0.2389  0.4966  0.1938
 1947SOL     OW 7785   3.157   5.052   1.454  0.4041 -0.0529  0.1929
 1947SOL    HW1 7786   3.127   4.965   1.479  0.3390 -0.1468 -0.2091
 1947SOL    HW2 7787   3.203   5.039   1.371  0.2270  0.3260  0.0332
 1947SOL     MW 7788   3.159   5.039   1.446  0.3715 -0.0146  0.1173
 1948SOL     OW 7789   1.711   2.052   0.122  0.1261  0.0542  0.3785
 1948SOL    HW1 7790   1.718   1.972   0.174 -0.8492 -0.0224  0.4031
 1948SOL    HW2 7791   1.644   2.033   0.057  0.0505  0.7788  0.2362
 1948SOL     MW 7792   1.703   2.039   0.120 -0.0153  0.1414  0.3627
 1949SOL     OW 7793   2.640   3.328   4.046 -0.0735 -0.8053 -0.1303
 1949SOL    HW1 7794   2.717   3.330   3.990 -0.1785 -0.8066 -0.2737
 1949SOL    HW2 7795   2.566   3.339   3.987 -0.2210 -1.4284 -0.0658
 1949SOL     MW 7796   2.641   3.330   4.031 -0.1075 -0.8893 -0.1409
 1950SOL     OW 7797   2.162   2.768   0.376 -0.1418 -0.0012 -0.0456
 1950SOL    HW1 7798   2.131   2.847   0.421 -0.6002  0.2098 -0.7105
 1950SOL    HW2 7799   2.087   2.708   0.379 -0.2415  0.0872 -0.6879
 1950SOL     MW 7800   2.148   2.771   0.383 -0.2169  0.0391 -0.2216
 1951SOL     OW 7801   0.076   1.237   3.788 -0.0791  0.3077  0.4513
 1951SOL    HW1 7802  -0.003   1.185   3.799 -0.0917  0.0413 -0.7493
 1951SOL    HW2 7803   0.140   1.197   3.847 -0.0270 -1.2271 -0.5876
 1951SOL     MW 7804   0.074   1.225   3.797 -0.0738  0.0653  0.1499
 1952SOL     OW 7805   4.841   4.398   2.005  0.4046 -0.1638 -0.3641
 1952SOL    HW1 7806   4.847   4.344   1.926 -0.4567 -1.0484  0.1623
 1952SOL    HW2 7807   4.748   4.403   2.024  0.5788  0.3709  0.3916
 1952SOL     MW 7808   4.829   4.392   1.997  0.3121 -0.2108 -0.1915
 1953SOL     OW 7809   5.083   2.038   2.340  0.2676  0.4512 -0.3855
 1953SOL    HW1 7810   5.140   1.992   2.279  0.4384  1.0762 -0.7010
 1953SOL    HW2 7811   4.995   2.021   2.308  0.2873 -0.1926 -0.1227
 1953SOL     MW 7812   5.079   2.029   2.328  0.2932  0.4487 -0.3926
 1954SOL     OW 7813   1.722   5.351   3.801 -0.5814 -0.4483  0.2281
 1954SOL    HW1 7814   1.680   5.272   3.767 -1.7197  0.1185  0.2632
 1954SOL    HW2 7815   1.784   5.376   3.732 -2.7318  0.5867 -1.4881
 1954SOL     MW 7816   1.725   5.343   3.787 -1.0240 -0.2327  0.0019
 1955SOL     OW 7817   0.085   5.161   0.493  0.7446  0.1254  0.8938
 1955SOL    HW1 7818   0.062   5.116   0.412 -1.6924  0.1649  1.4792
 1955SOL    HW2 7819   0.134   5.238   0.465  0.4831 -0.1806 -0.4926
 1955SOL     MW 7820   0.088   5.165   0.478  0.3814  0.0896  0.7860
 1956SOL     OW 7821   0.366   1.137   2.220  0.4107 -0.0689  0.2203
 1956SOL    HW1 7822   0.354   1.226   2.253 -0.3826 -0.4756  1.0638
 1956SOL    HW2 7823   0.292   1.123   2.161  0.7688 -0.0249 -0.2447
 1956SOL     MW 7824   0.355   1.147   2.217  0.3522 -0.1177  0.2712
 1957SOL     OW 7825   1.741   3.151   3.342 -0.5205  0.4112  0.2921
 1957SOL    HW1 7826   1.774   3.220   3.284 -1.4160  0.9657  0.4122
 1957SOL    HW2 7827   1.710   3.198   3.420 -0.5340 -0.1969  0.6618
 1957SOL     MW 7828   1.741   3.167   3.345 -0.6428  0.4040  0.3580
 1958SOL     OW 7829   2.120   0.813   3.355 -0.2690 -0.0848 -0.1731
 1958SOL    HW1 7830   2.087   0.745   3.296  0.2551 -0.5450  0.0557
 1958SOL    HW2 7831   2.139   0.767   3.437 -0.5150  0.4582  0.1940
 1958SOL     MW 7832   2.118   0.797   3.358 -0.2316 -0.0736 -0.0929
 1959SOL     OW 7833   1.284   3.085   3.272  0.3266 -0.0364 -0.3413
 1959SOL    HW1 7834   1.365   3.067   3.224 -0.3985 -1.0413 -1.2215
 1959SOL    HW2 7835   1.269   3.179   3.258  1.3428  0.1777 -0.1255
 1959SOL     MW 7836   1.293   3.095   3.263  0.3658 -0.1429 -0.4307
 1960SOL     OW 7837   1.259   4.698   1.749 -0.3478  0.6644 -0.3394
 1960SOL    HW1 7838   1.204   4.776   1.761 -0.6064  0.2784  1.0474
 1960SOL    HW2 7839   1.245   4.646   1.827  0.3149 -0.4963 -0.9729
 1960SOL     MW 7840   1.249   4.702   1.761 -0.2934  0.4562 -0.2380
 1961SOL     OW 7841   4.263   1.302   0.687  0.0686  0.1004  0.5184
 1961SOL    HW1 7842   4.295   1.231   0.631 -0.6531 -0.2290  0.5077
 1961SOL    HW2 7843   4.341   1.353   0.709  0.4473 -0.1151 -0.2927
 1961SOL     MW 7844   4.277   1.299   0.683  0.0225  0.0271  0.4078
 1962SOL     OW 7845   3.684   1.793   3.054 -0.4054 -0.0771  0.1727
 1962SOL    HW1 7846   3.629   1.723   3.087  0.2931 -0.1197  1.2935
 1962SOL    HW2 7847   3.671   1.865   3.116  0.5550  0.0202  0.2666
 1962SOL     MW 7848   3.675   1.793   3.067 -0.1822 -0.0697  0.3362
 1963SOL     OW 7849   4.167   5.386   1.197  0.0304  0.1734 -0.2881
 1963SOL    HW1 7850   4.220   5.415   1.271 -0.1430  0.1376 -0.1513
 1963SOL    HW2 7851   4.119   5.465   1.170 -0.3362  0.0480 -0.0037
 1963SOL     MW 7852   4.168   5.401   1.203 -0.0423  0.1517 -0.2314
 1964SOL     OW 7853   0.502   3.065   2.714 -0.2401  0.0021 -0.5499
 1964SOL    HW1 7854   0.595   3.060   2.739 -0.1235  0.1075 -0.9436
 1964SOL    HW2 7855   0.462   2.989   2.756 -0.0085  0.0478 -0.2402
 1964SOL     MW 7856   0.509   3.054   2.723 -0.1932  0.0224 -0.5612
 1965SOL     OW 7857   0.643   5.312   5.127 -0.3095 -0.6090  0.2100
 1965SOL    HW1 7858   0.579   5.377   5.156  0.7987  0.7301 -0.2782
 1965SOL    HW2 7859   0.717   5.363   5.095  0.8517 -2.1202  0.3703
 1965SOL     MW 7860   0.644   5.327   5.127 -0.0041 -0.6322  0.1659
 1966SOL     OW 7861   3.848   1.455   2.784 -0.0958  0.0622 -0.2757
 1966SOL    HW1 7862   3.852   1.525   2.720 -0.3582  0.3974  0.0703
 1966SOL    HW2 7863   3.756   1.453   2.812  0.4060  1.3987  1.7088
 1966SOL     MW 7864   3.836   1.464   2.779 -0.0636  0.2872  0.0379
 1967SOL     OW 7865   5.450   0.159   4.637 -0.3883  0.1204  0.4959
 1967SOL    HW1 7866   5.540   0.185   4.655 -0.4023 -0.2821  1.2039
 1967SOL    HW2 7867   5.458   0.072   4.598 -0.5064 -0.3157  1.4228
 1967SOL     MW 7868   5.463   0.151   4.634 -0.4061  0.0075  0.7159
 1968SOL     OW 7869   0.932   5.178   0.641  0.0648 -0.8104 -0.6056
 1968SOL    HW1 7870   0.868   5.181   0.712  2.0050  0.4844  1.2303
 1968SOL    HW2 7871   0.939   5.269   0.611  1.5824 -0.7581 -0.1998
 1968SOL     MW 7872   0.924   5.191   0.646  0.5302 -0.6291 -0.3039
 1969SOL     OW 7873   2.903   4.575   2.760 -0.1420  0.2803 -0.3566
 1969SOL    HW1 7874   2.835   4.513   2.786 -0.7856  1.2535  0.3270
 1969SOL    HW2 7875   2.986   4.531   2.782 -0.5839 -0.3368  0.0877
 1969SOL     MW 7876   2.905   4.561   2.766 -0.2881  0.3282 -0.2048
 1970SOL     OW 7877   4.912  -0.013   1.003  0.0432  0.0090  0.3321
 1970SOL    HW1 7878   4.844   0.034   0.954 -0.2441 -0.5966  0.1434
 1970SOL    HW2 7879   4.980   0.052   1.017  0.5270 -0.0196 -1.6145
 1970SOL     MW 7880   4.912   0.002   0.998  0.0697 -0.0764  0.0447
 1971SOL     OW 7881   4.284   4.766   4.796  0.3787 -0.2856 -0.3973
 1971SOL    HW1 7882   4.294   4.767   4.891  0.4790  0.2548 -0.4102
 1971SOL    HW2 7883   4.232   4.688   4.778 -1.4170  0.7059  0.2819
 1971SOL     MW 7884   4.278   4.756   4.806  0.1505 -0.0795 -0.3076
 1972SOL     OW 7885   2.942   4.322   5.151  0.6244  0.2129  0.1086
 1972SOL    HW1 7886   2.994   4.280   5.082  0.8397  1.3942 -0.4768
 1972SOL    HW2 7887   2.923   4.252   5.213 -0.7043 -1.2070 -1.7895
 1972SOL     MW 7888   2.946   4.307   5.150  0.4746  0.1808 -0.2257
 1973SOL     OW 7889   4.436   3.900   5.308  0.0981  0.4202  0.4726
 1973SOL    HW1 7890   4.395   3.814   5.297 -0.7734  0.6738  1.5987
 1973SOL    HW2 7891   4.503   3.886   5.375  0.5787  0.4341  0.0055
 1973SOL     MW 7892   4.439   3.886   5.316  0.0455  0.4562  0.5613
 1974SOL     OW 7893   1.546   4.789   0.828 -0.0081  0.1019 -0.2128
 1974SOL    HW1 7894   1.559   4.694   0.827 -0.4157  0.0426 -0.1787
 1974SOL    HW2 7895   1.581   4.816   0.912  1.2588  0.1599 -0.7370
 1974SOL     MW 7896   1.553   4.780   0.839  0.1075  0.1017 -0.2788
 1975SOL     OW 7897   2.825   5.190   3.363 -0.2164 -0.4545  0.3044
 1975SOL    HW1 7898   2.859   5.146   3.440  1.1925 -0.0353 -0.0566
 1975SOL    HW2 7899   2.794   5.119   3.306  0.5597 -0.8820  0.4113
 1975SOL     MW 7900   2.825   5.175   3.365  0.0776 -0.4556  0.2702
 1976SOL     OW 7901   1.908   3.943   3.812  0.1119 -0.4750  0.2698
 1976SOL    HW1 7902   1.856   3.989   3.745 -0.2848  0.3181  1.0984
 1976SOL    HW2 7903   1.860   3.861   3.827 -1.5230  0.6770  1.7403
 1976SOL     MW 7904   1.895   3.938   3.805 -0.1615 -0.2132  0.5793
 1977SOL     OW 7905   0.341   3.548   1.818  0.1497  0.0655 -0.3842
 1977SOL    HW1 7906   0.437   3.541   1.818  0.1941  0.6098 -0.1487
 1977SOL    HW2 7907   0.314   3.505   1.899  0.2730  0.7974  0.0556
 1977SOL     MW 7908   0.350   3.541   1.829  0.1723  0.2372 -0.2933
 1978SOL     OW 7909   1.853   4.447   3.724 -0.3002 -0.0721 -0.3290
 1978SOL    HW1 7910   1.904   4.499   3.786  0.2692  0.6252 -1.3466
 1978SOL    HW2 7911   1.817   4.512   3.663 -0.7987 -0.7420 -0.7548
 1978SOL     MW 7912   1.855   4.463   3.724 -0.2906 -0.0685 -0.5233
 1979SOL     OW 7913   2.884   3.995   3.641  0.3868 -0.2082  0.2151
 1979SOL    HW1 7914   2.894   4.080   3.683 -0.2098  0.0772 -0.2014
 1979SOL    HW2 7915   2.839   3.941   3.706 -0.3674  0.1749  0.0160
 1979SOL     MW 7916   2.880   3.999   3.656  0.2050 -0.1182  0.1322
 1980SOL     OW 7917   2.649   3.351   4.835  0.0035 -0.3845 -0.0543
 1980SOL    HW1 7918   2.720   3.393   4.884  0.5524 -1.1936 -0.1445
 1980SOL    HW2 7919   2.692   3.287   4.779 -0.8494 -1.3840  0.4011
 1980SOL     MW 7920   2.664   3.348   4.834 -0.0374 -0.6279 -0.0051
 1981SOL     OW 7921   0.551   2.874   0.149 -0.2175  0.0361 -0.0432
 1981SOL    HW1 7922   0.504   2.955   0.129  0.1927 -0.1277 -1.9580
 1981SOL    HW2 7923   0.638   2.887   0.109 -0.4155 -1.6125 -1.1195
 1981SOL     MW 7924   0.556   2.887   0.141 -0.1889 -0.2078 -0.4457
 1982SOL     OW 7925   1.881   1.298   2.321 -0.1876 -0.0835  0.5226
 1982SOL    HW1 7926   1.797   1.339   2.300 -1.0066 -1.0888  1.6562
 1982SOL    HW2 7927   1.865   1.204   2.307  1.0362 -0.2022 -0.1457
 1982SOL     MW 7928   1.867   1.291   2.317 -0.1331 -0.2348  0.5852
 1983SOL     OW 7929   3.112   1.080   4.868  0.1708 -0.5538 -0.0474
 1983SOL    HW1 7930   3.176   1.047   4.932  0.6993 -0.3741 -0.4702
 1983SOL    HW2 7931   3.041   1.016   4.870 -0.4187  0.1001  1.6240
 1983SOL     MW 7932   3.111   1.067   4.877  0.1626 -0.4416  0.1207
 1984SOL     OW 7933   1.031   1.043   0.474 -0.2107 -0.0721  0.3200
 1984SOL    HW1 7934   1.049   1.131   0.506  1.1507 -0.4495  0.6400
 1984SOL    HW2 7935   0.938   1.028   0.494 -0.6993  1.5955 -0.5212
 1984SOL     MW 7936   1.021   1.053   0.481 -0.0933  0.1015  0.2498
 1985SOL     OW 7937   1.208   1.886   1.736 -0.2810 -0.4664  0.1631
 1985SOL    HW1 7938   1.127   1.841   1.756 -0.3830  0.0613  0.9758
 1985SOL    HW2 7939   1.220   1.948   1.808  0.8152 -0.5026  0.0351
 1985SOL     MW 7940   1.199   1.888   1.748 -0.1472 -0.4003  0.2553
 1986SOL     OW 7941   4.815   0.667   3.128 -0.3288  0.4192  0.0999
 1986SOL    HW1 7942   4.796   0.737   3.191 -2.0241 -2.7952  3.5885
 1986SOL    HW2 7943   4.730   0.642   3.092 -0.1673 -1.4144  0.8829
 1986SOL     MW 7944   4.801   0.673   3.132 -0.5352 -0.2602  0.6748
 1987SOL     OW 7945   3.590   2.426   0.793 -0.2944  0.0182 -0.4465
 1987SOL    HW1 7946   3.539   2.507   0.795  1.0372  0.8830  0.8154
 1987SOL    HW2 7947   3.526   2.356   0.809 -1.1238  1.0489  0.8933
 1987SOL     MW 7948   3.574   2.427   0.796 -0.2268  0.2733 -0.0963
 1988SOL     OW 7949   3.311   1.746   3.597  0.3620 -0.0732 -0.0579
 1988SOL    HW1 7950   3.308   1.800   3.677  0.7728 -1.2492  0.7871
 1988SOL    HW2 7951   3.224   1.707   3.591 -0.4689  1.8108 -1.5434
 1988SOL     MW 7952   3.299   1.748   3.607  0.3054  0.0221 -0.1441
 1989SOL     OW 7953   1.840   5.098   4.689  0.5884  0.2424  0.1455
 1989SOL    HW1 7954   1.784   5.121   4.615  0.8798 -1.6657 -0.7473
 1989SOL    HW2 7955   1.784   5.047   4.747  0.6381  0.8560  0.7427
 1989SOL     MW 7956   1.825   5.094   4.687  0.6343  0.0682  0.1057
 1990SOL     OW 7957   2.028   2.371   2.614 -0.3014  0.1830 -0.4400
 1990SOL    HW1 7958   1.995   2.461   2.608 -0.3826  0.2053  0.2949
 1990SOL    HW2 7959   1.964   2.319   2.565 -0.0702  0.5670 -1.1672
 1990SOL     MW 7960   2.015   2.376   2.607 -0.2812  0.2376 -0.4389
 1991SOL     OW 7961   0.595   0.174   4.945 -0.4600 -0.9065  0.0950
 1991SOL    HW1 7962   0.615   0.183   5.038 -1.7711 -0.8250  0.3817
 1991SOL    HW2 7963   0.631   0.254   4.905 -0.8745 -0.4084  0.6994
 1991SOL     MW 7964   0.603   0.186   4.952 -0.6923 -0.8285  0.2150
 1992SOL     OW 7965   0.966   0.968   1.933  0.3742 -0.0705  0.2016
 1992SOL    HW1 7966   0.982   1.051   1.888  0.0480  1.2374  2.3731
 1992SOL    HW2 7967   0.935   0.993   2.020 -0.4098 -2.4855  0.6989
 1992SOL     MW 7968   0.964   0.982   1.939  0.2248 -0.2195  0.5608
 1993SOL     OW 7969   4.072   2.460   3.512 -0.2275 -0.3318  0.2415
 1993SOL    HW1 7970   4.009   2.519   3.471 -1.3803 -1.7456 -0.0891
 1993SOL    HW2 7971   4.083   2.389   3.449  2.3401  0.2588 -0.0620
 1993SOL     MW 7972   4.065   2.459   3.498 -0.0371 -0.4426  0.1562
 1994SOL     OW 7973   4.505   1.628   2.627 -0.4233  0.0731 -0.3000
 1994SOL    HW1 7974   4.545   1.545   2.652 -1.3612  0.0295  1.1390
 1994SOL    HW2 7975   4.548   1.651   2.544  1.4499 -0.7220  0.3992
 1994SOL     MW 7976   4.516   1.620   2.619 -0.2974 -0.0398 -0.0122
 1995SOL     OW 7977   2.468   1.516   0.442 -0.5415 -0.1835 -0.4777
 1995SOL    HW1 7978   2.465   1.533   0.348 -2.3730  2.2804 -0.0646
 1995SOL    HW2 7979   2.553   1.550   0.470 -0.5633  0.3512 -1.0528
 1995SOL     MW 7980   2.479   1.523   0.433 -0.7909  0.2201 -0.4995
 1996SOL     OW 7981   1.942   1.227   0.133  0.0969  0.4607 -0.2448
 1996SOL    HW1 7982   1.885   1.295   0.169 -0.2777  0.8548 -1.5239
 1996SOL    HW2 7983   2.031   1.254   0.157 -0.0944  1.0967 -0.2442
 1996SOL     MW 7984   1.946   1.239   0.141  0.0208  0.5993 -0.4168
 1997SOL     OW 7985   0.579   4.318   1.516 -0.1907  0.0368  0.1675
 1997SOL    HW1 7986   0.604   4.306   1.424  0.6832 -1.7641  0.5719
 1997SOL    HW2 7987   0.484   4.321   1.515 -0.2251 -0.7146 -0.7494
 1997SOL     MW 7988   0.570   4.317   1.503 -0.0777 -0.3067  0.0986
 1998SOL     OW 7989   4.664   2.593   0.801 -0.3166 -0.0556 -0.0281
 1998SOL    HW1 7990   4.586   2.648   0.797 -0.2201 -0.0154 -1.9461
 1998SOL    HW2 7991   4.685   2.574   0.710 -0.2879 -3.1960  0.5146
 1998SOL     MW 7992   4.656   2.598   0.788 -0.2997 -0.4728 -0.2132
 1999SOL     OW 7993   4.065   4.388   4.534 -0.3996  0.5800 -0.0230
 1999SOL    HW1 7994   4.089   4.418   4.446 -1.3207  1.8202  0.1176
 1999SOL    HW2 7995   3.981   4.344   4.522 -0.9177  1.4360  0.3216
 1999SOL     MW 7996   4.057   4.386   4.520 -0.5933  0.8621  0.0423
 2000SOL     OW 7997   1.376   0.601   2.950  0.3432  0.2921 -0.0812
 2000SOL    HW1 7998   1.439   0.612   3.021  0.0224  1.9988 -0.0415
 2000SOL    HW2 7999   1.397   0.514   2.915  2.3308  0.5439  0.3161
 2000SOL     MW 8000   1.388   0.590   2.955  0.5675  0.5557 -0.0224
 2001SOL     OW 8001   0.895   2.071   3.366  0.7790 -0.4350 -0.6244
 2001SOL    HW1 8002   0.979   2.113   3.354  1.0534 -1.2094 -1.4780
 2001SOL    HW2 8003   0.872   2.036   3.280 -0.2188 -0.5933 -0.3109
 2001SOL     MW 8004   0.903   2.072   3.353  0.6817 -0.5605 -0.6971
 2002SOL     OW 8005   4.146   2.802   2.275 -0.1848 -0.4088  0.1582
 2002SOL    HW1 8006   4.169   2.869   2.339  2.2690  1.5619 -2.5167
 2002SOL    HW2 8007   4.216   2.738   2.281 -1.1074 -1.3876  0.8564
 2002SOL     MW 8008   4.158   2.802   2.285  0.0213 -0.2753 -0.1078
 2003SOL     OW 8009   2.646   1.441   1.880  0.3436 -0.3953  0.5100
 2003SOL    HW1 8010   2.619   1.398   1.798  2.5329  1.0170 -1.0574
 2003SOL    HW2 8011   2.631   1.375   1.947  0.6521 -2.5062 -1.3624
 2003SOL     MW 8012   2.640   1.426   1.878  0.6798 -0.4893  0.0471
 2004SOL     OW 8013   2.141   3.850   4.700 -0.7456 -0.2624 -0.2971
 2004SOL    HW1 8014   2.206   3.800   4.651  0.4926  1.7832 -0.8613
 2004SOL    HW2 8015   2.174   3.849   4.790 -1.5533 -1.7054  0.0077
 2004SOL     MW 8016   2.154   3.843   4.706 -0.6877 -0.1813 -0.3320
 2005SOL     OW 8017   3.078   4.565   5.176 -0.0097  0.4846  0.0316
 2005SOL    HW1 8018   3.048   4.475   5.192  2.5022 -0.1159  2.2577
 2005SOL    HW2 8019   3.080   4.573   5.081 -1.3649 -1.4130 -0.2261
 2005SOL     MW 8020   3.074   4.554   5.166  0.1460  0.1484  0.2965
 2006SOL     OW 8021   1.237   4.525   2.616  0.1074 -0.2013  0.1091
 2006SOL    HW1 8022   1.310   4.468   2.587  0.0768  0.3506 -1.1037
 2006SOL    HW2 8023   1.199   4.557   2.535  0.4298  1.9605  0.7611
 2006SOL     MW 8024   1.242   4.521   2.602  0.1466  0.1639  0.0336
 2007SOL     OW 8025   4.985   1.068   2.711  0.2389 -0.3975  0.1286
 2007SOL    HW1 8026   4.934   1.089   2.789  1.5261  0.4219  0.7828
 2007SOL    HW2 8027   4.990   0.972   2.711 -1.3850 -0.5181 -0.0519
 2007SOL     MW 8028   4.979   1.058   2.722  0.1936 -0.3034  0.1923
 2008SOL     OW 8029   3.891   4.532   4.300  0.6119  0.3627  0.0962
 2008SOL    HW1 8030   3.967   4.492   4.257  0.4033  0.7961 -0.6840
 2008SOL    HW2 8031   3.908   4.626   4.298 -0.4121  0.5592 -1.0511
 2008SOL     MW 8032   3.904   4.539   4.294  0.4460  0.4475 -0.1632
 2009SOL     OW 8033   4.248   4.491   3.707 -0.3222  0.3251  0.1450
 2009SOL    HW1 8034   4.342   4.503   3.697 -0.3384  1.5562  1.2711
 2009SOL    HW2 8035   4.232   4.497   3.801 -1.5126 -0.0765 -0.0099
 2009SOL     MW 8036   4.258   4.493   3.718 -0.4846  0.4367  0.2757
 2010SOL     OW 8037   3.121   3.522   4.804 -0.1528  0.7293  0.0396
 2010SOL    HW1 8038   3.151   3.606   4.839  1.8419 -0.5386  1.6548
 2010SOL    HW2 8039   3.168   3.457   4.857 -2.7296 -1.4368 -0.1574
 2010SOL     MW 8040   3.132   3.524   4.816 -0.2311  0.2672  0.2305
 2011SOL     OW 8041   3.989   0.756   0.644 -0.3392 -0.1234  0.0430
 2011SOL    HW1 8042   4.064   0.786   0.594 -0.2308  1.2776  0.9726
 2011SOL    HW2 8043   4.018   0.757   0.735 -0.3274 -3.2107  0.1774
 2011SOL     MW 8044   4.003   0.761   0.650 -0.3230 -0.3504  0.1862
 2012SOL     OW 8045   0.383   1.951   1.213 -0.5291 -0.3991 -0.2002
 2012SOL    HW1 8046   0.341   2.018   1.266 -0.8386 -0.8673  0.1561
 2012SOL    HW2 8047   0.375   1.871   1.265  1.7902 -0.3037  0.4186
 2012SOL     MW 8048   0.377   1.949   1.227 -0.2586 -0.4493 -0.0690
 2013SOL     OW 8049   4.875   4.127   2.313 -0.4283  0.4186 -0.3290
 2013SOL    HW1 8050   4.941   4.196   2.299 -0.2786  0.0277 -1.6909
 2013SOL    HW2 8051   4.868   4.120   2.408  1.0469  0.9023 -0.1497
 2013SOL     MW 8052   4.883   4.136   2.324 -0.2096  0.4311 -0.4882
 2014SOL     OW 8053   4.847   0.835   1.271  0.5062  0.7973  0.3147
 2014SOL    HW1 8054   4.904   0.821   1.346  0.8343 -1.2130 -0.2624
 2014SOL    HW2 8055   4.907   0.853   1.198  0.3538 -0.0180 -0.0218
 2014SOL     MW 8056   4.862   0.836   1.271  0.5298  0.4171  0.1918
 2015SOL     OW 8057   2.392   0.616   3.133 -0.5572 -0.4189 -0.4728
 2015SOL    HW1 8058   2.473   0.585   3.173 -1.9831 -1.2965  1.9103
 2015SOL    HW2 8059   2.381   0.705   3.166 -1.0506 -0.6586  0.0263
 2015SOL     MW 8060   2.402   0.624   3.143 -0.8155 -0.5693 -0.0849
 2016SOL     OW 8061   4.581   2.252   2.536  0.5197  0.2458 -0.2746
 2016SOL    HW1 8062   4.586   2.348   2.533 -1.6086  0.4167 -0.2505
 2016SOL    HW2 8063   4.515   2.230   2.469  2.2020 -1.3654 -1.4827
 2016SOL     MW 8064   4.573   2.262   2.526  0.4597  0.0519 -0.4340
 2017SOL     OW 8065   1.591   2.718   0.431 -0.0013 -0.5161  0.4886
 2017SOL    HW1 8066   1.668   2.724   0.488 -0.3898  0.0716  0.9578
 2017SOL    HW2 8067   1.606   2.784   0.364 -0.3717  0.0069  0.9174
 2017SOL     MW 8068   1.604   2.727   0.430 -0.1034 -0.3666  0.6094
 2018SOL     OW 8069   1.712   2.595   5.472  0.8770  0.4659  0.5284
 2018SOL    HW1 8070   1.751   2.547   5.544 -2.2988 -0.7731  1.6034
 2018SOL    HW2 8071   1.727   2.540   5.395  1.3181  0.0832  0.8854
 2018SOL     MW 8072   1.719   2.581   5.471  0.5090  0.2477  0.7211
 2019SOL     OW 8073   0.878   2.880   5.086 -0.0123 -0.2956  0.7100
 2019SOL    HW1 8074   0.839   2.824   5.019  1.3770  0.6013 -0.9295
 2019SOL    HW2 8075   0.810   2.945   5.106 -0.8891 -1.3238  1.1389
 2019SOL     MW 8076   0.864   2.881   5.080  0.0567 -0.3133  0.5471
 2020SOL     OW 8077   3.156   0.679   1.081  0.1026  0.1403 -0.3410
 2020SOL    HW1 8078   3.208   0.640   1.151  0.3682  0.3704 -0.4097
 2020SOL    HW2 8079   3.099   0.607   1.050  0.7247 -0.2492 -0.6028
 2020SOL     MW 8080   3.155   0.664   1.086  0.2220  0.1188 -0.3855
 2021SOL     OW 8081   3.125   2.291   1.478 -0.5247  0.7016 -0.0823
 2021SOL    HW1 8082   3.038   2.258   1.453 -0.3537 -1.0110  1.3674
 2021SOL    HW2 8083   3.183   2.261   1.408 -1.0009  1.3839 -0.7827
 2021SOL     MW 8084   3.121   2.283   1.465 -0.5658  0.5629  0.0185
 2022SOL     OW 8085   3.063   1.349   3.558 -0.4374 -0.5145  0.8491
 2022SOL    HW1 8086   3.072   1.444   3.545  1.6024 -0.4921  2.0011
 2022SOL    HW2 8087   2.976   1.339   3.598 -0.9344  0.7848  0.1621
 2022SOL     MW 8088   3.052   1.361   3.562 -0.2297 -0.3366  0.9116
 2023SOL     OW 8089   4.150   2.419   1.870  0.7838 -0.4225  0.1691
 2023SOL    HW1 8090   4.147   2.417   1.966 -0.5343  0.2731  0.1600
 2023SOL    HW2 8091   4.102   2.498   1.846  0.7819 -0.7867 -1.0794
 2023SOL     MW 8092   4.143   2.429   1.880  0.6061 -0.3779 -0.0002
 2024SOL     OW 8093   3.907   2.359   5.221  0.0831 -0.0186 -0.2287
 2024SOL    HW1 8094   3.909   2.453   5.202  2.2394 -0.0715 -0.5675
 2024SOL    HW2 8095   3.958   2.351   5.302  1.0427 -0.9882 -0.8965
 2024SOL     MW 8096   3.914   2.371   5.229  0.5024 -0.1562 -0.3642
 2025SOL     OW 8097   4.903   2.343   0.261  0.0147  1.0383 -0.0155
 2025SOL    HW1 8098   4.868   2.285   0.329 -1.4279  0.5815 -1.1133
 2025SOL    HW2 8099   4.832   2.405   0.244  0.2344  0.9411 -1.3413
 2025SOL     MW 8100   4.889   2.343   0.268 -0.1499  0.9638 -0.3416
 2026SOL     OW 8101   4.306   4.812   3.527 -0.0726 -0.2312  0.2077
 2026SOL    HW1 8102   4.278   4.847   3.442  1.1187 -1.1134 -0.5864
 2026SOL    HW2 8103   4.294   4.885   3.588 -2.7104 -0.1332 -0.3109
 2026SOL     MW 8104   4.301   4.826   3.524 -0.2673 -0.3367  0.0310
 2027SOL     OW 8105   5.263   3.012   0.987  0.1038  0.2159 -0.5680
 2027SOL    HW1 8106   5.221   2.944   1.040  1.1507 -0.3102 -0.4029
 2027SOL    HW2 8107   5.292   2.967   0.908  2.7895 -0.0567  0.4933
 2027SOL     MW 8108   5.261   2.997   0.983  0.6062  0.1084 -0.4029
 2028SOL     OW 8109   2.256   4.238   3.638 -0.6031  0.2678  0.1066
 2028SOL    HW1 8110   2.201   4.299   3.587 -0.2845  0.3648 -0.1239
 2028SOL    HW2 8111   2.221   4.244   3.727  0.1126  1.6362  0.3353
 2028SOL     MW 8112   2.244   4.247   3.643 -0.4639  0.4650  0.1064
 2029SOL     OW 8113   1.657   1.737   1.689  0.5352  0.7772 -0.1623
 2029SOL    HW1 8114   1.573   1.695   1.672  0.6327  1.2326 -2.0203
 2029SOL    HW2 8115   1.716   1.665   1.709  0.1809  0.2226 -1.0448
 2029SOL     MW 8116   1.654   1.722   1.689  0.5006  0.7638 -0.5311
 2030SOL     OW 8117   0.748   5.054   0.186 -0.4079 -0.2031  0.3702
 2030SOL    HW1 8118   0.781   4.996   0.255 -0.0084 -1.4164 -0.7860
 2030SOL    HW2 8119   0.802   5.033   0.110 -1.0622  0.8508 -0.4039
 2030SOL     MW 8120   0.760   5.043   0.185 -0.4422 -0.2245  0.1104
 2031SOL     OW 8121   2.507   3.199   4.341  0.2338  0.5169 -0.2444
 2031SOL    HW1 8122   2.579   3.151   4.299  0.2743  0.8939 -0.6111
 2031SOL    HW2 8123   2.550   3.274   4.382  0.4986 -0.8795  2.2099
 2031SOL     MW 8124   2.523   3.203   4.341  0.2749  0.3797  0.0366
 2032SOL     OW 8125   4.439   3.864   1.059 -0.1828 -0.6972  0.3080
 2032SOL    HW1 8126   4.378   3.913   1.003  1.4250  3.0277  1.4571
 2032SOL    HW2 8127   4.449   3.779   1.016 -2.9550  0.0558 -2.1320
 2032SOL     MW 8128   4.432   3.859   1.046 -0.3395 -0.0946  0.1343
 2033SOL     OW 8129   3.918   3.267   3.208 -0.2926 -0.1863 -0.1613
 2033SOL    HW1 8130   4.012   3.282   3.210 -0.3478  0.1486  0.6556
 2033SOL    HW2 8131   3.889   3.302   3.124  0.4064 -0.9487 -0.7314
 2033SOL     MW 8132   3.926   3.273   3.197 -0.2059 -0.2438 -0.1281
 2034SOL     OW 8133   2.626   0.521   2.791 -0.3926 -0.2146 -0.4437
 2034SOL    HW1 8134   2.624   0.603   2.740  1.3495 -0.0494 -0.3260
 2034SOL    HW2 8135   2.677   0.461   2.737  0.4620 -0.4125  0.5489
 2034SOL     MW 8136   2.633   0.524   2.776 -0.0431 -0.2190 -0.2943
 2035SOL     OW 8137   0.678   0.258   5.196 -0.4208  0.0640 -0.2283
 2035SOL    HW1 8138   0.697   0.350   5.216  0.4669 -0.5052  1.7538
 2035SOL    HW2 8139   0.763   0.215   5.201 -1.1900 -1.3713  1.9120
 2035SOL     MW 8140   0.692   0.265   5.199 -0.4048 -0.2057  0.3265
 2036SOL     OW 8141   4.428   4.205   0.838  0.1120  0.1738  0.3670
 2036SOL    HW1 8142   4.493   4.144   0.803 -0.0765  0.4844 -0.5511
 2036SOL    HW2 8143   4.421   4.273   0.772 -0.7687  0.4221  0.7008
 2036SOL     MW 8144   4.436   4.206   0.825 -0.0319  0.2490  0.2883
 2037SOL     OW 8145   3.773   1.723   1.782  0.2244 -0.7240  0.4661
 2037SOL    HW1 8146   3.686   1.737   1.744  0.2893  0.3619  0.6853
 2037SOL    HW2 8147   3.831   1.780   1.731  0.4739  0.0160  1.5327
 2037SOL     MW 8148   3.769   1.733   1.770  0.2667 -0.4783  0.6391
 2038SOL     OW 8149   0.026   2.058   2.227 -0.7341  0.1048  0.0685
 2038SOL    HW1 8150   0.001   2.113   2.301 -0.2995 -0.4237  0.6136
 2038SOL    HW2 8151   0.071   1.983   2.266  1.1981  0.7340 -0.8438
 2038SOL     MW 8152   0.029   2.055   2.242 -0.4156  0.1183  0.0191
 2039SOL     OW 8153   3.843   3.885   2.012  0.1179 -0.2635  0.3829
 2039SOL    HW1 8154   3.902   3.939   2.065  0.8189 -0.1370 -0.4978
 2039SOL    HW2 8155   3.770   3.943   1.991  0.5409  0.1435  0.0081
 2039SOL     MW 8156   3.841   3.900   2.016  0.2692 -0.1917  0.2139
 2040SOL     OW 8157   4.803   0.042   2.471  0.1300 -0.8423  0.4488
 2040SOL    HW1 8158   4.880   0.062   2.417  0.0683 -1.8454 -0.0291
 2040SOL    HW2 8159   4.840   0.015   2.556  0.2981 -1.1499  0.2782
 2040SOL     MW 8160   4.818   0.041   2.475  0.1443 -1.0187  0.3615
 2041SOL     OW 8161   0.880   1.245   1.263  0.4963  0.4063  0.3773
 2041SOL    HW1 8162   0.840   1.321   1.306  1.5537  1.1044  0.1857
 2041SOL    HW2 8163   0.870   1.263   1.170  0.1527 -0.0245  0.3314
 2041SOL     MW 8164   0.873   1.258   1.256  0.5924  0.4423  0.3454
 2042SOL     OW 8165   1.753   4.181   4.323 -0.0949 -0.2949 -0.0864
 2042SOL    HW1 8166   1.668   4.190   4.365  1.1645  3.4146  2.1132
 2042SOL    HW2 8167   1.817   4.194   4.393  2.3221 -1.4130 -1.8909
 2042SOL     MW 8168   1.750   4.184   4.338  0.3998  0.0539 -0.0333
 2043SOL     OW 8169   4.114   1.654   0.191 -0.1276  0.0421  0.0838
 2043SOL    HW1 8170   4.067   1.696   0.119  2.0006  1.2020 -0.7135
 2043SOL    HW2 8171   4.103   1.560   0.175 -0.2432  0.2811 -1.4119
 2043SOL     MW 8172   4.106   1.647   0.179  0.1432  0.2304 -0.2248
 2044SOL     OW 8173   3.348   1.078   3.870  0.9926 -1.1891 -0.1250
 2044SOL    HW1 8174   3.288   1.006   3.855 -1.0286  0.2825  0.4935
 2044SOL    HW2 8175   3.384   1.098   3.784  2.0478 -3.2377 -0.2222
 2044SOL     MW 8176   3.345   1.071   3.857  0.8626 -1.2668 -0.0548
 2045SOL     OW 8177   3.915   2.547   1.304 -0.0710  0.9558 -0.2633
 2045SOL    HW1 8178   3.977   2.540   1.376 -1.6313  1.5401  1.1976
 2045SOL    HW2 8179   3.883   2.458   1.292 -0.3299  0.9735  0.2647
 2045SOL     MW 8180   3.919   2.534   1.312 -0.3158  1.0368  0.0044
 2046SOL     OW 8181   2.976   3.102   1.376  0.2810 -0.3024  0.1943
 2046SOL    HW1 8182   2.907   3.036   1.367  0.9751 -0.9453 -0.5671
 2046SOL    HW2 8183   3.029   3.071   1.450 -0.5417  0.4844  1.1397
 2046SOL     MW 8184   2.974   3.089   1.385  0.2637 -0.2830  0.2191
 2047SOL     OW 8185   1.671   3.692   4.264 -0.7894 -0.6390  0.2652
 2047SOL    HW1 8186   1.698   3.774   4.304 -1.0701  0.0373 -0.8817
 2047SOL    HW2 8187   1.617   3.649   4.330 -0.2365 -0.1326  1.0578
 2047SOL     MW 8188   1.667   3.697   4.278 -0.7528 -0.4799  0.2175
 2048SOL     OW 8189   2.281   3.080   2.655 -0.0864  0.3715 -0.3949
 2048SOL    HW1 8190   2.216   3.066   2.724  0.0729 -1.7713 -0.6356
 2048SOL    HW2 8191   2.352   3.127   2.699 -0.0107 -0.8976  0.9109
 2048SOL     MW 8192   2.282   3.085   2.670 -0.0547 -0.0877 -0.2516
 2049SOL     OW 8193   1.127   0.707   3.480 -0.5974  0.2632 -0.0765
 2049SOL    HW1 8194   1.192   0.777   3.485 -1.3144  0.9408  0.0021
 2049SOL    HW2 8195   1.047   0.746   3.514 -1.5879  0.0861 -2.0619
 2049SOL     MW 8196   1.125   0.721   3.485 -0.8272  0.3306 -0.3331
 2050SOL     OW 8197   4.033   0.640   5.110 -0.2649 -0.0530  0.3182
 2050SOL    HW1 8198   4.000   0.706   5.050 -0.3662  0.0962  0.5362
 2050SOL    HW2 8199   4.128   0.639   5.096 -0.3645 -0.5168 -0.3411
 2050SOL     MW 8200   4.042   0.648   5.100 -0.2919 -0.0953  0.2588
 2051SOL     OW 8201   4.140   4.997   1.221 -0.0557 -0.1427 -0.1968
 2051SOL    HW1 8202   4.080   5.011   1.294 -0.8913 -0.8864 -0.7255
 2051SOL    HW2 8203   4.094   5.032   1.145  0.6881  0.3609 -0.4261
 2051SOL     MW 8204   4.126   5.004   1.221 -0.0681 -0.1750 -0.2988
 2052SOL     OW 8205   2.518   4.707   4.366 -0.0230 -0.0326  0.0615
 2052SOL    HW1 8206   2.436   4.660   4.351 -0.5848  0.6563  0.8431
 2052SOL    HW2 8207   2.556   4.666   4.443 -0.0086  0.1334  0.1433
 2052SOL     MW 8208   2.512   4.695   4.374 -0.0966  0.0825  0.1777
 2053SOL     OW 8209   2.103   4.368   0.442  0.7514 -0.3965  0.3505
 2053SOL    HW1 8210   2.036   4.417   0.395  0.8573 -0.1399  0.4632
 2053SOL    HW2 8211   2.170   4.349   0.377  0.9400  0.0357  0.4136
 2053SOL     MW 8212   2.103   4.372   0.427  0.7911 -0.3038  0.3742
 2054SOL     OW 8213   5.063   4.163   4.844  0.1807  0.0005  0.0630
 2054SOL    HW1 8214   5.091   4.080   4.806 -0.5016 -0.4383  0.4958
 2054SOL    HW2 8215   5.134   4.225   4.822 -0.4301 -0.0700 -2.3790
 2054SOL     MW 8216   5.077   4.160   4.836  0.0067 -0.0681 -0.2074
 2055SOL     OW 8217   0.718   4.382   0.770 -0.1353  0.4395  0.1374
 2055SOL    HW1 8218   0.813   4.394   0.770 -0.0124  0.2703  2.9452
 2055SOL    HW2 8219   0.688   4.424   0.690  2.3583 -0.2055 -1.2232
 2055SOL     MW 8220   0.727   4.389   0.759  0.2168  0.3299  0.3322
 2056SOL     OW 8221   0.182   2.857   0.058 -0.4085 -0.1154 -0.3395
 2056SOL    HW1 8222   0.273   2.827   0.056 -0.1280  0.4385  1.6060
 2056SOL    HW2 8223   0.185   2.947   0.026  0.0747  0.5402  1.4137
 2056SOL     MW 8224   0.194   2.865   0.054 -0.3057  0.0474  0.1582
 2057SOL     OW 8225   4.644   1.559   3.022 -0.1002 -0.0630 -0.1315
 2057SOL    HW1 8226   4.635   1.639   2.969  1.3570  0.5251  0.4471
 2057SOL    HW2 8227   4.571   1.562   3.083 -0.4108  0.5263 -0.5192
 2057SOL     MW 8228   4.633   1.570   3.023  0.0541  0.0955 -0.1058
 2058SOL     OW 8229   2.550   2.449   3.142 -0.0756  0.2728 -0.2847
 2058SOL    HW1 8230   2.616   2.428   3.076 -1.4902 -1.6613 -1.1840
 2058SOL    HW2 8231   2.558   2.380   3.208 -1.1937 -0.0092 -0.4284
 2058SOL     MW 8232   2.560   2.437   3.142 -0.4164 -0.0255 -0.4250
 2059SOL     OW 8233   2.155   3.170   5.395 -0.4117  0.8645  0.2799
 2059SOL    HW1 8234   2.223   3.142   5.333  1.5630  1.5010  2.0296
 2059SOL    HW2 8235   2.074   3.170   5.343  0.7424 -0.7045 -1.7095
 2059SOL     MW 8236   2.153   3.166   5.379  0.0094  0.7390  0.2476
 2060SOL     OW 8237   0.136   1.467   1.104  0.4173  0.4018 -0.1044
 2060SOL    HW1 8238   0.044   1.495   1.097  0.5100  0.7656  0.1314
 2060SOL    HW2 8239   0.135   1.376   1.073  0.2504  0.9149 -1.7016
 2060SOL     MW 8240   0.123   1.459   1.099  0.4073  0.5198 -0.2876
 2061SOL     OW 8241   5.088   3.238   4.014 -0.3786 -0.5786  0.3703
 2061SOL    HW1 8242   5.027   3.244   3.941  1.8027 -1.3608 -1.6443
 2061SOL    HW2 8243   5.155   3.304   3.994  0.8416 -1.5775  1.0591
 2061SOL     MW 8244   5.089   3.248   4.002  0.0791 -0.8183  0.1919
 2062SOL     OW 8245   4.510   2.965   0.619 -0.2139  0.0258  0.1466
 2062SOL    HW1 8246   4.485   3.057   0.630 -1.9170 -0.5411  1.4828
 2062SOL    HW2 8247   4.596   2.958   0.660 -0.6467  0.7705  1.2400
 2062SOL     MW 8248   4.518   2.977   0.626 -0.5013  0.0497  0.4736
 2063SOL     OW 8249   2.381   4.322   2.317  0.0113 -0.3868  0.3401
 2063SOL    HW1 8250   2.319   4.334   2.246 -0.9238  1.2387  1.3765
 2063SOL    HW2 8251   2.418   4.409   2.332 -0.8098 -0.3769  2.7029
 2063SOL     MW 8252   2.378   4.335   2.309 -0.2250 -0.1667  0.7976
 2064SOL     OW 8253   0.486   3.112   5.523  0.4412  0.2791  0.0125
 2064SOL    HW1 8254   0.395   3.142   5.519  0.3896  0.0870 -0.3144
 2064SOL    HW2 8255   0.493   3.048   5.452  0.5434 -0.5012  0.7164
 2064SOL     MW 8256   0.475   3.108   5.513  0.4480  0.1482  0.0633
 2065SOL     OW 8257   2.245   1.174   2.247  0.7465  0.2190  0.0169
 2065SOL    HW1 8258   2.294   1.097   2.274  0.3000 -0.1537 -0.2038
 2065SOL    HW2 8259   2.156   1.141   2.232  0.6485  0.6957 -0.4794
 2065SOL     MW 8260   2.239   1.160   2.249  0.6732  0.2330 -0.0796
 2066SOL     OW 8261   5.039   0.936   4.802 -0.2076  0.0254 -0.1837
 2066SOL    HW1 8262   5.045   1.005   4.868 -0.2187 -0.9064  0.8244
 2066SOL    HW2 8263   4.946   0.932   4.779 -0.0455  1.1623 -1.1933
 2066SOL     MW 8264   5.028   0.945   4.808 -0.1873  0.0530 -0.1839
 2067SOL     OW 8265   1.174   3.139   3.913  0.1530  0.2636 -0.0483
 2067SOL    HW1 8266   1.165   3.234   3.920 -0.5111  0.1082  1.5305
 2067SOL    HW2 8267   1.145   3.105   3.997  1.0014 -1.3138 -0.3373
 2067SOL     MW 8268   1.169   3.147   3.925  0.1778  0.0304  0.1253
 2068SOL     OW 8269   0.311   0.953   1.239  0.2781  0.3060 -0.4897
 2068SOL    HW1 8270   0.393   0.912   1.212  0.6604  0.0903  0.9210
 2068SOL    HW2 8271   0.303   0.933   1.333 -2.6381 -1.8181 -1.0486
 2068SOL     MW 8272   0.321   0.945   1.248 -0.0629 -0.0089 -0.3751
 2069SOL     OW 8273   4.541   0.109   5.134  0.1172 -0.4489 -0.1448
 2069SOL    HW1 8274   4.616   0.098   5.076  0.5525  2.2970 -0.2283
 2069SOL    HW2 8275   4.490   0.028   5.123  3.2717 -2.6964  0.3711
 2069SOL     MW 8276   4.544   0.097   5.125  0.6003 -0.3818 -0.0866
 2070SOL     OW 8277   0.494   4.083   0.041 -0.0070 -0.1264  0.4604
 2070SOL    HW1 8278   0.521   4.175   0.041  0.0820 -0.1339  1.6201
 2070SOL    HW2 8279   0.419   4.081   0.101 -0.8215 -0.5985 -0.5433
 2070SOL     MW 8280   0.488   4.095   0.049 -0.1047 -0.1910  0.4814
 2071SOL     OW 8281   5.411   1.107   4.150  0.0152 -0.2381  0.0462
 2071SOL    HW1 8282   5.416   1.040   4.082  0.6497 -0.0411 -0.1083
 2071SOL    HW2 8283   5.346   1.074   4.212 -2.5755  0.7429 -1.9370
 2071SOL     MW 8284   5.403   1.094   4.149 -0.2481 -0.0796 -0.2415
 2072SOL     OW 8285   3.386   2.786   0.209 -0.0527  0.6345  0.5078
 2072SOL    HW1 8286   3.448   2.831   0.152 -1.0350  1.3231 -0.0540
 2072SOL    HW2 8287   3.302   2.829   0.192 -1.1124 -1.5338 -0.2327
 2072SOL     MW 8288   3.383   2.798   0.199 -0.3275  0.4353  0.3325
 2073SOL     OW 8289   0.688   1.771   0.346 -0.0017 -0.3642  0.5408
 2073SOL    HW1 8290   0.673   1.865   0.346 -1.4236 -0.5538 -1.0461
 2073SOL    HW2 8291   0.727   1.753   0.432  0.5647  1.6844  0.7643
 2073SOL     MW 8292   0.691   1.781   0.357 -0.1168 -0.1140  0.3573
 2074SOL     OW 8293   3.009   4.147   2.177 -0.1200  0.4964 -0.1128
 2074SOL    HW1 8294   3.088   4.098   2.197  0.0809  1.0070  0.3480
 2074SOL    HW2 8295   2.938   4.089   2.204 -0.0103 -0.8372 -2.3747
 2074SOL     MW 8296   3.010   4.133   2.183 -0.0782  0.3856 -0.3552
 2075SOL     OW 8297   2.218   2.591   5.522  0.3011  0.1580  0.1492
 2075SOL    HW1 8298   2.171   2.573   5.441 -0.1621  0.9535  0.2276
 2075SOL    HW2 8299   2.211   2.511   5.573  0.4970 -0.3116 -0.5471
 2075SOL     MW 8300   2.211   2.578   5.518  0.2651  0.2019  0.0661
 2076SOL     OW 8301   1.075   4.550   0.485 -0.2000 -0.1847 -0.3123
 2076SOL    HW1 8302   1.097   4.516   0.572 -1.5752 -0.3102  0.0222
 2076SOL    HW2 8303   1.079   4.645   0.495 -1.9829 -0.1324  0.4120
 2076SOL     MW 8304   1.078   4.558   0.498 -0.6250 -0.1946 -0.1698
 2077SOL     OW 8305   0.045   3.688   0.787  0.3773  0.0107 -0.5296
 2077SOL    HW1 8306   0.131   3.649   0.797  1.7422  3.1898  2.0162
 2077SOL    HW2 8307   0.000   3.668   0.870  0.0978  1.4055 -0.3179
 2077SOL     MW 8308   0.050   3.680   0.800  0.5234  0.6263 -0.1585
 2078SOL     OW 8309   3.817   3.373   2.967  0.0308  0.4779  0.1251
 2078SOL    HW1 8310   3.792   3.459   2.999 -1.0533 -0.1709  1.1193
 2078SOL    HW2 8311   3.735   3.334   2.936  0.4416 -0.3142  0.0000
 2078SOL     MW 8312   3.803   3.379   2.967 -0.0598  0.2840  0.2421
 2079SOL     OW 8313   0.042   3.031   5.337  0.0132  0.0662  0.6820
 2079SOL    HW1 8314   0.094   3.078   5.273 -0.3930 -0.9657 -0.4549
 2079SOL    HW2 8315  -0.044   3.072   5.334  0.0828  0.2199  0.7953
 2079SOL     MW 8316   0.037   3.043   5.328 -0.0321 -0.0520  0.5442
 2080SOL     OW 8317   3.147   1.612   4.052 -0.1764 -0.1128  0.4548
 2080SOL    HW1 8318   3.239   1.604   4.027 -0.3722 -1.2410  0.0147
 2080SOL    HW2 8319   3.149   1.632   4.146  0.5151  0.5401  0.3094
 2080SOL     MW 8320   3.159   1.613   4.062 -0.1097 -0.1768  0.3760
 2081SOL     OW 8321   2.764   4.629   3.469 -0.0646  0.5235 -0.2122
 2081SOL    HW1 8322   2.853   4.663   3.465 -0.3082  1.4219  1.3657
 2081SOL    HW2 8323   2.774   4.541   3.506  0.2032  0.3948 -0.5794
 2081SOL     MW 8324   2.778   4.621   3.474 -0.0614  0.6271 -0.0493
 2082SOL     OW 8325   4.772   4.031   4.156  0.1604 -0.2842  0.0221
 2082SOL    HW1 8326   4.701   4.023   4.092 -0.9387  0.5296  1.0833
 2082SOL    HW2 8327   4.818   4.111   4.132  0.1270 -0.3003 -0.0962
 2082SOL     MW 8328   4.769   4.041   4.144  0.0080 -0.1768  0.1490
 2083SOL     OW 8329   1.338   1.002   3.022  0.4988  0.3369 -0.6362
 2083SOL    HW1 8330   1.323   0.949   2.944  0.6008  0.9865 -1.1102
 2083SOL    HW2 8331   1.263   0.983   3.078  1.5771 -1.9258  0.1649
 2083SOL     MW 8332   1.326   0.992   3.019  0.6576  0.1198 -0.5922
 2084SOL     OW 8333   5.240   0.087   2.827 -0.1844  0.2052 -0.4488
 2084SOL    HW1 8334   5.178   0.131   2.885  0.1847  0.9270 -0.6036
 2084SOL    HW2 8335   5.209   0.107   2.739  1.3604  2.2185 -0.5918
 2084SOL     MW 8336   5.227   0.095   2.823  0.0731  0.5733 -0.4888
 2085SOL     OW 8337   3.040   3.658   0.042  0.0563  0.1361 -0.0786
 2085SOL    HW1 8338   3.060   3.724  -0.025 -0.3039  1.6741  1.2912
 2085SOL    HW2 8339   3.124   3.643   0.085 -0.1183  0.6674  0.4528
 2085SOL     MW 8340   3.054   3.665   0.039 -0.0157  0.4146  0.1773
 2086SOL     OW 8341   1.369   1.180   1.381  0.0918  0.1964 -0.4295
 2086SOL    HW1 8342   1.436   1.200   1.446 -0.0078 -1.5896  0.2732
 2086SOL    HW2 8343   1.413   1.192   1.297  1.0264 -0.0485  0.0140
 2086SOL     MW 8344   1.384   1.184   1.378  0.2042 -0.0769 -0.2752
 2087SOL     OW 8345   1.158   2.588   4.851 -0.2502 -0.6121 -0.2864
 2087SOL    HW1 8346   1.079   2.551   4.891  0.0058 -0.6009  0.2410
 2087SOL    HW2 8347   1.228   2.528   4.877 -0.2076 -1.0924 -1.4606
 2087SOL     MW 8348   1.157   2.575   4.860 -0.2100 -0.6753 -0.3735
 2088SOL     OW 8349   4.240   3.258   2.427  0.0903 -0.4316 -0.4313
 2088SOL    HW1 8350   4.335   3.269   2.421 -0.1282  1.0026 -2.3056
 2088SOL    HW2 8351   4.227   3.163   2.438  1.7401 -0.4839  1.5180
 2088SOL     MW 8352   4.251   3.247   2.427  0.2829 -0.2456 -0.4212
 2089SOL     OW 8353   5.000   4.270   2.743 -0.5238 -0.0272 -0.2080
 2089SOL    HW1 8354   5.028   4.358   2.717 -1.4151  0.5846  0.8388
 2089SOL    HW2 8355   5.078   4.216   2.734  0.2472  1.0428 -0.0740
 2089SOL     MW 8356   5.014   4.274   2.738 -0.5400  0.1991 -0.0491
 2090SOL     OW 8357   1.599   4.911   4.285  0.5298 -0.0043  0.2882
 2090SOL    HW1 8358   1.634   4.958   4.210  2.4920  0.2497  1.3024
 2090SOL    HW2 8359   1.545   4.976   4.331 -0.3112 -0.0365 -0.6265
 2090SOL     MW 8360   1.597   4.926   4.281  0.6807  0.0255  0.3016
 2091SOL     OW 8361   4.935   1.585   1.171 -0.0329 -0.4051 -0.0704
 2091SOL    HW1 8362   4.963   1.591   1.080  1.9492  0.0439  0.5126
 2091SOL    HW2 8363   4.881   1.662   1.185 -1.0105 -0.8879 -1.0504
 2091SOL     MW 8364   4.932   1.596   1.161  0.1023 -0.4096 -0.1238
 2092SOL     OW 8365   0.518   4.951   4.330 -0.0897 -0.2847  0.1741
 2092SOL    HW1 8366   0.429   4.920   4.312  0.2449 -1.1013 -0.1120
 2092SOL    HW2 8367   0.568   4.926   4.252  0.8893 -1.8730  1.2436
 2092SOL     MW 8368   0.513   4.943   4.317  0.0871 -0.6084  0.2795
 2093SOL     OW 8369   0.073   3.973   4.687 -0.3620 -0.0488  0.1363
 2093SOL    HW1 8370   0.024   3.905   4.640 -1.9996  0.5208  0.9702
 2093SOL    HW2 8371   0.094   4.038   4.620 -1.0449 -0.1447 -0.1824
 2093SOL     MW 8372   0.069   3.972   4.672 -0.6743  0.0150  0.2056
 2094SOL     OW 8373   3.180   5.037   4.959 -0.2653  0.1494 -0.4440
 2094SOL    HW1 8374   3.261   4.999   4.926  0.1977  0.2774  0.5052
 2094SOL    HW2 8375   3.124   4.962   4.978 -0.2742  0.0504 -0.8495
 2094SOL     MW 8376   3.184   5.022   4.957 -0.2042  0.1533 -0.3708
 2095SOL     OW 8377   2.657   2.463   1.900  0.4620  0.4960  0.2023
 2095SOL    HW1 8378   2.625   2.385   1.944 -0.2840  0.6948  0.0219
 2095SOL    HW2 8379   2.579   2.505   1.865  0.7805  1.6771  0.8582
 2095SOL     MW 8380   2.643   2.458   1.901  0.4045  0.6817  0.2663
 2096SOL     OW 8381   2.158   2.127   1.359  0.0891 -0.0269 -0.5479
 2096SOL    HW1 8382   2.218   2.107   1.431 -1.4653  0.7078  1.0236
 2096SOL    HW2 8383   2.213   2.166   1.291  1.8583 -2.1456 -0.4346
 2096SOL     MW 8384   2.173   2.129   1.360  0.1180 -0.2132 -0.3212
 2097SOL     OW 8385   2.760   1.787   4.699 -0.1398  0.1422  0.0315
 2097SOL    HW1 8386   2.847   1.780   4.738  0.2181 -0.9472 -0.9023
 2097SOL    HW2 8387   2.762   1.868   4.648  0.1824  0.3280  0.3370
 2097SOL     MW 8388   2.772   1.797   4.698 -0.0483  0.0206 -0.0530
 2098SOL     OW 8389   0.908   3.670   1.585  0.6000 -0.2435  0.3211
 2098SOL    HW1 8390   0.901   3.765   1.594 -0.9274 -0.3579  0.5224
 2098SOL    HW2 8391   0.915   3.637   1.674  0.7519 -0.3585  0.2690
 2098SOL     MW 8392   0.908   3.678   1.598  0.4149 -0.2744  0.3412
 2099SOL     OW 8393   0.822   2.299   4.839  0.2263 -0.5984 -0.2367
 2099SOL    HW1 8394   0.766   2.351   4.780 -0.0593 -1.3685 -0.6568
 2099SOL    HW2 8395   0.801   2.208   4.818  0.5635 -0.8883  0.6451
 2099SOL     MW 8396   0.811   2.294   4.828  0.2332 -0.7410 -0.1746
 2100SOL     OW 8397   3.939   2.640   0.038  0.4939 -0.5639 -0.2025
 2100SOL    HW1 8398   3.965   2.552   0.011  1.1494 -0.4309 -0.0315
 2100SOL    HW2 8399   3.853   2.628   0.079  1.7759 -1.6228  2.4654
 2100SOL     MW 8400   3.931   2.626   0.040  0.7547 -0.6885  0.1796
 2101SOL     OW 8401   0.403   2.056   1.604 -0.2312 -0.2901  0.1098
 2101SOL    HW1 8402   0.470   2.011   1.553  0.1867  0.4375  0.0106
 2101SOL    HW2 8403   0.348   2.099   1.539 -0.8548 -0.9516  0.1858
 2101SOL     MW 8404   0.405   2.056   1.588 -0.2589 -0.2812  0.1067
 2102SOL     OW 8405   1.372   4.714   0.493  0.1268 -0.1748 -0.2345
 2102SOL    HW1 8406   1.368   4.775   0.566  1.1188 -2.0523  1.4873
 2102SOL    HW2 8407   1.465   4.708   0.472  0.0965 -1.3964 -0.0852
 2102SOL     MW 8408   1.384   4.721   0.500  0.2562 -0.5919  0.0173
 2103SOL     OW 8409   3.574   4.026   0.295  0.0052 -0.1172  0.0507
 2103SOL    HW1 8410   3.529   3.961   0.241 -0.8999  1.3634 -1.0492
 2103SOL    HW2 8411   3.507   4.090   0.316  1.0422  0.8646  0.4709
 2103SOL     MW 8412   3.559   4.026   0.290  0.0229  0.2142 -0.0408
 2104SOL     OW 8413   4.079   2.176   1.756  0.9040  0.0725  0.0245
 2104SOL    HW1 8414   4.087   2.107   1.822 -0.3790  0.6244  0.7928
 2104SOL    HW2 8415   4.101   2.256   1.802 -1.0519  0.6074  0.1317
 2104SOL     MW 8416   4.083   2.177   1.771  0.4681  0.2187  0.1423
 2105SOL     OW 8417   1.957   0.028   4.592  0.2368  0.3959  0.2210
 2105SOL    HW1 8418   1.906   0.076   4.657 -2.6230 -1.1158 -0.7179
 2105SOL    HW2 8419   1.955  -0.062   4.623  1.5664  0.1523 -0.3643
 2105SOL     MW 8420   1.950   0.022   4.605  0.0309  0.1597  0.0159
 2106SOL     OW 8421   0.161   5.069   2.086 -0.2790 -0.1073 -0.0913
 2106SOL    HW1 8422   0.225   5.113   2.142 -0.0700 -0.0703 -0.3541
 2106SOL    HW2 8423   0.106   5.139   2.052 -0.6763 -0.1750  0.4035
 2106SOL     MW 8424   0.162   5.084   2.089 -0.3044 -0.1114 -0.0601
 2107SOL     OW 8425   4.830   0.837   3.626 -0.1529 -0.0746  0.2912
 2107SOL    HW1 8426   4.882   0.914   3.601 -1.7036  0.0348 -3.1523
 2107SOL    HW2 8427   4.861   0.767   3.569  0.7548 -1.9349  2.8920
 2107SOL     MW 8428   4.841   0.838   3.615 -0.2395 -0.3103  0.1778
 2108SOL     OW 8429   2.823   5.204   4.867  0.3883  0.0317  0.1991
 2108SOL    HW1 8430   2.760   5.242   4.805 -2.3762 -2.4608  1.2508
 2108SOL    HW2 8431   2.905   5.201   4.818 -0.9757  0.7880 -2.3349
 2108SOL     MW 8432   2.826   5.209   4.852 -0.1673 -0.2020 -0.0004
 2109SOL     OW 8433   1.924   5.196   0.401 -0.5728  0.2675  0.5162
 2109SOL    HW1 8434   1.947   5.207   0.493  0.1675 -0.4362  0.4232
 2109SOL    HW2 8435   1.923   5.285   0.366 -0.4707  0.5044  1.1052
 2109SOL     MW 8436   1.927   5.210   0.409 -0.4594  0.2047  0.5830
 2110SOL     OW 8437   0.709   5.002   2.184 -0.4399  0.9225 -0.1873
 2110SOL    HW1 8438   0.759   4.927   2.152  1.8817  1.9017  0.8252
 2110SOL    HW2 8439   0.699   4.985   2.278 -1.9718  0.7963 -0.3632
 2110SOL     MW 8440   0.715   4.990   2.193 -0.3336  1.0373 -0.0747
 2111SOL     OW 8441   0.503   0.513   5.331 -0.0340 -0.0523 -0.1496
 2111SOL    HW1 8442   0.419   0.473   5.352  0.1746  0.5486  2.1367
 2111SOL    HW2 8443   0.562   0.481   5.400  1.1405  0.9501 -0.6546
 2111SOL     MW 8444   0.500   0.503   5.343  0.1522  0.1634  0.0901
 2112SOL     OW 8445   1.196   4.291   4.711 -1.1534 -0.0380 -0.1573
 2112SOL    HW1 8446   1.233   4.263   4.794 -0.1416  0.5666 -0.3864
 2112SOL    HW2 8447   1.182   4.386   4.721 -0.1113  0.2253 -0.9881
 2112SOL     MW 8448   1.199   4.300   4.723 -0.8770  0.0788 -0.3000
 2113SOL     OW 8449   1.300   1.106   5.358 -0.0580 -0.4141  0.3281
 2113SOL    HW1 8450   1.274   1.197   5.346  1.5987  0.1907  1.0694
 2113SOL    HW2 8451   1.391   1.102   5.328  0.5246 -1.3614  2.0743
 2113SOL     MW 8452   1.308   1.118   5.352  0.2434 -0.4602  0.6629
 2114SOL     OW 8453   1.222   3.578   0.693  0.1435  0.0879 -0.1899
 2114SOL    HW1 8454   1.203   3.665   0.729 -1.7101  0.0783 -1.0598
 2114SOL    HW2 8455   1.292   3.594   0.630  0.4601  0.7905  0.3171
 2114SOL     MW 8456   1.229   3.592   0.690 -0.0634  0.1812 -0.2387
 2115SOL     OW 8457   1.510   5.339   2.601  0.0107 -0.3266 -0.2875
 2115SOL    HW1 8458   1.446   5.375   2.662  0.2173  1.6482 -1.1602
 2115SOL    HW2 8459   1.457   5.302   2.530 -0.1972  0.4120 -0.5279
 2115SOL     MW 8460   1.494   5.339   2.599  0.0106  0.0386 -0.4373
 2116SOL     OW 8461   4.532   1.211   2.178  0.1499 -0.2741  0.1139
 2116SOL    HW1 8462   4.592   1.249   2.115 -0.3999 -0.3607 -0.4708
 2116SOL    HW2 8463   4.534   1.117   2.159 -2.8904 -0.0048 -2.4216
 2116SOL     MW 8464   4.540   1.203   2.167 -0.3332 -0.2495 -0.3060
 2117SOL     OW 8465   0.561   0.815   1.219 -0.1350 -0.2943  0.0141
 2117SOL    HW1 8466   0.591   0.733   1.258  0.8085 -0.1231 -0.3188
 2117SOL    HW2 8467   0.601   0.883   1.273  1.0565 -0.0550 -1.0914
 2117SOL     MW 8468   0.571   0.813   1.231  0.1524 -0.2390 -0.1795
 2118SOL     OW 8469   3.409   5.149   3.148 -0.3199  0.4453 -0.4699
 2118SOL    HW1 8470   3.317   5.175   3.150 -0.0221  1.6901 -1.7543
 2118SOL    HW2 8471   3.442   5.183   3.065  1.3273  0.0915  0.0088
 2118SOL     MW 8472   3.401   5.157   3.137 -0.0582  0.5652 -0.5783
 2119SOL     OW 8473   4.952   2.698   3.301  0.4579  0.0494 -0.0240
 2119SOL    HW1 8474   5.030   2.671   3.349  0.4905 -0.6510 -0.4509
 2119SOL    HW2 8475   4.880   2.688   3.364  0.8455  1.9124  0.7782
 2119SOL     MW 8476   4.953   2.693   3.316  0.5145  0.2059  0.0265
 2120SOL     OW 8477   0.785   3.428   2.218  0.1286 -0.0537  0.8681
 2120SOL    HW1 8478   0.753   3.517   2.202  0.1443 -0.0003  1.1425
 2120SOL    HW2 8479   0.866   3.440   2.268  0.8165 -0.1696 -0.1824
 2120SOL     MW 8480   0.792   3.442   2.222  0.2233 -0.0621  0.7637
 2121SOL     OW 8481   2.122   2.100   3.461 -0.2777 -0.2464 -0.0944
 2121SOL    HW1 8482   2.064   2.069   3.530  0.6050 -2.0280 -0.1044
 2121SOL    HW2 8483   2.080   2.074   3.380  1.4580 -3.6211 -0.0928
 2121SOL     MW 8484   2.109   2.093   3.460  0.0747 -0.9403 -0.0955
 2122SOL     OW 8485   4.159   2.525   0.238 -0.2675  0.1069  0.2088
 2122SOL    HW1 8486   4.093   2.506   0.305  1.8852  0.0515  2.4505
 2122SOL    HW2 8487   4.165   2.620   0.237  0.7964  0.0644  1.2700
 2122SOL     MW 8488   4.151   2.535   0.247  0.1654  0.0937  0.6533
 2123SOL     OW 8489   2.408   4.791   2.501  0.1113  0.1542 -0.1178
 2123SOL    HW1 8490   2.425   4.868   2.447 -0.5568  0.4506  0.0758
 2123SOL    HW2 8491   2.486   4.781   2.555  0.5997  0.1220 -0.8132
 2123SOL     MW 8492   2.421   4.800   2.501  0.0871  0.1898 -0.1853
 2124SOL     OW 8493   5.097   4.679   5.295 -0.2122 -0.3626 -0.3285
 2124SOL    HW1 8494   5.074   4.617   5.365 -1.1971  1.2248  0.8017
 2124SOL    HW2 8495   5.169   4.731   5.331 -0.9520  0.6956 -0.3465
 2124SOL     MW 8496   5.104   4.677   5.309 -0.4443 -0.0066 -0.1788
 2125SOL     OW 8497   2.666   0.308   5.065 -0.9333  0.0148 -0.1886
 2125SOL    HW1 8498   2.590   0.250   5.068 -2.1807  1.6461  1.2786
 2125SOL    HW2 8499   2.631   0.395   5.082  1.4629  0.5868  2.6740
 2125SOL     MW 8500   2.651   0.312   5.068 -0.7787  0.3114  0.3941
 2126SOL     OW 8501   5.421   0.184   2.472 -0.0310  0.0349 -0.0442
 2126SOL    HW1 8502   5.431   0.094   2.441 -0.5946 -0.0081 -0.1134
 2126SOL    HW2 8503   5.330   0.190   2.499 -0.7864  1.3466 -2.5149
 2126SOL     MW 8504   5.410   0.173   2.471 -0.2085  0.2056 -0.3860
 2127SOL     OW 8505   4.846   4.848   3.251 -0.4483 -0.0143  0.0658
 2127SOL    HW1 8506   4.844   4.943   3.261 -2.6083  0.0933 -0.8506
 2127SOL    HW2 8507   4.819   4.833   3.160 -1.1699 -1.5361  0.4980
 2127SOL     MW 8508   4.842   4.859   3.240 -0.8361 -0.2046  0.0006
 2128SOL     OW 8509   3.893   2.706   1.081 -0.6180 -0.1014  0.2133
 2128SOL    HW1 8510   3.913   2.648   1.155 -1.4716 -0.5168  0.1375
 2128SOL    HW2 8511   3.825   2.765   1.114  2.9445  3.7007  1.6431
 2128SOL     MW 8512   3.887   2.706   1.096 -0.2534  0.3543  0.3955
 2129SOL     OW 8513   4.641   5.498   1.693  0.6563  0.8706 -0.1282
 2129SOL    HW1 8514   4.549   5.472   1.693  0.9742 -0.3256  0.9834
 2129SOL    HW2 8515   4.658   5.524   1.602 -0.9329  1.7559 -0.2115
 2129SOL     MW 8516   4.631   5.498   1.681  0.4852  0.8288  0.0102
 2130SOL     OW 8517   0.421   0.507   4.472 -0.5745  0.2900 -0.5786
 2130SOL    HW1 8518   0.378   0.422   4.460 -0.6062  0.4259 -1.4323
 2130SOL    HW2 8519   0.414   0.550   4.387 -1.0989  1.3989  0.0095
 2130SOL     MW 8520   0.414   0.501   4.459 -0.6493  0.4575 -0.6144
 2131SOL     OW 8521   0.737   0.419   3.456 -0.2392 -0.3824 -0.1183
 2131SOL    HW1 8522   0.659   0.372   3.427 -0.5519  0.3537 -0.5054
 2131SOL    HW2 8523   0.704   0.488   3.514  0.3034 -1.2696  1.2940
 2131SOL     MW 8524   0.722   0.422   3.460 -0.2082 -0.4027  0.0197
 2132SOL     OW 8525   3.553   4.473   0.482 -0.1765 -0.4052 -0.1984
 2132SOL    HW1 8526   3.620   4.508   0.422  0.0568 -1.4911 -0.5936
 2132SOL    HW2 8527   3.601   4.452   0.562 -0.7841  2.7420  1.1259
 2132SOL     MW 8528   3.569   4.475   0.484 -0.2268 -0.1278 -0.0734
 2133SOL     OW 8529   0.866   2.493   4.190  0.0176 -0.3417 -0.8272
 2133SOL    HW1 8530   0.876   2.506   4.096 -1.2293  0.3515 -0.8941
 2133SOL    HW2 8531   0.771   2.489   4.203  0.1842 -1.0847  0.3218
 2133SOL     MW 8532   0.854   2.494   4.180 -0.1278 -0.3484 -0.6816
 2134SOL     OW 8533   3.630   5.459   2.326 -0.5836  0.1966  1.0603
 2134SOL    HW1 8534   3.700   5.501   2.376 -0.2168 -0.8704  1.4879
 2134SOL    HW2 8535   3.550   5.504   2.353 -0.0350  1.7715  0.1914
 2134SOL     MW 8536   3.629   5.471   2.336 -0.4604  0.2650  1.0009
 2135SOL     OW 8537   2.427   1.216   0.067  0.2347  0.1647  0.1756
 2135SOL    HW1 8538   2.455   1.275  -0.004 -0.8209  2.0164  1.2299
 2135SOL    HW2 8539   2.396   1.138   0.021  1.3092  0.5376 -1.2982
 2135SOL     MW 8540   2.427   1.213   0.051  0.2372  0.4641  0.1191
 2136SOL     OW 8541   1.238   3.308   3.631 -0.1803  0.1479 -0.2069
 2136SOL    HW1 8542   1.145   3.309   3.611 -0.0786  2.6110 -0.8651
 2136SOL    HW2 8543   1.245   3.349   3.717  0.3099 -0.1345 -0.1054
 2136SOL     MW 8544   1.227   3.313   3.640 -0.1006  0.4414 -0.2818
 2137SOL     OW 8545   2.595   3.423   1.303  0.6925  0.1268  0.1469
 2137SOL    HW1 8546   2.685   3.392   1.309  0.1317 -1.7236 -0.1276
 2137SOL    HW2 8547   2.547   3.349   1.265 -0.8758  1.1861 -0.0308
 2137SOL     MW 8548   2.600   3.409   1.299  0.4059  0.0203  0.0861
 2138SOL     OW 8549   0.501   2.940   5.298  0.4863  0.3254  0.0925
 2138SOL    HW1 8550   0.479   2.855   5.338 -0.1047  0.5272  0.2028
 2138SOL    HW2 8551   0.457   2.939   5.214 -0.7091  1.0946  0.6848
 2138SOL     MW 8552   0.492   2.928   5.292  0.2459  0.4561  0.1870
 2139SOL     OW 8553   4.504   1.384   5.508 -0.4326 -0.2419 -0.4937
 2139SOL    HW1 8554   4.567   1.434   5.456 -0.2317 -0.5293 -0.5269
 2139SOL    HW2 8555   4.455   1.451   5.557 -0.9578  0.0706 -1.4174
 2139SOL     MW 8556   4.506   1.400   5.508 -0.4763 -0.2385 -0.6224
 2140SOL     OW 8557   2.745   1.096   2.351  0.0150  0.4177  0.1921
 2140SOL    HW1 8558   2.788   1.173   2.313  0.2878  0.0698 -0.2141
 2140SOL    HW2 8559   2.660   1.091   2.307 -1.4440  2.3787  2.5285
 2140SOL     MW 8560   2.740   1.105   2.340 -0.1446  0.6348  0.4518
 2141SOL     OW 8561   4.698   0.200   0.392  0.1096  0.1170 -0.0898
 2141SOL    HW1 8562   4.756   0.268   0.426  0.1616 -0.0627  0.1859
 2141SOL    HW2 8563   4.725   0.189   0.301 -0.0285  0.5989 -0.1940
 2141SOL     MW 8564   4.709   0.208   0.384  0.0980  0.1577 -0.0667
 2142SOL     OW 8565   3.687   3.873   4.833  0.2101  0.3249  0.1971
 2142SOL    HW1 8566   3.632   3.890   4.757  1.2347 -0.5607 -0.7947
 2142SOL    HW2 8567   3.745   3.949   4.838  0.2881  0.2857 -0.0637
 2142SOL     MW 8568   3.687   3.885   4.823  0.3585  0.2004  0.0285
 2143SOL     OW 8569   0.726   1.638   3.177 -0.1153  0.1987 -0.3701
 2143SOL    HW1 8570   0.762   1.581   3.109 -0.0868  0.3182 -0.4559
 2143SOL    HW2 8571   0.637   1.607   3.190 -0.1251  0.1855 -0.4710
 2143SOL     MW 8572   0.719   1.626   3.169 -0.1128  0.2130 -0.3953
 2144SOL     OW 8573   0.603   4.447   2.730 -0.7278 -0.2873  0.0737
 2144SOL    HW1 8574   0.671   4.400   2.778  1.5335  2.4362 -0.2202
 2144SOL    HW2 8575   0.639   4.458   2.642 -1.8754  0.5662 -0.3099
 2144SOL     MW 8576   0.617   4.442   2.724 -0.5779  0.1941 -0.0175
 2145SOL     OW 8577   0.109   1.738   2.958 -0.6849 -0.3081  0.3020
 2145SOL    HW1 8578   0.124   1.714   2.867  0.1969  1.3128 -0.0128
 2145SOL    HW2 8579   0.095   1.832   2.957 -1.2895 -0.3497  1.7825
 2145SOL     MW 8580   0.109   1.747   2.946 -0.6476 -0.0956  0.4589
 2146SOL     OW 8581   4.223   5.520   4.974  0.0060  0.6393 -0.0624
 2146SOL    HW1 8582   4.163   5.576   5.024  1.0922  0.5434  1.4260
 2146SOL    HW2 8583   4.176   5.437   4.964 -0.4989  0.8839  0.2127
 2146SOL     MW 8584   4.208   5.517   4.980  0.0843  0.6593  0.1750
 2147SOL     OW 8585   0.462   2.920   2.048  0.3520 -0.3434 -0.1576
 2147SOL    HW1 8586   0.404   2.995   2.057 -0.1025 -0.7304  0.1795
 2147SOL    HW2 8587   0.546   2.958   2.020  0.1313  0.2829  0.0087
 2147SOL     MW 8588   0.466   2.935   2.045  0.2611 -0.3112 -0.0899
 2148SOL     OW 8589   4.030   1.262   3.504  0.4756  0.5109  0.0772
 2148SOL    HW1 8590   4.049   1.290   3.415  0.7437  1.2643  0.3581
 2148SOL    HW2 8591   4.115   1.238   3.541  0.3163 -0.1737  0.0129
 2148SOL     MW 8592   4.044   1.263   3.497  0.4902  0.5201  0.1063
 2149SOL     OW 8593   2.399   2.004   0.441 -0.4858  0.8197 -0.3481
 2149SOL    HW1 8594   2.405   1.940   0.511 -0.1131  2.1321  0.8604
 2149SOL    HW2 8595   2.375   1.953   0.364  1.2408 -0.9783  0.2362
 2149SOL     MW 8596   2.397   1.989   0.440 -0.2033  0.7543 -0.1068
 2150SOL     OW 8597   2.915   3.785   2.989  0.2877 -0.3361 -0.2203
 2150SOL    HW1 8598   2.847   3.847   2.963  0.7021 -1.1048 -3.6020
 2150SOL    HW2 8599   2.867   3.705   3.011  0.0103 -0.8716 -2.5759
 2150SOL     MW 8600   2.900   3.783   2.989  0.3062 -0.5116 -0.9924
 2151SOL     OW 8601   1.230   0.425   1.191 -0.2411 -0.5044  0.3264
 2151SOL    HW1 8602   1.190   0.432   1.277 -0.7357 -0.7285  0.1156
 2151SOL    HW2 8603   1.279   0.506   1.181  0.9826 -1.0630  1.4003
 2151SOL     MW 8604   1.231   0.437   1.201 -0.1430 -0.6097  0.4426
 2152SOL     OW 8605   4.545   4.041   0.169 -0.4219 -0.0748  0.6559
 2152SOL    HW1 8606   4.599   4.007   0.240  0.2708 -1.1364 -0.3453
 2152SOL    HW2 8607   4.575   4.131   0.157  0.7431 -0.4697  0.5012
 2152SOL     MW 8608   4.556   4.048   0.177 -0.1719 -0.2708  0.5004
 2153SOL     OW 8609   2.566   4.313   5.445  0.5483  0.5614 -0.0663
 2153SOL    HW1 8610   2.610   4.261   5.512  0.4685 -0.6633 -0.9354
 2153SOL    HW2 8611   2.637   4.359   5.400  0.7780 -0.0062 -0.2935
 2153SOL     MW 8612   2.582   4.312   5.448  0.5685  0.3202 -0.2138
 2154SOL     OW 8613   2.207   4.003   3.521 -0.1070  0.0049 -0.2845
 2154SOL    HW1 8614   2.120   3.990   3.484  0.1295  0.4796 -1.0329
 2154SOL    HW2 8615   2.209   4.096   3.546  0.0123 -0.1226  0.2043
 2154SOL     MW 8616   2.196   4.014   3.520 -0.0591  0.0517 -0.3195
 2155SOL     OW 8617   2.671   3.308   2.477 -0.7033 -0.0326  0.3554
 2155SOL    HW1 8618   2.605   3.293   2.409  0.0276 -0.8526 -0.1810
 2155SOL    HW2 8619   2.631   3.375   2.534 -1.3007  0.7048 -0.8839
 2155SOL     MW 8620   2.656   3.315   2.476 -0.6853 -0.0437  0.1165
 2156SOL     OW 8621   0.241   1.426   1.560 -0.0579  0.3679  0.1648
 2156SOL    HW1 8622   0.304   1.368   1.517  1.5270  1.1816  1.2935
 2156SOL    HW2 8623   0.172   1.368   1.589  0.9677 -0.8185  0.3399
 2156SOL     MW 8624   0.241   1.411   1.558  0.2934  0.3178  0.3402
 2157SOL     OW 8625   0.211   0.792   2.008 -0.1395  0.0317 -0.1338
 2157SOL    HW1 8626   0.131   0.747   1.983 -0.2381 -0.1795  0.5494
 2157SOL    HW2 8627   0.280   0.749   1.957 -0.1796 -1.1339  0.7666
 2157SOL     MW 8628   0.209   0.780   1.998 -0.1582 -0.1536  0.0793
 2158SOL     OW 8629   3.809   5.492   5.072  0.2502  0.0003  0.1666
 2158SOL    HW1 8630   3.789   5.483   4.979  0.4024  0.2623  0.1081
 2158SOL    HW2 8631   3.829   5.403   5.101 -0.5100 -0.1934  0.1172
 2158SOL     MW 8632   3.809   5.479   5.064  0.1684  0.0095  0.1521
 2159SOL     OW 8633   0.764   0.762   3.717  0.1978 -0.2537  0.2976
 2159SOL    HW1 8634   0.732   0.744   3.805 -0.6206 -0.9395 -0.1322
 2159SOL    HW2 8635   0.717   0.701   3.661  2.2810 -1.3552 -0.3621
 2159SOL     MW 8636   0.754   0.752   3.721  0.3680 -0.4942  0.1510
 2160SOL     OW 8637   4.844   5.434   4.309 -0.1536 -0.3696 -0.0184
 2160SOL    HW1 8638   4.829   5.355   4.361 -0.8412 -0.0068  0.3553
 2160SOL    HW2 8639   4.848   5.505   4.374  0.8975 -0.1451 -0.3143
 2160SOL     MW 8640   4.842   5.433   4.325 -0.1047 -0.2906 -0.0080
 2161SOL     OW 8641   1.018   2.614   2.604  0.4142  0.1682  0.3706
 2161SOL    HW1 8642   0.964   2.632   2.528  0.2151 -0.5417  0.3417
 2161SOL    HW2 8643   1.058   2.698   2.625  0.7741  0.2972 -0.7521
 2161SOL     MW 8644   1.016   2.628   2.597  0.4358  0.0900  0.2156
 2162SOL     OW 8645   0.749   5.149   3.537  0.1024 -0.0263 -0.1671
 2162SOL    HW1 8646   0.684   5.118   3.474 -0.0446  0.8071 -0.4422
 2162SOL    HW2 8647   0.831   5.107   3.511  0.2218  0.9310 -1.4379
 2162SOL     MW 8648   0.751   5.140   3.525  0.0987  0.2147 -0.3751
 2163SOL     OW 8649   3.121   2.441   1.903  0.2395 -0.3140 -0.3658
 2163SOL    HW1 8650   3.062   2.386   1.955 -0.3870  0.8663  0.2071
 2163SOL    HW2 8651   3.196   2.455   1.960  0.7127 -1.1260 -0.7760
 2163SOL     MW 8652   3.123   2.435   1.918  0.2188 -0.2645 -0.3439
 2164SOL     OW 8653   3.180   1.927   0.442  0.1349 -0.5434 -0.0997
 2164SOL    HW1 8654   3.240   1.852   0.444 -0.3467 -0.9840 -1.3037
 2164SOL    HW2 8655   3.238   2.003   0.450  0.7055 -1.0087  0.3494
 2164SOL     MW 8656   3.196   1.927   0.443  0.1469 -0.6653 -0.2013
 2165SOL     OW 8657   0.516   2.320   4.400 -0.2649 -0.4001  0.4408
 2165SOL    HW1 8658   0.422   2.334   4.411 -0.3285  0.2631 -0.6988
 2165SOL    HW2 8659   0.523   2.229   4.370 -0.5886 -0.3385  0.1616
 2165SOL     MW 8660   0.504   2.310   4.397 -0.3170 -0.3025  0.2499
 2166SOL     OW 8661   1.468   4.744   5.389  0.0274  0.6692 -0.1234
 2166SOL    HW1 8662   1.471   4.731   5.484 -0.4134 -0.5874 -0.2617
 2166SOL    HW2 8663   1.375   4.752   5.369  0.1253  1.0129 -0.4362
 2166SOL     MW 8664   1.456   4.743   5.399 -0.0188  0.5463 -0.1841
 2167SOL     OW 8665   1.471   1.425   0.072 -0.5692  0.0534  0.2442
 2167SOL    HW1 8666   1.549   1.400   0.121 -0.3243  1.1383  0.4412
 2167SOL    HW2 8667   1.398   1.389   0.123 -0.2541  0.1088  0.7390
 2167SOL     MW 8668   1.471   1.417   0.085 -0.4938  0.2069  0.3373
 2168SOL     OW 8669   3.727   2.599   0.422  0.2981 -0.4822 -0.4871
 2168SOL    HW1 8670   3.646   2.565   0.459  2.1339 -1.2580  3.2412
 2168SOL    HW2 8671   3.747   2.677   0.475  1.9127 -0.1977 -1.4337
 2168SOL     MW 8672   3.719   2.605   0.434  0.7625 -0.5483 -0.1127
 2169SOL     OW 8673   4.829   3.806   2.909  0.0389  0.0569 -0.1906
 2169SOL    HW1 8674   4.839   3.801   2.814  0.3882 -0.5821 -0.1276
 2169SOL    HW2 8675   4.790   3.892   2.925  0.7061  0.4927 -0.8538
 2169SOL     MW 8676   4.825   3.817   2.898  0.1757  0.0296 -0.2714
 2170SOL     OW 8677   1.360   4.364   4.468  0.0520  0.4774  0.2599
 2170SOL    HW1 8678   1.366   4.409   4.552  0.2367  2.1709 -0.6180
 2170SOL    HW2 8679   1.269   4.373   4.441  0.1324  0.5013 -0.0167
 2170SOL     MW 8680   1.349   4.371   4.475  0.0876  0.7085  0.1045
 2171SOL     OW 8681   2.068   5.236   5.139  0.1262 -0.1569  0.1729
 2171SOL    HW1 8682   2.001   5.295   5.174 -0.7031 -0.0918 -1.4130
 2171SOL    HW2 8683   2.018   5.166   5.098  1.0567 -0.5030 -0.3882
 2171SOL     MW 8684   2.052   5.235   5.138  0.1399 -0.1947 -0.1160
 2172SOL     OW 8685   2.627   0.890   3.584 -0.5859  0.2259 -0.3075
 2172SOL    HW1 8686   2.627   0.909   3.678 -1.3217 -0.2291 -0.2104
 2172SOL    HW2 8687   2.556   0.827   3.572 -0.0553 -0.2451 -1.0662
 2172SOL     MW 8688   2.618   0.884   3.595 -0.6135  0.1013 -0.3966
 2173SOL     OW 8689   5.140   5.111   2.203 -0.3530  0.0854  0.0370
 2173SOL    HW1 8690   5.178   5.113   2.115 -0.5655  1.1386 -0.0495
 2173SOL    HW2 8691   5.047   5.129   2.189 -0.0388  2.6288  0.6092
 2173SOL     MW 8692   5.133   5.114   2.189 -0.3393  0.5694  0.1024
 2174SOL     OW 8693   1.329   1.868   1.179 -0.4000 -0.2062 -0.0024
 2174SOL    HW1 8694   1.390   1.836   1.245 -0.1436  0.8525  0.2822
 2174SOL    HW2 8695   1.244   1.871   1.223 -0.1643  0.8411  0.3976
 2174SOL     MW 8696   1.326   1.864   1.194 -0.3338  0.0772  0.0897
 2175SOL     OW 8697   5.483   3.036   4.115  0.0836 -0.6135  0.0885
 2175SOL    HW1 8698   5.387   3.028   4.118  0.1151 -0.9194  0.3323
 2175SOL    HW2 8699   5.499   3.124   4.081 -0.2783 -0.1812  1.0185
 2175SOL     MW 8700   5.472   3.047   4.111  0.0391 -0.5965  0.2465
 2176SOL     OW 8701   4.283   0.047   1.882 -0.5192  0.3742  0.2597
 2176SOL    HW1 8702   4.371   0.062   1.918 -0.4903 -0.3478  0.5137
 2176SOL    HW2 8703   4.249   0.135   1.865  0.3237  0.6599 -0.0191
 2176SOL     MW 8704   4.290   0.061   1.885 -0.4019  0.3155  0.2563
 2177SOL     OW 8705   4.912   0.483   4.450 -0.5596  0.1508 -0.0249
 2177SOL    HW1 8706   4.899   0.550   4.383 -3.2196 -0.2428  0.0005
 2177SOL    HW2 8707   4.963   0.415   4.406  2.2645  2.1152 -0.0303
 2177SOL     MW 8708   4.917   0.483   4.435 -0.5375  0.3622 -0.0222
 2178SOL     OW 8709   2.834   4.838   2.803  0.0005 -0.1434 -0.0156
 2178SOL    HW1 8710   2.861   4.746   2.802  0.1174 -0.1068 -1.2058
 2178SOL    HW2 8711   2.813   4.856   2.895  0.3443 -1.2482  0.2893
 2178SOL     MW 8712   2.835   4.828   2.815  0.0625 -0.2871 -0.1348
 2179SOL     OW 8713   2.207   2.866   0.118 -0.2055  0.8317 -0.1390
 2179SOL    HW1 8714   2.220   2.781   0.075  1.2444  1.0391 -0.1473
 2179SOL    HW2 8715   2.212   2.847   0.211 -2.1100  0.5848 -0.0380
 2179SOL     MW 8716   2.209   2.852   0.124 -0.2667  0.8264 -0.1265
 2180SOL     OW 8717   4.463   4.553   3.496 -0.0773  0.1824  0.5777
 2180SOL    HW1 8718   4.419   4.637   3.483 -2.0750 -0.9809 -0.9297
 2180SOL    HW2 8719   4.538   4.556   3.437 -1.7514 -0.0895 -1.7031
 2180SOL     MW 8720   4.467   4.565   3.486 -0.5714 -0.0107  0.0679
 2181SOL     OW 8721   3.453   1.688   3.353  0.0989  0.7219 -0.1340
 2181SOL    HW1 8722   3.429   1.598   3.331  0.5914  0.3311  0.8238
 2181SOL    HW2 8723   3.401   1.708   3.430 -1.0936  1.8053 -1.1909
 2181SOL     MW 8724   3.443   1.678   3.361  0.0047  0.8151 -0.1473
 2182SOL     OW 8725   0.172   5.448   2.251  0.1049  0.3917  0.5571
 2182SOL    HW1 8726   0.081   5.431   2.277 -0.2702  1.6831  0.1573
 2182SOL    HW2 8727   0.209   5.497   2.324  0.4881 -0.1161  0.7110
 2182SOL     MW 8728   0.165   5.452   2.264  0.1060  0.4971  0.5240
 2183SOL     OW 8729   2.956   1.242   1.718  0.1302  0.2923  0.1753
 2183SOL    HW1 8730   2.861   1.231   1.709  0.2704 -0.5879 -0.2886
 2183SOL    HW2 8731   2.970   1.335   1.701 -0.5697  0.2844 -0.5509
 2183SOL     MW 8732   2.945   1.253   1.714  0.0548  0.1728  0.0151
 2184SOL     OW 8733   0.591   0.986   3.726  0.3552  0.2879  0.0007
 2184SOL    HW1 8734   0.528   0.968   3.656  1.2271  1.6388 -1.1769
 2184SOL    HW2 8735   0.658   0.919   3.716  0.0400 -0.0522  0.1145
 2184SOL     MW 8736   0.591   0.974   3.715  0.4301  0.4240 -0.1425
 2185SOL     OW 8737   5.388   0.575   4.469  0.5807  0.0607  0.2330
 2185SOL    HW1 8738   5.398   0.597   4.561 -1.5893  0.2496  0.4781
 2185SOL    HW2 8739   5.370   0.480   4.469  1.6339 -0.1472 -0.0980
 2185SOL     MW 8740   5.387   0.565   4.481  0.4304  0.0581  0.2214
 2186SOL     OW 8741   3.574   1.030   4.024  0.1564  0.1014 -0.3198
 2186SOL    HW1 8742   3.501   1.019   3.962 -0.2762 -0.6984  0.3031
 2186SOL    HW2 8743   3.576   1.124   4.042 -0.3545  0.2098 -0.7852
 2186SOL     MW 8744   3.564   1.041   4.018  0.0295  0.0083 -0.2986
 2187SOL     OW 8745   4.682   4.186   5.079 -0.2102  0.1778  0.0705
 2187SOL    HW1 8746   4.644   4.248   5.017 -1.2711 -0.0705  0.4509
 2187SOL    HW2 8747   4.636   4.103   5.061  1.1394 -0.4978 -0.3973
 2187SOL     MW 8748   4.670   4.183   5.068 -0.1714  0.0535  0.0587
 2188SOL     OW 8749   1.423   2.421   0.538  0.3866 -0.4233  0.0245
 2188SOL    HW1 8750   1.493   2.486   0.539  1.3434 -1.4226  0.0246
 2188SOL    HW2 8751   1.468   2.338   0.521 -1.0597 -0.7692 -2.6680
 2188SOL     MW 8752   1.438   2.419   0.536  0.3207 -0.6043 -0.3378
 2189SOL     OW 8753   2.759   2.474   2.537  0.2012  0.4684 -0.0310
 2189SOL    HW1 8754   2.680   2.471   2.591  0.5382  0.0975  0.4512
 2189SOL    HW2 8755   2.790   2.383   2.535  0.5023  0.5744 -0.3873
 2189SOL     MW 8756   2.753   2.461   2.544  0.2871  0.4327 -0.0140
 2190SOL     OW 8757   0.538   5.439   1.119 -0.0926 -0.5742  0.2975
 2190SOL    HW1 8758   0.443   5.442   1.119 -0.0886 -0.3690  0.5147
 2190SOL    HW2 8759   0.560   5.359   1.165 -0.1560 -0.1878  1.0112
 2190SOL     MW 8760   0.528   5.429   1.125 -0.1006 -0.4946  0.4228
 2191SOL     OW 8761   1.741   1.775   0.156 -0.0970 -0.1880 -0.6280
 2191SOL    HW1 8762   1.800   1.766   0.081  0.2035 -0.3968 -0.3707
 2191SOL    HW2 8763   1.780   1.720   0.224  0.5646  1.2974  0.2514
 2191SOL     MW 8764   1.754   1.766   0.155  0.0325 -0.0162 -0.4750
 2192SOL     OW 8765   1.348   2.222   1.441 -0.3857  0.1264 -0.4302
 2192SOL    HW1 8766   1.280   2.166   1.479  0.3934  1.2832  3.0186
 2192SOL    HW2 8767   1.300   2.292   1.397 -1.6305  1.5881  2.9632
 2192SOL     MW 8768   1.332   2.224   1.440 -0.4483  0.4788  0.4906
 2193SOL     OW 8769   1.218   4.525   1.972 -0.4875 -0.0752  0.7125
 2193SOL    HW1 8770   1.278   4.465   1.928 -1.2093 -0.8808  0.8023
 2193SOL    HW2 8771   1.267   4.557   2.047  0.2649  0.2487  0.0976
 2193SOL     MW 8772   1.233   4.521   1.976 -0.4833 -0.1400  0.6419
 2194SOL     OW 8773   4.344   1.813   4.158  0.6163 -0.3368  0.3269
 2194SOL    HW1 8774   4.431   1.805   4.121  0.7561  2.5093 -0.1616
 2194SOL    HW2 8775   4.285   1.792   4.086  0.9158  0.5118 -0.1810
 2194SOL     MW 8776   4.347   1.809   4.144  0.6755  0.1604  0.1928
 2195SOL     OW 8777   0.561   1.387   5.014 -0.3536  0.2929 -0.0236
 2195SOL    HW1 8778   0.623   1.365   4.944 -1.4790  0.9447 -1.2779
 2195SOL    HW2 8779   0.497   1.316   5.012 -0.6135  0.5259  0.0794
 2195SOL     MW 8780   0.561   1.374   5.004 -0.5400  0.4120 -0.1786
 2196SOL     OW 8781   1.139   2.653   0.906  0.1232  0.0695  0.6574
 2196SOL    HW1 8782   1.229   2.623   0.913  0.9743  2.5234  1.3973
 2196SOL    HW2 8783   1.124   2.661   0.811 -1.1879 -5.0775  0.1519
 2196SOL     MW 8784   1.149   2.650   0.894  0.0613 -0.2929  0.6889
 2197SOL     OW 8785   4.717   5.146   2.382 -0.0486  0.1987 -0.6660
 2197SOL    HW1 8786   4.791   5.135   2.322  0.4918  0.3269 -0.0314
 2197SOL    HW2 8787   4.725   5.073   2.443 -2.3445 -1.7709 -2.4900
 2197SOL     MW 8788   4.728   5.134   2.382 -0.2848 -0.0491 -0.8261
 2198SOL     OW 8789   5.265   2.709   1.992 -0.0653 -0.8908  0.1856
 2198SOL    HW1 8790   5.253   2.799   1.960  0.0533 -1.1748 -0.6604
 2198SOL    HW2 8791   5.344   2.714   2.045  1.5332 -1.0249 -2.0494
 2198SOL     MW 8792   5.274   2.722   1.995  0.1658 -0.9471 -0.2290
 2199SOL     OW 8793   2.498   1.771   4.839 -0.6399  0.7324  0.0915
 2199SOL    HW1 8794   2.574   1.779   4.781 -0.2812 -0.8360  0.2866
 2199SOL    HW2 8795   2.431   1.826   4.798  0.1980  1.1383 -0.7868
 2199SOL     MW 8796   2.499   1.780   4.825 -0.4788  0.5760 -0.0004
 2200SOL     OW 8797   1.742   4.475   2.583 -0.5115 -0.2351  0.6159
 2200SOL    HW1 8798   1.779   4.511   2.502  0.2519  0.9969  1.4788
 2200SOL    HW2 8799   1.779   4.387   2.589  0.7990  0.2834  0.4782
 2200SOL     MW 8800   1.752   4.468   2.573 -0.2324  0.0005  0.7135
 2201SOL     OW 8801   2.308   4.544   4.388  0.0335 -0.3688 -0.1616
 2201SOL    HW1 8802   2.219   4.555   4.355  0.6218  0.7596 -1.4743
 2201SOL    HW2 8803   2.304   4.467   4.444 -1.7334 -0.4073 -0.2914
 2201SOL     MW 8804   2.295   4.535   4.391 -0.1251 -0.2221 -0.3557
 2202SOL     OW 8805   4.691   4.524   0.056  0.1613 -0.1092 -0.1287
 2202SOL    HW1 8806   4.657   4.442   0.092  1.9599 -0.1487  1.6368
 2202SOL    HW2 8807   4.712   4.503  -0.035 -0.3763 -1.3199  0.0034
 2202SOL     MW 8808   4.689   4.510   0.049  0.3310 -0.2774  0.1267
 2203SOL     OW 8809   4.910   3.826   3.459  0.3442 -0.8594  0.2821
 2203SOL    HW1 8810   4.820   3.832   3.428  1.1288 -0.2277 -2.1582
 2203SOL    HW2 8811   4.933   3.915   3.483  0.1253 -1.1445  1.6163
 2203SOL     MW 8812   4.901   3.839   3.458  0.4203 -0.8127  0.1333
 2204SOL     OW 8813   0.271   4.035   3.024  0.3998 -0.0628 -0.1138
 2204SOL    HW1 8814   0.250   3.986   2.945  0.6487  0.3089 -0.4118
 2204SOL    HW2 8815   0.283   3.968   3.091  0.9270 -0.4249 -0.5608
 2204SOL     MW 8816   0.269   4.019   3.023  0.5043 -0.0615 -0.2141
 2205SOL     OW 8817   4.187   3.895   2.379  0.0208 -0.5337  0.8381
 2205SOL    HW1 8818   4.140   3.812   2.385  1.6807 -1.9876 -3.0763
 2205SOL    HW2 8819   4.137   3.947   2.316  2.0230 -1.1031 -1.3999
 2205SOL     MW 8820   4.174   3.890   2.371  0.5136 -0.8060  0.0101
 2206SOL     OW 8821   1.169   4.687   5.023 -0.5147  0.6117 -0.5080
 2206SOL    HW1 8822   1.142   4.774   4.994 -1.1390  0.2958 -0.8982
 2206SOL    HW2 8823   1.098   4.657   5.079 -0.0607  0.5563  0.0442
 2206SOL     MW 8824   1.156   4.695   5.027 -0.5376  0.5617 -0.4862
 2207SOL     OW 8825   3.740   0.423   2.728 -0.1698 -0.1158  0.0290
 2207SOL    HW1 8826   3.775   0.428   2.817  0.0266  0.8286 -0.0872
 2207SOL    HW2 8827   3.784   0.348   2.689  0.8959  0.3803  0.2434
 2207SOL     MW 8828   3.751   0.414   2.735  0.0001  0.0780  0.0423
 2208SOL     OW 8829   2.623   5.110   2.771 -0.0599  0.1116  0.6552
 2208SOL    HW1 8830   2.613   5.015   2.760 -0.9776  0.1148  1.3731
 2208SOL    HW2 8831   2.648   5.141   2.684 -1.9129 -0.5231 -0.1670
 2208SOL     MW 8832   2.625   5.101   2.758 -0.4328  0.0266  0.6412
 2209SOL     OW 8833   1.412   1.278   3.015  0.3129  0.5695 -0.4124
 2209SOL    HW1 8834   1.388   1.185   3.009  0.5950  0.4777 -0.2101
 2209SOL    HW2 8835   1.364   1.321   2.945 -2.1675  0.7650  1.2876
 2209SOL     MW 8836   1.403   1.271   3.005  0.0170  0.5835 -0.1564
 2210SOL     OW 8837   5.256   5.076   1.582  0.5173 -0.6289  0.8378
 2210SOL    HW1 8838   5.336   5.123   1.559  0.2589 -0.8381 -0.5581
 2210SOL    HW2 8839   5.270   4.986   1.552 -0.9181 -0.2563 -1.2072
 2210SOL     MW 8840   5.268   5.070   1.575  0.2894 -0.6069  0.3747
 2211SOL     OW 8841   0.311   2.944   2.907  0.5523  0.1317 -0.1044
 2211SOL    HW1 8842   0.312   3.009   2.977  3.4292  1.6452 -1.3901
 2211SOL    HW2 8843   0.219   2.939   2.881  0.0660  3.0387  0.6744
 2211SOL     MW 8844   0.298   2.952   2.913  0.8740  0.7266 -0.1726
 2212SOL     OW 8845   3.788   5.004   2.875  0.2364  0.8490 -0.1520
 2212SOL    HW1 8846   3.878   4.978   2.894  0.6061  3.0153  1.4095
 2212SOL    HW2 8847   3.740   4.921   2.869  2.5222 -0.4254 -2.4346
 2212SOL     MW 8848   3.793   4.989   2.877  0.5938  0.9690 -0.2490
 2213SOL     OW 8849   3.289   2.213   3.746  0.2868  0.0138  0.2396
 2213SOL    HW1 8850   3.325   2.125   3.745 -1.4058 -0.7271 -1.0319
 2213SOL    HW2 8851   3.200   2.202   3.778  0.6407  1.5802  1.9383
 2213SOL     MW 8852   3.282   2.200   3.750  0.1067  0.1249  0.2971
 2214SOL     OW 8853   0.340   0.348   0.993  0.6084 -0.2318  0.1920
 2214SOL    HW1 8854   0.380   0.288   0.929  0.0171  0.9185 -1.3210
 2214SOL    HW2 8855   0.306   0.420   0.940  1.1876  1.3992  1.9360
 2214SOL     MW 8856   0.341   0.349   0.977  0.6068  0.1425  0.2231
 2215SOL     OW 8857   4.826   4.637   2.201  0.1721  0.0059 -0.9648
 2215SOL    HW1 8858   4.763   4.566   2.189  1.0013 -0.8196 -0.5088
 2215SOL    HW2 8859   4.810   4.696   2.127 -0.4060 -0.7433 -1.4499
 2215SOL     MW 8860   4.815   4.636   2.189  0.2059 -0.2060 -0.9687
 2216SOL     OW 8861   2.918   5.316   0.459  0.1606 -0.1696  0.1000
 2216SOL    HW1 8862   2.856   5.259   0.505  0.4979 -0.7524 -0.1630
 2216SOL    HW2 8863   2.867   5.355   0.388 -0.4980  1.0987  1.1961
 2216SOL     MW 8864   2.903   5.314   0.456  0.1174 -0.0773  0.2121
 2217SOL     OW 8865   1.873   0.147   3.057  0.2780  0.1229 -0.0662
 2217SOL    HW1 8866   1.921   0.229   3.046  1.9478 -0.8713 -0.5967
 2217SOL    HW2 8867   1.937   0.087   3.095 -0.7733 -1.0544 -0.0976
 2217SOL     MW 8868   1.888   0.150   3.060  0.3612 -0.1693 -0.1418
 2218SOL     OW 8869   4.916   3.250   2.528  0.4235 -0.5826  0.2153
 2218SOL    HW1 8870   4.936   3.157   2.538 -1.2951 -0.9276  0.8588
 2218SOL    HW2 8871   4.840   3.264   2.585 -0.1487  0.9133 -0.8608
 2218SOL     MW 8872   4.908   3.239   2.537  0.1152 -0.4277  0.1571
 2219SOL     OW 8873   0.934   5.521   4.268 -0.3818  0.0049  0.1685
 2219SOL    HW1 8874   0.960   5.476   4.187  0.8392 -0.9237  1.0478
 2219SOL    HW2 8875   0.847   5.487   4.287  0.1802 -1.4073  0.3564
 2219SOL     MW 8876   0.926   5.510   4.260 -0.1418 -0.3101  0.3121
 2220SOL     OW 8877   1.112   2.508   3.028  0.5145  0.3756 -0.1856
 2220SOL    HW1 8878   1.161   2.427   3.031 -0.7761 -0.4225  0.4753
 2220SOL    HW2 8879   1.062   2.509   3.110 -1.4462  0.5498 -1.3271
 2220SOL     MW 8880   1.112   2.497   3.039  0.0769  0.2917 -0.2502
 2221SOL     OW 8881   4.241   5.040   5.154  0.1178 -0.0951  0.4598
 2221SOL    HW1 8882   4.270   4.956   5.117  0.4233  0.0385  0.3909
 2221SOL    HW2 8883   4.318   5.072   5.202 -0.7790 -1.1209  2.7747
 2221SOL     MW 8884   4.255   5.033   5.156  0.0382 -0.2152  0.7621
 2222SOL     OW 8885   0.563   1.476   3.910  0.2104 -0.1797  0.0859
 2222SOL    HW1 8886   0.519   1.421   3.845  0.8122 -0.2769 -0.2501
 2222SOL    HW2 8887   0.565   1.422   3.989  1.8260 -1.1416 -0.5579
 2222SOL     MW 8888   0.558   1.461   3.912  0.5088 -0.3222 -0.0460
 2223SOL     OW 8889   0.660   3.122   4.041  0.3630  0.3860 -0.0108
 2223SOL    HW1 8890   0.565   3.123   4.029  0.2580 -1.8807  0.2596
 2223SOL    HW2 8891   0.674   3.167   4.124 -0.5308  0.2197  0.2411
 2223SOL     MW 8892   0.649   3.128   4.050  0.2286  0.0586  0.0595
 2224SOL     OW 8893   1.934   1.346   3.913 -0.4746 -0.2243  0.5211
 2224SOL    HW1 8894   1.971   1.307   3.833  0.7300 -0.2458  1.0697
 2224SOL    HW2 8895   2.010   1.366   3.967 -1.3179 -1.3584  2.2075
 2224SOL     MW 8896   1.949   1.343   3.909 -0.4259 -0.3798  0.8219
 2225SOL     OW 8897   0.801   0.695   5.272 -0.2692  0.3886 -0.5642
 2225SOL    HW1 8898   0.863   0.760   5.305 -0.2801  0.0405  0.1455
 2225SOL    HW2 8899   0.715   0.728   5.297 -0.2099 -0.5579  1.0217
 2225SOL     MW 8900   0.798   0.708   5.279 -0.2627  0.2144 -0.2553
 2226SOL     OW 8901   3.343   3.229   1.612 -0.8560  0.0977 -0.2247
 2226SOL    HW1 8902   3.318   3.280   1.535 -0.3586 -1.0277 -1.1702
 2226SOL    HW2 8903   3.301   3.273   1.685 -1.7702  0.9087 -1.2055
 2226SOL     MW 8904   3.334   3.242   1.611 -0.9121  0.0554 -0.4839
 2227SOL     OW 8905   4.564   0.255   1.292  0.2293  0.2490 -0.0654
 2227SOL    HW1 8906   4.533   0.204   1.218  0.5580  1.4616 -1.0648
 2227SOL    HW2 8907   4.484   0.282   1.337  0.0188 -0.2915 -0.1117
 2227SOL     MW 8908   4.549   0.252   1.288  0.2452  0.3394 -0.2062
 2228SOL     OW 8909   4.893   5.466   2.708  0.2343  0.1212 -0.3664
 2228SOL    HW1 8910   4.836   5.392   2.688  0.5858 -0.3886  0.4510
 2228SOL    HW2 8911   4.869   5.490   2.798  0.1740  0.9581 -0.5972
 2228SOL     MW 8912   4.882   5.459   2.718  0.2735  0.1652 -0.2875
 2229SOL     OW 8913   0.375   1.818   4.985  0.4428 -0.7419  0.1235
 2229SOL    HW1 8914   0.358   1.869   5.064  1.6129 -1.7033  1.0358
 2229SOL    HW2 8915   0.422   1.741   5.016  2.2667 -0.4311 -1.6657
 2229SOL     MW 8916   0.379   1.815   5.000  0.8457 -0.8295  0.0055
 2230SOL     OW 8917   0.574   2.329   1.389 -0.3603  0.5185 -0.0162
 2230SOL    HW1 8918   0.631   2.341   1.313 -0.6076 -2.6595 -0.8198
 2230SOL    HW2 8919   0.492   2.372   1.364 -0.3029 -0.1300 -1.4015
 2230SOL     MW 8920   0.571   2.337   1.376 -0.3858  0.0035 -0.3108
 2231SOL     OW 8921   0.399   0.412   1.248 -0.9281 -0.3713  0.0126
 2231SOL    HW1 8922   0.441   0.330   1.271 -0.5789 -0.4139 -0.7365
 2231SOL    HW2 8923   0.374   0.401   1.156  0.7266  1.0054 -0.6451
 2231SOL     MW 8924   0.401   0.400   1.238 -0.6584 -0.1918 -0.1767
 2232SOL     OW 8925   0.308   3.240   4.782  0.1153  0.3212 -0.3260
 2232SOL    HW1 8926   0.226   3.289   4.778  1.2259  2.3109 -0.0369
 2232SOL    HW2 8927   0.333   3.245   4.875  0.3726 -0.6118 -0.3419
 2232SOL     MW 8928   0.300   3.248   4.794  0.2994  0.4634 -0.2892
 2233SOL     OW 8929   3.141   4.435   0.962 -0.1318 -0.1822  0.2405
 2233SOL    HW1 8930   3.099   4.351   0.980  0.8035 -0.9164 -0.9280
 2233SOL    HW2 8931   3.073   4.487   0.920 -1.0204  0.0285  1.8588
 2233SOL     MW 8932   3.126   4.431   0.959 -0.1255 -0.2526  0.3010
 2234SOL     OW 8933   0.486   0.052   3.051  0.1333  0.1746  0.0117
 2234SOL    HW1 8934   0.423  -0.002   3.002  0.4412  0.3544 -0.5967
 2234SOL    HW2 8935   0.439   0.078   3.130 -0.5090  0.1849 -0.3619
 2234SOL     MW 8936   0.471   0.048   3.055  0.0883  0.2002 -0.1205
 2235SOL     OW 8937   0.588   0.614   3.590 -0.4463 -0.2939  0.4244
 2235SOL    HW1 8938   0.539   0.590   3.668  0.6971 -0.0182  1.2429
 2235SOL    HW2 8939   0.522   0.652   3.531 -0.9577  1.6949  2.1689
 2235SOL     MW 8940   0.573   0.616   3.592 -0.3612  0.0108  0.7693
 2236SOL     OW 8941   4.699   2.262   5.347 -0.0481 -0.1455 -0.1112
 2236SOL    HW1 8942   4.784   2.220   5.365 -0.1875  0.4984  2.4930
 2236SOL    HW2 8943   4.702   2.344   5.397 -1.7552  0.4767 -0.9607
 2236SOL     MW 8944   4.711   2.267   5.356 -0.2966  0.0249  0.1250
 2237SOL     OW 8945   2.181   2.410   0.240 -0.3234 -0.2489  0.2148
 2237SOL    HW1 8946   2.245   2.412   0.311  0.1717  0.7801 -0.2430
 2237SOL    HW2 8947   2.166   2.317   0.224  0.9987 -0.5130  0.3828
 2237SOL     MW 8948   2.187   2.398   0.248 -0.0788 -0.1460  0.1758
 2238SOL     OW 8949   3.096   2.540   5.456 -0.0461  0.0430 -0.5496
 2238SOL    HW1 8950   3.181   2.515   5.419  0.6319 -1.4662  1.7251
 2238SOL    HW2 8951   3.035   2.475   5.421  0.5421 -1.2265  0.6301
 2238SOL     MW 8952   3.100   2.528   5.447  0.1243 -0.3310 -0.0847
 2239SOL     OW 8953   2.324   2.279   1.177 -0.9345  0.4488  0.0623
 2239SOL    HW1 8954   2.280   2.338   1.116  2.7770  0.0141 -3.4608
 2239SOL    HW2 8955   2.381   2.335   1.229  1.2698  0.3487 -2.0673
 2239SOL     MW 8956   2.326   2.294   1.176 -0.1384  0.3768 -0.6985
 2240SOL     OW 8957   2.709   2.446   2.258  0.8135 -0.2574  0.1101
 2240SOL    HW1 8958   2.744   2.467   2.345  0.8631  0.3567 -0.0570
 2240SOL    HW2 8959   2.708   2.529   2.211 -2.2688  0.1090  0.5830
 2240SOL     MW 8960   2.714   2.460   2.264  0.4054 -0.1255  0.1512
 2241SOL     OW 8961   1.857   3.794   4.646  0.4311 -0.1998  0.0575
 2241SOL    HW1 8962   1.942   3.820   4.683 -0.3791  0.4257  1.5558
 2241SOL    HW2 8963   1.852   3.841   4.563  1.7222 -0.5819 -0.2568
 2241SOL     MW 8964   1.868   3.804   4.640  0.4958 -0.1671  0.2168
 2242SOL     OW 8965   1.786   2.393   2.267 -0.0510 -0.0582  0.3528
 2242SOL    HW1 8966   1.764   2.472   2.318  0.9152  1.1655 -1.0562
 2242SOL    HW2 8967   1.809   2.328   2.334 -1.7306  0.5304  1.5953
 2242SOL     MW 8968   1.786   2.395   2.283 -0.1470  0.1857  0.3304
 2243SOL     OW 8969   3.032   3.035   0.498 -0.3659  0.8620  1.1098
 2243SOL    HW1 8970   3.051   3.115   0.547 -1.4820  1.7567  0.1507
 2243SOL    HW2 8971   2.939   3.019   0.514 -0.5368  0.6687  0.0229
 2243SOL     MW 8972   3.022   3.044   0.507 -0.5391  0.9564  0.8344
 2244SOL     OW 8973   2.171   0.336   4.001  0.0232 -0.2685  0.0881
 2244SOL    HW1 8974   2.088   0.310   4.041 -1.1901  0.8410 -1.5788
 2244SOL    HW2 8975   2.154   0.424   3.967  1.2836 -0.7526 -1.9274
 2244SOL     MW 8976   2.157   0.345   4.002  0.0295 -0.1843 -0.4075
 2245SOL     OW 8977   0.235   2.013   1.809  0.1234  0.7501  0.3407
 2245SOL    HW1 8978   0.291   2.033   1.733 -1.3338  1.3089 -0.6280
 2245SOL    HW2 8979   0.189   1.933   1.783  1.0456 -0.1990  1.4839
 2245SOL     MW 8980   0.237   2.005   1.795  0.0514  0.6976  0.3642
 2246SOL     OW 8981   0.290   2.403   3.108  0.5105 -0.1080  0.0988
 2246SOL    HW1 8982   0.255   2.436   3.190 -0.1087 -0.4363 -0.0221
 2246SOL    HW2 8983   0.245   2.319   3.095  0.6393 -0.0841 -0.5436
 2246SOL     MW 8984   0.279   2.396   3.117  0.4445 -0.1490 -0.0039
 2247SOL     OW 8985   4.324   3.667   4.768 -0.0236 -0.1304 -0.2247
 2247SOL    HW1 8986   4.391   3.735   4.773 -0.4446  0.2001  1.8397
 2247SOL    HW2 8987   4.374   3.585   4.761  0.5118  0.2686 -1.3292
 2247SOL     MW 8988   4.340   3.665   4.768 -0.0082 -0.0322 -0.0955
 2248SOL     OW 8989   2.956   4.109   4.724  0.3231  0.1740  0.1935
 2248SOL    HW1 8990   2.879   4.147   4.766  0.4078 -1.0544  1.5173
 2248SOL    HW2 8991   2.922   4.062   4.649 -0.1738 -0.0807  0.5797
 2248SOL     MW 8992   2.941   4.108   4.719  0.2676 -0.0256  0.4236
 2249SOL     OW 8993   2.465   0.243   2.236 -0.1616 -0.2475 -0.5589
 2249SOL    HW1 8994   2.558   0.237   2.260 -0.1294  0.8339 -0.3646
 2249SOL    HW2 8995   2.434   0.321   2.281 -1.2589 -0.7839 -0.3539
 2249SOL     MW 8996   2.473   0.253   2.246 -0.3049 -0.1741 -0.5052
 2250SOL     OW 8997   4.320   3.103   3.077  0.2075 -0.2059 -0.3182
 2250SOL    HW1 8998   4.248   3.141   3.026  0.8871  0.0755 -1.0824
 2250SOL    HW2 8999   4.392   3.164   3.067  0.1201  0.3354  1.7430
 2250SOL     MW 9000   4.320   3.116   3.069  0.2872 -0.0952 -0.1437
 2251SOL     OW 9001   1.848   5.188   1.465  0.1750  0.1415  0.0900
 2251SOL    HW1 9002   1.875   5.278   1.450  1.8742 -0.1629  0.9888
 2251SOL    HW2 9003   1.852   5.146   1.379  0.3865  0.6730 -0.1590
 2251SOL     MW 9004   1.852   5.194   1.451  0.4322  0.1721  0.1774
 2252SOL     OW 9005   3.295   5.018   4.002 -0.3580 -0.2569 -0.5405
 2252SOL    HW1 9006   3.362   5.087   4.002 -0.0268 -0.5712 -0.4635
 2252SOL    HW2 9007   3.276   5.002   3.909 -0.5292  0.0275 -0.5537
 2252SOL     MW 9008   3.302   5.025   3.989 -0.3365 -0.2610 -0.5319
 2253SOL     OW 9009   3.655   1.364   5.303  0.1496  0.5550 -0.3311
 2253SOL    HW1 9010   3.677   1.412   5.224  2.1876  0.1411 -0.0790
 2253SOL    HW2 9011   3.648   1.273   5.275 -1.8184  0.7150 -0.4742
 2253SOL     MW 9012   3.657   1.358   5.289  0.1590  0.5208 -0.3164
 2254SOL     OW 9013   1.135   4.431   2.853  0.3349 -0.4045  0.3199
 2254SOL    HW1 9014   1.173   4.485   2.783  0.6580 -0.6754  0.2849
 2254SOL    HW2 9015   1.173   4.465   2.934 -0.7538  0.5302  0.4683
 2254SOL     MW 9016   1.145   4.443   2.854  0.2319 -0.3152  0.3352
 2255SOL     OW 9017   2.340   4.162   1.383 -0.4975  0.5071 -0.2173
 2255SOL    HW1 9018   2.286   4.155   1.304 -0.8088  1.2349 -0.0820
 2255SOL    HW2 9019   2.421   4.115   1.362 -0.2330  1.4003 -1.2791
 2255SOL     MW 9020   2.344   4.155   1.370 -0.5038  0.7253 -0.3420
 2256SOL     OW 9021   2.300   4.112   4.322 -0.0576 -0.0524  1.0106
 2256SOL    HW1 9022   2.242   4.144   4.253 -1.7109 -1.2913  1.7601
 2256SOL    HW2 9023   2.245   4.108   4.400  1.2293 -0.6117  1.9266
 2256SOL     MW 9024   2.285   4.116   4.323 -0.1069 -0.2944  1.2347
 2257SOL     OW 9025   2.943   2.054   0.044  0.2365  0.1019 -0.3017
 2257SOL    HW1 9026   2.971   1.986   0.106  0.5888 -0.1784 -0.7604
 2257SOL    HW2 9027   3.025   2.089   0.008  0.0368 -1.0924 -2.0616
 2257SOL     MW 9028   2.958   2.050   0.047  0.2570 -0.0966 -0.6003
 2258SOL     OW 9029   2.295   1.418   3.187  0.3214 -0.6078 -0.2076
 2258SOL    HW1 9030   2.333   1.408   3.274  0.4745  2.0857  0.1039
 2258SOL    HW2 9031   2.303   1.511   3.167 -1.7834 -0.7467 -2.1481
 2258SOL     MW 9032   2.301   1.429   3.196  0.0588 -0.2640 -0.4268
 2259SOL     OW 9033   0.255   0.499   1.628  0.1380 -0.4707 -0.3224
 2259SOL    HW1 9034   0.170   0.520   1.666  0.1668 -0.1828 -0.4122
 2259SOL    HW2 9035   0.256   0.546   1.544  0.9329  0.6356  0.2880
 2259SOL     MW 9036   0.244   0.508   1.622  0.2489 -0.2831 -0.2523
 2260SOL     OW 9037   2.294   3.291   0.795  0.0113 -0.1795  0.0613
 2260SOL    HW1 9038   2.383   3.314   0.819  0.1655 -2.2086  1.7800
 2260SOL    HW2 9039   2.301   3.206   0.752 -0.9829  0.2909 -1.0911
 2260SOL     MW 9040   2.307   3.283   0.793 -0.1018 -0.3893  0.1375
 2261SOL     OW 9041   1.386   2.898   1.848  0.0856  0.9842 -0.0381
 2261SOL    HW1 9042   1.448   2.965   1.820 -0.5356  0.9620 -1.5826
 2261SOL    HW2 9043   1.382   2.837   1.775 -1.2871  0.6634  0.2725
 2261SOL     MW 9044   1.394   2.899   1.834 -0.1827  0.9381 -0.2042
 2262SOL     OW 9045   1.326   0.373   2.048 -0.5036 -0.2657 -0.2502
 2262SOL    HW1 9046   1.387   0.363   1.975  0.7794 -0.2880  0.8042
 2262SOL    HW2 9047   1.312   0.283   2.080 -2.2460 -0.4423 -1.3661
 2262SOL     MW 9048   1.332   0.359   2.042 -0.5655 -0.2925 -0.2585
 2263SOL     OW 9049   3.343   4.230   1.357 -0.3596  0.2673  0.1481
 2263SOL    HW1 9050   3.310   4.315   1.327 -0.4529  0.5902  1.1172
 2263SOL    HW2 9051   3.336   4.173   1.281  1.1507  1.5113 -1.0012
 2263SOL     MW 9052   3.338   4.234   1.343 -0.1689  0.4782  0.1238
 2264SOL     OW 9053   4.498   1.443   0.760  0.1399  0.0728 -0.0841
 2264SOL    HW1 9054   4.587   1.451   0.796 -0.8002  0.2922  2.3701
 2264SOL    HW2 9055   4.471   1.533   0.742  0.2025  0.0499 -0.2953
 2264SOL     MW 9056   4.506   1.456   0.762  0.0218  0.0993  0.2178
 2265SOL     OW 9057   5.030   1.629   2.721 -0.1104  0.6026  0.1499
 2265SOL    HW1 9058   5.099   1.615   2.656 -0.3512 -0.1850  0.0485
 2265SOL    HW2 9059   5.055   1.572   2.794 -0.9739 -0.1625 -0.1432
 2265SOL     MW 9060   5.043   1.619   2.722 -0.2590  0.3936  0.0968
 2266SOL     OW 9061   3.455   0.088   4.380  0.0762 -0.3153 -0.2462
 2266SOL    HW1 9062   3.383   0.115   4.323 -0.7961 -1.8753  0.0705
 2266SOL    HW2 9063   3.496   0.015   4.334 -1.1182 -2.1133  1.3833
 2266SOL     MW 9064   3.451   0.082   4.366 -0.2019 -0.7672  0.0157
 2267SOL     OW 9065   4.990   1.458   3.754 -0.4536 -0.1550  0.0812
 2267SOL    HW1 9066   4.997   1.474   3.660 -0.2486  0.4834  0.1967
 2267SOL    HW2 9067   4.928   1.524   3.784  0.0023  0.0870  0.5001
 2267SOL     MW 9068   4.983   1.469   3.745 -0.3647 -0.0365  0.1531
 2268SOL     OW 9069   2.815   4.838   3.097  0.4820 -0.3045  0.4340
 2268SOL    HW1 9070   2.909   4.839   3.118  0.8818  1.1269 -1.1458
 2268SOL    HW2 9071   2.775   4.895   3.162  0.9601  0.3101  0.1964
 2268SOL     MW 9072   2.822   4.846   3.108  0.6002 -0.0292  0.1894
 2269SOL     OW 9073   1.820   0.770   5.072  0.0593 -0.2294 -0.3045
 2269SOL    HW1 9074   1.728   0.794   5.086  0.4622  1.7475 -0.6757
 2269SOL    HW2 9075   1.869   0.848   5.100  1.5574 -0.8449 -1.1169
 2269SOL     MW 9076   1.814   0.784   5.077  0.3151 -0.0462 -0.4638
 2270SOL     OW 9077   0.188   0.043   5.123 -0.0206 -0.3291 -0.0710
 2270SOL    HW1 9078   0.190   0.134   5.094  0.8121 -0.9685 -2.2726
 2270SOL    HW2 9079   0.275   0.028   5.161  1.1648 -1.0304 -2.8168
 2270SOL     MW 9080   0.200   0.053   5.124  0.2510 -0.5096 -0.7368
 2271SOL     OW 9081   5.334   1.329   2.979 -0.4752 -0.1809 -0.2280
 2271SOL    HW1 9082   5.402   1.378   3.026 -0.1076  1.5395 -2.4018
 2271SOL    HW2 9083   5.382   1.262   2.930 -0.5712 -0.2848 -0.1806
 2271SOL     MW 9084   5.350   1.327   2.979 -0.4386  0.0366 -0.5142
 2272SOL     OW 9085   5.112   0.529   1.467 -0.3163  0.0166  0.3005
 2272SOL    HW1 9086   5.072   0.481   1.394 -0.2957  0.3982  0.0373
 2272SOL    HW2 9087   5.085   0.480   1.545  0.6705 -1.1063 -0.0342
 2272SOL     MW 9088   5.103   0.516   1.468 -0.1807 -0.0832  0.2200
 2273SOL     OW 9089   4.222   1.121   3.623 -0.4199 -0.5401 -0.0119
 2273SOL    HW1 9090   4.306   1.165   3.636 -0.5388 -0.5754  0.9890
 2273SOL    HW2 9091   4.245   1.030   3.602 -0.1553  0.0937 -2.7784
 2273SOL     MW 9092   4.237   1.115   3.622 -0.4003 -0.4596 -0.2495
 2274SOL     OW 9093   5.246   0.871   2.552  0.1530  0.6179 -0.2506
 2274SOL    HW1 9094   5.157   0.884   2.518  0.4603  2.1253 -0.5422
 2274SOL    HW2 9095   5.301   0.866   2.474  0.3474 -0.2386 -0.0667
 2274SOL     MW 9096   5.241   0.872   2.537  0.2205  0.7055 -0.2651
 2275SOL     OW 9097   3.590   1.755   2.704 -0.2747 -0.0299 -0.3557
 2275SOL    HW1 9098   3.563   1.786   2.618  0.0001 -1.9362 -1.1718
 2275SOL    HW2 9099   3.613   1.835   2.752  2.0741  0.9897 -2.9011
 2275SOL     MW 9100   3.590   1.770   2.699  0.0784 -0.1493 -0.8081
 2276SOL     OW 9101   0.240   4.135   0.195  0.0661 -0.2271 -0.6135
 2276SOL    HW1 9102   0.170   4.072   0.212  0.6716 -0.8403 -0.3340
 2276SOL    HW2 9103   0.211   4.182   0.117 -0.7853 -0.2750 -0.3343
 2276SOL     MW 9104   0.227   4.133   0.186  0.0330 -0.3161 -0.5383
 2277SOL     OW 9105   0.079   3.558   2.159 -0.1848 -0.5855  0.2187
 2277SOL    HW1 9106   0.083   3.643   2.116 -0.5739 -0.4551  0.4322
 2277SOL    HW2 9107   0.155   3.510   2.125 -0.1322 -0.2621 -0.1281
 2277SOL     MW 9108   0.090   3.563   2.148 -0.2301 -0.5244  0.2008
 2278SOL     OW 9109   3.442   5.144   0.728  0.2354 -0.5287 -0.2334
 2278SOL    HW1 9110   3.404   5.188   0.652  0.9221  1.4842  0.5508
 2278SOL    HW2 9111   3.389   5.171   0.802  0.6647 -1.0354  0.2779
 2278SOL     MW 9112   3.430   5.153   0.728  0.3856 -0.3260 -0.0590
 2279SOL     OW 9113   4.777   1.406   0.828  0.2209  0.1461 -0.2770
 2279SOL    HW1 9114   4.837   1.472   0.862 -0.2201  1.1910 -1.4339
 2279SOL    HW2 9115   4.827   1.365   0.757 -0.8812  2.1197 -2.3375
 2279SOL     MW 9116   4.792   1.410   0.823  0.0132  0.5523 -0.7100
 2280SOL     OW 9117   3.895   3.201   4.813  0.3711 -0.2035  0.0707
 2280SOL    HW1 9118   3.975   3.238   4.777  0.1460  0.0246 -0.1997
 2280SOL    HW2 9119   3.836   3.193   4.738  0.1664 -0.4349  0.2550
 2280SOL     MW 9120   3.897   3.205   4.798  0.3132 -0.2040  0.0591
 2281SOL     OW 9121   0.715   3.912   1.253  0.0041 -0.1143  0.0226
 2281SOL    HW1 9122   0.668   3.929   1.334 -0.0814  0.7627 -0.1998
 2281SOL    HW2 9123   0.802   3.947   1.268  0.5807 -1.6266  0.3892
 2281SOL     MW 9124   0.720   3.919   1.266  0.0702 -0.1998  0.0420
 2282SOL     OW 9125   0.854   1.495   2.972 -0.1167  0.7117  0.2091
 2282SOL    HW1 9126   0.943   1.473   2.998  0.8694  0.8667 -2.6697
 2282SOL    HW2 9127   0.818   1.413   2.938 -0.3916  1.0612 -0.3578
 2282SOL     MW 9128   0.861   1.481   2.971 -0.0210  0.7796 -0.2546
 2283SOL     OW 9129   4.699   2.408   3.724  0.2111 -0.0820 -0.1636
 2283SOL    HW1 9130   4.690   2.314   3.708  0.3032 -0.3808  1.4324
 2283SOL    HW2 9131   4.790   2.420   3.750 -0.1391  0.2231  0.9791
 2283SOL     MW 9132   4.710   2.397   3.725  0.1763 -0.0811  0.2049
 2284SOL     OW 9133   4.206   1.760   4.759  0.3646 -0.4329  0.1028
 2284SOL    HW1 9134   4.178   1.835   4.707 -0.5716  1.0360  2.5820
 2284SOL    HW2 9135   4.299   1.776   4.776  0.4702 -0.4902 -0.4072
 2284SOL     MW 9136   4.215   1.772   4.754  0.2528 -0.2429  0.3678
 2285SOL     OW 9137   0.225   2.119   0.576 -0.0653  0.7456 -0.4806
 2285SOL    HW1 9138   0.200   2.027   0.573 -1.0940  0.9652  0.7071
 2285SOL    HW2 9139   0.148   2.164   0.610  1.6276  1.5496  2.6416
 2285SOL     MW 9140   0.212   2.112   0.580  0.0241  0.8834  0.0994
 2286SOL     OW 9141   4.877   4.103   0.847 -0.0881  0.2585 -0.0449
 2286SOL    HW1 9142   4.895   4.037   0.914 -0.2797 -0.7456 -0.9468
 2286SOL    HW2 9143   4.810   4.159   0.885  0.3297  0.1456  0.8781
 2286SOL     MW 9144   4.871   4.102   0.861 -0.0577  0.1082 -0.0421
 2287SOL     OW 9145   4.388   5.286   2.626  0.2786  0.2640 -0.1020
 2287SOL    HW1 9146   4.364   5.219   2.562 -0.3951  0.2861  0.1231
 2287SOL    HW2 9147   4.356   5.251   2.710  1.5886  0.0039  0.3140
 2287SOL     MW 9148   4.381   5.272   2.629  0.3643  0.2320 -0.0157
 2288SOL     OW 9149   0.743   5.027   4.960  0.0003 -0.3261  0.0052
 2288SOL    HW1 9150   0.774   4.967   4.892  2.0315  1.4311 -0.7763
 2288SOL    HW2 9151   0.700   5.098   4.911 -1.1305 -0.4609  0.7885
 2288SOL     MW 9152   0.742   5.029   4.944  0.1215 -0.1078  0.0055
 2289SOL     OW 9153   2.317   3.305   4.788 -0.6825 -0.0316 -0.3771
 2289SOL    HW1 9154   2.245   3.276   4.731 -1.3483  1.1110 -0.1565
 2289SOL    HW2 9155   2.374   3.355   4.729 -0.4444 -0.3381 -0.4053
 2289SOL     MW 9156   2.315   3.308   4.772 -0.7400  0.0809 -0.3512
 2290SOL     OW 9157   4.882   3.562   0.175 -0.1268  0.4264 -0.5078
 2290SOL    HW1 9158   4.969   3.523   0.188 -0.6636 -0.5573  0.2928
 2290SOL    HW2 9159   4.874   3.573   0.080  0.2238 -1.0333 -0.7215
 2290SOL     MW 9160   4.893   3.558   0.164 -0.1519  0.0976 -0.4288
 2291SOL     OW 9161   5.121   4.766   4.262  0.1536 -0.1235 -0.9474
 2291SOL    HW1 9162   5.028   4.777   4.241  0.4430  0.5139 -2.0150
 2291SOL    HW2 9163   5.146   4.684   4.219 -0.0266 -0.5796 -0.2026
 2291SOL     MW 9164   5.112   4.757   4.253  0.1683 -0.0991 -0.9908
 2292SOL     OW 9165   2.980   2.320   5.356 -0.3277  0.0327 -0.0223
 2292SOL    HW1 9166   2.906   2.297   5.413 -0.3519  0.5497  0.1606
 2292SOL    HW2 9167   2.943   2.318   5.268 -0.5888  0.3912  0.0765
 2292SOL     MW 9168   2.965   2.317   5.352 -0.3661  0.1505  0.0156
 2293SOL     OW 9169   4.650   1.851   0.999  0.6615 -0.7549  0.1025
 2293SOL    HW1 9170   4.614   1.762   0.997  1.0873 -0.9207 -0.9810
 2293SOL    HW2 9171   4.617   1.892   0.920 -2.1421  1.1746  2.0751
 2293SOL     MW 9172   4.641   1.844   0.988  0.3415 -0.5175  0.2222
 2294SOL     OW 9173   1.946   2.669   4.389 -0.2930 -0.0608 -0.0675
 2294SOL    HW1 9174   1.994   2.703   4.464  1.0889  0.4211 -1.1189
 2294SOL    HW2 9175   1.976   2.578   4.381 -1.2781 -0.4630  0.5970
 2294SOL     MW 9176   1.956   2.661   4.398 -0.2396 -0.0501 -0.1196
 2295SOL     OW 9177   2.489   2.981   3.822  0.1373 -0.2601  0.4259
 2295SOL    HW1 9178   2.412   2.931   3.796  0.3696 -0.4213  0.0401
 2295SOL    HW2 9179   2.497   3.049   3.755  0.4179 -0.3376  0.3783
 2295SOL     MW 9180   2.480   2.984   3.809  0.2063 -0.2922  0.3676
 2296SOL     OW 9181   0.654   4.123   4.501 -0.2821  0.4138  0.3340
 2296SOL    HW1 9182   0.697   4.052   4.454 -1.7342 -0.7296  0.6315
 2296SOL    HW2 9183   0.604   4.079   4.570 -0.4015  1.8211  1.1810
 2296SOL     MW 9184   0.653   4.107   4.504 -0.4936  0.4493  0.4880
 2297SOL     OW 9185   3.780   3.419   0.952 -0.5535  0.0039 -0.0587
 2297SOL    HW1 9186   3.850   3.479   0.977 -1.0733  0.5803  0.0528
 2297SOL    HW2 9187   3.726   3.411   1.031 -0.6818 -0.3305 -0.1799
 2297SOL     MW 9188   3.782   3.426   0.966 -0.6408  0.0365 -0.0600
 2298SOL     OW 9189   4.879   3.903   1.029 -0.4507  0.1469  0.0312
 2298SOL    HW1 9190   4.934   3.880   1.104  1.0763  1.3533 -0.6370
 2298SOL    HW2 9191   4.801   3.941   1.067  0.5984  1.3723  1.0658
 2298SOL     MW 9192   4.876   3.905   1.044 -0.1040  0.4742  0.0805
 2299SOL     OW 9193   4.485   2.738   5.058  0.0328  0.2565  0.1358
 2299SOL    HW1 9194   4.560   2.688   5.091  0.5874 -0.2237 -1.7145
 2299SOL    HW2 9195   4.409   2.700   5.103  0.7369 -0.3234  0.8650
 2299SOL     MW 9196   4.485   2.726   5.068  0.2022  0.1139 -0.0150
 2300SOL     OW 9197   1.352   4.367   3.553  0.1628 -0.1778 -0.6272
 2300SOL    HW1 9198   1.350   4.428   3.627 -1.3766 -0.2258 -0.5893
 2300SOL    HW2 9199   1.428   4.394   3.502  2.7291 -1.6273  2.1404
 2300SOL     MW 9200   1.362   4.379   3.556  0.3010 -0.3793 -0.2497
 2301SOL     OW 9201   3.864   2.261   4.457  0.1886  0.5745 -0.0475
 2301SOL    HW1 9202   3.818   2.345   4.455 -0.0102  0.4616 -0.4578
 2301SOL    HW2 9203   3.953   2.281   4.428  0.2557  0.7097  0.2502
 2301SOL     MW 9204   3.870   2.275   4.453  0.1709  0.5775 -0.0626
 2302SOL     OW 9205   4.609   5.511   3.624  0.3199  0.1240 -0.2181
 2302SOL    HW1 9206   4.646   5.569   3.691 -0.5862  0.4249  0.0337
 2302SOL    HW2 9207   4.681   5.453   3.601  0.4096 -0.6072  1.6939
 2302SOL     MW 9208   4.624   5.511   3.630  0.2100  0.0661  0.0731
 2303SOL     OW 9209   2.205   4.702   2.665  0.1781  0.2952 -0.6934
 2303SOL    HW1 9210   2.156   4.653   2.599  1.9487 -4.4114  1.0403
 2303SOL    HW2 9211   2.283   4.733   2.619 -1.6870  3.1255 -2.1970
 2303SOL     MW 9212   2.209   4.699   2.650  0.1654  0.0427 -0.6624
 2304SOL     OW 9213   1.081   4.862   3.331  0.0179 -0.3276 -0.3028
 2304SOL    HW1 9214   1.050   4.940   3.376  2.7074 -0.6926  2.6209
 2304SOL    HW2 9215   1.039   4.789   3.377 -0.9434 -0.6866 -1.6905
 2304SOL     MW 9216   1.071   4.862   3.343  0.2505 -0.4251 -0.0961
 2305SOL     OW 9217   1.604   0.933   4.580 -0.1069 -0.3661 -0.5705
 2305SOL    HW1 9218   1.613   1.013   4.529 -1.5705  0.4080  0.3067
 2305SOL    HW2 9219   1.605   0.863   4.515  1.0021  0.3613 -1.3657
 2305SOL     MW 9220   1.605   0.934   4.565 -0.1546 -0.1640 -0.5595
 2306SOL     OW 9221   4.062   0.858   1.169  0.0592  0.2703  0.2611
 2306SOL    HW1 9222   4.084   0.918   1.240 -2.8824  0.9535  0.7409
 2306SOL    HW2 9223   3.989   0.901   1.123  1.5783 -0.3389 -2.9859
 2306SOL     MW 9224   4.055   0.872   1.172 -0.1322  0.2803 -0.1113
 2307SOL     OW 9225   4.076   4.943   4.781  0.4843  0.5960 -0.2606
 2307SOL    HW1 9226   4.097   4.989   4.700 -0.9384  0.2930 -0.8281
 2307SOL    HW2 9227   4.139   4.871   4.785  1.1059  1.1056 -0.6543
 2307SOL     MW 9228   4.087   4.940   4.771  0.3765  0.6238 -0.3900
 2308SOL     OW 9229   3.865   4.026   1.480  0.1650  0.4769  0.2059
 2308SOL    HW1 9230   3.881   4.074   1.561  1.3661 -0.0486  0.2921
 2308SOL    HW2 9231   3.949   3.987   1.457  0.2034  1.6759 -2.0026
 2308SOL     MW 9232   3.879   4.027   1.488  0.3318  0.5676 -0.0797
 2309SOL     OW 9233   2.587   3.574   2.232  0.0756  0.3657 -0.6299
 2309SOL    HW1 9234   2.538   3.655   2.213  0.0940  0.9650  1.5986
 2309SOL    HW2 9235   2.519   3.510   2.254  0.1172  0.0561 -1.3777
 2309SOL     MW 9236   2.571   3.576   2.232  0.0837  0.4047 -0.4306
 2310SOL     OW 9237   4.902   0.569   3.506  0.2352 -0.2426 -0.2508
 2310SOL    HW1 9238   4.846   0.508   3.554 -0.7778  0.8984  0.0580
 2310SOL    HW2 9239   4.985   0.567   3.553 -1.0217  1.6532  2.3524
 2310SOL     MW 9240   4.905   0.561   3.519 -0.0703  0.1661  0.1411
 2311SOL     OW 9241   5.500   4.826   1.513 -0.3158 -0.0518 -0.0230
 2311SOL    HW1 9242   5.554   4.889   1.466 -0.6533  0.0577 -0.2714
 2311SOL    HW2 9243   5.415   4.829   1.468 -0.1992 -1.0178 -0.3455
 2311SOL     MW 9244   5.496   4.835   1.501 -0.3455 -0.1671 -0.0998
 2312SOL     OW 9245   0.846   1.075   2.164  0.0516 -0.2960 -0.2295
 2312SOL    HW1 9246   0.755   1.048   2.152 -0.4861  0.9176  0.8928
 2312SOL    HW2 9247   0.877   1.023   2.238 -0.9879  1.9812  1.9396
 2312SOL     MW 9248   0.838   1.064   2.172 -0.1607  0.1738  0.2134
 2313SOL     OW 9249   5.160   0.725   4.343 -0.4086 -0.6543  0.2293
 2313SOL    HW1 9250   5.215   0.670   4.398 -0.8522 -1.5671 -0.2281
 2313SOL    HW2 9251   5.183   0.700   4.253 -0.9914 -0.4756  0.0258
 2313SOL     MW 9252   5.171   0.714   4.338 -0.5468 -0.7531  0.1404
 2314SOL     OW 9253   2.548   3.868   5.474 -0.2206 -0.1451 -0.0405
 2314SOL    HW1 9254   2.457   3.860   5.501 -0.8951 -0.2869 -2.1152
 2314SOL    HW2 9255   2.543   3.882   5.379  1.8704  1.0413 -0.0404
 2314SOL     MW 9256   2.536   3.869   5.465 -0.0300 -0.0045 -0.3197
 2315SOL     OW 9257   1.071   5.370   2.386  0.2809 -0.7208  0.1800
 2315SOL    HW1 9258   1.064   5.438   2.453  0.7007 -1.6082  1.1606
 2315SOL    HW2 9259   1.027   5.294   2.424  1.6159 -1.6268 -0.0161
 2315SOL     MW 9260   1.064   5.369   2.400  0.5171 -0.9622  0.2856
 2316SOL     OW 9261   4.308   2.927   1.610 -0.1038  0.1610  0.3398
 2316SOL    HW1 9262   4.336   2.836   1.614  2.0575  0.8245  2.1633
 2316SOL    HW2 9263   4.329   2.963   1.696  0.7141  2.8270 -0.8692
 2316SOL     MW 9264   4.314   2.920   1.622  0.2971  0.6091  0.4225
 2317SOL     OW 9265   3.226   2.591   3.537 -0.2201 -0.1572 -0.4161
 2317SOL    HW1 9266   3.189   2.589   3.626 -0.6364 -1.7011 -0.5926
 2317SOL    HW2 9267   3.251   2.500   3.520  2.2616  0.5424 -0.9254
 2317SOL     MW 9268   3.224   2.579   3.547  0.0579 -0.2708 -0.5083
 2318SOL     OW 9269   1.492   5.126   4.413  0.0464 -0.2354 -0.3714
 2318SOL    HW1 9270   1.582   5.158   4.417 -0.9163  2.6150  0.3160
 2318SOL    HW2 9271   1.454   5.170   4.337 -1.1564 -0.3284  0.1576
 2318SOL     MW 9272   1.499   5.136   4.403 -0.2451  0.1357 -0.2077
 2319SOL     OW 9273   3.939   5.462   2.701 -0.3962  0.1305 -0.2698
 2319SOL    HW1 9274   3.961   5.435   2.612 -1.5245  0.1283 -0.5646
 2319SOL    HW2 9275   3.914   5.554   2.693  0.8358  0.5361  0.2890
 2319SOL     MW 9276   3.939   5.471   2.688 -0.3823  0.1848 -0.2343
 2320SOL     OW 9277   2.936   4.141   0.987  0.3085  0.1241 -0.4617
 2320SOL    HW1 9278   2.856   4.162   0.938  0.0801  0.2804 -0.0305
 2320SOL    HW2 9279   2.909   4.144   1.079  1.0427  1.2153 -0.2558
 2320SOL     MW 9280   2.921   4.145   0.993  0.3766  0.2920 -0.3760
 2321SOL     OW 9281   2.464   4.781   2.999 -0.0427 -0.2275  0.3946
 2321SOL    HW1 9282   2.380   4.739   2.978  0.5434 -1.1623 -0.1088
 2321SOL    HW2 9283   2.513   4.715   3.047  0.5326  0.2018  0.4037
 2321SOL     MW 9284   2.459   4.767   3.002  0.1136 -0.2955  0.3280
 2322SOL     OW 9285   4.700   3.166   0.861  0.2279  0.3678  0.0135
 2322SOL    HW1 9286   4.608   3.173   0.837 -0.2868 -2.9994  0.4236
 2322SOL    HW2 9287   4.743   3.131   0.783  0.9041  0.7669  0.2027
 2322SOL     MW 9288   4.693   3.162   0.848  0.2496 -0.0317  0.0942
 2323SOL     OW 9289   1.624   5.228   1.616 -0.6142  0.4630 -0.0509
 2323SOL    HW1 9290   1.657   5.263   1.699  0.6948  0.2851 -0.4740
 2323SOL    HW2 9291   1.702   5.214   1.563 -1.0948 -2.5217 -0.1345
 2323SOL     MW 9292   1.639   5.231   1.620 -0.5027  0.0374 -0.1191
 2324SOL     OW 9293   4.552   3.133   3.760 -0.1529 -0.1881  0.1248
 2324SOL    HW1 9294   4.556   3.058   3.700  1.1580 -1.0150  1.2076
 2324SOL    HW2 9295   4.458   3.154   3.765 -0.3494 -0.4981 -1.6974
 2324SOL     MW 9296   4.540   3.125   3.753 -0.0029 -0.3411  0.0253
 2325SOL     OW 9297   3.325   0.117   1.852  0.2396  0.3576 -0.3468
 2325SOL    HW1 9298   3.241   0.092   1.890  0.8575 -0.8855  0.2889
 2325SOL    HW2 9299   3.311   0.114   1.758 -0.3710 -0.0612 -0.2469
 2325SOL     MW 9300   3.312   0.113   1.845  0.2406  0.1340 -0.2478
 2326SOL     OW 9301   3.848   4.385   3.070  0.7674 -0.0488  0.3909
 2326SOL    HW1 9302   3.874   4.326   3.141  2.2579  0.7967  0.5756
 2326SOL    HW2 9303   3.760   4.356   3.046  0.8416 -1.3167  1.5542
 2326SOL     MW 9304   3.839   4.373   3.076  0.9780 -0.1057  0.5723
 2327SOL     OW 9305   1.663   1.264   2.932  0.0457 -0.3172 -0.0067
 2327SOL    HW1 9306   1.576   1.270   2.971 -0.3036  0.7928 -0.8951
 2327SOL    HW2 9307   1.647   1.264   2.837  0.7891 -3.9808 -0.2744
 2327SOL     MW 9308   1.649   1.265   2.924  0.0988 -0.6609 -0.1623
 2328SOL     OW 9309   4.999   3.284   4.307 -0.2676  0.0281  0.1035
 2328SOL    HW1 9310   5.055   3.360   4.321  0.1984 -0.5754  1.6946
 2328SOL    HW2 9311   4.986   3.281   4.212  1.0443  1.1305 -0.1398
 2328SOL     MW 9312   5.004   3.294   4.296 -0.0283  0.0953  0.2849
 2329SOL     OW 9313   1.178   0.951   4.771 -0.3980  0.5063 -0.2183
 2329SOL    HW1 9314   1.129   0.877   4.806  0.4584  0.3443  0.6786
 2329SOL    HW2 9315   1.267   0.940   4.806 -0.6468  2.8975  1.4320
 2329SOL     MW 9316   1.184   0.940   4.781 -0.3162  0.8063  0.1245
 2330SOL     OW 9317   3.008   0.140   2.718 -0.3016 -0.2081  0.0576
 2330SOL    HW1 9318   2.917   0.139   2.686 -0.4596  0.2602  0.4920
 2330SOL    HW2 9319   3.005   0.192   2.798  0.4995  0.4736 -0.3436
 2330SOL     MW 9320   2.995   0.147   2.725 -0.2151 -0.0533  0.0620
 2331SOL     OW 9321   1.673   1.342   1.160  0.5805 -0.1114 -0.2823
 2331SOL    HW1 9322   1.619   1.393   1.099  1.8447  0.3222 -1.0936
 2331SOL    HW2 9323   1.612   1.282   1.202 -0.7556  1.2331 -0.2067
 2331SOL     MW 9324   1.657   1.341   1.158  0.5708  0.1279 -0.3813
 2332SOL     OW 9325   0.040   0.506   2.396  0.2061  0.1958 -0.5016
 2332SOL    HW1 9326   0.093   0.573   2.354  0.9027 -0.8803 -1.4177
 2332SOL    HW2 9327   0.084   0.424   2.375 -0.5768 -0.5554  0.6442
 2332SOL     MW 9328   0.053   0.504   2.387  0.1945 -0.0501 -0.4707
 2333SOL     OW 9329   4.604   3.290   1.698  0.5058 -0.2728 -0.2848
 2333SOL    HW1 9330   4.676   3.351   1.710  1.0674 -0.6375 -1.5903
 2333SOL    HW2 9331   4.613   3.259   1.607 -0.4781 -1.3649 -0.0429
 2333SOL     MW 9332   4.615   3.294   1.687  0.4489 -0.4688 -0.4280
 2334SOL     OW 9333   0.538   1.620   1.047  0.0848 -0.3066 -0.0941
 2334SOL    HW1 9334   0.468   1.575   1.094 -0.6700  2.2342  1.3780
 2334SOL    HW2 9335   0.605   1.637   1.113  0.9734 -0.4715 -0.9325
 2334SOL     MW 9336   0.537   1.616   1.062  0.1028  0.0131 -0.0088
 2335SOL     OW 9337   4.334   2.396   0.079  0.1036 -0.1691  0.5971
 2335SOL    HW1 9338   4.400   2.347   0.128 -1.1669 -0.5557  1.9983
 2335SOL    HW2 9339   4.277   2.432   0.146 -1.2063  0.0203 -0.5781
 2335SOL     MW 9340   4.335   2.394   0.095 -0.2436 -0.1956  0.6275
 2336SOL     OW 9341   4.747   2.068   4.711  0.0046  0.0438  0.3314
 2336SOL    HW1 9342   4.689   2.063   4.636  0.6267  1.3224 -0.2808
 2336SOL    HW2 9343   4.777   1.978   4.725 -0.1647 -0.2224 -0.9143
 2336SOL     MW 9344   4.744   2.055   4.703  0.0655  0.1801  0.0814
 2337SOL     OW 9345   5.116   3.741   0.899  0.2866 -0.5411 -0.0044
 2337SOL    HW1 9346   5.042   3.754   0.958  0.1588 -0.1887 -0.2392
 2337SOL    HW2 9347   5.089   3.784   0.818  0.3164 -1.3368 -0.4371
 2337SOL     MW 9348   5.102   3.749   0.896  0.2734 -0.6008 -0.0942
 2338SOL     OW 9349   1.677   2.171   2.655  0.2550  0.3275  0.5837
 2338SOL    HW1 9350   1.626   2.093   2.678 -0.1735  0.1618 -0.8650
 2338SOL    HW2 9351   1.616   2.227   2.608  0.8679  1.0438  0.6247
 2338SOL     MW 9352   1.662   2.168   2.652  0.2798  0.4016  0.3942
 2339SOL     OW 9353   5.128   4.811   1.152 -0.0065 -0.4836  0.0605
 2339SOL    HW1 9354   5.065   4.858   1.207  0.0118 -0.9644  0.4988
 2339SOL    HW2 9355   5.186   4.879   1.118  0.9476 -0.3319  1.8985
 2339SOL     MW 9356   5.127   4.827   1.155  0.1244 -0.5279  0.3669
 2340SOL     OW 9357   3.376   1.335   4.574 -0.4628 -0.6955 -0.2242
 2340SOL    HW1 9358   3.356   1.418   4.532  0.9852  0.3073  0.9356
 2340SOL    HW2 9359   3.391   1.358   4.666  1.6078 -1.9398 -0.1781
 2340SOL     MW 9360   3.376   1.349   4.581  0.0107 -0.7280 -0.0619
 2341SOL     OW 9361   4.783   5.129   3.229 -0.6494  0.3485  0.0591
 2341SOL    HW1 9362   4.874   5.151   3.210 -0.8023 -0.2423 -1.4785
 2341SOL    HW2 9363   4.747   5.209   3.269  0.7132  0.3335  1.4186
 2341SOL     MW 9364   4.791   5.143   3.232 -0.4866  0.2670  0.0351
 2342SOL     OW 9365   3.728   4.702   4.049  0.0212  0.4438 -0.1745
 2342SOL    HW1 9366   3.655   4.735   3.996 -0.6118 -0.1117  0.3408
 2342SOL    HW2 9367   3.696   4.621   4.086  0.2019  1.1503  1.6033
 2342SOL     MW 9368   3.714   4.696   4.047 -0.0397  0.4641  0.1341
 2343SOL     OW 9369   2.655   4.596   1.305 -0.0464 -0.2192  0.3958
 2343SOL    HW1 9370   2.585   4.536   1.279  0.5704 -1.2085  0.9307
 2343SOL    HW2 9371   2.721   4.587   1.235 -1.1022  1.9356 -0.9699
 2343SOL     MW 9372   2.655   4.586   1.292 -0.1055 -0.0624  0.2840
 2344SOL     OW 9373   1.102   1.163   0.219  0.1882  0.3204 -0.0950
 2344SOL    HW1 9374   1.034   1.136   0.157 -0.9025  1.7291  0.4412
 2344SOL    HW2 9375   1.080   1.116   0.300  1.0500 -0.7633 -0.4560
 2344SOL     MW 9376   1.090   1.153   0.221  0.1574  0.3641 -0.0714
 2345SOL     OW 9377   4.815   1.690   2.129 -0.0731  0.0420 -0.0782
 2345SOL    HW1 9378   4.783   1.777   2.106 -0.1522  0.0244 -0.0367
 2345SOL    HW2 9379   4.796   1.682   2.223  0.6528  0.2898  0.1004
 2345SOL     MW 9380   4.808   1.701   2.139  0.0139  0.0730 -0.0486
 2346SOL     OW 9381   3.716   3.412   1.398  0.2929 -0.0362  0.3338
 2346SOL    HW1 9382   3.802   3.428   1.435  0.3962 -1.5495  0.8064
 2346SOL    HW2 9383   3.671   3.358   1.463 -0.7106  0.0536 -0.2659
 2346SOL     MW 9384   3.721   3.407   1.411  0.1718 -0.2278  0.3167
 2347SOL     OW 9385   4.817   3.156   0.382  0.0490  0.4919  0.1878
 2347SOL    HW1 9386   4.777   3.233   0.341  0.8747  0.7365 -0.1967
 2347SOL    HW2 9387   4.909   3.181   0.394 -0.3303  0.7756  3.0732
 2347SOL     MW 9388   4.824   3.170   0.378  0.1091  0.5630  0.5244
 2348SOL     OW 9389   1.957   1.633   3.837  0.0656 -0.4153  0.3732
 2348SOL    HW1 9390   1.983   1.543   3.819  0.2132 -0.0681 -1.3327
 2348SOL    HW2 9391   1.919   1.664   3.755  0.4605  1.2408  0.7687
 2348SOL     MW 9392   1.955   1.625   3.824  0.1386 -0.1457  0.1969
 2349SOL     OW 9393   4.200   4.497   3.972 -0.0054 -0.6989  0.1958
 2349SOL    HW1 9394   4.237   4.582   3.995  1.4614 -0.8083 -1.5373
 2349SOL    HW2 9395   4.109   4.515   3.951 -0.1748  0.1184  1.4937
 2349SOL     MW 9396   4.193   4.511   3.972  0.1692 -0.6036  0.1372
 2350SOL     OW 9397   0.059   2.831   2.762  0.8296  0.0616 -0.3499
 2350SOL    HW1 9398   0.109   2.751   2.781 -0.3240 -0.2817  1.4734
 2350SOL    HW2 9399   0.019   2.814   2.677  1.2851 -0.9589 -0.3816
 2350SOL     MW 9400   0.061   2.818   2.753  0.7356 -0.1219 -0.1088
 2351SOL     OW 9401   4.365   0.258   4.059  0.3522  0.2316  0.3193
 2351SOL    HW1 9402   4.349   0.186   4.120  0.5719  0.6878  0.9299
 2351SOL    HW2 9403   4.310   0.330   4.092 -1.7506 -0.3618 -1.6695
 2351SOL     MW 9404   4.355   0.258   4.072  0.0987  0.2132  0.1338
 2352SOL     OW 9405   1.740   4.723   2.875 -0.6632 -0.2857 -0.0755
 2352SOL    HW1 9406   1.669   4.698   2.934  0.0073 -1.6426  0.1914
 2352SOL    HW2 9407   1.783   4.640   2.852  1.2382  0.5454  0.2926
 2352SOL     MW 9408   1.737   4.708   2.879 -0.3171 -0.3565  0.0100
 2353SOL     OW 9409   0.055   1.824   4.519 -0.2502  0.0505  0.3706
 2353SOL    HW1 9410  -0.017   1.763   4.534 -1.2750  0.6888 -1.5716
 2353SOL    HW2 9411   0.037   1.898   4.577 -0.3078 -0.4436  0.9904
 2353SOL     MW 9412   0.043   1.826   4.529 -0.3959  0.0699  0.1926
 2354SOL     OW 9413   2.144   5.419   0.051  0.4356 -0.5351 -0.0626
 2354SOL    HW1 9414   2.221   5.377   0.013  0.1819 -0.9128 -0.1643
 2354SOL    HW2 9415   2.073   5.357   0.037  0.5112 -1.1475  1.9104
 2354SOL     MW 9416   2.145   5.405   0.044  0.4116 -0.6683  0.1892
 2355SOL     OW 9417   4.096   3.191   2.961  0.0301  0.5880  0.2454
 2355SOL    HW1 9418   4.074   3.261   2.900  0.8632  0.4027 -0.2758
 2355SOL    HW2 9419   4.025   3.127   2.951  0.0251  0.6803 -0.3357
 2355SOL     MW 9420   4.084   3.191   2.952  0.1415  0.5755  0.0970
 2356SOL     OW 9421   5.195   2.355   3.213 -0.4662 -0.5678 -0.3721
 2356SOL    HW1 9422   5.123   2.401   3.169  0.7356  0.0848 -1.7649
 2356SOL    HW2 9423   5.199   2.270   3.169 -0.3208 -0.5613 -0.3726
 2356SOL     MW 9424   5.186   2.350   3.201 -0.2849 -0.4791 -0.5596
 2357SOL     OW 9425   4.877   4.223   1.799  0.0997  0.1573  0.4395
 2357SOL    HW1 9426   4.859   4.129   1.798  1.8426 -0.1982 -0.7519
 2357SOL    HW2 9427   4.968   4.230   1.828 -0.6290  1.6398  2.6524
 2357SOL     MW 9428   4.887   4.211   1.803  0.2362  0.3090  0.5770
 2358SOL     OW 9429   5.468   1.168   2.773  0.1960  0.2636  0.3092
 2358SOL    HW1 9430   5.385   1.147   2.730 -0.6696  2.0775  1.0097
 2358SOL    HW2 9431   5.532   1.114   2.727 -1.4228 -1.6692  0.1618
 2358SOL     MW 9432   5.465   1.157   2.761 -0.1384  0.2476  0.3836
 2359SOL     OW 9433   4.988   1.008   4.158  0.1175  0.2912  0.2903
 2359SOL    HW1 9434   5.043   0.982   4.232 -0.0879  0.6565  0.5795
 2359SOL    HW2 9435   4.953   0.926   4.124  1.2973  0.0000 -0.2735
 2359SOL     MW 9436   4.990   0.994   4.164  0.2487  0.3012  0.2533
 2360SOL     OW 9437   3.009   3.584   4.150 -0.4328 -0.0725 -0.2710
 2360SOL    HW1 9438   3.034   3.510   4.094  1.5145  0.2289  0.1452
 2360SOL    HW2 9439   3.046   3.660   4.107  1.4819  0.1246  1.5661
 2360SOL     MW 9440   3.017   3.584   4.136  0.0870 -0.0054  0.0323
 2361SOL     OW 9441   5.140   0.979   2.153 -0.3532 -0.1441  0.3955
 2361SOL    HW1 9442   5.070   0.921   2.121 -0.0106  0.7654 -2.2431
 2361SOL    HW2 9443   5.093   1.054   2.190 -0.7823 -0.2364  0.0480
 2361SOL     MW 9444   5.124   0.981   2.154 -0.3648 -0.0341 -0.0064
 2362SOL     OW 9445   5.225   4.559   3.877 -0.2478  0.0600  0.1214
 2362SOL    HW1 9446   5.318   4.540   3.860 -0.0934  0.6936  0.2304
 2362SOL    HW2 9447   5.179   4.524   3.801  0.1662  0.4481 -0.3123
 2362SOL     MW 9448   5.232   4.552   3.865 -0.1713  0.1975  0.0777
 2363SOL     OW 9449   3.319   5.219   0.965 -0.1881 -0.4072 -0.1132
 2363SOL    HW1 9450   3.319   5.184   1.054 -0.3428  0.6799  0.3356
 2363SOL    HW2 9451   3.228   5.243   0.949 -0.5029 -2.2452 -1.2612
 2363SOL     MW 9452   3.307   5.218   0.975 -0.2513 -0.5083 -0.2073
 2364SOL     OW 9453   0.234   4.433   3.155  0.3779  0.1297 -0.0490
 2364SOL    HW1 9454   0.237   4.507   3.094  1.0803 -0.3766 -0.6499
 2364SOL    HW2 9455   0.183   4.367   3.109 -1.1126  0.5765  0.9019
 2364SOL     MW 9456   0.228   4.434   3.140  0.2718  0.1217 -0.0019
 2365SOL     OW 9457   1.922   1.338   1.052 -0.0720 -0.0370 -0.1499
 2365SOL    HW1 9458   1.971   1.354   1.132 -0.9945  0.2025  0.3787
 2365SOL    HW2 9459   1.830   1.340   1.079 -0.3788 -0.4326 -1.1250
 2365SOL     MW 9460   1.916   1.341   1.066 -0.2374 -0.0580 -0.2100
 2366SOL     OW 9461   2.487   1.496   4.810 -0.4721  0.0641 -0.0857
 2366SOL    HW1 9462   2.482   1.491   4.714  3.2140  1.4108 -0.5331
 2366SOL    HW2 9463   2.502   1.589   4.827  0.5799 -0.3839  1.6219
 2366SOL     MW 9464   2.489   1.508   4.799  0.1655  0.1850  0.0839
 2367SOL     OW 9465   4.804   1.506   4.124  0.5823  0.3870  0.3119
 2367SOL    HW1 9466   4.842   1.427   4.086 -0.3503  0.7963 -1.6039
 2367SOL    HW2 9467   4.712   1.485   4.138  0.4330  0.9735  0.2393
 2367SOL     MW 9468   4.797   1.493   4.121  0.4367  0.5210  0.0443
 2368SOL     OW 9469   3.951   3.735   5.479 -0.0468  0.0231  0.3754
 2368SOL    HW1 9470   3.856   3.733   5.492 -0.3219 -2.4503 -1.4057
 2368SOL    HW2 9471   3.986   3.694   5.558 -0.4273  0.7485  0.9438
 2368SOL     MW 9472   3.943   3.730   5.492 -0.1351 -0.2121  0.2122
 2369SOL     OW 9473   3.173   3.163   0.281  0.0588  0.0870  0.5358
 2369SOL    HW1 9474   3.093   3.213   0.262 -0.4013 -0.9287 -0.3349
 2369SOL    HW2 9475   3.155   3.121   0.365 -0.2885 -0.0542  0.3949
 2369SOL     MW 9476   3.160   3.165   0.289 -0.0498 -0.0687  0.3997
 2370SOL     OW 9477   1.902   5.242   4.001  0.1118 -0.2863 -0.2910
 2370SOL    HW1 9478   1.834   5.291   3.955 -0.5459  0.3494  1.2770
 2370SOL    HW2 9479   1.947   5.307   4.055 -0.0001 -1.1763  0.9390
 2370SOL     MW 9480   1.899   5.257   4.002  0.0082 -0.3205  0.0855
 2371SOL     OW 9481   2.459   3.826   2.231  0.7092  0.2567 -0.0879
 2371SOL    HW1 9482   2.491   3.891   2.294 -0.1690 -1.1021  1.8370
 2371SOL    HW2 9483   2.366   3.817   2.252  0.2945  0.0586 -1.8846
 2371SOL     MW 9484   2.451   3.834   2.242  0.5352  0.0472 -0.0706
 2372SOL     OW 9485   5.048   3.273   4.715  0.2929  0.5116 -0.7221
 2372SOL    HW1 9486   5.012   3.184   4.716  0.1063  0.4940 -3.3625
 2372SOL    HW2 9487   5.142   3.261   4.709  0.3251  0.5060 -0.2252
 2372SOL     MW 9488   5.055   3.260   4.715  0.2721  0.5085 -1.0106
 2373SOL     OW 9489   3.945   2.840   3.232  0.6267  0.1617 -0.2783
 2373SOL    HW1 9490   3.927   2.925   3.271  0.9295  0.4999 -0.8643
 2373SOL    HW2 9491   3.934   2.778   3.304 -2.2787  0.3736 -0.3986
 2373SOL     MW 9492   3.941   2.843   3.247  0.2764  0.2357 -0.3734
 2374SOL     OW 9493   1.619   3.525   3.049 -0.0627  0.2868  0.5577
 2374SOL    HW1 9494   1.530   3.492   3.037  0.0929  0.0521  0.0405
 2374SOL    HW2 9495   1.614   3.578   3.129 -0.6423  0.1965  0.5856
 2374SOL     MW 9496   1.607   3.528   3.058 -0.1198  0.2431  0.4919
 2375SOL     OW 9497   1.087   3.934   2.934  0.1081 -0.2638 -0.3782
 2375SOL    HW1 9498   1.148   3.997   2.895  0.3669  0.6547  1.3640
 2375SOL    HW2 9499   1.036   3.986   2.996 -0.4421 -1.5741  0.3072
 2375SOL     MW 9500   1.088   3.949   2.937  0.0689 -0.3165 -0.0515
 2376SOL     OW 9501   0.947   3.389   2.936  0.0360 -0.5684 -0.5989
 2376SOL    HW1 9502   0.908   3.410   3.021 -1.5236 -0.8186 -1.2232
 2376SOL    HW2 9503   0.982   3.301   2.947 -1.5958 -1.2586 -0.6546
 2376SOL     MW 9504   0.947   3.380   2.949 -0.3935 -0.6950 -0.6904
 2377SOL     OW 9505   3.451   3.486   0.337 -0.4363  0.0030  0.2073
 2377SOL    HW1 9506   3.404   3.484   0.421  0.9223 -0.0297  1.0048
 2377SOL    HW2 9507   3.491   3.399   0.331 -0.2097  0.1440 -0.2868
 2377SOL     MW 9508   3.450   3.474   0.348 -0.2230  0.0176  0.2481
 2378SOL     OW 9509   2.498   0.336   1.780  0.1196 -0.1113  0.2423
 2378SOL    HW1 9510   2.565   0.401   1.801 -0.0239 -0.1814  0.9383
 2378SOL    HW2 9511   2.515   0.312   1.689  1.2758 -0.4132  0.5278
 2378SOL     MW 9512   2.509   0.342   1.770  0.2559 -0.1613  0.3744
 2379SOL     OW 9513   3.792   1.452   3.244 -0.0092 -0.0549  0.2789
 2379SOL    HW1 9514   3.779   1.375   3.299 -0.5587 -0.0258  0.1971
 2379SOL    HW2 9515   3.771   1.526   3.302  1.6009  0.1079  0.6922
 2379SOL     MW 9516   3.787   1.452   3.260  0.1335 -0.0291  0.3235
 2380SOL     OW 9517   5.403   0.619   2.215  0.0692 -0.2829  0.2498
 2380SOL    HW1 9518   5.455   0.566   2.276 -0.1397 -1.4402 -0.5558
 2380SOL    HW2 9519   5.454   0.619   2.134 -1.6617 -2.4447 -0.9480
 2380SOL     MW 9520   5.417   0.612   2.212 -0.1918 -0.7296 -0.0198
 2381SOL     OW 9521   3.942   4.418   1.331  0.1387 -0.1023  0.6226
 2381SOL    HW1 9522   3.887   4.496   1.338 -1.1575 -0.8844 -0.5208
 2381SOL    HW2 9523   3.881   4.345   1.320  1.3672 -1.0510 -0.3025
 2381SOL     MW 9524   3.927   4.419   1.330  0.1296 -0.3352  0.3442
 2382SOL     OW 9525   2.454   2.026   1.897 -0.4758  0.2915  0.1679
 2382SOL    HW1 9526   2.499   1.994   1.819 -2.3085 -2.0681 -0.0556
 2382SOL    HW2 9527   2.513   2.091   1.935  2.1280 -1.1271 -1.1929
 2382SOL     MW 9528   2.468   2.030   1.892 -0.3720 -0.2170 -0.0453
 2383SOL     OW 9529   4.186   3.506   1.202  0.0104 -0.1205 -0.1065
 2383SOL    HW1 9530   4.132   3.493   1.280  1.1706  1.3132  0.9794
 2383SOL    HW2 9531   4.232   3.588   1.218  0.4307  0.1120 -2.2350
 2383SOL     MW 9532   4.185   3.515   1.215  0.2231  0.1037 -0.2468
 2384SOL     OW 9533   4.261   1.630   1.002  0.0303  0.0997 -0.0200
 2384SOL    HW1 9534   4.224   1.550   1.040  0.0250 -0.0884 -0.4112
 2384SOL    HW2 9535   4.234   1.700   1.061  0.4842 -0.2599  0.6160
 2384SOL     MW 9536   4.252   1.629   1.015  0.0907  0.0260  0.0129
 2385SOL     OW 9537   5.045   5.072   5.280  0.2083  0.2322  0.3883
 2385SOL    HW1 9538   5.020   5.076   5.188  0.4974 -0.8180  0.2509
 2385SOL    HW2 9539   4.990   5.002   5.317 -0.4577  1.1499  1.2023
 2385SOL     MW 9540   5.034   5.063   5.273  0.1576  0.2144  0.4794
 2386SOL     OW 9541   1.935   3.177   0.433 -0.0587  0.1525 -0.4163
 2386SOL    HW1 9542   1.964   3.188   0.343 -0.8640  0.6351 -0.6291
 2386SOL    HW2 9543   1.887   3.258   0.453 -0.8340 -0.4069  0.0660
 2386SOL     MW 9544   1.932   3.189   0.423 -0.2714  0.1422 -0.3800
 2387SOL     OW 9545   0.717   5.361   4.375 -0.3608 -0.4944 -0.2791
 2387SOL    HW1 9546   0.746   5.301   4.444  1.7240 -1.1018 -1.5906
 2387SOL    HW2 9547   0.634   5.325   4.345 -0.0297 -1.6994  0.1795
 2387SOL     MW 9548   0.710   5.348   4.381 -0.0356 -0.7383 -0.3939
 2388SOL     OW 9549   0.591   4.985   4.583 -0.2231  0.6762  0.2619
 2388SOL    HW1 9550   0.579   4.948   4.496  0.3192  1.2699 -0.0703
 2388SOL    HW2 9551   0.660   4.932   4.623 -1.4295 -0.5097  0.8828
 2388SOL     MW 9552   0.598   4.972   4.577 -0.3124  0.5965  0.3007
 2389SOL     OW 9553   3.513   0.059   2.945 -0.7803  0.2608  0.0071
 2389SOL    HW1 9554   3.423   0.036   2.969 -0.6791  0.0862  0.2254
 2389SOL    HW2 9555   3.511   0.065   2.850 -1.1501  0.7985  0.0431
 2389SOL     MW 9556   3.500   0.057   2.936 -0.8164  0.3097  0.0414
 2390SOL     OW 9557   4.292   0.235   0.911 -0.5801  0.7445  0.3533
 2390SOL    HW1 9558   4.282   0.325   0.878 -3.0231  0.3164 -0.2883
 2390SOL    HW2 9559   4.225   0.227   0.979 -0.5819 -0.6632  0.2079
 2390SOL     MW 9560   4.281   0.246   0.916 -0.9091  0.4975  0.2474
 2391SOL     OW 9561   4.530   1.098   1.792 -0.2515 -0.0255 -0.0280
 2391SOL    HW1 9562   4.536   1.134   1.704 -2.2780  0.6791  0.0726
 2391SOL    HW2 9563   4.538   1.004   1.780 -2.1084 -0.0903 -1.2199
 2391SOL     MW 9564   4.532   1.090   1.778 -0.7741  0.0606 -0.1749
 2392SOL     OW 9565   0.657   4.841   4.104 -0.1302 -0.3268 -0.9895
 2392SOL    HW1 9566   0.695   4.760   4.070  2.2757 -0.0183  0.6996
 2392SOL    HW2 9567   0.718   4.910   4.077 -1.5388  0.8029 -1.4243
 2392SOL     MW 9568   0.670   4.839   4.096  0.0040 -0.1332 -0.8207
 2393SOL     OW 9569   2.715   4.831   4.648  0.5497 -0.1231  0.1618
 2393SOL    HW1 9570   2.702   4.764   4.714  0.1607 -0.4251 -0.2188
 2393SOL    HW2 9571   2.764   4.787   4.579 -0.8711 -0.4071 -0.6989
 2393SOL     MW 9572   2.720   4.816   4.648  0.3061 -0.2020 -0.0053
 2394SOL     OW 9573   2.912   2.713   2.907 -0.4526 -0.6518 -0.4714
 2394SOL    HW1 9574   2.853   2.649   2.947  1.0951 -1.7074  0.1989
 2394SOL    HW2 9575   2.925   2.779   2.975  1.5066 -2.0085  0.5531
 2394SOL     MW 9576   2.905   2.713   2.922  0.0194 -0.9765 -0.2433
 2395SOL     OW 9577   3.723   3.087   4.612 -0.3970  0.1424  0.3356
 2395SOL    HW1 9578   3.720   3.160   4.551 -0.7089  1.0583  1.4099
 2395SOL    HW2 9579   3.631   3.068   4.631 -0.5138 -2.7046 -2.3721
 2395SOL     MW 9580   3.710   3.094   4.606 -0.4547 -0.1175  0.1158
 2396SOL     OW 9581   4.544   3.098   1.482 -0.2231  0.1511  0.6737
 2396SOL    HW1 9582   4.469   3.054   1.522 -2.1062  1.0645 -1.6284
 2396SOL    HW2 9583   4.600   3.028   1.449 -2.9235 -0.7103 -2.5303
 2396SOL     MW 9584   4.541   3.083   1.483 -0.8399  0.1581 -0.0673
 2397SOL     OW 9585   2.526   5.261   3.888 -0.1518  0.0670  0.5187
 2397SOL    HW1 9586   2.514   5.190   3.951 -2.0102  0.0667  0.2128
 2397SOL    HW2 9587   2.509   5.220   3.803 -1.3374  0.8608  0.3437
 2397SOL     MW 9588   2.522   5.246   3.885 -0.5615  0.1738  0.4540
 2398SOL     OW 9589   4.156   2.354   4.520  0.2600 -0.2243 -0.1842
 2398SOL    HW1 9590   4.211   2.307   4.583  0.6308 -0.3750 -0.6119
 2398SOL    HW2 9591   4.096   2.405   4.574  1.5556  0.8254  0.3305
 2398SOL     MW 9592   4.155   2.355   4.536  0.4843 -0.1033 -0.1725
 2399SOL     OW 9593   0.257   5.317   4.441 -0.3329 -0.3982  0.3029
 2399SOL    HW1 9594   0.187   5.371   4.403 -0.4467 -0.1511  0.8551
 2399SOL    HW2 9595   0.326   5.379   4.464 -0.4620 -0.4863  0.9359
 2399SOL     MW 9596   0.257   5.333   4.439 -0.3656 -0.3768  0.4624
 2400SOL     OW 9597   2.433   1.291   2.796 -0.3344  0.1548 -0.2921
 2400SOL    HW1 9598   2.507   1.235   2.772 -0.6795 -0.4821  0.0821
 2400SOL    HW2 9599   2.419   1.273   2.889 -0.6281  0.6633 -0.2365
 2400SOL     MW 9600   2.441   1.281   2.805 -0.4203  0.1375 -0.2343
 2401SOL     OW 9601   0.770   5.200   4.601  0.4889  0.0491 -0.3110
 2401SOL    HW1 9602   0.689   5.153   4.621 -1.4491  2.6335 -1.4365
 2401SOL    HW2 9603   0.817   5.143   4.541 -0.1813 -1.7840  0.8352
 2401SOL     MW 9604   0.765   5.186   4.595  0.1379  0.1502 -0.3082
 2402SOL     OW 9605   1.760   4.960   3.544  0.0525  0.9727 -0.6061
 2402SOL    HW1 9606   1.788   4.995   3.460  2.1642  0.9671  0.0564
 2402SOL    HW2 9607   1.704   5.028   3.582  1.6161  2.3234 -0.6661
 2402SOL     MW 9608   1.756   4.974   3.538  0.5471  1.1537 -0.5250
 2403SOL     OW 9609   0.431   3.745   4.399  0.3491 -0.0781 -0.2196
 2403SOL    HW1 9610   0.360   3.701   4.446 -0.4304 -1.3399 -2.4299
 2403SOL    HW2 9611   0.471   3.677   4.346  1.3957  1.1911 -1.1291
 2403SOL     MW 9612   0.427   3.730   4.398  0.3850 -0.0771 -0.6395
 2404SOL     OW 9613   5.351   4.285   1.030 -0.9595  0.5506 -0.3523
 2404SOL    HW1 9614   5.396   4.203   1.009 -0.3515  0.9598 -0.6655
 2404SOL    HW2 9615   5.351   4.334   0.948 -2.0584  0.5266 -0.3788
 2404SOL     MW 9616   5.357   4.280   1.016 -1.0255  0.6024 -0.3980
 2405SOL     OW 9617   5.526   2.944   3.006 -0.5946 -0.4428  0.1154
 2405SOL    HW1 9618   5.544   2.888   2.931  0.5519  0.0295  0.0114
 2405SOL    HW2 9619   5.444   2.912   3.041  0.8343 -3.3621  1.1016
 2405SOL     MW 9620   5.518   2.932   3.001 -0.2480 -0.7721  0.2341
 2406SOL     OW 9621   1.637   5.137   3.026  0.3078 -0.3118  0.1604
 2406SOL    HW1 9622   1.669   5.116   2.938  1.6467 -0.1449  0.5858
 2406SOL    HW2 9623   1.614   5.230   3.022 -2.7051 -0.9757 -0.8633
 2406SOL     MW 9624   1.638   5.147   3.014  0.0825 -0.3787  0.0799
 2407SOL     OW 9625   2.566   0.900   0.747 -0.3086  0.4674  0.0397
 2407SOL    HW1 9626   2.658   0.892   0.725 -0.4119  0.5754 -0.4380
 2407SOL    HW2 9627   2.523   0.830   0.697 -0.6455  1.2025 -0.7249
 2407SOL     MW 9628   2.572   0.889   0.737 -0.3678  0.5809 -0.1275
 2408SOL     OW 9629   2.415   3.035   1.017 -0.3045 -0.1965 -0.1757
 2408SOL    HW1 9630   2.375   2.955   1.051 -0.4399 -0.0072  0.1150
 2408SOL    HW2 9631   2.398   3.032   0.923 -2.0776  0.4535  0.0840
 2408SOL     MW 9632   2.407   3.024   1.009 -0.5614 -0.0835 -0.1016
 2409SOL     OW 9633   1.727   0.793   1.954  0.3861 -0.4445  0.5390
 2409SOL    HW1 9634   1.646   0.750   1.925  0.4102 -0.3124  0.2702
 2409SOL    HW2 9635   1.716   0.884   1.929  0.5938 -0.4143  0.5563
 2409SOL     MW 9636   1.715   0.799   1.946  0.4173 -0.4227  0.5051
 2410SOL     OW 9637   4.988   4.975   4.595 -0.2953 -0.4215  0.4591
 2410SOL    HW1 9638   5.047   5.035   4.549  0.5964  0.1777  2.2528
 2410SOL    HW2 9639   4.916   4.959   4.534  0.3985  0.9904 -0.7804
 2410SOL     MW 9640   4.986   4.981   4.581 -0.0819 -0.1508  0.5337
 2411SOL     OW 9641   1.088   0.544   3.702  0.3995 -0.4151 -0.3902
 2411SOL    HW1 9642   1.122   0.614   3.646  1.8802 -0.8650 -0.0921
 2411SOL    HW2 9643   1.038   0.488   3.642  1.5411 -0.6173 -1.1887
 2411SOL     MW 9644   1.086   0.546   3.686  0.7524 -0.5029 -0.4575
 2412SOL     OW 9645   3.781   5.216   4.031  0.6021 -0.3009  0.4739
 2412SOL    HW1 9646   3.828   5.168   4.099 -1.2965 -3.6621 -0.3796
 2412SOL    HW2 9647   3.851   5.255   3.978  2.2012 -0.4179  2.3538
 2412SOL     MW 9648   3.797   5.215   4.033  0.5618 -0.7690  0.6120
 2413SOL     OW 9649   0.815   1.080   4.987 -0.1244  0.0214  0.4165
 2413SOL    HW1 9650   0.781   0.992   5.005 -0.3542  0.0794  0.2720
 2413SOL    HW2 9651   0.785   1.133   5.061 -1.0446  0.2538 -0.1033
 2413SOL     MW 9652   0.807   1.075   5.000 -0.2792  0.0605  0.3271
 2414SOL     OW 9653   2.097   4.099   4.572 -0.0575  0.0041  0.5374
 2414SOL    HW1 9654   2.109   4.014   4.615  0.4421  1.1172  2.7859
 2414SOL    HW2 9655   2.008   4.125   4.596  0.6513  1.1896  2.0353
 2414SOL     MW 9656   2.086   4.091   4.581  0.1051  0.3135  1.0416
 2415SOL     OW 9657   3.095   3.051   2.470 -0.2469  0.1264  0.0046
 2415SOL    HW1 9658   3.015   3.073   2.517 -0.8418 -0.2985 -0.7809
 2415SOL    HW2 9659   3.082   2.960   2.441  0.0373  0.4114 -1.0749
 2415SOL     MW 9660   3.082   3.041   2.472 -0.2887  0.1075 -0.2464
 2416SOL     OW 9661   3.550   1.075   1.924 -0.5744 -0.0587  0.2389
 2416SOL    HW1 9662   3.602   1.126   1.986  1.2867 -2.0913  0.4556
 2416SOL    HW2 9663   3.465   1.119   1.922  0.6210  2.4917  1.0546
 2416SOL     MW 9664   3.546   1.088   1.932 -0.1631  0.0110  0.3779
 2417SOL     OW 9665   3.124   3.161   2.211 -0.3647  0.1728 -0.7198
 2417SOL    HW1 9666   3.114   3.125   2.299  1.4459  0.9807 -0.1435
 2417SOL    HW2 9667   3.042   3.138   2.166 -0.4097 -2.2454  0.4434
 2417SOL     MW 9668   3.112   3.153   2.217 -0.1271 -0.0439 -0.4857
 2418SOL     OW 9669   2.018   1.433   3.151  0.0015  0.0960  0.6278
 2418SOL    HW1 9670   2.108   1.406   3.170 -0.1108  0.4608  1.7480
 2418SOL    HW2 9671   2.021   1.461   3.059  1.2281  0.8516  0.8648
 2418SOL     MW 9672   2.031   1.433   3.141  0.1515  0.2468  0.8105
 2419SOL     OW 9673   5.492   4.711   2.326 -0.3971 -0.4181  0.0604
 2419SOL    HW1 9674   5.427   4.775   2.296 -0.4054 -1.1724 -1.7107
 2419SOL    HW2 9675   5.541   4.756   2.394 -0.6541  1.3427 -0.8570
 2419SOL     MW 9676   5.490   4.726   2.331 -0.4328 -0.2827 -0.3014
 2420SOL     OW 9677   4.098   0.752   0.904 -0.2416 -0.2749  0.4553
 2420SOL    HW1 9678   4.174   0.811   0.909 -0.4776  0.1452 -0.5868
 2420SOL    HW2 9679   4.061   0.753   0.993  1.3515 -1.0254  1.1616
 2420SOL     MW 9680   4.103   0.760   0.917 -0.0589 -0.3194  0.4101
 2421SOL     OW 9681   4.169   3.941   0.676 -0.4535 -0.2942  0.0751
 2421SOL    HW1 9682   4.095   3.882   0.665 -1.2253  0.7002 -0.2484
 2421SOL    HW2 9683   4.139   4.024   0.638  0.9263  0.0510 -0.3206
 2421SOL     MW 9684   4.155   3.944   0.670 -0.3717 -0.1139 -0.0217
 2422SOL     OW 9685   5.507   0.498   2.671 -0.0290  0.5616 -0.7469
 2422SOL    HW1 9686   5.507   0.477   2.578 -0.3921 -3.5910  0.0036
 2422SOL    HW2 9687   5.422   0.539   2.687 -1.0479 -1.0149 -1.8752
 2422SOL     MW 9688   5.496   0.501   2.661 -0.2150 -0.2094 -0.7977
 2423SOL     OW 9689   0.128   2.947   0.331 -0.5245 -0.2156 -0.0927
 2423SOL    HW1 9690   0.106   2.860   0.364  0.4922 -1.3029 -2.0573
 2423SOL    HW2 9691   0.150   2.932   0.239 -0.1809  2.1190 -0.4477
 2423SOL     MW 9692   0.128   2.933   0.323 -0.3414 -0.0477 -0.4049
 2424SOL     OW 9693   1.781   1.777   3.212  0.2506  0.3995  0.0554
 2424SOL    HW1 9694   1.759   1.824   3.293 -1.4536  1.1567 -0.7993
 2424SOL    HW2 9695   1.753   1.687   3.228  0.9355  0.2819  0.6791
 2424SOL     MW 9696   1.774   1.771   3.225  0.1134  0.4856  0.0243
 2425SOL     OW 9697   1.097   1.846   5.488 -0.2728 -0.4578 -0.3544
 2425SOL    HW1 9698   1.021   1.905   5.488 -1.2719 -1.6389  1.2255
 2425SOL    HW2 9699   1.116   1.831   5.396 -1.8398  0.0365 -0.7900
 2425SOL     MW 9700   1.089   1.852   5.476 -0.6182 -0.5502 -0.2004
 2426SOL     OW 9701   4.945   3.161   3.006 -0.4404 -0.5354 -0.0944
 2426SOL    HW1 9702   4.935   3.191   3.096 -1.2977  0.7177 -0.5851
 2426SOL    HW2 9703   4.863   3.185   2.963  0.7662  0.8637 -1.7489
 2426SOL     MW 9704   4.932   3.168   3.012 -0.3934 -0.1785 -0.3831
 2427SOL     OW 9705   4.026   4.300   5.245 -0.0394  0.2272  0.1738
 2427SOL    HW1 9706   3.948   4.334   5.200  0.9985  1.9106 -0.4475
 2427SOL    HW2 9707   4.086   4.277   5.174  0.5405  0.2297  0.6573
 2427SOL     MW 9708   4.024   4.302   5.229  0.1784  0.4541  0.1553
 2428SOL     OW 9709   2.265   0.591   1.481  0.1309  0.0340  0.9163
 2428SOL    HW1 9710   2.317   0.521   1.519  0.3920  0.6723  1.7706
 2428SOL    HW2 9711   2.232   0.640   1.557  1.8339  2.2116  0.3561
 2428SOL     MW 9712   2.267   0.588   1.496  0.3952  0.4130  0.9559
 2429SOL     OW 9713   2.621   2.924   4.717 -0.1146 -0.5830 -0.4289
 2429SOL    HW1 9714   2.679   2.999   4.703  0.9560 -1.3965 -0.4135
 2429SOL    HW2 9715   2.545   2.962   4.763 -0.1339  0.6887 -1.4468
 2429SOL     MW 9716   2.618   2.939   4.721  0.0269 -0.5213 -0.5638
 2430SOL     OW 9717   2.111   1.984   4.361  0.2618 -0.4644  0.2809
 2430SOL    HW1 9718   2.044   1.959   4.297 -0.3373  0.6756  0.4490
 2430SOL    HW2 9719   2.078   1.948   4.443  0.0418 -0.2246  0.2987
 2430SOL     MW 9720   2.097   1.976   4.363  0.1515 -0.2787  0.3059
 2431SOL     OW 9721   0.839   1.066   4.454  0.1498 -0.6259 -0.2961
 2431SOL    HW1 9722   0.832   1.042   4.361 -0.9792  0.1459 -0.4276
 2431SOL    HW2 9723   0.930   1.094   4.464  1.1137 -3.3778 -0.4897
 2431SOL     MW 9724   0.850   1.066   4.443  0.1276 -0.8924 -0.3398
 2432SOL     OW 9725   2.447   5.463   1.617  0.4895  0.1969  0.0273
 2432SOL    HW1 9726   2.390   5.443   1.691 -0.3210  0.4435 -0.5175
 2432SOL    HW2 9727   2.521   5.510   1.655  0.7309 -0.8143  0.8466
 2432SOL     MW 9728   2.450   5.467   1.632  0.4130  0.0940  0.0642
 2433SOL     OW 9729   3.605   0.332   3.325  0.3870 -0.3003 -0.1597
 2433SOL    HW1 9730   3.526   0.342   3.272 -0.0062 -0.3065  0.4166
 2433SOL    HW2 9731   3.631   0.422   3.347  0.1542 -0.3233  0.2116
 2433SOL     MW 9732   3.598   0.346   3.320  0.3028 -0.3042 -0.0322
 2434SOL     OW 9733   3.507   0.088   2.665  0.0852 -0.6665 -0.0787
 2434SOL    HW1 9734   3.448   0.030   2.617 -1.5429  1.0828 -0.3025
 2434SOL    HW2 9735   3.473   0.176   2.648  3.6089  0.5996 -1.3996
 2434SOL     MW 9736   3.495   0.092   2.657  0.3403 -0.2607 -0.2866
 2435SOL     OW 9737   1.975   4.694   4.641  0.0863 -0.4005 -0.1762
 2435SOL    HW1 9738   2.007   4.781   4.617  0.6012 -0.2074  1.0986
 2435SOL    HW2 9739   1.910   4.710   4.709  0.8101 -1.0256  0.7005
 2435SOL     MW 9740   1.971   4.708   4.647  0.2530 -0.4586  0.1134
 2436SOL     OW 9741   2.570   4.784   2.738  0.3602  0.2491  0.4817
 2436SOL    HW1 9742   2.664   4.786   2.758  0.1710  1.3783  1.3771
 2436SOL    HW2 9743   2.528   4.787   2.824 -0.4975  1.3897  0.0331
 2436SOL     MW 9744   2.577   4.785   2.752  0.2193  0.5545  0.5418
 2437SOL     OW 9745   4.600   2.394   4.150 -0.1228 -0.1909 -0.2802
 2437SOL    HW1 9746   4.537   2.354   4.210 -0.6846  0.3055 -0.5291
 2437SOL    HW2 9747   4.686   2.374   4.188 -0.4419 -0.5033  0.2924
 2437SOL     MW 9748   4.603   2.386   4.163 -0.2414 -0.1661 -0.2367
 2438SOL     OW 9749   3.396   1.307   0.993 -0.0911  0.4706  0.2827
 2438SOL    HW1 9750   3.303   1.286   0.994  0.5962 -3.1979  1.0861
 2438SOL    HW2 9751   3.426   1.291   1.082  1.2783  1.9781  0.1412
 2438SOL     MW 9752   3.387   1.302   1.005  0.1857  0.1798  0.3718
 2439SOL     OW 9753   1.542   4.716   3.260  0.0425 -0.2199 -0.0207
 2439SOL    HW1 9754   1.541   4.634   3.310  2.4015 -1.1672 -1.3559
 2439SOL    HW2 9755   1.509   4.691   3.174  0.8833  0.1875 -0.4672
 2439SOL     MW 9756   1.537   4.701   3.255  0.4731 -0.2926 -0.2605
 2440SOL     OW 9757   1.848   4.754   5.491 -0.5042  0.0475 -0.6032
 2440SOL    HW1 9758   1.936   4.718   5.499 -0.5695 -0.0754 -0.4516
 2440SOL    HW2 9759   1.818   4.725   5.405 -2.2379 -3.9578  1.1223
 2440SOL     MW 9760   1.856   4.745   5.480 -0.7463 -0.5081 -0.3506
 2441SOL     OW 9761   1.131   4.133   0.464 -0.5999 -0.0535  0.2922
 2441SOL    HW1 9762   1.144   4.112   0.372 -0.0106 -0.1126  0.3859
 2441SOL    HW2 9763   1.110   4.050   0.506 -0.0973 -0.1544  0.3448
 2441SOL     MW 9764   1.130   4.119   0.457 -0.4530 -0.0750  0.3119
 2442SOL     OW 9765   3.740   4.620   1.255 -0.1423 -0.2375  0.3361
 2442SOL    HW1 9766   3.719   4.713   1.264  0.5632 -0.0890  0.5505
 2442SOL    HW2 9767   3.655   4.576   1.247 -0.4330  0.5673 -1.2776
 2442SOL     MW 9768   3.726   4.627   1.255 -0.0864 -0.1092  0.1478
 2443SOL     OW 9769   3.828   0.148   4.669 -0.4175 -0.0366 -0.2017
 2443SOL    HW1 9770   3.892   0.106   4.611  1.0689  1.7963  0.0179
 2443SOL    HW2 9771   3.799   0.078   4.727 -0.3238 -1.4257 -1.7542
 2443SOL     MW 9772   3.833   0.133   4.669 -0.2048  0.0231 -0.3811
 2444SOL     OW 9773   3.100   2.553   1.258 -0.0272 -0.1618 -0.3636
 2444SOL    HW1 9774   3.117   2.643   1.229 -0.4049  0.0623  0.0851
 2444SOL    HW2 9775   3.046   2.564   1.337 -0.5349 -0.7903 -0.6181
 2444SOL     MW 9776   3.095   2.567   1.265 -0.1463 -0.2162 -0.3374
 2445SOL     OW 9777   0.663   2.691   2.794 -0.2703 -0.2427  0.1357
 2445SOL    HW1 9778   0.584   2.708   2.846  0.0182 -0.5274  0.6784
 2445SOL    HW2 9779   0.634   2.697   2.703 -0.7040  0.6343  0.3242
 2445SOL     MW 9780   0.648   2.694   2.789 -0.2898 -0.1630  0.2341
 2446SOL     OW 9781   0.811   4.518   4.340  0.4961  0.0847 -0.0644
 2446SOL    HW1 9782   0.780   4.601   4.376 -0.0251  0.0579 -0.4285
 2446SOL    HW2 9783   0.735   4.460   4.347  0.6789 -0.1908 -0.3398
 2446SOL     MW 9784   0.796   4.521   4.346  0.4505  0.0440 -0.1504
 2447SOL     OW 9785   4.797   3.051   1.702 -0.3684  0.3527 -0.6031
 2447SOL    HW1 9786   4.840   3.037   1.618  1.2312  1.5868 -0.0359
 2447SOL    HW2 9787   4.745   3.131   1.689  0.0027  0.6334 -0.4011
 2447SOL     MW 9788   4.796   3.060   1.689 -0.1032  0.5565 -0.4996
 2448SOL     OW 9789   1.289   2.824   4.873  0.0615 -0.1553  0.3684
 2448SOL    HW1 9790   1.230   2.749   4.862  0.9234 -0.8749  0.4644
 2448SOL    HW2 9791   1.277   2.876   4.794  1.2847 -1.7447 -0.9443
 2448SOL     MW 9792   1.280   2.821   4.861  0.3421 -0.4661  0.2046
 2449SOL     OW 9793   5.226   2.124   2.561 -0.0801  0.0083  0.4837
 2449SOL    HW1 9794   5.174   2.089   2.634 -1.4082  1.0729  0.0812
 2449SOL    HW2 9795   5.180   2.094   2.482  0.1227  0.6470  0.1167
 2449SOL     MW 9796   5.213   2.115   2.560 -0.2315  0.2375  0.3802
 2450SOL     OW 9797   1.370   2.549   4.587  0.3763 -0.5248 -0.2441
 2450SOL    HW1 9798   1.411   2.598   4.658 -0.6285  1.2938 -0.8442
 2450SOL    HW2 9799   1.441   2.498   4.548  0.8454 -2.0954  2.4116
 2450SOL     MW 9800   1.385   2.548   4.591  0.3042 -0.4914  0.0325
 2451SOL     OW 9801   1.452   4.557   4.305  0.0040  0.0244  0.4417
 2451SOL    HW1 9802   1.435   4.487   4.368 -0.3990  0.4117  0.7703
 2451SOL    HW2 9803   1.530   4.601   4.339  0.4697 -0.4757  0.0443
 2451SOL     MW 9804   1.460   4.553   4.318  0.0124  0.0092  0.4324
 2452SOL     OW 9805   2.916   1.468   4.325 -0.2269 -0.2106 -0.2067
 2452SOL    HW1 9806   2.862   1.391   4.310 -1.5587  0.9383 -1.6325
 2452SOL    HW2 9807   2.886   1.503   4.409  0.0313 -0.9383  0.1954
 2452SOL     MW 9808   2.905   1.463   4.334 -0.3714 -0.1539 -0.3445
 2453SOL     OW 9809   0.432   5.389   3.309 -0.2151  0.3473  0.6109
 2453SOL    HW1 9810   0.459   5.324   3.244 -2.3733  0.8625 -0.9158
 2453SOL    HW2 9811   0.504   5.451   3.312  0.1981 -0.0131 -0.8809
 2453SOL     MW 9812   0.445   5.388   3.300 -0.4500  0.3681  0.2047
 2454SOL     OW 9813   1.494   1.481   1.026  0.1867  0.2956 -0.1013
 2454SOL    HW1 9814   1.412   1.464   0.979 -0.2236  1.4343  0.1709
 2454SOL    HW2 9815   1.516   1.571   1.004  1.8409 -0.2478 -0.8458
 2454SOL     MW 9816   1.486   1.491   1.016  0.3541  0.3757 -0.1648
 2455SOL     OW 9817   1.479   0.601   3.934  0.9810  0.2512  0.4856
 2455SOL    HW1 9818   1.546   0.547   3.891  1.4435 -0.4035  1.9644
 2455SOL    HW2 9819   1.523   0.636   4.012 -0.1837  0.4212  1.0776
 2455SOL     MW 9820   1.494   0.598   3.939  0.8865  0.1860  0.7643
 2456SOL     OW 9821   4.558   2.263   0.195 -0.0482  0.0493  0.3137
 2456SOL    HW1 9822   4.530   2.227   0.279  0.1726 -0.0977  0.3256
 2456SOL    HW2 9823   4.600   2.347   0.217  0.8807 -0.4418  0.4547
 2456SOL     MW 9824   4.560   2.270   0.209  0.1065 -0.0365  0.3343
 2457SOL     OW 9825   0.129   4.782   2.564  0.2235  0.1704  0.4108
 2457SOL    HW1 9826   0.222   4.777   2.543 -0.4345 -0.7826 -2.7432
 2457SOL    HW2 9827   0.113   4.705   2.619  1.2250  0.2446  0.8332
 2457SOL     MW 9828   0.139   4.771   2.569  0.2697  0.0521  0.0432
 2458SOL     OW 9829   3.928   3.494   4.586  0.1747 -0.1315  0.8669
 2458SOL    HW1 9830   3.870   3.420   4.572  0.7377 -0.3823 -0.3001
 2458SOL    HW2 9831   3.893   3.539   4.663 -0.0738 -1.6969  1.7044
 2458SOL     MW 9832   3.916   3.490   4.594  0.2171 -0.3759  0.8226
 2459SOL     OW 9833   0.059   2.368   1.455 -0.7612 -0.1826 -0.1947
 2459SOL    HW1 9834   0.043   2.340   1.545 -1.6799  0.9473  0.0180
 2459SOL    HW2 9835   0.009   2.306   1.402  0.4515 -1.3601 -0.0030
 2459SOL     MW 9836   0.050   2.356   1.460 -0.7216 -0.1890 -0.1402
 2460SOL     OW 9837   0.866   1.346   0.989 -0.1077  0.4551  0.0643
 2460SOL    HW1 9838   0.904   1.307   0.910 -0.0097 -0.5308  0.5760
 2460SOL    HW2 9839   0.815   1.421   0.957 -0.5415 -0.2634 -0.9890
 2460SOL     MW 9840   0.864   1.351   0.974 -0.1529  0.2257 -0.0086
 2461SOL     OW 9841   4.254   1.425   3.049 -0.1286  0.4567  0.8259
 2461SOL    HW1 9842   4.271   1.337   3.016 -0.8369 -0.0625  1.7959
 2461SOL    HW2 9843   4.210   1.470   2.976  1.6869  0.5592 -0.2524
 2461SOL     MW 9844   4.250   1.419   3.035  0.0204  0.4007  0.8113
 2462SOL     OW 9845   1.992   4.357   5.388 -0.1552 -0.3897 -0.0478
 2462SOL    HW1 9846   2.065   4.300   5.363 -0.8773 -1.4747  0.2387
 2462SOL    HW2 9847   1.925   4.339   5.322  0.0283  1.0247 -0.6482
 2462SOL     MW 9848   1.993   4.347   5.376 -0.2277 -0.3454 -0.0900
 2463SOL     OW 9849   5.276   3.085   4.998  0.3072  0.1341 -0.0219
 2463SOL    HW1 9850   5.338   3.025   5.040  1.8165  2.0959  0.7092
 2463SOL    HW2 9851   5.195   3.073   5.047  0.6830 -1.0388  0.3501
 2463SOL     MW 9852   5.274   3.075   5.010  0.5609  0.2403  0.1266
 2464SOL     OW 9853   3.593   4.278   2.919  0.5021 -0.1043  0.0888
 2464SOL    HW1 9854   3.508   4.321   2.930  0.6504 -0.2736  2.4723
 2464SOL    HW2 9855   3.571   4.186   2.906  0.1407 -0.9815  4.7879
 2464SOL     MW 9856   3.579   4.271   2.919  0.4735 -0.2451  1.0419
 2465SOL     OW 9857   3.691   0.642   3.826  0.0637  0.1144 -0.4019
 2465SOL    HW1 9858   3.605   0.642   3.784 -0.9674  1.1985  1.5715
 2465SOL    HW2 9859   3.721   0.551   3.819 -1.5215 -0.4226 -0.5620
 2465SOL     MW 9860   3.684   0.630   3.819 -0.2884  0.1880 -0.1579
 2466SOL     OW 9861   1.710   4.097   0.980  0.0768  0.4784 -0.0155
 2466SOL    HW1 9862   1.771   4.037   1.022 -0.7125 -0.4132 -0.1032
 2466SOL    HW2 9863   1.740   4.102   0.889  0.2873  0.4041  0.0498
 2466SOL     MW 9864   1.722   4.089   0.974 -0.0011  0.3484 -0.0185
 2467SOL     OW 9865   5.135   0.176   5.446 -0.0783  0.1852  0.2388
 2467SOL    HW1 9866   5.098   0.109   5.389 -0.3388  1.7276 -1.4914
 2467SOL    HW2 9867   5.222   0.193   5.410 -0.1333  0.9946  0.4702
 2467SOL     MW 9868   5.142   0.169   5.434 -0.1207  0.5017  0.0371
 2468SOL     OW 9869   4.199   5.508   3.080  0.1289  0.5796 -0.2230
 2468SOL    HW1 9870   4.120   5.491   3.029  0.0552  0.2861 -0.0163
 2468SOL    HW2 9871   4.257   5.554   3.020  0.6906 -1.2339 -1.1284
 2468SOL     MW 9872   4.196   5.512   3.065  0.1946  0.2960 -0.3170
 2469SOL     OW 9873   2.114   1.805   5.027 -0.3062  0.6218  0.3485
 2469SOL    HW1 9874   2.052   1.754   4.975  0.2217  1.7129 -1.4234
 2469SOL    HW2 9875   2.186   1.744   5.044 -0.1638  0.4519 -0.8222
 2469SOL     MW 9876   2.115   1.790   5.023 -0.2160  0.7458 -0.0475
 2470SOL     OW 9877   0.614   3.840   3.525  0.5487  0.0501  0.1055
 2470SOL    HW1 9878   0.647   3.822   3.614  0.1096  0.0063  0.2587
 2470SOL    HW2 9879   0.686   3.888   3.483  0.6122  0.4046  0.6062
 2470SOL     MW 9880   0.628   3.844   3.531  0.4982  0.0919  0.1935
 2471SOL     OW 9881   2.934   1.889   4.304  0.2950 -0.1070 -0.3010
 2471SOL    HW1 9882   2.874   1.890   4.378  2.3177 -1.0631  1.4370
 2471SOL    HW2 9883   2.877   1.880   4.227 -1.7443 -1.5319  1.2778
 2471SOL     MW 9884   2.919   1.888   4.303  0.2928 -0.4274  0.1454
 2472SOL     OW 9885   0.686   5.133   3.825 -0.4911  0.3963  0.6615
 2472SOL    HW1 9886   0.713   5.124   3.734 -0.5963  1.1950  0.5388
 2472SOL    HW2 9887   0.614   5.072   3.836  0.5578 -0.8834  0.6615
 2472SOL     MW 9888   0.680   5.124   3.815 -0.3641  0.3316  0.6450
 2473SOL     OW 9889   2.029   0.622   0.008 -0.0816  0.0851 -0.3085
 2473SOL    HW1 9890   2.120   0.621  -0.023 -0.5119  0.0192 -1.6378
 2473SOL    HW2 9891   2.036   0.629   0.103  1.3729 -2.9424 -0.0981
 2473SOL     MW 9892   2.043   0.623   0.016  0.0562 -0.3312 -0.4591
 2474SOL     OW 9893   2.604   3.931   1.989 -0.3796  0.2745  0.7104
 2474SOL    HW1 9894   2.540   3.948   1.919 -0.1125 -0.5151  0.2640
 2474SOL    HW2 9895   2.550   3.904   2.064 -0.5952  0.0962  0.4902
 2474SOL     MW 9896   2.588   3.930   1.990 -0.3727  0.1442  0.6207
 2475SOL     OW 9897   4.276   4.580   0.349  0.5541 -0.4985 -0.2126
 2475SOL    HW1 9898   4.217   4.634   0.402 -1.1197 -2.5195  0.1080
 2475SOL    HW2 9899   4.361   4.624   0.356 -0.2147  0.8060  1.9116
 2475SOL     MW 9900   4.280   4.594   0.357  0.2254 -0.5949  0.1164
 2476SOL     OW 9901   1.294   3.829   4.160 -0.0288 -0.0787  0.5830
 2476SOL    HW1 9902   1.232   3.853   4.091 -0.4566 -1.4089  0.4794
 2476SOL    HW2 9903   1.311   3.911   4.207 -1.1653  0.4805  0.0516
 2476SOL     MW 9904   1.288   3.843   4.157 -0.2394 -0.1824  0.4975
 2477SOL     OW 9905   4.026   4.191   0.645 -0.3024 -0.3975 -0.3238
 2477SOL    HW1 9906   3.979   4.243   0.580  0.9286  0.7620 -0.3261
 2477SOL    HW2 9907   3.960   4.173   0.713 -0.9661  0.4687 -0.7220
 2477SOL     MW 9908   4.011   4.196   0.646 -0.2261 -0.1249 -0.3777
 2478SOL     OW 9909   1.058   4.239   2.669  0.4833 -0.5986  0.1287
 2478SOL    HW1 9910   1.073   4.320   2.718 -1.0336 -0.8921  1.1421
 2478SOL    HW2 9911   1.033   4.268   2.582  1.3076 -0.0205  0.0703
 2478SOL     MW 9912   1.056   4.254   2.664  0.3901 -0.5603  0.2573
 2479SOL     OW 9913   0.036   2.011   1.384  0.2600  0.2312  0.1287
 2479SOL    HW1 9914  -0.035   2.037   1.444  0.8568  3.9226 -0.4943
 2479SOL    HW2 9915  -0.000   2.026   1.297  1.2595  0.6248 -0.2324
 2479SOL     MW 9916   0.021   2.017   1.380  0.4748  0.7809 -0.0038
 2480SOL     OW 9917   3.153   4.550   4.002 -0.6118  0.2990  0.2107
 2480SOL    HW1 9918   3.173   4.557   4.095 -1.0108  0.4301  0.2899
 2480SOL    HW2 9919   3.234   4.575   3.958 -0.7794  1.4925  0.5231
 2480SOL     MW 9920   3.166   4.555   4.008 -0.6881  0.4772  0.2634
 2481SOL     OW 9921   4.638   2.762   1.392 -0.5754  0.1783  0.2669
 2481SOL    HW1 9922   4.729   2.760   1.422 -0.5043 -0.1739  0.0394
 2481SOL    HW2 9923   4.642   2.802   1.305 -0.4566 -1.0059 -0.3042
 2481SOL     MW 9924   4.651   2.767   1.384 -0.5499 -0.0285  0.1594
 2482SOL     OW 9925   1.323   5.168   4.672  0.1110 -0.3327  0.0065
 2482SOL    HW1 9926   1.361   5.100   4.615  0.4533  0.1323 -0.3306
 2482SOL    HW2 9927   1.393   5.233   4.681 -0.1743 -0.0807  0.4241
 2482SOL     MW 9928   1.337   5.168   4.665  0.1186 -0.2362  0.0173
 2483SOL     OW 9929   2.689   1.285   3.046  0.3109 -0.0880  0.5517
 2483SOL    HW1 9930   2.771   1.247   3.078 -0.4850 -1.1876  1.3763
 2483SOL    HW2 9931   2.702   1.296   2.952  1.0904 -1.0882  0.5261
 2483SOL     MW 9932   2.702   1.281   3.038  0.3087 -0.3706  0.6592
 2484SOL     OW 9933   5.065   1.483   1.894  0.6219 -0.2043  0.7083
 2484SOL    HW1 9934   5.025   1.545   1.833  0.6463  0.4557  1.3386
 2484SOL    HW2 9935   5.074   1.533   1.975  0.4024 -1.1298  1.3136
 2484SOL     MW 9936   5.061   1.498   1.897  0.5956 -0.2400  0.8746
 2485SOL     OW 9937   1.917   3.522   3.876 -0.4035  0.9398 -0.3211
 2485SOL    HW1 9938   1.846   3.577   3.841 -1.2654 -0.3470 -0.6625
 2485SOL    HW2 9939   1.942   3.566   3.957 -1.8714  1.2249  0.0179
 2485SOL     MW 9940   1.911   3.535   3.882 -0.7171  0.8050 -0.3214
 2486SOL     OW 9941   4.037   0.423   2.481  0.5643  0.4645 -1.2605
 2486SOL    HW1 9942   4.019   0.503   2.433  0.6658  0.3457 -1.4967
 2486SOL    HW2 9943   4.102   0.377   2.429  2.2338  1.2890  0.0107
 2486SOL     MW 9944   4.043   0.428   2.468  0.8026  0.5595 -1.1212
 2487SOL     OW 9945   3.729   4.348   5.184 -0.2996  0.1011 -0.1416
 2487SOL    HW1 9946   3.769   4.433   5.206 -0.0686  1.1178 -3.8580
 2487SOL    HW2 9947   3.668   4.368   5.113 -1.4326 -2.6662 -0.0500
 2487SOL     MW 9948   3.726   4.362   5.177 -0.4210 -0.1345 -0.6294
 2488SOL     OW 9949   3.169   0.187   2.505  0.1786  0.3662 -0.5765
 2488SOL    HW1 9950   3.125   0.141   2.577  0.5902 -0.5272 -0.8878
 2488SOL    HW2 9951   3.144   0.278   2.517  1.0547  0.4099  1.3126
 2488SOL     MW 9952   3.160   0.193   2.517  0.3519  0.2518 -0.3642
 2489SOL     OW 9953   2.636   3.629   0.063  0.2051  0.8691  0.2143
 2489SOL    HW1 9954   2.616   3.719   0.038 -0.1955  0.7355  0.0454
 2489SOL    HW2 9955   2.555   3.581   0.049  0.1592  0.6496  1.1393
 2489SOL     MW 9956   2.623   3.635   0.058  0.1450  0.8216  0.3160
 2490SOL     OW 9957   2.633   4.866   3.551 -0.3025 -0.2676 -0.4901
 2490SOL    HW1 9958   2.702   4.922   3.586 -0.2393 -0.6613  0.0363
 2490SOL    HW2 9959   2.679   4.788   3.520 -0.3664  0.0499 -1.4054
 2490SOL     MW 9960   2.648   4.863   3.551 -0.3026 -0.2778 -0.5424
 2491SOL     OW 9961   2.609   0.418   0.850 -0.1795 -0.1385  0.1732
 2491SOL    HW1 9962   2.658   0.435   0.770 -0.1117 -1.4901 -0.1051
 2491SOL    HW2 9963   2.623   0.325   0.867 -1.1651 -0.1429  1.0923
 2491SOL     MW 9964   2.617   0.407   0.841 -0.3030 -0.3210  0.2594
 2492SOL     OW 9965   4.226   3.512   0.475 -0.2731 -0.2843 -0.1711
 2492SOL    HW1 9966   4.318   3.536   0.461 -0.3232  0.3167  0.4844
 2492SOL    HW2 9967   4.177   3.593   0.458 -0.4750  0.0407  1.7514
 2492SOL     MW 9968   4.232   3.526   0.471 -0.3070 -0.1597  0.1759
 2493SOL     OW 9969   0.485   1.938   0.048  0.0295  0.1806 -0.4512
 2493SOL    HW1 9970   0.552   1.910  -0.014  1.0784 -4.1683  2.2104
 2493SOL    HW2 9971   0.533   1.966   0.126 -1.1260 -1.7849  1.0545
 2493SOL     MW 9972   0.500   1.938   0.050  0.0152 -0.6692  0.1097
 2494SOL     OW 9973   4.648   1.005   1.378 -0.3508  0.0269  0.5173
 2494SOL    HW1 9974   4.593   0.937   1.416  0.3869 -0.4712  0.7169
 2494SOL    HW2 9975   4.721   0.958   1.339  0.3538  0.7211  0.9671
 2494SOL     MW 9976   4.650   0.989   1.378 -0.1567  0.0533  0.6047
 2495SOL     OW 9977   2.722   1.977   0.619 -0.1819 -0.2728  0.1437
 2495SOL    HW1 9978   2.714   2.065   0.656 -1.4598 -0.9510  1.5554
 2495SOL    HW2 9979   2.724   1.992   0.524 -0.1338  1.2836  0.3595
 2495SOL     MW 9980   2.722   1.991   0.611 -0.3474 -0.1546  0.3627
 2496SOL     OW 9981   3.837   1.407   1.612  0.2885 -0.7791 -0.6124
 2496SOL    HW1 9982   3.860   1.386   1.703  1.6606 -0.2906 -0.8274
 2496SOL    HW2 9983   3.882   1.340   1.560  0.1018 -0.6238 -0.9770
 2496SOL     MW 9984   3.847   1.395   1.617  0.4481 -0.6925 -0.6904
 2497SOL     OW 9985   3.390   3.970   1.845  0.2055 -0.6143  0.2568
 2497SOL    HW1 9986   3.356   4.060   1.840  2.9521  0.5022 -0.4595
 2497SOL    HW2 9987   3.401   3.944   1.753  1.5917 -0.7334  0.4301
 2497SOL     MW 9988   3.387   3.979   1.832  0.7617 -0.4801  0.1838
 2498SOL     OW 9989   3.905   2.381   1.631 -0.1290  0.3215 -0.1439
 2498SOL    HW1 9990   3.949   2.300   1.658 -1.0680 -0.5593 -1.1584
 2498SOL    HW2 9991   3.974   2.432   1.588 -0.0107 -0.9182 -1.4769
 2498SOL     MW 9992   3.920   2.377   1.629 -0.2394  0.0361 -0.4598
 2499SOL     OW 9993   2.150   4.918   1.808 -0.1062  0.2807 -0.0469
 2499SOL    HW1 9994   2.177   5.005   1.782 -0.1837  0.2051 -0.3806
 2499SOL    HW2 9995   2.089   4.932   1.881 -0.8625  0.5551 -0.7120
 2499SOL     MW 9996   2.145   4.931   1.815 -0.2184  0.3075 -0.1813
 2500SOL     OW 9997   0.798   2.770   0.532  0.3306 -0.2914 -0.1999
 2500SOL    HW1 9998   0.809   2.837   0.600  1.7480 -0.6574 -0.0481
 2500SOL    HW2 9999   0.707   2.779   0.505  0.1876  0.9537  0.6050
 2500SOL     MW10000   0.787   2.780   0.538  0.5021 -0.1731 -0.0712
 2501SOL     OW10001   4.422   1.963   1.996 -0.3307  0.1419 -0.1942
 2501SOL    HW110002   4.384   2.029   2.053 -0.6895  0.0735 -0.3522
 2501SOL    HW210003   4.509   1.947   2.032 -0.0191  1.0994 -0.4828
 2501SOL     MW10004   4.429   1.969   2.008 -0.3371  0.2615 -0.2543
 2502SOL     OW10005   0.762   4.773   4.426 -0.3596  0.2992 -0.2628
 2502SOL    HW110006   0.760   4.823   4.345 -0.2223  1.1432  0.2361
 2502SOL    HW210007   0.849   4.788   4.462 -0.5601  0.2832  0.2459
 2502SOL     MW10008   0.773   4.782   4.420 -0.3681  0.4107 -0.1272
 2503SOL     OW10009   4.615   1.972   4.455 -0.1140 -0.3541  0.6584
 2503SOL    HW110010   4.562   1.893   4.466 -0.2613 -0.1906  1.1815
 2503SOL    HW210011   4.650   1.966   4.367 -0.4517 -0.8069  0.5529
 2503SOL     MW10012   4.613   1.961   4.445 -0.1793 -0.3931  0.7146
 2504SOL     OW10013   1.492   0.706   1.896 -0.6555 -0.3979 -0.0051
 2504SOL    HW110014   1.412   0.738   1.937  0.0791 -0.6085  1.6919
 2504SOL    HW210015   1.503   0.761   1.818 -2.0773  0.0710  0.0934
 2504SOL     MW10016   1.483   0.718   1.891 -0.7480 -0.3631  0.2366
 2505SOL     OW10017   5.115   4.723   2.773  0.3265  0.1615 -0.0015
 2505SOL    HW110018   5.056   4.791   2.804  1.2765  0.7457  0.5704
 2505SOL    HW210019   5.180   4.770   2.720  0.0086 -0.5296 -1.0373
 2505SOL     MW10020   5.116   4.739   2.770  0.4115  0.1471 -0.0639
 2506SOL     OW10021   2.518   0.054   0.197  0.2158 -0.6003  0.0931
 2506SOL    HW110022   2.451   0.073   0.132 -1.0559 -1.7133  1.0215
 2506SOL    HW210023   2.478   0.074   0.281  1.2575 -0.7171  0.6430
 2506SOL     MW10024   2.504   0.059   0.199  0.1849 -0.7658  0.2921
 2507SOL     OW10025   4.697   1.637   2.384 -0.1883 -0.0733 -0.0510
 2507SOL    HW110026   4.748   1.661   2.462  1.8067 -0.9711 -1.0049
 2507SOL    HW210027   4.711   1.543   2.374  0.8518  0.2574 -2.2974
 2507SOL     MW10028   4.706   1.628   2.393  0.2201 -0.1496 -0.4817
 2508SOL     OW10029   2.421   2.310   4.560  0.1296  0.3565 -0.0296
 2508SOL    HW110030   2.347   2.280   4.506 -1.3304 -0.7696  2.3962
 2508SOL    HW210031   2.399   2.401   4.581  0.4167  0.6206 -0.8508
 2508SOL     MW10032   2.408   2.318   4.555 -0.0282  0.2405  0.1864
 2509SOL     OW10033   0.926   5.321   1.166 -0.2247 -0.0550  0.5053
 2509SOL    HW110034   0.831   5.316   1.161 -0.1729 -0.3425 -0.4110
 2509SOL    HW210035   0.944   5.410   1.197 -0.7450  1.0224 -2.0319
 2509SOL     MW10036   0.916   5.332   1.170 -0.2877  0.0513  0.0405
 2510SOL     OW10037   2.312   3.643   3.898 -0.3123  0.6303  0.5893
 2510SOL    HW110038   2.240   3.679   3.846  0.2321 -1.3585 -1.7387
 2510SOL    HW210039   2.272   3.619   3.981 -1.8976  1.3429  0.0744
 2510SOL     MW10040   2.297   3.645   3.902 -0.4523  0.4586  0.2067
 2511SOL     OW10041   1.440   0.498   2.499  0.1438 -0.0748  0.3141
 2511SOL    HW110042   1.348   0.474   2.505  0.2611 -0.5592  0.2228
 2511SOL    HW210043   1.455   0.510   2.405  0.1955 -0.0888  0.3207
 2511SOL     MW10044   1.430   0.497   2.487  0.1665 -0.1419  0.3027
 2512SOL     OW10045   0.260   4.678   3.602  0.1029  0.5372  0.0888
 2512SOL    HW110046   0.221   4.703   3.518 -1.8705  0.8208  1.0375
 2512SOL    HW210047   0.317   4.604   3.580 -1.3998 -0.2753 -1.3286
 2512SOL     MW10048   0.262   4.671   3.588 -0.3649  0.4660  0.0257
 2513SOL     OW10049   4.367   1.595   0.111  0.2201 -0.9209  0.2693
 2513SOL    HW110050   4.280   1.611   0.148  0.5006  0.8398  0.2654
 2513SOL    HW210051   4.386   1.674   0.061  2.8231 -0.1606  2.2436
 2513SOL     MW10052   4.358   1.608   0.110  0.6081 -0.5817  0.5345
 2514SOL     OW10053   3.935   5.008   0.645 -0.1204 -0.0582 -0.4917
 2514SOL    HW110054   4.021   4.966   0.637  0.5067  1.2385 -0.7433
 2514SOL    HW210055   3.921   5.015   0.740  0.4801  0.5687 -0.4432
 2514SOL     MW10056   3.945   5.003   0.657  0.0448  0.2007 -0.5190
 2515SOL     OW10057   1.724   1.861   1.436 -0.1644 -0.2517 -0.4182
 2515SOL    HW110058   1.711   1.834   1.527  1.4852  0.0576 -0.0607
 2515SOL    HW210059   1.817   1.849   1.420 -0.3502  0.0867 -1.9586
 2515SOL     MW10060   1.735   1.855   1.446  0.0326 -0.1645 -0.5774
 2516SOL     OW10061   5.164   4.098   0.288 -0.2399 -0.6149 -0.0035
 2516SOL    HW110062   5.141   4.153   0.363  1.5503 -0.6528  0.6222
 2516SOL    HW210063   5.170   4.010   0.325 -0.7285 -0.8712 -0.5109
 2516SOL     MW10064   5.161   4.093   0.303 -0.0647 -0.6545  0.0124
 2517SOL     OW10065   4.251   0.351   4.504 -0.0064  0.2953  0.2696
 2517SOL    HW110066   4.318   0.376   4.441 -0.4976 -1.2150 -0.9008
 2517SOL    HW210067   4.172   0.338   4.452 -0.9570  0.9685  1.4857
 2517SOL     MW10068   4.249   0.353   4.489 -0.2005  0.1826  0.2758
 2518SOL     OW10069   1.110   3.592   5.419 -0.0814  0.1235  0.4259
 2518SOL    HW110070   1.092   3.587   5.513 -0.9058  1.6239  0.3729
 2518SOL    HW210071   1.061   3.668   5.389  0.4522 -0.1255 -1.1675
 2518SOL     MW10072   1.101   3.602   5.428 -0.1205  0.2919  0.2044
 2519SOL     OW10073   1.890   1.204   3.084 -0.0861  0.1045  0.0555
 2519SOL    HW110074   1.826   1.224   3.016  0.4742  0.5812 -0.3360
 2519SOL    HW210075   1.924   1.289   3.112 -0.0477 -0.1086  0.6816
 2519SOL     MW10076   1.886   1.218   3.079 -0.0055  0.1400  0.0870
 2520SOL     OW10077   0.972   4.307   1.286 -0.2459  0.6357 -0.0239
 2520SOL    HW110078   0.997   4.393   1.252 -1.2161  0.9910  0.1200
 2520SOL    HW210079   0.968   4.319   1.381 -1.5558  0.7745 -0.0803
 2520SOL     MW10080   0.975   4.321   1.294 -0.5528  0.7022 -0.0121
 2521SOL     OW10081   1.646   0.801   0.524  0.9472  0.1906 -0.2680
 2521SOL    HW110082   1.697   0.729   0.486  0.7747 -0.1368  0.1231
 2521SOL    HW210083   1.557   0.786   0.493  1.2703  1.4344 -1.9529
 2521SOL     MW10084   1.641   0.789   0.515  0.9675  0.3140 -0.4421
 2522SOL     OW10085   3.701   1.255   3.421  0.0762  0.1204 -0.2955
 2522SOL    HW110086   3.662   1.324   3.474  0.0449  0.0836 -0.2698
 2522SOL    HW210087   3.626   1.211   3.380  0.1094  0.2463 -0.4907
 2522SOL     MW10088   3.685   1.258   3.423  0.0764  0.1324 -0.3183
 2523SOL     OW10089   1.633   5.461   0.638 -0.7482 -0.0907  0.2136
 2523SOL    HW110090   1.543   5.475   0.665 -1.6053 -0.6482 -2.1286
 2523SOL    HW210091   1.633   5.374   0.599  1.4783 -1.3138  2.6138
 2523SOL     MW10092   1.621   5.451   0.636 -0.5639 -0.3303  0.2214
 2524SOL     OW10093   3.372   1.420   1.683  0.0118  0.5375 -0.3299
 2524SOL    HW110094   3.395   1.467   1.762 -1.7391  0.0838  0.5003
 2524SOL    HW210095   3.314   1.479   1.635 -0.1177  0.2350 -0.5539
 2524SOL     MW10096   3.368   1.434   1.687 -0.2412  0.4358 -0.2483
 2525SOL     OW10097   1.906   0.629   4.853  0.4138  0.2001  0.0500
 2525SOL    HW110098   1.901   0.705   4.795 -1.6396 -0.5033 -0.7956
 2525SOL    HW210099   1.877   0.661   4.938  0.3517  0.5248 -0.0936
 2525SOL     MW10100   1.902   0.643   4.856  0.1291  0.1491 -0.0831
 2526SOL     OW10101   0.423   1.625   1.907 -0.0593  0.2446  0.1612
 2526SOL    HW110102   0.414   1.697   1.969 -0.8058  0.0019  0.3425
 2526SOL    HW210103   0.363   1.647   1.836  1.4332  0.9687 -0.9362
 2526SOL     MW10104   0.414   1.638   1.906  0.0411  0.3094  0.0379
 2527SOL     OW10105   3.938   0.231   2.640 -0.3607  0.2976  0.6071
 2527SOL    HW110106   3.866   0.202   2.585  0.5500 -0.7891 -0.0547
 2527SOL    HW210107   3.986   0.294   2.585  1.0449 -1.4238 -0.2516
 2527SOL     MW10108   3.935   0.236   2.625 -0.0489 -0.0803  0.4024
 2528SOL     OW10109   1.190   1.417   4.529 -0.3812 -0.0083 -0.4566
 2528SOL    HW110110   1.238   1.429   4.610  0.9883 -0.1396 -1.2201
 2528SOL    HW210111   1.131   1.493   4.524 -0.4769  0.0057  0.6238
 2528SOL     MW10112   1.188   1.429   4.539 -0.2098 -0.0241 -0.4140
 2529SOL     OW10113   1.341   4.482   5.330  0.7366  0.1720 -0.1340
 2529SOL    HW110114   1.357   4.474   5.236  0.9524  0.4623 -0.1227
 2529SOL    HW210115   1.376   4.568   5.354  1.2931 -0.1772  0.3362
 2529SOL     MW10116   1.348   4.492   5.321  0.8405  0.1641 -0.0692
 2530SOL     OW10117   0.711   2.377   1.151 -0.0811 -0.4944  0.3095
 2530SOL    HW110118   0.761   2.296   1.136  1.8367  0.8233 -0.9430
 2530SOL    HW210119   0.777   2.440   1.180 -1.1629  1.1345 -0.6441
 2530SOL     MW10120   0.727   2.375   1.153  0.0314 -0.0979  0.0126
 2531SOL     OW10121   4.203   1.767   4.376  0.5618 -0.2818 -0.0084
 2531SOL    HW110122   4.140   1.839   4.385 -1.1641 -1.8715  1.0032
 2531SOL    HW210123   4.249   1.787   4.294 -1.4331  0.8071 -0.9356
 2531SOL     MW10124   4.201   1.780   4.366  0.0611 -0.3492  0.0029
 2532SOL     OW10125   1.248   3.356   3.236  0.0035 -0.1510 -0.5359
 2532SOL    HW110126   1.319   3.386   3.292 -0.0309 -1.9179  0.5486
 2532SOL    HW210127   1.276   3.378   3.148  0.5024  1.8536  0.0625
 2532SOL     MW10128   1.261   3.363   3.232  0.0660 -0.1190 -0.3094
 2533SOL     OW10129   5.109   1.544   5.436 -0.0138  0.3793  0.5642
 2533SOL    HW110130   5.026   1.591   5.450 -0.1989  0.1348  0.3052
 2533SOL    HW210131   5.110   1.477   5.504  0.3288  0.8610  1.0366
 2533SOL     MW10132   5.098   1.541   5.447  0.0074  0.4112  0.5929
 2534SOL     OW10133   4.922   4.325   4.444 -0.3760  0.1528 -0.1513
 2534SOL    HW110134   4.872   4.296   4.521 -0.2600  0.1422 -0.0787
 2534SOL    HW210135   4.932   4.419   4.456 -0.0366  0.0969  0.0405
 2534SOL     MW10136   4.917   4.334   4.456 -0.3147  0.1439 -0.1157
 2535SOL     OW10137   3.563   2.302   1.294  0.7300 -0.4804  0.0328
 2535SOL    HW110138   3.514   2.384   1.299  0.3266 -0.7274  0.1572
 2535SOL    HW210139   3.509   2.239   1.342 -0.1903 -1.4265 -2.1318
 2535SOL     MW10140   3.549   2.305   1.301  0.5518 -0.6409 -0.2418
 2536SOL     OW10141   0.831   5.431   0.472 -0.0403  0.2808  0.2603
 2536SOL    HW110142   0.885   5.504   0.502  0.9169 -0.3673  0.1480
 2536SOL    HW210143   0.745   5.448   0.511  0.3171  1.1711  0.6910
 2536SOL     MW10144   0.826   5.443   0.482  0.1366  0.3134  0.3031
 2537SOL     OW10145   2.997   4.301   2.429  0.3336  0.4134  0.1682
 2537SOL    HW110146   2.901   4.298   2.436  0.3753  0.8139  1.1025
 2537SOL    HW210147   3.017   4.250   2.351 -0.6647  0.5745 -0.2118
 2537SOL     MW10148   2.986   4.294   2.420  0.2048  0.4890  0.2428
 2538SOL     OW10149   2.282   1.159   2.596  0.3424 -0.1020 -0.4806
 2538SOL    HW110150   2.264   1.232   2.537 -1.6174  0.5927  0.8763
 2538SOL    HW210151   2.334   1.198   2.667  1.3600 -0.5939 -0.9331
 2538SOL     MW10152   2.287   1.174   2.598  0.2156 -0.0747 -0.3589
 2539SOL     OW10153   2.057   4.199   0.864 -0.7959 -0.3203 -0.6969
 2539SOL    HW110154   2.010   4.116   0.864  0.8441 -1.3890 -3.2599
 2539SOL    HW210155   2.115   4.193   0.940 -2.1012 -0.6185  0.3014
 2539SOL     MW10156   2.059   4.187   0.874 -0.7509 -0.5043 -0.9075
 2540SOL     OW10157   1.139   1.649   4.794 -0.1633 -0.1653  0.5026
 2540SOL    HW110158   1.140   1.554   4.812 -0.3882 -0.3023 -0.1994
 2540SOL    HW210159   1.115   1.656   4.702 -0.7998  0.6086  0.7163
 2540SOL     MW10160   1.136   1.637   4.784 -0.2793 -0.0796  0.4369
 2541SOL     OW10161   4.478   3.302   4.396  0.4412 -0.0198 -0.7475
 2541SOL    HW110162   4.476   3.327   4.304  0.7364 -0.7979 -0.9758
 2541SOL    HW210163   4.554   3.244   4.403  0.6191  0.2967  0.0588
 2541SOL     MW10164   4.488   3.298   4.384  0.5049 -0.0819 -0.6697
 2542SOL     OW10165   4.812   3.025   0.644  0.4339  0.2086  0.2766
 2542SOL    HW110166   4.890   3.037   0.698  0.4094  0.3878  0.2710
 2542SOL    HW210167   4.817   3.093   0.578 -0.4592  1.1543  1.1404
 2542SOL     MW10168   4.823   3.036   0.643  0.3104  0.3600  0.3921
 2543SOL     OW10169   3.985   1.202   2.333 -0.2286 -0.1260 -0.3358
 2543SOL    HW110170   3.895   1.232   2.333 -0.6368 -1.1396  2.1010
 2543SOL    HW210171   3.979   1.106   2.328  0.7307 -0.1920 -0.5561
 2543SOL     MW10172   3.972   1.193   2.332 -0.1544 -0.2713 -0.0375
 2544SOL     OW10173   4.684   5.035   1.662 -0.0317 -0.2209  0.2668
 2544SOL    HW110174   4.708   5.115   1.615  0.9386 -0.2434  0.7118
 2544SOL    HW210175   4.747   4.970   1.632 -0.3205 -0.6228  0.5176
 2544SOL     MW10176   4.695   5.037   1.651  0.0600 -0.2780  0.3604
 2545SOL     OW10177   1.270   4.902   4.486 -0.1264  0.0499  0.1585
 2545SOL    HW110178   1.256   4.964   4.414  1.5249  0.4219  0.1298
 2545SOL    HW210179   1.249   4.817   4.448 -0.4451  0.3702 -0.4032
 2545SOL     MW10180   1.265   4.899   4.471  0.0530  0.1431  0.0790
 2546SOL     OW10181   1.699   5.060   4.068 -0.1410  0.3679  0.3427
 2546SOL    HW110182   1.626   5.121   4.060 -0.0592  0.4438  0.1625
 2546SOL    HW210183   1.777   5.117   4.073 -0.1433  0.3086  1.1494
 2546SOL     MW10184   1.700   5.076   4.067 -0.1303  0.3701  0.4270
 2547SOL     OW10185   0.162   0.243   4.713  0.5511 -0.0530 -0.4060
 2547SOL    HW110186   0.206   0.304   4.773 -1.4670  0.0176  1.0707
 2547SOL    HW210187   0.167   0.158   4.756 -0.7621 -0.0323 -0.1699
 2547SOL     MW10188   0.169   0.240   4.727  0.1028 -0.0407 -0.1755
 2548SOL     OW10189   1.714   4.475   0.392 -0.2692  0.2434 -0.5292
 2548SOL    HW110190   1.651   4.421   0.343 -0.1080 -0.1805 -0.2773
 2548SOL    HW210191   1.782   4.495   0.328  0.5210 -1.2634 -0.2194
 2548SOL     MW10192   1.715   4.470   0.377 -0.1411 -0.0164 -0.4536
 2549SOL     OW10193   4.598   1.893   0.340 -0.4709 -0.2083 -0.3717
 2549SOL    HW110194   4.597   1.797   0.336 -0.1887 -0.2014 -0.6910
 2549SOL    HW210195   4.635   1.920   0.256 -1.7690  0.2306 -0.8134
 2549SOL     MW10196   4.603   1.883   0.329 -0.6076 -0.1483 -0.4741
 2550SOL     OW10197   1.989   1.814   2.544  0.1431  0.3246 -0.0023
 2550SOL    HW110198   2.007   1.798   2.637 -0.3788  0.2164  0.0834
 2550SOL    HW210199   2.037   1.744   2.499  2.4548  1.7989 -0.0013
 2550SOL     MW10200   1.998   1.802   2.551  0.3839  0.5084  0.0094
 2551SOL     OW10201   5.194   5.261   5.412 -0.6049 -0.0894 -0.2728
 2551SOL    HW110202   5.157   5.183   5.370  0.9160 -0.6688 -0.6121
 2551SOL    HW210203   5.257   5.295   5.348  1.7027 -0.9318  1.4115
 2551SOL     MW10204   5.198   5.255   5.398 -0.0897 -0.2808 -0.0918
 2552SOL     OW10205   1.489   4.353   0.025 -0.0486  0.0999 -0.6557
 2552SOL    HW110206   1.577   4.390   0.011 -0.1689  0.2439 -1.0456
 2552SOL    HW210207   1.434   4.397  -0.039 -0.1150 -1.0612 -1.4210
 2552SOL     MW10208   1.494   4.364   0.015 -0.0737 -0.0370 -0.8112
 2553SOL     OW10209   0.947   4.604   3.404  0.3561  0.5057 -0.1548
 2553SOL    HW110210   1.020   4.546   3.386  0.1398  0.1276  0.1828
 2553SOL    HW210211   0.883   4.584   3.336  0.6642  1.0170 -0.6055
 2553SOL     MW10212   0.948   4.594   3.392  0.3685  0.5236 -0.1700
 2554SOL     OW10213   0.308   4.737   1.032  0.0044 -0.6909  0.0902
 2554SOL    HW110214   0.337   4.667   0.974  0.6796 -1.3365  1.1609
 2554SOL    HW210215   0.386   4.758   1.085  0.0292  1.3721 -0.6741
 2554SOL     MW10216   0.323   4.731   1.031  0.0986 -0.5002  0.1314
 2555SOL     OW10217   2.188   4.261   2.503  0.0162  0.0008  0.2220
 2555SOL    HW110218   2.263   4.287   2.449  0.2810  0.2191  0.6845
 2555SOL    HW210219   2.141   4.197   2.450  0.0225  0.5385 -0.4442
 2555SOL     MW10220   2.192   4.256   2.489  0.0527  0.1025  0.1946
 2556SOL     OW10221   4.254   0.369   3.084  0.1808  0.6831  0.0821
 2556SOL    HW110222   4.174   0.421   3.090  0.2846  0.9688 -0.8764
 2556SOL    HW210223   4.299   0.384   3.167 -1.8873 -1.3936  1.7297
 2556SOL     MW10224   4.249   0.378   3.096 -0.0836  0.4421  0.1748
 2557SOL     OW10225   1.858   1.578   0.318 -0.0239  0.0833  0.3367
 2557SOL    HW110226   1.940   1.627   0.325 -0.3814  0.6586  0.4856
 2557SOL    HW210227   1.819   1.583   0.405 -0.4612  0.2366  0.1321
 2557SOL     MW10228   1.864   1.585   0.331 -0.1309  0.1813  0.3292
 2558SOL     OW10229   2.863   2.182   4.070 -0.2061  0.2599 -0.2887
 2558SOL    HW110230   2.847   2.274   4.051 -1.8481 -0.0269 -0.4092
 2558SOL    HW210231   2.786   2.137   4.038  0.5490 -1.1702 -0.1860
 2558SOL     MW10232   2.851   2.188   4.063 -0.3255  0.0288 -0.2911
 2559SOL     OW10233   5.036   0.098   2.303  0.3191  0.1265 -0.1355
 2559SOL    HW110234   5.081   0.014   2.304  0.2880  0.0999 -0.7937
 2559SOL    HW210235   5.094   0.156   2.254 -0.4063  0.0543 -1.1146
 2559SOL     MW10236   5.050   0.095   2.297  0.2173  0.1132 -0.3559
 2560SOL     OW10237   0.484   2.743   2.993 -0.0409  0.3966 -0.0796
 2560SOL    HW110238   0.430   2.808   2.948  1.0867 -0.5090 -2.9343
 2560SOL    HW210239   0.558   2.793   3.029 -1.2564  1.2175  1.4244
 2560SOL     MW10240   0.486   2.759   2.992 -0.0527  0.3852 -0.2613
 2561SOL     OW10241   3.221   3.050   5.261  0.0951 -0.0239  0.1412
 2561SOL    HW110242   3.168   2.985   5.307  0.1206 -0.1919 -0.0678
 2561SOL    HW210243   3.253   3.005   5.183 -1.8708  0.9150 -1.3243
 2561SOL     MW10244   3.218   3.035   5.257 -0.1661  0.0799 -0.0841
 2562SOL     OW10245   2.080   0.071   4.325  0.1919 -0.5342 -0.2611
 2562SOL    HW110246   2.056   0.043   4.413 -0.5467 -0.8200 -0.5472
 2562SOL    HW210247   2.161   0.025   4.306 -0.0274 -1.0289 -0.0040
 2562SOL     MW10248   2.087   0.061   4.334  0.0630 -0.6392 -0.2650
 2563SOL     OW10249   1.363   0.066   2.980  0.0657  0.5817 -0.4001
 2563SOL    HW110250   1.299   0.033   3.044 -0.2397 -2.1692 -1.9378
 2563SOL    HW210251   1.438   0.008   2.989  1.2382  2.0273 -0.5433
 2563SOL     MW10252   1.364   0.053   2.989  0.1824  0.4060 -0.6263
 2564SOL     OW10253   2.442   2.949   4.480  0.0509  0.6947 -0.3361
 2564SOL    HW110254   2.513   2.933   4.541  0.0179  1.3861 -0.1042
 2564SOL    HW210255   2.449   3.042   4.458 -1.0906  0.9127  0.1058
 2564SOL     MW10256   2.452   2.960   4.485 -0.1072  0.8171 -0.2454
 2565SOL     OW10257   3.325   4.423   1.626 -0.1522  0.8009  0.2125
 2565SOL    HW110258   3.399   4.470   1.589  0.4779 -0.0450  0.3506
 2565SOL    HW210259   3.273   4.396   1.550 -0.4171  1.5492  0.1256
 2565SOL     MW10260   3.328   4.425   1.611 -0.1030  0.7878  0.2194
 2566SOL     OW10261   3.419   1.643   4.029 -0.0858  0.3172  0.1809
 2566SOL    HW110262   3.485   1.632   3.961 -0.4679 -1.3698  0.0486
 2566SOL    HW210263   3.442   1.580   4.097 -1.3716 -0.1171  0.2544
 2566SOL     MW10264   3.431   1.633   4.029 -0.3102  0.0317  0.1730
 2567SOL     OW10265   1.744   0.455   3.190  0.2365  0.2914  0.1789
 2567SOL    HW110266   1.747   0.417   3.102  1.1362 -0.7961  0.6374
 2567SOL    HW210267   1.676   0.522   3.186  0.0340  0.0303 -1.2489
 2567SOL     MW10268   1.735   0.459   3.178  0.3303  0.1099  0.0484
 2568SOL     OW10269   0.046   0.694   1.387 -0.0384  0.3955  0.4593
 2568SOL    HW110270   0.028   0.782   1.419  0.5733 -0.0893  2.2667
 2568SOL    HW210271   0.141   0.692   1.373 -0.0817  0.0909  0.1938
 2568SOL     MW10272   0.057   0.705   1.390  0.0381  0.2893  0.6668
 2569SOL     OW10273   5.482   3.352   5.127  0.3126 -0.2840  0.0303
 2569SOL    HW110274   5.556   3.293   5.122 -0.2519 -1.0908  0.8478
 2569SOL    HW210275   5.435   3.340   5.044  0.4824 -0.5887 -0.0198
 2569SOL     MW10276   5.485   3.343   5.115  0.2595 -0.4336  0.1336
 2570SOL     OW10277   2.442   0.795   4.270  0.4216  0.5851  0.6190
 2570SOL    HW110278   2.531   0.819   4.297  0.9683 -0.8457  0.2265
 2570SOL    HW210279   2.446   0.789   4.175 -0.5170  1.9936  0.4748
 2570SOL     MW10280   2.454   0.797   4.261  0.3689  0.5821  0.5468
 2571SOL     OW10281   2.591   1.674   3.745  0.6868 -0.0898  0.1273
 2571SOL    HW110282   2.578   1.638   3.833 -2.0566  0.2277 -0.0400
 2571SOL    HW210283   2.575   1.768   3.756  2.9601  0.3892 -0.2913
 2571SOL     MW10284   2.587   1.682   3.758  0.6235  0.0174  0.0485
 2572SOL     OW10285   3.365   1.832   2.274  0.6631 -0.1151  0.7239
 2572SOL    HW110286   3.270   1.840   2.270  0.5502 -1.7153 -0.9658
 2572SOL    HW210287   3.396   1.880   2.197  1.1486 -0.6009  0.6159
 2572SOL     MW10288   3.357   1.840   2.263  0.7133 -0.3958  0.4820
 2573SOL     OW10289   3.418   2.874   0.968  0.2637 -0.3047 -0.2265
 2573SOL    HW110290   3.442   2.792   1.010  1.6468 -0.0103 -0.3843
 2573SOL    HW210291   3.441   2.942   1.031  0.3515  0.0243 -0.6040
 2573SOL     MW10292   3.424   2.872   0.982  0.4616 -0.2208 -0.2986
 2574SOL     OW10293   1.082   0.311   5.338 -0.7178  0.0959  0.0644
 2574SOL    HW110294   1.078   0.359   5.256 -0.5084  0.2903  0.1679
 2574SOL    HW210295   1.049   0.372   5.404 -0.2464  0.1806  0.2301
 2574SOL     MW10296   1.077   0.325   5.336 -0.6261  0.1335  0.1006
 2575SOL     OW10297   1.343   3.756   5.440 -0.9765  0.3138  0.9222
 2575SOL    HW110298   1.271   3.697   5.418 -1.2672  0.7361  0.7165
 2575SOL    HW210299   1.413   3.699   5.471 -0.4842 -0.3503 -1.2548
 2575SOL     MW10300   1.343   3.740   5.441 -0.9494  0.2812  0.6015
 2576SOL     OW10301   3.815   4.753   0.182 -0.1998  0.3541 -0.2934
 2576SOL    HW110302   3.753   4.821   0.210  1.1869  0.6508  2.3473
 2576SOL    HW210303   3.762   4.673   0.176 -1.6315  1.3717 -2.3792
 2576SOL     MW10304   3.799   4.751   0.185 -0.2058  0.5310 -0.2187
 2577SOL     OW10305   0.515   0.748   2.306  0.5695 -0.4122  0.2324
 2577SOL    HW110306   0.423   0.725   2.290 -0.2304  1.3916  1.8699
 2577SOL    HW210307   0.534   0.815   2.239 -0.2609  1.2843  1.6124
 2577SOL     MW10308   0.505   0.754   2.295  0.3501  0.0589  0.6385
 2578SOL     OW10309   2.575   2.936   5.546  0.2698  0.0018  0.1144
 2578SOL    HW110310   2.591   3.029   5.532 -0.6017  0.1528  0.0524
 2578SOL    HW210311   2.559   2.901   5.458 -0.2824 -0.0211  0.2156
 2578SOL     MW10312   2.575   2.944   5.532  0.0782  0.0191  0.1197
 2579SOL     OW10313   0.016   4.129   1.651 -0.2051  0.5681 -0.0578
 2579SOL    HW110314   0.103   4.159   1.680 -0.7283  1.6480  0.4349
 2579SOL    HW210315   0.026   4.034   1.640  0.9681  0.6400  0.2340
 2579SOL     MW10316   0.029   4.120   1.653 -0.1176  0.7231  0.0478
 2580SOL     OW10317   4.172   4.698   4.340  0.0339  0.2086 -0.6601
 2580SOL    HW110318   4.134   4.691   4.427 -2.4106 -2.7463 -1.8064
 2580SOL    HW210319   4.106   4.744   4.288  1.2806  1.5711 -1.1416
 2580SOL     MW10320   4.158   4.703   4.344 -0.1273 -0.0057 -0.8792
 2581SOL     OW10321   2.428   0.336   1.486 -0.1643 -0.0745  0.1098
 2581SOL    HW110322   2.352   0.281   1.468 -0.7682  0.6892  0.2960
 2581SOL    HW210323   2.503   0.282   1.459 -0.7887 -0.6385 -0.5485
 2581SOL     MW10324   2.428   0.321   1.480 -0.3296 -0.0477  0.0462
 2582SOL     OW10325   1.807   3.161   2.778  0.2884 -0.3355  0.1703
 2582SOL    HW110326   1.803   3.113   2.695 -0.7960 -0.3740  0.2297
 2582SOL    HW210327   1.828   3.094   2.843  3.3614  0.0284 -0.3031
 2582SOL     MW10328   1.809   3.146   2.776  0.5560 -0.2917  0.1146
 2583SOL     OW10329   1.910   1.709   2.112  0.0182  0.0252  0.3809
 2583SOL    HW110330   1.935   1.800   2.127 -1.1157  0.3122  0.6815
 2583SOL    HW210331   1.815   1.709   2.124 -0.1489 -0.9634 -0.8277
 2583SOL     MW10332   1.900   1.721   2.116 -0.1569 -0.0692  0.2587
 2584SOL     OW10333   2.086   0.909   3.808 -0.9674 -0.1691  0.1812
 2584SOL    HW110334   2.139   0.988   3.803 -1.3463  0.1655  1.2623
 2584SOL    HW210335   2.004   0.932   3.764 -1.0463  0.0107  0.4240
 2584SOL     MW10336   2.082   0.923   3.801 -1.0290 -0.0999  0.3593
 2585SOL     OW10337   3.247  -0.009   0.602 -0.3392  0.4370  0.5840
 2585SOL    HW110338   3.156  -0.001   0.631 -0.0487 -0.8772  1.9779
 2585SOL    HW210339   3.292   0.065   0.642 -0.7990  1.2030 -0.2649
 2585SOL     MW10340   3.241   0.002   0.611 -0.3620  0.3632  0.6574
 2586SOL     OW10341   4.265   0.601   3.941 -0.0241 -0.2417  0.0801
 2586SOL    HW110342   4.229   0.556   4.017  0.4937 -1.6756 -0.4940
 2586SOL    HW210343   4.212   0.680   3.933  0.6326  0.5429  2.5886
 2586SOL     MW10344   4.253   0.605   3.950  0.1340 -0.3291  0.3404
 2587SOL     OW10345   1.140   0.862   1.614  0.5030  0.1121 -0.5261
 2587SOL    HW110346   1.095   0.803   1.554  0.4480 -0.7049  0.3022
 2587SOL    HW210347   1.085   0.941   1.616 -0.2689 -0.4138 -0.4353
 2587SOL     MW10348   1.126   0.865   1.606  0.3917 -0.0686 -0.4024
 2588SOL     OW10349   0.915   5.016   5.490  0.4043 -0.5762 -0.3152
 2588SOL    HW110350   0.870   5.038   5.409 -1.4223  1.1024  1.0481
 2588SOL    HW210351   0.974   5.090   5.506  1.5234 -1.3753 -0.5677
 2588SOL     MW10352   0.917   5.029   5.481  0.3091 -0.4578 -0.1657
 2589SOL     OW10353   3.303   1.987   1.770 -0.0371 -0.3753  0.2953
 2589SOL    HW110354   3.241   1.938   1.717  1.0926 -1.1998 -0.3290
 2589SOL    HW210355   3.286   2.079   1.751 -0.2972 -0.6388 -0.7479
 2589SOL     MW10356   3.293   1.993   1.761  0.0799 -0.5217  0.0709
 2590SOL     OW10357   4.323   2.163   2.420 -0.1087  0.8720 -0.4553
 2590SOL    HW110358   4.291   2.073   2.432 -0.3969  0.4771 -3.4953
 2590SOL    HW210359   4.244   2.216   2.417  0.0655  1.3021  1.4000
 2590SOL     MW10360   4.308   2.158   2.422 -0.1240  0.8767 -0.6148
 2591SOL     OW10361   0.194   3.854   1.063  0.7088 -0.6408 -0.4381
 2591SOL    HW110362   0.209   3.760   1.050 -0.5728 -0.8104 -0.8555
 2591SOL    HW210363   0.234   3.873   1.148 -0.4442 -1.9401  0.4504
 2591SOL     MW10364   0.201   3.844   1.073  0.3812 -0.8385 -0.3747
 2592SOL     OW10365   2.016   1.731   2.818  0.3267  0.0048  0.4842
 2592SOL    HW110366   2.034   1.637   2.821  0.7925  0.1055  0.9728
 2592SOL    HW210367   1.924   1.739   2.843 -0.0209 -0.3948 -0.5841
 2592SOL     MW10368   2.006   1.720   2.822  0.3426 -0.0355  0.4062
 2593SOL     OW10369   1.155   4.684   4.367  0.4525 -0.0738  0.1820
 2593SOL    HW110370   1.175   4.592   4.351 -0.5153 -0.2417 -0.1395
 2593SOL    HW210371   1.123   4.717   4.283 -0.6554  0.1441  0.6599
 2593SOL     MW10372   1.153   4.676   4.354  0.1732 -0.0671  0.2030
 2594SOL     OW10373   0.299   0.361   0.544 -0.0019  0.1927  0.0573
 2594SOL    HW110374   0.379   0.339   0.497  0.9557  2.3058  0.5777
 2594SOL    HW210375   0.292   0.294   0.612  1.1363 -0.2035 -0.1887
 2594SOL     MW10376   0.309   0.349   0.547  0.2802  0.4237  0.0942
 2595SOL     OW10377   2.473   5.191   0.957  0.6195 -0.3116  0.1487
 2595SOL    HW110378   2.489   5.108   1.001  0.1070  0.0236  1.0060
 2595SOL    HW210379   2.547   5.246   0.983  1.0862 -0.5732 -0.6175
 2595SOL     MW10380   2.485   5.187   0.967  0.6134 -0.3017  0.1609
 2596SOL     OW10381   2.979   3.469   3.746  0.3641 -0.5496  0.3341
 2596SOL    HW110382   2.997   3.390   3.695 -1.3810 -0.7282 -0.0452
 2596SOL    HW210383   3.057   3.524   3.733  0.1471 -0.7383 -2.2414
 2596SOL     MW10384   2.992   3.466   3.738  0.1000 -0.5990 -0.0635
 2597SOL     OW10385   0.950   4.563   5.177 -0.5126  0.0365  0.4687
 2597SOL    HW110386   0.858   4.589   5.170 -0.8122 -1.1370 -0.3609
 2597SOL    HW210387   0.949   4.469   5.157  0.9031  0.0647  0.1980
 2597SOL     MW10388   0.937   4.554   5.174 -0.3624 -0.1177  0.3206
 2598SOL     OW10389   2.433   3.844   2.954 -0.2361  0.0615 -0.0985
 2598SOL    HW110390   2.371   3.906   2.916 -0.4386 -1.2952 -2.0861
 2598SOL    HW210391   2.391   3.815   3.035 -0.9558  1.1340 -0.0678
 2598SOL     MW10392   2.419   3.849   2.960 -0.3602  0.0232 -0.3619
 2599SOL     OW10393   2.478   1.002   2.276  0.2868 -0.0175  0.1584
 2599SOL    HW110394   2.444   0.938   2.213 -1.2760 -1.2016  2.0724
 2599SOL    HW210395   2.451   0.968   2.362  2.5212  1.3812  1.5211
 2599SOL     MW10396   2.470   0.989   2.279  0.3772  0.0114  0.5994
 2600SOL     OW10397   0.177   3.353   1.721 -0.0910 -0.1469  0.2273
 2600SOL    HW110398   0.195   3.259   1.712 -0.8430 -0.1577 -1.8462
 2600SOL    HW210399   0.262   3.392   1.742  0.6232 -1.1015 -0.7731
 2600SOL     MW10400   0.191   3.346   1.722 -0.0961 -0.2768 -0.1864
 2601SOL     OW10401   0.877   3.285   4.983  0.1083  0.1237 -0.4316
 2601SOL    HW110402   0.955   3.271   4.930  0.1401  0.6795 -0.5378
 2601SOL    HW210403   0.905   3.265   5.072  0.1357 -0.5157 -0.5786
 2601SOL     MW10404   0.891   3.281   4.988  0.1162  0.1125 -0.4657
 2602SOL     OW10405   1.363   1.673   1.639  0.0056  0.1562  0.0674
 2602SOL    HW110406   1.301   1.740   1.667 -0.0595 -0.3152  1.0929
 2602SOL    HW210407   1.398   1.706   1.556 -1.0775  0.7676 -0.1686
 2602SOL     MW10408   1.359   1.687   1.631 -0.1489  0.1750  0.1736
 2603SOL     OW10409   3.766   1.473   1.159  0.1402 -0.3183  0.3057
 2603SOL    HW110410   3.815   1.473   1.076 -2.4986 -0.2944 -1.3569
 2603SOL    HW210411   3.771   1.383   1.190 -0.1001 -0.6756 -0.6731
 2603SOL     MW10412   3.774   1.461   1.152 -0.2473 -0.3632 -0.0498
 2604SOL     OW10413   3.230   4.530   4.686 -0.5338 -0.3144  0.9085
 2604SOL    HW110414   3.171   4.600   4.658  0.0341 -0.2193 -0.1099
 2604SOL    HW210415   3.185   4.449   4.663 -1.0582 -0.2850  1.8083
 2604SOL     MW10416   3.216   4.529   4.679 -0.5279 -0.2977  0.8926
 2605SOL     OW10417   2.394   0.083   5.481 -0.2180 -0.2081  0.0085
 2605SOL    HW110418   2.394   0.019   5.410  0.6765 -0.0476 -0.1451
 2605SOL    HW210419   2.348   0.159   5.446 -0.4739 -0.4185 -0.1194
 2605SOL     MW10420   2.387   0.084   5.467 -0.1321 -0.2148 -0.0294
 2606SOL     OW10421   1.833   0.573   2.601  0.6852  0.4992 -0.5672
 2606SOL    HW110422   1.897   0.531   2.658 -0.7805  0.3328  1.0492
 2606SOL    HW210423   1.807   0.505   2.540  0.6618 -0.0067 -0.0053
 2606SOL     MW10424   1.838   0.558   2.601  0.4848  0.4087 -0.2741
 2607SOL     OW10425   1.239   1.844   0.651 -0.7473 -0.2034 -0.8297
 2607SOL    HW110426   1.299   1.850   0.577  0.7681 -1.2383  0.2452
 2607SOL    HW210427   1.169   1.906   0.631 -1.0993 -1.3664 -3.7465
 2607SOL     MW10428   1.238   1.853   0.638 -0.5907 -0.4992 -1.0776
 2608SOL     OW10429   1.810   2.837   1.744  0.2202 -0.0525 -0.2289
 2608SOL    HW110430   1.816   2.910   1.682  0.0960  1.0374  0.9760
 2608SOL    HW210431   1.721   2.802   1.731 -1.6653  3.1641  2.3904
 2608SOL     MW10432   1.799   2.842   1.734 -0.0502  0.5271  0.2858
 2609SOL     OW10433   3.804   4.352   4.780 -0.2638  0.7388  0.4070
 2609SOL    HW110434   3.824   4.259   4.793 -0.2621  0.7200  0.2704
 2609SOL    HW210435   3.788   4.360   4.686  0.6098  1.0466  0.2766
 2609SOL     MW10436   3.805   4.341   4.769 -0.1460  0.7777  0.3710
 2610SOL     OW10437   1.348   0.751   2.296 -0.1102  0.3507  0.1898
 2610SOL    HW110438   1.377   0.800   2.373 -0.5740  0.9624 -0.0071
 2610SOL    HW210439   1.271   0.703   2.326  0.3733 -0.3072  0.3957
 2610SOL     MW10440   1.342   0.751   2.311 -0.1076  0.3445  0.1910
 2611SOL     OW10441   3.893   4.267   3.339  0.0585  0.0060  0.5823
 2611SOL    HW110442   3.837   4.290   3.412  1.1656 -0.0527  1.4710
 2611SOL    HW210443   3.971   4.229   3.379  0.2260 -1.0430 -0.6633
 2611SOL     MW10444   3.896   4.265   3.354  0.2300 -0.1430  0.5342
 2612SOL     OW10445   3.323   5.268   0.502  0.7840 -0.0039  0.1767
 2612SOL    HW110446   3.260   5.246   0.433  0.5938 -0.7827  0.5891
 2612SOL    HW210447   3.295   5.355   0.533  0.2564 -0.0943 -0.0299
 2612SOL     MW10448   3.311   5.277   0.497  0.6874 -0.1209  0.2044
 2613SOL     OW10449   4.084   3.570   4.942  0.6007  0.1322  0.4692
 2613SOL    HW110450   4.153   3.566   4.876  0.6433 -0.8838  0.5647
 2613SOL    HW210451   4.006   3.595   4.893  0.6542 -0.5095  0.0375
 2613SOL     MW10452   4.083   3.573   4.926  0.6136 -0.0909  0.4240
 2614SOL     OW10453   4.943   4.573   1.726 -0.1468 -0.3180 -0.2381
 2614SOL    HW110454   4.961   4.540   1.814  1.4862 -1.1831 -0.8654
 2614SOL    HW210455   4.878   4.513   1.690 -2.1193  0.9895  0.9018
 2614SOL     MW10456   4.936   4.561   1.733 -0.1925 -0.2585 -0.1691
 2615SOL     OW10457   0.896   2.900   4.593  0.6062  0.1012  0.1356
 2615SOL    HW110458   0.968   2.837   4.584 -0.4490 -1.1179 -0.0056
 2615SOL    HW210459   0.880   2.931   4.503  0.2774 -0.4104  0.0143
 2615SOL     MW10460   0.904   2.896   4.579  0.4200 -0.1317  0.1002
 2616SOL     OW10461   3.223   2.135   1.235  0.4717 -0.2382  0.1968
 2616SOL    HW110462   3.302   2.124   1.183  1.1084 -1.2323  1.3118
 2616SOL    HW210463   3.205   2.048   1.271 -0.6273  0.1536  0.6601
 2616SOL     MW10464   3.231   2.122   1.233  0.4095 -0.3193  0.4092
 2617SOL     OW10465   2.419   5.421   2.077 -0.0922 -0.4307 -0.3443
 2617SOL    HW110466   2.425   5.368   1.998 -1.2255 -0.8148 -0.1874
 2617SOL    HW210467   2.416   5.511   2.045  0.0278 -0.5516 -0.7013
 2617SOL     MW10468   2.420   5.426   2.062 -0.2285 -0.4986 -0.3712
 2618SOL     OW10469   2.075   1.453   2.843 -0.4180  0.1197 -0.7891
 2618SOL    HW110470   2.048   1.400   2.768  0.8925 -1.3915 -0.2428
 2618SOL    HW210471   2.163   1.483   2.821 -0.2039  0.0461 -0.0489
 2618SOL     MW10472   2.083   1.450   2.830 -0.2128 -0.0936 -0.6159
 2619SOL     OW10473   4.466   2.963   2.230 -0.4432  0.0270 -0.6543
 2619SOL    HW110474   4.549   2.956   2.277 -0.3145  1.7075 -0.5756
 2619SOL    HW210475   4.485   3.022   2.157 -1.1233 -1.0515 -1.7376
 2619SOL     MW10476   4.480   2.970   2.227 -0.5174  0.1081 -0.7895
 2620SOL     OW10477   0.705   2.011   4.077 -0.0078  0.4980 -0.3422
 2620SOL    HW110478   0.780   2.071   4.086  0.4665 -0.1833  0.3785
 2620SOL    HW210479   0.743   1.924   4.086 -0.7601  0.1020 -0.9106
 2620SOL     MW10480   0.720   2.007   4.080 -0.0452  0.3530 -0.3217
 2621SOL     OW10481   1.011   4.041   0.881 -0.1260  0.0533 -0.2599
 2621SOL    HW110482   0.926   4.000   0.865 -0.4036  0.2261  0.7123
 2621SOL    HW210483   1.016   4.113   0.818 -0.4591 -0.3081 -0.6939
 2621SOL     MW10484   1.001   4.045   0.871 -0.2082  0.0279 -0.1875
 2622SOL     OW10485   4.307   0.612   5.059  0.1762  0.4092 -0.3516
 2622SOL    HW110486   4.371   0.677   5.087 -0.1760  0.5172  0.2171
 2622SOL    HW210487   4.338   0.582   4.973  1.7255 -0.5122  0.4882
 2622SOL     MW10488   4.319   0.617   5.051  0.3373  0.2997 -0.1621
 2623SOL     OW10489   1.365   5.061   1.752  0.3387 -0.2962  0.9022
 2623SOL    HW110490   1.445   5.100   1.716  1.7260 -1.5758  2.4412
 2623SOL    HW210491   1.384   5.049   1.845 -0.3566 -3.5597  0.7577
 2623SOL     MW10492   1.378   5.065   1.760  0.4318 -0.9076  1.0899
 2624SOL     OW10493   4.764   4.652   0.467  0.5710 -0.1446 -0.6771
 2624SOL    HW110494   4.731   4.618   0.550 -0.0680  0.0840 -0.8330
 2624SOL    HW210495   4.768   4.747   0.479 -0.5215 -0.0064 -1.2399
 2624SOL     MW10496   4.760   4.660   0.480  0.3380 -0.0952 -0.7739
 2625SOL     OW10497   2.277   1.049   1.357  0.6606  0.0145  0.7894
 2625SOL    HW110498   2.185   1.020   1.354 -0.0732  2.0474  1.4134
 2625SOL    HW210499   2.327   0.970   1.373 -1.2370 -0.8617  3.0795
 2625SOL     MW10500   2.271   1.035   1.359  0.3065  0.1701  1.1816
 2626SOL     OW10501   2.904   3.004   4.915  0.4407 -0.3323 -0.4414
 2626SOL    HW110502   2.958   3.066   4.965  1.3783 -0.8800 -0.7421
 2626SOL    HW210503   2.822   2.998   4.964  0.7410  0.3469  0.1593
 2626SOL     MW10504   2.901   3.012   4.928  0.6073 -0.3146 -0.4010
 2627SOL     OW10505   2.026   3.345   5.031  0.1600  0.0174  0.1509
 2627SOL    HW110506   2.029   3.273   4.968  0.7285 -0.0637  0.2699
 2627SOL    HW210507   2.098   3.403   5.005  0.6703 -0.2383  0.9923
 2627SOL     MW10508   2.036   3.343   5.019  0.3052 -0.0279  0.2802
 2628SOL     OW10509   1.547   1.754   5.121  0.0383  0.0879 -0.3917
 2628SOL    HW110510   1.563   1.741   5.214  0.5958 -1.0376 -0.6327
 2628SOL    HW210511   1.465   1.804   5.117 -0.8619 -1.2529  0.6494
 2628SOL     MW10512   1.538   1.759   5.133 -0.0078 -0.2440 -0.2840
 2629SOL     OW10513   3.394   0.410   0.548 -0.2596  0.0640 -0.0280
 2629SOL    HW110514   3.447   0.480   0.585  0.9137 -0.6360 -0.3056
 2629SOL    HW210515   3.416   0.333   0.601 -0.3472 -0.4227 -0.6798
 2629SOL     MW10516   3.404   0.409   0.560 -0.1135 -0.0957 -0.1531
 2630SOL     OW10517   0.812   5.337   1.609 -0.1719 -0.5300 -0.6622
 2630SOL    HW110518   0.732   5.327   1.661  0.4582  0.3772  0.5287
 2630SOL    HW210519   0.799   5.418   1.560  0.5135  0.2922  0.4878
 2630SOL     MW10520   0.799   5.346   1.609  0.0051 -0.2972 -0.3472
 2631SOL     OW10521   2.849   0.775   2.627 -0.3310 -0.0875 -0.1215
 2631SOL    HW110522   2.787   0.738   2.564  0.5517 -0.5514 -0.7369
 2631SOL    HW210523   2.839   0.869   2.618 -0.8424 -0.1592 -0.3223
 2631SOL     MW10524   2.839   0.782   2.617 -0.2811 -0.1596 -0.2314
 2632SOL     OW10525   3.484   4.881   0.647 -0.0157  0.2545 -0.2257
 2632SOL    HW110526   3.474   4.972   0.673  0.6970  0.5898 -1.0896
 2632SOL    HW210527   3.416   4.866   0.582  0.1091  0.2855 -0.3648
 2632SOL     MW10528   3.474   4.891   0.642  0.0970  0.3038 -0.3606
 2633SOL     OW10529   4.203   5.124   0.817 -0.0457  0.2862  0.4218
 2633SOL    HW110530   4.166   5.157   0.899 -0.1482  0.7186  0.2045
 2633SOL    HW210531   4.296   5.146   0.822 -0.0289  0.2062  0.4728
 2633SOL     MW10532   4.211   5.132   0.829 -0.0572  0.3336  0.3995
 2634SOL     OW10533   3.308   3.628   1.622  0.2523 -0.0436  0.0521
 2634SOL    HW110534   3.228   3.598   1.665  0.7058 -0.6363  0.5069
 2634SOL    HW210535   3.378   3.603   1.683  0.8808 -0.5503 -0.8690
 2634SOL     MW10536   3.306   3.621   1.636  0.3979 -0.1915 -0.0106
 2635SOL     OW10537   0.484   1.210   5.446 -0.1999  0.4227 -0.0299
 2635SOL    HW110538   0.498   1.143   5.380  0.1265  0.8635 -0.4136
 2635SOL    HW210539   0.483   1.292   5.397  0.7953  0.8278  0.5891
 2635SOL     MW10540   0.486   1.212   5.431 -0.0220  0.5366  0.0018
 2636SOL     OW10541   3.616   3.451   0.100 -0.0659 -0.1402  0.2817
 2636SOL    HW110542   3.550   3.475   0.164 -1.6305  0.3416 -1.4307
 2636SOL    HW210543   3.656   3.534   0.074 -1.8131  0.1522 -1.7724
 2636SOL     MW10544   3.613   3.465   0.105 -0.5116 -0.0360 -0.2252
 2637SOL     OW10545   3.610   5.185   2.250 -0.1774 -0.3303  0.0333
 2637SOL    HW110546   3.637   5.139   2.329  0.7976  0.0024 -0.0977
 2637SOL    HW210547   3.611   5.278   2.274  0.1186 -0.2270 -0.3576
 2637SOL     MW10548   3.614   5.192   2.264 -0.0064 -0.2717 -0.0370
 2638SOL     OW10549   4.452   3.860   3.548  0.2892 -0.0244  0.5614
 2638SOL    HW110550   4.361   3.880   3.524  0.1188 -1.0039  0.3445
 2638SOL    HW210551   4.495   3.842   3.464 -0.2043 -3.0537  0.8385
 2638SOL     MW10552   4.446   3.860   3.534  0.1999 -0.5639  0.5695
 2639SOL     OW10553   5.100   2.263   0.084 -0.5438 -0.4432  0.2720
 2639SOL    HW110554   5.140   2.348   0.062  0.3095 -1.0742 -0.7007
 2639SOL    HW210555   5.017   2.286   0.125 -1.7502  0.9002 -2.5906
 2639SOL     MW10556   5.094   2.278   0.086 -0.5913 -0.3474 -0.2441
 2640SOL     OW10557   5.030   4.513   0.783  0.2765  0.3272 -0.5047
 2640SOL    HW110558   5.077   4.430   0.787  0.2376  0.3089 -0.4247
 2640SOL    HW210559   5.068   4.558   0.708  0.6039  0.4225 -0.2827
 2640SOL     MW10560   5.041   4.508   0.773  0.3153  0.3375 -0.4641
 2641SOL     OW10561   3.891   2.697   4.308 -0.5252  0.1200  0.0853
 2641SOL    HW110562   3.882   2.746   4.389  0.7573 -0.0679  0.3555
 2641SOL    HW210563   3.982   2.708   4.282 -0.1453 -2.2141  0.2295
 2641SOL     MW10564   3.902   2.705   4.315 -0.3015 -0.2194  0.1411
 2642SOL     OW10565   0.252   5.353   2.636  0.1194  0.2179  0.3251
 2642SOL    HW110566   0.157   5.342   2.633  0.2146 -0.4557 -0.4655
 2642SOL    HW210567   0.287   5.273   2.597  1.0159  0.4344  0.6592
 2642SOL     MW10568   0.244   5.341   2.630  0.2529  0.1564  0.2636
 2643SOL     OW10569   2.977   3.225   5.505 -0.1398 -0.4155  0.1550
 2643SOL    HW110570   2.928   3.143   5.503 -0.3006 -0.3107 -0.9840
 2643SOL    HW210571   2.912   3.292   5.527 -0.5476 -0.2847 -1.2979
 2643SOL     MW10572   2.962   3.223   5.508 -0.2163 -0.3838 -0.1938
 2644SOL     OW10573   0.649   0.054   3.383 -0.5130 -0.3700 -0.2125
 2644SOL    HW110574   0.680   0.012   3.463  1.5445  0.4465 -0.5225
 2644SOL    HW210575   0.616   0.140   3.412 -1.0887 -0.6282 -0.0833
 2644SOL     MW10576   0.649   0.060   3.397 -0.3136 -0.2949 -0.2368
 2645SOL     OW10577   5.486   4.511   1.126  0.0767 -0.0915 -0.3288
 2645SOL    HW110578   5.462   4.422   1.099 -0.7586 -0.1048  0.4005
 2645SOL    HW210579   5.579   4.504   1.148 -0.1302 -0.9672  0.3701
 2645SOL     MW10580   5.496   4.498   1.125 -0.0636 -0.2112 -0.1366
 2646SOL     OW10581   2.020   0.202   2.518 -0.0111 -0.3923 -0.2705
 2646SOL    HW110582   1.941   0.241   2.480 -0.2619  0.2467  0.8428
 2646SOL    HW210583   1.988   0.125   2.564  0.3577 -1.4369 -1.7047
 2646SOL     MW10584   2.005   0.197   2.519  0.0048 -0.4469 -0.3137
 2647SOL     OW10585   1.041   3.015   3.202 -0.2587  0.0364  0.3208
 2647SOL    HW110586   1.133   3.025   3.226  0.0823  0.7384 -1.1476
 2647SOL    HW210587   0.994   3.077   3.258  0.1457 -0.3490  1.0950
 2647SOL     MW10588   1.047   3.024   3.213 -0.1583  0.0790  0.2274
 2648SOL     OW10589   3.849   1.384   0.487  0.1092 -0.4542  0.4580
 2648SOL    HW110590   3.939   1.353   0.480  0.0400 -1.1814  2.2347
 2648SOL    HW210591   3.856   1.479   0.486  0.9771 -0.5002  1.1106
 2648SOL     MW10592   3.862   1.393   0.486  0.2167 -0.5583  0.7849
 2649SOL     OW10593   3.604   0.220   1.016  0.5740 -0.3529 -0.2241
 2649SOL    HW110594   3.592   0.135   0.974  2.3146 -0.3145 -0.8828
 2649SOL    HW210595   3.669   0.204   1.085  0.1255  0.2349  0.3491
 2649SOL     MW10596   3.611   0.207   1.020  0.7479 -0.2686 -0.2356
 2650SOL     OW10597   4.152   4.338   1.156  0.2515 -0.2637  0.0361
 2650SOL    HW110598   4.106   4.255   1.148 -0.7501  0.2989 -0.3370
 2650SOL    HW210599   4.110   4.381   1.231  0.2983  0.1758 -0.1871
 2650SOL     MW10600   4.140   4.333   1.165  0.1230 -0.1288 -0.0442
 2651SOL     OW10601   1.875   5.026   1.199  0.8416  0.0892  0.2192
 2651SOL    HW110602   1.948   4.973   1.166  0.3143 -0.1025 -0.6825
 2651SOL    HW210603   1.860   5.091   1.130 -0.0437 -0.0800  0.2424
 2651SOL     MW10604   1.883   5.027   1.185  0.6515  0.0406  0.1010
 2652SOL     OW10605   4.099   4.781   1.529  0.7935 -0.3603 -0.3570
 2652SOL    HW110606   4.007   4.760   1.545  0.6382  0.3515 -0.2942
 2652SOL    HW210607   4.117   4.743   1.444  0.2010  0.2305 -0.7545
 2652SOL     MW10608   4.089   4.773   1.520  0.6929 -0.1850 -0.4020
 2653SOL     OW10609   3.373   0.398   4.712  0.2114  0.4249 -0.1709
 2653SOL    HW110610   3.385   0.383   4.806  0.4035  1.7324  0.0338
 2653SOL    HW210611   3.446   0.352   4.671 -0.1361 -0.5475  0.2775
 2653SOL     MW10612   3.384   0.390   4.719  0.1905  0.4700 -0.0830
 2654SOL     OW10613   1.988   1.462   3.449 -0.4692 -0.3886 -0.1586
 2654SOL    HW110614   1.939   1.544   3.463  0.7481  0.4762 -0.7635
 2654SOL    HW210615   1.963   1.434   3.361  1.1715  0.8546 -1.0742
 2654SOL     MW10616   1.978   1.469   3.439 -0.0846 -0.1049 -0.3632
 2655SOL     OW10617   2.664   3.167   3.214  0.4027 -0.0191  0.3419
 2655SOL    HW110618   2.723   3.207   3.278 -0.1799  0.3664  0.6432
 2655SOL    HW210619   2.580   3.161   3.259 -0.8919  3.0869 -1.3273
 2655SOL     MW10620   2.661   3.172   3.229  0.1501  0.4508  0.1578
 2656SOL     OW10621   4.522   1.456   4.184 -0.3775  0.2712 -0.2153
 2656SOL    HW110622   4.545   1.367   4.159  0.6901  0.0984  1.2227
 2656SOL    HW210623   4.432   1.468   4.155 -0.3338 -1.0725 -0.9339
 2656SOL     MW10624   4.513   1.446   4.177 -0.2279  0.0671 -0.1185
 2657SOL     OW10625   0.261   0.631   2.248  0.1114  0.0935 -0.7325
 2657SOL    HW110626   0.311   0.558   2.211 -3.7043 -2.9331 -0.5318
 2657SOL    HW210627   0.241   0.686   2.172 -0.2943 -1.3078 -1.6897
 2657SOL     MW10628   0.265   0.628   2.232 -0.4567 -0.5024 -0.8343
 2658SOL     OW10629   2.661   1.111   0.131  0.1013  0.2281 -0.1119
 2658SOL    HW110630   2.575   1.151   0.121  0.1487  0.8043  1.4947
 2658SOL    HW210631   2.663   1.041   0.066 -1.9724 -0.4437  0.4722
 2658SOL     MW10632   2.649   1.107   0.121 -0.1714  0.2152  0.1829
 2659SOL     OW10633   4.604   5.189   3.706  0.1464 -0.3085  0.2356
 2659SOL    HW110634   4.558   5.241   3.772  0.1048  0.6902 -0.5506
 2659SOL    HW210635   4.688   5.234   3.696 -0.5200  0.6042 -1.6273
 2659SOL     MW10636   4.609   5.202   3.714  0.0511 -0.0513 -0.1209
 2660SOL     OW10637   0.564   0.188   2.670  0.3143 -0.4906 -0.5571
 2660SOL    HW110638   0.655   0.170   2.646  1.1968 -0.1882  2.1612
 2660SOL    HW210639   0.570   0.244   2.748 -2.2415  0.8437 -1.1840
 2660SOL     MW10640   0.577   0.193   2.678  0.0891 -0.2703 -0.2757
 2661SOL     OW10641   1.586   1.325   2.664  0.6638  0.1618  0.0081
 2661SOL    HW110642   1.493   1.316   2.641  0.1399 -0.8255  2.2195
 2661SOL    HW210643   1.630   1.256   2.615  0.0421 -0.1192 -0.1599
 2661SOL     MW10644   1.579   1.315   2.655  0.5096 -0.0089  0.2831
 2662SOL     OW10645   4.148   4.899   2.438 -0.1054 -0.4122 -0.4287
 2662SOL    HW110646   4.137   4.988   2.471  0.6700 -0.9653  1.4753
 2662SOL    HW210647   4.082   4.890   2.369 -1.2376  1.1144  0.3957
 2662SOL     MW10648   4.138   4.909   2.433 -0.1534 -0.2812 -0.0615
 2663SOL     OW10649   4.995   2.219   0.854  0.2564  0.5961  0.4722
 2663SOL    HW110650   4.915   2.205   0.906  0.7767  1.8470  1.6544
 2663SOL    HW210651   5.025   2.306   0.878  1.1960  0.7428 -1.0682
 2663SOL     MW10652   4.988   2.228   0.864  0.4529  0.7842  0.4240
 2664SOL     OW10653   2.006   3.652   1.935  0.0885  0.0817 -0.0569
 2664SOL    HW110654   2.056   3.606   2.002  0.8706  0.7309 -0.1857
 2664SOL    HW210655   1.914   3.636   1.958  0.3349  0.6377  1.4094
 2664SOL     MW10656   2.000   3.644   1.947  0.2269  0.2439  0.1231
 2665SOL     OW10657   2.749   0.715   3.180 -0.1169 -0.4571  0.4374
 2665SOL    HW110658   2.833   0.719   3.227  0.7700  0.6085 -1.1369
 2665SOL    HW210659   2.735   0.805   3.150 -1.8298 -0.6342  0.6476
 2665SOL     MW10660   2.758   0.728   3.182 -0.2281 -0.3375  0.2538
 2666SOL     OW10661   4.244   3.073   3.368  0.0911 -0.1196 -0.2740
 2666SOL    HW110662   4.242   3.075   3.272  0.3629 -0.3719 -0.2877
 2666SOL    HW210663   4.335   3.051   3.390  0.2547  0.8745  0.0618
 2666SOL     MW10664   4.256   3.070   3.358  0.1497 -0.0198 -0.2307
 2667SOL     OW10665   3.203   0.179   3.656  0.3585 -0.4578  0.4109
 2667SOL    HW110666   3.150   0.176   3.736 -0.6260  0.1345 -0.2031
 2667SOL    HW210667   3.275   0.239   3.677  0.5274 -0.8816  1.0867
 2667SOL     MW10668   3.205   0.187   3.670  0.2487 -0.4352  0.4193
 2668SOL     OW10669   3.673   3.382   4.053 -0.1049  0.0820 -0.4029
 2668SOL    HW110670   3.732   3.457   4.062 -1.8756  1.3722  1.5823
 2668SOL    HW210671   3.700   3.321   4.122 -0.5700  0.3442  0.0249
 2668SOL     MW10672   3.684   3.384   4.064 -0.4058  0.2909 -0.0782
 2669SOL     OW10673   1.783   0.968   0.945 -0.5153 -0.5199 -0.1887
 2669SOL    HW110674   1.732   0.907   0.892 -2.4369  0.7863  0.0782
 2669SOL    HW210675   1.852   0.999   0.886 -1.1609 -0.8877 -1.1586
 2669SOL     MW10676   1.786   0.964   0.930 -0.8608 -0.3936 -0.2833
 2670SOL     OW10677   0.712   3.477   5.470 -0.4071  0.2102 -0.0492
 2670SOL    HW110678   0.737   3.569   5.461 -3.3622  1.4904  2.7451
 2670SOL    HW210679   0.724   3.459   5.564  0.9876 -2.6550 -0.6667
 2670SOL     MW10680   0.717   3.487   5.482 -0.6171 -0.0031  0.2438
 2671SOL     OW10681   0.221   2.710   1.858 -0.2036 -0.1520  0.2632
 2671SOL    HW110682   0.201   2.732   1.768 -0.6377  1.7686  0.7947
 2671SOL    HW210683   0.154   2.646   1.883 -1.8241  1.3909  0.0473
 2671SOL     MW10684   0.209   2.704   1.849 -0.4801  0.3141  0.3057
 2672SOL     OW10685   1.333   5.268   2.371  0.2721  0.3289 -0.1914
 2672SOL    HW110686   1.240   5.286   2.386 -0.0374  0.3912 -1.9797
 2672SOL    HW210687   1.336   5.177   2.343  0.8710  0.0458  0.7668
 2672SOL     MW10688   1.321   5.258   2.369  0.3110  0.2992 -0.3031
 2673SOL     OW10689   2.486   2.926   2.893 -0.5308 -0.4540 -0.5083
 2673SOL    HW110690   2.547   2.904   2.963 -2.2361  0.1144  1.2219
 2673SOL    HW210691   2.513   2.871   2.820  1.3237 -1.0474  0.5579
 2673SOL     MW10692   2.498   2.916   2.892 -0.5107 -0.4574 -0.1320
 2674SOL     OW10693   1.917   0.741   2.177 -0.2127  0.4240 -0.1798
 2674SOL    HW110694   1.988   0.753   2.114  0.8077  1.2142  1.0762
 2674SOL    HW210695   1.837   0.762   2.128  0.2651 -1.3276 -1.8807
 2674SOL     MW10696   1.916   0.745   2.162 -0.0111  0.2946 -0.2397
 2675SOL     OW10697   4.474   1.264   5.047 -0.1350  0.0766 -0.3473
 2675SOL    HW110698   4.387   1.224   5.042 -0.4747  0.6412  0.7464
 2675SOL    HW210699   4.480   1.317   4.967 -1.0646  0.5547 -0.1115
 2675SOL     MW10700   4.463   1.266   5.035 -0.3058  0.2169 -0.1684
 2676SOL     OW10701   2.452   3.383   0.099  0.5006  0.1922 -0.3702
 2676SOL    HW110702   2.411   3.298   0.116  1.8284 -0.3750  0.0556
 2676SOL    HW210703   2.490   3.409   0.183 -0.1633  1.3729 -0.4126
 2676SOL     MW10704   2.451   3.375   0.112  0.5900  0.2747 -0.3186
 2677SOL     OW10705  -0.007   4.788   2.998  0.1062  0.5767 -0.0354
 2677SOL    HW110706   0.084   4.760   2.993  0.3399  1.3537 -0.4644
 2677SOL    HW210707  -0.056   4.722   2.949  0.4576  0.2097  0.1123
 2677SOL     MW10708  -0.002   4.776   2.991  0.1850  0.6319 -0.0733
 2678SOL     OW10709   5.461   0.819   4.101  0.2626  0.3893 -0.3619
 2678SOL    HW110710   5.387   0.760   4.117 -0.4643  1.5805  0.9049
 2678SOL    HW210711   5.537   0.771   4.135 -0.2515  0.0002  0.2734
 2678SOL     MW10712   5.461   0.805   4.108  0.0956  0.4973 -0.1059
 2679SOL     OW10713   5.355   3.208   5.319 -0.1573  0.7554 -0.6697
 2679SOL    HW110714   5.266   3.241   5.332 -0.8983 -0.8500 -1.4480
 2679SOL    HW210715   5.390   3.263   5.249 -0.8255  0.8671 -0.9261
 2679SOL     MW10716   5.348   3.220   5.312 -0.3469  0.5543 -0.8090
 2680SOL     OW10717   3.672   1.469   0.279  0.3571  0.1491  0.4490
 2680SOL    HW110718   3.721   1.431   0.352 -0.3297  0.6769  1.2081
 2680SOL    HW210719   3.586   1.426   0.283 -0.0012  0.8541  0.5507
 2680SOL     MW10720   3.667   1.458   0.289  0.2165  0.3150  0.5648
 2681SOL     OW10721   0.509   0.296   3.403 -0.5144  0.9723  0.3417
 2681SOL    HW110722   0.465   0.258   3.327  1.1847 -0.9173  0.2373
 2681SOL    HW210723   0.442   0.295   3.472 -1.8335  1.9805 -0.8596
 2681SOL     MW10724   0.494   0.291   3.402 -0.4633  0.8537  0.1659
 2682SOL     OW10725   2.303   5.345   2.771  0.6538 -0.3649 -0.2062
 2682SOL    HW110726   2.291   5.338   2.677 -0.6200 -1.3403  0.0050
 2682SOL    HW210727   2.275   5.261   2.806 -0.5081  0.5394  1.1793
 2682SOL     MW10728   2.298   5.333   2.763  0.3260 -0.3745  0.0087
 2683SOL     OW10729   4.522   0.657   3.813 -0.2433  0.2767 -0.0347
 2683SOL    HW110730   4.445   0.621   3.857  0.2393  0.0938  0.6849
 2683SOL    HW210731   4.511   0.751   3.820 -0.5098  0.2543 -0.1295
 2683SOL     MW10732   4.510   0.665   3.820 -0.2142  0.2491  0.0494
 2684SOL     OW10733   1.704   5.546   4.767 -0.2383  0.2644 -0.0234
 2684SOL    HW110734   1.752   5.501   4.837  0.8027 -1.0188 -1.4877
 2684SOL    HW210735   1.656   5.477   4.721  0.8423  0.6735 -1.8962
 2684SOL     MW10736   1.704   5.531   4.770  0.0472  0.1468 -0.4725
 2685SOL     OW10737   2.102   3.521   1.696 -0.0004  0.4564  0.0423
 2685SOL    HW110738   2.064   3.561   1.775 -0.8349  0.5599 -0.3979
 2685SOL    HW210739   2.196   3.529   1.708 -0.0312 -1.1159  1.8732
 2685SOL     MW10740   2.109   3.528   1.708 -0.1168  0.2587  0.2295
 2686SOL     OW10741   4.140   1.080   4.551  0.1130 -0.3329  0.1182
 2686SOL    HW110742   4.076   1.067   4.481  1.6478 -1.7733 -1.1036
 2686SOL    HW210743   4.183   1.163   4.530  0.0029 -0.3506 -0.1754
 2686SOL     MW10744   4.137   1.090   4.539  0.3048 -0.5291 -0.0857
 2687SOL     OW10745   4.940   0.845   2.027  0.3566  0.2937  0.0765
 2687SOL    HW110746   4.889   0.926   2.027  1.1319  0.8357 -1.7610
 2687SOL    HW210747   4.874   0.775   2.032 -0.5785  0.9824 -1.7170
 2687SOL     MW10748   4.924   0.847   2.028  0.3351  0.4593 -0.4122
 2688SOL     OW10749   0.753   2.375   2.413 -0.0587 -0.0434  0.7787
 2688SOL    HW110750   0.833   2.369   2.361 -1.3567  0.3536 -1.3615
 2688SOL    HW210751   0.751   2.293   2.463  0.9643 -0.6902 -0.2014
 2688SOL     MW10752   0.763   2.363   2.413 -0.0957 -0.0770  0.3588
 2689SOL     OW10753   4.479   1.262   3.273  0.2107 -0.2027 -0.5944
 2689SOL    HW110754   4.470   1.340   3.328 -0.2433 -0.2664 -0.5762
 2689SOL    HW210755   4.391   1.223   3.272  0.4915 -0.8559 -0.3855
 2689SOL     MW10756   4.466   1.267   3.281  0.1874 -0.2992 -0.5638
 2690SOL     OW10757   4.199   4.423   1.589 -0.2010 -0.5886 -0.1724
 2690SOL    HW110758   4.237   4.344   1.551 -2.8433 -1.8548 -0.3498
 2690SOL    HW210759   4.248   4.436   1.670  1.6488 -1.1698 -1.1449
 2690SOL     MW10760   4.211   4.414   1.595 -0.3077 -0.8372 -0.3272
 2691SOL     OW10761   3.576   0.628   4.649 -0.5693 -0.4707 -0.0720
 2691SOL    HW110762   3.527   0.708   4.665 -0.7332 -0.6221  0.2032
 2691SOL    HW210763   3.519   0.558   4.682 -0.2403 -0.6618  0.0995
 2691SOL     MW10764   3.562   0.629   4.655 -0.5471 -0.5168 -0.0119
 2692SOL     OW10765   5.186   0.698   1.258  0.4466  0.2330 -0.2343
 2692SOL    HW110766   5.161   0.658   1.342 -0.3540  0.0980 -0.5324
 2692SOL    HW210767   5.271   0.659   1.238  1.0606  0.9110  0.9327
 2692SOL     MW10768   5.194   0.687   1.267  0.4215  0.3061 -0.1174
 2693SOL     OW10769   0.710   0.343   1.442  0.2968 -0.3995  0.1820
 2693SOL    HW110770   0.659   0.274   1.398  0.5499  0.2486 -1.1815
 2693SOL    HW210771   0.712   0.415   1.379 -0.2939  1.0353  1.7310
 2693SOL     MW10772   0.704   0.343   1.427  0.2514 -0.1192  0.2070
 2694SOL     OW10773   1.362   2.621   0.349  0.4074 -0.0010  0.8674
 2694SOL    HW110774   1.447   2.663   0.363  0.4735 -0.1066  0.7836
 2694SOL    HW210775   1.356   2.556   0.419  0.2387  0.2484  1.0890
 2694SOL     MW10776   1.373   2.618   0.361  0.3936  0.0183  0.8860
 2695SOL     OW10777   4.442   0.214   2.688 -0.2496 -0.4162  0.3562
 2695SOL    HW110778   4.381   0.266   2.741 -0.2419 -0.7745  0.7187
 2695SOL    HW210779   4.433   0.125   2.722 -2.4214 -1.2944 -2.1285
 2695SOL     MW10780   4.432   0.209   2.699 -0.5408 -0.5826  0.0706
 2696SOL     OW10781   5.466   0.696   1.941 -0.5339 -0.6388  0.1093
 2696SOL    HW110782   5.437   0.777   1.900  0.8529  0.1919  0.6853
 2696SOL    HW210783   5.487   0.638   1.868  1.8105  0.7849 -0.4708
 2696SOL     MW10784   5.465   0.699   1.926 -0.0317 -0.3354  0.1088
 2697SOL     OW10785   5.215   0.856   0.181 -0.1053 -0.3216 -0.2064
 2697SOL    HW110786   5.139   0.893   0.135  0.0212 -0.5175 -0.5748
 2697SOL    HW210787   5.177   0.791   0.240 -0.2681 -0.0724 -0.0328
 2697SOL     MW10788   5.199   0.853   0.183 -0.1102 -0.3144 -0.2326
 2698SOL     OW10789   1.982   0.895   2.618  0.1527 -0.1059  0.0989
 2698SOL    HW110790   2.018   0.897   2.530 -1.0572 -0.5189 -0.4212
 2698SOL    HW210791   2.016   0.974   2.660 -1.3457  1.4931 -1.5683
 2698SOL     MW10792   1.992   0.906   2.612 -0.2118  0.0537 -0.1955
 2699SOL     OW10793   0.583   1.369   0.816 -0.2370  0.0921  0.2590
 2699SOL    HW110794   0.637   1.448   0.819 -1.1168  0.8277 -1.6567
 2699SOL    HW210795   0.598   1.333   0.728 -1.7187 -0.4843  0.2187
 2699SOL     MW10796   0.592   1.374   0.804 -0.5548  0.1135 -0.0043
 2700SOL     OW10797   2.713   3.651   3.496 -0.5844  0.2555 -0.3356
 2700SOL    HW110798   2.808   3.652   3.486 -0.5809  1.0534 -0.3312
 2700SOL    HW210799   2.689   3.559   3.488  0.3954 -0.2191  1.6220
 2700SOL     MW10800   2.723   3.639   3.493 -0.4521  0.2990 -0.0716
 2701SOL     OW10801   0.606   5.460   3.747  0.5812  0.3729 -0.6211
 2701SOL    HW110802   0.525   5.408   3.755  0.8115  0.1696  0.5712
 2701SOL    HW210803   0.650   5.424   3.670 -0.4343  0.4626 -1.2735
 2701SOL     MW10804   0.601   5.448   3.738  0.4756  0.3576 -0.5484
 2702SOL     OW10805   4.593   1.256   1.536  0.6257 -0.2291 -0.0673
 2702SOL    HW110806   4.632   1.191   1.477 -1.0641 -0.4715 -0.9783
 2702SOL    HW210807   4.668   1.300   1.576  1.8156 -1.8664 -0.3973
 2702SOL     MW10808   4.608   1.253   1.533  0.5585 -0.4821 -0.2343
 2703SOL     OW10809   2.767   1.484   3.344  0.2265  0.3500 -0.0997
 2703SOL    HW110810   2.699   1.548   3.366  0.2361  0.6056 -0.8065
 2703SOL    HW210811   2.813   1.522   3.270  0.3323 -0.4124 -0.4335
 2703SOL     MW10812   2.764   1.498   3.337  0.2420  0.2818 -0.2397
 2704SOL     OW10813   4.182   0.219   2.849 -0.1790  0.4416 -0.2612
 2704SOL    HW110814   4.088   0.203   2.865  0.0506 -1.6203 -0.6227
 2704SOL    HW210815   4.214   0.254   2.932 -1.2629  1.1817 -0.1299
 2704SOL     MW10816   4.174   0.221   2.862 -0.2939  0.2637 -0.2922
 2705SOL     OW10817   0.943   2.516   1.304  0.2498 -0.3594 -0.0875
 2705SOL    HW110818   0.919   2.539   1.393 -1.5695  1.2279 -0.9242
 2705SOL    HW210819   0.954   2.600   1.259  3.2511 -1.0502 -0.8984
 2705SOL     MW10820   0.941   2.530   1.310  0.4089 -0.2387 -0.3092
 2706SOL     OW10821   2.792   2.074   2.137  0.4974  0.2301  0.0398
 2706SOL    HW110822   2.827   2.162   2.119  0.0993  0.4045  0.1266
 2706SOL    HW210823   2.866   2.016   2.118  1.1463  0.6637  1.1685
 2706SOL     MW10824   2.807   2.078   2.132  0.5312  0.3119  0.2034
 2707SOL     OW10825   4.315   4.166   3.193 -0.6649 -0.1395 -0.2366
 2707SOL    HW110826   4.303   4.234   3.260 -2.2001  0.0890 -0.7068
 2707SOL    HW210827   4.226   4.133   3.176 -0.1129 -1.2549 -1.0713
 2707SOL     MW10828   4.301   4.171   3.200 -0.7972 -0.2589 -0.4122
 2708SOL     OW10829   0.209   1.454   4.150 -0.5856  0.2750 -0.4846
 2708SOL    HW110830   0.235   1.546   4.157 -0.2457  0.3876 -2.6336
 2708SOL    HW210831   0.162   1.448   4.068 -0.2214 -1.5552 -0.6052
 2708SOL     MW10832   0.206   1.466   4.140 -0.4908  0.0438 -0.7900
 2709SOL     OW10833   3.312   3.023   2.847  0.4548  0.4908 -0.1231
 2709SOL    HW110834   3.303   2.931   2.872 -1.0064  0.5663 -0.2548
 2709SOL    HW210835   3.244   3.067   2.898  0.3713  1.3175 -0.9363
 2709SOL     MW10836   3.302   3.016   2.857  0.2469  0.6122 -0.2503
 2710SOL     OW10837   1.192   5.308   0.791  0.2254  0.0890  0.0534
 2710SOL    HW110838   1.138   5.260   0.729  2.2880 -0.3158 -1.5193
 2710SOL    HW210839   1.169   5.271   0.877  0.6683 -2.6951 -0.9422
 2710SOL     MW10840   1.181   5.297   0.795  0.5626 -0.3402 -0.2922
 2711SOL     OW10841   0.436   0.900   3.942  0.0967 -0.0763 -0.5181
 2711SOL    HW110842   0.487   0.927   3.866  1.0040  0.5334  0.2896
 2711SOL    HW210843   0.367   0.844   3.906 -0.2534  1.2025 -1.9410
 2711SOL     MW10844   0.433   0.896   3.927  0.1717  0.1779 -0.6009
 2712SOL     OW10845   3.070   2.908   1.944 -0.2925 -0.0346  0.1401
 2712SOL    HW110846   3.024   2.992   1.949  1.1189  0.7354  1.1712
 2712SOL    HW210847   3.084   2.894   1.851 -1.0937  0.5674 -0.0821
 2712SOL     MW10848   3.066   2.918   1.932 -0.2104  0.1500  0.2489
 2713SOL     OW10849   4.910   3.578   3.564 -0.4812  0.3226  0.3795
 2713SOL    HW110850   4.914   3.666   3.527 -0.2688  0.0541 -0.2446
 2713SOL    HW210851   4.990   3.571   3.616 -0.3492  0.3928  0.1872
 2713SOL     MW10852   4.922   3.589   3.566 -0.4349  0.2959  0.2696
 2714SOL     OW10853   1.321   1.297   2.582 -0.1829  0.1580  0.1501
 2714SOL    HW110854   1.267   1.266   2.655  0.6135  0.3062  0.8168
 2714SOL    HW210855   1.282   1.381   2.558 -0.2640  0.2542  0.6071
 2714SOL     MW10856   1.308   1.304   2.588 -0.0866  0.1909  0.3013
 2715SOL     OW10857   1.137   2.602   4.019 -0.0330  0.0616 -0.9039
 2715SOL    HW110858   1.117   2.676   4.077 -1.0124 -0.9556  0.1114
 2715SOL    HW210859   1.051   2.569   3.992  0.2875 -1.8644  0.2127
 2715SOL     MW10860   1.122   2.607   4.024 -0.1216 -0.3345 -0.6170
 2716SOL     OW10861   2.292   1.005   3.001 -0.1984 -0.6159  0.1679
 2716SOL    HW110862   2.351   1.079   3.015  1.0128 -1.3309 -0.9075
 2716SOL    HW210863   2.206   1.045   2.987  0.0413  0.4551  1.6015
 2716SOL     MW10864   2.288   1.020   3.001 -0.0032 -0.5680  0.2161
 2717SOL     OW10865   2.290   2.851   2.497  0.0406 -0.1308  0.8087
 2717SOL    HW110866   2.303   2.924   2.558  1.6927 -0.0315  0.3664
 2717SOL    HW210867   2.344   2.873   2.421 -1.2895 -0.6860 -0.3491
 2717SOL     MW10868   2.299   2.864   2.495  0.0840 -0.1921  0.5934
 2718SOL     OW10869   1.490   4.127   4.536  0.2786  0.1308  0.0084
 2718SOL    HW110870   1.431   4.201   4.522  0.4967  0.4667  0.8079
 2718SOL    HW210871   1.488   4.112   4.630  0.0319 -1.0618 -0.1806
 2718SOL     MW10872   1.482   4.135   4.547  0.2748  0.0155  0.0905
 2719SOL     OW10873   0.322   4.238   2.179 -0.0098 -0.3185  0.0218
 2719SOL    HW110874   0.290   4.280   2.259 -0.3572  1.1687 -0.8641
 2719SOL    HW210875   0.269   4.159   2.170 -0.5823 -0.0275  0.7775
 2719SOL     MW10876   0.311   4.233   2.189 -0.1336 -0.0792  0.0043
 2720SOL     OW10877   0.363   2.146   2.740  0.3085 -0.2979  0.3322
 2720SOL    HW110878   0.455   2.143   2.766  0.2472  0.0394  0.5952
 2720SOL    HW210879   0.343   2.239   2.735 -0.1497 -0.3741  0.7341
 2720SOL     MW10880   0.373   2.158   2.743  0.2386 -0.2627  0.4217
 2721SOL     OW10881   3.604   5.524   0.830 -0.1668 -0.1226  0.5102
 2721SOL    HW110882   3.600   5.429   0.831  0.6847 -0.1730  0.3434
 2721SOL    HW210883   3.693   5.544   0.801 -0.5128  0.7265 -0.0083
 2721SOL     MW10884   3.615   5.514   0.826 -0.0987 -0.0151  0.4180
 2722SOL     OW10885   4.790   0.469   4.700 -0.3203 -0.0064 -0.0779
 2722SOL    HW110886   4.833   0.477   4.615 -1.1619  0.9110 -0.4290
 2722SOL    HW210887   4.738   0.549   4.709 -1.1718 -0.6280  0.7721
 2722SOL     MW10888   4.789   0.480   4.690 -0.5482  0.0334 -0.0108
 2723SOL     OW10889   4.277   4.549   1.337 -0.3407 -0.0330  0.1230
 2723SOL    HW110890   4.199   4.589   1.298 -1.3038 -2.1199 -0.1953
 2723SOL    HW210891   4.244   4.494   1.408  0.8748 -0.7417  0.1767
 2723SOL     MW10892   4.262   4.547   1.342 -0.3067 -0.4092  0.0874
 2724SOL     OW10893   0.885   0.560   2.755 -0.1258 -0.3309  0.4046
 2724SOL    HW110894   0.833   0.532   2.830  0.8316 -1.0524  0.8292
 2724SOL    HW210895   0.956   0.496   2.750 -0.2646 -0.4145 -1.2413
 2724SOL     MW10896   0.888   0.547   2.764 -0.0157 -0.4392  0.2402
 2725SOL     OW10897   4.851   5.366   5.146  0.4865  0.1599  0.3440
 2725SOL    HW110898   4.827   5.448   5.104  0.5221  0.2701  0.5404
 2725SOL    HW210899   4.791   5.357   5.219 -0.5058 -0.7289 -0.5469
 2725SOL     MW10900   4.840   5.376   5.150  0.3578  0.0551  0.2505
 2726SOL     OW10901   4.824   1.623   4.516 -0.1475  0.2229 -0.5387
 2726SOL    HW110902   4.906   1.573   4.522 -0.2566  0.1009 -0.0116
 2726SOL    HW210903   4.818   1.648   4.423  0.8750  0.8944 -0.4365
 2726SOL     MW10904   4.834   1.619   4.504 -0.0245  0.2968 -0.4540
 2727SOL     OW10905   2.082   4.585   5.536  0.0979 -0.5262 -0.2045
 2727SOL    HW110906   2.082   4.522   5.464 -1.2699 -0.7956  0.0028
 2727SOL    HW210907   2.175   4.600   5.555  0.4611 -1.2817 -1.2914
 2727SOL     MW10908   2.095   4.579   5.529 -0.0373 -0.6642 -0.3229
 2728SOL     OW10909   4.590   0.888   4.376 -0.2449 -0.3453 -0.3825
 2728SOL    HW110910   4.672   0.930   4.398 -0.2251 -0.5999  0.0376
 2728SOL    HW210911   4.528   0.960   4.365  0.1555 -0.1153 -1.2623
 2728SOL     MW10912   4.593   0.903   4.377 -0.1883 -0.3486 -0.4444
 2729SOL     OW10913   2.819   5.504   4.097 -0.1030 -0.2903  0.7041
 2729SOL    HW110914   2.869   5.501   4.179 -1.4191 -1.3418  1.5085
 2729SOL    HW210915   2.828   5.416   4.060  0.0209  0.0159 -0.0181
 2729SOL     MW10916   2.827   5.492   4.103 -0.2634 -0.3906  0.7152
 2730SOL     OW10917   5.489   2.036   4.689 -0.0268  0.3345 -0.2417
 2730SOL    HW110918   5.567   2.090   4.673 -0.3806  1.0870  0.4956
 2730SOL    HW210919   5.416   2.098   4.683 -0.4471 -0.0795  0.5348
 2730SOL     MW10920   5.490   2.052   4.686 -0.1310  0.3800 -0.0380
 2731SOL     OW10921   1.130   2.751   0.649 -0.2662 -0.0876 -0.3638
 2731SOL    HW110922   1.225   2.742   0.654 -0.2189  0.9766  0.9052
 2731SOL    HW210923   1.106   2.703   0.570  1.1831 -1.4286 -0.0293
 2731SOL     MW10924   1.139   2.743   0.639 -0.0648 -0.1248 -0.1480
 2732SOL     OW10925   0.632   2.604   0.838 -0.1124 -0.6484 -0.2931
 2732SOL    HW110926   0.694   2.649   0.895 -1.9822  2.0534 -0.2181
 2732SOL    HW210927   0.577   2.553   0.897 -1.6519  1.6556  0.3732
 2732SOL     MW10928   0.633   2.603   0.854 -0.5712  0.0253 -0.1934
 2733SOL     OW10929   3.867   2.480   3.964 -0.0252  0.1800  0.2417
 2733SOL    HW110930   3.818   2.560   3.980 -0.1947 -0.1404  1.4815
 2733SOL    HW210931   3.949   2.492   4.013  0.0169 -0.3369  0.3098
 2733SOL     MW10932   3.872   2.492   3.973 -0.0424  0.0673  0.4177
 2734SOL     OW10933   1.447   3.384   4.244 -0.1131 -0.1050  0.4061
 2734SOL    HW110934   1.378   3.447   4.263  0.4703  0.3410  1.0889
 2734SOL    HW210935   1.409   3.299   4.266 -0.8548  0.0106 -0.3871
 2734SOL     MW10936   1.433   3.381   4.250 -0.1344 -0.0294  0.3912
 2735SOL     OW10937   4.532   4.669   0.348 -0.1073  0.6634 -0.4215
 2735SOL    HW110938   4.549   4.723   0.271  1.5256 -0.6479 -1.0637
 2735SOL    HW210939   4.618   4.660   0.390 -0.9227  1.1458  1.4429
 2735SOL     MW10940   4.546   4.675   0.344  0.0027  0.5519 -0.2570
 2736SOL     OW10941   0.511   4.707   3.790  0.0164 -0.1541 -0.1321
 2736SOL    HW110942   0.589   4.761   3.777 -1.2172  1.6615 -0.3142
 2736SOL    HW210943   0.488   4.721   3.882  0.5557 -1.6366  0.2563
 2736SOL     MW10944   0.519   4.716   3.801 -0.0770 -0.1093 -0.1043
 2737SOL     OW10945   1.097   5.442   3.603  0.2033 -0.3561 -0.1429
 2737SOL    HW110946   1.171   5.494   3.571  0.8610  0.7950  2.9006
 2737SOL    HW210947   1.024   5.466   3.546  1.7851 -0.4550 -2.3345
 2737SOL     MW10948   1.097   5.452   3.591  0.5047 -0.2145 -0.0282
 2738SOL     OW10949   1.898   4.586   0.822 -0.4289  0.0426  0.0883
 2738SOL    HW110950   1.845   4.521   0.776  1.9017 -0.9133 -1.4958
 2738SOL    HW210951   1.886   4.666   0.772 -2.1941  0.4977  1.1861
 2738SOL     MW10952   1.889   4.588   0.809 -0.3528 -0.0248  0.0228
 2739SOL     OW10953   4.862   3.993   1.461  0.3398 -0.0868  0.6436
 2739SOL    HW110954   4.848   3.977   1.554 -0.1825 -1.6128  0.3338
 2739SOL    HW210955   4.777   3.978   1.420  0.2767  1.6956  0.0229
 2739SOL     MW10956   4.849   3.989   1.468  0.2610 -0.0523  0.5183
 2740SOL     OW10957   2.656   2.197   1.291  0.1233  0.3037 -0.3673
 2740SOL    HW110958   2.691   2.192   1.202  1.9521  2.9153  0.0897
 2740SOL    HW210959   2.626   2.288   1.301 -1.7543 -0.3875  1.1439
 2740SOL     MW10960   2.656   2.209   1.281  0.1167  0.5622 -0.1024
 2741SOL     OW10961   3.080   0.086   1.990  0.3402  0.1292  0.4015
 2741SOL    HW110962   3.076  -0.010   1.981 -0.4676  0.1813  0.1171
 2741SOL    HW210963   3.111   0.100   2.079  1.0199 -0.3984  0.2577
 2741SOL     MW10964   3.083   0.075   2.001  0.3230  0.0652  0.3438
 2742SOL     OW10965   4.189   4.387   2.486  0.2624 -0.3663 -0.7204
 2742SOL    HW110966   4.171   4.446   2.412 -1.0488 -0.3323 -0.3804
 2742SOL    HW210967   4.210   4.446   2.559  2.6998 -0.4017 -1.2786
 2742SOL     MW10968   4.190   4.403   2.486  0.4139 -0.3665 -0.7497
 2743SOL     OW10969   3.256   2.008   5.125  0.2117  0.2079  0.1655
 2743SOL    HW110970   3.308   1.996   5.045 -0.1032  1.7472 -0.3044
 2743SOL    HW210971   3.312   1.975   5.195  1.0474  0.0802 -0.5444
 2743SOL     MW10972   3.271   2.002   5.124  0.2818  0.3979  0.0067
 2744SOL     OW10973   3.251   3.666   5.141  0.3463 -0.3957 -0.2309
 2744SOL    HW110974   3.342   3.662   5.110  0.2008 -0.2783 -0.6734
 2744SOL    HW210975   3.236   3.580   5.180  0.7893 -0.2648  0.2450
 2744SOL     MW10976   3.262   3.654   5.142  0.3864 -0.3623 -0.2264
 2745SOL     OW10977   1.357   3.315   4.849  0.5474 -0.0343  0.0482
 2745SOL    HW110978   1.356   3.372   4.926 -1.6377 -0.6989  0.5759
 2745SOL    HW210979   1.438   3.265   4.857  0.1586 -0.4044  2.1702
 2745SOL     MW10980   1.368   3.316   4.861  0.2010 -0.1735  0.4048
 2746SOL     OW10981   4.177   3.691   3.140 -0.3122  0.2448 -0.6028
 2746SOL    HW110982   4.088   3.688   3.175  0.6418 -0.3619  1.9212
 2746SOL    HW210983   4.179   3.619   3.076 -1.8815  0.9283 -1.5038
 2746SOL     MW10984   4.165   3.681   3.136 -0.3950  0.2551 -0.3844
 2747SOL     OW10985   4.814   2.094   2.572 -0.3369 -0.4007  0.0805
 2747SOL    HW110986   4.735   2.148   2.570 -0.2816 -0.3145  0.2261
 2747SOL    HW210987   4.882   2.152   2.605 -0.6489 -1.0350  1.9475
 2747SOL     MW10988   4.812   2.109   2.576 -0.3715 -0.4745  0.3513
 2748SOL     OW10989   0.618   0.239   3.862  0.7121 -0.4116 -0.3360
 2748SOL    HW110990   0.713   0.235   3.871  0.8548  0.8917 -0.9576
 2748SOL    HW210991   0.593   0.153   3.830  1.7961 -0.4867 -1.0335
 2748SOL     MW10992   0.627   0.227   3.859  0.8772 -0.2463 -0.5135
 2749SOL     OW10993   4.595   1.187   4.100  0.1054 -0.2316 -0.1091
 2749SOL    HW110994   4.690   1.181   4.096  0.0616 -0.6415 -0.6734
 2749SOL    HW210995   4.564   1.129   4.030 -0.4965  2.5494 -2.3377
 2749SOL     MW10996   4.604   1.178   4.090  0.0185  0.0875 -0.4850
 2750SOL     OW10997   3.166   3.077   3.413 -0.1048 -0.1804 -0.2132
 2750SOL    HW110998   3.259   3.054   3.415 -0.2503 -1.7395 -3.3842
 2750SOL    HW210999   3.158   3.139   3.340 -1.3816  1.0082  0.8868
 2750SOL     MW11000   3.177   3.082   3.403 -0.2962 -0.2303 -0.4919
 2751SOL     OW11001   2.995   1.888   0.646 -0.6983  0.5153 -0.2201
 2751SOL    HW111002   2.908   1.923   0.627 -0.5039  1.0869 -0.0966
 2751SOL    HW211003   3.040   1.886   0.562 -0.4688  1.2575 -0.1214
 2751SOL     MW11004   2.989   1.893   0.632 -0.6412  0.6922 -0.1902
 2752SOL     OW11005   3.047   1.930   1.974 -0.4694 -0.4709 -0.3984
 2752SOL    HW111006   3.053   1.908   2.067 -1.3300 -0.4303 -0.3259
 2752SOL    HW211007   3.093   2.013   1.966  1.5719 -1.5298 -0.4153
 2752SOL     MW11008   3.054   1.938   1.986 -0.3105 -0.6079 -0.3909
 2753SOL     OW11009   2.131   1.777   5.494 -0.2760  0.3824  0.2524
 2753SOL    HW111010   2.195   1.843   5.468  1.0020 -0.9436 -0.1253
 2753SOL    HW211011   2.074   1.767   5.418  0.9578 -0.5660 -0.5980
 2753SOL     MW11012   2.132   1.785   5.481  0.0620  0.0763  0.0871
 2754SOL     OW11013   1.818   2.980   5.077 -0.0060 -0.7088  0.4117
 2754SOL    HW111014   1.727   2.994   5.105 -0.4566 -1.6774 -0.4889
 2754SOL    HW211015   1.854   2.921   5.143  0.9784  2.0349  2.5210
 2754SOL     MW11016   1.810   2.974   5.089  0.0658 -0.4699  0.5743
 2755SOL     OW11017   0.174   3.082   1.678  0.4166 -0.3618 -0.8182
 2755SOL    HW111018   0.184   2.998   1.633 -1.2730 -0.4195 -1.1566
 2755SOL    HW211019   0.087   3.077   1.719  0.3555  1.1538 -0.7075
 2755SOL     MW11020   0.164   3.070   1.678  0.1810 -0.1656 -0.8488
 2756SOL     OW11021   5.483   2.862   1.466  0.0150 -0.0471 -0.0961
 2756SOL    HW111022   5.456   2.773   1.444 -0.2764 -0.1334  0.6063
 2756SOL    HW211023   5.500   2.903   1.381 -0.5848 -0.5403 -0.4651
 2756SOL     MW11024   5.481   2.856   1.451 -0.1049 -0.1251 -0.0512
 2757SOL     OW11025   3.056   5.332   3.379 -0.0802  0.4661  0.2410
 2757SOL    HW111026   2.975   5.282   3.365  0.6255 -0.3857 -0.9937
 2757SOL    HW211027   3.041   5.415   3.334  0.2759 -0.3051 -1.3966
 2757SOL     MW11028   3.043   5.336   3.371  0.0627  0.2477 -0.1456
 2758SOL     OW11029   1.245   4.530   3.075  0.9370  0.0207 -0.1018
 2758SOL    HW111030   1.336   4.559   3.063  1.2249 -0.7287  0.2044
 2758SOL    HW211031   1.244   4.490   3.161  0.3892 -0.2875 -0.2473
 2758SOL     MW11032   1.257   4.529   3.085  0.9020 -0.1216 -0.0802
 2759SOL     OW11033   0.088   0.993   2.582 -0.7161  0.5309 -0.2602
 2759SOL    HW111034   0.168   1.006   2.531 -0.5179  1.0088  0.1636
 2759SOL    HW211035   0.080   0.898   2.591 -0.8824  0.4251 -1.3802
 2759SOL     MW11036   0.097   0.982   2.576 -0.7118  0.5810 -0.3539
 2760SOL     OW11037   3.808   1.206   1.212  0.0321  0.4979  0.0285
 2760SOL    HW111038   3.744   1.153   1.260  0.9511 -0.4884  0.1904
 2760SOL    HW211039   3.831   1.153   1.136  0.8527  0.7191  0.1092
 2760SOL     MW11040   3.802   1.192   1.208  0.2662  0.3949  0.0612
 2761SOL     OW11041   1.547   3.931   3.002 -0.7113 -0.3338 -0.2441
 2761SOL    HW111042   1.643   3.935   2.999 -0.6297 -0.0158  1.4537
 2761SOL    HW211043   1.527   3.903   3.091 -2.2179  0.7276 -0.2074
 2761SOL     MW11044   1.557   3.928   3.014 -0.9031 -0.1481 -0.0106
 2762SOL     OW11045   1.323   5.385   2.121  0.7905  0.2391 -0.3142
 2762SOL    HW111046   1.319   5.366   2.215  0.4011  0.2933 -0.3152
 2762SOL    HW211047   1.287   5.474   2.113  2.6068  1.0226 -0.3064
 2762SOL     MW11048   1.317   5.395   2.132  0.9825  0.3518 -0.3133
 2763SOL     OW11049   3.563   2.509   3.496  0.0761  0.1632 -0.1066
 2763SOL    HW111050   3.596   2.560   3.422  1.7937 -0.1480  0.3855
 2763SOL    HW211051   3.642   2.477   3.540 -0.8926 -2.4096 -0.0368
 2763SOL     MW11052   3.578   2.511   3.492  0.1769 -0.2249 -0.0310
 2764SOL     OW11053   1.956   1.384   2.573 -0.0489 -0.3807 -0.1612
 2764SOL    HW111054   1.938   1.356   2.483  0.8085  1.0786 -0.8123
 2764SOL    HW211055   1.882   1.438   2.597 -0.5444 -1.2116  0.2323
 2764SOL     MW11056   1.944   1.387   2.564 -0.0002 -0.2961 -0.1959
 2765SOL     OW11057   4.065   1.621   2.029 -0.1948 -0.1686  0.0569
 2765SOL    HW111058   4.041   1.550   2.089  1.0338 -0.2898  0.4538
 2765SOL    HW211059   4.108   1.576   1.956  0.9140  0.1717  0.4824
 2765SOL     MW11060   4.068   1.605   2.027  0.1197 -0.1392  0.1676
 2766SOL     OW11061   5.055   1.957   2.719 -0.2784  0.1716  0.0764
 2766SOL    HW111062   5.121   1.888   2.728 -1.2796 -0.8700 -0.3004
 2766SOL    HW211063   5.001   1.949   2.799 -0.0649  0.8926  0.2968
 2766SOL     MW11064   5.057   1.946   2.731 -0.3844  0.1284  0.0553
 2767SOL     OW11065   1.034   0.861   4.098  0.1812  0.2176  0.1395
 2767SOL    HW111066   1.087   0.875   4.176  1.2017  0.7651 -0.6256
 2767SOL    HW211067   1.070   0.782   4.058  0.4893  0.6256 -0.4161
 2767SOL     MW11068   1.046   0.853   4.103  0.3600  0.3462 -0.0383
 2768SOL     OW11069   4.386   4.172   5.267  0.0663  0.1812 -0.3735
 2768SOL    HW111070   4.362   4.185   5.359  1.3436 -0.2933  0.0484
 2768SOL    HW211071   4.399   4.078   5.258  0.3282  0.2638 -0.9372
 2768SOL     MW11072   4.384   4.161   5.278  0.2735  0.1285 -0.3926
 2769SOL     OW11073   1.707   1.134   2.528  0.0640  0.1918 -0.5294
 2769SOL    HW111074   1.711   1.105   2.437  0.8608 -1.4553 -0.0029
 2769SOL    HW211075   1.735   1.058   2.579  0.4240  1.3303  1.0511
 2769SOL     MW11076   1.711   1.120   2.523  0.2197  0.1233 -0.2458
 2770SOL     OW11077   3.271   2.182   0.480 -0.3473 -0.1621 -0.3559
 2770SOL    HW111078   3.294   2.133   0.559 -0.3654  0.7507  0.2290
 2770SOL    HW211079   3.356   2.202   0.440 -0.3536 -1.0491 -0.8558
 2770SOL     MW11080   3.286   2.178   0.485 -0.3506 -0.1586 -0.3445
 2771SOL     OW11081   2.185   3.955   0.498 -0.0331 -0.4741 -0.0101
 2771SOL    HW111082   2.112   4.001   0.457  1.6311 -0.0959 -2.8083
 2771SOL    HW211083   2.216   3.894   0.431  2.1060 -0.7256  1.1133
 2771SOL     MW11084   2.179   3.953   0.483  0.4788 -0.4570 -0.2355
 2772SOL     OW11085   0.480   0.357   4.098  0.1761  0.3470  0.6405
 2772SOL    HW111086   0.474   0.326   4.008  0.1002  0.8767  0.4602
 2772SOL    HW211087   0.527   0.287   4.144  0.0376 -0.0163  0.2386
 2772SOL     MW11088   0.486   0.343   4.092  0.1472  0.3694  0.5621
 2773SOL     OW11089   0.236   4.657   2.995 -0.2092 -0.1055  0.1930
 2773SOL    HW111090   0.277   4.711   3.063  2.1595 -1.7236  0.1999
 2773SOL    HW211091   0.298   4.660   2.922 -0.8713 -1.3857 -0.4596
 2773SOL     MW11092   0.250   4.665   2.995  0.0205 -0.4956  0.1061
 2774SOL     OW11093   1.536   1.614   2.410  0.0744  0.3650  0.2421
 2774SOL    HW111094   1.441   1.607   2.408  0.1026 -1.4048  2.0278
 2774SOL    HW211095   1.553   1.684   2.473 -0.0314  0.9475 -0.3675
 2774SOL     MW11096   1.525   1.623   2.418  0.0639  0.2052  0.4004
 2775SOL     OW11097   2.313   2.579   4.521 -0.0742  0.9119 -0.2014
 2775SOL    HW111098   2.303   2.616   4.433 -1.9318  1.8562  0.3479
 2775SOL    HW211099   2.301   2.654   4.580  0.3470  0.1524  0.8759
 2775SOL     MW11100   2.310   2.594   4.517 -0.2676  0.9368  0.0175
 2776SOL     OW11101   4.218   1.487   4.757  0.6277 -0.2589  0.3753
 2776SOL    HW111102   4.189   1.575   4.736  1.7264 -0.1506 -0.7986
 2776SOL    HW211103   4.305   1.498   4.794  1.0841 -0.8808 -0.4620
 2776SOL     MW11104   4.226   1.500   4.759  0.8370 -0.3280  0.1046
 2777SOL     OW11105   0.334   3.726   0.079  0.2770  0.4095 -0.9250
 2777SOL    HW111106   0.410   3.728   0.136  0.0446  0.5647 -0.6161
 2777SOL    HW211107   0.319   3.633   0.060  0.8993  0.4168 -1.4726
 2777SOL     MW11108   0.342   3.714   0.084  0.3294  0.4314 -0.9571
 2778SOL     OW11109   2.641   3.856   0.341 -0.4180  0.5668 -0.3677
 2778SOL    HW111110   2.604   3.770   0.361 -1.2360  0.9712 -0.0908
 2778SOL    HW211111   2.725   3.837   0.299 -0.8917 -0.3680 -0.9154
 2778SOL     MW11112   2.647   3.842   0.338 -0.5919  0.4954 -0.4041
 2779SOL     OW11113   4.473   5.369   3.865 -0.5931 -0.7303 -0.5417
 2779SOL    HW111114   4.531   5.438   3.894  0.1102 -0.9962 -1.2829
 2779SOL    HW211115   4.385   5.404   3.880 -0.2660 -0.4745  0.9354
 2779SOL     MW11116   4.469   5.383   3.871 -0.4544 -0.7316 -0.4427
 2780SOL     OW11117   0.153   0.180   2.913 -0.2614 -0.1332  0.2238
 2780SOL    HW111118   0.187   0.269   2.925 -2.7306  0.9455 -0.2135
 2780SOL    HW211119   0.120   0.179   2.824 -1.6594 -0.9571  0.7226
 2780SOL     MW11120   0.153   0.192   2.903 -0.7819 -0.0989  0.2321
 2781SOL     OW11121   5.266   1.683   3.066  0.4329 -0.9711  0.0009
 2781SOL    HW111122   5.291   1.666   2.975  1.0787 -0.7348  0.1279
 2781SOL    HW211123   5.273   1.778   3.075  0.3598 -0.9936  0.2937
 2781SOL     MW11124   5.270   1.694   3.055  0.5100 -0.9423  0.0574
 2782SOL     OW11125   3.526   0.628   0.678 -0.4210 -0.1520 -0.3232
 2782SOL    HW111126   3.612   0.628   0.637 -0.2946 -2.2643 -0.1468
 2782SOL    HW211127   3.502   0.721   0.682  1.3324  0.4029 -1.3979
 2782SOL     MW11128   3.534   0.641   0.673 -0.1680 -0.3616 -0.4441
 2783SOL     OW11129   0.460   3.572   2.997 -0.0966 -0.2235  0.3682
 2783SOL    HW111130   0.369   3.558   2.972  0.3148 -0.0274 -1.3428
 2783SOL    HW211131   0.479   3.502   3.060 -0.8217 -1.5406 -0.8344
 2783SOL     MW11132   0.450   3.561   3.002 -0.1388 -0.3744 -0.0239
 2784SOL     OW11133   0.214   1.823   0.130 -0.0170 -0.7181  0.3350
 2784SOL    HW111134   0.288   1.881   0.148 -0.7849  0.1806  0.6821
 2784SOL    HW211135   0.155   1.836   0.205  0.5761 -3.2790  1.3338
 2784SOL     MW11136   0.216   1.833   0.143 -0.0405 -0.9418  0.5162
 2785SOL     OW11137   0.674   2.915   3.121 -0.1982  0.2578 -0.1526
 2785SOL    HW111138   0.754   2.878   3.085  0.1955  1.0713 -0.1370
 2785SOL    HW211139   0.658   2.994   3.070 -1.1230 -0.0073 -0.3053
 2785SOL     MW11140   0.682   2.920   3.109 -0.2697  0.3316 -0.1710
 2786SOL     OW11141   3.998   3.107   5.424 -0.4685  0.1969  0.1843
 2786SOL    HW111142   3.946   3.137   5.349  1.6432  1.1573 -0.9854
 2786SOL    HW211143   3.933   3.092   5.493 -2.2296  2.2124 -0.8890
 2786SOL     MW11144   3.982   3.109   5.423 -0.4213  0.5974 -0.1176
 2787SOL     OW11145   3.306   0.367   5.236 -0.3188 -0.1759  0.0070
 2787SOL    HW111146   3.338   0.277   5.231 -0.6609 -0.2930 -0.1129
 2787SOL    HW211147   3.252   0.369   5.315  0.3643  0.1494  0.4840
 2787SOL     MW11148   3.303   0.355   5.246 -0.2729 -0.1478  0.0550
 2788SOL     OW11149   2.288   3.743   0.314  0.0319  0.2672  0.4240
 2788SOL    HW111150   2.294   3.751   0.219  0.8968 -0.8622  0.3573
 2788SOL    HW211151   2.289   3.649   0.330 -0.3451  0.4385  1.5492
 2788SOL     MW11152   2.289   3.732   0.304  0.0975  0.1383  0.5665
 2789SOL     OW11153   3.425   2.005   2.020 -0.3441 -0.0642 -0.6361
 2789SOL    HW111154   3.508   2.044   1.992 -0.5840  0.1075 -1.1115
 2789SOL    HW211155   3.384   1.976   1.939 -1.6361  1.5643 -0.6021
 2789SOL     MW11156   3.431   2.006   2.006 -0.5503  0.1781 -0.6955
 2790SOL     OW11157   0.950   0.605   0.437 -0.2246 -0.0202  0.6221
 2790SOL    HW111158   0.928   0.514   0.416 -0.5093  0.2617 -0.3563
 2790SOL    HW211159   0.866   0.646   0.457 -0.4358  0.6571 -1.5055
 2790SOL     MW11160   0.936   0.599   0.437 -0.2913  0.1089  0.2041
 2791SOL     OW11161   2.353   1.621   1.177  0.5171 -0.2786 -0.0410
 2791SOL    HW111162   2.277   1.584   1.133  0.0920  0.4946  0.0210
 2791SOL    HW211163   2.427   1.570   1.145 -0.0682 -1.2889  0.1884
 2791SOL     MW11164   2.353   1.609   1.167  0.3811 -0.3105 -0.0018
 2792SOL     OW11165   3.599   2.938   0.784 -0.0968 -0.1131 -0.1121
 2792SOL    HW111166   3.606   3.032   0.800  0.5601 -0.4340  1.6853
 2792SOL    HW211167   3.535   2.907   0.849 -0.2235 -0.9290 -0.6118
 2792SOL     MW11168   3.591   2.946   0.795 -0.0255 -0.2661  0.0625
 2793SOL     OW11169   1.806   4.786   3.237 -0.7830  0.2491 -0.3809
 2793SOL    HW111170   1.715   4.754   3.231 -0.8739  0.3766  0.3280
 2793SOL    HW211171   1.797   4.881   3.245 -0.6060  0.2105  0.2816
 2793SOL     MW11172   1.792   4.795   3.237 -0.7714  0.2611 -0.1963
 2794SOL     OW11173   3.524   4.030   2.819  0.0887  0.0847 -0.3211
 2794SOL    HW111174   3.478   3.963   2.870  0.3224  0.1322 -0.0387
 2794SOL    HW211175   3.476   4.036   2.737  0.3238 -0.7562 -0.5330
 2794SOL     MW11176   3.512   4.022   2.815  0.1518 -0.0221 -0.3116
 2795SOL     OW11177   1.421   0.268   1.313  0.0884  0.3960  0.1171
 2795SOL    HW111178   1.362   0.326   1.264 -1.8697 -1.6082 -0.0141
 2795SOL    HW211179   1.364   0.203   1.353  2.2230 -1.7955 -0.2000
 2795SOL     MW11180   1.406   0.267   1.312  0.1121 -0.1687  0.0568
 2796SOL     OW11181   0.096   4.482   0.145 -0.2240 -0.1876  0.2109
 2796SOL    HW111182   0.180   4.509   0.182  0.7967 -1.8676 -0.7957
 2796SOL    HW211183   0.035   4.489   0.219  0.8974  0.4884  1.1126
 2796SOL     MW11184   0.099   4.487   0.160  0.0643 -0.3227  0.1967
 2797SOL     OW11185   3.485   3.920   2.313  0.0690  0.6765 -0.0167
 2797SOL    HW111186   3.567   3.937   2.267 -0.2988 -0.0511 -0.9616
 2797SOL    HW211187   3.459   3.832   2.286 -0.9155  0.8052  0.4464
 2797SOL     MW11188   3.492   3.910   2.303 -0.1130  0.5959 -0.0816
 2798SOL     OW11189   3.913   0.346   0.807  0.4494 -0.1640  0.3184
 2798SOL    HW111190   3.957   0.383   0.731 -0.1525 -0.8532 -0.3877
 2798SOL    HW211191   3.824   0.382   0.803  0.6290  0.4263  1.1642
 2798SOL     MW11192   3.907   0.356   0.796  0.3926 -0.1773  0.3372
 2799SOL     OW11193   3.494   0.459   1.738  0.2294 -0.1641 -0.3298
 2799SOL    HW111194   3.440   0.531   1.769  0.2125 -0.4501  0.3176
 2799SOL    HW211195   3.436   0.410   1.680  0.1437  0.1629 -0.5233
 2799SOL     MW11196   3.479   0.462   1.734  0.2156 -0.1585 -0.2687
 2800SOL     OW11197   4.690   1.199   3.459  0.6816 -0.3266  0.2408
 2800SOL    HW111198   4.656   1.173   3.545 -0.7245  0.0114 -0.1788
 2800SOL    HW211199   4.613   1.197   3.402  1.3642  0.5997 -0.7498
 2800SOL     MW11200   4.675   1.195   3.463  0.5843 -0.1564  0.0510
 2801SOL     OW11201   0.338   4.811   3.185 -0.6760  0.0625  0.1076
 2801SOL    HW111202   0.338   4.898   3.146 -0.9593  0.0884  0.1593
 2801SOL    HW211203   0.430   4.792   3.201 -0.5657  0.1019 -0.4530
 2801SOL     MW11204   0.351   4.820   3.182 -0.6993  0.0713  0.0391
 2802SOL     OW11205   2.904   3.761   1.846 -0.2233 -0.5243  0.1330
 2802SOL    HW111206   2.929   3.770   1.938 -0.0495  0.0795  0.0325
 2802SOL    HW211207   2.813   3.732   1.848 -0.5317  0.4314  0.5008
 2802SOL     MW11208   2.895   3.759   1.859 -0.2414 -0.3144  0.1690
 2803SOL     OW11209   4.431   2.109   0.390 -0.4492  0.2099  0.5244
 2803SOL    HW111210   4.419   2.130   0.483 -0.9653  1.9049  0.1097
 2803SOL    HW211211   4.506   2.050   0.389 -0.6950 -0.1831  2.0522
 2803SOL     MW11212   4.439   2.104   0.403 -0.5517  0.3851  0.6742
 2804SOL     OW11213   1.843   5.437   4.974 -0.1493  0.0505  0.4906
 2804SOL    HW111214   1.909   5.396   4.917 -0.8061  1.6783 -1.6106
 2804SOL    HW211215   1.884   5.520   5.001 -0.5526  0.1281  0.8682
 2804SOL     MW11216   1.858   5.443   4.970 -0.2920  0.2800  0.2586
 2805SOL     OW11217   0.698   4.319   1.242 -0.4800 -0.0826  0.0193
 2805SOL    HW111218   0.639   4.255   1.204  0.8041 -1.2956 -0.0044
 2805SOL    HW211219   0.781   4.273   1.252 -0.4793  0.3643  3.5269
 2805SOL     MW11220   0.701   4.304   1.238 -0.3071 -0.1857  0.4882
 2806SOL     OW11221   2.640   3.119   0.751  0.4978  0.1650 -0.4600
 2806SOL    HW111222   2.651   3.093   0.659  1.6829 -0.5501 -0.1320
 2806SOL    HW211223   2.723   3.163   0.773  0.1284  0.5363  0.2101
 2806SOL     MW11224   2.653   3.122   0.741  0.6076  0.1187 -0.3257
 2807SOL     OW11225   4.553   3.248   3.019 -0.3298  0.1642 -0.8040
 2807SOL    HW111226   4.586   3.190   2.950  0.4627  0.2850 -0.5316
 2807SOL    HW211227   4.531   3.329   2.974 -0.1923  0.1062 -0.9750
 2807SOL     MW11228   4.554   3.251   3.003 -0.2047  0.1727 -0.7904
 2808SOL     OW11229   3.063   0.450   2.553 -0.2942 -0.4625 -0.3481
 2808SOL    HW111230   3.085   0.535   2.517  0.0034 -0.2487  0.3073
 2808SOL    HW211231   3.112   0.446   2.636 -1.7814 -0.4840  0.5705
 2808SOL     MW11232   3.073   0.461   2.559 -0.4543 -0.4366 -0.1363
 2809SOL     OW11233   4.509   4.752   5.325  0.3923  0.0150 -0.2771
 2809SOL    HW111234   4.486   4.734   5.416 -1.1290 -0.9032 -0.8053
 2809SOL    HW211235   4.582   4.693   5.305  0.5876  0.0707  0.2675
 2809SOL     MW11236   4.516   4.742   5.334  0.2139 -0.1011 -0.2749
 2810SOL     OW11237   2.125   3.010   0.519 -0.5240  0.1563 -0.0621
 2810SOL    HW111238   2.059   3.072   0.488 -0.6920 -0.8764 -1.9246
 2810SOL    HW211239   2.208   3.046   0.487 -0.6607 -0.7190 -1.5057
 2810SOL     MW11240   2.127   3.023   0.511 -0.5650 -0.1005 -0.5071
 2811SOL     OW11241   4.639   2.534   2.496  0.0679  0.7721  0.6533
 2811SOL    HW111242   4.689   2.507   2.419 -0.8480 -0.8678  0.5692
 2811SOL    HW211243   4.561   2.575   2.461  0.2160  1.1233  0.7344
 2811SOL     MW11244   4.636   2.536   2.481 -0.0354  0.5987  0.6529
 2812SOL     OW11245   5.065   2.672   2.328  0.1016 -0.0550 -0.1418
 2812SOL    HW111246   5.150   2.647   2.363  0.4666  0.7775 -0.4039
 2812SOL    HW211247   5.071   2.767   2.317 -0.2504 -0.1830 -1.7290
 2812SOL     MW11248   5.077   2.682   2.331  0.1034  0.0398 -0.3907
 2813SOL     OW11249   5.509   3.723   4.564  0.4540 -0.7076  0.3026
 2813SOL    HW111250   5.440   3.672   4.607 -0.7480  0.0564 -0.6273
 2813SOL    HW211251   5.487   3.720   4.471  0.9758  0.5442  0.1114
 2813SOL     MW11252   5.497   3.716   4.558  0.3625 -0.4363  0.1518
 2814SOL     OW11253   3.197   0.546   4.940  0.3674  0.3367 -0.4898
 2814SOL    HW111254   3.178   0.571   4.850 -0.7889 -0.8875 -0.6209
 2814SOL    HW211255   3.283   0.504   4.936 -0.6633 -1.8384 -1.5023
 2814SOL     MW11256   3.206   0.544   4.928  0.0731 -0.1207 -0.6437
 2815SOL     OW11257   4.028   2.067   2.946  0.1334  0.4778 -0.0809
 2815SOL    HW111258   3.997   2.088   2.858  1.4375 -0.0341 -0.6949
 2815SOL    HW211259   3.993   1.979   2.963 -0.3438  0.6881  0.0218
 2815SOL     MW11260   4.019   2.058   2.936  0.2447  0.4372 -0.1497
 2816SOL     OW11261   4.922   1.241   1.890 -0.3459 -0.3197 -0.3521
 2816SOL    HW111262   4.931   1.203   1.977 -1.3598 -1.6418 -0.7793
 2816SOL    HW211263   4.965   1.326   1.896 -1.9661  0.4310  1.9375
 2816SOL     MW11264   4.929   1.247   1.902 -0.7004 -0.3966 -0.1014
 2817SOL     OW11265   5.315   3.464   3.919 -0.0776  0.0451  0.2788
 2817SOL    HW111266   5.408   3.485   3.904 -0.1499 -0.2572 -0.6706
 2817SOL    HW211267   5.297   3.498   4.007  1.2043 -0.7874  0.9050
 2817SOL     MW11268   5.325   3.472   3.929  0.0852 -0.1076  0.2353
 2818SOL     OW11269   2.368   4.959   0.514 -0.2709  0.0828 -0.2007
 2818SOL    HW111270   2.316   5.011   0.453 -0.4208  0.6220  0.3847
 2818SOL    HW211271   2.398   5.021   0.580  0.7785 -0.2982 -0.2967
 2818SOL     MW11272   2.365   4.974   0.514 -0.1498  0.1041 -0.1348
 2819SOL     OW11273   2.123   4.104   3.890 -0.2205  0.1109  0.2287
 2819SOL    HW111274   2.039   4.057   3.887  0.1169 -0.4395 -1.2682
 2819SOL    HW211275   2.189   4.036   3.884  0.3275  0.6151  0.4727
 2819SOL     MW11276   2.120   4.089   3.889 -0.1013  0.1047  0.0601
 2820SOL     OW11277   1.390   0.884   2.534  0.3859 -0.1449  0.1110
 2820SOL    HW111278   1.481   0.912   2.548 -0.1516  1.8692 -0.0374
 2820SOL    HW211279   1.355   0.876   2.623  0.5099 -0.1689  0.1588
 2820SOL     MW11280   1.398   0.887   2.548  0.3302  0.1230  0.0975
 2821SOL     OW11281   3.800   4.646   2.637 -0.1179 -0.1323  0.4378
 2821SOL    HW111282   3.845   4.636   2.553  0.5470 -0.7480  0.8536
 2821SOL    HW211283   3.747   4.566   2.646  1.5029 -1.1392  1.5830
 2821SOL     MW11284   3.799   4.634   2.627  0.1897 -0.3507  0.6479
 2822SOL     OW11285   2.124   1.061   5.430 -0.7573 -0.8273 -0.1670
 2822SOL    HW111286   2.090   1.010   5.504 -1.0814  0.2741  0.4667
 2822SOL    HW211287   2.082   1.023   5.353 -0.7285 -1.7305  0.2430
 2822SOL     MW11288   2.114   1.049   5.430 -0.7970 -0.8006 -0.0266
 2823SOL     OW11289   5.167   4.637   1.562  0.0844 -0.4899  0.4414
 2823SOL    HW111290   5.201   4.567   1.505 -0.3763  0.4258 -0.9996
 2823SOL    HW211291   5.085   4.602   1.596 -1.2190  0.0948 -1.9315
 2823SOL     MW11292   5.161   4.623   1.559 -0.1530 -0.2880 -0.0719
 2824SOL     OW11293   3.415   3.224   5.374 -0.0144  0.2015  0.3233
 2824SOL    HW111294   3.464   3.181   5.444 -1.0286 -0.9274  0.3643
 2824SOL    HW211295   3.362   3.154   5.335 -1.5622  1.3778  0.2589
 2824SOL     MW11296   3.415   3.209   5.378 -0.3592  0.2079  0.3201
 2825SOL     OW11297   0.787   1.580   4.837  0.1307  0.3220  0.1643
 2825SOL    HW111298   0.763   1.496   4.798 -0.9976  0.5658  0.3098
 2825SOL    HW211299   0.807   1.636   4.762  1.4256 -0.2146  0.0839
 2825SOL     MW11300   0.787   1.576   4.821  0.1531  0.2826  0.1731
 2826SOL     OW11301   2.838   5.300   1.875 -0.6228  0.5940  0.4066
 2826SOL    HW111302   2.917   5.298   1.928  0.0353  0.5883 -0.5474
 2826SOL    HW211303   2.804   5.389   1.884 -0.7918  0.4536  1.2097
 2826SOL     MW11304   2.844   5.312   1.883 -0.5570  0.5743  0.3863
 2827SOL     OW11305   4.876   2.428   5.053  0.4617  0.2729 -0.1808
 2827SOL    HW111306   4.880   2.341   5.012 -1.3247  0.8527 -1.7302
 2827SOL    HW211307   4.913   2.487   4.988  0.2880  0.8685  0.2579
 2827SOL     MW11308   4.881   2.424   5.038  0.1979  0.4311 -0.3303
 2828SOL     OW11309   4.392   2.550   1.875 -0.0970 -0.1819 -0.0626
 2828SOL    HW111310   4.447   2.527   1.800 -0.5024 -1.0920 -0.0915
 2828SOL    HW211311   4.308   2.508   1.858 -0.2333 -0.3071  0.8358
 2828SOL     MW11312   4.388   2.541   1.863 -0.1699 -0.3212  0.0544
 2829SOL     OW11313   5.503   1.525   3.076  0.6244 -0.9306  0.0763
 2829SOL    HW111314   5.551   1.594   3.029  1.1837 -1.5616 -0.3049
 2829SOL    HW211315   5.420   1.566   3.101  0.1484 -0.6492 -1.7680
 2829SOL     MW11316   5.498   1.540   3.073  0.6356 -0.9777 -0.2232
 2830SOL     OW11317   0.114   2.901   1.997 -0.1668  0.1949 -0.2515
 2830SOL    HW111318   0.159   2.833   1.946 -0.4846  0.1572 -0.4851
 2830SOL    HW211319   0.053   2.941   1.934  1.1418  1.7887 -0.5680
 2830SOL     MW11320   0.112   2.897   1.981 -0.0335  0.4043 -0.3255
 2831SOL     OW11321   3.978   1.264   1.408 -0.1711 -0.2511  0.0898
 2831SOL    HW111322   4.027   1.342   1.381 -0.5772  1.0379  2.7244
 2831SOL    HW211323   3.917   1.248   1.336  1.5507  0.3721 -1.5794
 2831SOL     MW11324   3.977   1.272   1.395  0.0059  0.0063  0.2197
 2832SOL     OW11325   0.141   0.667   4.193 -0.0408 -0.5634  0.5070
 2832SOL    HW111326   0.127   0.699   4.283  0.7655 -1.4088  0.9532
 2832SOL    HW211327   0.231   0.634   4.193 -0.0853 -0.7175 -0.5752
 2832SOL     MW11328   0.151   0.667   4.205  0.0617 -0.6979  0.4214
 2833SOL     OW11329   3.834   2.771   1.452 -0.1992  0.1029  0.7311
 2833SOL    HW111330   3.867   2.697   1.400  0.4988  0.2028  1.0244
 2833SOL    HW211331   3.910   2.802   1.500 -0.2308  1.7003 -0.1906
 2833SOL     MW11332   3.848   2.765   1.451 -0.1095  0.3313  0.6466
 2834SOL     OW11333   5.418   2.353   5.511 -0.2831 -0.3483 -0.1580
 2834SOL    HW111334   5.471   2.382   5.437 -0.7633 -1.1904 -0.8415
 2834SOL    HW211335   5.368   2.431   5.536 -0.7211 -0.2708 -1.2417
 2834SOL     MW11336   5.419   2.368   5.505 -0.4067 -0.4512 -0.3958
 2835SOL     OW11337   4.750   2.021   1.817  0.0870 -0.7238 -0.1207
 2835SOL    HW111338   4.705   1.937   1.803 -0.2714 -0.5361 -0.1169
 2835SOL    HW211339   4.684   2.087   1.797  0.6524 -0.4311 -1.0633
 2835SOL     MW11340   4.735   2.018   1.812  0.1149 -0.6592 -0.2470
 2836SOL     OW11341   0.866   2.869   1.600 -0.0958 -0.1833  0.3930
 2836SOL    HW111342   0.847   2.921   1.522 -2.1819  0.6317  1.3742
 2836SOL    HW211343   0.897   2.933   1.664  0.6446 -0.7056  0.5703
 2836SOL     MW11344   0.868   2.885   1.598 -0.2769 -0.1439  0.5489
 2837SOL     OW11345   1.889   2.218   2.453  0.1860  0.1974 -0.5184
 2837SOL    HW111346   1.827   2.166   2.504 -0.7733  2.9965  1.4181
 2837SOL    HW211347   1.958   2.156   2.429 -1.5412 -2.2292  0.3910
 2837SOL     MW11348   1.890   2.203   2.456 -0.1756  0.2476 -0.1354
 2838SOL     OW11349   3.858   5.053   4.264  0.6413 -0.3529 -0.0705
 2838SOL    HW111350   3.791   5.077   4.329  1.4318 -1.4294  1.2011
 2838SOL    HW211351   3.936   5.102   4.291  0.7660 -0.1924 -0.7078
 2838SOL     MW11352   3.859   5.063   4.277  0.7645 -0.4762  0.0148
 2839SOL     OW11353   1.277   0.831   2.791 -0.0186 -0.1985  0.0722
 2839SOL    HW111354   1.183   0.833   2.773  0.1230 -1.0563 -0.8387
 2839SOL    HW211355   1.291   0.749   2.837  0.0047  0.8544  2.0662
 2839SOL     MW11356   1.266   0.820   2.795  0.0036 -0.1722  0.2180
 2840SOL     OW11357   1.003   1.712   3.928 -0.1515 -0.0577 -0.3924
 2840SOL    HW111358   1.083   1.663   3.947 -0.5341 -0.7479 -0.5401
 2840SOL    HW211359   0.954   1.656   3.868 -0.8529  0.2478 -0.1173
 2840SOL     MW11360   1.007   1.698   3.923 -0.2974 -0.1094 -0.3753
 2841SOL     OW11361   5.182   0.691   4.868  0.4840 -0.0724  0.0590
 2841SOL    HW111362   5.136   0.773   4.853 -0.3642 -0.1632  1.8572
 2841SOL    HW211363   5.221   0.701   4.955  0.2953 -1.5919  0.3507
 2841SOL     MW11364   5.181   0.704   4.878  0.3444 -0.2891  0.3403
 2842SOL     OW11365   2.361   2.676   1.385 -0.2616  0.1397 -0.0303
 2842SOL    HW111366   2.402   2.592   1.367 -2.5462 -1.0266 -0.0945
 2842SOL    HW211367   2.396   2.702   1.470  0.0967 -1.1179  0.2305
 2842SOL     MW11368   2.372   2.668   1.394 -0.5208 -0.1865 -0.0038
 2843SOL     OW11369   3.013   2.664   0.923 -0.3234 -0.0366  0.3182
 2843SOL    HW111370   2.970   2.594   0.971  0.3344 -1.6473 -1.2927
 2843SOL    HW211371   2.942   2.709   0.876 -0.6338 -0.4231  0.4137
 2843SOL     MW11372   2.998   2.661   0.923 -0.2766 -0.3054  0.1143
 2844SOL     OW11373   0.974   0.888   5.356  0.4830 -0.0847 -0.1611
 2844SOL    HW111374   1.033   0.904   5.282  0.8726  0.1696  0.1995
 2844SOL    HW211375   1.030   0.853   5.425 -0.1700 -2.0954 -0.5676
 2844SOL     MW11376   0.989   0.885   5.356  0.4476 -0.3211 -0.1673
 2845SOL     OW11377   4.369   0.885   3.485 -0.2962 -0.7753 -0.3088
 2845SOL    HW111378   4.449   0.894   3.536 -0.8385  0.5299  0.3723
 2845SOL    HW211379   4.352   0.791   3.482  2.5891 -1.3644 -2.6560
 2845SOL     MW11380   4.377   0.874   3.492  0.0191 -0.6789 -0.5330
 2846SOL     OW11381   2.247   4.308   0.223 -0.5820 -0.3613  0.3710
 2846SOL    HW111382   2.166   4.301   0.173 -1.4549  0.6916  1.5548
 2846SOL    HW211383   2.281   4.395   0.201 -1.2127  0.3044  1.8720
 2846SOL     MW11384   2.241   4.319   0.213 -0.7844 -0.1300  0.7323
 2847SOL     OW11385   3.409   2.625   1.079 -0.1372 -0.4658  0.0490
 2847SOL    HW111386   3.496   2.588   1.062 -0.0962 -0.7151  0.7747
 2847SOL    HW211387   3.377   2.577   1.155 -1.4613 -1.2690 -0.9741
 2847SOL     MW11388   3.416   2.614   1.087 -0.3099 -0.6075  0.0090
 2848SOL     OW11389   3.932   3.078   1.600  0.0621  0.4517 -0.3817
 2848SOL    HW111390   3.853   3.074   1.653 -0.5839  0.1581 -1.3486
 2848SOL    HW211391   3.975   2.994   1.615  0.9184  1.1205  1.1974
 2848SOL     MW11392   3.927   3.066   1.609  0.0904  0.5022 -0.2993
 2849SOL     OW11393   5.100   0.844   3.260  0.0984  0.1083 -0.0430
 2849SOL    HW111394   5.047   0.768   3.286 -0.0966 -0.4273 -1.8410
 2849SOL    HW211395   5.035   0.911   3.238  0.2665  0.7240  1.2603
 2849SOL     MW11396   5.084   0.843   3.260  0.0948  0.1191 -0.1096
 2850SOL     OW11397   0.735   0.022   2.967  0.1734  0.0815  0.5435
 2850SOL    HW111398   0.791   0.060   3.034 -0.5294  1.5964  0.3178
 2850SOL    HW211399   0.646   0.036   2.998 -0.1368 -0.8366  0.1317
 2850SOL     MW11400   0.730   0.029   2.980  0.0371  0.1618  0.4577
 2851SOL     OW11401   2.712   2.657   4.048 -0.1815  0.5605 -0.0225
 2851SOL    HW111402   2.723   2.750   4.032 -0.0107  0.3533 -1.2881
 2851SOL    HW211403   2.665   2.651   4.130  1.5977  1.7022  1.1485
 2851SOL     MW11404   2.707   2.669   4.057  0.0809  0.6862 -0.0352
 2852SOL     OW11405   1.910   2.066   3.641  0.3366 -0.2171  0.3148
 2852SOL    HW111406   1.911   2.157   3.671 -2.2115 -0.1168  0.3272
 2852SOL    HW211407   1.911   2.013   3.721 -1.2469 -0.0823  0.4523
 2852SOL     MW11408   1.910   2.071   3.655 -0.2194 -0.1855  0.3349
 2853SOL     OW11409   2.480   0.308   0.554  0.0076 -0.0943  0.3270
 2853SOL    HW111410   2.417   0.283   0.487  1.6713  0.6729 -1.6093
 2853SOL    HW211411   2.443   0.274   0.636 -1.7427 -1.6485 -1.0414
 2853SOL     MW11412   2.466   0.300   0.556 -0.0041 -0.2002 -0.1178
 2854SOL     OW11413   1.912   2.903   1.999  0.2271 -0.2117  0.4220
 2854SOL    HW111414   1.899   2.867   1.912  2.9596  0.2147 -0.2575
 2854SOL    HW211415   1.950   2.831   2.050  0.0970 -0.0102  0.8143
 2854SOL     MW11416   1.915   2.889   1.994  0.5773 -0.1272  0.3834
 2855SOL     OW11417   2.656   3.208   5.527  0.3992  0.0932 -0.8465
 2855SOL    HW111418   2.686   3.223   5.437 -1.5916 -0.0008 -1.5786
 2855SOL    HW211419   2.577   3.261   5.535  1.0666  0.8866  1.2128
 2855SOL     MW11420   2.650   3.217   5.516  0.2211  0.1874 -0.6678
 2856SOL     OW11421   3.390   2.309   4.803 -0.4954 -0.3274 -0.3416
 2856SOL    HW111422   3.435   2.245   4.747  1.4912 -0.8120  1.6325
 2856SOL    HW211423   3.307   2.268   4.825 -0.7904 -0.6400 -1.9093
 2856SOL     MW11424   3.385   2.295   4.799 -0.2678 -0.4346 -0.2869
 2857SOL     OW11425   2.408   2.670   0.425 -0.6115  0.6197  0.5059
 2857SOL    HW111426   2.453   2.662   0.341  0.0432  2.0643  0.6916
 2857SOL    HW211427   2.326   2.716   0.404  0.0445  1.9670  0.7758
 2857SOL     MW11428   2.403   2.675   0.411 -0.4351  0.9954  0.5672
 2858SOL     OW11429   4.458   0.386   5.190 -0.1801  0.3134 -0.0304
 2858SOL    HW111430   4.415   0.446   5.129  0.6823  0.4591 -0.5095
 2858SOL    HW211431   4.440   0.299   5.154  2.8916  0.4663 -2.3379
 2858SOL     MW11432   4.450   0.382   5.177  0.3494  0.3536 -0.4054
 2859SOL     OW11433   5.111   2.533   0.334 -0.3718  0.5434 -0.0293
 2859SOL    HW111434   5.149   2.537   0.422 -0.7500  0.5574  0.1363
 2859SOL    HW211435   5.040   2.469   0.342 -0.4729  0.6208 -0.2988
 2859SOL     MW11436   5.107   2.525   0.347 -0.4363  0.5557 -0.0433
 2860SOL     OW11437   0.436   2.819   3.830  0.5487  0.2749  0.3619
 2860SOL    HW111438   0.413   2.751   3.766 -0.1749  2.1042 -1.4449
 2860SOL    HW211439   0.513   2.786   3.874  0.2757 -1.6666 -0.5266
 2860SOL     MW11440   0.443   2.806   3.827  0.4146  0.2598 -0.0009
 2861SOL     OW11441   2.792   0.694   3.957  0.0592 -0.0948 -0.1245
 2861SOL    HW111442   2.750   0.647   4.028 -0.5210 -0.0058 -0.4052
 2861SOL    HW211443   2.791   0.633   3.883  1.1759 -0.4033  0.0925
 2861SOL     MW11444   2.787   0.680   3.956  0.1314 -0.1243 -0.1331
 2862SOL     OW11445   2.259   2.869   3.731 -0.0609  0.3489 -0.8860
 2862SOL    HW111446   2.195   2.928   3.692 -0.8929 -0.6013 -1.0297
 2862SOL    HW211447   2.288   2.813   3.658  0.7100  0.5753 -0.7600
 2862SOL     MW11448   2.254   2.869   3.716 -0.0691  0.2515 -0.8884
 2863SOL     OW11449   0.219   1.477   2.031 -0.2227  0.0318 -0.0618
 2863SOL    HW111450   0.236   1.394   1.986  0.4139 -1.9095  3.4597
 2863SOL    HW211451   0.293   1.533   2.007  0.9131 -1.4740 -0.2366
 2863SOL     MW11452   0.231   1.473   2.021  0.0158 -0.4321  0.3886
 2864SOL     OW11453   2.623   5.512   3.824 -0.6397 -0.3484  0.2549
 2864SOL    HW111454   2.594   5.425   3.849 -1.3333 -1.0473 -2.5974
 2864SOL    HW211455   2.709   5.499   3.783 -1.2076  0.0846 -1.1573
 2864SOL     MW11456   2.631   5.499   3.821 -0.8094 -0.3842 -0.3190
 2865SOL     OW11457   4.288   5.075   4.880 -0.0034 -0.0664  0.5037
 2865SOL    HW111458   4.213   5.023   4.851  1.2579 -1.0324 -1.2158
 2865SOL    HW211459   4.283   5.073   4.976 -2.4183  0.3297  0.4494
 2865SOL     MW11460   4.277   5.068   4.889 -0.1587 -0.1431  0.2650
 2866SOL     OW11461   1.541   2.046   1.922  0.2949 -0.3755 -0.2344
 2866SOL    HW111462   1.598   2.108   1.969 -0.3933 -0.0743  0.2050
 2866SOL    HW211463   1.516   2.093   1.843 -0.2833 -0.0645  0.1327
 2866SOL     MW11464   1.546   2.061   1.918  0.1245 -0.2931 -0.1258
 2867SOL     OW11465   2.762   2.735   4.527  0.4079  0.1517  0.1698
 2867SOL    HW111466   2.784   2.642   4.537  1.2883  0.1795 -1.2467
 2867SOL    HW211467   2.713   2.756   4.606  1.3905 -1.1655  1.1814
 2867SOL     MW11468   2.758   2.725   4.539  0.6586 -0.0219  0.1153
 2868SOL     OW11469   0.240   4.597   5.078 -0.0979  0.1163  0.1405
 2868SOL    HW111470   0.166   4.599   5.018  0.8148  0.7731 -0.9871
 2868SOL    HW211471   0.310   4.646   5.034  1.0395 -0.5275  1.1411
 2868SOL     MW11472   0.240   4.604   5.064  0.1780  0.1181  0.1234
 2869SOL     OW11473   2.669   3.522   1.067  0.1392 -0.6677  0.4595
 2869SOL    HW111474   2.627   3.500   1.150  2.5445 -0.2014  1.9037
 2869SOL    HW211475   2.617   3.595   1.032 -0.1476  0.0172  2.2376
 2869SOL     MW11476   2.656   3.529   1.073  0.4243 -0.5128  0.8932
 2870SOL     OW11477   4.472   3.489   5.169 -0.0845 -0.0198  0.1172
 2870SOL    HW111478   4.483   3.440   5.087  0.6067  0.5259 -0.1199
 2870SOL    HW211479   4.528   3.444   5.231  0.6137  0.5090 -0.1214
 2870SOL     MW11480   4.481   3.476   5.166  0.1025  0.1248  0.0532
 2871SOL     OW11481   2.530   0.014   1.244 -0.0969  0.1232  0.8454
 2871SOL    HW111482   2.484  -0.062   1.280  0.3200 -0.6587 -0.2170
 2871SOL    HW211483   2.476   0.042   1.170  0.1848  0.3372  0.7180
 2871SOL     MW11484   2.516   0.007   1.239 -0.0029  0.0468  0.6853
 2872SOL     OW11485   1.719   0.047   2.302  0.2732 -0.0921 -0.1688
 2872SOL    HW111486   1.778  -0.028   2.298 -0.0316 -0.5140  1.9032
 2872SOL    HW211487   1.754   0.109   2.238  1.3716 -1.4030 -0.8923
 2872SOL     MW11488   1.732   0.045   2.293  0.3800 -0.3253  0.0127
 2873SOL     OW11489   0.782   3.820   3.171  0.0707  0.1467 -0.2619
 2873SOL    HW111490   0.796   3.739   3.220 -2.3531 -0.7446 -0.8847
 2873SOL    HW211491   0.751   3.791   3.085  0.1302  1.7322 -0.8490
 2873SOL     MW11492   0.780   3.805   3.166 -0.2474  0.2401 -0.4247
 2874SOL     OW11493   3.579   2.717   2.784  0.5085 -0.1712  0.6591
 2874SOL    HW111494   3.629   2.662   2.724 -0.2568  0.8333 -0.9465
 2874SOL    HW211495   3.622   2.802   2.781 -1.1560  0.6650 -0.6293
 2874SOL     MW11496   3.592   2.721   2.776  0.1815  0.0765  0.2697
 2875SOL     OW11497   2.765   2.554   0.657 -0.9683  0.4394  0.1829
 2875SOL    HW111498   2.768   2.475   0.604 -0.4767  0.3189  0.3902
 2875SOL    HW211499   2.714   2.529   0.734 -0.4358  0.1981  0.4575
 2875SOL     MW11500   2.758   2.540   0.660 -0.8305  0.3907  0.2477
 2876SOL     OW11501   0.141   2.167   3.132 -0.1706  0.1226 -0.3998
 2876SOL    HW111502   0.205   2.123   3.187 -0.0417 -0.3085 -0.8862
 2876SOL    HW211503   0.081   2.097   3.105  0.2237  0.1787 -1.4435
 2876SOL     MW11504   0.141   2.151   3.136 -0.1002  0.0721 -0.6058
 2877SOL     OW11505   1.486   4.397   4.074 -0.0027  0.2860 -0.2973
 2877SOL    HW111506   1.479   4.441   4.159 -1.0125 -1.6775  0.6824
 2877SOL    HW211507   1.405   4.347   4.065  0.8006 -0.8619 -1.6682
 2877SOL     MW11508   1.474   4.396   4.084 -0.0305 -0.1328 -0.3499
 2878SOL     OW11509   0.868   1.855   2.055 -0.2007  0.2748 -0.3185
 2878SOL    HW111510   0.905   1.900   2.131 -0.2664  1.8535 -1.1918
 2878SOL    HW211511   0.791   1.810   2.089 -0.0233  0.6568  0.6163
 2878SOL     MW11512   0.863   1.855   2.070 -0.1857  0.5387 -0.3102
 2879SOL     OW11513   4.443   4.750   0.763 -0.5319 -0.4300  0.0138
 2879SOL    HW111514   4.404   4.736   0.849 -1.6592 -1.7978 -0.6765
 2879SOL    HW211515   4.379   4.803   0.716 -0.4865 -0.7083 -0.3651
 2879SOL     MW11516   4.429   4.755   0.769 -0.6775 -0.6516 -0.1301
 2880SOL     OW11517   1.578   1.073   2.011 -0.1237 -0.3238  0.6176
 2880SOL    HW111518   1.572   1.131   1.936  2.1532 -2.0184 -1.0210
 2880SOL    HW211519   1.490   1.039   2.023 -1.0237  1.7348  0.2475
 2880SOL     MW11520   1.565   1.076   2.003  0.0616 -0.2748  0.3472
 2881SOL     OW11521   0.523   0.538   0.266 -0.0886 -0.1017 -0.5898
 2881SOL    HW111522   0.446   0.593   0.252 -1.1723 -0.3560  3.2019
 2881SOL    HW211523   0.562   0.528   0.179 -2.2187  3.0750 -2.0803
 2881SOL     MW11524   0.518   0.544   0.252 -0.5211  0.2916 -0.2801
 2882SOL     OW11525   5.175   3.895   0.657 -0.6844 -0.6314 -0.1507
 2882SOL    HW111526   5.100   3.954   0.650  1.4054  2.2945  0.1958
 2882SOL    HW211527   5.246   3.950   0.690  2.2159 -2.6614 -2.4173
 2882SOL     MW11528   5.174   3.911   0.661 -0.0128 -0.5108 -0.4091
 2883SOL     OW11529   1.101   5.289   1.469 -0.0274  0.5761 -0.4638
 2883SOL    HW111530   1.006   5.276   1.468 -0.0224  0.5374 -1.0123
 2883SOL    HW211531   1.136   5.209   1.430  0.1959  0.8418 -0.8144
 2883SOL     MW11532   1.093   5.276   1.464  0.0034  0.6067 -0.5848
 2884SOL     OW11533   4.480   0.413   1.963 -0.6561  0.0164  0.4498
 2884SOL    HW111534   4.542   0.377   2.026 -1.4131 -1.0437  0.6121
 2884SOL    HW211535   4.494   0.362   1.884 -0.3140  0.7596  0.0208
 2884SOL     MW11536   4.490   0.401   1.961 -0.7119 -0.0262  0.4139
 2885SOL     OW11537   2.443   5.163   0.684  0.0174 -0.3630 -0.6377
 2885SOL    HW111538   2.374   5.228   0.668 -1.8563 -2.4032 -1.2414
 2885SOL    HW211539   2.471   5.181   0.774 -0.0001  1.6220 -0.9659
 2885SOL     MW11540   2.438   5.174   0.694 -0.2371 -0.3704 -0.7631
 2886SOL     OW11541   2.015   4.612   3.345  0.3596 -0.2015  0.5285
 2886SOL    HW111542   2.021   4.560   3.264 -0.5840 -1.2641  1.1070
 2886SOL    HW211543   1.951   4.680   3.325 -0.1295 -0.6685  0.4714
 2886SOL     MW11544   2.007   4.614   3.331  0.1668 -0.4074  0.5987
 2887SOL     OW11545   1.077   3.170   0.510  0.5487 -0.3313  0.0492
 2887SOL    HW111546   1.079   3.249   0.563  0.8919  0.1855 -0.7071
 2887SOL    HW211547   0.987   3.164   0.479  0.3703 -0.5857  0.6054
 2887SOL     MW11548   1.065   3.180   0.513  0.5709 -0.2960  0.0223
 2888SOL     OW11549   4.113   3.986   4.204  0.7112 -0.5973 -0.0298
 2888SOL    HW111550   4.044   3.975   4.270  0.3104  1.5635 -0.0160
 2888SOL    HW211551   4.132   3.897   4.174  0.6429 -1.6267  2.7110
 2888SOL     MW11552   4.106   3.973   4.209  0.6481 -0.4451  0.3409
 2889SOL     OW11553   3.347   3.335   2.502 -0.3002 -0.4906  0.3604
 2889SOL    HW111554   3.334   3.249   2.541 -2.8879 -0.2124  0.2757
 2889SOL    HW211555   3.369   3.316   2.411  1.1858 -1.0533  0.8064
 2889SOL     MW11556   3.349   3.321   2.495 -0.4484 -0.5289  0.4090
 2890SOL     OW11557   2.847   0.535   2.967  0.3835 -0.3076  0.1419
 2890SOL    HW111558   2.770   0.532   2.910 -0.5711 -0.5091  1.4002
 2890SOL    HW211559   2.814   0.572   3.049  2.2977  2.7983 -0.2948
 2890SOL     MW11560   2.832   0.540   2.970  0.5127  0.0833  0.2524
 2891SOL     OW11561   2.750   4.411   2.417  0.7639 -0.1343  0.3320
 2891SOL    HW111562   2.725   4.399   2.326 -3.4075  1.9742  0.9882
 2891SOL    HW211563   2.814   4.482   2.415  0.2586  0.3029 -0.8863
 2891SOL     MW11564   2.756   4.419   2.404  0.1345  0.2083  0.2563
 2892SOL     OW11565   0.685   0.843   5.014 -0.0940 -0.1263  0.4153
 2892SOL    HW111566   0.620   0.811   5.076  0.1511 -0.0863  0.6945
 2892SOL    HW211567   0.677   0.785   4.939  0.8736 -1.3555  1.2178
 2892SOL     MW11568   0.675   0.831   5.012  0.0692 -0.2864  0.5609
 2893SOL     OW11569   0.256   3.953   3.669  0.0464  0.1148 -0.2712
 2893SOL    HW111570   0.230   3.905   3.748  0.1094  1.5065  0.6456
 2893SOL    HW211571   0.179   4.006   3.647  0.8615  1.7081  0.4635
 2893SOL     MW11572   0.242   3.954   3.677  0.1646  0.5165 -0.0489
 2894SOL     OW11573   2.472   1.834   0.646 -0.0159 -0.0158  0.2532
 2894SOL    HW111574   2.480   1.884   0.727  0.4018  0.6883 -0.2150
 2894SOL    HW211575   2.549   1.858   0.595 -0.4433 -0.2012 -0.4942
 2894SOL     MW11576   2.483   1.844   0.650 -0.0172  0.0540  0.0896
 2895SOL     OW11577   4.814   3.010   5.499  0.9408  0.9935 -0.2431
 2895SOL    HW111578   4.758   3.020   5.422  0.0237  0.6890  0.3605
 2895SOL    HW211579   4.903   3.022   5.466  0.5151  1.6471 -1.2015
 2895SOL     MW11580   4.818   3.013   5.484  0.7601  1.0405 -0.2908
 2896SOL     OW11581   1.374   2.261   3.991 -0.4055 -0.2650  0.0138
 2896SOL    HW111582   1.405   2.339   3.945  1.2780 -1.7932 -1.5912
 2896SOL    HW211583   1.436   2.249   4.063 -0.2511 -0.5171 -0.1623
 2896SOL     MW11584   1.386   2.270   3.995 -0.1582 -0.5046 -0.2259
 2897SOL     OW11585   1.890   0.546   5.270  0.5514 -0.4554  0.2305
 2897SOL    HW111586   1.866   0.634   5.242  0.3030 -0.2395  1.0702
 2897SOL    HW211587   1.941   0.559   5.350  1.5433 -1.0244 -0.2989
 2897SOL     MW11588   1.894   0.560   5.277  0.6514 -0.5029  0.2723
 2898SOL     OW11589   1.265   3.459   1.310 -0.5951  0.3197  0.2059
 2898SOL    HW111590   1.304   3.440   1.225  0.2639  2.5025  0.0597
 2898SOL    HW211591   1.326   3.419   1.373 -0.4076  0.0301 -0.1536
 2898SOL     MW11592   1.279   3.451   1.307 -0.4543  0.5745  0.1379
 2899SOL     OW11593   2.993   0.687   0.704  0.1432 -0.0963  0.1994
 2899SOL    HW111594   2.953   0.716   0.786  0.3964  2.6633 -0.5552
 2899SOL    HW211595   2.963   0.749   0.638  0.8765 -1.5430 -1.6076
 2899SOL     MW11596   2.984   0.699   0.706  0.2760  0.0804 -0.1453
 2900SOL     OW11597   0.891   0.463   2.100  0.2417  0.5127  0.5602
 2900SOL    HW111598   0.884   0.419   2.015  0.0893  0.0648  0.8022
 2900SOL    HW211599   0.969   0.518   2.092 -0.2685  1.1439 -0.1768
 2900SOL     MW11600   0.901   0.464   2.087  0.1525  0.5374  0.4936
 2901SOL     OW11601   3.771   2.008   4.433  0.2339 -0.5360 -0.4163
 2901SOL    HW111602   3.809   2.095   4.446  1.3207 -0.9397 -0.7943
 2901SOL    HW211603   3.712   2.019   4.358  1.2815 -0.3854 -1.2393
 2901SOL     MW11604   3.768   2.021   4.425  0.5211 -0.5700 -0.5779
 2902SOL     OW11605   1.100   1.138   4.976 -0.2740 -0.2005  0.5051
 2902SOL    HW111606   1.133   1.085   4.903 -0.9480  1.9616 -1.4807
 2902SOL    HW211607   1.005   1.122   4.976 -0.4324  0.6589  0.1259
 2902SOL     MW11608   1.091   1.129   4.966 -0.3860  0.2062  0.1868
 2903SOL     OW11609   0.088   1.921   5.419 -0.0011 -0.0307 -0.2380
 2903SOL    HW111610   0.009   1.972   5.439  0.1124 -0.3755  1.1962
 2903SOL    HW211611   0.120   1.893   5.505  1.3954 -0.3346 -0.8420
 2903SOL     MW11612   0.082   1.924   5.434  0.2021 -0.1180 -0.1262
 2904SOL     OW11613   2.792   2.320   0.055 -0.1259  0.2483 -0.4413
 2904SOL    HW111614   2.860   2.278   0.107  0.0308 -0.9641 -1.5738
 2904SOL    HW211615   2.808   2.414   0.065  0.9944  0.0008  0.2340
 2904SOL     MW11616   2.803   2.327   0.063  0.0460  0.0519 -0.5028
 2905SOL     OW11617   2.031   2.711   2.152  0.1062  0.9255  0.1455
 2905SOL    HW111618   2.016   2.735   2.244 -0.0183  0.7356  0.1760
 2905SOL    HW211619   2.007   2.618   2.148  3.1078  0.0077  0.6564
 2905SOL     MW11620   2.025   2.702   2.164  0.4934  0.7764  0.2183
 2906SOL     OW11621   2.643   0.229   3.104 -0.0993 -0.0609 -0.0579
 2906SOL    HW111622   2.598   0.221   3.188 -0.1320  1.5648  0.0976
 2906SOL    HW211623   2.579   0.272   3.046  0.7003  0.8866 -0.2622
 2906SOL     MW11624   2.628   0.233   3.107  0.0039  0.2854 -0.0645
 2907SOL     OW11625   4.394   1.832   5.478  0.2690  0.9758 -0.1350
 2907SOL    HW111626   4.393   1.806   5.385 -2.2099  3.8632 -1.0462
 2907SOL    HW211627   4.474   1.883   5.487  0.8473  0.1623 -0.4637
 2907SOL     MW11628   4.405   1.835   5.466  0.0132  1.2549 -0.3019
 2908SOL     OW11629   1.985   1.349   4.481 -0.5325 -0.1517 -0.0563
 2908SOL    HW111630   2.045   1.287   4.442 -0.4750 -0.2206  0.1393
 2908SOL    HW211631   2.029   1.378   4.561 -0.1224  0.8762 -0.6386
 2908SOL     MW11632   1.999   1.345   4.487 -0.4696 -0.0227 -0.1084
 2909SOL     OW11633   4.126   2.287   4.256  0.3958 -0.7921 -0.2273
 2909SOL    HW111634   4.203   2.240   4.223  1.8309 -0.6533  2.5529
 2909SOL    HW211635   4.146   2.303   4.349 -2.2558  0.8341  0.1804
 2909SOL     MW11636   4.139   2.283   4.264  0.2320 -0.5545  0.2017
 2910SOL     OW11637   4.845   0.940   4.473  0.4697  0.3560 -0.0392
 2910SOL    HW111638   4.890   1.022   4.451  0.3194  0.8882  1.5129
 2910SOL    HW211639   4.815   0.953   4.562  0.0264 -1.2317  0.0649
 2910SOL     MW11640   4.847   0.953   4.482  0.3898  0.2140  0.1837
 2911SOL     OW11641   2.702   3.949   2.889  0.5702 -0.4073 -0.1831
 2911SOL    HW111642   2.621   3.909   2.922  0.0268  0.7793 -0.0239
 2911SOL    HW211643   2.673   4.027   2.842  1.7330  1.3485  1.8271
 2911SOL     MW11644   2.687   3.954   2.888  0.6536 -0.0113  0.1089
 2912SOL     OW11645   2.478   2.828   2.090 -0.0458 -0.0244 -0.0125
 2912SOL    HW111646   2.401   2.778   2.061 -0.8390  0.5317  1.0787
 2912SOL    HW211647   2.550   2.766   2.083 -0.5815 -0.5566 -1.0689
 2912SOL     MW11648   2.477   2.813   2.085 -0.2246 -0.0212 -0.0078
 2913SOL     OW11649   2.728   1.674   1.108  0.0448  0.3095  0.2157
 2913SOL    HW111650   2.659   1.618   1.073  1.0015 -1.4379  0.9582
 2913SOL    HW211651   2.701   1.692   1.198 -0.3601  1.2557 -0.0834
 2913SOL     MW11652   2.715   1.669   1.115  0.1190  0.2017  0.2754
 2914SOL     OW11653   0.762   0.612   1.553 -0.4834  0.1635  0.3155
 2914SOL    HW111654   0.748   0.527   1.510  0.4540  0.5434 -0.7923
 2914SOL    HW211655   0.817   0.592   1.628 -0.9245 -0.3193  0.5130
 2914SOL     MW11656   0.768   0.598   1.557 -0.4166  0.1496  0.1930
 2915SOL     OW11657   0.484   0.889   4.643  0.4991 -0.3423 -0.0711
 2915SOL    HW111658   0.405   0.837   4.626 -0.3785  0.9936 -0.2338
 2915SOL    HW211659   0.475   0.965   4.586  1.2196  0.5165  0.9302
 2915SOL     MW11660   0.472   0.892   4.633  0.4780 -0.0469  0.0418
 2916SOL     OW11661   3.326   5.412   4.552 -0.3548 -0.3912 -0.1739
 2916SOL    HW111662   3.383   5.479   4.514 -0.9833  0.2143 -0.0581
 2916SOL    HW211663   3.250   5.460   4.585 -0.8936 -1.1759 -0.2363
 2916SOL     MW11664   3.323   5.428   4.551 -0.5119 -0.4153 -0.1667
 2917SOL     OW11665   0.147   3.392   1.169  0.2160  0.7532  0.0386
 2917SOL    HW111666   0.142   3.330   1.241 -1.4014  0.4473 -0.2997
 2917SOL    HW211667   0.131   3.339   1.091  3.4000  0.7978 -0.7736
 2917SOL     MW11668   0.144   3.376   1.168  0.4269  0.7180 -0.1162
 2918SOL     OW11669   3.082   2.839   3.920 -0.0802  0.4712  0.5103
 2918SOL    HW111670   3.138   2.808   3.991 -0.8805 -0.9331  0.5754
 2918SOL    HW211671   3.142   2.862   3.849  0.5898 -1.1908  0.5061
 2918SOL     MW11672   3.097   2.838   3.920 -0.0978  0.0585  0.5185
 2919SOL     OW11673   0.610   3.169   3.025 -0.2053 -0.6163  0.4678
 2919SOL    HW111674   0.515   3.174   3.029 -0.1167  1.4601  0.8298
 2919SOL    HW211675   0.629   3.149   2.934 -0.9579  1.7766 -0.2897
 2919SOL     MW11676   0.600   3.167   3.014 -0.2947 -0.0148  0.4146
 2920SOL     OW11677   1.945   0.305   4.362 -0.2278  0.1691  0.5379
 2920SOL    HW111678   1.993   0.360   4.424 -1.5040 -1.2085  2.9135
 2920SOL    HW211679   1.990   0.221   4.364 -0.6875 -0.0926  0.1209
 2920SOL     MW11680   1.957   0.301   4.371 -0.4614 -0.0515  0.8015
 2921SOL     OW11681   2.314   4.627   2.264 -0.1899  0.2130 -0.2531
 2921SOL    HW111682   2.358   4.651   2.346 -1.1907  0.0556  0.3463
 2921SOL    HW211683   2.275   4.708   2.233  1.5244  0.6239 -1.4415
 2921SOL     MW11684   2.315   4.641   2.271 -0.0939  0.2471 -0.3323
 2922SOL     OW11685   2.045   4.314   1.668 -0.1305 -0.3880 -0.0997
 2922SOL    HW111686   2.048   4.327   1.573  0.7349  1.4429  0.1500
 2922SOL    HW211687   2.051   4.402   1.705  1.3991 -1.1754  1.6950
 2922SOL     MW11688   2.046   4.327   1.660  0.1918 -0.2476  0.1754
 2923SOL     OW11689   2.540   5.218   2.228  0.9087  0.0477  0.0096
 2923SOL    HW111690   2.635   5.224   2.216  0.9489  2.6264  0.8996
 2923SOL    HW211691   2.504   5.280   2.164  0.0304  0.8296  1.1997
 2923SOL     MW11692   2.548   5.227   2.218  0.7959  0.5000  0.2895
 2924SOL     OW11693   4.441   2.655   4.352  0.2412 -0.7444 -0.1209
 2924SOL    HW111694   4.498   2.659   4.274  1.3005  0.4580  0.6754
 2924SOL    HW211695   4.353   2.664   4.317  0.6953 -0.1972 -1.1996
 2924SOL     MW11696   4.437   2.656   4.337  0.4448 -0.5089 -0.1589
 2925SOL     OW11697   0.315   3.145   3.101  0.1337 -0.4256 -0.2560
 2925SOL    HW111698   0.319   3.173   3.193  1.5552  1.3099 -0.7967
 2925SOL    HW211699   0.240   3.191   3.065 -0.1631 -0.7710 -0.0911
 2925SOL     MW11700   0.306   3.155   3.109  0.2851 -0.2386 -0.3066
 2926SOL     OW11701   4.408   5.292   1.065  0.0999  0.0750  0.6985
 2926SOL    HW111702   4.468   5.365   1.084 -0.3923  0.5087  0.6214
 2926SOL    HW211703   4.323   5.323   1.096 -0.4073  0.1511 -0.7181
 2926SOL     MW11704   4.405   5.306   1.072 -0.0346  0.1436  0.4975
 2927SOL     OW11705   1.459   1.755   3.280 -0.1508 -0.1240  0.3322
 2927SOL    HW111706   1.464   1.848   3.259 -0.3302 -0.6273 -2.2472
 2927SOL    HW211707   1.402   1.718   3.212  1.7231 -2.4785 -0.0924
 2927SOL     MW11708   1.452   1.762   3.268  0.0772 -0.5086 -0.0721
 2928SOL     OW11709   3.195   1.365   4.300  0.1027  0.2395 -0.2865
 2928SOL    HW111710   3.198   1.286   4.247 -0.1171  1.0575 -1.5665
 2928SOL    HW211711   3.102   1.385   4.309  0.0268 -0.7455  1.7982
 2928SOL     MW11712   3.183   1.357   4.294  0.0629  0.2170 -0.1782
 2929SOL     OW11713   2.129   3.495   0.446  0.5726 -0.0758  0.2200
 2929SOL    HW111714   2.072   3.568   0.423 -0.2233 -0.7731 -0.0441
 2929SOL    HW211715   2.110   3.477   0.538 -1.0964 -1.5561 -0.3559
 2929SOL     MW11716   2.119   3.503   0.455  0.2409 -0.3689  0.1070
 2930SOL     OW11717   2.965   2.652   0.311 -0.5820 -0.5877  0.5181
 2930SOL    HW111718   3.004   2.727   0.266 -1.0689 -1.9289 -2.3569
 2930SOL    HW211719   3.020   2.640   0.389  2.3261  0.0379 -1.2686
 2930SOL     MW11720   2.978   2.660   0.316 -0.2561 -0.6840 -0.1093
 2931SOL     OW11721   4.767   4.932   3.971  0.1325  0.1076 -0.6850
 2931SOL    HW111722   4.701   4.882   3.923 -1.0680 -0.0953  1.0729
 2931SOL    HW211723   4.846   4.926   3.916 -0.4818 -2.1329 -1.4581
 2931SOL     MW11724   4.769   4.924   3.957 -0.1117 -0.2212 -0.5524
 2932SOL     OW11725   1.585   3.096   1.840  0.0734 -0.5302 -0.2228
 2932SOL    HW111726   1.539   3.165   1.886 -1.7890 -2.2310  0.5648
 2932SOL    HW211727   1.666   3.138   1.809 -0.4115  1.6449  1.2574
 2932SOL     MW11728   1.590   3.111   1.842 -0.2425 -0.4664  0.0824
 2933SOL     OW11729   4.411   2.164   2.769  0.0194 -0.3373  0.5146
 2933SOL    HW111730   4.498   2.130   2.791 -0.5119 -2.5142 -0.5003
 2933SOL    HW211731   4.423   2.204   2.683  0.2316  0.4214  0.8827
 2933SOL     MW11732   4.424   2.165   2.760 -0.0235 -0.5282  0.4275
 2934SOL     OW11733   3.891   4.576   0.618 -0.4054  0.0744 -0.1666
 2934SOL    HW111734   3.977   4.584   0.658 -0.8678 -0.8316  1.0979
 2934SOL    HW211735   3.860   4.666   0.609  0.7054  0.4097 -0.7467
 2934SOL     MW11736   3.898   4.589   0.623 -0.3181 -0.0024 -0.0745
 2935SOL     OW11737   3.487   1.293   2.654  0.6005 -0.7187 -0.0584
 2935SOL    HW111738   3.422   1.248   2.708 -0.2067 -1.1672 -1.3668
 2935SOL    HW211739   3.444   1.305   2.569  2.6088 -2.0931 -1.3656
 2935SOL     MW11740   3.473   1.289   2.650  0.7622 -0.9640 -0.4104
 2936SOL     OW11741   2.741   0.800   2.242  0.3495 -0.1433  0.0264
 2936SOL    HW111742   2.705   0.877   2.286 -0.5648 -0.7984  0.4605
 2936SOL    HW211743   2.815   0.834   2.190  0.7536  0.8217  1.1802
 2936SOL     MW11744   2.746   0.815   2.241  0.2809 -0.1016  0.2401
 2937SOL     OW11745   5.074   5.293   4.232 -0.0431  0.5571  0.6841
 2937SOL    HW111746   4.988   5.332   4.220  0.2227  0.5573 -1.5072
 2937SOL    HW211747   5.135   5.361   4.203  0.5439 -0.4153 -0.4349
 2937SOL     MW11748   5.071   5.308   4.227  0.0716  0.4262  0.2386
 2938SOL     OW11749   5.408   4.455   0.315  0.0511  0.0574  0.3971
 2938SOL    HW111750   5.356   4.515   0.262  0.5667  0.1408 -0.0204
 2938SOL    HW211751   5.387   4.478   0.406 -1.8235 -0.9258  0.2561
 2938SOL     MW11752   5.398   4.466   0.320 -0.1318 -0.0637  0.3220
 2939SOL     OW11753   0.683   0.531   0.941 -0.6076 -0.5581 -0.0828
 2939SOL    HW111754   0.725   0.615   0.962 -0.9206 -0.4576  0.1512
 2939SOL    HW211755   0.643   0.546   0.855 -1.2381 -0.2475  0.2603
 2939SOL     MW11756   0.683   0.545   0.932 -0.7346 -0.5027 -0.0051
 2940SOL     OW11757   5.213   2.596   2.921 -0.8021  0.1245 -0.9178
 2940SOL    HW111758   5.145   2.584   2.986 -0.2160 -1.3071 -0.5302
 2940SOL    HW211759   5.289   2.628   2.970 -0.3549 -0.9715 -0.8662
 2940SOL     MW11760   5.214   2.599   2.936 -0.6631 -0.2156 -0.8587
 2941SOL     OW11761   0.219   0.288   5.434 -0.3288 -0.3974  0.1851
 2941SOL    HW111762   0.177   0.271   5.350  0.1681 -1.0291  0.0570
 2941SOL    HW211763   0.149   0.279   5.498 -0.8088  0.5372 -0.1954
 2941SOL     MW11764   0.204   0.284   5.431 -0.3265 -0.3567  0.1166
 2942SOL     OW11765   0.185   4.440   4.151 -0.0671 -0.0015  0.1193
 2942SOL    HW111766   0.104   4.390   4.143 -0.4702  0.6422  0.0597
 2942SOL    HW211767   0.229   4.430   4.067 -1.1975  1.5027 -0.7024
 2942SOL     MW11768   0.180   4.432   4.139 -0.2735  0.2875  0.0007
 2943SOL     OW11769   3.372   2.025   0.710 -0.9007 -0.1263  0.1165
 2943SOL    HW111770   3.384   2.113   0.745 -1.7204  0.6108 -1.3602
 2943SOL    HW211771   3.306   1.985   0.768 -1.8849  0.8958 -0.2532
 2943SOL     MW11772   3.364   2.031   0.722 -1.1435  0.1105 -0.1320
 2944SOL     OW11773   4.563   5.513   1.149  0.3345  0.1046 -0.5309
 2944SOL    HW111774   4.653   5.488   1.167 -0.0674 -1.9101 -1.0963
 2944SOL    HW211775   4.516   5.496   1.231  0.3710  0.7460 -0.3697
 2944SOL     MW11776   4.569   5.508   1.163  0.2853 -0.0802 -0.5853
 2945SOL     OW11777   3.698   3.400   3.774  0.1490 -0.0379 -0.0838
 2945SOL    HW111778   3.679   3.391   3.867  1.1185 -1.2037  0.0288
 2945SOL    HW211779   3.689   3.493   3.756  0.8902  0.3419  1.3824
 2945SOL     MW11780   3.694   3.411   3.784  0.3792 -0.1437  0.1287
 2946SOL     OW11781   0.792   3.033   1.372 -0.0511  0.0691 -0.7165
 2946SOL    HW111782   0.701   3.004   1.383  0.3284 -1.0214 -0.3220
 2946SOL    HW211783   0.801   3.047   1.278 -0.7911  0.7843 -0.6966
 2946SOL     MW11784   0.781   3.031   1.361 -0.0996  0.0186 -0.6607
 2947SOL     OW11785   3.183   1.718   0.043 -0.3086 -0.1190  0.2634
 2947SOL    HW111786   3.165   1.628   0.014 -0.7120 -0.2297  0.8561
 2947SOL    HW211787   3.243   1.707   0.116  0.5373  0.1552 -0.3686
 2947SOL     MW11788   3.189   1.704   0.049 -0.2491 -0.0970  0.2581
 2948SOL     OW11789   2.889   5.036   4.554  0.1417  0.3874  0.2962
 2948SOL    HW111790   2.826   4.973   4.590  0.1220 -0.2856 -0.8462
 2948SOL    HW211791   2.944   5.061   4.628 -0.3728 -0.3520  0.9460
 2948SOL     MW11792   2.888   5.031   4.569  0.0698  0.1973  0.2299
 2949SOL     OW11793   0.509   2.692   1.893  0.4423 -0.2084 -0.1454
 2949SOL    HW111794   0.419   2.671   1.866 -0.1033  0.2717  1.2390
 2949SOL    HW211795   0.500   2.768   1.950  1.6630 -0.5316  0.5169
 2949SOL     MW11796   0.495   2.699   1.897  0.5331 -0.1872  0.1301
 2950SOL     OW11797   2.833   3.396   2.266 -0.1872  0.1556 -0.1478
 2950SOL    HW111798   2.764   3.405   2.332 -0.4059  0.9976 -0.4797
 2950SOL    HW211799   2.909   3.438   2.305 -0.1011 -0.0176 -0.1282
 2950SOL     MW11800   2.834   3.403   2.280 -0.2051  0.2456 -0.1899
 2951SOL     OW11801   2.547   3.563   2.546 -0.7178  0.0475  0.0390
 2951SOL    HW111802   2.487   3.564   2.471 -0.3288 -0.7225 -0.2960
 2951SOL    HW211803   2.491   3.576   2.622 -1.4461 -1.5905 -0.1911
 2951SOL     MW11804   2.532   3.565   2.546 -0.7635 -0.2766 -0.0371
 2952SOL     OW11805   5.300   2.185   5.212  0.1378  0.8227  0.3213
 2952SOL    HW111806   5.311   2.147   5.299 -2.3475  0.0185  0.3664
 2952SOL    HW211807   5.249   2.264   5.226  0.2330  1.0126 -0.3465
 2952SOL     MW11808   5.294   2.190   5.225 -0.1839  0.7400  0.2375
 2953SOL     OW11809   2.267   4.690   0.477  0.3322  0.0346  0.8114
 2953SOL    HW111810   2.322   4.635   0.533 -2.5502  0.3343  4.2818
 2953SOL    HW211811   2.315   4.773   0.472  3.0526 -1.4959 -1.5977
 2953SOL     MW11812   2.281   4.693   0.484  0.3104 -0.1310  0.9543
 2954SOL     OW11813   0.493   4.074   2.524  0.2694  0.2575 -0.3664
 2954SOL    HW111814   0.460   4.157   2.560  0.5741  1.1731 -2.1072
 2954SOL    HW211815   0.419   4.038   2.475 -0.8055 -1.9712  2.5563
 2954SOL     MW11816   0.478   4.080   2.522  0.1657  0.0808 -0.2073
 2955SOL     OW11817   3.826   1.093   0.164 -0.5935 -0.3026 -0.0023
 2955SOL    HW111818   3.865   1.046   0.090  0.1799  0.6417 -0.2205
 2955SOL    HW211819   3.809   1.181   0.130  0.5419  0.4006  1.1569
 2955SOL     MW11820   3.829   1.099   0.150 -0.3366 -0.0809  0.1243
 2956SOL     OW11821   1.171   4.060   1.605  0.5321 -0.2734  0.2609
 2956SOL    HW111822   1.187   4.120   1.533 -0.6202  1.1153  1.1129
 2956SOL    HW211823   1.088   4.017   1.583  1.1270 -1.2658 -0.1282
 2956SOL     MW11824   1.162   4.062   1.592  0.4571 -0.2200  0.3232
 2957SOL     OW11825   5.284   2.620   2.493 -0.0321  0.2866  0.2940
 2957SOL    HW111826   5.308   2.530   2.514 -1.2183 -0.1186  0.0320
 2957SOL    HW211827   5.363   2.671   2.508  0.5537 -0.7468  0.8056
 2957SOL     MW11828   5.298   2.614   2.498 -0.1129  0.0930  0.3276
 2958SOL     OW11829   2.613   1.767   4.323  0.4237  0.3216 -0.2212
 2958SOL    HW111830   2.589   1.843   4.375  1.0348  0.3787 -0.0124
 2958SOL    HW211831   2.632   1.699   4.387  0.6241  0.2219 -0.3834
 2958SOL     MW11832   2.612   1.768   4.338  0.5329  0.3159 -0.2149
 2959SOL     OW11833   2.531   4.537   2.462 -0.1254  0.4599 -0.0717
 2959SOL    HW111834   2.616   4.497   2.442  0.4574  1.4577  0.3582
 2959SOL    HW211835   2.544   4.630   2.444 -0.2048  1.1152  2.7563
 2959SOL     MW11836   2.545   4.544   2.457 -0.0576  0.6824  0.3668
 2960SOL     OW11837   0.674   0.249   1.001 -0.3086 -0.1447  0.0177
 2960SOL    HW111838   0.763   0.215   1.007 -0.3724 -1.3594 -3.4765
 2960SOL    HW211839   0.685   0.340   0.974 -0.1128 -0.2267 -0.1830
 2960SOL     MW11840   0.688   0.257   0.998 -0.2908 -0.3192 -0.4796
 2961SOL     OW11841   3.848   4.068   2.483  0.0096  0.1392 -0.2507
 2961SOL    HW111842   3.858   3.981   2.520  1.0176 -0.4295 -1.7853
 2961SOL    HW211843   3.911   4.122   2.531  3.3314 -1.1631 -2.7415
 2961SOL     MW11844   3.858   4.064   2.494  0.5923 -0.1126 -0.7924
 2962SOL     OW11845   2.352   0.728   4.961 -0.0240  0.0628  0.0828
 2962SOL    HW111846   2.285   0.660   4.951 -0.2773  0.2639  0.4147
 2962SOL    HW211847   2.386   0.742   4.873  0.6507 -1.1307  0.1293
 2962SOL     MW11848   2.348   0.720   4.948  0.0327 -0.0707  0.1337
 2963SOL     OW11849   2.466   2.439   4.901 -0.3082  0.1059  0.9134
 2963SOL    HW111850   2.443   2.530   4.886  0.4349  0.2927  0.8523
 2963SOL    HW211851   2.502   2.437   4.990  0.0249 -0.0550  0.7786
 2963SOL     MW11852   2.468   2.451   4.911 -0.1634  0.1094  0.8870
 2964SOL     OW11853   3.766   2.734   4.061  0.0249 -0.3715 -0.2122
 2964SOL    HW111854   3.818   2.724   4.141 -0.0355 -0.4266 -0.1802
 2964SOL    HW211855   3.818   2.793   4.007 -0.8221  1.2616  0.6611
 2964SOL     MW11856   3.780   2.741   4.065 -0.0972 -0.1592 -0.0904
 2965SOL     OW11857   2.641   5.183   3.041 -0.9329 -0.1545 -0.1592
 2965SOL    HW111858   2.655   5.278   3.047  1.3764 -0.4849  0.9817
 2965SOL    HW211859   2.626   5.168   2.947  1.2817  1.1125 -0.8156
 2965SOL     MW11860   2.641   5.194   3.029 -0.3240 -0.0285 -0.0940
 2966SOL     OW11861   3.104   1.906   3.220 -0.0216 -0.5964 -0.4768
 2966SOL    HW111862   3.155   1.939   3.294 -1.8219  0.7652  0.2341
 2966SOL    HW211863   3.130   1.963   3.147  0.3713 -0.7243 -0.4435
 2966SOL     MW11864   3.115   1.918   3.220 -0.2110 -0.4304 -0.3766
 2967SOL     OW11865   0.849   2.141   1.117  0.3672  0.0028  0.1075
 2967SOL    HW111866   0.840   2.080   1.043  2.4559 -1.4225  0.9586
 2967SOL    HW211867   0.938   2.176   1.109 -0.7376  3.0506 -0.3327
 2967SOL     MW11868   0.859   2.138   1.106  0.4996  0.2212  0.1628
 2968SOL     OW11869   1.032   3.733   1.039  0.4083 -0.2490  0.0172
 2968SOL    HW111870   1.032   3.638   1.054  0.6417 -0.5944 -1.8256
 2968SOL    HW211871   1.103   3.766   1.094  1.9260 -1.5134 -1.0614
 2968SOL     MW11872   1.042   3.725   1.048  0.6439 -0.4656 -0.3760
 2969SOL     OW11873   2.653   4.159   2.717 -0.1239  0.1095  0.0733
 2969SOL    HW111874   2.706   4.105   2.658 -0.6998  0.3641 -0.6982
 2969SOL    HW211875   2.562   4.142   2.691 -0.3517  0.8829  0.3098
 2969SOL     MW11876   2.648   4.150   2.706 -0.2321  0.2478  0.0013
 2970SOL     OW11877   0.061   4.624   4.882 -0.1468 -0.2938  0.0687
 2970SOL    HW111878   0.089   4.681   4.810  0.7818  0.0104  0.6537
 2970SOL    HW211879  -0.016   4.668   4.918  0.5434  0.6086  0.4954
 2970SOL     MW11880   0.055   4.638   4.878  0.0711 -0.1314  0.2048
 2971SOL     OW11881   1.778   3.088   1.571  0.5928 -0.3330  0.1420
 2971SOL    HW111882   1.783   3.159   1.635  0.1365 -0.4415  0.3010
 2971SOL    HW211883   1.785   3.132   1.486 -2.7063  0.3126  0.0596
 2971SOL     MW11884   1.780   3.103   1.568  0.0874 -0.2607  0.1523
 2972SOL     OW11885   0.834   2.504   0.672 -0.0660 -0.0421  1.0533
 2972SOL    HW111886   0.862   2.583   0.626  0.5995 -0.6423  0.3949
 2972SOL    HW211887   0.743   2.520   0.696 -1.0196 -0.3277 -1.9601
 2972SOL     MW11888   0.826   2.516   0.669 -0.1047 -0.1613  0.5591
 2973SOL     OW11889   4.579   2.902   3.631 -0.2423  0.0700 -0.2732
 2973SOL    HW111890   4.550   2.918   3.541 -0.0639  1.0297 -0.1708
 2973SOL    HW211891   4.660   2.852   3.621  0.9913  2.0409 -0.7525
 2973SOL     MW11892   4.586   2.898   3.617 -0.0523  0.4644 -0.3239
 2974SOL     OW11893   2.559   0.508   1.307  0.5147 -0.5684  0.6552
 2974SOL    HW111894   2.519   0.442   1.364  0.0296  0.1057  1.1256
 2974SOL    HW211895   2.485   0.552   1.266  0.7335  0.7698  1.6172
 2974SOL     MW11896   2.543   0.505   1.309  0.4789 -0.2976  0.8480
 2975SOL     OW11897   2.430   0.412   4.092 -0.2788 -0.7540  0.1726
 2975SOL    HW111898   2.469   0.339   4.044  0.2619 -0.6138  0.3990
 2975SOL    HW211899   2.336   0.402   4.077 -0.1680 -1.1523 -0.2870
 2975SOL     MW11900   2.422   0.401   4.084 -0.1911 -0.7887  0.1412
 2976SOL     OW11901   5.267   4.857   2.293  0.2303  0.1149  0.4377
 2976SOL    HW111902   5.222   4.785   2.250 -0.3152 -0.4306  1.8495
 2976SOL    HW211903   5.222   4.936   2.262 -1.0911 -0.3577  1.0572
 2976SOL     MW11904   5.255   4.858   2.283 -0.0209 -0.0221  0.7111
 2977SOL     OW11905   1.984   3.447   2.448 -0.4562 -0.0940 -0.2600
 2977SOL    HW111906   1.897   3.483   2.465 -0.5562 -0.4430 -0.0051
 2977SOL    HW211907   1.967   3.357   2.420 -0.2219  0.1134 -1.0718
 2977SOL     MW11908   1.970   3.440   2.447 -0.4381 -0.1130 -0.3350
 2978SOL     OW11909   3.441   0.188   0.697  0.1580  0.7211 -0.1187
 2978SOL    HW111910   3.491   0.125   0.748  1.6100  1.1430 -0.9656
 2978SOL    HW211911   3.366   0.210   0.752  1.1039  0.3582  1.3706
 2978SOL     MW11912   3.438   0.183   0.711  0.4807  0.7290 -0.0322
 2979SOL     OW11913   3.693   2.307   3.008 -0.4170 -0.1175 -0.3424
 2979SOL    HW111914   3.770   2.273   3.055  0.4151 -1.2559 -2.3596
 2979SOL    HW211915   3.619   2.262   3.048  0.1266 -0.1851  0.6201
 2979SOL     MW11916   3.694   2.296   3.020 -0.2319 -0.2798 -0.4843
 2980SOL     OW11917   2.480   3.150   3.594  0.6702  0.1128  0.3848
 2980SOL    HW111918   2.447   3.119   3.510 -1.9218  0.4222  1.2142
 2980SOL    HW211919   2.425   3.226   3.616  2.0691  0.7858  1.8111
 2980SOL     MW11920   2.468   3.156   3.586  0.5096  0.2450  0.6884
 2981SOL     OW11921   3.391   3.890   1.576  0.1416  0.2790 -0.0843
 2981SOL    HW111922   3.377   3.796   1.577 -0.1006  0.3107  0.7296
 2981SOL    HW211923   3.485   3.901   1.590  0.1666  0.1626 -0.1645
 2981SOL     MW11924   3.402   3.879   1.578  0.1123  0.2676  0.0144
 2982SOL     OW11925   0.796   4.171   0.458 -0.3786 -0.1984 -0.3541
 2982SOL    HW111926   0.706   4.166   0.488 -1.2257 -1.5550 -2.8188
 2982SOL    HW211927   0.799   4.251   0.404 -0.2279 -0.3728 -0.6085
 2982SOL     MW11928   0.784   4.181   0.455 -0.4723 -0.4044 -0.7201
 2983SOL     OW11929   3.213   1.176   4.099 -0.1865  0.1593  0.0655
 2983SOL    HW111930   3.231   1.095   4.147 -0.5670 -0.0445 -0.1284
 2983SOL    HW211931   3.262   1.166   4.017  1.5465  1.0777  0.9214
 2983SOL     MW11932   3.222   1.164   4.094 -0.0045  0.2555  0.1546
 2984SOL     OW11933   2.246   0.338   3.261  0.1637  0.0222 -0.0965
 2984SOL    HW111934   2.330   0.302   3.292  0.1562 -0.2686 -0.4143
 2984SOL    HW211935   2.268   0.426   3.232  0.5189 -0.3205 -0.9041
 2984SOL     MW11936   2.260   0.345   3.261  0.2105 -0.0631 -0.2480
 2985SOL     OW11937   2.070   5.015   0.807  0.3082  0.5706  0.1096
 2985SOL    HW111938   2.090   5.070   0.883  0.5275 -0.3628  0.7348
 2985SOL    HW211939   2.131   4.941   0.814  1.4884  1.2624 -1.8669
 2985SOL     MW11940   2.081   5.013   0.818  0.4966  0.5381 -0.0723
 2986SOL     OW11941   1.643   0.237   3.356  0.3016  0.3610  0.3769
 2986SOL    HW111942   1.575   0.289   3.399  1.7939  1.3265  1.6450
 2986SOL    HW211943   1.673   0.293   3.284  0.9546  0.6914  0.8979
 2986SOL     MW11944   1.638   0.252   3.352  0.5903  0.5354  0.6176
 2987SOL     OW11945   2.855   5.355   0.818  0.6529  0.5488 -0.0226
 2987SOL    HW111946   2.802   5.311   0.752  0.3375 -2.0126  1.7947
 2987SOL    HW211947   2.794   5.378   0.888  1.4024  0.4656  0.6836
 2987SOL     MW11948   2.840   5.352   0.819  0.7113  0.1929  0.3170
 2988SOL     OW11949   2.603   2.623   3.562  0.3015 -0.2999 -0.5634
 2988SOL    HW111950   2.679   2.668   3.600 -0.2232  0.7136 -0.6819
 2988SOL    HW211951   2.639   2.542   3.526  0.9025 -1.0569  1.5840
 2988SOL     MW11952   2.618   2.618   3.562  0.3118 -0.2654 -0.2903
 2989SOL     OW11953   1.265   4.105   2.775 -0.0850 -0.4100  0.2150
 2989SOL    HW111954   1.191   4.158   2.744  0.4346 -0.1413 -0.5880
 2989SOL    HW211955   1.322   4.167   2.820  0.3546 -0.3384 -0.4259
 2989SOL     MW11956   1.262   4.120   2.777  0.0441 -0.3642  0.0207
 2990SOL     OW11957   3.649   0.928   0.307  0.5749 -0.0941  0.1814
 2990SOL    HW111958   3.705   0.993   0.265  0.2720  1.0476  1.4513
 2990SOL    HW211959   3.674   0.845   0.268  0.9267  0.7845 -1.5676
 2990SOL     MW11960   3.660   0.926   0.296  0.5815  0.1778  0.1170
 2991SOL     OW11961   0.344   4.804   5.475  0.2534  0.3111  0.2926
 2991SOL    HW111962   0.386   4.874   5.425 -0.6707  1.6456  1.3171
 2991SOL    HW211963   0.263   4.786   5.427 -0.2958  1.1093  0.8847
 2991SOL     MW11964   0.338   4.811   5.461  0.0551  0.5981  0.5101
 2992SOL     OW11965   4.955   2.533   1.304 -0.2398 -0.1082  0.7697
 2992SOL    HW111966   4.893   2.460   1.294 -0.3967  0.0236  0.7651
 2992SOL    HW211967   4.901   2.606   1.335 -0.2649  0.2831 -0.1447
 2992SOL     MW11968   4.939   2.533   1.307 -0.2643 -0.0378  0.6460
 2993SOL     OW11969   1.589   1.355   5.317 -0.3620 -0.1198  0.1598
 2993SOL    HW111970   1.527   1.397   5.376 -1.5903  0.5657 -1.5442
 2993SOL    HW211971   1.645   1.303   5.374 -1.1484  0.9274  1.9650
 2993SOL     MW11972   1.588   1.353   5.332 -0.6331  0.1134  0.1734
 2994SOL     OW11973   4.145   2.454   3.064  0.4938 -0.3870  0.4212
 2994SOL    HW111974   4.216   2.451   3.128 -0.1018 -1.2696  1.0611
 2994SOL    HW211975   4.091   2.378   3.084 -0.1998 -0.1811 -0.5697
 2994SOL     MW11976   4.148   2.443   3.075  0.3203 -0.4781  0.3739
 2995SOL     OW11977   0.561   0.967   2.131  0.1618  0.1334  0.0581
 2995SOL    HW111978   0.561   0.980   2.036  2.8859  0.2821  0.0165
 2995SOL    HW211979   0.494   1.029   2.163 -0.4230  0.4739 -1.6937
 2995SOL     MW11980   0.552   0.977   2.122  0.4497  0.1993 -0.1833
 2996SOL     OW11981   4.326   0.799   0.213  0.3776 -0.0061  0.1460
 2996SOL    HW111982   4.348   0.758   0.129  1.5213 -0.8194  0.8006
 2996SOL    HW211983   4.248   0.753   0.243  0.5733 -0.4369  0.0037
 2996SOL     MW11984   4.319   0.787   0.206  0.5579 -0.1736  0.2150
 2997SOL     OW11985   0.098   0.086   3.483  0.1619  0.1417  0.3048
 2997SOL    HW111986   0.004   0.084   3.468  0.4400  0.0559 -1.7912
 2997SOL    HW211987   0.125  -0.006   3.481  0.3294  0.1841  0.5813
 2997SOL     MW11988   0.089   0.074   3.481  0.2219  0.1359  0.0599
 2998SOL     OW11989   1.120   1.759   5.214 -0.1728 -0.5498 -0.2010
 2998SOL    HW111990   1.092   1.800   5.133 -0.6111  0.9172  0.6455
 2998SOL    HW211991   1.155   1.674   5.188 -0.3723 -0.1418 -1.8965
 2998SOL     MW11992   1.121   1.753   5.200 -0.2586 -0.2975 -0.3153
 2999SOL     OW11993   2.993   0.654   3.306 -0.0208 -0.0024 -0.0526
 2999SOL    HW111994   2.985   0.700   3.390  2.1515 -0.1283  0.2920
 2999SOL    HW211995   2.955   0.568   3.322 -0.2464  0.2080  0.5863
 2999SOL     MW11996   2.987   0.649   3.319  0.2412  0.0090  0.0798
 3000SOL     OW11997   2.086   3.808   4.325 -0.0648  0.2029  0.9014
 3000SOL    HW111998   2.174   3.819   4.290 -0.1410  1.0961  0.9735
 3000SOL    HW211999   2.092   3.731   4.382 -0.0758 -1.7181 -1.5116
 3000SOL     MW12000   2.098   3.799   4.328 -0.0766  0.0646  0.5864
 3001SOL     OW12001   4.601   1.008   2.588  0.8026  0.1917  1.1921
 3001SOL    HW112002   4.538   0.936   2.593  1.8937 -0.7221  2.7608
 3001SOL    HW212003   4.557   1.082   2.629 -0.5921  0.7018 -1.0344
 3001SOL     MW12004   4.587   1.008   2.594  0.7617  0.1373  1.1036
 3002SOL     OW12005   1.292   0.130   4.396 -0.0240  0.5736 -0.2830
 3002SOL    HW112006   1.248   0.049   4.367 -0.4257  0.4329  0.6778
 3002SOL    HW212007   1.369   0.136   4.340  0.9965 -1.4514  0.7691
 3002SOL     MW12008   1.296   0.120   4.384  0.0593  0.2821 -0.0121
 3003SOL     OW12009   3.099   3.455   3.430 -0.4727  0.6732  0.2512
 3003SOL    HW112010   3.184   3.437   3.470 -1.3967 -0.7870  1.7066
 3003SOL    HW212011   3.113   3.440   3.337  0.3148 -2.2452  0.7197
 3003SOL     MW12012   3.113   3.451   3.423 -0.4911  0.0839  0.5101
 3004SOL     OW12013   3.397   2.589   1.554 -0.2974 -0.0778  0.3240
 3004SOL    HW112014   3.419   2.506   1.596 -1.0164 -0.5395 -0.1860
 3004SOL    HW212015   3.356   2.641   1.623  0.7586  0.1297  0.8238
 3004SOL     MW12016   3.394   2.585   1.569 -0.2521 -0.1120  0.3226
 3005SOL     OW12017   4.587   5.200   1.331 -0.4131  0.0013 -0.2857
 3005SOL    HW112018   4.615   5.260   1.261 -0.9043 -0.5651 -0.9801
 3005SOL    HW212019   4.644   5.221   1.405 -1.0848  1.8984 -0.2300
 3005SOL     MW12020   4.598   5.211   1.331 -0.5696  0.1804 -0.3716
 3006SOL     OW12021   1.613   1.197   0.880  0.1140 -0.6348 -0.2606
 3006SOL    HW112022   1.678   1.133   0.910  0.1051 -0.1750  0.7649
 3006SOL    HW212023   1.664   1.277   0.863 -0.3990  0.3591  2.4816
 3006SOL     MW12024   1.629   1.200   0.882  0.0437 -0.4392  0.2465
 3007SOL     OW12025   1.525   1.960   3.646  0.0295  0.0130  0.4135
 3007SOL    HW112026   1.433   1.943   3.624  0.3249 -1.1907  0.0259
 3007SOL    HW212027   1.538   1.912   3.728  0.9694 -2.0579 -0.8635
 3007SOL     MW12028   1.514   1.951   3.654  0.1958 -0.4277  0.1895
 3008SOL     OW12029   3.198   4.366   0.264 -0.4867 -0.1637 -0.8388
 3008SOL    HW112030   3.181   4.391   0.355  0.2475  0.6599 -0.9124
 3008SOL    HW212031   3.203   4.449   0.217 -1.3086 -0.5971 -1.7265
 3008SOL     MW12032   3.196   4.380   0.270 -0.4985 -0.1112 -0.9681
 3009SOL     OW12033   4.954   3.042   1.479 -0.0731  1.1998 -0.4263
 3009SOL    HW112034   5.045   3.014   1.492 -0.3111  1.1135  1.2481
 3009SOL    HW212035   4.958   3.101   1.404  1.0169 -0.4309 -1.7246
 3009SOL     MW12036   4.967   3.046   1.471  0.0416  0.9687 -0.3757
 3010SOL     OW12037   1.341   1.920   4.981  0.0175 -0.3885 -0.3119
 3010SOL    HW112038   1.360   1.859   4.909  0.6384  0.8803 -1.2723
 3010SOL    HW212039   1.248   1.909   4.998 -0.2522 -0.3802 -1.6513
 3010SOL     MW12040   1.331   1.910   4.974  0.0648 -0.2166 -0.6214
 3011SOL     OW12041   3.034   5.373   2.320  0.8770 -0.0884  0.3959
 3011SOL    HW112042   2.996   5.324   2.248  0.0222  1.2391 -0.1049
 3011SOL    HW212043   3.108   5.320   2.350  0.9551 -0.9001 -1.1358
 3011SOL     MW12044   3.039   5.359   2.314  0.7725 -0.0189  0.1224
 3012SOL     OW12045   1.741   4.000   2.287  0.4811 -0.0185  0.0447
 3012SOL    HW112046   1.705   4.066   2.228 -0.0302 -0.9417 -0.7203
 3012SOL    HW212047   1.827   4.033   2.311  1.0098  0.0899 -1.7928
 3012SOL     MW12048   1.748   4.013   2.282  0.4835 -0.1281 -0.3055
 3013SOL     OW12049   2.262   5.339   3.971 -0.2354  0.1382 -0.3905
 3013SOL    HW112050   2.222   5.402   3.911  1.4802  1.9480  0.2264
 3013SOL    HW212051   2.336   5.303   3.923 -0.1872 -0.0956 -0.1436
 3013SOL     MW12052   2.266   5.343   3.957  0.0020  0.3503 -0.2742
 3014SOL     OW12053   0.739   3.957   0.109 -0.0590 -0.6615 -0.4931
 3014SOL    HW112054   0.652   3.997   0.107 -0.6101 -1.6256  1.2625
 3014SOL    HW212055   0.740   3.900   0.032 -0.9013 -0.4541 -0.6744
 3014SOL     MW12056   0.727   3.954   0.098 -0.2466 -0.7634 -0.2812
 3015SOL     OW12057   2.560   1.266   0.541  0.5294  0.6794  0.0759
 3015SOL    HW112058   2.528   1.352   0.514 -0.6967  0.1912 -0.0871
 3015SOL    HW212059   2.481   1.214   0.556  1.1741  0.3594  2.8831
 3015SOL     MW12060   2.545   1.271   0.539  0.4512  0.5706  0.4318
 3016SOL     OW12061   0.913   1.418   5.308 -0.1554 -0.2678 -0.1325
 3016SOL    HW112062   0.863   1.362   5.249  2.6598 -1.8585 -1.1767
 3016SOL    HW212063   0.883   1.507   5.287 -0.4341 -0.9151 -2.8071
 3016SOL     MW12064   0.902   1.423   5.298  0.1859 -0.5690 -0.6330
 3017SOL     OW12065   0.635   4.966   2.466  0.1131 -0.4877 -0.1102
 3017SOL    HW112066   0.553   4.921   2.486  0.5970 -0.6058  1.8148
 3017SOL    HW212067   0.624   5.053   2.503  0.6331 -0.3113 -0.3686
 3017SOL     MW12068   0.622   4.971   2.473  0.2482 -0.4799  0.1141
 3018SOL     OW12069   0.776   2.893   5.522 -0.5687  0.1820 -0.0520
 3018SOL    HW112070   0.847   2.869   5.581 -1.9133 -0.5296  1.3516
 3018SOL    HW212071   0.787   2.836   5.446 -0.0188 -0.3695  0.4338
 3018SOL     MW12072   0.787   2.882   5.520 -0.6756  0.0120  0.2023
 3019SOL     OW12073   2.227   3.446   5.474 -0.3084  0.3282  0.0624
 3019SOL    HW112074   2.210   3.359   5.439  0.9512  0.3274 -0.5970
 3019SOL    HW212075   2.306   3.436   5.527 -0.4382  0.9700  0.3930
 3019SOL     MW12076   2.236   3.433   5.476 -0.1564  0.4144  0.0182
 3020SOL     OW12077   4.058   3.436   2.528 -0.4802 -0.3627 -0.3362
 3020SOL    HW112078   4.121   3.366   2.515  1.0039  0.9317 -0.4765
 3020SOL    HW212079   4.048   3.444   2.622  1.5638  1.0318 -0.1628
 3020SOL     MW12080   4.065   3.428   2.539 -0.0054 -0.0008 -0.3317
 3021SOL     OW12081   2.986   1.123   3.415 -0.0970 -0.5572 -0.4527
 3021SOL    HW112082   2.967   1.061   3.485 -1.0203 -0.3767 -0.5192
 3021SOL    HW212083   3.011   1.204   3.460 -1.9747 -0.0328 -0.2589
 3021SOL     MW12084   2.987   1.126   3.430 -0.4739 -0.4623 -0.4356
 3022SOL     OW12085   0.998   0.699   1.425 -0.2052 -0.2260 -0.2296
 3022SOL    HW112086   1.049   0.618   1.423 -0.3888 -0.3277 -0.9387
 3022SOL    HW212087   0.910   0.672   1.450 -0.2134 -0.2162 -0.2477
 3022SOL     MW12088   0.993   0.684   1.428 -0.2310 -0.2383 -0.3274
 3023SOL     OW12089   0.393   0.030   1.437  0.3664  0.0120 -0.1699
 3023SOL    HW112090   0.388   0.114   1.483  2.2111  0.4450 -0.6676
 3023SOL    HW212091   0.372  -0.036   1.503 -1.3893  0.8680  0.1523
 3023SOL     MW12092   0.390   0.032   1.452  0.3783  0.1855 -0.1936
 3024SOL     OW12093   1.210   3.893   1.212 -0.3698  0.0426 -0.3063
 3024SOL    HW112094   1.260   3.950   1.153 -0.2795 -0.0761 -0.3449
 3024SOL    HW212095   1.276   3.839   1.255 -0.5965 -2.2597 -2.5620
 3024SOL     MW12096   1.225   3.893   1.210 -0.3881 -0.2832 -0.6151
 3025SOL     OW12097   3.069   4.565   4.913 -0.4919 -0.4316  0.0800
 3025SOL    HW112098   2.990   4.537   4.868 -0.5046 -1.3754  0.6809
 3025SOL    HW212099   3.138   4.555   4.847 -0.7565 -0.2739 -0.2251
 3025SOL     MW12100   3.068   4.560   4.898 -0.5292 -0.5374  0.1198
 3026SOL     OW12101   0.398   4.609   2.325  0.3087  0.2394 -0.1956
 3026SOL    HW112102   0.325   4.548   2.332 -0.2309  0.8779 -0.2097
 3026SOL    HW212103   0.383   4.654   2.242  0.4207  0.7599  0.0651
 3026SOL     MW12104   0.386   4.607   2.314  0.2512  0.3954 -0.1624
 3027SOL     OW12105   3.359   2.717   2.435  0.5832  0.1586 -0.1404
 3027SOL    HW112106   3.266   2.738   2.425  0.5598 -0.6097 -2.1055
 3027SOL    HW212107   3.404   2.801   2.435 -0.1330  0.5902  1.7310
 3027SOL     MW12108   3.353   2.731   2.434  0.4836  0.1133 -0.1530
 3028SOL     OW12109   1.814   2.454   0.139  0.2464  0.2258  0.1729
 3028SOL    HW112110   1.755   2.406   0.197 -0.3947  1.2517  0.4023
 3028SOL    HW212111   1.840   2.391   0.072 -0.6744 -0.3862  0.3834
 3028SOL     MW12112   1.810   2.439   0.138  0.0362  0.2815  0.2321
 3029SOL     OW12113   3.956   3.907   3.330 -0.4900 -0.5232  0.2802
 3029SOL    HW112114   3.997   3.962   3.264  2.4340 -0.9667  1.5894
 3029SOL    HW212115   3.884   3.961   3.364  0.1722  1.1251 -0.8022
 3029SOL     MW12116   3.951   3.922   3.326 -0.0074 -0.3611  0.3107
 3030SOL     OW12117   2.043   4.529   3.897  0.3444 -0.2801  0.2701
 3030SOL    HW112118   2.081   4.614   3.875 -1.1458  0.1592 -0.7850
 3030SOL    HW212119   2.107   4.488   3.955  2.0309  0.7124 -0.8180
 3030SOL     MW12120   2.057   4.535   3.902  0.3708 -0.0874 -0.0183
 3031SOL     OW12121   2.587   3.205   2.054 -0.1924  0.1738 -0.0233
 3031SOL    HW112122   2.595   3.134   1.990 -1.5880 -0.9161  0.9286
 3031SOL    HW212123   2.631   3.279   2.014  1.2458 -1.2031 -1.1052
 3031SOL     MW12124   2.594   3.205   2.040 -0.1867 -0.1582 -0.0408
 3032SOL     OW12125   1.189   0.382   0.913  0.0522 -0.7222  0.9524
 3032SOL    HW112126   1.140   0.452   0.870 -2.0305 -2.6445 -0.0625
 3032SOL    HW212127   1.186   0.403   1.006 -0.8374  0.3444  0.6961
 3032SOL     MW12128   1.182   0.394   0.920 -0.3478 -0.8374  0.7813
 3033SOL     OW12129   3.702   0.665   1.292 -0.1796 -0.0660 -0.3666
 3033SOL    HW112130   3.619   0.709   1.274 -0.4287  0.1663  1.2177
 3033SOL    HW212131   3.752   0.675   1.211 -1.2501  0.7897 -0.9569
 3033SOL     MW12132   3.697   0.672   1.278 -0.3572  0.0804 -0.2328
 3034SOL     OW12133   5.389   3.975   4.882  0.9108  0.2398  0.4952
 3034SOL    HW112134   5.326   3.985   4.810  0.5801  0.4145  0.8034
 3034SOL    HW212135   5.475   3.979   4.840  0.7188  0.2586  0.0998
 3034SOL     MW12136   5.392   3.977   4.867  0.8405  0.2659  0.4834
 3035SOL     OW12137   0.631   1.338   3.539  0.2685  0.1331 -0.5651
 3035SOL    HW112138   0.707   1.321   3.596  0.2922  1.1735 -0.2550
 3035SOL    HW212139   0.556   1.312   3.591  0.4011 -0.9177 -0.8785
 3035SOL     MW12140   0.631   1.333   3.554  0.2896  0.1317 -0.5655
 3036SOL     OW12141   4.208   0.482   2.729  0.8065  0.3679  0.2822
 3036SOL    HW112142   4.192   0.470   2.635  0.9643 -0.4373  0.3499
 3036SOL    HW212143   4.171   0.404   2.770 -1.8600  2.0055  1.2070
 3036SOL     MW12144   4.201   0.470   2.722  0.4689  0.4800  0.4158
 3037SOL     OW12145   0.302   1.264   4.973  0.0725 -0.4165 -0.8080
 3037SOL    HW112146   0.316   1.287   4.882 -2.0291 -1.7221 -1.5244
 3037SOL    HW212147   0.323   1.171   4.978 -1.4230 -0.7526 -0.3721
 3037SOL     MW12148   0.307   1.255   4.962 -0.4116 -0.6374 -0.8457
 3038SOL     OW12149   3.607   1.796   4.530 -0.1770  0.0619  0.0695
 3038SOL    HW112150   3.519   1.832   4.536 -0.7296 -1.3193  0.5216
 3038SOL    HW212151   3.659   1.867   4.491 -1.9103  0.1626 -2.2820
 3038SOL     MW12152   3.602   1.811   4.525 -0.4846 -0.1104 -0.1861
 3039SOL     OW12153   0.900   4.036   2.723 -0.2172  0.5246  0.3812
 3039SOL    HW112154   0.941   3.994   2.799 -0.8769 -0.7536  0.0615
 3039SOL    HW212155   0.968   4.094   2.688  1.9834 -2.5820 -1.0208
 3039SOL     MW12156   0.915   4.038   2.729 -0.0099 -0.0655  0.1495
 3040SOL     OW12157   0.367   2.099   0.826  0.0191 -0.6886  0.4909
 3040SOL    HW112158   0.315   2.039   0.879 -1.8296  1.4977  1.3295
 3040SOL    HW212159   0.325   2.097   0.740 -0.7026  0.1045  0.8062
 3040SOL     MW12160   0.355   2.091   0.821 -0.3268 -0.2876  0.6462
 3041SOL     OW12161   5.005   1.184   4.980  0.3658 -0.5781 -0.0243
 3041SOL    HW112162   5.076   1.236   5.017  0.9773 -0.4561 -1.3281
 3041SOL    HW212163   4.930   1.202   5.037  1.1313  0.0270  0.8164
 3041SOL     MW12164   5.005   1.193   4.993  0.5511 -0.4802 -0.0866
 3042SOL     OW12165   1.567   3.840   5.197  0.1063  0.5720 -0.1616
 3042SOL    HW112166   1.487   3.881   5.231  0.1997  0.8526 -0.2869
 3042SOL    HW212167   1.571   3.866   5.105  1.1172  1.7513  0.1985
 3042SOL     MW12168   1.557   3.849   5.189  0.2549  0.7685 -0.1300
 3043SOL     OW12169   1.282   1.505   0.834 -0.3901 -0.2908  0.1830
 3043SOL    HW112170   1.238   1.511   0.749 -0.1441  0.1447  0.0852
 3043SOL    HW212171   1.247   1.578   0.885  0.6080  0.3966 -0.0841
 3043SOL     MW12172   1.272   1.515   0.829 -0.2227 -0.1397  0.1339
 3044SOL     OW12173   0.864   4.767   0.362 -0.0857  0.2524  0.7767
 3044SOL    HW112174   0.860   4.841   0.423  1.2980  0.7978  0.2451
 3044SOL    HW212175   0.908   4.697   0.410  1.0567  0.7015  0.4269
 3044SOL     MW12176   0.869   4.768   0.377  0.2543  0.3863  0.6581
 3045SOL     OW12177   0.234   2.140   3.789 -0.2842  0.4483 -0.1988
 3045SOL    HW112178   0.314   2.148   3.840 -1.2337 -0.0678  1.4689
 3045SOL    HW212179   0.183   2.072   3.835 -0.9107 -0.5492 -2.2533
 3045SOL     MW12180   0.238   2.132   3.802 -0.4963  0.2446 -0.2508
 3046SOL     OW12181   4.451   1.842   4.797 -0.4542  0.1938 -0.1786
 3046SOL    HW112182   4.468   1.864   4.705  2.1606  0.3355  0.2459
 3046SOL    HW212183   4.419   1.923   4.836  1.4004  1.0828 -0.3670
 3046SOL     MW12184   4.449   1.855   4.790  0.1473  0.3325 -0.1468
 3047SOL     OW12185   5.520   1.988   2.961 -0.1767 -0.0169 -0.1457
 3047SOL    HW112186   5.437   1.975   3.008 -0.9081 -0.9229 -1.6007
 3047SOL    HW212187   5.493   2.018   2.874  1.0489  0.0692 -0.5085
 3047SOL     MW12188   5.505   1.990   2.956 -0.1102 -0.1272 -0.3903
 3048SOL     OW12189   2.785   1.215   4.302  0.2153 -0.3238 -0.2339
 3048SOL    HW112190   2.692   1.201   4.321  0.3377  1.1397  1.8351
 3048SOL    HW212191   2.830   1.185   4.381  1.3955  0.1015 -0.7295
 3048SOL     MW12192   2.778   1.209   4.315  0.3906 -0.0696 -0.0221
 3049SOL     OW12193   1.567   4.501   3.422 -0.1332 -0.1263  0.6820
 3049SOL    HW112194   1.625   4.552   3.479  1.3616  1.7041 -2.2079
 3049SOL    HW212195   1.625   4.443   3.374 -1.0369 -0.2286 -0.3358
 3049SOL     MW12196   1.583   4.500   3.423 -0.0537  0.1062  0.1561
 3050SOL     OW12197   4.101   2.350   2.396 -0.4510  0.5535 -0.5812
 3050SOL    HW112198   4.126   2.391   2.479 -1.5860 -1.5835  0.9299
 3050SOL    HW212199   4.009   2.327   2.408 -0.5328 -0.1518 -2.3066
 3050SOL     MW12200   4.092   2.352   2.409 -0.6148  0.1710 -0.6101
 3051SOL     OW12201   0.153   0.727   2.655 -0.1523  0.5250 -0.4153
 3051SOL    HW112202   0.132   0.772   2.737 -0.3858  1.4834 -0.9825
 3051SOL    HW212203   0.097   0.650   2.655  0.5775 -0.0336  0.7874
 3051SOL     MW12204   0.142   0.723   2.666 -0.0855  0.5788 -0.3298
 3052SOL     OW12205   4.297   4.181   1.513 -0.5722  0.3300  0.0160
 3052SOL    HW112206   4.380   4.196   1.468 -0.9865  0.9336 -0.5635
 3052SOL    HW212207   4.323   4.149   1.600  0.2818  1.1683  0.0887
 3052SOL     MW12208   4.312   4.179   1.519 -0.5130  0.5241 -0.0523
 3053SOL     OW12209   5.320   0.052   1.224  0.3080  0.2009 -0.1190
 3053SOL    HW112210   5.374   0.108   1.279  0.3769 -0.3646  0.4083
 3053SOL    HW212211   5.382  -0.011   1.185  0.2208  0.4207 -0.6236
 3053SOL     MW12212   5.335   0.051   1.226  0.3055  0.1544 -0.1160
 3054SOL     OW12213   3.102   1.666   1.827 -0.0649 -0.2751 -0.4622
 3054SOL    HW112214   3.067   1.730   1.888 -1.1505 -0.2259 -1.1122
 3054SOL    HW212215   3.118   1.588   1.880  1.1745  0.4902  0.3125
 3054SOL     MW12216   3.099   1.664   1.842 -0.0442 -0.1655 -0.4454
 3055SOL     OW12217   1.212   2.377   4.160  0.2826  0.0924 -0.6936
 3055SOL    HW112218   1.183   2.467   4.144  1.1769  0.2913 -1.2086
 3055SOL    HW212219   1.256   2.351   4.079  0.6793 -0.5485 -0.2762
 3055SOL     MW12220   1.214   2.386   4.147  0.4563  0.0330 -0.7068
 3056SOL     OW12221   0.887   2.512   3.910  0.3396 -0.4897  0.4055
 3056SOL    HW112222   0.921   2.530   3.822  2.3473 -1.0289  1.0109
 3056SOL    HW212223   0.826   2.440   3.898 -0.2695  0.1725 -0.6759
 3056SOL     MW12224   0.883   2.505   3.896  0.5278 -0.4732  0.3415
 3057SOL     OW12225   4.957   5.181   2.980 -0.1209 -0.3433  0.5702
 3057SOL    HW112226   5.023   5.151   3.043  0.8222  1.1388  0.3175
 3057SOL    HW212227   5.000   5.250   2.930 -1.0485 -1.0455 -1.3158
 3057SOL     MW12228   4.972   5.186   2.982 -0.1188 -0.2384  0.2824
 3058SOL     OW12229   3.067   3.552   1.737 -0.0790  0.2676 -0.0156
 3058SOL    HW112230   2.993   3.523   1.684 -1.1655  0.3555  1.3988
 3058SOL    HW212231   3.037   3.632   1.780  0.9687  0.5096  0.3161
 3058SOL     MW12232   3.053   3.559   1.736 -0.0843  0.3120  0.2194
 3059SOL     OW12233   2.986   5.089   2.706  0.0823  0.1385  0.3558
 3059SOL    HW112234   2.976   5.141   2.786  0.8780 -0.7014  1.0166
 3059SOL    HW212235   2.952   5.003   2.728  1.0707 -0.3441  0.0604
 3059SOL     MW12236   2.980   5.084   2.720  0.3224 -0.0395  0.4050
 3060SOL     OW12237   2.484   4.095   3.702 -0.2905  0.4940  0.2720
 3060SOL    HW112238   2.533   4.151   3.762  1.0321  1.5189 -1.6701
 3060SOL    HW212239   2.422   4.155   3.660 -1.7640 -0.3725  1.1110
 3060SOL     MW12240   2.482   4.111   3.705 -0.3108  0.5153  0.1235
 3061SOL     OW12241   0.130   3.272   3.746  0.8437  0.4026  0.2323
 3061SOL    HW112242   0.199   3.208   3.766  0.7105  0.2500  0.2034
 3061SOL    HW212243   0.083   3.234   3.672  0.7751  0.5441  0.2035
 3061SOL     MW12244   0.133   3.258   3.739  0.8166  0.4011  0.2245
 3062SOL     OW12245   3.675   1.953   5.163 -0.6991  0.2197 -0.7162
 3062SOL    HW112246   3.652   2.044   5.176 -0.5128  0.3949 -1.5121
 3062SOL    HW212247   3.723   1.952   5.079  2.4614 -0.0706  0.9332
 3062SOL     MW12248   3.679   1.965   5.153 -0.2487  0.2042 -0.6013
 3063SOL     OW12249   3.864   0.827   3.716 -0.2692 -0.2599  0.0956
 3063SOL    HW112250   3.840   0.909   3.759 -2.2218  0.9631 -3.0106
 3063SOL    HW212251   3.808   0.761   3.758 -0.5959  0.4601  0.8303
 3063SOL     MW12252   3.853   0.829   3.728 -0.5760  0.0015 -0.2236
 3064SOL     OW12253   3.011   2.202   0.308 -0.0429 -0.7598 -0.1648
 3064SOL    HW112254   2.942   2.140   0.328 -0.4292  0.2018  1.7299
 3064SOL    HW212255   3.011   2.263   0.382  1.2100  0.7019 -1.2923
 3064SOL     MW12256   3.002   2.202   0.321  0.0737 -0.4337 -0.0615
 3065SOL     OW12257   0.474   5.023   2.061  0.2113 -0.3179 -0.0892
 3065SOL    HW112258   0.436   5.079   2.129 -0.3562 -2.1004  1.1531
 3065SOL    HW212259   0.565   5.010   2.088  0.0019 -0.9773  0.3429
 3065SOL     MW12260   0.481   5.029   2.074  0.1068 -0.6465  0.1361
 3066SOL     OW12261   4.117   2.919   4.666 -0.1255  0.0729  0.4118
 3066SOL    HW112262   4.117   2.937   4.760  0.7611 -0.3050  0.4925
 3066SOL    HW212263   4.207   2.937   4.638 -0.5665  0.9126 -0.5175
 3066SOL     MW12264   4.129   2.924   4.675 -0.0655  0.1351  0.2976
 3067SOL     OW12265   4.989   3.140   1.212 -0.4698  0.0433  0.2289
 3067SOL    HW112266   5.018   3.205   1.149  0.0871 -0.4455 -0.0339
 3067SOL    HW212267   5.015   3.056   1.173  0.7584 -0.2156  1.5449
 3067SOL     MW12268   4.996   3.137   1.198 -0.2296 -0.0573  0.3706
 3068SOL     OW12269   0.448   2.131   4.762 -0.3242 -0.3767  0.0476
 3068SOL    HW112270   0.469   2.042   4.732  1.8454  0.0008  0.2364
 3068SOL    HW212271   0.438   2.123   4.856  0.2522 -0.3850  0.1145
 3068SOL     MW12272   0.450   2.118   4.770  0.0454 -0.3270  0.0820
 3069SOL     OW12273   3.134   1.632   3.266 -0.1653  0.3524  0.1114
 3069SOL    HW112274   3.135   1.724   3.240  0.0102  0.1084 -0.7682
 3069SOL    HW212275   3.054   1.597   3.228 -2.0819  0.9067  3.2904
 3069SOL     MW12276   3.123   1.640   3.258 -0.3996  0.3942  0.4208
 3070SOL     OW12277   0.968   1.719   1.832  0.0671  0.2328  0.4645
 3070SOL    HW112278   0.942   1.626   1.832 -2.1068  0.7711 -0.5518
 3070SOL    HW212279   0.933   1.754   1.914  0.4646  0.2686  0.6206
 3070SOL     MW12280   0.959   1.711   1.843 -0.1720  0.3101  0.3487
 3071SOL     OW12281   1.270   2.295   2.927 -0.1844  0.6514  0.0252
 3071SOL    HW112282   1.350   2.346   2.934  0.5949 -0.6827  1.1223
 3071SOL    HW212283   1.299   2.204   2.924 -1.6284  0.1719 -0.3225
 3071SOL     MW12284   1.284   2.289   2.927 -0.2738  0.4073  0.1261
 3072SOL     OW12285   3.708   0.968   2.955 -0.0858 -0.2830 -0.4800
 3072SOL    HW112286   3.696   0.885   3.001  1.3126  0.4413  1.3115
 3072SOL    HW212287   3.722   0.944   2.863 -0.8498 -1.9212 -0.1884
 3072SOL     MW12288   3.708   0.954   2.949 -0.0004 -0.4060 -0.1997
 3073SOL     OW12289   0.628   2.638   1.421  0.6519  0.2281  0.5477
 3073SOL    HW112290   0.591   2.559   1.460 -1.3202  0.7591 -0.1084
 3073SOL    HW212291   0.633   2.701   1.493  1.5971 -0.2641  0.9276
 3073SOL     MW12292   0.624   2.636   1.436  0.5137  0.2333  0.5105
 3074SOL     OW12293   1.603   0.129   1.639 -0.4056  0.4033  0.0090
 3074SOL    HW112294   1.684   0.158   1.681  0.5208 -1.4083 -0.4574
 3074SOL    HW212295   1.542   0.117   1.711  0.4251 -0.3455  0.6081
 3074SOL     MW12296   1.606   0.131   1.655 -0.1691  0.0587  0.0269
 3075SOL     OW12297   0.895   2.110   1.643  0.1054  0.2495 -0.0876
 3075SOL    HW112298   0.850   2.191   1.617 -0.8542  0.2507  1.4710
 3075SOL    HW212299   0.883   2.105   1.738  0.9799 -1.2416 -0.0244
 3075SOL     MW12300   0.887   2.120   1.652  0.0940  0.0490  0.1307
 3076SOL     OW12301   2.639   1.260   3.456 -0.1011 -0.0473  0.1752
 3076SOL    HW112302   2.620   1.174   3.417 -0.8420  0.3294 -0.3157
 3076SOL    HW212303   2.677   1.311   3.384 -0.4486  0.2960  0.2301
 3076SOL     MW12304   2.641   1.255   3.441 -0.2475  0.0496  0.1165
 3077SOL     OW12305   5.194   1.194   0.812 -0.4921 -0.2232  0.5407
 3077SOL    HW112306   5.209   1.208   0.718 -0.5688  0.9912  0.7047
 3077SOL    HW212307   5.143   1.112   0.815 -0.2092 -0.4564 -0.4515
 3077SOL     MW12308   5.189   1.185   0.799 -0.4644 -0.0912  0.4292
 3078SOL     OW12309   0.658   3.201   2.134 -0.0548 -0.3936  0.2613
 3078SOL    HW112310   0.680   3.135   2.200  1.9788 -0.8505 -0.8151
 3078SOL    HW212311   0.715   3.276   2.155  0.6683 -0.5742 -0.9931
 3078SOL     MW12312   0.669   3.202   2.146  0.3162 -0.4794 -0.0524
 3079SOL     OW12313   1.634   0.153   1.158 -0.4154  0.1385  0.2672
 3079SOL    HW112314   1.638   0.057   1.160  0.0006  0.1156 -0.9810
 3079SOL    HW212315   1.562   0.175   1.217 -0.6037 -0.9465  0.4683
 3079SOL     MW12316   1.625   0.143   1.167 -0.3847 -0.0106  0.1262
 3080SOL     OW12317   1.414   4.909   3.879 -0.0859 -0.1672 -0.0903
 3080SOL    HW112318   1.416   4.859   3.960 -0.2821  0.0958  0.0834
 3080SOL    HW212319   1.330   4.957   3.883  0.1094  0.1928 -0.2353
 3080SOL     MW12320   1.403   4.909   3.890 -0.0860 -0.0833 -0.0865
 3081SOL     OW12321   4.176   2.445   2.139  0.1909  0.7073 -0.1278
 3081SOL    HW112322   4.271   2.440   2.152  0.3563  0.2271 -1.3333
 3081SOL    HW212323   4.139   2.413   2.221  1.0933 -0.2146 -0.0529
 3081SOL     MW12324   4.184   2.440   2.152  0.3346  0.5186 -0.2800
 3082SOL     OW12325   2.995   4.751   3.864 -0.4616  0.1599  0.1072
 3082SOL    HW112326   3.038   4.682   3.914  0.7289  1.1806  0.5465
 3082SOL    HW212327   2.910   4.714   3.840  0.4520 -1.7385 -0.3777
 3082SOL     MW12328   2.989   4.737   3.868 -0.1784  0.0418  0.1010
 3083SOL     OW12329   4.816   4.795   0.076  0.5860 -0.1963  0.4738
 3083SOL    HW112330   4.876   4.798   0.150 -0.0184 -0.3415  0.9811
 3083SOL    HW212331   4.774   4.709   0.083 -0.3347  0.2553  0.6678
 3083SOL     MW12332   4.818   4.784   0.087  0.3808 -0.1550  0.5682
 3084SOL     OW12333   2.581   2.627   4.311  0.0324 -0.2002  0.9254
 3084SOL    HW112334   2.623   2.705   4.348  1.8619 -0.3301 -0.7440
 3084SOL    HW212335   2.491   2.653   4.295  0.4386  1.3575  1.0536
 3084SOL     MW12336   2.575   2.641   4.314  0.3333 -0.0080  0.7180
 3085SOL     OW12337   1.246   3.002   1.561  0.0587 -0.3722 -0.1267
 3085SOL    HW112338   1.210   2.977   1.476  2.4031 -0.4977 -1.1648
 3085SOL    HW212339   1.197   3.080   1.586 -0.3452 -0.0109 -1.8670
 3085SOL     MW12340   1.235   3.009   1.553  0.3198 -0.3405 -0.5006
 3086SOL     OW12341   2.348   1.890   1.142  0.7549  0.5460 -0.9491
 3086SOL    HW112342   2.357   1.798   1.168 -1.5017  0.5646  0.1285
 3086SOL    HW212343   2.254   1.904   1.135  0.9209  3.3043  0.9049
 3086SOL     MW12344   2.337   1.879   1.144  0.4736  0.9197 -0.5546
 3087SOL     OW12345   2.863   4.141   1.322 -0.7182 -0.4621 -0.5195
 3087SOL    HW112346   2.902   4.063   1.362 -1.1657 -1.7260 -2.4127
 3087SOL    HW212347   2.768   4.126   1.330 -0.8178  0.4747  0.1518
 3087SOL     MW12348   2.855   4.128   1.329 -0.7919 -0.5061 -0.6839
 3088SOL     OW12349   4.157   4.437   4.268  0.0020 -0.3024  0.0476
 3088SOL    HW112350   4.189   4.525   4.290 -0.1206  0.0105 -0.9608
 3088SOL    HW212351   4.195   4.418   4.182 -2.2090 -0.0267 -1.0894
 3088SOL     MW12352   4.166   4.447   4.259 -0.3121 -0.2232 -0.2411
 3089SOL     OW12353   0.885   4.838   2.064 -0.0381  0.1622 -0.6292
 3089SOL    HW112354   0.872   4.752   2.103  1.3286 -1.3048 -3.1290
 3089SOL    HW212355   0.970   4.867   2.098  0.1919 -0.1697 -0.9124
 3089SOL     MW12356   0.895   4.831   2.074  0.1767 -0.0799 -1.0037
 3090SOL     OW12357   0.214   4.495   0.501 -0.0532 -0.0013  0.2333
 3090SOL    HW112358   0.248   4.551   0.431 -1.9713  2.2990  1.0003
 3090SOL    HW212359   0.234   4.406   0.472  3.4081  1.0120 -0.9032
 3090SOL     MW12360   0.221   4.490   0.487  0.1545  0.4447  0.1835
 3091SOL     OW12361   4.682   4.248   0.988 -0.3695  0.0250  0.5509
 3091SOL    HW112362   4.726   4.321   1.031 -0.9679  1.4870 -1.1868
 3091SOL    HW212363   4.590   4.274   0.986 -0.4322 -0.2215 -1.0819
 3091SOL     MW12364   4.675   4.262   0.993 -0.4585  0.1885  0.0973
 3092SOL     OW12365   2.698   3.286   2.975  0.4862  0.1367  0.2966
 3092SOL    HW112366   2.633   3.250   2.914  1.3707 -1.7256  0.3551
 3092SOL    HW212367   2.681   3.240   3.057  1.0552  0.5769  0.6612
 3092SOL     MW12368   2.687   3.275   2.978  0.6818 -0.0547  0.3535
 3093SOL     OW12369   0.345   3.580   1.125  0.1950  0.3147  0.2619
 3093SOL    HW112370   0.293   3.500   1.138  0.5158 -0.6094 -3.0684
 3093SOL    HW212371   0.435   3.552   1.142  0.2586  0.0346 -0.4736
 3093SOL     MW12372   0.350   3.565   1.129  0.2468  0.1527 -0.2853
 3094SOL     OW12373   4.345   4.759   3.988 -0.8007  0.6073  0.0645
 3094SOL    HW112374   4.395   4.797   3.917 -0.4579 -0.4152 -0.2503
 3094SOL    HW212375   4.260   4.805   3.985 -0.2405  1.6687  0.0120
 3094SOL     MW12376   4.340   4.771   3.978 -0.6792  0.6125  0.0151
 3095SOL     OW12377   4.090   5.250   4.965 -0.3785 -0.4905 -0.2489
 3095SOL    HW112378   4.022   5.240   4.898  0.8590  2.3039 -2.1251
 3095SOL    HW212379   4.162   5.196   4.933 -0.5654 -0.8766 -0.0139
 3095SOL     MW12380   4.090   5.242   4.951 -0.2371 -0.1664 -0.4697
 3096SOL     OW12381   4.961   3.021   4.790 -0.1713 -0.4636 -0.5749
 3096SOL    HW112382   4.983   3.027   4.883  0.1851 -0.0492 -0.6838
 3096SOL    HW212383   4.866   3.016   4.788 -0.1794 -0.5057 -0.1861
 3096SOL     MW12384   4.951   3.021   4.803 -0.1244 -0.4135 -0.5372
 3097SOL     OW12385   2.662   2.996   5.045  0.3095 -0.4617 -0.0859
 3097SOL    HW112386   2.586   3.000   4.987  0.6791  0.9453 -0.5112
 3097SOL    HW212387   2.637   2.932   5.112 -0.8644 -0.7348 -0.7452
 3097SOL     MW12388   2.648   2.988   5.047  0.2013 -0.3091 -0.2319
 3098SOL     OW12389   1.082   0.098   3.354  0.7312 -0.0582 -0.2127
 3098SOL    HW112390   1.010   0.101   3.292 -0.2118  2.6724  0.8595
 3098SOL    HW212391   1.155   0.141   3.309  1.7796 -2.6705 -1.2349
 3098SOL     MW12392   1.082   0.104   3.340  0.7454 -0.0423 -0.2060
 3099SOL     OW12393   1.778   4.603   2.091 -0.6002  0.0205 -0.0712
 3099SOL    HW112394   1.756   4.695   2.077  0.2846  0.0337 -1.6603
 3099SOL    HW212395   1.776   4.591   2.186  0.0198  1.8598  0.2039
 3099SOL     MW12396   1.775   4.614   2.102 -0.3977  0.2698 -0.2480
 3100SOL     OW12397   3.455   1.984   0.176  0.1179  0.1454 -0.2410
 3100SOL    HW112398   3.430   2.072   0.204  0.9146  0.1069  0.6390
 3100SOL    HW212399   3.526   1.997   0.113 -0.9622  0.1832 -1.5120
 3100SOL     MW12400   3.461   1.997   0.171  0.0798  0.1453 -0.2936
 3101SOL     OW12401   3.080   3.723   0.934 -0.0874  0.1827  0.2745
 3101SOL    HW112402   3.136   3.800   0.940  1.1722 -0.6000 -0.8006
 3101SOL    HW212403   3.042   3.728   0.846 -2.1515  0.9484  1.1390
 3101SOL     MW12404   3.082   3.734   0.923 -0.1957  0.1804  0.2462
 3102SOL     OW12405   2.410   3.122   3.319  0.4768  0.3049 -0.0864
 3102SOL    HW112406   2.382   3.037   3.285  0.5216 -0.8339  2.4593
 3102SOL    HW212407   2.345   3.184   3.285  0.7447 -0.6154 -2.4230
 3102SOL     MW12408   2.397   3.119   3.310  0.5189  0.0278 -0.0583
 3103SOL     OW12409   0.499   4.200   0.483  0.1488  0.0781 -0.0800
 3103SOL    HW112410   0.405   4.216   0.475 -0.2752 -1.2836  1.5741
 3103SOL    HW212411   0.507   4.105   0.472  1.3091  0.1600 -0.0118
 3103SOL     MW12412   0.487   4.189   0.480  0.2479 -0.0942  0.1518
 3104SOL     OW12413   3.551   0.875   0.574  0.1047 -0.0434  0.5343
 3104SOL    HW112414   3.610   0.878   0.499 -0.5990 -1.4290 -0.1154
 3104SOL    HW212415   3.499   0.954   0.567 -0.0595 -0.2356 -0.5490
 3104SOL     MW12416   3.552   0.886   0.563 -0.0121 -0.2557  0.3011
 3105SOL     OW12417   1.070   0.023   2.599  0.0231  0.1217  0.2471
 3105SOL    HW112418   1.117  -0.011   2.675 -0.2530  1.9220  1.2870
 3105SOL    HW212419   0.997   0.073   2.636  0.3431  1.7194 -1.1686
 3105SOL     MW12420   1.066   0.025   2.614  0.0290  0.5790  0.1966
 3106SOL     OW12421   3.844   5.108   2.599  0.0411  0.0521 -0.4527
 3106SOL    HW112422   3.821   5.077   2.686  1.5974  0.5788  0.1767
 3106SOL    HW212423   3.800   5.047   2.539  0.1382 -1.1997  0.7104
 3106SOL     MW12424   3.835   5.095   2.603  0.2636 -0.0455 -0.2114
 3107SOL     OW12425   2.826   1.922   1.522 -0.4649 -0.1386  0.3407
 3107SOL    HW112426   2.848   2.014   1.506 -0.0657  0.1067  2.1195
 3107SOL    HW212427   2.761   1.924   1.593 -1.5722 -1.1781 -0.5961
 3107SOL     MW12428   2.820   1.935   1.529 -0.5602 -0.2455  0.4540
 3108SOL     OW12429   5.348   0.972   5.201 -0.3167  0.2837 -0.4409
 3108SOL    HW112430   5.341   1.012   5.114  0.9627 -1.3722 -1.3822
 3108SOL    HW212431   5.439   0.987   5.227 -0.3877 -0.2154  0.1071
 3108SOL     MW12432   5.359   0.979   5.193 -0.1541 -0.0063 -0.4939
 3109SOL     OW12433   2.178   3.671   2.622 -0.1801 -0.3229 -0.8089
 3109SOL    HW112434   2.256   3.667   2.678  1.2670 -1.4749 -2.7459
 3109SOL    HW212435   2.118   3.608   2.660 -0.5317  1.0938  1.1355
 3109SOL     MW12436   2.181   3.662   2.635 -0.0326 -0.2873 -0.8079
 3110SOL     OW12437   2.464   4.055   0.487 -0.1221 -0.0220 -0.1844
 3110SOL    HW112438   2.521   3.990   0.444  0.0327  1.0571 -1.6785
 3110SOL    HW212439   2.376   4.019   0.477 -0.0140 -0.1358 -0.7579
 3110SOL     MW12440   2.460   4.041   0.480 -0.0867  0.1079 -0.4626
 3111SOL     OW12441   2.273   2.621   3.909  0.2966 -0.0950  0.3349
 3111SOL    HW112442   2.366   2.612   3.886  0.4061 -0.5350  0.9228
 3111SOL    HW212443   2.247   2.705   3.872  0.4948 -0.7104 -1.2863
 3111SOL     MW12444   2.282   2.631   3.901  0.3380 -0.2370  0.1958
 3112SOL     OW12445   5.212   2.388   3.540  0.2435  0.3450 -0.0575
 3112SOL    HW112446   5.297   2.358   3.505  1.9174  1.3868  2.7619
 3112SOL    HW212447   5.200   2.475   3.501  1.0710  0.6666  0.3707
 3112SOL     MW12448   5.222   2.396   3.530  0.5802  0.5285  0.3796
 3113SOL     OW12449   4.582   5.470   4.201  0.2036  0.0175 -0.5381
 3113SOL    HW112450   4.665   5.472   4.250  0.3450  2.6876 -0.7373
 3113SOL    HW212451   4.606   5.499   4.113 -0.7274 -0.6395 -1.0178
 3113SOL     MW12452   4.597   5.474   4.196  0.0973  0.2884 -0.6295
 3114SOL     OW12453   0.102   3.399   4.408  0.0294  0.2348 -0.7161
 3114SOL    HW112454   0.162   3.467   4.440 -0.5823  1.6226 -2.3440
 3114SOL    HW212455   0.032   3.396   4.473 -0.4488  1.9392 -1.0873
 3114SOL     MW12456   0.101   3.408   4.421 -0.1173  0.6509 -0.9851
 3115SOL     OW12457   2.886   2.622   1.881  0.0952 -0.4239  0.1004
 3115SOL    HW112458   2.811   2.564   1.872 -0.3738 -0.1661  1.9932
 3115SOL    HW212459   2.962   2.564   1.876 -0.3426 -1.1298  1.1872
 3115SOL     MW12460   2.886   2.606   1.879 -0.0268 -0.4842  0.5014
 3116SOL     OW12461   3.917   2.936   0.353  0.3254  0.0102 -0.9550
 3116SOL    HW112462   3.978   2.877   0.307 -0.0029 -0.5495 -0.6766
 3116SOL    HW212463   3.969   3.014   0.370  0.4931  0.1883 -2.1759
 3116SOL     MW12464   3.932   2.938   0.349  0.3038 -0.0412 -1.0819
 3117SOL     OW12465   3.490   4.779   1.468  0.3079  0.2758  0.1819
 3117SOL    HW112466   3.502   4.705   1.527 -2.1858  0.1865  0.6865
 3117SOL    HW212467   3.444   4.844   1.520  0.5788  1.3483 -0.8730
 3117SOL     MW12468   3.485   4.778   1.483  0.0087  0.4081  0.1079
 3118SOL     OW12469   4.069   4.760   0.311 -0.3696  0.5257 -0.5368
 3118SOL    HW112470   4.110   4.739   0.227 -0.5457  0.1573 -0.5298
 3118SOL    HW212471   3.975   4.752   0.295 -0.3947  0.2691 -0.2535
 3118SOL     MW12472   4.062   4.756   0.297 -0.3967  0.4416 -0.4978
 3119SOL     OW12473   4.906   3.737   0.389  0.2284 -0.0960 -0.0864
 3119SOL    HW112474   4.997   3.767   0.386  0.5196 -1.0120 -0.8451
 3119SOL    HW212475   4.896   3.684   0.310 -1.5829  1.7352 -1.1686
 3119SOL     MW12476   4.917   3.734   0.378  0.0238  0.0271 -0.3341
 3120SOL     OW12477   1.152   4.091   5.149  0.5972 -0.5029 -0.4185
 3120SOL    HW112478   1.082   4.155   5.161  1.8628  1.2021 -1.6959
 3120SOL    HW212479   1.107   4.007   5.149 -1.3268  0.4619 -0.2560
 3120SOL     MW12480   1.136   4.088   5.151  0.5086 -0.1436 -0.5685
 3121SOL     OW12481   2.541   2.550   3.857 -0.1420 -0.2329 -0.0703
 3121SOL    HW112482   2.560   2.585   3.770 -0.7848  1.7612  0.5471
 3121SOL    HW212483   2.600   2.596   3.916 -0.6778 -0.5377  0.7241
 3121SOL     MW12484   2.551   2.561   3.853 -0.3006 -0.0056  0.1197
 3122SOL     OW12485   3.120   5.229   4.132 -0.2992  0.0535 -0.0511
 3122SOL    HW112486   3.158   5.158   4.080  1.1380 -0.0923  1.1372
 3122SOL    HW212487   3.132   5.202   4.223 -1.2795  1.0462  0.4018
 3122SOL     MW12488   3.126   5.216   4.137 -0.2377  0.1675  0.1698
 3123SOL     OW12489   1.468   1.894   0.465  0.1393 -0.4877 -0.2554
 3123SOL    HW112490   1.404   1.882   0.395 -0.0926 -0.4849 -0.0447
 3123SOL    HW212491   1.492   1.805   0.491 -1.1090 -0.5288  0.8756
 3123SOL     MW12492   1.463   1.881   0.459 -0.0599 -0.4928 -0.0749
 3124SOL     OW12493   3.373   0.801   4.704  0.1309  0.1525 -0.0294
 3124SOL    HW112494   3.286   0.765   4.721  0.9115 -0.8920  2.1515
 3124SOL    HW212495   3.395   0.849   4.784  1.4777  0.5926 -0.6248
 3124SOL     MW12496   3.364   0.803   4.717  0.4172  0.0711  0.1840
 3125SOL     OW12497   2.647   3.607   0.744 -0.2010  0.1491 -0.3122
 3125SOL    HW112498   2.631   3.611   0.650  2.0140 -0.7335 -0.8088
 3125SOL    HW212499   2.629   3.516   0.768  0.6975 -0.0133 -0.2174
 3125SOL     MW12500   2.643   3.595   0.735  0.2180  0.0085 -0.3663
 3126SOL     OW12501   3.458   5.251   1.561  0.4256  0.3148  0.1286
 3126SOL    HW112502   3.547   5.231   1.589  0.7550 -0.1255 -1.1451
 3126SOL    HW212503   3.470   5.309   1.485 -0.3037 -0.8934 -0.9631
 3126SOL     MW12504   3.472   5.256   1.554  0.3718  0.0930 -0.1898
 3127SOL     OW12505   4.545   0.831   1.749 -0.4002 -0.3550 -0.0555
 3127SOL    HW112506   4.553   0.785   1.833 -2.4963 -0.5378  0.0871
 3127SOL    HW212507   4.462   0.800   1.713 -0.6619  1.4719 -1.1189
 3127SOL     MW12508   4.535   0.820   1.756 -0.7175 -0.1337 -0.1795
 3128SOL     OW12509   4.371   3.858   3.033  0.1688  0.0069 -0.3948
 3128SOL    HW112510   4.295   3.828   3.081  1.4393 -0.9464  1.1010
 3128SOL    HW212511   4.418   3.915   3.094  0.2047  1.3844 -1.6194
 3128SOL     MW12512   4.367   3.862   3.048  0.3446  0.0640 -0.3583
 3129SOL     OW12513   1.346   3.397   4.586 -0.1904 -0.0383  0.1281
 3129SOL    HW112514   1.310   3.326   4.533  2.4685 -1.5843  0.2062
 3129SOL    HW212515   1.338   3.366   4.676  0.2897  0.0672  0.2121
 3129SOL     MW12516   1.340   3.383   4.591  0.2320 -0.2321  0.1499
 3130SOL     OW12517   3.094   5.330   0.063 -0.2511 -0.5717 -0.0200
 3130SOL    HW112518   3.081   5.307  -0.028 -0.3097  1.5359 -0.5972
 3130SOL    HW212519   3.014   5.377   0.088 -0.3425 -1.3346  1.1930
 3130SOL     MW12520   3.082   5.333   0.054 -0.2713 -0.3907  0.0656
 3131SOL     OW12521   0.986   0.950   2.354 -0.2291 -0.1916 -0.2027
 3131SOL    HW112522   0.933   0.942   2.433 -1.0598 -0.2163 -0.7499
 3131SOL    HW212523   1.042   1.026   2.370  0.8761 -1.2459  1.1162
 3131SOL     MW12524   0.986   0.959   2.366 -0.1922 -0.3368 -0.0988
 3132SOL     OW12525   3.469   3.814   4.988  0.3906  0.2362 -0.3484
 3132SOL    HW112526   3.554   3.849   4.961  2.2434 -2.1150  1.8933
 3132SOL    HW212527   3.460   3.733   4.939 -0.9577  0.8015 -1.0840
 3132SOL     MW12528   3.479   3.808   4.978  0.4585 -0.0041 -0.1457
 3133SOL     OW12529   3.878   4.179   1.721  0.0956 -0.0162  0.0955
 3133SOL    HW112530   3.893   4.274   1.722 -0.9179  0.2397 -2.4378
 3133SOL    HW212531   3.782   4.170   1.727  0.1905 -0.8927  0.4547
 3133SOL     MW12532   3.867   4.191   1.722 -0.0280 -0.0997 -0.1971
 3134SOL     OW12533   4.679   1.833   3.529 -0.1856  0.0567 -0.2550
 3134SOL    HW112534   4.636   1.899   3.475  1.0560  0.4565 -0.7898
 3134SOL    HW212535   4.666   1.751   3.482 -0.6449  0.1149 -0.2349
 3134SOL     MW12536   4.671   1.831   3.516 -0.0804  0.1184 -0.3243
 3135SOL     OW12537   4.426   0.427   3.287 -0.3209 -0.0162 -0.0587
 3135SOL    HW112538   4.377   0.479   3.351 -2.4903 -1.2377 -0.6468
 3135SOL    HW212539   4.467   0.358   3.339  1.1459  1.1914  0.4780
 3135SOL     MW12540   4.425   0.425   3.303 -0.4155 -0.0180 -0.0656
 3136SOL     OW12541   0.298   1.003   5.122  0.1612  0.2708  0.0950
 3136SOL    HW112542   0.224   1.022   5.180 -0.3648  1.8708 -1.0637
 3136SOL    HW212543   0.258   0.967   5.043  0.5349  1.7657 -0.7999
 3136SOL     MW12544   0.283   1.001   5.119  0.1407  0.6873 -0.1814
 3137SOL     OW12545   0.770   3.822   1.959 -0.2443  0.3768  0.3165
 3137SOL    HW112546   0.719   3.903   1.948  0.0179  0.5818  0.5959
 3137SOL    HW212547   0.860   3.849   1.943 -0.2919 -0.1448 -0.9812
 3137SOL     MW12548   0.775   3.837   1.955 -0.2154  0.3342  0.1794
 3138SOL     OW12549   0.781   4.181   3.729  0.3244  0.1564 -0.8702
 3138SOL    HW112550   0.687   4.179   3.708  0.4942 -0.1183 -1.6390
 3138SOL    HW212551   0.796   4.098   3.774  0.1572  0.2914 -0.5634
 3138SOL     MW12552   0.770   4.169   3.732  0.3248  0.1376 -0.9324
 3139SOL     OW12553   4.065   5.425   2.458 -0.1857  0.3515 -0.1539
 3139SOL    HW112554   4.090   5.333   2.471 -0.4888  0.1821 -0.7109
 3139SOL    HW212555   4.135   5.475   2.499 -0.6715 -0.1217  1.3206
 3139SOL     MW12556   4.078   5.419   2.465 -0.2919  0.2650 -0.0304
 3140SOL     OW12557   5.365   1.083   3.815 -0.0955  0.6193 -0.4996
 3140SOL    HW112558   5.277   1.089   3.852  0.2545 -0.7648  0.6476
 3140SOL    HW212559   5.384   0.990   3.814  1.4591  0.9145 -0.4938
 3140SOL     MW12560   5.356   1.072   3.820  0.1608  0.4727 -0.3445
 3141SOL     OW12561   1.845   2.695   1.398  0.4021  0.0051 -0.2904
 3141SOL    HW112562   1.800   2.755   1.339 -0.6503 -0.6152 -0.1527
 3141SOL    HW212563   1.876   2.750   1.469  1.3473  0.7005 -1.2177
 3141SOL     MW12564   1.843   2.710   1.400  0.3877  0.0152 -0.3967
 3142SOL     OW12565   3.739   5.413   1.228  0.3831  0.2313 -0.3412
 3142SOL    HW112566   3.653   5.401   1.269  0.9736  0.5789  1.0827
 3142SOL    HW212567   3.800   5.378   1.293  1.2865 -0.5599 -1.5963
 3142SOL     MW12568   3.735   5.406   1.242  0.5842  0.1716 -0.3185
 3143SOL     OW12569   5.061   0.228   0.371 -0.3109 -0.1131  0.4867
 3143SOL    HW112570   5.139   0.203   0.420 -1.6259 -0.3196  2.6015
 3143SOL    HW212571   5.028   0.146   0.335  1.6651  0.2495 -2.5246
 3143SOL     MW12572   5.067   0.214   0.372 -0.2220 -0.0921  0.3661
 3144SOL     OW12573   4.441   0.287   2.410 -0.1101 -0.4486  0.3769
 3144SOL    HW112574   4.439   0.248   2.498  1.1121  1.1536  1.1604
 3144SOL    HW212575   4.533   0.303   2.392 -0.3908 -0.1909 -0.9658
 3144SOL     MW12576   4.453   0.284   2.419  0.0166 -0.1983  0.3016
 3145SOL     OW12577   2.513   4.975   5.345  0.1509  0.2229 -0.1114
 3145SOL    HW112578   2.575   4.904   5.330  1.8532  1.6621 -0.2508
 3145SOL    HW212579   2.517   4.991   5.440  1.0099  1.1667 -0.2914
 3145SOL     MW12580   2.522   4.968   5.356  0.4956  0.5436 -0.1544
 3146SOL     OW12581   4.066   4.075   1.119  0.2105  0.5293  0.1611
 3146SOL    HW112582   4.089   4.027   1.198  0.7787 -2.3212 -1.6146
 3146SOL    HW212583   4.142   4.067   1.062 -1.1660  0.1228 -1.7251
 3146SOL     MW12584   4.079   4.068   1.122  0.1017  0.0910 -0.3317
 3147SOL     OW12585   4.392   1.116   0.528  0.1664 -0.4020  0.2460
 3147SOL    HW112586   4.404   1.033   0.573 -0.5045 -0.2228  0.7663
 3147SOL    HW212587   4.395   1.093   0.435  0.6277 -0.9072  0.3779
 3147SOL     MW12588   4.394   1.102   0.521  0.1382 -0.4459  0.3337
 3148SOL     OW12589   0.892   2.497   4.483 -0.0503 -0.0148 -0.1086
 3148SOL    HW112590   0.887   2.492   4.388 -0.1072 -0.1370 -0.1003
 3148SOL    HW212591   0.825   2.560   4.508  1.1511  1.3696 -0.2642
 3148SOL     MW12592   0.882   2.505   4.474  0.1037  0.1551 -0.1284
 3149SOL     OW12593   2.787   1.272   3.684 -0.1925 -0.1895 -0.3412
 3149SOL    HW112594   2.795   1.363   3.711  0.7628 -0.0522 -1.0511
 3149SOL    HW212595   2.726   1.274   3.610  0.0332 -0.0911 -0.5249
 3149SOL     MW12596   2.780   1.284   3.677 -0.0335 -0.1578 -0.4615
 3150SOL     OW12597   0.100   4.219   5.226 -0.1665  0.3465 -0.4214
 3150SOL    HW112598   0.028   4.218   5.163 -0.7830  1.8782  0.2164
 3150SOL    HW212599   0.101   4.130   5.262 -3.0351  0.7525  0.9383
 3150SOL     MW12600   0.090   4.207   5.222 -0.6355  0.6073 -0.1526
 3151SOL     OW12601   2.597   4.052   1.359  0.1660  0.0713  0.2092
 3151SOL    HW112602   2.623   3.976   1.306  0.9041  0.0522  0.5802
 3151SOL    HW212603   2.614   4.024   1.449 -1.2306  0.0449  0.4799
 3151SOL     MW12604   2.603   4.038   1.364  0.0774  0.0652  0.2956
 3152SOL     OW12605   1.603   0.564   2.731  0.0595  0.3839  0.3397
 3152SOL    HW112606   1.549   0.567   2.652 -0.2041 -1.2117  0.4332
 3152SOL    HW212607   1.692   0.580   2.699 -0.0912  0.1303 -0.2277
 3152SOL     MW12608   1.608   0.567   2.716  0.0037  0.1350  0.2759
 3153SOL     OW12609   4.794   2.739   3.651  0.2517  0.1913  0.1436
 3153SOL    HW112610   4.865   2.802   3.636  0.8208 -0.3642  0.4749
 3153SOL    HW212611   4.819   2.693   3.731 -0.5701  0.0995  0.3621
 3153SOL     MW12612   4.807   2.741   3.660  0.2177  0.1042  0.2176
 3154SOL     OW12613   2.544   5.344   4.470  0.5882 -0.0328  0.0987
 3154SOL    HW112614   2.628   5.298   4.463  1.0174  0.7872 -0.2089
 3154SOL    HW212615   2.481   5.284   4.430  1.0239 -0.6331  0.2832
 3154SOL     MW12616   2.547   5.330   4.464  0.7046 -0.0032  0.0821
 3155SOL     OW12617   5.288   4.196   2.978 -0.1110  0.2003 -0.1953
 3155SOL    HW112618   5.254   4.146   2.903  0.4817 -2.3416  1.1109
 3155SOL    HW212619   5.229   4.175   3.050  0.8614  0.4263  0.6898
 3155SOL     MW12620   5.276   4.186   2.978  0.0996 -0.1114  0.0996
 3156SOL     OW12621   4.013   2.372   5.464  0.0003  0.4722  0.7921
 3156SOL    HW112622   4.096   2.325   5.449 -1.9758 -2.5378 -2.1317
 3156SOL    HW212623   3.975   2.330   5.541  1.3203  2.2645  2.5097
 3156SOL     MW12624   4.019   2.360   5.472 -0.0880  0.3084  0.6297
 3157SOL     OW12625   1.164   4.441   3.328  0.3701 -0.1363 -0.0059
 3157SOL    HW112626   1.226   4.427   3.400  0.1716  0.2977  0.2534
 3157SOL    HW212627   1.139   4.353   3.301  0.7744 -0.3085  0.1715
 3157SOL     MW12628   1.169   4.427   3.334  0.3978 -0.1011  0.0529
 3158SOL     OW12629   0.475   4.527   4.101 -0.3360  0.1039 -0.4868
 3158SOL    HW112630   0.443   4.444   4.067  0.1579  0.3637 -1.6619
 3158SOL    HW212631   0.571   4.520   4.094 -0.2844  0.7055 -0.4415
 3158SOL     MW12632   0.484   4.515   4.095 -0.2626  0.2198 -0.6389
 3159SOL     OW12633   5.143   1.900   1.460  0.2408  0.2878 -0.1782
 3159SOL    HW112634   5.150   1.818   1.412  0.4371 -0.4635  1.0869
 3159SOL    HW212635   5.125   1.874   1.550  1.9223  1.5593  0.5939
 3159SOL     MW12636   5.141   1.886   1.465  0.4935  0.3578  0.0960
 3160SOL     OW12637   0.778   5.309   3.122  0.3158  0.3719  0.2571
 3160SOL    HW112638   0.760   5.390   3.074  1.9429 -0.2218 -1.5031
 3160SOL    HW212639   0.694   5.263   3.124  0.0928  0.5704 -1.8607
 3160SOL     MW12640   0.764   5.313   3.116  0.5048  0.3187 -0.2648
 3161SOL     OW12641   5.013   2.224   3.393  0.1737  0.5817  0.0136
 3161SOL    HW112642   5.008   2.132   3.368 -0.8970  0.5762  0.2137
 3161SOL    HW212643   5.084   2.260   3.339  0.9543 -0.4693  0.3099
 3161SOL     MW12644   5.022   2.217   3.382  0.1347  0.4395  0.0804
 3162SOL     OW12645   5.015   1.433   4.487 -0.1676  0.5676 -0.3744
 3162SOL    HW112646   4.959   1.365   4.450  1.5624 -1.1979  0.0957
 3162SOL    HW212647   5.084   1.446   4.423  0.1361  1.0746  0.0431
 3162SOL     MW12648   5.017   1.425   4.474  0.1061  0.3982 -0.2550
 3163SOL     OW12649   4.663   1.605   3.349  0.2602  0.1956  0.1689
 3163SOL    HW112650   4.720   1.530   3.334  0.3659  0.2150  0.4554
 3163SOL    HW212651   4.589   1.592   3.289  0.2953 -0.1168  0.1910
 3163SOL     MW12652   4.661   1.593   3.339  0.2792  0.1562  0.2104
 3164SOL     OW12653   4.274   1.155   2.918  0.3765 -0.5261 -0.4493
 3164SOL    HW112654   4.337   1.182   2.850 -0.6245  1.8507 -0.5340
 3164SOL    HW212655   4.190   1.189   2.887 -0.6032 -1.8500  0.6658
 3164SOL     MW12656   4.271   1.163   2.904  0.1100 -0.3844 -0.3106
 3165SOL     OW12657   3.104   4.914   2.404  0.3092  0.5877 -0.0349
 3165SOL    HW112658   3.132   4.863   2.480  0.1704 -1.1330 -1.0997
 3165SOL    HW212659   3.032   4.968   2.436 -0.4250 -0.8597  0.8257
 3165SOL     MW12660   3.098   4.915   2.418  0.1917  0.1613 -0.0624
 3166SOL     OW12661   3.855   2.165   1.010 -0.4428  0.2953  0.1540
 3166SOL    HW112662   3.911   2.093   0.982  0.0870  0.2398  1.2794
 3166SOL    HW212663   3.860   2.228   0.938 -1.1519 -0.8914 -0.9748
 3166SOL     MW12664   3.863   2.164   0.997 -0.4670  0.1281  0.1535
 3167SOL     OW12665   1.460   3.610   0.499  0.0569  0.2846  0.0772
 3167SOL    HW112666   1.421   3.691   0.465  0.7109  0.2379 -0.8144
 3167SOL    HW212667   1.485   3.561   0.421  2.5230  0.6307  0.5800
 3167SOL     MW12668   1.458   3.614   0.484  0.4768  0.3249  0.0249
 3168SOL     OW12669   1.895   3.660   1.209 -0.1285  0.4602 -0.1460
 3168SOL    HW112670   1.991   3.655   1.201 -0.1017  0.8858 -0.1336
 3168SOL    HW212671   1.865   3.571   1.197  0.3869  0.0506  1.3240
 3168SOL     MW12672   1.904   3.648   1.207 -0.0555  0.4623  0.0535
 3169SOL     OW12673   1.310   0.184   3.975  0.1285 -0.1619 -0.0127
 3169SOL    HW112674   1.229   0.149   3.938  0.4250  0.5396 -1.3892
 3169SOL    HW212675   1.377   0.162   3.911  0.4945  2.0003 -0.4570
 3169SOL     MW12676   1.308   0.176   3.961  0.2177  0.2235 -0.2577
 3170SOL     OW12677   2.576   4.179   5.033  0.0019  0.7946 -0.3625
 3170SOL    HW112678   2.551   4.272   5.041 -1.3324  0.3173  2.8387
 3170SOL    HW212679   2.504   4.139   4.984 -0.1681  1.2261 -0.4708
 3170SOL     MW12680   2.563   4.186   5.028 -0.2006  0.7885  0.0537
 3171SOL     OW12681   4.698   0.096   3.246 -0.4350 -0.2924 -0.2998
 3171SOL    HW112682   4.685   0.001   3.248 -0.5053 -0.3112 -1.2772
 3171SOL    HW212683   4.783   0.110   3.288 -0.7674 -0.7136  0.5376
 3171SOL     MW12684   4.708   0.085   3.252 -0.4892 -0.3516 -0.3186
 3172SOL     OW12685   4.993   5.287   0.848  0.5488  0.0650 -0.0991
 3172SOL    HW112686   4.953   5.207   0.883 -0.4381  1.1874  1.4960
 3172SOL    HW212687   4.968   5.355   0.910  2.0068  1.4949 -0.9957
 3172SOL     MW12688   4.984   5.285   0.861  0.6122  0.4085 -0.0051
 3173SOL     OW12689   2.225   0.089   2.354 -0.3669 -0.2009  0.4621
 3173SOL    HW112690   2.290   0.157   2.333  1.7048 -2.4658 -0.9999
 3173SOL    HW212691   2.169   0.130   2.420  1.0565  2.7292  0.0566
 3173SOL     MW12692   2.226   0.104   2.360  0.1035 -0.1113  0.2108
 3174SOL     OW12693   2.237   4.572   1.341  0.5276  0.0924 -0.2231
 3174SOL    HW112694   2.181   4.649   1.344  0.9758  0.5153 -1.8531
 3174SOL    HW212695   2.178   4.499   1.362 -0.2240  0.7029 -0.1485
 3174SOL     MW12696   2.222   4.573   1.344  0.4868  0.2314 -0.4324
 3175SOL     OW12697   4.096   0.856   3.022  0.5399 -0.1035 -0.7326
 3175SOL    HW112698   4.181   0.890   3.051  0.9898 -2.1289  0.5162
 3175SOL    HW212699   4.113   0.823   2.933  0.7974  0.3755 -0.8675
 3175SOL     MW12700   4.110   0.856   3.014  0.6351 -0.3116 -0.5827
 3176SOL     OW12701   3.359   3.531   3.013  0.3912 -0.7767 -0.3721
 3176SOL    HW112702   3.377   3.449   3.060  0.4638 -0.9953 -0.7763
 3176SOL    HW212703   3.342   3.504   2.923  1.7654 -0.2421 -0.8269
 3176SOL     MW12704   3.359   3.516   3.007  0.5859 -0.7342 -0.4877
 3177SOL     OW12705   0.462   4.956   1.789  0.2293 -0.1282  0.3199
 3177SOL    HW112706   0.478   4.968   1.883  1.1160 -1.5707  0.3772
 3177SOL    HW212707   0.367   4.945   1.783  0.1114  0.4024  0.9848
 3177SOL     MW12708   0.451   4.956   1.801  0.3327 -0.2509  0.4171
 3178SOL     OW12709   2.384   0.826   2.089 -0.0264 -0.2479  0.1525
 3178SOL    HW112710   2.407   0.868   2.006  1.0021 -0.0920  0.4930
 3178SOL    HW212711   2.398   0.733   2.074 -0.3625 -0.2721 -0.0089
 3178SOL     MW12712   2.389   0.819   2.076  0.0668 -0.2302  0.1766
 3179SOL     OW12713   4.704   4.378   3.165  0.2773  0.0741 -0.4489
 3179SOL    HW112714   4.774   4.341   3.112 -1.7135 -1.5063 -2.1634
 3179SOL    HW212715   4.708   4.331   3.248  0.5287 -0.8439 -0.9751
 3179SOL     MW12716   4.714   4.367   3.169  0.0432 -0.2621 -0.7505
 3180SOL     OW12717   2.926   1.246   5.228  0.2789 -0.2804  0.0416
 3180SOL    HW112718   2.833   1.264   5.246  0.1705  0.4822 -1.1737
 3180SOL    HW212719   2.959   1.208   5.309 -0.7567  0.7744  0.9965
 3180SOL     MW12720   2.918   1.244   5.241  0.1249 -0.0358  0.0065
 3181SOL     OW12721   4.198   1.768   2.238  0.2006  0.7209 -0.2100
 3181SOL    HW112722   4.157   1.719   2.166 -0.9741  0.1548  0.8012
 3181SOL    HW212723   4.291   1.749   2.229 -0.1139 -0.8951 -0.4862
 3181SOL     MW12724   4.205   1.759   2.227  0.0002  0.4272 -0.1111
 3182SOL     OW12725   4.335   2.136   0.662  0.0029 -0.5040 -0.2789
 3182SOL    HW112726   4.407   2.105   0.717  1.2951  2.4646 -0.1082
 3182SOL    HW212727   4.307   2.218   0.702 -0.9557  0.3083 -2.4275
 3182SOL     MW12728   4.341   2.143   0.674  0.0478  0.0049 -0.5451
 3183SOL     OW12729   4.796   4.896   0.530 -0.2608  0.2038 -0.4847
 3183SOL    HW112730   4.835   4.955   0.466  1.4855  0.1901  0.5265
 3183SOL    HW212731   4.755   4.954   0.594 -0.6560  0.2438 -0.7661
 3183SOL     MW12732   4.795   4.912   0.530 -0.0789  0.2073 -0.3865
 3184SOL     OW12733   4.318   2.905   4.086 -0.2439 -0.2732  0.0102
 3184SOL    HW112734   4.364   2.932   4.165  0.6707 -2.2397  0.2085
 3184SOL    HW212735   4.387   2.893   4.021 -0.1188 -4.4591  0.6437
 3184SOL     MW12736   4.333   2.907   4.088 -0.1040 -1.1012  0.1221
 3185SOL     OW12737   4.228   1.108   5.028 -0.1019  0.5974  0.9742
 3185SOL    HW112738   4.173   1.186   5.025 -1.3121 -0.2503 -0.1558
 3185SOL    HW212739   4.259   1.097   4.938 -0.3629 -0.4877  0.9988
 3185SOL     MW12740   4.225   1.117   5.016 -0.2999  0.3373  0.8254
 3186SOL     OW12741   5.299   4.892   5.242  0.0591  0.7340 -0.0076
 3186SOL    HW112742   5.209   4.924   5.245 -0.5479 -0.9706  0.6870
 3186SOL    HW212743   5.300   4.829   5.171  0.9441  1.3377 -0.5588
 3186SOL     MW12744   5.287   4.888   5.233  0.0965  0.5858  0.0117
 3187SOL     OW12745   3.298   4.176   4.097 -0.1353  0.2561  0.2614
 3187SOL    HW112746   3.209   4.202   4.073 -0.3580 -2.3580 -2.3791
 3187SOL    HW212747   3.287   4.092   4.142  0.8931  1.2092  2.4039
 3187SOL     MW12748   3.285   4.168   4.100 -0.0269  0.0326  0.1944
 3188SOL     OW12749   2.652   4.643   4.885  0.1812  0.6879 -0.2678
 3188SOL    HW112750   2.558   4.662   4.883  0.3212  1.7036  1.1688
 3188SOL    HW212751   2.687   4.704   4.949  1.9106  0.6286 -1.0965
 3188SOL     MW12752   2.644   4.654   4.893  0.4328  0.8166 -0.1860
 3189SOL     OW12753   3.821   3.284   2.469 -0.9185 -0.1683 -0.4485
 3189SOL    HW112754   3.893   3.348   2.467 -0.5880 -0.5292 -2.3147
 3189SOL    HW212755   3.751   3.329   2.517 -0.0778  0.9036 -0.1781
 3189SOL     MW12756   3.821   3.299   2.475 -0.7609 -0.0726 -0.6633
 3190SOL     OW12757   4.648   5.348   3.266 -0.2202  0.2677  0.3730
 3190SOL    HW112758   4.602   5.350   3.182 -0.8376  0.2410  0.7062
 3190SOL    HW212759   4.580   5.328   3.330  0.4372 -0.8885  0.7433
 3190SOL     MW12760   4.633   5.345   3.263 -0.2148  0.1085  0.4677
 3191SOL     OW12761   0.394   2.605   3.664 -0.3413 -0.1326 -0.1870
 3191SOL    HW112762   0.303   2.611   3.634 -0.2790  2.0706 -0.1147
 3191SOL    HW212763   0.446   2.636   3.590  0.2318  0.1366  0.3201
 3191SOL     MW12764   0.388   2.610   3.650 -0.2558  0.2002 -0.1090
 3192SOL     OW12765   1.150   0.571   2.062 -0.7066  0.4069 -0.0088
 3192SOL    HW112766   1.153   0.632   1.988 -1.5954  2.7944  1.7979
 3192SOL    HW212767   1.204   0.497   2.034  2.8432  3.1797 -1.3757
 3192SOL     MW12768   1.158   0.569   2.048 -0.3485  1.1014  0.0504
 3193SOL     OW12769   3.581   2.560   2.521  0.1069 -0.7507  0.1046
 3193SOL    HW112770   3.560   2.474   2.556 -1.7699  0.0681  1.1384
 3193SOL    HW212771   3.497   2.595   2.492  0.6455  1.1340  0.6704
 3193SOL     MW12772   3.567   2.553   2.522 -0.0732 -0.3869  0.3199
 3194SOL     OW12773   2.171   0.022   0.696 -0.5680  0.6759  0.1089
 3194SOL    HW112774   2.216   0.102   0.724 -1.1885  1.0516  0.0663
 3194SOL    HW212775   2.189  -0.041   0.765  0.1337  0.7733  0.0229
 3194SOL     MW12776   2.180   0.025   0.709 -0.5571  0.7395  0.0916
 3195SOL     OW12777   3.073   4.315   4.562  0.0065 -0.5167  0.0714
 3195SOL    HW112778   3.156   4.275   4.534 -0.1824 -1.1981  0.4516
 3195SOL    HW212779   3.037   4.252   4.625 -0.8565 -0.2821 -0.1791
 3195SOL     MW12780   3.080   4.301   4.567 -0.1350 -0.5768  0.0889
 3196SOL     OW12781   4.771   0.976   4.734 -0.0766  0.3483  0.5794
 3196SOL    HW112782   4.765   1.069   4.756 -1.1298  0.4234  0.0587
 3196SOL    HW212783   4.695   0.937   4.777  0.1894 -0.2257  0.5396
 3196SOL     MW12784   4.760   0.983   4.743 -0.1826  0.2812  0.5040
 3197SOL     OW12785   4.192   3.222   4.454  0.0969  0.2883 -0.1156
 3197SOL    HW112786   4.163   3.295   4.400 -1.3291  0.8948  1.3828
 3197SOL    HW212787   4.287   3.220   4.442  0.0827  1.9386 -0.7596
 3197SOL     MW12788   4.201   3.231   4.445 -0.0969  0.5920 -0.0006
 3198SOL     OW12789   4.283   2.614   3.612 -0.8253  0.3852  0.4478
 3198SOL    HW112790   4.215   2.558   3.573 -1.1399  0.9919  0.1099
 3198SOL    HW212791   4.350   2.620   3.543 -0.7649  0.3698  0.5058
 3198SOL     MW12792   4.283   2.607   3.597 -0.8595  0.4648  0.4101
 3199SOL     OW12793   2.421   3.620   2.782  0.4055 -0.0402  0.0897
 3199SOL    HW112794   2.407   3.548   2.844 -1.0371  0.5022  0.4364
 3199SOL    HW212795   2.413   3.699   2.835 -0.2439  0.4163 -0.6698
 3199SOL     MW12796   2.418   3.621   2.798  0.1239  0.0942  0.0342
 3200SOL     OW12797   5.419   0.213   1.419  0.6153 -0.3621 -0.0100
 3200SOL    HW112798   5.496   0.209   1.363  1.2825 -1.6455  0.9420
 3200SOL    HW212799   5.426   0.296   1.465  2.0970 -0.9656  0.9307
 3200SOL     MW12800   5.430   0.223   1.418  0.9045 -0.6161  0.2447
 3201SOL     OW12801   4.890   0.719   4.294 -0.5838  0.3467  0.0506
 3201SOL    HW112802   4.985   0.724   4.308 -0.6061 -1.2613  1.0619
 3201SOL    HW212803   4.853   0.764   4.369 -0.6126 -0.7484  0.7181
 3201SOL     MW12804   4.898   0.725   4.306 -0.5906 -0.0171  0.2765
 3202SOL     OW12805   0.074   3.223   3.002  0.5389  0.3812  0.3632
 3202SOL    HW112806   0.002   3.263   3.051  1.1612  2.0792 -0.0628
 3202SOL    HW212807   0.055   3.129   3.004 -1.4717  0.7593  0.5848
 3202SOL     MW12808   0.062   3.215   3.009  0.3521  0.6606  0.3357
 3203SOL     OW12809   4.436   2.943   4.336  0.1496  0.2329  0.2315
 3203SOL    HW112810   4.517   2.956   4.287 -0.0691  0.2574 -0.1274
 3203SOL    HW212811   4.436   2.849   4.356 -0.3848 -0.0512 -0.9557
 3203SOL     MW12812   4.447   2.932   4.332  0.0483  0.1980  0.0234
 3204SOL     OW12813   2.059   3.211   1.053  0.5314 -0.3037 -0.1023
 3204SOL    HW112814   1.974   3.241   1.021  2.0296  0.1783 -4.2144
 3204SOL    HW212815   2.108   3.291   1.072  1.1583 -0.4336 -1.1056
 3204SOL     MW12816   2.054   3.226   1.052  0.8174 -0.2563 -0.7908
 3205SOL     OW12817   2.468   3.583   5.257 -0.3337  0.5483 -0.3503
 3205SOL    HW112818   2.431   3.499   5.227 -0.4061  0.7655 -0.8797
 3205SOL    HW212819   2.547   3.558   5.305 -0.3868  0.1729 -0.4505
 3205SOL     MW12820   2.474   3.568   5.260 -0.3506  0.5270 -0.4350
 3206SOL     OW12821   0.274   0.104   3.841  0.0883 -0.3730  0.2276
 3206SOL    HW112822   0.186   0.090   3.876  0.0769 -1.6061 -0.2470
 3206SOL    HW212823   0.303   0.017   3.813  0.8659  0.2553 -1.0160
 3206SOL     MW12824   0.266   0.090   3.842  0.1914 -0.4544 -0.0037
 3207SOL     OW12825   4.944   4.959   2.833  0.4217  0.0063  0.1629
 3207SOL    HW112826   4.957   5.042   2.878  2.2879 -0.9409  1.5073
 3207SOL    HW212827   4.880   4.912   2.886  1.3359 -0.4303  0.9000
 3207SOL     MW12828   4.937   4.964   2.846  0.7959 -0.1799  0.4430
 3208SOL     OW12829   4.799   5.423   1.235  0.3238  0.2616  0.8582
 3208SOL    HW112830   4.818   5.330   1.225  0.4048  0.4291 -0.9075
 3208SOL    HW212831   4.850   5.466   1.166 -0.7584  1.4657  0.7635
 3208SOL     MW12832   4.808   5.417   1.224  0.1891  0.4462  0.6078
 3209SOL     OW12833   4.775   5.177   4.396  0.2156  0.1542  0.3500
 3209SOL    HW112834   4.780   5.083   4.415  0.8545 -0.1846 -1.2621
 3209SOL    HW212835   4.682   5.192   4.378  0.2205 -0.3482 -0.1332
 3209SOL     MW12836   4.763   5.166   4.396  0.3022  0.0410  0.0680
 3210SOL     OW12837   3.084   1.090   2.646  0.5390  0.4479 -0.2323
 3210SOL    HW112838   3.086   1.129   2.558  0.9000 -0.3396 -0.5858
 3210SOL    HW212839   3.136   1.011   2.638 -0.6426 -0.4162  0.3199
 3210SOL     MW12840   3.091   1.085   2.633  0.4286  0.2257 -0.2055
 3211SOL     OW12841   1.132   3.447   5.173 -0.0337  0.4100  0.1657
 3211SOL    HW112842   1.136   3.356   5.201 -0.4988 -0.0493 -1.1647
 3211SOL    HW212843   1.130   3.498   5.254  0.5508 -0.7380  0.9218
 3211SOL     MW12844   1.132   3.442   5.187 -0.0176  0.1937  0.0884
 3212SOL     OW12845  -0.022   3.717   4.270  0.3981  0.4116  0.3186
 3212SOL    HW112846   0.012   3.798   4.233  0.3960  0.1931 -0.1612
 3212SOL    HW212847   0.033   3.648   4.233 -0.5372  0.0579 -0.4514
 3212SOL     MW12848  -0.010   3.718   4.260  0.2720  0.3346  0.1504
 3213SOL     OW12849   2.104   3.469   0.717 -0.4160 -0.1888 -0.0972
 3213SOL    HW112850   2.155   3.390   0.738 -0.5533 -0.4845 -0.8482
 3213SOL    HW212851   2.035   3.470   0.784 -0.4307 -0.7277 -0.0952
 3213SOL     MW12852   2.101   3.458   0.729 -0.4364 -0.3011 -0.1980
 3214SOL     OW12853   3.082   5.134   1.721  0.3869  0.7429 -0.0414
 3214SOL    HW112854   3.159   5.166   1.767  0.2433  2.3573 -0.8725
 3214SOL    HW212855   3.112   5.115   1.632  0.3108 -0.8427  0.2366
 3214SOL     MW12856   3.096   5.136   1.715  0.3574  0.7468 -0.1158
 3215SOL     OW12857   1.687   1.114   3.265  0.0685  0.4102  0.0924
 3215SOL    HW112858   1.760   1.129   3.205 -0.1193  1.3534  0.0831
 3215SOL    HW212859   1.648   1.032   3.236  0.6083  0.3336 -0.4296
 3215SOL     MW12860   1.692   1.105   3.253  0.1159  0.5268  0.0209
 3216SOL     OW12861   0.048   1.713   1.377  0.1540  0.3634 -0.0668
 3216SOL    HW112862   0.045   1.806   1.403  0.4860  0.4937 -0.4858
 3216SOL    HW212863   0.138   1.686   1.396  0.4690  0.5223 -1.2647
 3216SOL     MW12864   0.060   1.722   1.383  0.2411  0.4023 -0.2844
 3217SOL     OW12865   1.213   2.421   1.296 -0.0718 -0.3189 -0.0314
 3217SOL    HW112866   1.211   2.360   1.222 -0.9491  0.7509 -0.9274
 3217SOL    HW212867   1.122   2.447   1.308  0.2417  0.5557  0.5431
 3217SOL     MW12868   1.200   2.416   1.288 -0.1477 -0.0572 -0.0747
 3218SOL     OW12869   2.568   0.910   1.654  0.0668  0.2761  0.3967
 3218SOL    HW112870   2.527   0.877   1.574  2.5952 -1.3978 -0.3082
 3218SOL    HW212871   2.599   0.997   1.631  0.1470  0.0868 -0.2332
 3218SOL     MW12872   2.566   0.917   1.640  0.4179  0.0254  0.2170
 3219SOL     OW12873   4.068   4.742   5.185 -0.0384  0.6938 -0.1309
 3219SOL    HW112874   4.010   4.666   5.194 -1.0254  1.6330  2.2321
 3219SOL    HW212875   4.009   4.815   5.170  0.4424  1.6252  2.0633
 3219SOL     MW12876   4.052   4.741   5.184 -0.1066  0.9456  0.4824
 3220SOL     OW12877   2.529   2.786   0.667  0.5539 -0.0737 -0.2951
 3220SOL    HW112878   2.512   2.716   0.730 -0.7157  0.8240  0.4042
 3220SOL    HW212879   2.478   2.761   0.590 -3.0578  1.7847  1.2193
 3220SOL     MW12880   2.520   2.773   0.665 -0.1030  0.2972  0.0028
 3221SOL     OW12881   4.544   2.075   3.469  0.3538  0.5128 -0.4205
 3221SOL    HW112882   4.452   2.093   3.491  0.2246 -1.3415  0.7990
 3221SOL    HW212883   4.542   2.053   3.376 -0.2531  1.5295 -0.6661
 3221SOL     MW12884   4.531   2.074   3.460  0.2547  0.4001 -0.2894
 3222SOL     OW12885   4.963   4.590   4.466  0.1590  0.3872 -0.0790
 3222SOL    HW112886   4.953   4.624   4.555  0.7059  2.1735 -0.6501
 3222SOL    HW212887   5.046   4.627   4.436 -0.4188  0.5010 -1.6038
 3222SOL     MW12888   4.972   4.600   4.474  0.1548  0.6429 -0.3611
 3223SOL     OW12889   0.398   4.763   2.071  0.1340  0.0282  0.4976
 3223SOL    HW112890   0.303   4.772   2.060  0.1040 -2.3164 -2.8058
 3223SOL    HW212891   0.430   4.853   2.074 -2.0768  0.9098  0.0291
 3223SOL     MW12892   0.389   4.777   2.070 -0.1676 -0.1687 -0.0100
 3224SOL     OW12893   3.212   1.496   2.812  0.0546  0.2391  0.3112
 3224SOL    HW112894   3.243   1.539   2.732  1.7662 -0.7522  0.3965
 3224SOL    HW212895   3.245   1.407   2.805 -0.0523  0.0447  1.9703
 3224SOL     MW12896   3.221   1.490   2.800  0.2705  0.0795  0.5459
 3225SOL     OW12897   2.401   0.554   2.085 -0.3394  0.0571  0.0406
 3225SOL    HW112898   2.496   0.560   2.082 -0.2765 -1.1989 -1.0939
 3225SOL    HW212899   2.381   0.537   2.178  0.6027 -0.6111  0.1322
 3225SOL     MW12900   2.411   0.553   2.097 -0.2041 -0.2018 -0.0998
 3226SOL     OW12901   4.685   4.540   5.281 -0.2833 -0.6344  0.7077
 3226SOL    HW112902   4.599   4.503   5.259 -1.0106  1.3771 -0.0191
 3226SOL    HW212903   4.731   4.545   5.198 -0.0749 -0.1866  0.8477
 3226SOL     MW12904   4.680   4.535   5.267 -0.3532 -0.3034  0.6287
 3227SOL     OW12905   2.823   0.401   2.212  0.1728 -0.2463  0.5855
 3227SOL    HW112906   2.907   0.402   2.167  0.1967  0.3627  0.6354
 3227SOL    HW212907   2.810   0.310   2.236  1.4193 -0.1704  1.6961
 3227SOL     MW12908   2.833   0.389   2.209  0.3438 -0.1541  0.7417
 3228SOL     OW12909   5.379   1.063   1.661  0.4871 -0.5888 -0.3666
 3228SOL    HW112910   5.296   1.042   1.618  0.7313 -0.1528 -1.0675
 3228SOL    HW212911   5.371   1.025   1.749 -1.0207  0.6967  0.0887
 3228SOL     MW12912   5.367   1.055   1.667  0.3170 -0.3571 -0.3997
 3229SOL     OW12913   4.049   0.180   3.506 -0.1102 -0.2958  0.1503
 3229SOL    HW112914   3.975   0.167   3.447 -0.3840 -2.3713  0.8804
 3229SOL    HW212915   4.124   0.146   3.457  0.2227  0.8479 -0.1767
 3229SOL     MW12916   4.049   0.174   3.491 -0.1023 -0.4212  0.2046
 3230SOL     OW12917   4.362   2.646   2.510  0.0146  0.5365 -0.0171
 3230SOL    HW112918   4.277   2.607   2.532 -0.1523 -0.1031 -1.6388
 3230SOL    HW212919   4.358   2.734   2.548 -1.0859  0.2710  0.5472
 3230SOL     MW12920   4.350   2.653   2.518 -0.1560  0.4147 -0.1594
 3231SOL     OW12921   0.616   0.458   0.658 -0.1386  0.0705  0.3230
 3231SOL    HW112922   0.635   0.510   0.580 -0.6269 -1.4898 -0.9066
 3231SOL    HW212923   0.569   0.382   0.624 -1.0306 -0.2827  2.2613
 3231SOL     MW12924   0.613   0.454   0.643 -0.3244 -0.1871  0.4184
 3232SOL     OW12925   3.347   5.488   3.734  0.2586 -0.1350  0.3737
 3232SOL    HW112926   3.296   5.565   3.708  0.2036 -0.0538  0.7224
 3232SOL    HW212927   3.427   5.494   3.682 -0.9795 -1.4301 -1.8713
 3232SOL     MW12928   3.351   5.499   3.723  0.0845 -0.2984  0.1185
 3233SOL     OW12929   1.839   4.589   2.350 -0.2195  0.2681  0.0702
 3233SOL    HW112930   1.835   4.677   2.388 -0.1601  1.1526 -1.8395
 3233SOL    HW212931   1.930   4.561   2.364  0.4781  1.6012 -1.5174
 3233SOL     MW12932   1.851   4.597   2.357 -0.1176  0.5666 -0.4004
 3234SOL     OW12933   4.981   0.598   2.301 -0.1004 -0.1595  0.3120
 3234SOL    HW112934   4.999   0.688   2.328 -0.7020  0.9649 -2.6427
 3234SOL    HW212935   5.038   0.583   2.226 -2.5144 -0.8723 -1.5437
 3234SOL     MW12936   4.991   0.608   2.295 -0.5063 -0.1041 -0.3354
 3235SOL     OW12937   1.295   5.168   2.996  0.1295 -0.5040 -0.6015
 3235SOL    HW112938   1.243   5.157   2.917 -0.9170 -1.4950  0.1865
 3235SOL    HW212939   1.351   5.091   2.999 -1.0769 -1.3930  0.4811
 3235SOL     MW12940   1.296   5.156   2.986 -0.1737 -0.7570 -0.3498
 3236SOL     OW12941   5.446   0.610   1.151 -0.0338 -0.1401  0.5299
 3236SOL    HW112942   5.486   0.645   1.231 -2.1608 -0.0840  1.6407
 3236SOL    HW212943   5.469   0.672   1.082 -0.6992  1.4958  1.7299
 3236SOL     MW12944   5.455   0.623   1.153 -0.4096  0.0876  0.8409
 3237SOL     OW12945   4.809   1.814   3.207  0.2842 -0.0042  0.8125
 3237SOL    HW112946   4.824   1.804   3.112  0.6448 -1.9669  1.0178
 3237SOL    HW212947   4.782   1.727   3.236 -0.0087  0.6094  2.5002
 3237SOL     MW12948   4.808   1.801   3.198  0.2933 -0.1858  1.0672
 3238SOL     OW12949   0.691   3.731   2.908  0.1146  0.4280  0.5296
 3238SOL    HW112950   0.646   3.794   2.852  2.0757 -0.0333 -1.7238
 3238SOL    HW212951   0.621   3.684   2.952 -1.6977 -0.1825 -2.6769
 3238SOL     MW12952   0.676   3.733   2.906  0.1346  0.2838 -0.2052
 3239SOL     OW12953   0.720   5.475   0.883 -0.3440  0.3586  0.0366
 3239SOL    HW112954   0.687   5.483   0.972 -0.5326  0.0688 -0.0071
 3239SOL    HW212955   0.813   5.496   0.890 -0.3538  0.3088  0.3072
 3239SOL     MW12956   0.728   5.479   0.896 -0.3707  0.3129  0.0671
 3240SOL     OW12957   2.826   3.985   2.593  0.0654 -0.1479  0.5317
 3240SOL    HW112958   2.818   3.892   2.614  1.0785 -0.2402  0.5551
 3240SOL    HW212959   2.818   3.989   2.498 -1.5827 -0.0588  0.6414
 3240SOL     MW12960   2.824   3.973   2.583 -0.0201 -0.1483  0.5496
 3241SOL     OW12961   1.806   1.842   0.731 -0.1320  0.3133 -0.0573
 3241SOL    HW112962   1.765   1.759   0.710  0.8214 -0.3057  0.4809
 3241SOL    HW212963   1.771   1.866   0.817  0.6544 -0.2421  0.4268
 3241SOL     MW12964   1.795   1.834   0.739  0.1021  0.1553  0.0803
 3242SOL     OW12965   2.028   2.427   2.173 -0.0858 -0.2839 -0.0472
 3242SOL    HW112966   1.938   2.412   2.199 -0.2096 -1.6159 -1.1437
 3242SOL    HW212967   2.033   2.394   2.083  1.5362 -0.4371  0.0695
 3242SOL     MW12968   2.017   2.421   2.165  0.1158 -0.4838 -0.1791
 3243SOL     OW12969   1.163   2.266   0.156  0.4136 -0.8350  0.2454
 3243SOL    HW112970   1.249   2.308   0.154  0.1566 -0.3053  0.2032
 3243SOL    HW212971   1.107   2.322   0.103 -0.1906 -0.6597  1.0540
 3243SOL     MW12972   1.167   2.279   0.149  0.2977 -0.7401  0.3485
 3244SOL     OW12973   3.394   3.541   4.394 -0.3442 -0.3181  0.3563
 3244SOL    HW112974   3.438   3.626   4.399  0.1264 -0.6140  1.4389
 3244SOL    HW212975   3.308   3.556   4.434 -0.5158 -0.2025 -0.0466
 3244SOL     MW12976   3.388   3.554   4.400 -0.3040 -0.3423  0.4478
 3245SOL     OW12977   1.337   4.551   3.761 -0.5333  0.2850  0.2451
 3245SOL    HW112978   1.416   4.599   3.785  0.2595 -0.5419 -0.6475
 3245SOL    HW212979   1.306   4.514   3.844 -0.9859  2.0299  0.8961
 3245SOL     MW12980   1.343   4.552   3.776 -0.4876  0.4086  0.2126
 3246SOL     OW12981   4.434   4.438   5.226 -0.0971 -0.2206  0.3179
 3246SOL    HW112982   4.423   4.346   5.247  0.3107 -0.7180 -1.4853
 3246SOL    HW212983   4.425   4.443   5.131 -0.3488  1.6363  0.3964
 3246SOL     MW12984   4.432   4.426   5.216 -0.0761 -0.0376  0.0858
 3247SOL     OW12985   0.962   4.032   1.291 -0.6268  0.2667 -0.3541
 3247SOL    HW112986   0.983   4.124   1.278 -0.3878  0.2883  0.1409
 3247SOL    HW212987   1.043   3.985   1.268 -1.3693 -0.0022 -2.6506
 3247SOL     MW12988   0.976   4.038   1.286 -0.6946  0.2334 -0.5966
 3248SOL     OW12989   2.636   5.426   1.004 -0.1893 -0.3840 -0.4793
 3248SOL    HW112990   2.598   5.452   1.088  1.2952  0.1308  0.0471
 3248SOL    HW212991   2.657   5.508   0.960  1.3123 -0.6583 -0.2978
 3248SOL     MW12992   2.634   5.440   1.009  0.2126 -0.3517 -0.3840
 3249SOL     OW12993   1.539   2.022   4.045  0.8020  0.5043  0.2196
 3249SOL    HW112994   1.614   2.080   4.030  0.5929  0.6621 -0.2241
 3249SOL    HW212995   1.553   1.948   3.985  0.4480  0.6796 -0.0808
 3249SOL     MW12996   1.551   2.020   4.035  0.7262  0.5491  0.1194
 3250SOL     OW12997   1.040   1.399   2.727 -0.7476 -0.3235  0.0188
 3250SOL    HW112998   1.025   1.492   2.737  0.5295 -0.0552 -0.3630
 3250SOL    HW212999   0.986   1.374   2.652 -2.0083 -0.1539  0.8529
 3250SOL     MW13000   1.031   1.408   2.718 -0.7454 -0.2645  0.0796
 3251SOL     OW13001   2.816   3.729   2.278  0.4020 -0.2874  0.1570
 3251SOL    HW113002   2.734   3.680   2.268 -1.4042  2.9041 -3.0281
 3251SOL    HW213003   2.875   3.691   2.213  0.6759 -1.1064  0.8678
 3251SOL     MW13004   2.813   3.717   2.268  0.1958  0.0319 -0.1760
 3252SOL     OW13005   0.618   0.161   4.242 -0.0056 -0.1643 -0.5816
 3252SOL    HW113006   0.608   0.072   4.208 -1.3525 -0.5476  0.7184
 3252SOL    HW213007   0.630   0.151   4.336 -0.6121  1.0403 -0.3521
 3252SOL     MW13008   0.618   0.148   4.250 -0.2685 -0.0538 -0.3757
 3253SOL     OW13009   3.151   4.875   1.107 -0.5999 -0.3542  0.0670
 3253SOL    HW113010   3.200   4.793   1.098 -0.7701 -0.4644  0.1402
 3253SOL    HW213011   3.077   4.853   1.162 -1.9775 -0.7543 -1.8330
 3253SOL     MW13012   3.148   4.861   1.113 -0.8082 -0.4229 -0.1788
 3254SOL     OW13013   3.460   4.351   3.961 -0.1451  0.2344  1.1455
 3254SOL    HW113014   3.392   4.298   4.000 -0.7572  0.4488  0.3989
 3254SOL    HW213015   3.518   4.374   4.034 -0.0318 -1.1788  1.5303
 3254SOL     MW13016   3.459   4.347   3.976 -0.2122  0.0731  1.0968
 3255SOL     OW13017   0.294   1.701   4.573 -0.9396  0.5273  0.4431
 3255SOL    HW113018   0.353   1.669   4.505  0.1099  0.8889  1.1493
 3255SOL    HW213019   0.218   1.734   4.526 -0.5113  0.1816 -0.5059
 3255SOL     MW13020   0.292   1.701   4.558 -0.7407  0.5294  0.4104
 3256SOL     OW13021   2.938   4.168   3.133 -0.4478  0.2394 -0.2638
 3256SOL    HW113022   2.951   4.081   3.172  0.7542  0.1891 -0.7176
 3256SOL    HW213023   2.845   4.186   3.143 -0.2659  0.0860  2.3378
 3256SOL     MW13024   2.927   4.159   3.140 -0.2615  0.2120  0.0252
 3257SOL     OW13025   0.623   1.736   2.469  0.3264  0.0009 -0.0743
 3257SOL    HW113026   0.564   1.693   2.531 -1.3763 -0.4415 -1.8919
 3257SOL    HW213027   0.707   1.691   2.480  0.2580  0.3317  2.2536
 3257SOL     MW13028   0.626   1.724   2.479  0.0880 -0.0141 -0.0056
 3258SOL     OW13029   3.947   0.379   4.995  0.0707  0.3049 -0.6848
 3258SOL    HW113030   3.996   0.448   5.039 -0.6191  0.2987  0.1075
 3258SOL    HW213031   3.856   0.393   5.021  0.0138 -1.3811  0.1973
 3258SOL     MW13032   3.942   0.390   5.004 -0.0298  0.0772 -0.4595
 3259SOL     OW13033   3.446   4.175   4.756  0.2062 -0.4506  0.7433
 3259SOL    HW113034   3.468   4.177   4.849  1.2593  0.5806  0.4902
 3259SOL    HW213035   3.376   4.109   4.750  0.8866 -1.3592  2.0925
 3259SOL     MW13036   3.439   4.166   4.768  0.4395 -0.4341  0.8908
 3260SOL     OW13037   0.971   3.227   3.571  0.6117  0.2024 -0.2149
 3260SOL    HW113038   0.968   3.138   3.608 -0.4173  0.5456  0.5639
 3260SOL    HW213039   0.895   3.271   3.607  0.5380  1.1093 -1.4103
 3260SOL     MW13040   0.961   3.221   3.581  0.4633  0.3707 -0.2710
 3261SOL     OW13041   5.052   3.527   1.667  0.3973  0.0198 -0.1912
 3261SOL    HW113042   5.061   3.621   1.683 -0.1226 -0.0953  0.8815
 3261SOL    HW213043   5.105   3.486   1.736 -0.6838 -0.4872  0.3657
 3261SOL     MW13044   5.061   3.534   1.679  0.1819 -0.0639  0.0281
 3262SOL     OW13045   1.237   2.044   3.916  0.1353 -0.3001  0.4100
 3262SOL    HW113046   1.274   1.998   3.841  0.7709  0.7622  0.0480
 3262SOL    HW213047   1.305   2.107   3.941  0.2896 -1.1653  2.3917
 3262SOL     MW13048   1.251   2.046   3.910  0.2416 -0.2735  0.6280
 3263SOL     OW13049   5.264   5.435   0.552  0.0410  0.2027  0.3721
 3263SOL    HW113050   5.293   5.526   0.557  0.9288 -0.1097  1.1857
 3263SOL    HW213051   5.169   5.440   0.551  0.0854  1.1416  0.2633
 3263SOL     MW13052   5.255   5.448   0.552  0.1665  0.2870  0.4669
 3264SOL     OW13053   2.523   2.465   2.687 -0.0244 -0.3384  0.2232
 3264SOL    HW113054   2.492   2.554   2.672  0.7479 -0.0687  0.1757
 3264SOL    HW213055   2.517   2.453   2.781  1.0410  0.2293  0.3898
 3264SOL     MW13056   2.518   2.475   2.697  0.2229 -0.2257  0.2392
 3265SOL     OW13057   4.725   3.934   0.354  0.3252  0.0633  0.2157
 3265SOL    HW113058   4.783   4.001   0.318  1.3762 -0.1538  1.4279
 3265SOL    HW213059   4.774   3.853   0.346  1.0343  0.1258  2.8929
 3265SOL     MW13060   4.739   3.932   0.348  0.5620  0.0425  0.7391
 3266SOL     OW13061   3.397   0.355   3.748 -0.1798  0.3271  0.0872
 3266SOL    HW113062   3.471   0.324   3.696  0.3930 -3.0188  2.5555
 3266SOL    HW213063   3.427   0.350   3.839 -2.8810  0.4928  1.0807
 3266SOL     MW13064   3.411   0.350   3.753 -0.4662 -0.1009  0.5531
 3267SOL     OW13065   1.376   0.912   3.914 -0.2707  0.3589 -0.6975
 3267SOL    HW113066   1.398   0.969   3.987 -0.7528  0.6584 -0.7818
 3267SOL    HW213067   1.403   0.825   3.942  1.6329  0.7921 -1.0611
 3267SOL     MW13068   1.383   0.908   3.927 -0.0794  0.4575 -0.7578
 3268SOL     OW13069   1.664   3.395   2.201 -0.4058 -0.1629  0.0731
 3268SOL    HW113070   1.578   3.398   2.242 -1.4367 -0.2719 -1.9735
 3268SOL    HW213071   1.683   3.486   2.179  1.5527  0.4045  3.3453
 3268SOL     MW13072   1.655   3.408   2.203 -0.2810 -0.1012  0.2380
 3269SOL     OW13073   2.622   1.279   2.100  0.3878  0.2113  0.1516
 3269SOL    HW113074   2.540   1.232   2.086  1.2206 -1.8949  1.8050
 3269SOL    HW213075   2.606   1.334   2.177  0.3035  0.3954  0.0035
 3269SOL     MW13076   2.609   1.281   2.108  0.4885 -0.0473  0.3542
 3270SOL     OW13077   2.251   4.831   0.880 -0.0273  0.0514  0.0785
 3270SOL    HW113078   2.231   4.744   0.846  1.1580 -0.8755  1.6080
 3270SOL    HW213079   2.217   4.831   0.969 -0.5731  1.3953 -0.1115
 3270SOL     MW13080   2.244   4.820   0.887  0.0588  0.1075  0.2587
 3271SOL     OW13081   2.895   0.955   5.129 -0.1953  0.3400 -0.0174
 3271SOL    HW113082   2.938   1.040   5.133  1.0921 -0.1992 -1.4675
 3271SOL    HW213083   2.966   0.893   5.114 -1.2283 -0.8749 -0.0292
 3271SOL     MW13084   2.910   0.958   5.127 -0.1611  0.1039 -0.2141
 3272SOL     OW13085   2.736   2.758   0.434 -0.7015 -0.3073 -0.5126
 3272SOL    HW113086   2.814   2.713   0.401  0.5912  1.0149  0.5877
 3272SOL    HW213087   2.716   2.713   0.516 -0.1090  0.3587  0.0067
 3272SOL     MW13088   2.744   2.746   0.441 -0.4478 -0.0397 -0.2947
 3273SOL     OW13089   3.574   4.302   1.518 -0.2233  0.4911  0.1354
 3273SOL    HW113090   3.646   4.264   1.467  0.5660  2.6887 -0.5197
 3273SOL    HW213091   3.495   4.262   1.482  0.5504 -0.5427 -0.4633
 3273SOL     MW13092   3.573   4.292   1.506 -0.0129  0.6478 -0.0333
 3274SOL     OW13093   0.863   0.312   1.878  0.2983 -0.3032 -0.3825
 3274SOL    HW113094   0.772   0.286   1.865  0.4335 -1.3179  0.5318
 3274SOL    HW213095   0.899   0.244   1.934  1.1742  0.9420  0.6217
 3274SOL     MW13096   0.856   0.299   1.884  0.4344 -0.2721 -0.1243
 3275SOL     OW13097   2.742   3.271   1.666  0.4546 -0.3942 -0.0961
 3275SOL    HW113098   2.719   3.221   1.588  1.3689 -1.4399  0.2912
 3275SOL    HW213099   2.773   3.355   1.632  0.7459 -0.8020 -0.8542
 3275SOL     MW13100   2.743   3.276   1.651  0.6169 -0.5898 -0.1460
 3276SOL     OW13101   2.593   1.137   4.769  0.0328  0.0074  0.0520
 3276SOL    HW113102   2.664   1.192   4.737 -0.1963  0.1777 -0.1703
 3276SOL    HW213103   2.618   1.113   4.858  0.5171 -0.1886 -0.1363
 3276SOL     MW13104   2.606   1.141   4.776  0.0672  0.0039 -0.0033
 3277SOL     OW13105   0.145   4.706   3.353 -0.2283  0.0884 -0.3364
 3277SOL    HW113106   0.199   4.732   3.278  2.9578 -2.0062  0.9985
 3277SOL    HW213107   0.076   4.652   3.315  1.3616 -1.0045 -1.8721
 3277SOL     MW13108   0.143   4.702   3.338  0.4144 -0.3406 -0.3634
 3278SOL     OW13109   3.083   2.539   5.118 -0.6840 -0.3112  0.3878
 3278SOL    HW113110   3.080   2.566   5.210  2.4641  0.1471  0.4684
 3278SOL    HW213111   3.126   2.453   5.120 -0.9280 -0.4647 -0.6283
 3278SOL     MW13112   3.089   2.531   5.130 -0.2932 -0.2702  0.2619
 3279SOL     OW13113   0.561   4.722   1.137  0.5036 -0.1442  0.7703
 3279SOL    HW113114   0.598   4.650   1.086  0.5963 -0.0013  0.6334
 3279SOL    HW213115   0.604   4.717   1.222  0.1416 -0.5553  0.9291
 3279SOL     MW13116   0.572   4.712   1.141  0.4673 -0.1803  0.7733
 3280SOL     OW13117   5.462   1.108   1.270  0.2275  0.2074  0.1769
 3280SOL    HW113118   5.504   1.046   1.329  0.8209  1.6712  1.3380
 3280SOL    HW213119   5.372   1.076   1.262  1.0393 -2.0487 -1.0608
 3280SOL     MW13120   5.456   1.095   1.277  0.4166  0.1008  0.1666
 3281SOL     OW13121   5.101   2.948   2.288  0.3692 -0.0014 -0.3616
 3281SOL    HW113122   5.069   2.961   2.377 -0.0628 -1.5880 -0.2542
 3281SOL    HW213123   5.046   3.006   2.234 -0.9822 -0.7753  0.1362
 3281SOL     MW13124   5.089   2.958   2.293  0.1292 -0.3190 -0.2802
 3282SOL     OW13125   2.892   2.452   4.515 -0.2578 -0.8550  0.1453
 3282SOL    HW113126   2.894   2.407   4.599 -0.9854 -2.4150 -0.6275
 3282SOL    HW213127   2.877   2.383   4.451 -1.1669  0.4606 -1.1346
 3282SOL     MW13128   2.890   2.437   4.518 -0.4780 -0.8879 -0.1310
 3283SOL     OW13129   5.492   4.501   3.280  0.0389 -0.1448  0.0455
 3283SOL    HW113130   5.484   4.469   3.370 -1.0924  0.5062  0.1965
 3283SOL    HW213131   5.578   4.471   3.252  1.0870  0.9865  1.8764
 3283SOL     MW13132   5.502   4.493   3.288  0.0277  0.0951  0.3122
 3284SOL     OW13133   3.068   1.505   0.837  0.2626  0.8919 -0.0149
 3284SOL    HW113134   3.107   1.515   0.750  2.1956 -3.0329  0.1690
 3284SOL    HW213135   3.111   1.571   0.891  2.9956  0.0326 -0.9922
 3284SOL     MW13136   3.079   1.515   0.833  0.8906  0.2481 -0.1216
 3285SOL     OW13137   1.204   2.141   4.313 -0.5613 -0.3766  0.4469
 3285SOL    HW113138   1.158   2.160   4.395  1.1279  0.8002  1.1759
 3285SOL    HW213139   1.214   2.226   4.271 -1.3813 -0.9739 -0.9900
 3285SOL     MW13140   1.200   2.155   4.319 -0.4443 -0.2986  0.3516
 3286SOL     OW13141   1.118   3.015   0.740 -0.1770 -0.2475 -0.2200
 3286SOL    HW113142   1.106   2.924   0.714 -0.4016 -0.3863  0.3595
 3286SOL    HW213143   1.099   3.066   0.661 -1.6799 -0.6111 -0.1209
 3286SOL     MW13144   1.114   3.010   0.726 -0.4095 -0.3151 -0.1287
 3287SOL     OW13145   3.536   5.082   3.622 -0.9078 -0.3985 -0.2018
 3287SOL    HW113146   3.453   5.078   3.670 -1.2720 -1.1947 -0.8811
 3287SOL    HW213147   3.603   5.077   3.691 -1.4137  0.0695  0.3370
 3287SOL     MW13148   3.534   5.081   3.638 -1.0249 -0.4427 -0.2207
 3288SOL     OW13149   1.577   1.250   1.510  0.1015  0.8495  0.2172
 3288SOL    HW113150   1.580   1.269   1.603  0.5299  0.5635  0.2681
 3288SOL    HW213151   1.668   1.232   1.486 -0.1888 -0.5471  0.0654
 3288SOL     MW13152   1.590   1.250   1.519  0.1201  0.6230  0.2037
 3289SOL     OW13153   0.290   4.122   0.793  0.0462 -0.2881 -0.0165
 3289SOL    HW113154   0.220   4.057   0.781 -0.7794  0.4243  0.8907
 3289SOL    HW213155   0.247   4.206   0.785  0.9092  0.1679  0.0025
 3289SOL     MW13156   0.275   4.124   0.790  0.0513 -0.1309  0.1081
 3290SOL     OW13157   2.829   0.642   4.899 -0.1922 -0.4808  0.1115
 3290SOL    HW113158   2.901   0.584   4.922 -0.2574 -0.8643 -0.6176
 3290SOL    HW213159   2.871   0.727   4.882  0.1818 -0.8521 -0.9120
 3290SOL     MW13160   2.845   0.646   4.900 -0.1507 -0.5824 -0.1244
 3291SOL     OW13161   1.452   2.510   3.211  0.1619  0.2188  0.7039
 3291SOL    HW113162   1.436   2.602   3.193 -2.2092 -0.3005 -0.2458
 3291SOL    HW213163   1.462   2.470   3.124  0.5184 -0.5203  1.0733
 3291SOL     MW13164   1.451   2.517   3.196 -0.1092  0.0495  0.6258
 3292SOL     OW13165   4.151   3.501   0.743 -0.5440 -0.3096 -0.2282
 3292SOL    HW113166   4.097   3.426   0.716 -0.7985 -0.2231  0.0361
 3292SOL    HW213167   4.193   3.530   0.662  1.0503 -1.9019 -0.0425
 3292SOL     MW13168   4.149   3.495   0.728 -0.3637 -0.5123 -0.1677
 3293SOL     OW13169   0.067   3.539   5.309 -0.3736  0.4320 -0.6853
 3293SOL    HW113170   0.107   3.609   5.257 -0.3429 -0.1995 -1.5306
 3293SOL    HW213171   0.022   3.484   5.245 -2.2095  0.8427  0.1812
 3293SOL     MW13172   0.067   3.541   5.293 -0.6165  0.4023 -0.6824
 3294SOL     OW13173   2.389   4.528   5.450 -0.6572 -0.3074  0.5136
 3294SOL    HW113174   2.343   4.505   5.369  0.0967 -0.3555  0.0794
 3294SOL    HW213175   2.451   4.456   5.463 -0.6767 -0.2263  1.0554
 3294SOL     MW13176   2.391   4.515   5.441 -0.5584 -0.3029  0.5281
 3295SOL     OW13177   5.054   1.774   3.801  0.0675 -0.1444  0.1639
 3295SOL    HW113178   5.020   1.863   3.812  0.7982  0.1992 -0.2421
 3295SOL    HW213179   5.125   1.767   3.865  0.5113 -0.1603 -0.3210
 3295SOL     MW13180   5.059   1.785   3.811  0.2256 -0.1003  0.0440
 3296SOL     OW13181   1.270   4.751   1.418 -0.2514  0.5876 -0.1042
 3296SOL    HW113182   1.246   4.671   1.463  0.3972 -0.4108 -1.4552
 3296SOL    HW213183   1.321   4.722   1.342  0.0369  2.2765 -0.6116
 3296SOL     MW13184   1.274   4.737   1.414 -0.1253  0.6805 -0.3543
 3297SOL     OW13185   1.173   3.469   1.708 -0.4814  0.1875  0.0791
 3297SOL    HW113186   1.206   3.521   1.635  1.4043 -0.7170  0.2179
 3297SOL    HW213187   1.234   3.485   1.780 -0.5233 -1.2718  0.4882
 3297SOL     MW13188   1.186   3.478   1.708 -0.2333 -0.1306  0.1528
 3298SOL     OW13189   1.111   2.222   1.088  0.3422  0.0270  0.0589
 3298SOL    HW113190   1.098   2.287   1.019  2.2996  0.5044  0.0687
 3298SOL    HW213191   1.118   2.139   1.042  0.8732  0.2434 -0.2692
 3298SOL     MW13192   1.110   2.220   1.073  0.6771  0.1203  0.0160
 3299SOL     OW13193   2.099   0.208   2.102  0.3747  0.1309 -0.4723
 3299SOL    HW113194   2.119   0.300   2.117 -0.5462  0.1702  0.5828
 3299SOL    HW213195   2.152   0.161   2.166  0.2284 -0.0248 -0.4643
 3299SOL     MW13196   2.109   0.214   2.113  0.2311  0.1152 -0.3292
 3300SOL     OW13197   4.105   4.737   0.822 -0.0320 -0.1373  0.1470
 3300SOL    HW113198   4.173   4.761   0.759 -0.8336 -1.2349 -1.1938
 3300SOL    HW213199   4.152   4.703   0.898  0.9253  0.0068 -0.3735
 3300SOL     MW13200   4.120   4.736   0.824 -0.0110 -0.2656 -0.1035
 3301SOL     OW13201   5.490   1.629   0.667  0.4704 -0.3646  0.0053
 3301SOL    HW113202   5.414   1.682   0.692  1.2193  0.5525  0.3829
 3301SOL    HW213203   5.476   1.611   0.574 -0.6420 -0.9606  0.2612
 3301SOL     MW13204   5.478   1.634   0.658  0.4215 -0.3214  0.0906
 3302SOL     OW13205   2.977   3.552   2.762 -0.8178 -0.0198  0.5578
 3302SOL    HW113206   2.916   3.569   2.690 -0.6899 -0.3129  0.3784
 3302SOL    HW213207   2.975   3.632   2.814 -2.1902 -0.4281  1.1753
 3302SOL     MW13208   2.969   3.565   2.759 -0.9853 -0.1142  0.6168
 3303SOL     OW13209   1.989   2.557   0.377  0.1081  0.2047  0.3063
 3303SOL    HW113210   2.055   2.506   0.330 -1.1555 -0.5730 -0.7180
 3303SOL    HW213211   1.914   2.558   0.317 -0.6827  1.3554  1.2819
 3303SOL     MW13212   1.988   2.550   0.363 -0.1683  0.2549  0.2997
 3304SOL     OW13213   1.071   1.624   0.631 -0.3336  0.3809 -0.0198
 3304SOL    HW113214   1.101   1.605   0.542  0.8873  1.4467  0.1319
 3304SOL    HW213215   1.121   1.701   0.657 -0.4706 -0.0744  1.7061
 3304SOL     MW13216   1.082   1.632   0.622 -0.1878  0.4630  0.2329
 3305SOL     OW13217   0.319   2.466   5.125 -0.0831 -0.3938  0.2115
 3305SOL    HW113218   0.242   2.455   5.181 -0.7343  1.9185 -0.1301
 3305SOL    HW213219   0.342   2.376   5.099  0.0562 -1.5572  3.8074
 3305SOL     MW13220   0.312   2.452   5.129 -0.1520 -0.2392  0.6495
 3306SOL     OW13221   0.244   2.348   4.443  0.4564 -0.5009  0.1929
 3306SOL    HW113222   0.227   2.325   4.352  0.3478  0.3532 -0.0152
 3306SOL    HW213223   0.197   2.431   4.456  1.3224 -0.0768  0.7197
 3306SOL     MW13224   0.235   2.356   4.433  0.5583 -0.3289  0.2358
 3307SOL     OW13225   2.476   4.992   4.611  0.1535  0.3991  0.1795
 3307SOL    HW113226   2.454   4.979   4.519 -2.1320 -0.4751  0.7826
 3307SOL    HW213227   2.543   4.927   4.630  0.0153  0.0036 -0.6674
 3307SOL     MW13228   2.482   4.982   4.601 -0.1727  0.2282  0.1467
 3308SOL     OW13229   5.023   0.393   3.911  0.2890 -0.0941  0.0922
 3308SOL    HW113230   5.097   0.338   3.884 -0.6035 -0.9149 -0.7820
 3308SOL    HW213231   4.964   0.393   3.835 -0.3598  0.9967  0.5657
 3308SOL     MW13232   5.025   0.386   3.897  0.0816 -0.0578  0.0383
 3309SOL     OW13233   5.350   2.072   5.460  0.1271  0.0592  0.1576
 3309SOL    HW113234   5.377   2.157   5.495 -1.8779  1.2910 -1.0777
 3309SOL    HW213235   5.288   2.038   5.525  0.7186 -0.3549  0.5162
 3309SOL     MW13236   5.346   2.079   5.473 -0.0631  0.1692  0.0396
 3310SOL     OW13237   5.340   0.935   1.902 -0.0902  0.0448  0.1947
 3310SOL    HW113238   5.267   0.874   1.887  0.6415 -0.7728 -0.1165
 3310SOL    HW213239   5.309   0.993   1.972 -1.4098  0.3305 -0.5905
 3310SOL     MW13240   5.326   0.935   1.909 -0.1693 -0.0268  0.0471
 3311SOL     OW13241   5.527   5.258   1.965  0.4318 -0.0226  0.2972
 3311SOL    HW113242   5.448   5.207   1.951 -0.4711  1.5637 -0.6982
 3311SOL    HW213243   5.571   5.260   1.880  0.1833  1.2564  0.1798
 3311SOL     MW13244   5.523   5.251   1.952  0.2768  0.3630  0.1474
 3312SOL     OW13245   5.332   0.049   0.861  0.1785 -0.1628 -0.4502
 3312SOL    HW113246   5.307  -0.036   0.896 -0.9621  0.2388 -0.2734
 3312SOL    HW213247   5.251   0.087   0.826  0.6622  0.8538 -0.5283
 3312SOL     MW13248   5.318   0.043   0.861  0.0901  0.0281 -0.4369
 3313SOL     OW13249   0.596   3.282   1.028 -0.3266 -0.4429  0.0022
 3313SOL    HW113250   0.605   3.212   1.092 -2.4774  0.7159  1.6573
 3313SOL    HW213251   0.612   3.238   0.944  0.5923 -2.4153  1.1138
 3313SOL     MW13252   0.600   3.266   1.025 -0.4924 -0.5524  0.3746
 3314SOL     OW13253   3.352   3.719   2.594 -0.3694  0.4501 -0.4963
 3314SOL    HW113254   3.444   3.740   2.607 -0.6033  1.9007 -1.0446
 3314SOL    HW213255   3.333   3.654   2.662  0.8476  0.7224  0.1334
 3314SOL     MW13256   3.362   3.713   2.605 -0.2371  0.6820 -0.4853
 3315SOL     OW13257   2.444   0.654   3.542  0.0448  0.1178  0.0168
 3315SOL    HW113258   2.352   0.678   3.536 -0.0829 -0.3792 -0.1088
 3315SOL    HW213259   2.446   0.581   3.603  0.5706  1.1541  1.2700
 3315SOL     MW13260   2.432   0.647   3.549  0.0984  0.1903  0.1685
 3316SOL     OW13261   0.336   2.655   4.913 -0.3626  0.2261  0.5846
 3316SOL    HW113262   0.322   2.574   4.962 -2.1558  1.1737  1.8023
 3316SOL    HW213263   0.405   2.635   4.850  0.0293 -1.8904  1.6154
 3316SOL     MW13264   0.343   2.641   4.911 -0.5512  0.0688  0.8872
 3317SOL     OW13265   3.169   0.436   0.322 -0.2001  0.4284 -0.3618
 3317SOL    HW113266   3.195   0.497   0.252  1.5454  1.7771  1.3268
 3317SOL    HW213267   3.218   0.466   0.399 -1.8543 -1.1236  1.4083
 3317SOL     MW13268   3.179   0.448   0.323 -0.1878  0.4010  0.1037
 3318SOL     OW13269   0.736   4.569   1.831 -0.0890 -0.7181 -0.3701
 3318SOL    HW113270   0.776   4.647   1.794  0.4131 -1.2980 -1.0937
 3318SOL    HW213271   0.810   4.511   1.852 -0.4989 -2.1462 -2.4999
 3318SOL     MW13272   0.751   4.572   1.829 -0.0766 -0.9884 -0.7541
 3319SOL     OW13273   1.737   4.407   0.674 -0.2361  0.0687  0.2768
 3319SOL    HW113274   1.649   4.442   0.685  0.8236  2.8656  0.6043
 3319SOL    HW213275   1.756   4.418   0.581  0.7542  2.2726  0.6702
 3319SOL     MW13276   1.728   4.413   0.663  0.0398  0.7417  0.3738
 3320SOL     OW13277   5.322   3.186   2.022  0.5935 -0.5008  0.0927
 3320SOL    HW113278   5.384   3.235   2.076  0.5510 -2.1144  1.7325
 3320SOL    HW213279   5.372   3.157   1.947  0.7814  1.4245 -0.5794
 3320SOL     MW13280   5.337   3.189   2.019  0.6131 -0.4589  0.2229
 3321SOL     OW13281   2.109   2.631   5.248  0.3062  0.2932  0.3664
 3321SOL    HW113282   2.044   2.695   5.279 -0.9996  0.0462 -1.6664
 3321SOL    HW213283   2.058   2.552   5.232  1.4229 -0.4228  0.2808
 3321SOL     MW13284   2.093   2.629   5.250  0.2808  0.1636  0.0813
 3322SOL     OW13285   1.010   0.813   2.758  0.3262 -0.4067  0.2317
 3322SOL    HW113286   0.938   0.841   2.702 -0.2065  0.3167  1.2331
 3322SOL    HW213287   0.995   0.719   2.771 -0.8618 -0.1357  0.9906
 3322SOL     MW13288   0.998   0.804   2.753  0.0946 -0.2729  0.4686
 3323SOL     OW13289   2.776   2.810   1.697  0.1355 -0.5711  0.4243
 3323SOL    HW113290   2.732   2.862   1.764  1.3997  0.4939  0.4780
 3323SOL    HW213291   2.851   2.771   1.742  1.2103  0.4497 -0.3887
 3323SOL     MW13292   2.780   2.812   1.712  0.4503 -0.2904  0.3221
 3324SOL     OW13293   2.398   1.415   3.441 -0.1740  0.2006  0.2831
 3324SOL    HW113294   2.445   1.498   3.453 -0.1107  0.4522 -1.3734
 3324SOL    HW213295   2.467   1.348   3.445  0.1117  0.4309 -0.5183
 3324SOL     MW13296   2.414   1.417   3.443 -0.1270  0.2655 -0.0477
 3325SOL     OW13297   2.995   3.889   3.223  0.5512  0.1427  0.0471
 3325SOL    HW113298   2.984   3.821   3.290  0.3563  0.5365  0.4132
 3325SOL    HW213299   2.957   3.850   3.144 -1.5312  0.6310  0.7613
 3325SOL     MW13300   2.988   3.874   3.221  0.2447  0.2614  0.1925
 3326SOL     OW13301   0.168   0.089   1.707  0.0671  0.1334 -1.3164
 3326SOL    HW113302   0.204   0.048   1.786 -0.0821 -0.3945 -1.5134
 3326SOL    HW213303   0.235   0.152   1.680 -0.8042  1.9220  0.4377
 3326SOL     MW13304   0.182   0.092   1.714 -0.0702  0.3031 -1.1069
 3327SOL     OW13305   2.618   4.524   0.842 -0.3148 -0.1520  0.1388
 3327SOL    HW113306   2.566   4.524   0.762 -0.0460  1.2980 -0.0741
 3327SOL    HW213307   2.611   4.614   0.875  1.1801 -0.1940  0.6747
 3327SOL     MW13308   2.610   4.536   0.836 -0.0775  0.0375  0.1823
 3328SOL     OW13309   1.755   4.091   1.389 -0.3568  0.4493  0.1447
 3328SOL    HW113310   1.701   4.133   1.323 -0.9264 -1.3258 -0.5828
 3328SOL    HW213311   1.730   4.132   1.472 -0.5313  1.8221 -0.5640
 3328SOL     MW13312   1.745   4.102   1.392 -0.4570  0.3952 -0.0486
 3329SOL     OW13313   0.029   3.128   3.349 -0.0964  0.2244  0.3278
 3329SOL    HW113314  -0.057   3.118   3.310  0.4795  0.1411 -0.9803
 3329SOL    HW213315   0.070   3.042   3.339  0.1705  0.2790  0.8853
 3329SOL     MW13316   0.023   3.115   3.343  0.0170  0.2205  0.2268
 3330SOL     OW13317   1.165   2.821   5.279 -0.3194 -0.5051 -0.4763
 3330SOL    HW113318   1.185   2.797   5.370  0.4424  0.5222 -0.3508
 3330SOL    HW213319   1.142   2.739   5.237  0.7580 -1.2232  0.2855
 3330SOL     MW13320   1.165   2.807   5.286 -0.0719 -0.4635 -0.3569
 3331SOL     OW13321   2.302   1.928   4.691  0.0013 -0.2276  0.1551
 3331SOL    HW113322   2.233   1.978   4.733  0.3379  0.8161 -0.4854
 3331SOL    HW213323   2.259   1.848   4.661 -0.7006 -0.0264  0.6091
 3331SOL     MW13324   2.287   1.924   4.692 -0.0479 -0.0600  0.1300
 3332SOL     OW13325   2.143   1.445   4.701 -0.3691 -0.0436  0.6332
 3332SOL    HW113326   2.227   1.402   4.715 -0.2993  0.2818  1.2153
 3332SOL    HW213327   2.097   1.436   4.784  0.3370  2.5182  1.3640
 3332SOL     MW13328   2.148   1.438   4.714 -0.2647  0.3449  0.8099
 3333SOL     OW13329   4.251   5.108   2.821  0.0096 -0.3093 -0.0750
 3333SOL    HW113330   4.325   5.048   2.828 -0.5473 -0.9870  0.0844
 3333SOL    HW213331   4.248   5.153   2.905 -1.1744 -1.9707  0.8311
 3333SOL     MW13332   4.261   5.106   2.833 -0.2247 -0.6241  0.0684
 3334SOL     OW13333   3.230   2.002   3.448 -0.0133 -0.6518 -0.1929
 3334SOL    HW113334   3.320   2.030   3.431 -0.9042  1.9573 -1.0581
 3334SOL    HW213335   3.234   1.961   3.535  1.9920 -0.5841 -0.2050
 3334SOL     MW13336   3.243   2.000   3.458  0.1367 -0.2915 -0.3110
 3335SOL     OW13337   1.016   0.724   4.816  0.3869 -0.3933 -0.5537
 3335SOL    HW113338   1.076   0.679   4.756  1.6250  0.8193 -0.2773
 3335SOL    HW213339   0.960   0.776   4.758  0.9849  0.0680 -0.7410
 3335SOL     MW13340   1.017   0.725   4.800  0.6340 -0.1680 -0.5417
 3336SOL     OW13341   3.113   1.700   1.315  0.2523 -0.2848 -0.2731
 3336SOL    HW113342   3.164   1.775   1.344 -0.2497  0.1914 -0.5949
 3336SOL    HW213343   3.137   1.689   1.223 -0.9765  0.5953 -0.7225
 3336SOL     MW13344   3.123   1.709   1.306  0.0194 -0.1023 -0.3769
 3337SOL     OW13345   4.554   2.443   1.648  0.2610  0.3187  0.0791
 3337SOL    HW113346   4.634   2.483   1.684  0.3096 -0.3397  0.7183
 3337SOL    HW213347   4.566   2.447   1.553  1.1670 -0.0019  0.1720
 3337SOL     MW13348   4.566   2.449   1.640  0.3895  0.1870  0.1776
 3338SOL     OW13349   1.250   4.082   3.589  0.0223 -0.4234  0.2710
 3338SOL    HW113350   1.263   4.174   3.565  0.0307 -0.8771 -1.6101
 3338SOL    HW213351   1.155   4.071   3.591  0.0218 -0.3930  0.4232
 3338SOL     MW13352   1.239   4.093   3.586  0.0233 -0.4804  0.0383
 3339SOL     OW13353   0.754   2.686   4.942  0.4131  0.0850  0.1097
 3339SOL    HW113354   0.682   2.655   4.886  0.7966  0.3962 -0.5624
 3339SOL    HW213355   0.807   2.608   4.957 -0.5641 -0.3819  1.4222
 3339SOL     MW13356   0.751   2.672   4.937  0.3332  0.0640  0.1959
 3340SOL     OW13357   1.729   4.737   1.298 -0.0320  0.3275 -0.2322
 3340SOL    HW113358   1.724   4.806   1.364  1.0907  0.2381 -0.0351
 3340SOL    HW213359   1.732   4.783   1.215 -0.4251  0.4783 -0.1620
 3340SOL     MW13360   1.729   4.752   1.296  0.0662  0.3358 -0.1963
 3341SOL     OW13361   0.959   0.905   3.570  0.0677 -0.0411  0.0669
 3341SOL    HW113362   0.908   0.875   3.645  0.9962  0.7556  1.0652
 3341SOL    HW213363   0.984   0.995   3.592  1.8722 -0.3835 -0.3454
 3341SOL     MW13364   0.956   0.913   3.583  0.4355  0.0200  0.1457
 3342SOL     OW13365   1.180   2.141   1.895  0.0862 -0.0021 -0.2896
 3342SOL    HW113366   1.193   2.215   1.835  0.2911 -0.7843 -1.2263
 3342SOL    HW213367   1.088   2.144   1.918 -0.1912 -0.2192 -1.3508
 3342SOL     MW13368   1.170   2.152   1.890  0.0764 -0.1366 -0.5585
 3343SOL     OW13369   0.650   1.710   2.166 -0.3219 -0.5864 -0.0332
 3343SOL    HW113370   0.679   1.682   2.253 -0.1765 -1.1687 -0.2604
 3343SOL    HW213371   0.574   1.765   2.182  0.0375 -0.2379  0.4937
 3343SOL     MW13372   0.644   1.714   2.180 -0.2540 -0.6179  0.0071
 3344SOL     OW13373   3.702   1.602   5.154  0.1760  0.2658 -0.2400
 3344SOL    HW113374   3.686   1.655   5.231  0.9649  1.3694 -0.8215
 3344SOL    HW213375   3.634   1.629   5.092 -0.3446 -0.4906 -0.0231
 3344SOL     MW13376   3.691   1.613   5.156  0.2121  0.3126 -0.2891
 3345SOL     OW13377   0.246   2.127   2.051 -0.0712  0.3215  0.1695
 3345SOL    HW113378   0.244   2.091   1.963  0.8709 -0.1839  0.3342
 3345SOL    HW213379   0.166   2.096   2.092  0.3423 -0.9699  0.0525
 3345SOL     MW13380   0.235   2.118   2.045  0.1112  0.0797  0.1760
 3346SOL     OW13381   0.080   0.216   1.203  0.4823 -0.3462  0.0089
 3346SOL    HW113382   0.060   0.207   1.110 -2.7755  0.4796  0.5138
 3346SOL    HW213383   0.111   0.306   1.212 -3.2413  1.0900  0.1617
 3346SOL     MW13384   0.082   0.227   1.192 -0.4572 -0.0418  0.0974
 3347SOL     OW13385   0.049   3.852   1.653 -0.7582  0.3494 -0.0649
 3347SOL    HW113386   0.001   3.804   1.720  0.3656 -0.5186  0.1471
 3347SOL    HW213387   0.016   3.817   1.570 -1.0325  0.2980  0.0657
 3347SOL     MW13388   0.038   3.841   1.651 -0.6439  0.2257 -0.0188
 3348SOL     OW13389   5.152   5.376   4.765 -0.5997 -0.2609 -0.2492
 3348SOL    HW113390   5.173   5.363   4.673  0.4102 -2.1151  0.1980
 3348SOL    HW213391   5.215   5.442   4.795 -1.6736  1.2215 -1.0980
 3348SOL     MW13392   5.164   5.383   4.757 -0.6083 -0.3109 -0.3032
 3349SOL     OW13393   4.057   4.271   2.917  0.3904  0.2802 -0.1094
 3349SOL    HW113394   4.046   4.245   2.826  1.3123  0.8720 -0.4032
 3349SOL    HW213395   3.970   4.301   2.944  0.3333  1.0430 -1.0977
 3349SOL     MW13396   4.043   4.271   2.909  0.5068  0.4625 -0.2819
 3350SOL     OW13397   3.658   5.178   4.427  0.2412  0.4844  0.3815
 3350SOL    HW113398   3.584   5.125   4.395  0.8877 -0.4369  0.3680
 3350SOL    HW213399   3.639   5.193   4.519  0.3921 -0.3974  0.5681
 3350SOL     MW13400   3.646   5.173   4.435  0.3485  0.2418  0.4048
 3351SOL     OW13401   4.700   3.025   4.173 -0.2839  0.2864  0.2159
 3351SOL    HW113402   4.703   3.060   4.262  1.2517  1.1042 -0.1275
 3351SOL    HW213403   4.654   3.092   4.122  1.3275  1.1529 -0.1429
 3351SOL     MW13404   4.694   3.038   4.178  0.1396  0.5130  0.1214
 3352SOL     OW13405   3.509   3.780   2.978  0.5468 -0.0574  0.7749
 3352SOL    HW113406   3.500   3.809   3.068  0.2204  2.8989 -0.0942
 3352SOL    HW213407   3.440   3.715   2.966  0.8666 -0.8129  2.7205
 3352SOL     MW13408   3.499   3.776   2.988  0.5459  0.2388  0.9198
 3353SOL     OW13409   4.379   0.237   0.556 -0.4628  0.5107 -0.6001
 3353SOL    HW113410   4.314   0.305   0.541 -0.0624  0.8724 -0.7341
 3353SOL    HW213411   4.346   0.160   0.510 -0.8209  0.6723 -0.6127
 3353SOL     MW13412   4.366   0.236   0.548 -0.4571  0.5812 -0.6199
 3354SOL     OW13413   1.733   3.743   1.960  0.2431 -0.1574  0.1797
 3354SOL    HW113414   1.671   3.691   1.909  0.3653 -0.1735  0.0470
 3354SOL    HW213415   1.771   3.804   1.897  0.3361 -0.1233  0.2681
 3354SOL     MW13416   1.729   3.745   1.945  0.2721 -0.1549  0.1737
 3355SOL     OW13417   5.374   1.659   1.192  0.0251  0.4679  0.1329
 3355SOL    HW113418   5.437   1.672   1.263  0.3060 -0.9530  0.1676
 3355SOL    HW213419   5.289   1.671   1.234  0.2276  2.8162 -0.0011
 3355SOL     MW13420   5.371   1.663   1.207  0.0902  0.5927  0.1196
 3356SOL     OW13421   0.298   0.245   3.579  0.4148  0.1572  0.0522
 3356SOL    HW113422   0.231   0.189   3.539 -0.2485  0.8661  0.1360
 3356SOL    HW213423   0.297   0.222   3.672 -0.5565  0.9838  0.2595
 3356SOL     MW13424   0.289   0.234   3.586  0.1948  0.3639  0.0914
 3357SOL     OW13425   2.474   2.001   4.456  0.4535 -0.3400  0.1254
 3357SOL    HW113426   2.428   1.978   4.537  0.4656 -1.1101 -0.0838
 3357SOL    HW213427   2.416   2.063   4.412  0.2461 -0.2556  0.5127
 3357SOL     MW13428   2.460   2.006   4.461  0.4272 -0.4323  0.1494
 3358SOL     OW13429   2.263   0.245   2.755  0.1141  0.2788 -0.0342
 3358SOL    HW113430   2.200   0.183   2.793 -0.4907  1.5180  1.0871
 3358SOL    HW213431   2.301   0.289   2.831 -0.6357  2.3701 -0.7934
 3358SOL     MW13432   2.259   0.243   2.770 -0.0682  0.7270  0.0145
 3359SOL     OW13433   0.430   5.017   3.852 -0.0014 -0.1281  0.0260
 3359SOL    HW113434   0.428   4.928   3.887 -0.8554  0.1049  0.6004
 3359SOL    HW213435   0.405   5.007   3.760  1.4050 -0.6439 -0.3205
 3359SOL     MW13436   0.426   5.004   3.844  0.0729 -0.1662  0.0567
 3360SOL     OW13437   2.165   0.856   0.989  0.3105 -0.5853  0.4649
 3360SOL    HW113438   2.143   0.944   1.020 -0.3258 -0.2072 -0.9799
 3360SOL    HW213439   2.254   0.841   1.020  0.7024  0.8787  0.1137
 3360SOL     MW13440   2.174   0.866   0.997  0.2776 -0.3374  0.2232
 3361SOL     OW13441   1.557   3.641   0.054 -0.1123  0.1675  0.0785
 3361SOL    HW113442   1.529   3.575   0.117 -2.3657  0.2626 -0.7335
 3361SOL    HW213443   1.574   3.719   0.106 -0.9067 -0.0562  0.6833
 3361SOL     MW13444   1.556   3.642   0.070 -0.5225  0.1502  0.0506
 3362SOL     OW13445   0.813   5.326   0.199  0.5563 -0.2215  0.3274
 3362SOL    HW113446   0.808   5.366   0.285 -1.3900  1.3412 -0.4438
 3362SOL    HW213447   0.781   5.237   0.212 -3.0550  0.9863  0.7360
 3362SOL     MW13448   0.808   5.319   0.212 -0.1917  0.1514  0.2786
 3363SOL     OW13449   5.252   4.686   0.226  0.5421 -0.0766 -0.2399
 3363SOL    HW113450   5.293   4.730   0.300 -1.0577 -0.0949  0.7013
 3363SOL    HW213451   5.264   4.747   0.153 -1.1720  1.7915  0.9148
 3363SOL     MW13452   5.259   4.701   0.226  0.0961  0.1724  0.0421
 3364SOL     OW13453   2.478   2.287   2.262 -0.5668  0.5202  0.1006
 3364SOL    HW113454   2.406   2.347   2.281 -0.9398  0.3440 -0.7418
 3364SOL    HW213455   2.554   2.345   2.250 -0.4536  0.6795  1.4037
 3364SOL     MW13456   2.479   2.303   2.263 -0.6018  0.5179  0.1626
 3365SOL     OW13457   2.233   0.484   2.582 -0.3111 -0.4799  0.3581
 3365SOL    HW113458   2.197   0.544   2.648 -2.5029 -2.0646  0.6980
 3365SOL    HW213459   2.257   0.406   2.631 -0.8977 -1.2428 -0.5497
 3365SOL     MW13460   2.231   0.482   2.598 -0.6851 -0.7958  0.2817
 3366SOL     OW13461   2.361   3.412   3.627 -0.3625  0.1139 -0.0420
 3366SOL    HW113462   2.320   3.495   3.602 -0.4132 -0.0081 -0.3709
 3366SOL    HW213463   2.390   3.426   3.717 -1.3916  0.1033  0.3023
 3366SOL     MW13464   2.359   3.425   3.636 -0.5078  0.0961 -0.0399
 3367SOL     OW13465   3.927   0.838   4.949  0.2939 -0.1719 -0.5102
 3367SOL    HW113466   3.972   0.918   4.922 -1.0777  0.7873 -0.0097
 3367SOL    HW213467   3.884   0.807   4.869 -0.4752  0.4787 -0.3620
 3367SOL     MW13468   3.928   0.844   4.934  0.0058  0.0448 -0.4229
 3368SOL     OW13469   4.161   1.448   1.342  0.0197  0.0569 -0.1859
 3368SOL    HW113470   4.237   1.426   1.395  0.6478  0.7670 -0.7522
 3368SOL    HW213471   4.130   1.532   1.378  0.5415  0.6187 -1.0042
 3368SOL     MW13472   4.167   1.457   1.354  0.1745  0.2281 -0.3722
 3369SOL     OW13473   2.004   0.967   5.207  0.3694  0.1616  0.2349
 3369SOL    HW113474   2.032   1.007   5.124 -0.2119 -0.0986 -0.0968
 3369SOL    HW213475   2.055   0.887   5.214 -1.7879 -1.4942 -1.4952
 3369SOL     MW13476   2.015   0.962   5.197  0.0008 -0.0962 -0.0426
 3370SOL     OW13477   1.461   4.768   2.041 -0.2817 -0.2178 -0.1502
 3370SOL    HW113478   1.418   4.853   2.053  2.2448  0.8248  3.1699
 3370SOL    HW213479   1.418   4.711   2.106 -0.1958 -0.7268 -0.5355
 3370SOL     MW13480   1.449   4.772   2.052  0.0699 -0.1460  0.2448
 3371SOL     OW13481   1.764   0.990   1.724 -0.2282  0.5163  0.1832
 3371SOL    HW113482   1.784   1.063   1.666  0.9994 -0.2809 -0.4204
 3371SOL    HW213483   1.836   0.988   1.787 -0.7971  0.4592  0.8561
 3371SOL     MW13484   1.776   1.000   1.725 -0.1395  0.4014  0.1925
 3372SOL     OW13485   5.025   2.116   4.585 -0.0495  0.4297 -0.5799
 3372SOL    HW113486   4.987   2.179   4.524 -1.6414 -0.5783 -0.6935
 3372SOL    HW213487   4.952   2.091   4.642  0.8670 -0.3354  0.2896
 3372SOL     MW13488   5.010   2.121   4.584 -0.1404  0.1911 -0.4782
 3373SOL     OW13489   1.051   3.187   5.189  0.5249  0.4857  0.0079
 3373SOL    HW113490   1.113   3.125   5.151  0.8215  1.0182 -0.3881
 3373SOL    HW213491   1.024   3.146   5.271 -0.1009 -0.6516 -0.7444
 3373SOL     MW13492   1.056   3.173   5.195  0.4806  0.4043 -0.1466
 3374SOL     OW13493   4.246   4.904   0.657  0.1329 -0.1382 -0.2023
 3374SOL    HW113494   4.248   4.933   0.566  0.3997  0.5296  0.0130
 3374SOL    HW213495   4.230   4.983   0.708  2.9837  0.0716  0.5481
 3374SOL     MW13496   4.244   4.918   0.652  0.5525 -0.0201 -0.0724
 3375SOL     OW13497   4.300   2.426   2.846  0.4507  0.1476  0.5761
 3375SOL    HW113498   4.322   2.335   2.828 -2.3249 -0.5556  0.2769
 3375SOL    HW213499   4.248   2.423   2.926 -0.4812  1.3379  0.0466
 3375SOL     MW13500   4.296   2.413   2.855 -0.0482  0.2132  0.4646
 3376SOL     OW13501   3.895   1.381   4.164  0.4601 -0.7401  0.1784
 3376SOL    HW113502   3.851   1.349   4.243  1.1583 -1.1498  0.4136
 3376SOL    HW213503   3.953   1.450   4.195  2.3179 -2.3070  0.3950
 3376SOL     MW13504   3.897   1.386   4.179  0.8041 -1.0061  0.2392
 3377SOL     OW13505   1.996   5.211   1.844  0.1174 -0.1715  0.0968
 3377SOL    HW113506   1.940   5.285   1.868  0.2434  0.1435 -0.5287
 3377SOL    HW213507   1.960   5.136   1.891 -1.2064 -0.0965 -0.7601
 3377SOL     MW13508   1.984   5.211   1.853 -0.0438 -0.1190 -0.1027
 3378SOL     OW13509   5.101   3.278   5.363 -0.0063  0.2543  0.3050
 3378SOL    HW113510   5.120   3.370   5.384 -1.0494  0.7580 -0.8034
 3378SOL    HW213511   5.016   3.281   5.320  0.2890 -1.1627 -0.4283
 3378SOL     MW13512   5.092   3.291   5.360 -0.1069  0.1314  0.0571
 3379SOL     OW13513   0.743   4.092   4.123  0.0284  0.0211  0.1620
 3379SOL    HW113514   0.712   4.174   4.161  2.0515 -0.0846  2.2401
 3379SOL    HW213515   0.706   4.024   4.178  0.0588 -0.3604 -0.2778
 3379SOL     MW13516   0.734   4.094   4.135  0.3047 -0.0444  0.3825
 3380SOL     OW13517   3.885   1.063   1.745  0.1808  0.2079  0.1111
 3380SOL    HW113518   3.808   1.066   1.689 -0.3133  0.6679  0.8017
 3380SOL    HW213519   3.950   1.015   1.694 -0.9245 -1.2173 -0.0211
 3380SOL     MW13520   3.884   1.057   1.731 -0.0345  0.0780  0.1863
 3381SOL     OW13521   4.516   0.900   1.153 -0.2427 -0.3660 -0.5967
 3381SOL    HW113522   4.535   0.980   1.201  1.2434 -0.7245 -0.5585
 3381SOL    HW213523   4.460   0.849   1.212 -2.1045  1.0527 -1.0391
 3381SOL     MW13524   4.511   0.904   1.167 -0.2932 -0.2233 -0.6511
 3382SOL     OW13525   3.829   4.991   4.883 -0.2071  0.2932 -0.0147
 3382SOL    HW113526   3.914   4.969   4.847 -0.3660 -2.8152  1.2130
 3382SOL    HW213527   3.841   4.986   4.978 -1.4578  1.1999  0.2236
 3382SOL     MW13528   3.842   4.987   4.891 -0.3968 -0.0031  0.1826
 3383SOL     OW13529   0.830   4.875   2.990  0.0192 -0.1645 -0.4367
 3383SOL    HW113530   0.905   4.820   3.014 -0.4111  0.3025  2.3391
 3383SOL    HW213531   0.862   4.965   3.000  0.3058  0.2034 -3.5863
 3383SOL     MW13532   0.845   4.880   2.995 -0.0002 -0.0521 -0.4870
 3384SOL     OW13533   1.155   1.923   4.164 -0.7083 -0.0353 -0.2388
 3384SOL    HW113534   1.188   1.997   4.214 -1.0769 -0.6599  0.9504
 3384SOL    HW213535   1.188   1.939   4.075 -0.3489  1.2753  0.0949
 3384SOL     MW13536   1.164   1.935   4.159 -0.7096  0.0570 -0.0339
 3385SOL     OW13537   3.126   3.876   2.517  0.2741 -0.5351 -0.5385
 3385SOL    HW113538   3.114   3.948   2.578  0.9207  1.8188 -3.0065
 3385SOL    HW213539   3.204   3.830   2.550  0.6998  0.7531  0.3175
 3385SOL     MW13540   3.135   3.879   2.530  0.4184 -0.0450 -0.7555
 3386SOL     OW13541   0.128   1.854   2.401  0.1661 -0.1309  0.2567
 3386SOL    HW113542   0.188   1.917   2.441 -0.8419  0.9506  0.1346
 3386SOL    HW213543   0.184   1.783   2.370  1.3616  0.8291  0.1702
 3386SOL     MW13544   0.143   1.853   2.402  0.1913  0.1439  0.2286
 3387SOL     OW13545   1.020   2.991   3.713  0.1528 -0.3401 -0.9008
 3387SOL    HW113546   1.037   2.898   3.730  1.3509 -0.2823 -1.6114
 3387SOL    HW213547   1.068   3.037   3.783 -1.2777 -0.2509  0.0628
 3387SOL     MW13548   1.029   2.985   3.725  0.1215 -0.3203 -0.8668
 3388SOL     OW13549   4.044   3.004   4.917 -0.6706 -0.5983  0.2353
 3388SOL    HW113550   3.984   3.072   4.886  0.4163 -0.0986 -0.8413
 3388SOL    HW213551   4.101   3.049   4.979 -0.6696 -0.8009  0.3820
 3388SOL     MW13552   4.043   3.019   4.922 -0.5242 -0.5583  0.1102
 3389SOL     OW13553   0.967   4.356   0.313 -0.1249 -0.2485 -0.1990
 3389SOL    HW113554   0.982   4.432   0.370 -0.1203 -1.0618  0.9337
 3389SOL    HW213555   1.007   4.283   0.361 -0.8542 -1.0990 -0.8667
 3389SOL     MW13556   0.974   4.356   0.327 -0.2225 -0.4724 -0.1364
 3390SOL     OW13557   5.492   4.587   4.487 -0.2539  0.1760  0.7529
 3390SOL    HW113558   5.490   4.508   4.541 -1.1938  0.1851  0.7558
 3390SOL    HW213559   5.400   4.614   4.482 -0.3050 -0.2135 -1.4355
 3390SOL     MW13560   5.479   4.580   4.494 -0.3872  0.1248  0.4588
 3391SOL     OW13561   3.136   2.175   2.269  0.2265 -0.2838  0.3044
 3391SOL    HW113562   3.122   2.177   2.363  0.5040 -0.0263  0.3419
 3391SOL    HW213563   3.230   2.188   2.258  0.2257 -0.5269  0.0001
 3391SOL     MW13564   3.147   2.177   2.280  0.2637 -0.2819  0.2685
 3392SOL     OW13565   1.518   2.182   0.875  0.1999  0.4351 -0.1899
 3392SOL    HW113566   1.585   2.250   0.866  2.6218 -1.8877 -1.0676
 3392SOL    HW213567   1.436   2.226   0.850  1.6412  2.9593 -0.8452
 3392SOL     MW13568   1.516   2.197   0.870  0.7198  0.4622 -0.3962
 3393SOL     OW13569   4.675   4.228   5.415  0.2058 -0.3154 -0.3195
 3393SOL    HW113570   4.672   4.275   5.331 -0.5321  1.8903  0.8553
 3393SOL    HW213571   4.614   4.155   5.403 -0.1711  0.1704 -1.5809
 3393SOL     MW13572   4.666   4.224   5.402  0.0558  0.0468 -0.3312
 3394SOL     OW13573   2.491   1.971   1.373  0.0651  0.0320  0.2609
 3394SOL    HW113574   2.450   1.937   1.293  0.4482  0.1139  0.0230
 3394SOL    HW213575   2.542   2.046   1.342  0.8943 -0.4457  0.4469
 3394SOL     MW13576   2.493   1.977   1.358  0.2283 -0.0213  0.2539
 3395SOL     OW13577   0.469   5.022   5.341  0.2259 -0.5037  0.8773
 3395SOL    HW113578   0.409   5.092   5.313 -0.9189 -1.2869  1.3137
 3395SOL    HW213579   0.553   5.067   5.354  0.1683  0.3661 -1.2180
 3395SOL     MW13580   0.472   5.038   5.339  0.0641 -0.4920  0.6541
 3396SOL     OW13581   2.017   4.738   1.314  0.5686 -0.3024  0.0466
 3396SOL    HW113582   2.003   4.808   1.377 -2.1588  0.4353 -1.2375
 3396SOL    HW213583   1.930   4.716   1.282  1.4829 -3.2364 -0.7676
 3396SOL     MW13584   2.004   4.744   1.318  0.3246 -0.5980 -0.2358
 3397SOL     OW13585   4.117   0.628   0.268  0.6601 -0.0459 -0.2076
 3397SOL    HW113586   4.153   0.541   0.255 -2.1034 -1.3134 -0.2210
 3397SOL    HW213587   4.074   0.649   0.185 -0.1637  0.5338  0.3475
 3397SOL     MW13588   4.116   0.619   0.255  0.1773 -0.1384 -0.1347
 3398SOL     OW13589   1.189   3.621   4.556 -0.2174  0.1540  0.5486
 3398SOL    HW113590   1.230   3.540   4.586  1.2888  0.7734  0.2542
 3398SOL    HW213591   1.245   3.690   4.591 -1.8801  1.1293  1.4059
 3398SOL     MW13592   1.202   3.619   4.565 -0.2384  0.3686  0.6243
 3399SOL     OW13593   3.327   3.746   2.014  0.1029 -0.1230 -0.2450
 3399SOL    HW113594   3.238   3.773   2.037  0.0157  0.3869 -1.1012
 3399SOL    HW213595   3.362   3.821   1.964  0.9827 -0.3473  0.0192
 3399SOL     MW13596   3.319   3.760   2.010  0.2096 -0.0846 -0.3247
 3400SOL     OW13597   1.060   0.356   2.757  0.4855  0.2939 -0.1277
 3400SOL    HW113598   1.083   0.353   2.664  0.7081 -2.8404 -0.0534
 3400SOL    HW213599   1.144   0.350   2.802  0.2833  0.5571  0.2941
 3400SOL     MW13600   1.075   0.355   2.751  0.4882 -0.0925 -0.0609
 3401SOL     OW13601   3.523   2.877   4.100 -0.0761  0.3165  0.3162
 3401SOL    HW113602   3.605   2.832   4.080  1.6959  3.3742  0.0154
 3401SOL    HW213603   3.511   2.938   4.027 -3.0463 -0.4549  0.0188
 3401SOL     MW13604   3.532   2.879   4.087 -0.2374  0.6242  0.2357
 3402SOL     OW13605   0.767   2.140   2.570  0.1255 -0.2852 -0.0552
 3402SOL    HW113606   0.748   2.085   2.494  1.1738  0.9164 -1.2256
 3402SOL    HW213607   0.852   2.109   2.601  0.2669  0.0431 -0.1189
 3402SOL     MW13608   0.776   2.128   2.564  0.2856 -0.0793 -0.2213
 3403SOL     OW13609   3.409   4.652   5.443  0.2718  0.1216 -0.0119
 3403SOL    HW113610   3.369   4.729   5.403 -0.9098 -1.2492 -1.5970
 3403SOL    HW213611   3.430   4.679   5.533 -0.2018  2.2260 -0.4988
 3403SOL     MW13612   3.406   4.666   5.450  0.0490  0.2203 -0.2907
 3404SOL     OW13613   5.039   2.040   1.892  0.1948  0.0910 -0.1475
 3404SOL    HW113614   4.943   2.044   1.882  0.2344  3.1349 -0.3650
 3404SOL    HW213615   5.056   2.096   1.968  1.8540  0.2485 -0.6158
 3404SOL     MW13616   5.028   2.048   1.901  0.4234  0.5218 -0.2398
 3405SOL     OW13617   3.068   0.083   3.893 -0.7444 -0.4753  0.2851
 3405SOL    HW113618   2.992   0.134   3.922  1.3317  2.8636  0.3626
 3405SOL    HW213619   3.090   0.029   3.969 -1.3225  0.7037  1.3442
 3405SOL     MW13620   3.061   0.083   3.907 -0.5428  0.1327  0.4381
 3406SOL     OW13621   0.603   2.810   1.653  0.2339  0.3537  0.0584
 3406SOL    HW113622   0.586   2.780   1.742  2.1261 -0.5393  0.1704
 3406SOL    HW213623   0.696   2.834   1.653  0.6400 -0.9720 -1.9822
 3406SOL     MW13624   0.613   2.809   1.665  0.5432  0.0551 -0.2012
 3407SOL     OW13625   0.193   2.774   0.913 -0.3330 -0.6999 -0.1954
 3407SOL    HW113626   0.178   2.725   0.993 -2.6141  0.6180  0.2800
 3407SOL    HW213627   0.180   2.865   0.938  0.8699 -0.0809 -1.6689
 3407SOL     MW13628   0.190   2.780   0.927 -0.4781 -0.4392 -0.3297
 3408SOL     OW13629   4.331   5.110   5.419  0.1605  0.0231 -0.3243
 3408SOL    HW113630   4.248   5.157   5.421  0.3321  0.3071  0.9150
 3408SOL    HW213631   4.398   5.178   5.412  0.3686 -0.0542  0.6760
 3408SOL     MW13632   4.329   5.125   5.419  0.2116  0.0509 -0.0229
 3409SOL     OW13633   3.835   2.292   1.267 -0.4597 -0.7108 -0.3777
 3409SOL    HW113634   3.861   2.275   1.177  0.7060  0.3766 -0.2852
 3409SOL    HW213635   3.740   2.303   1.264 -0.6544 -2.2700 -1.1822
 3409SOL     MW13636   3.826   2.291   1.255 -0.3290 -0.7743 -0.4735
 3410SOL     OW13637   0.352   1.742   1.398 -0.0809 -0.0563  0.0786
 3410SOL    HW113638   0.438   1.758   1.435  0.3409  0.7475 -1.2022
 3410SOL    HW213639   0.361   1.660   1.350  0.3599  0.7060 -1.1715
 3410SOL     MW13640   0.364   1.733   1.397  0.0352  0.1545 -0.2620
 3411SOL     OW13641   3.614   4.014   2.033 -0.0760  0.3341  0.2089
 3411SOL    HW113642   3.619   4.109   2.036  0.5224  0.3570 -0.9028
 3411SOL    HW213643   3.544   3.995   1.970  0.5579  0.0563 -0.4266
 3411SOL     MW13644   3.605   4.024   2.025  0.0898  0.2998 -0.0263
 3412SOL     OW13645   2.789   3.691   4.543  0.4774  0.5195 -0.2591
 3412SOL    HW113646   2.850   3.634   4.498  2.1846  0.8061  1.5581
 3412SOL    HW213647   2.826   3.778   4.535  0.1645  0.7464  0.5758
 3412SOL     MW13648   2.802   3.695   4.536  0.6650  0.5886  0.0979
 3413SOL     OW13649   5.113   4.168   3.205 -0.6616 -0.1510 -0.0623
 3413SOL    HW113650   5.110   4.076   3.230 -1.4309 -0.3334 -0.7814
 3413SOL    HW213651   5.158   4.211   3.278  0.1154 -1.1551  0.0759
 3413SOL     MW13652   5.119   4.162   3.218 -0.6606 -0.3107 -0.1405
 3414SOL     OW13653   3.882   2.636   3.411 -0.1498  0.2822  0.3148
 3414SOL    HW113654   3.793   2.625   3.379 -0.5085  0.5583  1.1797
 3414SOL    HW213655   3.872   2.656   3.504  0.8190  0.2011  0.4521
 3414SOL     MW13656   3.869   2.637   3.419 -0.0677  0.3084  0.4497
 3415SOL     OW13657   2.019   3.034   4.197 -0.5199  0.3829 -0.2949
 3415SOL    HW113658   2.107   3.048   4.231 -0.2567 -0.0648 -0.7844
 3415SOL    HW213659   2.014   2.940   4.180 -1.2023  0.3511  0.0234
 3415SOL     MW13660   2.030   3.023   4.199 -0.5763  0.3184 -0.3180
 3416SOL     OW13661   5.467   2.032   1.108  0.0085  0.0146  0.0771
 3416SOL    HW113662   5.391   2.021   1.052  0.2255  1.8979 -0.6793
 3416SOL    HW213663   5.539   1.993   1.059  0.0689  1.0379 -0.6836
 3416SOL     MW13664   5.467   2.025   1.094  0.0458  0.4058 -0.1271
 3417SOL     OW13665   1.016   3.616   0.228 -0.1299  0.4782  0.8556
 3417SOL    HW113666   1.077   3.542   0.226 -0.3045  0.3203 -1.8659
 3417SOL    HW213667   1.071   3.692   0.211 -0.5805  0.3623 -1.3583
 3417SOL     MW13668   1.031   3.616   0.226 -0.2141  0.4414  0.1914
 3418SOL     OW13669   2.216   3.668   5.336 -0.6105  0.3155  0.1800
 3418SOL    HW113670   2.298   3.673   5.287 -0.4244 -0.0492  0.4531
 3418SOL    HW213671   2.223   3.587   5.386 -1.3894 -0.0233 -0.2547
 3418SOL     MW13672   2.228   3.658   5.336 -0.6903  0.2208  0.1582
 3419SOL     OW13673   3.926   1.085   3.027  0.1430 -0.1102  0.3273
 3419SOL    HW113674   3.994   1.018   3.031  0.0125 -0.3945 -1.3629
 3419SOL    HW213675   3.848   1.038   2.999  0.2644  0.8398 -1.8182
 3419SOL     MW13676   3.925   1.070   3.024  0.1418 -0.0206 -0.1889
 3420SOL     OW13677   1.709   2.265   3.437 -0.4337  0.0631  0.4610
 3420SOL    HW113678   1.720   2.348   3.390  2.6060  1.4981  3.2786
 3420SOL    HW213679   1.723   2.198   3.371  1.9127  1.9149 -1.0827
 3420SOL     MW13680   1.712   2.267   3.422  0.2911  0.5055  0.6324
 3421SOL     OW13681   2.039   0.578   2.406  0.1473 -0.1939  0.0673
 3421SOL    HW113682   1.964   0.578   2.466  1.0429  1.2586  1.2577
 3421SOL    HW213683   2.109   0.535   2.455  0.3458 -0.7513 -0.6990
 3421SOL     MW13684   2.038   0.572   2.421  0.2946 -0.0734  0.1244
 3422SOL     OW13685   5.260   5.377   3.107 -0.6407 -0.2044 -0.3005
 3422SOL    HW113686   5.243   5.285   3.125  2.2912 -1.2370 -2.1996
 3422SOL    HW213687   5.332   5.400   3.166  0.7045 -0.0983 -1.9052
 3422SOL     MW13688   5.267   5.368   3.117 -0.0651 -0.3291 -0.7721
 3423SOL     OW13689   1.630   1.803   3.885 -0.3695 -0.2858 -0.4915
 3423SOL    HW113690   1.722   1.797   3.863  0.2622 -0.8094  1.9822
 3423SOL    HW213691   1.607   1.717   3.919 -1.0242  0.5961  1.4357
 3423SOL     MW13692   1.639   1.791   3.886 -0.3726 -0.2375  0.1008
 3424SOL     OW13693   2.662   4.845   2.136  0.0789  0.3290 -0.2962
 3424SOL    HW113694   2.681   4.763   2.092 -0.1102  0.4336 -0.5743
 3424SOL    HW213695   2.666   4.911   2.067  1.5344  0.7413  0.1425
 3424SOL     MW13696   2.666   4.843   2.121  0.2493  0.3986 -0.2746
 3425SOL     OW13697   3.266   1.007   1.203  0.4283  0.3072 -0.1512
 3425SOL    HW113698   3.348   0.962   1.225  1.0782  1.7967  0.6125
 3425SOL    HW213699   3.241   0.970   1.118  0.0167 -2.6709  1.1235
 3425SOL     MW13700   3.274   0.996   1.195  0.4603  0.1069  0.1231
 3426SOL     OW13701   2.481   3.204   2.820  0.0926 -0.5878 -0.1849
 3426SOL    HW113702   2.445   3.270   2.879 -0.1218 -1.0027  0.1483
 3426SOL    HW213703   2.462   3.121   2.862  1.1644 -0.8309 -0.1534
 3426SOL     MW13704   2.474   3.202   2.833  0.2080 -0.6764 -0.1359
 3427SOL     OW13705   2.190   3.671   1.168 -0.1635 -0.3519 -0.5048
 3427SOL    HW113706   2.215   3.592   1.121  0.3399 -0.5091  0.0143
 3427SOL    HW213707   2.186   3.739   1.101 -0.8164 -0.8505 -0.9933
 3427SOL     MW13708   2.193   3.670   1.153 -0.1836 -0.4402 -0.5007
 3428SOL     OW13709   0.393   5.346   0.630 -0.0485 -0.2983 -0.0719
 3428SOL    HW113710   0.333   5.365   0.559 -0.5162 -2.4722 -0.3409
 3428SOL    HW213711   0.442   5.269   0.600  2.6599  1.1404  0.2877
 3428SOL     MW13712   0.392   5.338   0.616  0.2530 -0.3972 -0.0597
 3429SOL     OW13713   4.181   4.695   0.052  0.6850 -0.1397  0.0355
 3429SOL    HW113714   4.189   4.609   0.010  1.4708 -0.1101  0.1103
 3429SOL    HW213715   4.168   4.756  -0.020  0.5396 -0.2672 -0.0481
 3429SOL     MW13716   4.180   4.692   0.037  0.7711 -0.1529  0.0343
 3430SOL     OW13717   2.674   4.877   1.348  0.0709 -0.4640 -0.7491
 3430SOL    HW113718   2.649   4.787   1.329 -0.7542 -0.3983 -0.0005
 3430SOL    HW213719   2.610   4.930   1.301  0.1817 -0.2631 -0.6751
 3430SOL     MW13720   2.662   4.872   1.339 -0.0252 -0.4281 -0.6384
 3431SOL     OW13721   3.786   4.081   3.549 -0.3060 -0.1201 -0.2100
 3431SOL    HW113722   3.793   4.170   3.583 -2.9480 -0.4545  1.5290
 3431SOL    HW213723   3.857   4.033   3.592  0.6116  0.9500 -0.5063
 3431SOL     MW13724   3.796   4.086   3.559 -0.5381 -0.0211 -0.0158
 3432SOL     OW13725   4.804   0.523   0.933 -0.0698 -0.5075  0.2765
 3432SOL    HW113726   4.764   0.610   0.926 -1.6607 -1.2573 -0.6711
 3432SOL    HW213727   4.768   0.487   1.015  0.2061 -0.4474  0.4231
 3432SOL     MW13728   4.794   0.530   0.943 -0.2468 -0.6003  0.1687
 3433SOL     OW13729   2.555   1.500   0.972 -0.1467 -0.3839 -0.4315
 3433SOL    HW113730   2.614   1.446   0.920  0.9506  0.8861 -0.5713
 3433SOL    HW213731   2.489   1.531   0.910 -1.0585 -1.8692 -0.2594
 3433SOL     MW13732   2.554   1.497   0.957 -0.1218 -0.4128 -0.4271
 3434SOL     OW13733   0.633   4.845   0.691 -0.4691  0.2015 -0.6380
 3434SOL    HW113734   0.639   4.918   0.630 -0.8962 -0.2780 -1.2591
 3434SOL    HW213735   0.565   4.872   0.753  0.7490  1.1876  0.3431
 3434SOL     MW13736   0.625   4.859   0.691 -0.3626  0.2697 -0.5896
 3435SOL     OW13737   5.262   1.734   3.981  0.1237 -0.2244 -0.3927
 3435SOL    HW113738   5.259   1.648   4.025  0.5721 -0.2429 -0.3925
 3435SOL    HW213739   5.268   1.797   4.053 -1.6254 -0.0874 -0.3222
 3435SOL     MW13740   5.262   1.731   3.997 -0.0514 -0.2084 -0.3832
 3436SOL     OW13741   1.357   4.916   3.337 -0.2744  0.7563  0.6457
 3436SOL    HW113742   1.411   4.839   3.318 -1.2104  0.7131 -2.3850
 3436SOL    HW213743   1.267   4.883   3.339 -0.8519  1.8680 -2.2662
 3436SOL     MW13744   1.352   4.901   3.335 -0.4781  0.9001 -0.1540
 3437SOL     OW13745   4.372   5.449   2.241  0.4947  0.5290  0.0843
 3437SOL    HW113746   4.348   5.496   2.320 -0.1957 -0.0216  0.2092
 3437SOL    HW213747   4.466   5.432   2.251  0.7046  1.6305  0.1505
 3437SOL     MW13748   4.382   5.453   2.253  0.4301  0.6031  0.1100
 3438SOL     OW13749   3.381   5.373   2.581  0.1945  0.0729 -0.5722
 3438SOL    HW113750   3.351   5.329   2.502 -0.0824 -0.1979 -0.3183
 3438SOL    HW213751   3.469   5.340   2.595 -1.1009 -2.9430  1.4202
 3438SOL     MW13752   3.389   5.363   2.572 -0.0171 -0.3695 -0.2699
 3439SOL     OW13753   2.671   4.108   3.494 -0.0571 -0.0219  0.3492
 3439SOL    HW113754   2.753   4.077   3.532 -0.2296 -0.2041  0.5805
 3439SOL    HW213755   2.610   4.110   3.568 -0.0871  0.7485  0.3131
 3439SOL     MW13756   2.674   4.104   3.509 -0.0844  0.0573  0.3755
 3440SOL     OW13757   1.932   1.332   5.238 -0.0665  0.4175 -0.1226
 3440SOL    HW113758   1.959   1.349   5.147  0.9314 -0.0203  0.0791
 3440SOL    HW213759   1.883   1.410   5.263  0.1662  0.8090 -0.8414
 3440SOL     MW13760   1.929   1.345   5.229  0.0991  0.4112 -0.1922
 3441SOL     OW13761   1.881   5.398   4.329 -0.1412 -0.2847 -0.1800
 3441SOL    HW113762   1.831   5.449   4.393 -0.9591 -0.1926 -0.8616
 3441SOL    HW213763   1.942   5.460   4.290 -1.2221  0.2617 -1.1008
 3441SOL     MW13764   1.882   5.413   4.332 -0.3968 -0.1988 -0.3956
 3442SOL     OW13765   1.586   4.120   2.516 -0.3738  0.1551 -0.0723
 3442SOL    HW113766   1.636   4.085   2.443  0.7232 -0.5393  0.9846
 3442SOL    HW213767   1.528   4.049   2.542  1.2367 -0.6552  1.5116
 3442SOL     MW13768   1.585   4.106   2.510 -0.0094 -0.0474  0.2831
 3443SOL     OW13769   5.274   4.357   4.785  0.6557  0.0547  0.5172
 3443SOL    HW113770   5.327   4.336   4.861  0.7651  2.2891  1.1241
 3443SOL    HW213771   5.252   4.450   4.796 -1.4539 -0.2178 -0.8840
 3443SOL     MW13772   5.278   4.367   4.797  0.3865  0.3188  0.4103
 3444SOL     OW13773   2.868   3.361   1.342  0.2872 -0.6582  0.4711
 3444SOL    HW113774   2.935   3.411   1.296 -0.1958 -1.0834 -0.7311
 3444SOL    HW213775   2.899   3.271   1.341 -0.7486 -1.0482 -1.0519
 3444SOL     MW13776   2.881   3.356   1.336  0.0828 -0.7679  0.1043
 3445SOL     OW13777   5.000   3.117   1.869  0.4197 -0.4970  0.1064
 3445SOL    HW113778   5.046   3.187   1.822 -0.2608 -0.6643 -0.8506
 3445SOL    HW213779   4.939   3.081   1.804 -0.1803 -1.0932  0.9781
 3445SOL     MW13780   4.998   3.122   1.854  0.2474 -0.5998  0.0949
 3446SOL     OW13781   2.871   2.192   1.468 -0.6713 -0.0847 -0.3708
 3446SOL    HW113782   2.812   2.198   1.393 -0.7908 -0.6593 -0.3232
 3446SOL    HW213783   2.815   2.210   1.544 -1.3690 -3.0296 -0.0808
 3446SOL     MW13784   2.855   2.196   1.468 -0.7813 -0.5583 -0.3254
 3447SOL     OW13785   0.509   5.108   0.506  0.3413  0.1470 -0.4220
 3447SOL    HW113786   0.430   5.065   0.540 -0.3026  1.2486 -0.5001
 3447SOL    HW213787   0.492   5.119   0.412  0.2377  1.1039 -0.3015
 3447SOL     MW13788   0.496   5.103   0.498  0.2407  0.4240 -0.4163
 3448SOL     OW13789   1.418   0.515   0.225 -0.7353  0.5133  0.1333
 3448SOL    HW113790   1.413   0.586   0.290  0.1147  0.4772  0.2554
 3448SOL    HW213791   1.397   0.436   0.274 -0.2383  0.5045  0.3382
 3448SOL     MW13792   1.414   0.514   0.240 -0.5541  0.5073  0.1773
 3449SOL     OW13793   3.698   3.091   1.760  0.1876 -0.2602  0.2794
 3449SOL    HW113794   3.667   3.178   1.734 -2.0093 -1.0565  0.0530
 3449SOL    HW213795   3.687   3.089   1.855 -0.1757 -0.4333  0.2351
 3449SOL     MW13796   3.692   3.102   1.769 -0.1570 -0.3906  0.2430
 3450SOL     OW13797   0.029   3.451   2.689  0.0558  0.1719  0.3289
 3450SOL    HW113798   0.012   3.517   2.622  0.6281  0.2406  0.2470
 3450SOL    HW213799  -0.010   3.371   2.655 -1.8209  0.7353  1.0136
 3450SOL     MW13800   0.021   3.449   2.676 -0.1198  0.2570  0.4101
 3451SOL     OW13801   4.252   4.017   0.919  0.4677 -0.1719  0.2457
 3451SOL    HW113802   4.302   4.094   0.892  1.3299 -0.6966  0.2673
 3451SOL    HW213803   4.226   3.975   0.836 -1.5919  1.0876  0.1998
 3451SOL     MW13804   4.256   4.022   0.904  0.3066 -0.0730  0.2424
 3452SOL     OW13805   2.889   3.635   5.184 -0.0097 -0.0351 -0.1511
 3452SOL    HW113806   2.971   3.605   5.224 -0.1476 -1.2247 -0.7138
 3452SOL    HW213807   2.821   3.596   5.240 -0.2391  2.2706  1.2887
 3452SOL     MW13808   2.891   3.625   5.197 -0.0591  0.1151 -0.0330
 3453SOL     OW13809   3.244   3.324   4.966  0.5153  0.3580 -0.0239
 3453SOL    HW113810   3.330   3.324   5.008  0.0484  0.3597  0.9621
 3453SOL    HW213811   3.262   3.300   4.875  1.4612 -0.4998  0.3694
 3453SOL     MW13812   3.258   3.321   4.959  0.5798  0.2428  0.1617
 3454SOL     OW13813   3.620   1.299   4.076  0.1408  0.2101 -0.0268
 3454SOL    HW113814   3.605   1.359   4.003  1.4742  2.2981  1.2857
 3454SOL    HW213815   3.708   1.320   4.107 -0.2525 -0.7995  1.9844
 3454SOL     MW13816   3.630   1.310   4.071  0.2673  0.3552  0.4205
 3455SOL     OW13817   4.058   3.986   4.626 -0.4818  0.5663 -0.1791
 3455SOL    HW113818   4.064   3.891   4.613  1.5052  0.9174 -2.4751
 3455SOL    HW213819   4.112   4.003   4.703  1.6074  0.0811 -1.4777
 3455SOL     MW13820   4.066   3.976   4.635  0.0668  0.5483 -0.6628
 3456SOL     OW13821   2.002   2.342   0.863 -0.0895  0.0246  0.3534
 3456SOL    HW113822   2.055   2.297   0.798 -0.9702 -1.9382  0.9393
 3456SOL    HW213823   2.063   2.365   0.933  0.2149 -1.1270  0.4703
 3456SOL     MW13824   2.017   2.339   0.864 -0.1671 -0.3945  0.4480
 3457SOL     OW13825   1.716   2.121   3.199 -0.3095 -0.5419  0.3558
 3457SOL    HW113826   1.636   2.071   3.181  0.2745 -1.2835 -0.2508
 3457SOL    HW213827   1.710   2.198   3.141 -0.8198 -0.3196  0.6948
 3457SOL     MW13828   1.705   2.125   3.189 -0.2996 -0.6118  0.3198
 3458SOL     OW13829   3.391   4.981   1.654  0.5636  0.8285 -0.2801
 3458SOL    HW113830   3.408   5.069   1.622 -1.7759  2.2193  1.9818
 3458SOL    HW213831   3.456   4.967   1.723  1.7663  0.1884 -1.4881
 3458SOL     MW13832   3.402   4.991   1.659  0.4106  0.9295 -0.1383
 3459SOL     OW13833   1.375   2.176   5.058  0.2323  0.0323  0.4840
 3459SOL    HW113834   1.359   2.086   5.030 -0.8374  0.2100  0.4941
 3459SOL    HW213835   1.440   2.168   5.128  1.1214 -0.6155 -0.3713
 3459SOL     MW13836   1.382   2.163   5.064  0.2080 -0.0310  0.3702
 3460SOL     OW13837   1.393   3.775   4.675  0.5268  0.0270 -0.8240
 3460SOL    HW113838   1.424   3.859   4.642  1.3762  0.0410 -0.0292
 3460SOL    HW213839   1.473   3.727   4.698  0.0206 -0.6087 -0.3417
 3460SOL     MW13840   1.408   3.780   4.674  0.5730 -0.0567 -0.6521
 3461SOL     OW13841   0.886   5.000   3.986  0.0055 -0.3323 -0.7731
 3461SOL    HW113842   0.814   5.024   3.927  0.1237  0.7115 -0.5011
 3461SOL    HW213843   0.965   5.016   3.935  0.0787 -0.7014 -0.7824
 3461SOL     MW13844   0.887   5.005   3.971  0.0313 -0.2415 -0.7378
 3462SOL     OW13845   2.700   4.773   5.284 -0.5569  0.3513 -0.1441
 3462SOL    HW113846   2.734   4.684   5.282  1.4800  1.0573  0.7702
 3462SOL    HW213847   2.726   4.811   5.200  0.7592  0.8032  0.4412
 3462SOL     MW13848   2.708   4.766   5.273 -0.1056  0.5072  0.0577
 3463SOL     OW13849   1.597   4.949   4.787  0.2404 -0.1148 -0.1105
 3463SOL    HW113850   1.532   4.984   4.848 -0.3241  1.2482 -1.4394
 3463SOL    HW213851   1.546   4.918   4.712  1.1155  1.5556 -1.4522
 3463SOL     MW13852   1.582   4.949   4.785  0.2822  0.2935 -0.4699
 3464SOL     OW13853   3.208   2.746   4.374  0.4070  0.1262  0.0205
 3464SOL    HW113854   3.201   2.652   4.394  0.6666 -0.2753 -1.6601
 3464SOL    HW213855   3.124   2.782   4.402  0.3552 -0.5673  0.8089
 3464SOL     MW13856   3.196   2.738   4.381  0.4350 -0.0212 -0.0996
 3465SOL     OW13857   1.020   0.863   1.199  0.2902 -0.0862 -0.4351
 3465SOL    HW113858   1.049   0.948   1.231 -0.5631  0.6738 -1.6263
 3465SOL    HW213859   1.027   0.805   1.276 -0.2043  1.3056  0.7023
 3465SOL     MW13860   1.025   0.867   1.214  0.1088  0.2034 -0.4423
 3466SOL     OW13861   1.265   0.914   1.053  0.0782  0.3910  0.2170
 3466SOL    HW113862   1.305   0.998   1.076 -1.1953  1.0659  0.0896
 3466SOL    HW213863   1.180   0.916   1.097 -0.8942  0.1517 -1.5691
 3466SOL     MW13864   1.259   0.926   1.062 -0.2241  0.4497 -0.0405
 3467SOL     OW13865   3.616   3.971   3.725 -0.3092 -0.5715  0.2720
 3467SOL    HW113866   3.545   4.033   3.742  0.2550  0.2612 -0.3355
 3467SOL    HW213867   3.666   4.010   3.653  2.0871  0.0466  2.1064
 3467SOL     MW13868   3.613   3.984   3.718  0.0892 -0.3763  0.4371
 3468SOL     OW13869   0.278   3.816   1.832 -0.5761 -0.4158 -0.7599
 3468SOL    HW113870   0.311   3.727   1.818 -1.0390 -0.9489  1.2422
 3468SOL    HW213871   0.214   3.828   1.762  0.4763 -1.1072 -1.8891
 3468SOL     MW13872   0.274   3.806   1.821 -0.4968 -0.5806 -0.6424
 3469SOL     OW13873   5.009   2.897   3.017 -0.0318  0.2978  0.0217
 3469SOL    HW113874   4.925   2.854   3.002 -0.4824  1.4340 -0.8557
 3469SOL    HW213875   4.987   2.989   3.031  1.0343  0.5378  0.2278
 3469SOL     MW13876   4.995   2.904   3.017  0.0510  0.4830 -0.0687
 3470SOL     OW13877   1.350   4.297   1.484  0.7804  0.3013 -0.2619
 3470SOL    HW113878   1.361   4.297   1.389  0.2088 -1.7630 -0.3618
 3470SOL    HW213879   1.439   4.290   1.518  0.9431  0.3801 -0.6657
 3470SOL     MW13880   1.364   4.296   1.476  0.7253  0.0341 -0.3297
 3471SOL     OW13881   1.320   0.441   4.090  0.0689  0.2491 -0.1284
 3471SOL    HW113882   1.390   0.490   4.046  1.1571 -0.5011  0.6854
 3471SOL    HW213883   1.323   0.354   4.049  0.0084  0.0432  0.2945
 3471SOL     MW13884   1.330   0.436   4.079  0.2072  0.1204  0.0380
 3472SOL     OW13885   2.660   0.909   4.649  0.4008  0.1500  0.1697
 3472SOL    HW113886   2.623   0.997   4.659 -1.4491 -0.0745 -3.1502
 3472SOL    HW213887   2.736   0.921   4.592  1.7981 -0.1883  1.8579
 3472SOL     MW13888   2.665   0.923   4.643  0.3399  0.0742 -0.0499
 3473SOL     OW13889   4.594   3.215   4.025  0.4745 -0.3308  0.0628
 3473SOL    HW113890   4.597   3.178   3.937 -0.3851 -0.6277  0.1512
 3473SOL    HW213891   4.671   3.272   4.030  0.5763 -0.3812 -0.8480
 3473SOL     MW13892   4.605   3.218   4.014  0.3725 -0.3776 -0.0479
 3474SOL     OW13893   3.246   4.343   2.050  0.2845 -0.0505 -0.6363
 3474SOL    HW113894   3.165   4.317   2.094 -0.0991 -0.1019 -1.3655
 3474SOL    HW213895   3.233   4.435   2.027  0.8599  0.2502  0.1723
 3474SOL     MW13896   3.233   4.352   2.053  0.3103 -0.0169 -0.6256
 3475SOL     OW13897   0.379   4.936   3.579 -0.2967 -0.3733 -0.4914
 3475SOL    HW113898   0.301   4.990   3.565  0.4920  0.1536 -3.4690
 3475SOL    HW213899   0.345   4.847   3.588 -1.2453 -0.2617 -2.5210
 3475SOL     MW13900   0.363   4.931   3.578 -0.3182 -0.2873 -1.1653
 3476SOL     OW13901   3.058   1.362   4.834  0.4236 -0.1717  0.4692
 3476SOL    HW113902   3.072   1.273   4.868 -0.3829 -0.5665 -0.1795
 3476SOL    HW213903   3.133   1.378   4.778 -0.2136 -1.1099 -0.6954
 3476SOL     MW13904   3.070   1.352   4.831  0.2293 -0.3511  0.2251
 3477SOL     OW13905   4.894   0.187   2.028 -0.2663 -0.3322  0.3155
 3477SOL    HW113906   4.976   0.189   2.077 -0.5043  0.3403  0.6984
 3477SOL    HW213907   4.915   0.137   1.949  0.6923  0.3653  0.1039
 3477SOL     MW13908   4.908   0.181   2.024 -0.1693 -0.1478  0.3386
 3478SOL     OW13909   1.635   0.794   2.897  0.2104 -0.5732  0.0303
 3478SOL    HW113910   1.716   0.744   2.905  0.0211 -1.3852 -2.4172
 3478SOL    HW213911   1.574   0.734   2.854 -0.7451  0.9969 -0.9025
 3478SOL     MW13912   1.638   0.779   2.892  0.0564 -0.4712 -0.4246
 3479SOL     OW13913   1.122   0.485   5.082 -0.0399  0.1051  0.2663
 3479SOL    HW113914   1.037   0.528   5.070 -0.2382 -0.9436 -3.1860
 3479SOL    HW213915   1.186   0.554   5.066 -0.2865  0.2918  0.0687
 3479SOL     MW13916   1.119   0.500   5.078 -0.0998 -0.0109 -0.2249
 3480SOL     OW13917   5.054   1.259   1.408 -0.2168 -0.0116 -0.4858
 3480SOL    HW113918   5.072   1.172   1.445  1.6520  0.5898  0.1129
 3480SOL    HW213919   5.112   1.265   1.332  0.3923  1.0594  0.0418
 3480SOL     MW13920   5.064   1.248   1.403  0.1167  0.2135 -0.3342
 3481SOL     OW13921   2.950   3.519   4.407  0.7879 -0.3132  0.1258
 3481SOL    HW113922   2.869   3.469   4.404  0.9539 -0.7425  1.8011
 3481SOL    HW213923   2.976   3.529   4.316 -1.9697  1.2301 -0.6150
 3481SOL     MW13924   2.943   3.514   4.395  0.4391 -0.1633  0.2516
 3482SOL     OW13925   4.121   5.159   2.568 -0.1676 -0.0499  0.2688
 3482SOL    HW113926   4.032   5.126   2.570 -0.6692  1.2189 -0.1895
 3482SOL    HW213927   4.146   5.166   2.660 -1.3932  1.7378  0.5151
 3482SOL     MW13928   4.113   5.156   2.580 -0.4001  0.3615  0.2403
 3483SOL     OW13929   2.700   2.330   0.845  0.5233  0.6234 -0.3366
 3483SOL    HW113930   2.610   2.319   0.875  0.6924 -0.3532 -0.1640
 3483SOL    HW213931   2.753   2.285   0.910  0.9833 -0.5553 -1.4657
 3483SOL     MW13932   2.695   2.322   0.857  0.6080  0.3333 -0.4654
 3484SOL     OW13933   3.911   3.356   0.557 -0.1897  0.3637  0.1362
 3484SOL    HW113934   3.816   3.344   0.551 -0.3245 -1.3065  3.3202
 3484SOL    HW213935   3.945   3.316   0.477 -2.1087  0.5334 -0.8265
 3484SOL     MW13936   3.903   3.349   0.545 -0.4661  0.1618  0.4351
 3485SOL     OW13937   3.969   1.263   3.915  0.2556 -0.0844  0.4234
 3485SOL    HW113938   3.899   1.207   3.882 -0.1998  1.2495 -1.0625
 3485SOL    HW213939   3.936   1.296   3.998 -1.5723  1.5631 -0.8493
 3485SOL     MW13940   3.955   1.260   3.921 -0.0517  0.3169  0.0521
 3486SOL     OW13941   5.224   4.004   4.664  0.0859 -0.2791  0.2712
 3486SOL    HW113942   5.215   4.056   4.585 -0.5000  0.0547  0.5552
 3486SOL    HW213943   5.186   3.919   4.642  2.0100 -0.9976 -0.5465
 3486SOL     MW13944   5.218   3.999   4.651  0.2660 -0.3308  0.1994
 3487SOL     OW13945   5.259   0.637   4.104  0.0582 -0.0079  0.5355
 3487SOL    HW113946   5.287   0.547   4.125  2.0141  0.3238 -0.3833
 3487SOL    HW213947   5.199   0.626   4.030 -0.2543 -0.6042  0.8671
 3487SOL     MW13948   5.255   0.623   4.097  0.2794 -0.0435  0.4565
 3488SOL     OW13949   2.552   3.358   0.874  0.2845  0.5177  0.5508
 3488SOL    HW113950   2.582   3.405   0.952 -2.0490  0.0484  1.8386
 3488SOL    HW213951   2.596   3.273   0.879  0.9974  0.8887  0.7318
 3488SOL     MW13952   2.562   3.352   0.885  0.0664  0.5045  0.7485
 3489SOL     OW13953   0.585   2.373   0.574  0.2983  0.0172 -0.3432
 3489SOL    HW113954   0.633   2.413   0.501 -0.7566  0.8540 -0.5940
 3489SOL    HW213955   0.508   2.429   0.586  0.3255 -0.2359  1.2592
 3489SOL     MW13956   0.581   2.386   0.566  0.1600  0.0957 -0.1613
 3490SOL     OW13957   3.163   0.137   0.351 -0.1231 -0.3458  0.0451
 3490SOL    HW113958   3.198   0.226   0.354 -1.5863  0.2523  0.1158
 3490SOL    HW213959   3.207   0.092   0.423 -0.2688  0.6762  0.7956
 3490SOL     MW13960   3.173   0.143   0.361 -0.3396 -0.1278  0.1556
 3491SOL     OW13961   4.234   1.060   3.899  0.3558 -0.0867 -0.4571
 3491SOL    HW113962   4.182   0.980   3.899  2.0551 -1.2485 -1.4609
 3491SOL    HW213963   4.207   1.107   3.821 -2.1051  1.4012  1.1643
 3491SOL     MW13964   4.224   1.056   3.889  0.2533 -0.0428 -0.3740
 3492SOL     OW13965   5.016   0.971   1.065  0.0816 -0.3786 -0.1550
 3492SOL    HW113966   4.974   1.051   1.033  0.8844  0.5116  0.9236
 3492SOL    HW213967   5.062   0.936   0.989 -0.7571 -0.1486 -0.7845
 3492SOL     MW13968   5.017   0.977   1.051  0.0768 -0.2278 -0.0945
 3493SOL     OW13969   5.394   2.797   3.385  0.1755 -0.3512 -0.2257
 3493SOL    HW113970   5.479   2.807   3.341  0.1117 -0.1960 -0.3161
 3493SOL    HW213971   5.385   2.875   3.438 -0.2740  0.0299 -0.8435
 3493SOL     MW13972   5.405   2.809   3.386  0.1064 -0.2790 -0.3210
 3494SOL     OW13973   3.904   4.425   2.016  0.5293 -0.1513  0.1253
 3494SOL    HW113974   3.813   4.397   2.025  0.4702  0.0388  0.1223
 3494SOL    HW213975   3.904   4.517   2.045  0.7079 -0.1331  0.0687
 3494SOL     MW13976   3.892   4.434   2.021  0.5454 -0.1233  0.1173
 3495SOL     OW13977   4.193   2.287   1.285 -0.5483  0.2948  0.1888
 3495SOL    HW113978   4.212   2.277   1.192  1.1432  0.1627  0.5038
 3495SOL    HW213979   4.197   2.197   1.320  3.3175  0.6041  1.0736
 3495SOL     MW13980   4.196   2.273   1.277  0.1996  0.3187  0.3502
 3496SOL     OW13981   4.022   4.766   3.117  0.0790  0.4033 -0.3381
 3496SOL    HW113982   4.092   4.702   3.103 -0.5699 -0.3931 -0.0321
 3496SOL    HW213983   4.029   4.825   3.043 -0.0941 -0.7643 -1.3169
 3496SOL     MW13984   4.032   4.765   3.105 -0.0316  0.1390 -0.4286
 3497SOL     OW13985   4.015   5.175   3.204  0.0276  0.8368 -0.1433
 3497SOL    HW113986   3.940   5.217   3.163 -0.1054  0.1201 -0.6583
 3497SOL    HW213987   3.977   5.110   3.263  0.2174 -0.2468 -1.1642
 3497SOL     MW13988   4.000   5.172   3.207  0.0353  0.5946 -0.3500
 3498SOL     OW13989   3.867   5.267   1.453 -0.3644  0.0534 -0.0056
 3498SOL    HW113990   3.919   5.336   1.493  0.6620  0.7199 -2.3795
 3498SOL    HW213991   3.927   5.192   1.446 -0.6154 -0.1465 -0.0477
 3498SOL     MW13992   3.882   5.266   1.458 -0.2600  0.1162 -0.3308
 3499SOL     OW13993   4.962   1.086   0.433  0.3958  0.8151 -0.0855
 3499SOL    HW113994   5.055   1.064   0.438  0.0767 -1.2920 -1.8075
 3499SOL    HW213995   4.918   1.023   0.489 -0.0979  0.8174 -0.4555
 3499SOL     MW13996   4.968   1.075   0.441  0.2864  0.5319 -0.3670
 3500SOL     OW13997   5.026   0.201   2.973  0.3607  0.2757  0.4618
 3500SOL    HW113998   4.998   0.264   2.906 -1.3664 -0.1491  0.7271
 3500SOL    HW213999   5.074   0.254   3.037  0.4386  1.0046 -0.1846
 3500SOL     MW14000   5.029   0.217   2.972  0.1387  0.3166  0.4105
 3501SOL     OW14001   1.466   4.369   2.539  0.4418  0.0173 -0.9084
 3501SOL    HW114002   1.505   4.284   2.521 -0.6097 -0.3458 -1.5284
 3501SOL    HW214003   1.539   4.422   2.573  1.3260 -0.8114 -1.4691
 3501SOL     MW14004   1.481   4.365   2.541  0.4193 -0.1431 -1.0673
 3502SOL     OW14005   3.146   4.133   5.312 -0.0425 -0.5015 -0.5589
 3502SOL    HW114006   3.170   4.222   5.284 -1.3459 -0.1856 -0.7351
 3502SOL    HW214007   3.104   4.146   5.397 -1.4593 -0.7834 -1.1932
 3502SOL     MW14008   3.144   4.147   5.320 -0.4086 -0.4969 -0.6680
 3503SOL     OW14009   1.577   2.788   2.215  0.2117 -0.2715 -0.0711
 3503SOL    HW114010   1.613   2.869   2.180  0.6319  0.8653  2.6763
 3503SOL    HW214011   1.526   2.751   2.144  2.5854  0.7301 -2.4616
 3503SOL     MW14012   1.575   2.794   2.201  0.5877  0.0163 -0.0230
 3504SOL     OW14013   0.572   1.749   1.549  0.0876 -0.1144 -0.5884
 3504SOL    HW114014   0.623   1.672   1.526  0.5880 -0.2665  0.9032
 3504SOL    HW214015   0.632   1.804   1.600 -1.1075 -0.1578  0.9598
 3504SOL     MW14016   0.587   1.746   1.553 -0.0059 -0.1407 -0.1793
 3505SOL     OW14017   0.458   4.680   2.809 -0.2357 -0.4023 -0.6656
 3505SOL    HW114018   0.492   4.599   2.771  0.3396 -0.4771 -0.0151
 3505SOL    HW214019   0.532   4.741   2.807 -0.5146 -0.0564 -0.6677
 3505SOL     MW14020   0.472   4.678   2.803 -0.1958 -0.3658 -0.5784
 3506SOL     OW14021   0.508   0.748   1.540 -0.4363 -0.2205 -0.1981
 3506SOL    HW114022   0.591   0.702   1.530  0.2698  0.9349  0.1808
 3506SOL    HW214023   0.477   0.724   1.627  0.0183  0.1458  0.0702
 3506SOL     MW14024   0.515   0.739   1.550 -0.2801 -0.0157 -0.1110
 3507SOL     OW14025   3.204   3.978   2.279 -0.7849 -0.0848  0.0723
 3507SOL    HW114026   3.299   3.973   2.271 -0.8644 -0.3721 -0.7805
 3507SOL    HW214027   3.186   3.947   2.368 -0.0802  0.0449  0.2686
 3507SOL     MW14028   3.214   3.973   2.290 -0.7008 -0.1060 -0.0161
 3508SOL     OW14029   5.115   1.076   3.918  0.3425 -0.4587 -0.0178
 3508SOL    HW114030   5.046   1.128   3.876  0.5184  0.4835  0.8296
 3508SOL    HW214031   5.075   1.044   3.999  1.2735  1.2714  1.2112
 3508SOL     MW14032   5.100   1.079   3.923  0.4915 -0.0990  0.2617
 3509SOL     OW14033   2.485   4.532   2.753  0.4673  0.0701 -0.1013
 3509SOL    HW114034   2.511   4.624   2.755 -0.8262  0.5280 -1.9274
 3509SOL    HW214035   2.515   4.501   2.667  0.1947 -0.9859  0.1765
 3509SOL     MW14036   2.492   4.540   2.741  0.2565 -0.0104 -0.3097
 3510SOL     OW14037   4.976   0.782   1.519  0.2629  0.1729 -0.0548
 3510SOL    HW114038   4.895   0.762   1.566  1.2333 -0.4952  1.3548
 3510SOL    HW214039   5.028   0.703   1.524  1.3290  0.8347 -0.3247
 3510SOL     MW14040   4.972   0.769   1.526  0.5369  0.1721  0.0986
 3511SOL     OW14041   0.212   1.229   1.885  0.3584  0.3314 -0.3798
 3511SOL    HW114042   0.142   1.268   1.832  1.0526  1.4059 -0.5522
 3511SOL    HW214043   0.167   1.165   1.940 -1.4624  3.4892  2.1752
 3511SOL     MW14044   0.196   1.226   1.885  0.2068  0.9010 -0.0591
 3512SOL     OW14045   0.121   4.243   5.516  0.4048  0.3085  0.2108
 3512SOL    HW114046   0.116   4.331   5.554 -1.7876  0.9353 -1.3361
 3512SOL    HW214047   0.116   4.258   5.421  3.2079 -1.3426 -0.3340
 3512SOL     MW14048   0.120   4.257   5.508  0.4870  0.1706 -0.0707
 3513SOL     OW14049   4.157   1.563   2.495 -0.2127 -0.0652 -0.1543
 3513SOL    HW114050   4.184   1.620   2.567 -0.5390  0.8228 -0.7169
 3513SOL    HW214051   4.187   1.609   2.416 -2.9269  0.7731 -0.7850
 3513SOL     MW14052   4.165   1.577   2.494 -0.6219  0.1671 -0.3149
 3514SOL     OW14053   5.149   1.014   1.507  0.6240  0.4387 -0.2292
 3514SOL    HW114054   5.082   0.952   1.533  2.1361 -1.4063 -0.5398
 3514SOL    HW214055   5.160   1.001   1.413  1.1856  0.9492 -0.2467
 3514SOL     MW14056   5.142   1.004   1.498  0.9031  0.2591 -0.2734
 3515SOL     OW14057   1.774   0.346   5.075 -0.4501 -0.0897 -0.0897
 3515SOL    HW114058   1.816   0.402   5.141  1.1882 -0.0815 -1.0779
 3515SOL    HW214059   1.844   0.290   5.043 -1.4949 -0.9534 -0.9557
 3515SOL     MW14060   1.789   0.346   5.080 -0.3702 -0.2049 -0.3392
 3516SOL     OW14061   2.770   3.342   0.521 -0.0184  0.2740  0.3024
 3516SOL    HW114062   2.826   3.396   0.577  0.7895  0.8700 -1.0243
 3516SOL    HW214063   2.812   3.346   0.435 -0.5756 -1.5657 -0.0963
 3516SOL     MW14064   2.783   3.350   0.517  0.0153  0.1066  0.0702
 3517SOL     OW14065   5.426   1.904   4.951  0.1551  0.2139  0.0469
 3517SOL    HW114066   5.430   1.940   4.863  0.5467  3.1482  1.1426
 3517SOL    HW214067   5.497   1.841   4.955 -0.3844 -0.5888 -1.9291
 3517SOL     MW14068   5.436   1.900   4.940  0.1352  0.5008 -0.0716
 3518SOL     OW14069   2.109   1.568   2.460  0.0330 -0.0789  0.4316
 3518SOL    HW114070   2.055   1.504   2.506  1.5729 -0.4970  1.7599
 3518SOL    HW214071   2.097   1.548   2.367  0.5982 -2.4334  0.8139
 3518SOL     MW14072   2.100   1.557   2.454  0.3163 -0.4520  0.6618
 3519SOL     OW14073   3.685   1.602   4.347 -0.2497 -0.1926  0.8145
 3519SOL    HW114074   3.661   1.681   4.397  0.4495  0.6043 -0.0598
 3519SOL    HW214075   3.601   1.565   4.319 -0.5766  0.6728  0.6013
 3519SOL     MW14076   3.670   1.608   4.350 -0.1996  0.0311  0.6682
 3520SOL     OW14077   3.978   1.088   4.799 -0.2316 -0.3364  0.0389
 3520SOL    HW114078   4.021   1.151   4.856  0.8178 -1.2025  0.2346
 3520SOL    HW214079   4.033   1.086   4.720  0.1458 -1.4898  0.3081
 3520SOL     MW14080   3.991   1.096   4.796 -0.0396 -0.6081  0.1014
 3521SOL     OW14081   2.449   3.342   5.088  0.1944 -0.0393  0.3723
 3521SOL    HW114082   2.511   3.331   5.016 -0.6413 -0.0388 -0.3647
 3521SOL    HW214083   2.413   3.254   5.102 -1.5325  0.3973 -0.9742
 3521SOL     MW14084   2.453   3.328   5.080 -0.1505  0.0195  0.0919
 3522SOL     OW14085   2.073   4.087   2.085  0.5080 -0.0570 -0.5018
 3522SOL    HW114086   2.104   4.173   2.112 -1.1285  0.6610 -0.7641
 3522SOL    HW214087   2.019   4.104   2.007 -1.4263 -1.0319  0.5392
 3522SOL     MW14088   2.070   4.101   2.078  0.0274 -0.0916 -0.3970
 3523SOL     OW14089   1.278   5.004   0.638 -0.2988  0.3459  0.1830
 3523SOL    HW114090   1.287   5.028   0.730 -0.0680  0.7622  0.0557
 3523SOL    HW214091   1.297   5.085   0.591  1.0148 -0.1993 -0.2786
 3523SOL     MW14092   1.282   5.018   0.644 -0.0909  0.3285  0.1037
 3524SOL     OW14093   1.349   5.449   1.119  0.4570 -0.0828  0.2228
 3524SOL    HW114094   1.315   5.512   1.056  1.2969  0.7729  0.5851
 3524SOL    HW214095   1.317   5.481   1.204  0.4490 -0.4507  0.3587
 3524SOL     MW14096   1.340   5.462   1.122  0.5690 -0.0172  0.2899
 3525SOL     OW14097   2.889   1.106   4.074  0.3123  0.0914  0.0275
 3525SOL    HW114098   2.834   1.132   4.147 -1.8191 -1.4677 -0.9012
 3525SOL    HW214099   2.935   1.186   4.048  1.3966  0.6318  3.1805
 3525SOL     MW14100   2.888   1.120   4.080  0.1714 -0.0457  0.3268
 3526SOL     OW14101   4.883   2.801   0.510  0.1495  0.8480 -0.3898
 3526SOL    HW114102   4.910   2.817   0.420 -1.4383 -0.0382 -1.0725
 3526SOL    HW214103   4.862   2.888   0.544  0.1385  1.1316 -1.0932
 3526SOL     MW14104   4.884   2.815   0.502 -0.0656  0.7669 -0.5764
 3527SOL     OW14105   1.453   2.792   2.894  0.1654  0.4551 -0.3924
 3527SOL    HW114106   1.540   2.755   2.880  0.9980  1.9172  0.6806
 3527SOL    HW214107   1.422   2.752   2.975 -0.8792 -1.2261 -1.5350
 3527SOL     MW14108   1.460   2.781   2.903  0.1369  0.4256 -0.4018
 3528SOL     OW14109   5.218   5.064   4.151 -0.2753  0.3846  0.0699
 3528SOL    HW114110   5.171   4.984   4.172 -0.9288  0.5837 -0.6005
 3528SOL    HW214111   5.157   5.134   4.173 -0.7497  0.6223 -1.8312
 3528SOL     MW14112   5.204   5.063   4.157 -0.4271  0.4434 -0.2762
 3529SOL     OW14113   1.394   2.671   2.030 -0.3496  0.2167  0.0046
 3529SOL    HW114114   1.391   2.747   1.972 -1.6206  0.9986  1.0400
 3529SOL    HW214115   1.321   2.684   2.090  0.6236 -0.8062  1.4830
 3529SOL     MW14116   1.384   2.683   2.030 -0.3897  0.1842  0.3429
 3530SOL     OW14117   0.193   0.830   2.932  0.0454 -0.4192  0.1072
 3530SOL    HW114118   0.111   0.870   2.961  0.3428  0.4546 -0.2132
 3530SOL    HW214119   0.251   0.905   2.915  0.9741 -1.0281  0.5263
 3530SOL     MW14120   0.190   0.846   2.934  0.2104 -0.3835  0.1205
 3531SOL     OW14121   2.959   0.964   3.074 -0.4426 -0.1749 -0.3788
 3531SOL    HW114122   2.968   0.888   3.016  0.6806 -0.4026  0.0516
 3531SOL    HW214123   3.030   0.953   3.138 -1.0358  0.5913  0.4321
 3531SOL     MW14124   2.970   0.952   3.075 -0.3713 -0.1024 -0.2117
 3532SOL     OW14125   0.515   0.932   1.824  0.2506 -0.1086  0.0190
 3532SOL    HW114126   0.435   0.882   1.843 -1.2107  1.5731 -1.2689
 3532SOL    HW214127   0.585   0.867   1.823 -1.4424 -2.0387 -0.9552
 3532SOL     MW14128   0.513   0.916   1.826 -0.1739 -0.1421 -0.2854
 3533SOL     OW14129   1.208   5.408   3.143 -0.3692 -0.7463  0.2720
 3533SOL    HW114130   1.249   5.329   3.107 -0.0757 -0.9282  0.9865
 3533SOL    HW214131   1.251   5.421   3.227  1.2625  1.5026 -0.8030
 3533SOL     MW14132   1.219   5.399   3.149 -0.1101 -0.4681  0.2235
 3534SOL     OW14133   4.714   3.337   3.693  0.4502  0.0350  0.5768
 3534SOL    HW114134   4.691   3.361   3.603  1.0006  1.7056  0.8539
 3534SOL    HW214135   4.663   3.258   3.710 -1.9576  1.2906 -0.2350
 3534SOL     MW14136   4.704   3.330   3.683  0.2003  0.4288  0.5049
 3535SOL     OW14137   1.875   2.577   3.076  0.1113  0.5443 -0.0928
 3535SOL    HW114138   1.823   2.563   3.155 -1.0207  0.0873 -0.8997
 3535SOL    HW214139   1.960   2.538   3.096 -0.7733 -1.2984  0.2309
 3535SOL     MW14140   1.880   2.570   3.089 -0.1601  0.2348 -0.1578
 3536SOL     OW14141   4.609   3.385   3.455  0.0839 -0.0219 -0.0245
 3536SOL    HW114142   4.618   3.301   3.411 -1.3311 -0.4589  0.4786
 3536SOL    HW214143   4.607   3.449   3.383 -0.7628 -0.5967 -0.5318
 3536SOL     MW14144   4.610   3.383   3.439 -0.2205 -0.1581 -0.0251
 3537SOL     OW14145   0.463   0.266   0.184 -0.5994 -0.1118 -0.6639
 3537SOL    HW114146   0.552   0.232   0.176 -0.2878  0.5243 -0.1117
 3537SOL    HW214147   0.475   0.351   0.226 -1.6167 -0.9028  1.3492
 3537SOL     MW14148   0.477   0.273   0.189 -0.6944 -0.1326 -0.3187
 3538SOL     OW14149   4.478   4.616   2.551 -0.3285 -0.0432  0.1357
 3538SOL    HW114150   4.551   4.580   2.601 -1.2318 -1.8825  0.2077
 3538SOL    HW214151   4.476   4.709   2.574 -0.6258 -0.7603  3.4187
 3538SOL     MW14152   4.488   4.624   2.561 -0.4901 -0.3873  0.5872
 3539SOL     OW14153   1.859   4.248   4.581  0.0086  0.4735 -0.0479
 3539SOL    HW114154   1.877   4.341   4.562 -0.3415  0.6319  0.3709
 3539SOL    HW214155   1.782   4.250   4.638 -0.3403 -0.1125 -0.4941
 3539SOL     MW14156   1.851   4.261   4.586 -0.0855  0.4159 -0.0516
 3540SOL     OW14157   3.740   4.004   4.163  0.0186  0.3465  0.0129
 3540SOL    HW114158   3.787   4.004   4.079  0.0729 -2.8997 -0.0853
 3540SOL    HW214159   3.808   3.989   4.229 -0.3824 -0.3683  0.2763
 3540SOL     MW14160   3.755   4.002   4.160 -0.0280 -0.1866  0.0351
 3541SOL     OW14161   0.175   4.989   1.400  0.0058 -0.2041 -0.4409
 3541SOL    HW114162   0.261   5.032   1.395  0.2758 -0.6693  0.1269
 3541SOL    HW214163   0.119   5.041   1.342  0.4545  0.6192 -0.1597
 3541SOL     MW14164   0.179   5.002   1.392  0.1025 -0.1559 -0.3266
 3542SOL     OW14165   4.523   3.323   1.304 -0.2961  0.4245 -0.0573
 3542SOL    HW114166   4.520   3.246   1.361 -0.1795  0.3066 -0.2091
 3542SOL    HW214167   4.596   3.305   1.244  0.8064  1.3744  0.9476
 3542SOL     MW14168   4.532   3.310   1.304 -0.1321  0.5364  0.0575
 3543SOL     OW14169   3.473   0.085   1.545  0.4080  0.0723  0.1761
 3543SOL    HW114170   3.419   0.163   1.554  1.4528  1.1747 -2.2443
 3543SOL    HW214171   3.540   0.093   1.613  0.1805  1.0097  0.2928
 3543SOL     MW14172   3.475   0.096   1.555  0.5180  0.3468 -0.1339
 3544SOL     OW14173   1.706   0.881   2.640 -0.1703 -0.1897 -0.2991
 3544SOL    HW114174   1.678   0.867   2.730 -0.0682  1.7250  0.0818
 3544SOL    HW214175   1.801   0.865   2.642 -0.4008 -1.7197 -0.4601
 3544SOL     MW14176   1.715   0.877   2.652 -0.1876 -0.1379 -0.2695
 3545SOL     OW14177   3.421   2.328   3.354  0.1299 -0.2546 -0.0953
 3545SOL    HW114178   3.461   2.396   3.409 -0.3185  0.2242 -0.3633
 3545SOL    HW214179   3.335   2.313   3.393 -0.0585 -0.1521 -0.4793
 3545SOL     MW14180   3.415   2.335   3.367  0.0442 -0.1764 -0.1830
 3546SOL     OW14181   0.410   3.344   0.823  0.1884  0.6667  0.1159
 3546SOL    HW114182   0.455   3.319   0.904  0.3214 -1.3305 -0.5276
 3546SOL    HW214183   0.468   3.408   0.783  0.0769  1.7609  1.6170
 3546SOL     MW14184   0.424   3.349   0.828  0.1913  0.5452  0.2313
 3547SOL     OW14185   4.671   5.000   0.197 -0.6055  0.7500 -0.5502
 3547SOL    HW114186   4.724   4.946   0.137 -1.3489 -3.7173  2.3338
 3547SOL    HW214187   4.581   4.979   0.173 -0.9076  0.3867  0.8273
 3547SOL     MW14188   4.666   4.990   0.185 -0.7462  0.0999  0.0233
 3548SOL     OW14189   4.267   2.062   3.536  0.7786  0.3505  0.4255
 3548SOL    HW114190   4.229   1.977   3.558  1.1949 -0.3054 -1.3017
 3548SOL    HW214191   4.222   2.123   3.595  0.5049 -1.0430  1.7343
 3548SOL     MW14192   4.256   2.059   3.547  0.7978  0.0747  0.3692
 3549SOL     OW14193   5.028   5.240   1.536 -0.6719  0.1382  0.0515
 3549SOL    HW114194   5.105   5.191   1.567 -0.9440  0.2412  0.9122
 3549SOL    HW214195   5.064   5.320   1.499 -0.2807 -0.3422 -0.6292
 3549SOL     MW14196   5.043   5.244   1.535 -0.6559  0.0874  0.0757
 3550SOL     OW14197   1.013   2.484   3.283  0.1705 -0.2154 -0.0858
 3550SOL    HW114198   0.919   2.471   3.294  0.3321  0.1305  2.0932
 3550SOL    HW214199   1.053   2.405   3.319  0.7605  0.4767  0.8107
 3550SOL     MW14200   1.006   2.472   3.289  0.2717 -0.0757  0.3281
 3551SOL     OW14201   2.304   0.623   5.498 -0.1533 -0.5096 -0.0030
 3551SOL    HW114202   2.343   0.686   5.558  0.5571 -0.4083 -0.5554
 3551SOL    HW214203   2.378   0.592   5.445 -0.5934 -1.3574 -0.1342
 3551SOL     MW14204   2.319   0.627   5.499 -0.1169 -0.6101 -0.0950
 3552SOL     OW14205   4.518   2.720   4.628 -0.1645 -0.2489 -0.0798
 3552SOL    HW114206   4.469   2.799   4.646  0.6531  0.1521  0.4617
 3552SOL    HW214207   4.489   2.692   4.541 -0.8707  0.3205 -0.0298
 3552SOL     MW14208   4.508   2.727   4.618 -0.1495 -0.1183 -0.0002
 3553SOL     OW14209   0.058   1.046   0.033  1.0217 -0.3392 -0.4173
 3553SOL    HW114210   0.082   1.088   0.116 -2.0863  1.8407 -0.4640
 3553SOL    HW214211   0.013   0.965   0.059  0.1392  0.2925  0.0565
 3553SOL     MW14212   0.055   1.041   0.048  0.4847  0.0392 -0.3598
 3554SOL     OW14213   0.349   1.190   4.230  0.1179  0.3830  0.3259
 3554SOL    HW114214   0.274   1.131   4.230 -0.1214  0.2542 -4.4526
 3554SOL    HW214215   0.311   1.277   4.242 -0.4886  0.1429  0.1768
 3554SOL     MW14216   0.333   1.194   4.232  0.0041  0.3334 -0.3373
 3555SOL     OW14217   1.695   0.865   3.969  0.1339  0.0056 -0.4742
 3555SOL    HW114218   1.736   0.951   3.978 -1.6702  0.7876  1.2678
 3555SOL    HW214219   1.657   0.865   3.882  2.9435 -0.4159 -1.7970
 3555SOL     MW14220   1.695   0.876   3.959  0.2692  0.0542 -0.4178
 3556SOL     OW14221   3.849   3.812   2.591  0.0150 -0.1359 -0.0359
 3556SOL    HW114222   3.898   3.796   2.671  0.1490 -1.5097 -0.3565
 3556SOL    HW214223   3.899   3.766   2.523  0.0994  1.2887 -0.9853
 3556SOL     MW14224   3.862   3.803   2.592  0.0444 -0.1290 -0.2069
 3557SOL     OW14225   0.740   2.580   3.267  0.7040  0.3779 -0.4360
 3557SOL    HW114226   0.674   2.514   3.244  0.2667  0.5261  0.3373
 3557SOL    HW214227   0.796   2.587   3.190  0.4103 -0.4853 -0.7359
 3557SOL     MW14228   0.739   2.572   3.254  0.6056  0.2817 -0.3723
 3558SOL     OW14229   1.752   4.472   0.021  0.8071  0.2653 -0.2856
 3558SOL    HW114230   1.767   4.566   0.024  1.1711  0.2132 -0.3283
 3558SOL    HW214231   1.835   4.436  -0.012  0.4602 -0.0201 -0.8628
 3558SOL     MW14232   1.765   4.480   0.017  0.8094  0.2199 -0.3690
 3559SOL     OW14233   2.959   4.644   0.872  0.2076 -0.0161 -0.7515
 3559SOL    HW114234   2.919   4.611   0.792 -0.9170 -0.9414  0.1371
 3559SOL    HW214235   2.973   4.737   0.857  0.4658 -0.2721 -2.1814
 3559SOL     MW14236   2.955   4.652   0.859  0.0910 -0.1751 -0.8243
 3560SOL     OW14237   3.786   5.290   3.549 -0.3531  0.4037  0.2255
 3560SOL    HW114238   3.722   5.254   3.487  0.7519 -1.4492  0.0960
 3560SOL    HW214239   3.866   5.299   3.497  0.5665 -1.0799  1.3015
 3560SOL     MW14240   3.788   5.286   3.533 -0.0807 -0.0453  0.3529
 3561SOL     OW14241   3.171   3.095   1.173  0.1112  0.0572  0.5641
 3561SOL    HW114242   3.102   3.109   1.238  0.5154  0.2085  0.9651
 3561SOL    HW214243   3.142   3.018   1.124 -0.5664  0.4012  0.4271
 3561SOL     MW14244   3.158   3.086   1.175  0.0744  0.1239  0.5996
 3562SOL     OW14245   2.010   2.082   3.184 -0.7981 -0.0286  0.1297
 3562SOL    HW114246   2.029   2.065   3.092 -1.9224 -0.6623 -0.0133
 3562SOL    HW214247   1.914   2.091   3.187 -0.9124 -1.3240  1.4239
 3562SOL     MW14248   1.999   2.081   3.172 -0.9648 -0.2882  0.2846
 3563SOL     OW14249   3.694   3.604   0.404 -0.2049 -0.2716  0.5993
 3563SOL    HW114250   3.711   3.559   0.486 -0.1380 -0.9343  0.2253
 3563SOL    HW214251   3.610   3.570   0.375 -0.9552  1.0597  1.1286
 3563SOL     MW14252   3.685   3.594   0.411 -0.2969 -0.1816  0.6202
 3564SOL     OW14253   3.828   4.110   3.864 -0.0263  0.2884 -0.3134
 3564SOL    HW114254   3.887   4.047   3.822 -1.0606 -0.8548 -0.1199
 3564SOL    HW214255   3.740   4.074   3.848 -0.6135  1.4220  0.2557
 3564SOL     MW14256   3.824   4.096   3.856 -0.2445  0.2871 -0.2108
 3565SOL     OW14257   0.937   5.063   4.413 -0.3773 -0.7259  0.0068
 3565SOL    HW114258   1.022   5.103   4.397 -1.0811  0.8398 -0.1076
 3565SOL    HW214259   0.889   5.076   4.331 -1.3131  0.0792  0.6486
 3565SOL     MW14260   0.942   5.070   4.400 -0.5980 -0.4069  0.0778
 3566SOL     OW14261   4.106   5.194   0.232 -0.3181  0.1413  0.2754
 3566SOL    HW114262   4.043   5.141   0.184 -1.1154  0.8239  0.5456
 3566SOL    HW214263   4.164   5.131   0.274  0.3717 -0.4773 -1.5219
 3566SOL     MW14264   4.106   5.179   0.231 -0.3325  0.1499  0.0699
 3567SOL     OW14265   2.700   0.570   1.075  0.0181 -0.1181 -0.1412
 3567SOL    HW114266   2.641   0.550   1.148  1.5983  1.0044  1.5179
 3567SOL    HW214267   2.669   0.514   1.004 -1.7032 -1.1312  1.3155
 3567SOL     MW14268   2.688   0.559   1.076 -0.0009 -0.1034  0.2781
 3568SOL     OW14269   4.980   0.749   0.666 -0.3333  0.3188 -0.0154
 3568SOL    HW114270   4.888   0.770   0.649  0.0939  2.5538  0.1947
 3568SOL    HW214271   5.021   0.745   0.579 -0.5276 -0.2936 -0.0861
 3568SOL     MW14272   4.973   0.751   0.652 -0.3020  0.5372  0.0033
 3569SOL     OW14273   4.997   2.963   3.367 -0.2496 -0.0225  0.3957
 3569SOL    HW114274   4.986   2.872   3.340 -3.9582  0.8528 -1.7389
 3569SOL    HW214275   4.966   2.965   3.458  0.2166 -0.9084  0.5865
 3569SOL     MW14276   4.992   2.951   3.376 -0.6860 -0.0239  0.1341
 3570SOL     OW14277   3.492   0.859   1.566 -0.2019 -0.1578 -0.7334
 3570SOL    HW114278   3.548   0.934   1.588 -1.8277  1.4237 -1.6852
 3570SOL    HW214279   3.541   0.783   1.597  1.4721  1.2872  0.4031
 3570SOL     MW14280   3.506   0.859   1.573 -0.1954  0.2495 -0.7085
 3571SOL     OW14281   3.437   4.956   4.920 -0.2505  0.1337 -0.8237
 3571SOL    HW114282   3.468   4.923   4.835  2.2193 -0.2378  0.1489
 3571SOL    HW214283   3.419   4.877   4.971 -1.5807  0.3585 -0.8969
 3571SOL     MW14284   3.439   4.941   4.915 -0.0971  0.1139 -0.7027
 3572SOL     OW14285   2.569   5.082   1.654  0.4632  0.2029  0.4158
 3572SOL    HW114286   2.631   5.014   1.680 -1.3501 -0.8908  2.1627
 3572SOL    HW214287   2.529   5.111   1.736 -0.2892  1.9324 -0.5052
 3572SOL     MW14288   2.572   5.077   1.668  0.1179  0.2884  0.5269
 3573SOL     OW14289   3.301   0.652   3.266 -0.1786 -0.5863 -0.3948
 3573SOL    HW114290   3.205   0.658   3.263 -0.3112 -1.5887  0.8073
 3573SOL    HW214291   3.324   0.677   3.356  0.7176 -0.0777 -0.7555
 3573SOL     MW14292   3.291   0.656   3.278 -0.0758 -0.6527 -0.2816
 3574SOL     OW14293   0.709   2.502   1.915 -0.5281 -0.8550  0.1606
 3574SOL    HW114294   0.710   2.466   1.826 -1.0770  1.5174 -0.8890
 3574SOL    HW214295   0.649   2.576   1.910  2.7915  2.1905  1.2606
 3574SOL     MW14296   0.701   2.507   1.902 -0.1552 -0.1259  0.1674
 3575SOL     OW14297   3.245   3.992   4.743  0.6216  0.1841  0.2331
 3575SOL    HW114298   3.221   3.929   4.810  2.4890  0.4433  1.2106
 3575SOL    HW214299   3.216   3.953   4.661  0.1644 -1.1180  0.9900
 3575SOL     MW14300   3.238   3.979   4.741  0.8114  0.0438  0.4665
 3576SOL     OW14301   1.006   1.200   1.804  0.3624 -0.9407 -0.6547
 3576SOL    HW114302   1.098   1.216   1.825  0.1416  0.6492 -0.7891
 3576SOL    HW214303   1.007   1.166   1.715  0.7628  0.1540 -1.0824
 3576SOL     MW14304   1.019   1.198   1.795  0.3865 -0.5794 -0.7304
 3577SOL     OW14305   1.204   2.768   3.411 -0.2795 -0.0578  0.2853
 3577SOL    HW114306   1.231   2.687   3.454 -0.6534 -0.7663 -0.7804
 3577SOL    HW214307   1.231   2.838   3.472 -0.1692 -0.9804  1.3231
 3577SOL     MW14308   1.212   2.767   3.425 -0.3150 -0.2773  0.2815
 3578SOL     OW14309   3.844   0.479   2.989 -0.1571  0.1948  0.2230
 3578SOL    HW114310   3.851   0.390   3.025  0.0772 -0.6970 -1.8832
 3578SOL    HW214311   3.917   0.526   3.027  1.2329 -1.2540 -0.5469
 3578SOL     MW14312   3.855   0.473   2.999  0.0615 -0.1202 -0.1640
 3579SOL     OW14313   3.562   3.767   4.450  0.4176 -0.0302  0.1048
 3579SOL    HW114314   3.570   3.850   4.497  0.0660 -0.5263  1.0612
 3579SOL    HW214315   3.555   3.793   4.358 -0.3671  1.0369  0.4393
 3579SOL     MW14316   3.563   3.782   4.444  0.2647  0.0466  0.2785
 3580SOL     OW14317   1.616   4.294   1.623  0.1027 -0.6607  0.1327
 3580SOL    HW114318   1.583   4.332   1.705  1.3672  0.9838 -0.0581
 3580SOL    HW214319   1.682   4.357   1.593 -1.1152 -0.6087 -2.7536
 3580SOL     MW14320   1.620   4.308   1.630  0.1090 -0.4324 -0.2814
 3581SOL     OW14321   1.317   0.136   4.689  1.1854 -0.9006 -0.4581
 3581SOL    HW114322   1.323   0.225   4.725 -0.1574 -1.8215  2.2480
 3581SOL    HW214323   1.293   0.149   4.597 -0.4040  1.5320  0.2105
 3581SOL     MW14324   1.315   0.150   4.682  0.7908 -0.6971 -0.0039
 3582SOL     OW14325   1.774   4.331   5.250  0.1376  0.3482  0.0755
 3582SOL    HW114326   1.813   4.314   5.164 -0.4642 -0.8554  0.0186
 3582SOL    HW214327   1.735   4.247   5.275 -0.3269  0.8877  1.1994
 3582SOL     MW14328   1.774   4.317   5.241 -0.0059  0.2588  0.2191
 3583SOL     OW14329   3.288   2.502   0.160 -0.0706 -0.4529 -0.0655
 3583SOL    HW114330   3.344   2.580   0.156  0.4732 -0.8014  0.4902
 3583SOL    HW214331   3.206   2.529   0.118  0.1020  0.4202  0.1305
 3583SOL     MW14332   3.285   2.516   0.154  0.0258 -0.3823  0.0357
 3584SOL     OW14333   1.613   2.562   4.078  0.2904  0.2173  0.2601
 3584SOL    HW114334   1.586   2.518   3.998 -0.4194 -0.3053  0.7726
 3584SOL    HW214335   1.705   2.585   4.063  0.0778  0.3836 -0.8007
 3584SOL     MW14336   1.622   2.559   4.065  0.1662  0.1693  0.1863
 3585SOL     OW14337   5.456   5.232   1.493  0.2471 -0.4137 -0.1343
 3585SOL    HW114338   5.489   5.211   1.405  0.9192 -2.2310  0.5044
 3585SOL    HW214339   5.465   5.328   1.499  0.4216 -0.2705 -1.9400
 3585SOL     MW14340   5.462   5.242   1.482  0.3611 -0.6390 -0.2913
 3586SOL     OW14341   4.977   0.450   2.776 -0.4799 -0.4799  0.1631
 3586SOL    HW114342   4.892   0.407   2.765 -0.2500 -0.9201  0.1124
 3586SOL    HW214343   5.020   0.441   2.691 -0.8513  0.7895 -0.1890
 3586SOL     MW14344   4.971   0.443   2.763 -0.4989 -0.3683  0.1089
 3587SOL     OW14345   1.368   2.654   1.339 -0.1940 -0.6523  0.4032
 3587SOL    HW114346   1.331   2.682   1.423 -1.1445  0.0813 -0.2463
 3587SOL    HW214347   1.315   2.579   1.312  0.9085 -1.7079  1.0327
 3587SOL     MW14348   1.356   2.648   1.347 -0.1735 -0.6956  0.4005
 3588SOL     OW14349   5.398   1.584   3.415 -0.5764  0.1937 -0.0067
 3588SOL    HW114350   5.385   1.648   3.485  0.4959  0.7258 -0.2720
 3588SOL    HW214351   5.393   1.499   3.458 -0.4688  0.5048  0.6185
 3588SOL     MW14352   5.396   1.581   3.430 -0.4176  0.3072  0.0417
 3589SOL     OW14353   4.459   2.605   3.395 -0.2896  0.6611 -0.2715
 3589SOL    HW114354   4.555   2.596   3.397 -0.2175  1.4766  1.0164
 3589SOL    HW214355   4.444   2.673   3.329 -0.1252 -0.6375 -1.7133
 3589SOL     MW14356   4.470   2.613   3.386 -0.2578  0.5961 -0.2922
 3590SOL     OW14357   5.460   0.823   0.972 -0.1795  0.1049 -0.2511
 3590SOL    HW114358   5.448   0.903   1.024 -1.7867  0.2990 -0.8865
 3590SOL    HW214359   5.555   0.812   0.967  0.0420  0.4637  2.1236
 3590SOL     MW14360   5.472   0.832   0.978 -0.3660  0.1793 -0.0171
 3591SOL     OW14361   2.929   3.357   0.288  0.0705  0.4571 -0.0506
 3591SOL    HW114362   2.980   3.425   0.332  1.3288  0.1149 -0.9321
 3591SOL    HW214363   2.918   3.389   0.198 -2.9583  1.4176  0.5466
 3591SOL     MW14364   2.935   3.370   0.282 -0.1678  0.5403 -0.0889
 3592SOL     OW14365   3.412   4.609   3.855 -0.6316  0.9202 -0.6892
 3592SOL    HW114366   3.422   4.514   3.870 -0.5394  0.9444 -0.5923
 3592SOL    HW214367   3.402   4.617   3.761  0.2418  0.8837 -0.7938
 3592SOL     MW14368   3.412   4.597   3.845 -0.5017  0.9185 -0.6902
 3593SOL     OW14369   4.223   0.491   0.544 -0.5521 -0.1024  0.5713
 3593SOL    HW114370   4.131   0.490   0.520 -0.5179  2.5510  0.0278
 3593SOL    HW214371   4.223   0.514   0.637 -0.4481 -2.2776  1.1549
 3593SOL     MW14372   4.211   0.494   0.554 -0.5335 -0.0381  0.5767
 3594SOL     OW14373   0.878   3.743   4.426  0.2551  0.5797  0.0901
 3594SOL    HW114374   0.852   3.748   4.518 -0.0264  1.2372 -0.0197
 3594SOL    HW214375   0.955   3.798   4.419 -0.1677  1.1412 -0.2161
 3594SOL     MW14376   0.885   3.751   4.437  0.1603  0.7437  0.0341
 3595SOL     OW14377   5.283   4.469   0.562 -0.2486  0.0796 -0.4449
 3595SOL    HW114378   5.228   4.546   0.544 -2.4335 -0.5428  2.6815
 3595SOL    HW214379   5.231   4.395   0.533 -1.6287 -0.5743  3.2258
 3595SOL     MW14380   5.269   4.470   0.556 -0.7284 -0.0921  0.4698
 3596SOL     OW14381   1.228   3.577   4.271  0.0432  0.6591 -0.6590
 3596SOL    HW114382   1.227   3.608   4.361  0.4717  1.2783 -0.8657
 3596SOL    HW214383   1.264   3.649   4.220  0.3809  0.0936 -1.2438
 3596SOL     MW14384   1.233   3.591   4.276  0.1463  0.6663 -0.7655
 3597SOL     OW14385   0.931   3.350   4.408 -0.3351 -0.1985 -0.2747
 3597SOL    HW114386   0.971   3.408   4.343  0.7174 -0.4103  0.1665
 3597SOL    HW214387   1.005   3.305   4.449 -0.7238  1.5984  2.6890
 3597SOL     MW14388   0.946   3.352   4.405 -0.2457  0.0148  0.1836
 3598SOL     OW14389   1.171   0.756   0.004  0.7624 -0.3697 -0.4642
 3598SOL    HW114390   1.218   0.828   0.046  1.2870 -0.5763 -0.6888
 3598SOL    HW214391   1.239   0.693  -0.018  0.4677 -0.3610 -1.4265
 3598SOL     MW14392   1.186   0.757   0.007  0.7933 -0.3963 -0.6239
 3599SOL     OW14393   5.223   4.294   1.507  0.3257  0.1512  0.1759
 3599SOL    HW114394   5.144   4.263   1.462  0.5961  1.0758 -1.0036
 3599SOL    HW214395   5.258   4.362   1.449 -0.2225  2.6624  2.6213
 3599SOL     MW14396   5.217   4.299   1.493  0.2883  0.6136  0.3463
 3600SOL     OW14397   4.157   2.735   3.059  0.1917  0.5199  0.4367
 3600SOL    HW114398   4.128   2.645   3.044  0.3268  0.6959 -1.0575
 3600SOL    HW214399   4.090   2.773   3.116  0.4780 -0.6956  1.6449
 3600SOL     MW14400   4.144   2.728   3.064  0.2484  0.3800  0.3982
 3601SOL     OW14401   3.169   1.165   0.388  0.1486 -0.3672  0.2996
 3601SOL    HW114402   3.134   1.193   0.304  0.9970 -1.0447 -0.2974
 3601SOL    HW214403   3.164   1.069   0.385  1.1172 -0.4402  0.5963
 3601SOL     MW14404   3.164   1.156   0.377  0.3932 -0.4682  0.2592
 3602SOL     OW14405   0.717   1.052   1.563  0.4998  0.4495  0.2043
 3602SOL    HW114406   0.627   1.029   1.586  0.2816  0.4590 -0.6035
 3602SOL    HW214407   0.719   1.148   1.565 -0.1152  0.5522 -1.8816
 3602SOL     MW14408   0.705   1.062   1.566  0.3877  0.4646 -0.1851
 3603SOL     OW14409   4.150   4.524   4.771  0.0038  0.5652  0.5770
 3603SOL    HW114410   4.070   4.542   4.821  0.1584 -0.9314  1.4280
 3603SOL    HW214411   4.118   4.495   4.685 -0.3503  0.7104  0.6555
 3603SOL     MW14412   4.135   4.523   4.766 -0.0231  0.3833  0.7021
 3604SOL     OW14413   0.822   1.918   2.852 -0.0027 -0.0082  0.2479
 3604SOL    HW114414   0.878   1.989   2.819  1.8596 -1.7151 -0.4819
 3604SOL    HW214415   0.734   1.956   2.852  0.7019  1.8638 -1.4656
 3604SOL     MW14416   0.818   1.933   2.847  0.3427  0.0140 -0.0809
 3605SOL     OW14417   4.611   3.820  -0.004 -0.3313  0.0759  0.6128
 3605SOL    HW114418   4.706   3.810  -0.007 -0.4325 -1.2451  0.9673
 3605SOL    HW214419   4.596   3.887   0.062  0.3405 -0.2988  1.1652
 3605SOL     MW14420   4.622   3.828   0.005 -0.2545 -0.1523  0.7348
 3606SOL     OW14421   2.576   2.215   4.773  0.3739  0.5613 -0.1843
 3606SOL    HW114422   2.545   2.291   4.822  1.5333 -0.3074  2.0142
 3606SOL    HW214423   2.536   2.225   4.686 -1.7090  2.2067  0.8671
 3606SOL     MW14424   2.567   2.226   4.768  0.2496  0.6658  0.2531
 3607SOL     OW14425   0.226   1.125   3.128 -0.0933  0.0757  0.3020
 3607SOL    HW114426   0.211   1.214   3.160  1.5299 -0.5175  3.0600
 3607SOL    HW214427   0.139   1.084   3.130 -0.5098  0.9526  1.2168
 3607SOL     MW14428   0.212   1.131   3.133  0.0691  0.1139  0.7963
 3608SOL     OW14429   2.074   4.414   3.544  0.1086  0.8407  0.2647
 3608SOL    HW114430   2.009   4.439   3.610 -0.9798 -0.6287 -0.1732
 3608SOL    HW214431   2.078   4.489   3.485 -0.2819  1.4417  0.9847
 3608SOL     MW14432   2.066   4.428   3.545 -0.0905  0.7238  0.3026
 3609SOL     OW14433   3.569   1.509   2.821 -0.1167 -0.4390 -0.3224
 3609SOL    HW114434   3.569   1.592   2.773 -0.9018 -0.6424 -0.6800
 3609SOL    HW214435   3.557   1.443   2.753 -0.6286 -0.7706  0.0924
 3609SOL     MW14436   3.568   1.512   2.805 -0.2913 -0.5110 -0.3147
 3610SOL     OW14437   3.555   1.633   5.464 -0.3588 -0.3287  0.3957
 3610SOL    HW114438   3.496   1.668   5.396 -1.0046 -0.0595  1.0818
 3610SOL    HW214439   3.630   1.693   5.463 -0.2921 -0.4150 -0.1803
 3610SOL     MW14440   3.557   1.646   5.454 -0.4367 -0.3041  0.4105
 3611SOL     OW14441   2.196   4.681   2.944 -0.6641 -0.2428  0.4639
 3611SOL    HW114442   2.214   4.684   2.850 -0.1998 -0.3876  0.5451
 3611SOL    HW214443   2.109   4.720   2.953 -0.1350  1.0772  0.1312
 3611SOL     MW14444   2.186   4.687   2.932 -0.5304 -0.0846  0.4301
 3612SOL     OW14445   1.794   0.488   2.209 -0.0433 -0.0663 -0.8732
 3612SOL    HW114446   1.705   0.522   2.209 -0.1059 -0.2322 -0.7386
 3612SOL    HW214447   1.849   0.565   2.193 -0.1748  0.1206 -0.4330
 3612SOL     MW14448   1.790   0.503   2.207 -0.0694 -0.0635 -0.7959
 3613SOL     OW14449   1.141   4.978   5.005 -0.2760  0.0800 -0.2439
 3613SOL    HW114450   1.118   4.991   4.913  1.5758 -1.3805 -1.0031
 3613SOL    HW214451   1.228   5.017   5.014 -0.3297 -0.0107  0.8132
 3613SOL     MW14452   1.150   4.985   4.994 -0.0340 -0.1288 -0.2038
 3614SOL     OW14453   4.152   0.468   1.234  0.1357  0.1740  0.2781
 3614SOL    HW114454   4.081   0.457   1.171  0.3864  1.1452 -0.1902
 3614SOL    HW214455   4.108   0.501   1.313  0.0023  0.3407  0.1363
 3614SOL     MW14456   4.137   0.471   1.236  0.1515  0.3272  0.1960
 3615SOL     OW14457   4.278   2.357   0.809  0.1333 -0.1845 -0.6794
 3615SOL    HW114458   4.361   2.385   0.849 -0.7495  0.3949  0.8065
 3615SOL    HW214459   4.241   2.436   0.772 -1.2195  0.2545  1.4323
 3615SOL     MW14460   4.284   2.371   0.810 -0.1676 -0.0475 -0.1952
 3616SOL     OW14461   3.396   4.211   0.391  0.5530 -0.3240 -0.5409
 3616SOL    HW114462   3.336   4.271   0.347 -0.3004 -0.6879  0.1063
 3616SOL    HW214463   3.460   4.268   0.434 -0.7125  0.1827  0.7368
 3616SOL     MW14464   3.397   4.227   0.391  0.2678 -0.3048 -0.2819
 3617SOL     OW14465   3.784   3.710   1.756 -0.0627  0.1527 -0.2410
 3617SOL    HW114466   3.796   3.758   1.838  0.8927  0.1695 -0.3727
 3617SOL    HW214467   3.760   3.777   1.693 -1.7691  0.0058  0.2094
 3617SOL     MW14468   3.783   3.725   1.759 -0.1638  0.1352 -0.1981
 3618SOL     OW14469   1.594   1.041   5.268  0.1318  0.1224 -0.5419
 3618SOL    HW114470   1.595   1.091   5.186 -3.5044  2.3158  0.5583
 3618SOL    HW214471   1.668   1.076   5.318  1.7356 -0.4826 -2.3262
 3618SOL     MW14472   1.604   1.052   5.263 -0.1417  0.3361 -0.6340
 3619SOL     OW14473   3.479   1.635   0.966  0.4821 -0.0729 -0.1300
 3619SOL    HW114474   3.562   1.683   0.960  0.3836 -0.0946 -2.0622
 3619SOL    HW214475   3.471   1.590   0.882 -1.6672  0.2205 -0.1423
 3619SOL     MW14476   3.489   1.636   0.954  0.1796 -0.0364 -0.3917
 3620SOL     OW14477   2.530   4.434   5.058 -0.2753 -0.2511 -0.2941
 3620SOL    HW114478   2.530   4.501   4.989 -1.3592 -1.3299 -1.3706
 3620SOL    HW214479   2.443   4.440   5.098 -0.3779 -1.0176 -0.3960
 3620SOL     MW14480   2.519   4.444   5.054 -0.4350 -0.4994 -0.4527
 3621SOL     OW14481   4.442   4.113   2.824  0.4461 -0.0077 -0.2182
 3621SOL    HW114482   4.391   4.183   2.862 -0.4118  0.2014 -1.6683
 3621SOL    HW214483   4.500   4.156   2.761  1.8368 -0.3366  0.7696
 3621SOL     MW14484   4.443   4.128   2.820  0.5178 -0.0238 -0.2804
 3622SOL     OW14485   3.883   5.229   1.841  0.0223 -0.2891  0.4451
 3622SOL    HW114486   3.969   5.194   1.818 -0.2762 -0.6807 -0.0984
 3622SOL    HW214487   3.871   5.205   1.933  1.8285  2.4988  1.5336
 3622SOL     MW14488   3.893   5.221   1.851  0.2252  0.0334  0.5184
 3623SOL     OW14489   2.503   0.801   2.739 -0.8649 -0.3571  0.0781
 3623SOL    HW114490   2.458   0.765   2.816  0.5156 -1.2522  0.5109
 3623SOL    HW214491   2.514   0.894   2.759  1.3182 -0.9265  2.0014
 3623SOL     MW14492   2.498   0.809   2.752 -0.3854 -0.5542  0.3952
 3624SOL     OW14493   3.087   5.327   2.033  0.1133  0.2062  0.3659
 3624SOL    HW114494   3.151   5.372   2.089  0.9049  3.2215 -2.6289
 3624SOL    HW214495   3.124   5.240   2.019  2.1577  0.9186  0.9329
 3624SOL     MW14496   3.100   5.322   2.039  0.4950  0.7078  0.0391
 3625SOL     OW14497   3.128   2.163   2.556  0.4607  0.5894  0.1140
 3625SOL    HW114498   3.154   2.084   2.604  0.0532 -0.0653 -0.7165
 3625SOL    HW214499   3.152   2.235   2.614  2.7577 -0.0185  0.0312
 3625SOL     MW14500   3.135   2.162   2.570  0.7150  0.4195 -0.0089
 3626SOL     OW14501   0.479   1.086   3.217 -0.0677  0.0287  0.5631
 3626SOL    HW114502   0.475   1.022   3.288 -0.3362 -0.8258 -0.1972
 3626SOL    HW214503   0.389   1.095   3.188 -0.0078  0.6396  0.5624
 3626SOL     MW14504   0.467   1.079   3.223 -0.0958 -0.0041  0.4607
 3627SOL     OW14505   2.945   5.371   2.716  0.7638 -0.1123 -0.0862
 3627SOL    HW114506   2.909   5.373   2.627  1.7709 -0.5934 -0.5153
 3627SOL    HW214507   2.961   5.464   2.737 -0.3720  0.0841 -0.0139
 3627SOL     MW14508   2.942   5.384   2.707  0.7464 -0.1506 -0.1342
 3628SOL     OW14509   0.720   1.758   3.619  0.1483  0.1524  0.2080
 3628SOL    HW114510   0.780   1.773   3.547 -0.6148  0.0106 -0.4661
 3628SOL    HW214511   0.765   1.696   3.676 -0.4211 -2.1128 -1.6458
 3628SOL     MW14512   0.734   1.752   3.617 -0.0311 -0.1716 -0.1322
 3629SOL     OW14513   3.872   1.304   1.868 -0.2656 -0.3424 -0.2257
 3629SOL    HW114514   3.958   1.321   1.907 -1.2280  0.7427  1.5718
 3629SOL    HW214515   3.883   1.222   1.820  2.0937  0.4156 -1.1427
 3629SOL     MW14516   3.885   1.296   1.867 -0.0776 -0.0944 -0.1072
 3630SOL     OW14517   3.313   2.742   1.786 -0.3117  0.1505  0.1424
 3630SOL    HW114518   3.333   2.825   1.829  0.8262  0.6997 -1.3710
 3630SOL    HW214519   3.324   2.676   1.855 -0.0875  1.1367  1.0757
 3630SOL     MW14520   3.317   2.744   1.801 -0.1284  0.3571  0.0643
 3631SOL     OW14521   4.656   3.176   3.272  0.1042 -0.2260  0.0038
 3631SOL    HW114522   4.616   3.233   3.207 -0.4114  0.8963  1.2629
 3631SOL    HW214523   4.748   3.204   3.274 -0.0059  0.1211  0.1696
 3631SOL     MW14524   4.663   3.187   3.263  0.0200 -0.0282  0.1955
 3632SOL     OW14525   0.719   2.674   4.567  0.2233 -0.4533  0.0571
 3632SOL    HW114526   0.779   2.739   4.604 -0.5689 -0.7509  2.0259
 3632SOL    HW214527   0.661   2.725   4.510  2.1307 -0.1362 -1.7035
 3632SOL     MW14528   0.719   2.690   4.565  0.3734 -0.4506  0.0851
 3633SOL     OW14529   4.360   1.414   2.255  0.5309  0.0445 -0.1994
 3633SOL    HW114530   4.417   1.345   2.222 -0.5325 -0.8673 -0.2016
 3633SOL    HW214531   4.410   1.494   2.244  0.9088 -0.4236 -2.4218
 3633SOL     MW14532   4.374   1.415   2.249  0.4386 -0.1412 -0.4988
 3634SOL     OW14533   1.054   4.732   3.056  0.4501 -0.7561 -0.1243
 3634SOL    HW114534   1.077   4.788   3.130 -2.2454 -2.0522  1.8835
 3634SOL    HW214535   1.100   4.650   3.074  0.0201 -0.9758 -0.0138
 3634SOL     MW14536   1.063   4.728   3.069  0.0295 -0.9601  0.1608
 3635SOL     OW14537   5.154   4.522   4.132 -0.3326 -0.0180 -0.4597
 3635SOL    HW114538   5.182   4.518   4.040 -0.6897 -1.0603 -0.5412
 3635SOL    HW214539   5.058   4.516   4.128 -0.3558  0.0452 -0.0249
 3635SOL     MW14540   5.145   4.520   4.119 -0.3838 -0.1498 -0.4122
 3636SOL     OW14541   0.473   1.623   4.380  0.0811 -0.1209  0.0794
 3636SOL    HW114542   0.436   1.638   4.292 -1.4991 -0.6577  0.6186
 3636SOL    HW214543   0.542   1.558   4.366 -0.0630 -0.1032 -0.7824
 3636SOL     MW14544   0.477   1.617   4.366 -0.1510 -0.1908  0.0360
 3637SOL     OW14545   1.752   0.958   1.231  0.0311 -0.1201 -0.0900
 3637SOL    HW114546   1.720   0.870   1.250  0.3143 -0.4532 -1.0667
 3637SOL    HW214547   1.760   0.960   1.135 -1.3655  1.4519 -0.2172
 3637SOL     MW14548   1.749   0.947   1.220 -0.1188  0.0467 -0.2386
 3638SOL     OW14549   5.138   0.922   0.818  0.1647 -0.6283  0.3557
 3638SOL    HW114550   5.062   0.889   0.769 -0.0571 -0.7628  0.7844
 3638SOL    HW214551   5.213   0.881   0.777  0.0872  0.1852 -0.6494
 3638SOL     MW14552   5.138   0.912   0.806  0.1244 -0.5369  0.2781
 3639SOL     OW14553   2.289   1.965   5.364  0.0884  0.0494 -0.4392
 3639SOL    HW114554   2.216   1.999   5.312  0.2247  0.7122 -0.2055
 3639SOL    HW214555   2.326   1.895   5.310 -0.0687  0.4117 -1.0276
 3639SOL     MW14556   2.284   1.960   5.349  0.0856  0.1874 -0.4869
 3640SOL     OW14557   4.325   2.188   4.657 -0.3491  0.6614 -0.0078
 3640SOL    HW114558   4.359   2.180   4.746 -0.7198  0.9525  0.1639
 3640SOL    HW214559   4.262   2.116   4.648 -0.2837  0.6092 -0.0480
 3640SOL     MW14560   4.321   2.177   4.668 -0.3902  0.6936  0.0099
 3641SOL     OW14561   3.167   2.485   4.447 -0.4138  0.4201  0.1732
 3641SOL    HW114562   3.210   2.486   4.533  0.8038 -1.4762 -0.3589
 3641SOL    HW214563   3.074   2.473   4.467 -0.3822  1.7608  1.2612
 3641SOL     MW14564   3.160   2.483   4.462 -0.2457  0.3454  0.2480
 3642SOL     OW14565   4.034   3.437   2.795  0.3881  0.0266  0.0957
 3642SOL    HW114566   3.952   3.419   2.840  0.4229  0.1476  0.2085
 3642SOL    HW214567   4.094   3.464   2.864  0.9452 -1.4298  0.2224
 3642SOL     MW14568   4.031   3.438   2.810  0.4677 -0.1531  0.1279
 3643SOL     OW14569   5.481   4.889   3.901 -0.6305  0.0857  0.5759
 3643SOL    HW114570   5.509   4.959   3.842  0.0961 -0.0899  0.7054
 3643SOL    HW214571   5.394   4.865   3.870  0.0555 -0.5548 -0.9344
 3643SOL     MW14572   5.473   4.895   3.889 -0.4404 -0.0242  0.3901
 3644SOL     OW14573   3.075   1.620   3.540 -0.3332 -0.1682  0.1350
 3644SOL    HW114574   3.069   1.626   3.444 -1.6531 -0.2708  0.1835
 3644SOL    HW214575   2.985   1.605   3.568  0.1933 -1.2732  1.3309
 3644SOL     MW14576   3.062   1.619   3.530 -0.4400 -0.3307  0.3025
 3645SOL     OW14577   4.711   2.391   4.589  0.2426 -0.6038 -0.3253
 3645SOL    HW114578   4.738   2.482   4.599  1.8505 -0.8660 -1.7724
 3645SOL    HW214579   4.655   2.391   4.511  0.9894 -0.9765 -0.8691
 3645SOL     MW14580   4.707   2.403   4.580  0.5595 -0.6892 -0.5933
 3646SOL     OW14581   1.103   3.581   3.241  0.5295  0.2822  0.0239
 3646SOL    HW114582   1.020   3.532   3.234  0.7888 -0.0906 -0.5487
 3646SOL    HW214583   1.169   3.513   3.251  0.6437  0.6237  2.0119
 3646SOL     MW14584   1.100   3.565   3.241  0.5798  0.2780  0.2144
 3647SOL     OW14585   2.936   5.212   2.978 -0.5133  0.3726  0.2656
 3647SOL    HW114586   2.853   5.178   3.011 -0.4922  2.3239  2.6135
 3647SOL    HW214587   2.914   5.297   2.941  0.1934  0.1697 -0.6407
 3647SOL     MW14588   2.922   5.219   2.978 -0.4154  0.6079  0.4596
 3648SOL     OW14589   3.810   5.224   0.564 -0.0247  0.0285 -0.3763
 3648SOL    HW114590   3.864   5.273   0.502  0.4133  1.1039  0.7892
 3648SOL    HW214591   3.866   5.153   0.595  1.4675  2.0994  2.0766
 3648SOL     MW14592   3.825   5.221   0.560  0.2351  0.4519  0.1107
 3649SOL     OW14593   1.394   3.325   2.282 -0.5949 -0.4128  0.2005
 3649SOL    HW114594   1.375   3.289   2.368 -0.0402  2.0200  1.4404
 3649SOL    HW214595   1.388   3.420   2.294  1.8450  0.1019 -1.8480
 3649SOL     MW14596   1.391   3.333   2.295 -0.1919 -0.0161  0.0917
 3650SOL     OW14597   3.327   4.224   3.456  0.4135 -0.0596 -0.2960
 3650SOL    HW114598   3.387   4.233   3.382 -0.5642  0.7800 -1.0031
 3650SOL    HW214599   3.242   4.249   3.422 -0.2221 -0.4946  0.8984
 3650SOL     MW14600   3.324   4.228   3.442  0.1964 -0.0052 -0.2304
 3651SOL     OW14601   5.448   2.000   2.665  0.3966  0.7082 -0.0359
 3651SOL    HW114602   5.479   1.939   2.599 -0.1861 -0.7722  0.9974
 3651SOL    HW214603   5.373   2.043   2.624  0.3204  0.1344 -0.5161
 3651SOL     MW14604   5.442   1.998   2.650  0.3080  0.4318  0.0385
 3652SOL     OW14605   2.705   4.192   0.806 -0.1658  0.2292 -0.3124
 3652SOL    HW114606   2.620   4.227   0.782 -0.1864  0.4136  0.0227
 3652SOL    HW214607   2.700   4.099   0.785 -1.1053 -0.1415  1.4423
 3652SOL     MW14608   2.693   4.184   0.800 -0.2950  0.2041 -0.0312
 3653SOL     OW14609   4.274   4.534   2.693  0.0189  0.2622  0.3286
 3653SOL    HW114610   4.348   4.572   2.646  1.4617  2.3355  3.8882
 3653SOL    HW214611   4.204   4.598   2.682  0.3759  0.7796  1.0085
 3653SOL     MW14612   4.274   4.548   2.685  0.2611  0.6109  0.8992
 3654SOL     OW14613   1.603   1.528   2.963 -0.4542  0.6222 -0.6287
 3654SOL    HW114614   1.633   1.443   2.930 -0.3090  0.4140  0.0199
 3654SOL    HW214615   1.618   1.523   3.057  0.3492  1.7027 -0.6970
 3654SOL     MW14616   1.609   1.516   2.971 -0.3265  0.7396 -0.5506
 3655SOL     OW14617   3.819   5.336   5.486  0.5403 -0.1619 -0.2756
 3655SOL    HW114618   3.761   5.316   5.413 -0.0927  2.8768 -0.7349
 3655SOL    HW214619   3.771   5.306   5.563  0.6560 -2.2298 -0.9590
 3655SOL     MW14620   3.805   5.329   5.487  0.4707 -0.0313 -0.4293
 3656SOL     OW14621   3.415   1.044   0.937 -0.8332 -0.6439  0.0245
 3656SOL    HW114622   3.327   1.006   0.943 -1.2093 -0.0200 -1.1051
 3656SOL    HW214623   3.406   1.130   0.978 -1.3083  0.2600 -1.8675
 3656SOL     MW14624   3.402   1.051   0.943 -0.9477 -0.4383 -0.3821
 3657SOL     OW14625   0.765   1.012   0.517 -0.2063 -0.5671  0.5810
 3657SOL    HW114626   0.711   1.090   0.530  2.8791  1.5787  1.5696
 3657SOL    HW214627   0.734   0.976   0.434 -1.3202  2.1129 -0.2841
 3657SOL     MW14628   0.754   1.018   0.507  0.0590  0.0824  0.5977
 3658SOL     OW14629   3.275   5.330   1.772  0.1219 -0.2491 -0.7192
 3658SOL    HW114630   3.215   5.378   1.714  1.8399  0.0672 -2.3283
 3658SOL    HW214631   3.346   5.303   1.715  1.5598 -0.5437  1.1410
 3658SOL     MW14632   3.276   5.333   1.756  0.5466 -0.2462 -0.6854
 3659SOL     OW14633   4.947   0.746   2.886  0.1388 -0.1795  0.2350
 3659SOL    HW114634   4.915   0.715   2.971  0.6425 -1.9798 -0.1758
 3659SOL    HW214635   4.980   0.667   2.843  0.5703  0.8120 -1.3464
 3659SOL     MW14636   4.947   0.731   2.892  0.2646 -0.2883 -0.0331
 3660SOL     OW14637   1.568   5.424   2.995 -0.2345 -0.1689  0.6074
 3660SOL    HW114638   1.597   5.441   3.084 -0.7804  2.3901  0.3707
 3660SOL    HW214639   1.624   5.478   2.940 -1.2045 -0.1679 -0.4223
 3660SOL     MW14640   1.579   5.433   3.000 -0.4385  0.1756  0.4370
 3661SOL     OW14641   1.481   0.434   1.810  0.3353 -0.0916  1.1433
 3661SOL    HW114642   1.497   0.526   1.833 -0.5650 -0.1144  1.9192
 3661SOL    HW214643   1.483   0.433   1.714  1.2481  0.5651  1.1452
 3661SOL     MW14644   1.483   0.446   1.800  0.3370 -0.0063  1.2480
 3662SOL     OW14645   3.455   3.070   1.154 -0.5951 -0.2472 -0.1168
 3662SOL    HW114646   3.365   3.097   1.168 -0.0203  1.9984 -0.3644
 3662SOL    HW214647   3.482   3.029   1.236 -1.3710  0.4519  0.4913
 3662SOL     MW14648   3.447   3.068   1.167 -0.6222  0.1491 -0.0683
 3663SOL     OW14649   2.348   5.100   1.484  0.1306 -0.1325  0.2969
 3663SOL    HW114650   2.418   5.096   1.549 -1.4094 -1.1795  1.9852
 3663SOL    HW214651   2.270   5.124   1.534 -0.7461  1.0297 -1.5311
 3663SOL     MW14652   2.347   5.103   1.500 -0.1946 -0.1170  0.2781
 3664SOL     OW14653   3.082   4.060   2.722  0.4972 -0.9803 -0.7074
 3664SOL    HW114654   2.988   4.048   2.713  0.5004 -2.0880  0.4341
 3664SOL    HW214655   3.097   4.152   2.699 -1.2336 -0.0496  1.4790
 3664SOL     MW14656   3.071   4.071   2.718  0.2647 -1.0041 -0.2596
 3665SOL     OW14657   2.353   1.211   2.006 -0.1029 -0.1704  0.1420
 3665SOL    HW114658   2.307   1.181   2.084  0.8301  0.2497  0.8625
 3665SOL    HW214659   2.323   1.152   1.937 -0.6571 -0.7748  0.8821
 3665SOL     MW14660   2.342   1.199   2.007 -0.0519 -0.1952  0.3386
 3666SOL     OW14661   0.771   5.141   4.195 -0.6463  0.4559 -0.1310
 3666SOL    HW114662   0.831   5.121   4.123 -1.0184 -0.9602 -0.0837
 3666SOL    HW214663   0.767   5.236   4.198  1.4888  0.5944 -0.2239
 3666SOL     MW14664   0.779   5.151   4.186 -0.4091  0.2839 -0.1371
 3667SOL     OW14665   0.869   1.792   4.140  0.1006 -0.1312  0.2433
 3667SOL    HW114666   0.926   1.759   4.070 -0.7358 -0.3773 -0.3317
 3667SOL    HW214667   0.929   1.835   4.201  0.7725  0.7511 -0.9897
 3667SOL     MW14668   0.885   1.793   4.139  0.0785 -0.0456  0.0000
 3668SOL     OW14669   0.575   4.165   0.821  0.4325  0.0223  0.1359
 3668SOL    HW114670   0.626   4.236   0.783  1.0248 -1.0994 -1.2792
 3668SOL    HW214671   0.492   4.166   0.773  0.1394  0.2167  0.6351
 3668SOL     MW14672   0.570   4.175   0.809  0.4728 -0.1025  0.0126
 3669SOL     OW14673   2.490   3.826   4.941  0.0870 -0.0896 -0.0548
 3669SOL    HW114674   2.516   3.861   5.026  0.4054 -2.3231  0.8299
 3669SOL    HW214675   2.553   3.756   4.923 -0.1930  0.0994 -1.9825
 3669SOL     MW14676   2.502   3.821   4.950  0.0921 -0.3648 -0.1952
 3670SOL     OW14677   3.578   4.564   1.602  0.5330  0.3996  0.2456
 3670SOL    HW114678   3.586   4.471   1.579  0.1314  0.1704  0.9843
 3670SOL    HW214679   3.556   4.563   1.696 -1.6563  1.1391 -0.1891
 3670SOL     MW14680   3.576   4.551   1.612  0.1843  0.4682  0.2865
 3671SOL     OW14681   1.868   3.234   2.043  0.0763  0.4889 -0.0147
 3671SOL    HW114682   1.944   3.183   2.017  0.3864 -0.8915  3.1573
 3671SOL    HW214683   1.804   3.169   2.072 -0.9922  1.7677  0.6047
 3671SOL     MW14684   1.870   3.218   2.043 -0.0257  0.4752  0.4956
 3672SOL     OW14685   3.839   0.989   2.188  0.2554  0.1409 -0.5798
 3672SOL    HW114686   3.790   1.064   2.154  0.8826  0.8786  0.1253
 3672SOL    HW214687   3.773   0.935   2.231  0.0134  1.0529  0.2341
 3672SOL     MW14688   3.824   0.992   2.189  0.3073  0.3629 -0.3753
 3673SOL     OW14689   2.505   2.765   1.631 -0.2558  0.0992 -0.6343
 3673SOL    HW114690   2.597   2.740   1.625 -0.7413 -2.0054 -0.2509
 3673SOL    HW214691   2.471   2.716   1.706 -1.9451 -0.0904 -1.4607
 3673SOL     MW14692   2.513   2.755   1.640 -0.5485 -0.2096 -0.6939
 3674SOL     OW14693   2.632   3.878   1.617  0.4110  0.1150  0.0342
 3674SOL    HW114694   2.550   3.896   1.663  0.3535 -0.8028  0.3021
 3674SOL    HW214695   2.619   3.793   1.576  0.8164  0.4813 -0.8941
 3674SOL     MW14696   2.619   3.869   1.618  0.4578  0.0408 -0.0547
 3675SOL     OW14697   5.424   3.096   0.255 -0.4907 -0.4838 -0.0145
 3675SOL    HW114698   5.336   3.060   0.266  0.2967 -2.1912  1.2502
 3675SOL    HW214699   5.482   3.021   0.269  1.2014  0.9079  0.8059
 3675SOL     MW14700   5.420   3.081   0.259 -0.1570 -0.5263  0.2661
 3676SOL     OW14701   2.388   0.753   3.982 -0.1288 -0.2686 -0.0810
 3676SOL    HW114702   2.402   0.661   4.003  1.3533  0.3869  2.1697
 3676SOL    HW214703   2.299   0.771   4.013 -0.9199 -1.1738 -1.6802
 3676SOL     MW14704   2.378   0.743   3.989 -0.0358 -0.3022  0.0067
 3677SOL     OW14705   1.966   0.365   2.744 -0.2845  0.2320  0.6695
 3677SOL    HW114706   1.993   0.302   2.677 -0.4657  2.0520 -1.2129
 3677SOL    HW214707   2.032   0.356   2.813  2.3204  1.0797 -1.5693
 3677SOL     MW14708   1.978   0.355   2.745  0.0417  0.5910  0.1149
 3678SOL     OW14709   0.588   0.756   3.018  0.4654  0.3839  0.2192
 3678SOL    HW114710   0.536   0.764   2.938  0.7969  0.7167  0.0310
 3678SOL    HW214711   0.630   0.841   3.028 -0.7271  0.8371  1.5712
 3678SOL     MW14712   0.587   0.768   3.008  0.3496  0.4897  0.3758
 3679SOL     OW14713   4.949   1.072   3.553 -1.0533  0.3661 -0.3000
 3679SOL    HW114714   5.045   1.072   3.562 -1.2398  1.6105  3.1244
 3679SOL    HW214715   4.934   1.100   3.463  1.8084  1.7108 -0.4889
 3679SOL     MW14716   4.960   1.075   3.543 -0.6933  0.7146  0.1354
 3680SOL     OW14717   1.268   1.276   1.824 -0.0053 -0.1633 -0.5221
 3680SOL    HW114718   1.276   1.332   1.901  1.0579 -0.0404 -0.6944
 3680SOL    HW214719   1.249   1.337   1.752 -0.5967 -0.2326 -0.4292
 3680SOL     MW14720   1.267   1.292   1.825  0.0582 -0.1561 -0.5328
 3681SOL     OW14721   4.882   3.355   4.921  0.0770 -0.3124  0.0457
 3681SOL    HW114722   4.876   3.450   4.910 -2.9046 -0.6342 -2.9557
 3681SOL    HW214723   4.944   3.327   4.854  0.3686 -0.5613  0.4150
 3681SOL     MW14724   4.889   3.364   4.910 -0.2850 -0.3892 -0.3086
 3682SOL     OW14725   2.495   1.544   4.529  0.2284 -0.1922 -0.3514
 3682SOL    HW114726   2.413   1.591   4.544  0.3397  0.3630 -1.3505
 3682SOL    HW214727   2.474   1.478   4.463  0.7015  0.3474 -1.0576
 3682SOL     MW14728   2.481   1.542   4.522  0.3070 -0.0449 -0.5809
 3683SOL     OW14729   5.545   1.312   5.284  0.3076  0.0356 -0.2257
 3683SOL    HW114730   5.467   1.324   5.338  0.6794  0.7429  0.1694
 3683SOL    HW214731   5.514   1.321   5.194 -0.2728 -0.8951 -0.1327
 3683SOL     MW14732   5.531   1.315   5.279  0.2795  0.0056 -0.1601
 3684SOL     OW14733   1.687   3.406   2.705 -0.0246 -0.0217  0.2876
 3684SOL    HW114734   1.718   3.426   2.617 -0.9801  0.1588 -0.0146
 3684SOL    HW214735   1.739   3.330   2.732  1.8257  1.2153  0.4478
 3684SOL     MW14736   1.698   3.398   2.697  0.0958  0.1691  0.2685
 3685SOL     OW14737   2.508   4.265   4.613  0.8869  0.3903 -0.5148
 3685SOL    HW114738   2.531   4.266   4.521 -0.1351  0.6710 -0.7880
 3685SOL    HW214739   2.498   4.173   4.635  0.1243  0.3508 -0.9702
 3685SOL     MW14740   2.510   4.253   4.604  0.6467  0.4227 -0.6128
 3686SOL     OW14741   4.187   2.716   4.244 -0.1758 -0.1718  0.4078
 3686SOL    HW114742   4.188   2.634   4.193 -0.1198 -0.2088  0.4679
 3686SOL    HW214743   4.215   2.783   4.182 -0.7527 -0.1076  0.2046
 3686SOL     MW14744   4.191   2.714   4.229 -0.2459 -0.1682  0.3886
 3687SOL     OW14745   4.197   1.969   5.132 -0.0442 -0.3452 -0.3794
 3687SOL    HW114746   4.145   1.908   5.079 -1.1478 -0.4755  0.8039
 3687SOL    HW214747   4.140   1.991   5.206  1.5845 -0.4846  0.9750
 3687SOL     MW14748   4.182   1.964   5.135  0.0265 -0.3815 -0.0378
 3688SOL     OW14749   4.353   3.430   3.568 -0.0085  0.0533 -0.1400
 3688SOL    HW114750   4.446   3.408   3.556 -0.1924 -1.0833  0.3586
 3688SOL    HW214751   4.322   3.365   3.631 -1.3321 -0.0738 -0.8999
 3688SOL     MW14752   4.362   3.418   3.575 -0.2114 -0.1168 -0.1751
 3689SOL     OW14753   4.815   2.862   4.449  0.5712 -0.4894  0.6657
 3689SOL    HW114754   4.883   2.924   4.474 -0.8366  0.8833  1.2594
 3689SOL    HW214755   4.833   2.842   4.357  0.5882  1.4961  0.1992
 3689SOL     MW14756   4.826   2.868   4.440  0.3840 -0.0375  0.6828
 3690SOL     OW14757   4.130   4.744   1.804 -0.0581  0.7229 -0.5431
 3690SOL    HW114758   4.045   4.722   1.842 -0.1184 -1.4248 -1.7584
 3690SOL    HW214759   4.116   4.739   1.709  1.3365  0.7069 -0.7727
 3690SOL     MW14760   4.117   4.741   1.796  0.1215  0.4317 -0.7375
 3691SOL     OW14761   3.666   5.511   3.151 -0.0610 -0.0125 -0.3137
 3691SOL    HW114762   3.621   5.545   3.074 -0.9619  0.5736  0.4551
 3691SOL    HW214763   3.680   5.418   3.130 -1.9899 -0.3264 -0.4358
 3691SOL     MW14764   3.662   5.503   3.137 -0.4418  0.0241 -0.2267
 3692SOL     OW14765   4.398   0.764   2.605  0.1566  0.2779 -0.2991
 3692SOL    HW114766   4.309   0.801   2.608 -0.9440 -2.2036  1.7976
 3692SOL    HW214767   4.389   0.686   2.549  1.3169  0.5921 -0.9538
 3692SOL     MW14768   4.385   0.758   2.598  0.1646 -0.0138 -0.1051
 3693SOL     OW14769   2.391   0.824   0.190  0.3382  0.1881  0.1738
 3693SOL    HW114770   2.346   0.888   0.245  0.5072  1.1577 -0.7800
 3693SOL    HW214771   2.474   0.866   0.167  0.3643 -0.2904 -0.6351
 3693SOL     MW14772   2.396   0.838   0.194  0.3645  0.2542 -0.0634
 3694SOL     OW14773   4.901   2.223   2.891 -0.3158 -0.2463  0.1195
 3694SOL    HW114774   4.843   2.294   2.919 -1.0571 -0.5597 -0.5831
 3694SOL    HW214775   4.933   2.251   2.805  0.1198 -0.3430  0.2482
 3694SOL     MW14776   4.897   2.237   2.883 -0.3570 -0.3015  0.0422
 3695SOL     OW14777   2.240   5.535   4.637  0.0392  1.0367 -0.3431
 3695SOL    HW114778   2.144   5.536   4.637  0.0335  0.7372  0.1521
 3695SOL    HW214779   2.263   5.442   4.637  0.3082  1.0203  2.2660
 3695SOL     MW14780   2.230   5.523   4.637  0.0746  0.9942  0.0747
 3696SOL     OW14781   3.707   3.089   2.308  0.8076 -0.3574 -0.8198
 3696SOL    HW114782   3.757   3.165   2.336 -0.6552  0.8944 -1.4427
 3696SOL    HW214783   3.718   3.087   2.213 -0.7218  0.2928 -1.0432
 3696SOL     MW14784   3.715   3.099   2.299  0.4049 -0.1014 -0.9337
 3697SOL     OW14785   2.882   2.712   2.616  0.0794  0.3661 -0.1398
 3697SOL    HW114786   2.899   2.725   2.709 -2.1119  0.1586  0.3426
 3697SOL    HW214787   2.863   2.618   2.608  0.4671  0.3380 -0.8552
 3697SOL     MW14788   2.882   2.701   2.627 -0.1634  0.3344 -0.1711
 3698SOL     OW14789   5.291   4.089   3.968  0.2930  0.5160  0.0338
 3698SOL    HW114790   5.213   4.128   3.928  0.5698  0.0961 -0.9456
 3698SOL    HW214791   5.265   3.999   3.988  0.8909 -0.0249 -1.4772
 3698SOL     MW14792   5.277   4.082   3.966  0.4107  0.3867 -0.3013
 3699SOL     OW14793   2.727   4.847   2.409 -0.2501  0.2557 -0.0823
 3699SOL    HW114794   2.804   4.794   2.430  0.1489  0.7573 -0.2634
 3699SOL    HW214795   2.728   4.854   2.313  0.3956  1.5995 -0.0037
 3699SOL     MW14796   2.737   4.841   2.399 -0.1095  0.5041 -0.0961
 3700SOL     OW14797   2.879   3.158   0.933  0.3419  0.4020  0.0250
 3700SOL    HW114798   2.826   3.096   0.982  0.0717  0.7623  0.1928
 3700SOL    HW214799   2.953   3.106   0.901 -0.0540 -0.0774 -0.1250
 3700SOL     MW14800   2.882   3.143   0.935  0.2522  0.3860  0.0274
 3701SOL     OW14801   0.549   0.240   0.486 -0.2567 -0.9062  0.3210
 3701SOL    HW114802   0.555   0.210   0.395 -0.6803 -0.4889  0.1524
 3701SOL    HW214803   0.564   0.161   0.538  1.1336 -0.9394 -0.0968
 3701SOL     MW14804   0.552   0.226   0.480 -0.1266 -0.8545  0.2421
 3702SOL     OW14805   1.705   1.752   1.137  0.3890  0.1325  0.0963
 3702SOL    HW114806   1.687   1.732   1.229 -0.7846 -0.2233 -0.1877
 3702SOL    HW214807   1.796   1.726   1.124  0.7428  0.7012  1.2894
 3702SOL     MW14808   1.714   1.746   1.148  0.2787  0.1611  0.2186
 3703SOL     OW14809   3.621   0.980   4.496  0.1073  0.1224  0.1148
 3703SOL    HW114810   3.527   0.992   4.483  0.0208 -1.3367 -0.8033
 3703SOL    HW214811   3.635   0.996   4.589 -1.3300 -1.2682  0.5927
 3703SOL     MW14812   3.611   0.984   4.507 -0.0978 -0.2611  0.0556
 3704SOL     OW14813   0.546   2.807   0.407  0.4885 -0.2149 -0.1741
 3704SOL    HW114814   0.564   2.848   0.322  0.8810 -0.5417 -0.2515
 3704SOL    HW214815   0.521   2.879   0.464 -0.7413 -0.1035 -0.8276
 3704SOL     MW14816   0.545   2.822   0.403  0.3758 -0.2439 -0.2725
 3705SOL     OW14817   4.225   4.462   5.411  0.6224 -0.6513 -0.3236
 3705SOL    HW114818   4.303   4.459   5.354  0.0972 -2.5064 -1.0358
 3705SOL    HW214819   4.154   4.433   5.354  0.0629 -2.4981  1.2346
 3705SOL     MW14820   4.226   4.458   5.395  0.4764 -1.1495 -0.2097
 3706SOL     OW14821   5.185   5.377   2.255 -0.6019 -0.6933 -0.2373
 3706SOL    HW114822   5.170   5.283   2.245 -3.3907 -0.3467  0.0048
 3706SOL    HW214823   5.229   5.403   2.174 -1.1893 -1.9375 -0.9865
 3706SOL     MW14824   5.189   5.368   2.243 -1.0563 -0.8141 -0.3055
 3707SOL     OW14825   2.624   5.290   1.462 -0.3103  0.0937 -0.6089
 3707SOL    HW114826   2.579   5.363   1.505 -1.5491 -0.4717 -0.9011
 3707SOL    HW214827   2.610   5.215   1.520  2.2014  0.3380  0.4381
 3707SOL     MW14828   2.616   5.290   1.476 -0.1390  0.0505 -0.5073
 3708SOL     OW14829   4.029   1.952   0.915 -0.2974 -0.0273  0.4062
 3708SOL    HW114830   4.101   1.951   0.979  1.0860  0.6191 -1.0929
 3708SOL    HW214831   4.067   1.989   0.836 -1.9951 -0.7354 -0.8004
 3708SOL     MW14832   4.044   1.957   0.913 -0.3397 -0.0356  0.0420
 3709SOL     OW14833   4.750   1.356   2.362  0.2596  0.0904 -0.1779
 3709SOL    HW114834   4.687   1.294   2.326 -0.4410  0.4518  0.3983
 3709SOL    HW214835   4.794   1.307   2.432  2.1404 -0.8531 -1.9252
 3709SOL     MW14836   4.747   1.341   2.367  0.4184  0.0121 -0.3355
 3710SOL     OW14837   4.853   5.066   0.920  0.1541  0.2747  0.0595
 3710SOL    HW114838   4.770   5.047   0.875  1.1377 -0.7033 -1.4600
 3710SOL    HW214839   4.907   4.989   0.904  0.9787  0.4019  2.0146
 3710SOL     MW14840   4.849   5.053   0.912  0.3974  0.1602  0.1181
 3711SOL     OW14841   4.579   1.877   3.992 -0.0172 -0.4352  0.3218
 3711SOL    HW114842   4.584   1.805   3.929 -2.1322 -0.5754  0.2204
 3711SOL    HW214843   4.525   1.943   3.948 -1.0109 -0.2748  1.7020
 3711SOL     MW14844   4.572   1.876   3.977 -0.4356 -0.4325  0.4939
 3712SOL     OW14845   4.927   0.142   3.616 -0.0616  0.3117 -0.3772
 3712SOL    HW114846   5.010   0.097   3.633 -0.6409 -0.2458  1.1422
 3712SOL    HW214847   4.931   0.165   3.523  1.7872  0.3131 -0.3339
 3712SOL     MW14848   4.939   0.139   3.606  0.1092  0.2369 -0.1669
 3713SOL     OW14849   0.743   3.507   0.221 -0.1101  0.2919  0.1573
 3713SOL    HW114850   0.685   3.581   0.238 -0.0276  0.4152 -0.0939
 3713SOL    HW214851   0.830   3.546   0.214 -0.2226  0.3445 -1.2550
 3713SOL     MW14852   0.747   3.522   0.223 -0.1142  0.3156 -0.0666
 3714SOL     OW14853   5.237   3.011   1.506  0.4372 -0.4167  0.2692
 3714SOL    HW114854   5.245   3.094   1.460 -0.4101  0.8213  2.2266
 3714SOL    HW214855   5.315   2.962   1.480  0.5901  0.6542 -1.4989
 3714SOL     MW14856   5.249   3.016   1.496  0.3438 -0.1059  0.2947
 3715SOL     OW14857   2.535   2.882   5.275 -0.3726 -0.1546 -0.3573
 3715SOL    HW114858   2.461   2.826   5.249  0.1670 -0.7011 -0.7245
 3715SOL    HW214859   2.608   2.821   5.285 -0.2668  0.1841  1.2968
 3715SOL     MW14860   2.535   2.866   5.273 -0.2858 -0.1826 -0.1841
 3716SOL     OW14861   1.093   0.070   3.846 -0.0707 -0.3823 -0.3082
 3716SOL    HW114862   1.091   0.009   3.772 -0.1471 -0.1339 -0.5109
 3716SOL    HW214863   1.014   0.122   3.837 -0.9815 -1.4867  0.9188
 3716SOL     MW14864   1.082   0.069   3.835 -0.2036 -0.4975 -0.1703
 3717SOL     OW14865   2.915   2.436   1.094 -0.1830 -0.4327  0.4448
 3717SOL    HW114866   2.840   2.496   1.083  0.1525 -0.2099 -0.6678
 3717SOL    HW214867   2.977   2.486   1.147 -0.1101  0.0221 -0.0657
 3717SOL     MW14868   2.913   2.451   1.100 -0.1281 -0.3415  0.2263
 3718SOL     OW14869   2.522   3.632   1.516 -0.5990  0.1439  0.5373
 3718SOL    HW114870   2.576   3.583   1.455  0.1104  1.9402 -0.3403
 3718SOL    HW214871   2.457   3.677   1.461 -1.8832 -0.5596  1.4081
 3718SOL     MW14872   2.520   3.632   1.501 -0.6763  0.2910  0.5364
 3719SOL     OW14873   5.326   5.390   3.455  0.0660 -0.1285  0.3335
 3719SOL    HW114874   5.291   5.478   3.441 -1.2996 -0.7176 -0.0469
 3719SOL    HW214875   5.388   5.378   3.384  0.3811  0.5720  0.4748
 3719SOL     MW14876   5.330   5.401   3.444 -0.0754 -0.1135  0.3013
 3720SOL     OW14877   4.718   2.521   5.432 -0.3185 -0.1228  0.5819
 3720SOL    HW114878   4.755   2.596   5.478 -0.8787  0.7737 -0.3752
 3720SOL    HW214879   4.625   2.542   5.423 -0.8501 -1.7203  1.7735
 3720SOL     MW14880   4.710   2.533   5.437 -0.4654 -0.2171  0.6135
 3721SOL     OW14881   1.867   2.799   4.849 -0.4998 -0.1704 -0.5177
 3721SOL    HW114882   1.793   2.813   4.790 -0.2214  2.5249 -0.3429
 3721SOL    HW214883   1.855   2.863   4.919  0.6817 -1.3958  0.8739
 3721SOL     MW14884   1.855   2.809   4.850 -0.3033  0.0274 -0.3069
 3722SOL     OW14885   3.735   4.806   0.573  1.0269  0.1821  0.1680
 3722SOL    HW114886   3.797   4.872   0.602  1.2596 -0.5397  1.3601
 3722SOL    HW214887   3.649   4.844   0.593  1.1508  0.2644  0.5529
 3722SOL     MW14888   3.731   4.820   0.579  1.0749  0.0960  0.3802
 3723SOL     OW14889   2.358   2.239   5.225  0.3583 -0.1827  0.1733
 3723SOL    HW114890   2.376   2.300   5.296  0.0948 -0.9032  0.8699
 3723SOL    HW214891   2.266   2.255   5.203  0.5182  0.2371 -0.2056
 3723SOL     MW14892   2.348   2.250   5.231  0.3443 -0.2232  0.2161
 3724SOL     OW14893   1.915   3.195   5.245 -0.1893 -0.1768  0.2660
 3724SOL    HW114894   1.939   3.256   5.175 -1.5819  0.2782  0.1645
 3724SOL    HW214895   1.866   3.126   5.200 -0.0011 -0.5352  0.6140
 3724SOL     MW14896   1.912   3.194   5.229 -0.3514 -0.1638  0.2991
 3725SOL     OW14897   2.436   1.619   0.183  0.3699  0.1291  0.1555
 3725SOL    HW114898   2.522   1.585   0.156 -0.2835 -1.1880 -0.3944
 3725SOL    HW214899   2.375   1.580   0.120 -0.5552  1.6713  0.0558
 3725SOL     MW14900   2.439   1.609   0.171  0.1574  0.1594  0.0681
 3726SOL     OW14901   2.365   0.503   0.869 -0.5533  0.0261 -0.2909
 3726SOL    HW114902   2.362   0.534   0.959 -1.8018  0.2029 -0.3731
 3726SOL    HW214903   2.455   0.474   0.856 -0.3464  0.0532  0.9912
 3726SOL     MW14904   2.376   0.504   0.879 -0.6935  0.0535 -0.1294
 3727SOL     OW14905   5.305   4.030   3.558 -0.7740 -0.7053 -0.5926
 3727SOL    HW114906   5.326   3.968   3.489 -0.6947 -0.3170 -0.9212
 3727SOL    HW214907   5.391   4.057   3.593 -0.7031  0.5601 -1.6505
 3727SOL     MW14908   5.320   4.025   3.554 -0.7538 -0.4828 -0.7792
 3728SOL     OW14909   4.744   1.985   4.166 -0.2102 -0.2859 -0.5715
 3728SOL    HW114910   4.787   1.907   4.203 -0.1798  0.0487  0.1196
 3728SOL    HW214911   4.677   1.950   4.108 -0.6780 -0.8436  0.2796
 3728SOL     MW14912   4.741   1.969   4.163 -0.2690 -0.3159 -0.3640
 3729SOL     OW14913   3.105   2.866   0.186  0.1466  0.4041 -0.0878
 3729SOL    HW114914   3.084   2.871   0.093 -0.2070  1.2630  0.0282
 3729SOL    HW214915   3.116   2.958   0.213  1.2165  0.1204  0.4961
 3729SOL     MW14916   3.104   2.879   0.177  0.2430  0.4815  0.0064
 3730SOL     OW14917   5.098   3.426   2.621 -0.6366  0.1114  0.5061
 3730SOL    HW114918   5.173   3.405   2.565 -0.6827 -2.4772  1.2845
 3730SOL    HW214919   5.025   3.378   2.582 -1.3687  0.7642  1.0528
 3730SOL     MW14920   5.098   3.417   2.609 -0.7413 -0.1491  0.6844
 3731SOL     OW14921   1.902   5.381   3.367  0.1205 -0.1708 -0.0897
 3731SOL    HW114922   1.952   5.321   3.422  0.0200  0.7252  1.0062
 3731SOL    HW214923   1.965   5.410   3.301  0.8967  0.4568  0.8990
 3731SOL     MW14924   1.918   5.377   3.365  0.2114  0.0342  0.1909
 3732SOL     OW14925   3.646   2.005   1.652  0.5413  0.1193 -0.0701
 3732SOL    HW114926   3.721   2.037   1.602  1.2338 -1.2090  0.0702
 3732SOL    HW214927   3.665   2.031   1.742  0.1025  1.0617 -0.2381
 3732SOL     MW14928   3.659   2.013   1.657  0.5755  0.0674 -0.0738
 3733SOL     OW14929   4.666   4.026   2.941 -0.1386 -0.1190  0.5634
 3733SOL    HW114930   4.588   4.059   2.896  0.3742  0.7288  0.2637
 3733SOL    HW214931   4.729   4.098   2.936  1.2570 -1.3419 -0.6324
 3733SOL     MW14932   4.664   4.040   2.934  0.1182 -0.1694  0.3621
 3734SOL     OW14933   3.765   4.788   3.435  0.4187 -0.2119  0.3287
 3734SOL    HW114934   3.811   4.734   3.500  1.1342 -1.1223 -0.8903
 3734SOL    HW214935   3.751   4.729   3.361 -2.1208  0.2538  0.3560
 3734SOL     MW14936   3.770   4.773   3.434  0.1732 -0.2718  0.1683
 3735SOL     OW14937   4.951   0.160   0.675  0.6254  0.0429  0.0011
 3735SOL    HW114938   4.867   0.177   0.717  0.4354 -0.0550 -0.3361
 3735SOL    HW214939   4.949   0.212   0.595  1.1064  0.4578  0.2517
 3735SOL     MW14940   4.939   0.169   0.670  0.6646  0.0856 -0.0105
 3736SOL     OW14941   5.281   0.795   3.470 -0.7124  0.2808  0.3161
 3736SOL    HW114942   5.254   0.818   3.381 -0.4773  1.2051  0.4719
 3736SOL    HW214943   5.375   0.776   3.463 -0.4304  1.4887  0.5493
 3736SOL     MW14944   5.290   0.796   3.457 -0.6428  0.5678  0.3684
 3737SOL     OW14945   0.463   1.737   3.886 -0.2034 -0.0567 -0.3207
 3737SOL    HW114946   0.428   1.750   3.798 -1.7440 -0.5000  0.1998
 3737SOL    HW214947   0.498   1.648   3.885 -0.4133 -0.1391 -0.4333
 3737SOL     MW14948   0.463   1.727   3.874 -0.4390 -0.1274 -0.2658
 3738SOL     OW14949   3.178   3.987   0.932  0.0581 -0.4449  0.0007
 3738SOL    HW114950   3.243   4.028   0.874  0.4694 -0.6117  0.3400
 3738SOL    HW214951   3.105   4.049   0.933  0.4129 -0.0177  0.0080
 3738SOL     MW14952   3.177   4.001   0.924  0.1612 -0.4099  0.0473
 3739SOL     OW14953   1.700   3.256   5.414 -0.0325  0.4342 -0.5399
 3739SOL    HW114954   1.781   3.238   5.366  0.8813 -0.1068  1.1116
 3739SOL    HW214955   1.702   3.351   5.430  0.8568  0.2574  0.4565
 3739SOL     MW14956   1.711   3.267   5.410  0.2102  0.3376 -0.1835
 3740SOL     OW14957   0.538   4.420   0.342 -0.2809  0.1326 -0.5621
 3740SOL    HW114958   0.514   4.346   0.398  0.1609 -0.5373 -1.2334
 3740SOL    HW214959   0.543   4.382   0.254  0.6147  0.8121 -0.8192
 3740SOL     MW14960   0.535   4.405   0.338 -0.1009  0.1339 -0.6870
 3741SOL     OW14961   1.578   5.112   3.726 -0.1569  0.3235  0.6696
 3741SOL    HW114962   1.566   5.061   3.806  0.9994 -0.7239  0.1978
 3741SOL    HW214963   1.502   5.090   3.672  0.6823 -1.5070  0.1782
 3741SOL     MW14964   1.566   5.103   3.730  0.1117 -0.0638  0.5400
 3742SOL     OW14965   3.762   0.683   0.219  0.3060  0.0396 -0.6080
 3742SOL    HW114966   3.838   0.703   0.164 -0.0880 -1.1874 -1.6507
 3742SOL    HW214967   3.715   0.615   0.171 -0.2570 -0.8292  1.0827
 3742SOL     MW14968   3.766   0.677   0.205  0.1772 -0.2425 -0.5208
 3743SOL     OW14969   0.558   3.928   1.472  0.1683 -0.2819 -0.3257
 3743SOL    HW114970   0.526   3.956   1.557 -1.2339  0.7071 -1.1466
 3743SOL    HW214971   0.492   3.957   1.410  1.5994 -0.1560 -1.8720
 3743SOL     MW14972   0.545   3.936   1.475  0.1721 -0.1319 -0.6443
 3744SOL     OW14973   0.877   0.339   0.369 -0.0728 -0.1126 -0.5203
 3744SOL    HW114974   0.825   0.289   0.432 -0.2068  0.0312 -0.5166
 3744SOL    HW214975   0.956   0.286   0.357 -0.8661 -1.1082 -1.6828
 3744SOL     MW14976   0.880   0.325   0.376 -0.1976 -0.2272 -0.6763
 3745SOL     OW14977   1.237   3.791   3.118  0.3800 -0.2929  0.6991
 3745SOL    HW114978   1.185   3.829   3.048  1.6592  0.7762  0.2977
 3745SOL    HW214979   1.172   3.749   3.176 -0.6532 -1.8243 -1.4321
 3745SOL     MW14980   1.221   3.790   3.116  0.4131 -0.3551  0.3583
 3746SOL     OW14981   3.650   0.537   5.478 -0.1321  0.2272 -0.2705
 3746SOL    HW114982   3.601   0.470   5.524 -2.5870  1.0464 -1.5101
 3746SOL    HW214983   3.700   0.489   5.411  1.1250 -0.6553  1.2443
 3746SOL     MW14984   3.650   0.522   5.475 -0.2933  0.2187 -0.2335
 3747SOL     OW14985   2.461   1.798   3.257  0.0260 -0.1724 -0.2893
 3747SOL    HW114986   2.389   1.761   3.207 -0.6808  2.0942 -1.0637
 3747SOL    HW214987   2.534   1.803   3.194  0.0404 -0.0305 -0.2623
 3747SOL     MW14988   2.461   1.794   3.242 -0.0672  0.1518 -0.3899
 3748SOL     OW14989   1.460   2.107   4.428  0.1562  0.0535 -0.7233
 3748SOL    HW114990   1.495   2.027   4.389 -1.2741 -0.4587 -1.0156
 3748SOL    HW214991   1.384   2.129   4.375 -2.7122 -1.4236  2.4100
 3748SOL     MW14992   1.455   2.099   4.416 -0.4223 -0.2142 -0.3409
 3749SOL     OW14993   1.290   5.482   0.455 -0.6009  0.2080  0.3431
 3749SOL    HW114994   1.213   5.530   0.424 -0.5778 -0.6603 -1.2031
 3749SOL    HW214995   1.364   5.524   0.411 -0.3443  0.1766  0.7443
 3749SOL     MW14996   1.289   5.494   0.445 -0.5632  0.0869  0.1890
 3750SOL     OW14997   0.319   2.524   0.613  0.5056  0.4937  0.0117
 3750SOL    HW114998   0.315   2.464   0.687 -0.4248 -0.9289 -1.1351
 3750SOL    HW214999   0.336   2.609   0.652  2.1601 -0.5156  1.6958
 3750SOL     MW15000   0.321   2.527   0.628  0.6030  0.1665  0.0840
 3751SOL     OW15001   5.495   2.373   3.478 -0.2650  0.5791 -0.3592
 3751SOL    HW115002   5.518   2.368   3.571 -0.6351  0.8269 -0.2529
 3751SOL    HW215003   5.557   2.314   3.435 -0.5692 -0.1227  0.1359
 3751SOL     MW15004   5.506   2.364   3.485 -0.3558  0.5180 -0.2783
 3752SOL     OW15005   3.376   1.084   0.652  0.1347 -0.0320  0.0403
 3752SOL    HW115006   3.392   1.077   0.746 -0.5399 -0.2837  0.1428
 3752SOL    HW215007   3.290   1.043   0.640  0.5784 -0.7346 -0.7932
 3752SOL     MW15008   3.367   1.077   0.663  0.1036 -0.1605 -0.0581
 3753SOL     OW15009   3.220   5.333   2.798  0.1272  0.0578  0.1450
 3753SOL    HW115010   3.275   5.352   2.722 -0.2869  3.2749  0.4747
 3753SOL    HW215011   3.131   5.329   2.762  0.2348 -2.4625 -0.0112
 3753SOL     MW15012   3.215   5.335   2.783  0.0859  0.1515  0.1684
 3754SOL     OW15013   4.899   2.773   5.107 -0.3417  0.9379  0.0582
 3754SOL    HW115014   4.820   2.740   5.150  0.3783  1.1096  1.5720
 3754SOL    HW215015   4.905   2.721   5.027 -1.0624 -0.2750  0.7413
 3754SOL     MW15016   4.889   2.761   5.102 -0.3418  0.7978  0.3538
 3755SOL     OW15017   5.524   0.342   0.060 -0.3209  0.4588 -0.2461
 3755SOL    HW115018   5.487   0.405  -0.002  1.1866  0.5478 -1.0960
 3755SOL    HW215019   5.452   0.282   0.079 -1.2363  1.3190 -0.9249
 3755SOL     MW15020   5.509   0.342   0.054 -0.2412  0.5865 -0.4518
 3756SOL     OW15021   4.850   4.111   2.577  0.1057 -0.3470  0.0071
 3756SOL    HW115022   4.898   4.166   2.639 -1.6833  0.4239  0.7939
 3756SOL    HW215023   4.760   4.145   2.580 -0.4836 -1.6641 -1.4453
 3756SOL     MW15024   4.844   4.123   2.586 -0.2143 -0.4205 -0.0825
 3757SOL     OW15025   3.306   3.599   0.111  0.1076  0.1001 -0.2576
 3757SOL    HW115026   3.342   3.560   0.191  0.6861 -0.9769 -1.0176
 3757SOL    HW215027   3.288   3.525   0.054  2.4670  0.9400 -2.2722
 3757SOL     MW15028   3.309   3.584   0.114  0.5030  0.0682 -0.6310
 3758SOL     OW15029   0.618   1.589   5.535  0.7704 -0.4800  0.1772
 3758SOL    HW115030   0.550   1.551   5.480 -0.1735 -0.5028  1.3178
 3758SOL    HW215031   0.641   1.672   5.492  0.5546 -0.8198 -0.6052
 3758SOL     MW15032   0.612   1.595   5.522  0.6143 -0.5288  0.2254
 3759SOL     OW15033   5.295   4.347   5.398  0.3399  0.0585 -0.4210
 3759SOL    HW115034   5.228   4.394   5.448  1.2257  0.2719  0.6071
 3759SOL    HW215035   5.323   4.276   5.457  1.6093  0.4928 -0.4661
 3759SOL     MW15036   5.290   4.344   5.413  0.6300  0.1456 -0.2887
 3760SOL     OW15037   1.113   1.574   0.049 -0.0719 -0.2261  0.3982
 3760SOL    HW115038   1.026   1.541   0.071 -0.2483 -1.2793 -1.6160
 3760SOL    HW215039   1.100   1.666   0.030 -0.6972 -0.3235  0.3485
 3760SOL     MW15040   1.100   1.582   0.050 -0.1798 -0.3809  0.1205
 3761SOL     OW15041   4.678   3.404   2.670 -0.3335 -0.3095 -0.5285
 3761SOL    HW115042   4.628   3.440   2.743 -0.0901 -0.0799 -0.4753
 3761SOL    HW215043   4.703   3.481   2.619  0.6091 -0.3644 -0.1529
 3761SOL     MW15044   4.674   3.420   2.673 -0.1739 -0.2860 -0.4708
 3762SOL     OW15045   1.835   0.230   2.106  1.4003  0.3208 -0.2177
 3762SOL    HW115046   1.930   0.213   2.108  1.4021  0.2780 -0.6378
 3762SOL    HW215047   1.826   0.321   2.134  1.3703 -0.4113  2.4044
 3762SOL     MW15048   1.847   0.240   2.110  1.3965  0.2165  0.0787
 3763SOL     OW15049   2.368   3.937   3.933 -0.1809 -0.1252 -0.1791
 3763SOL    HW115050   2.435   3.981   3.881 -1.0158  0.8876 -0.4396
 3763SOL    HW215051   2.380   3.844   3.914  1.1948  0.0305 -0.1431
 3763SOL     MW15052   2.379   3.930   3.923 -0.1081  0.0321 -0.2093
 3764SOL     OW15053   5.301   0.315   4.481 -0.4091 -0.3969  0.1803
 3764SOL    HW115054   5.372   0.269   4.526  0.0392  0.5677  0.4920
 3764SOL    HW215055   5.222   0.291   4.528  0.0371  0.5079  1.4426
 3764SOL     MW15056   5.300   0.306   4.493 -0.2887 -0.1453  0.3921
 3765SOL     OW15057   2.120   0.811   4.054  0.3102 -0.0915 -0.3618
 3765SOL    HW115058   2.132   0.905   4.067  2.8023 -0.2143 -1.2349
 3765SOL    HW215059   2.094   0.802   3.963  2.5780 -0.3342 -1.0358
 3765SOL     MW15060   2.118   0.823   4.044  0.9508 -0.1407 -0.5700
 3766SOL     OW15061   1.174   1.318   1.038  0.3829  0.4325 -0.3850
 3766SOL    HW115062   1.197   1.374   0.964 -1.7357  2.0373  0.0795
 3766SOL    HW215063   1.079   1.319   1.041  0.3680 -0.6846  1.5577
 3766SOL     MW15064   1.164   1.326   1.029  0.0957  0.4981 -0.0610
 3767SOL     OW15065   4.408   3.814   2.200  0.6671 -0.1725  0.4026
 3767SOL    HW115066   4.450   3.730   2.177  0.6637  0.2056 -1.0551
 3767SOL    HW215067   4.320   3.807   2.164  0.9309  0.7690 -0.4488
 3767SOL     MW15068   4.402   3.802   2.192  0.7021  0.0051  0.0919
 3768SOL     OW15069   1.023   2.718   3.725  0.1069  0.3574 -0.2596
 3768SOL    HW115070   0.982   2.720   3.638 -0.2742  3.6578 -0.1532
 3768SOL    HW215071   1.116   2.700   3.707  0.0070  0.8441 -1.3596
 3768SOL     MW15072   1.030   2.716   3.711  0.0422  0.8671 -0.3933
 3769SOL     OW15073   4.560   1.220   4.548  0.1793  0.1212 -0.2416
 3769SOL    HW115074   4.546   1.196   4.640  0.6661  0.7668  0.0099
 3769SOL    HW215075   4.487   1.179   4.501  0.8348 -1.6440  0.1875
 3769SOL     MW15076   4.548   1.211   4.554  0.3330 -0.0295 -0.1500
 3770SOL     OW15077   5.369   5.485   2.059  0.0026  0.0764 -0.3959
 3770SOL    HW115078   5.408   5.564   2.096 -2.4575  1.1230  0.1564
 3770SOL    HW215079   5.444   5.429   2.039  1.7023  1.3101  1.9546
 3770SOL     MW15080   5.384   5.488   2.061 -0.0997  0.3833 -0.0052
 3771SOL     OW15081   4.202   4.024   4.870 -0.3653  0.2094  0.4701
 3771SOL    HW115082   4.204   4.097   4.933  3.4977 -0.1593  1.0231
 3771SOL    HW215083   4.210   3.946   4.924  1.5203 -0.1973 -0.3118
 3771SOL     MW15084   4.204   4.023   4.886  0.4083  0.1050  0.4393
 3772SOL     OW15085   4.834   5.010   1.929  0.2496 -0.4467 -0.1897
 3772SOL    HW115086   4.755   5.040   1.885 -0.5008 -0.9005  0.7991
 3772SOL    HW215087   4.905   5.031   1.869 -0.4040  1.7384 -0.2969
 3772SOL     MW15088   4.833   5.017   1.915  0.0606 -0.2137 -0.0711
 3773SOL     OW15089   0.868   3.585   2.761  0.8426 -0.3103 -0.5807
 3773SOL    HW115090   0.813   3.642   2.816 -0.9741 -0.0671 -2.5211
 3773SOL    HW215091   0.877   3.505   2.812  0.0499  0.2542  0.5010
 3773SOL     MW15092   0.862   3.582   2.775  0.4914 -0.2016 -0.6963
 3774SOL     OW15093   1.468   5.218   4.132  0.7554 -0.7292  0.3497
 3774SOL    HW115094   1.392   5.240   4.078  0.1883 -0.4484  1.2411
 3774SOL    HW215095   1.516   5.300   4.142 -0.2774 -0.2740  1.9944
 3774SOL     MW15096   1.464   5.232   4.126  0.5401 -0.6302  0.6910
 3775SOL     OW15097   4.062   0.109   5.393 -0.4849 -0.3439 -0.4803
 3775SOL    HW115098   4.055   0.119   5.298  1.8934 -1.6921 -0.8725
 3775SOL    HW215099   3.976   0.135   5.426 -1.5603 -0.3590 -3.0304
 3775SOL     MW15100   4.050   0.114   5.385 -0.3096 -0.5274 -0.8763
 3776SOL     OW15101   1.987   0.615   3.183 -0.0483 -0.6427 -0.2191
 3776SOL    HW115102   1.965   0.668   3.107  0.3315 -0.3069 -0.1036
 3776SOL    HW215103   1.905   0.573   3.209 -0.1542 -0.8550 -0.8836
 3776SOL     MW15104   1.973   0.617   3.176 -0.0114 -0.6261 -0.2930
 3777SOL     OW15105   1.316   1.443   0.510 -0.3530 -0.2317 -0.0421
 3777SOL    HW115106   1.375   1.369   0.500  0.8250  0.3958  1.8128
 3777SOL    HW215107   1.279   1.456   0.422 -0.3632 -2.7700 -0.4848
 3777SOL     MW15108   1.319   1.435   0.497 -0.1958 -0.4888  0.1479
 3778SOL     OW15109   3.419   1.908   3.143 -0.1242  0.2869 -0.4028
 3778SOL    HW115110   3.436   1.842   3.210 -0.9455 -0.3176 -0.7835
 3778SOL    HW215111   3.389   1.859   3.067 -1.1927  1.1246 -0.5500
 3778SOL     MW15112   3.417   1.893   3.142 -0.3785  0.3183 -0.4739
 3779SOL     OW15113   4.535   4.888   3.818 -0.0309  0.4988 -0.0341
 3779SOL    HW115114   4.530   4.972   3.865  0.5501 -0.0051  0.9525
 3779SOL    HW215115   4.567   4.911   3.731  1.5235  1.1528  0.6837
 3779SOL     MW15116   4.539   4.903   3.813  0.2565  0.5190  0.1953
 3780SOL     OW15117   1.509   1.636   0.614 -0.5260  0.2175  0.3007
 3780SOL    HW115118   1.526   1.649   0.707 -0.9148 -2.4150  0.8017
 3780SOL    HW215119   1.445   1.565   0.611  1.0439 -1.2049 -2.0335
 3780SOL     MW15120   1.502   1.629   0.626 -0.3670 -0.3282  0.0540
 3781SOL     OW15121   2.942   2.315   2.100 -0.0324  0.0156 -0.5497
 3781SOL    HW115122   2.881   2.358   2.160 -0.9021 -0.1071 -1.3247
 3781SOL    HW215123   3.004   2.270   2.157 -0.9706 -0.2794  0.2634
 3781SOL     MW15124   2.942   2.314   2.116 -0.2757 -0.0406 -0.5446
 3782SOL     OW15125   2.853   1.162   2.011 -0.0103 -0.1285  0.5000
 3782SOL    HW115126   2.864   1.193   1.921  1.3232 -3.0482 -0.4800
 3782SOL    HW215127   2.763   1.186   2.035 -0.4814  0.4714 -1.7032
 3782SOL     MW15128   2.842   1.169   2.002  0.1058 -0.4407  0.0716
 3783SOL     OW15129   1.506   3.065   1.451  0.2423  0.3006 -0.2623
 3783SOL    HW115130   1.420   3.043   1.488  0.2595 -1.8600 -1.3226
 3783SOL    HW215131   1.569   3.029   1.513  0.4488  2.3251  0.7698
 3783SOL     MW15132   1.503   3.057   1.464  0.2724  0.2823 -0.2661
 3784SOL     OW15133   3.524   2.435   0.511  0.0329  0.0502  0.5966
 3784SOL    HW115134   3.534   2.446   0.605  0.0614  1.0017  0.4895
 3784SOL    HW215135   3.430   2.445   0.495  0.1260  0.6584  0.4282
 3784SOL     MW15136   3.513   2.437   0.521  0.0492  0.2601  0.5595
 3785SOL     OW15137   4.591   4.405   4.174  0.4189  0.0269 -0.4271
 3785SOL    HW115138   4.512   4.360   4.144 -0.0874  1.8872 -2.0758
 3785SOL    HW215139   4.561   4.493   4.195  1.2359 -0.3998  3.3814
 3785SOL     MW15140   4.576   4.411   4.173  0.4607  0.2198 -0.1365
 3786SOL     OW15141   0.932   3.549   1.836 -0.6308  0.7873 -0.2181
 3786SOL    HW115142   0.934   3.579   1.927 -1.4581 -1.4554  0.6182
 3786SOL    HW215143   1.023   3.526   1.817 -0.4929  1.0235  0.1339
 3786SOL     MW15144   0.944   3.550   1.846 -0.7236  0.5173 -0.0581
 3787SOL     OW15145   1.168   0.949   5.150 -0.1997 -0.0137 -0.1056
 3787SOL    HW115146   1.214   1.001   5.217  0.4888 -0.2137 -0.4165
 3787SOL    HW215147   1.134   1.014   5.088  0.7626  0.0715 -0.5585
 3787SOL     MW15148   1.169   0.965   5.151  0.0225 -0.0292 -0.2084
 3788SOL     OW15149   2.384   3.131   0.409 -0.2167 -0.3658 -0.3980
 3788SOL    HW115150   2.389   3.125   0.313  0.3944  1.2104 -0.4971
 3788SOL    HW215151   2.449   3.068   0.440  0.3061 -0.1692 -1.0532
 3788SOL     MW15152   2.393   3.122   0.400 -0.0641 -0.1272 -0.4995
 3789SOL     OW15153   3.552   2.210   0.375 -0.0964 -0.1199 -0.1671
 3789SOL    HW115154   3.572   2.237   0.286 -0.6901 -1.8660 -0.8827
 3789SOL    HW215155   3.565   2.288   0.428  2.8167  0.3277 -1.3705
 3789SOL     MW15156   3.556   2.224   0.370  0.2157 -0.2947 -0.4254
 3790SOL     OW15157   4.728   0.327   2.746  0.2510  0.1201  0.1667
 3790SOL    HW115158   4.659   0.393   2.739  1.0979  0.9468 -0.7411
 3790SOL    HW215159   4.694   0.262   2.808  0.6177  2.9844  3.6800
 3790SOL     MW15160   4.714   0.327   2.753  0.4143  0.6168  0.5174
 3791SOL     OW15161   2.006   2.307   4.049  0.3013  0.7045 -0.5671
 3791SOL    HW115162   2.055   2.236   4.007  0.0989  0.4453 -0.3693
 3791SOL    HW215163   1.918   2.271   4.061  0.5747  0.4608  0.8528
 3791SOL     MW15164   2.001   2.293   4.045  0.3109  0.6368 -0.3494
 3792SOL     OW15165   3.699   3.790   1.089  0.7398 -0.3509  0.2230
 3792SOL    HW115166   3.778   3.842   1.072  1.5867 -1.7525 -0.2892
 3792SOL    HW215167   3.667   3.767   1.002 -0.1671  0.0728  0.4304
 3792SOL     MW15168   3.706   3.794   1.075  0.7318 -0.4825  0.1820
 3793SOL     OW15169   5.505   2.407   5.028  0.5388  0.5355  0.5364
 3793SOL    HW115170   5.515   2.315   5.053 -0.9407 -0.2379 -1.4608
 3793SOL    HW215171   5.515   2.407   4.933  1.2595  2.5840  0.5703
 3793SOL     MW15172   5.508   2.395   5.018  0.4367  0.7071  0.2722
 3794SOL     OW15173   5.068   5.138   4.841  0.0138  0.0633  0.5983
 3794SOL    HW115174   5.094   5.229   4.825 -1.1564  0.2202 -0.6462
 3794SOL    HW215175   5.083   5.094   4.758 -0.9446 -0.4818  0.6978
 3794SOL     MW15176   5.073   5.145   4.828 -0.2727  0.0110  0.4442
 3795SOL     OW15177   3.276   5.076   3.721  0.1985 -0.2798 -0.8551
 3795SOL    HW115178   3.229   5.004   3.679 -0.7933  0.2668 -0.7127
 3795SOL    HW215179   3.230   5.154   3.693 -0.0148  0.1589  0.6247
 3795SOL     MW15180   3.264   5.077   3.712  0.0363 -0.1472 -0.6368
 3796SOL     OW15181   1.361   2.037   4.661  0.0988 -0.1531  0.2272
 3796SOL    HW115182   1.387   2.063   4.573 -1.9920  1.7633  0.0722
 3796SOL    HW215183   1.368   1.942   4.662 -0.8575 -0.3178 -2.3762
 3796SOL     MW15184   1.366   2.028   4.649 -0.3113  0.0826 -0.1440
 3797SOL     OW15185   3.159   0.944   2.207  0.1312 -0.4609 -0.3567
 3797SOL    HW115186   3.231   0.996   2.170  0.9722 -0.5914  1.0352
 3797SOL    HW215187   3.197   0.857   2.220  0.3483 -0.0563  2.1401
 3797SOL     MW15188   3.174   0.939   2.204  0.2736 -0.4240  0.1666
 3798SOL     OW15189   4.412   5.366   5.119  0.3575 -0.1148  0.0832
 3798SOL    HW115190   4.338   5.414   5.081  0.3080 -1.2696 -1.4167
 3798SOL    HW215191   4.400   5.374   5.214 -1.4640  0.1091 -0.1188
 3798SOL     MW15192   4.400   5.373   5.127  0.1057 -0.2401 -0.1459
 3799SOL     OW15193   3.097   0.961   0.663 -0.0997  0.7481  0.0736
 3799SOL    HW115194   3.026   1.016   0.696  0.2916  0.6584  1.0991
 3799SOL    HW215195   3.136   0.922   0.742 -0.1749 -0.7628 -0.6043
 3799SOL     MW15196   3.093   0.963   0.678 -0.0571  0.5327  0.1203
 3800SOL     OW15197   1.302   1.613   3.068 -0.0643 -0.2109 -0.3715
 3800SOL    HW115198   1.371   1.549   3.051  0.4334 -0.1391  1.2135
 3800SOL    HW215199   1.251   1.575   3.139 -1.0745  0.1896 -0.8747
 3800SOL     MW15200   1.305   1.599   3.075 -0.1333 -0.1473 -0.2259
 3801SOL     OW15201   2.891   4.608   1.821 -0.5842  0.2077 -0.1490
 3801SOL    HW115202   2.911   4.523   1.861  0.5562  0.7909  0.5726
 3801SOL    HW215203   2.811   4.637   1.866 -0.4602 -0.0714  0.2653
 3801SOL     MW15204   2.883   4.601   1.833 -0.4141  0.2486  0.0039
 3802SOL     OW15205   4.466   1.519   4.875 -0.7735 -0.3650  0.5348
 3802SOL    HW115206   4.540   1.528   4.815 -1.9793 -0.4145 -1.0232
 3802SOL    HW215207   4.490   1.572   4.951 -0.4395  2.2600 -1.2551
 3802SOL     MW15208   4.479   1.527   4.877 -0.8908 -0.0183  0.0842
 3803SOL     OW15209   4.552   3.996   3.986  0.1066  0.5265  0.0005
 3803SOL    HW115210   4.550   4.011   3.891 -0.6252  1.5271  0.1583
 3803SOL    HW215211   4.493   4.062   4.022  1.8857  1.4607  1.3435
 3803SOL     MW15212   4.543   4.007   3.978  0.2475  0.7869  0.2025
 3804SOL     OW15213   4.567   4.317   0.192  0.5812 -0.1473  0.0228
 3804SOL    HW115214   4.485   4.304   0.145  0.6392 -1.7293  0.3110
 3804SOL    HW215215   4.540   4.326   0.284  0.6364  0.7312 -0.0396
 3804SOL     MW15216   4.552   4.317   0.198  0.5964 -0.2420  0.0532
 3805SOL     OW15217   4.130   3.704   1.637 -0.2475 -0.6968 -0.3193
 3805SOL    HW115218   4.162   3.712   1.547 -1.1688 -1.2768 -0.7143
 3805SOL    HW215219   4.080   3.785   1.652 -2.7418 -1.8915 -1.4741
 3805SOL     MW15220   4.127   3.716   1.627 -0.7071 -0.9356 -0.5279
 3806SOL     OW15221   5.468   0.475   0.926 -0.3484  0.3154  0.8161
 3806SOL    HW115222   5.446   0.492   1.018 -0.4542  1.6668  0.5602
 3806SOL    HW215223   5.557   0.510   0.916 -0.1821 -0.1920  0.4985
 3806SOL     MW15224   5.477   0.482   0.937 -0.3402  0.4290  0.7389
 3807SOL     OW15225   4.885   3.302   2.261 -0.1295  0.1966 -0.1532
 3807SOL    HW115226   4.890   3.289   2.356  0.0772 -1.6422 -0.3772
 3807SOL    HW215227   4.794   3.328   2.245 -0.5662 -0.8939  0.4317
 3807SOL     MW15228   4.873   3.304   2.272 -0.1605 -0.1976 -0.1046
 3808SOL     OW15229   4.806   3.590   0.631  0.2828  0.6346  0.4584
 3808SOL    HW115230   4.858   3.641   0.569  2.7715 -1.0308  1.0087
 3808SOL    HW215231   4.779   3.653   0.698 -0.7853  2.0676 -1.2399
 3808SOL     MW15232   4.809   3.606   0.632  0.4740  0.6033  0.3039
 3809SOL     OW15233   5.119   1.365   2.474  0.4149  0.8031  0.2318
 3809SOL    HW115234   5.167   1.439   2.511  0.4302  0.4075  1.0123
 3809SOL    HW215235   5.157   1.288   2.516 -0.0349  0.3968 -0.0965
 3809SOL     MW15236   5.130   1.364   2.485  0.3564  0.6952  0.2927
 3810SOL     OW15237   0.017   1.256   0.689  0.1519  0.1453 -0.3556
 3810SOL    HW115238  -0.058   1.282   0.636 -0.9516 -0.4341  0.8739
 3810SOL    HW215239   0.092   1.296   0.645 -1.0041  1.8515 -0.8703
 3810SOL     MW15240   0.017   1.265   0.676 -0.1522  0.2969 -0.2594
 3811SOL     OW15241   2.729   3.726   4.804 -0.2880 -0.1780  0.1516
 3811SOL    HW115242   2.744   3.725   4.710  1.4962  0.5479  0.3825
 3811SOL    HW215243   2.779   3.652   4.838 -1.1620 -0.6166  0.5041
 3811SOL     MW15244   2.738   3.716   4.796 -0.1655 -0.1394  0.2301
 3812SOL     OW15245   2.300   3.680   0.661 -0.4056 -0.1078  0.3440
 3812SOL    HW115246   2.217   3.633   0.660  0.3425 -1.4861  0.3158
 3812SOL    HW215247   2.278   3.768   0.693 -2.3017  0.4831 -2.2990
 3812SOL     MW15248   2.286   3.686   0.665 -0.5601 -0.2138 -0.0155
 3813SOL     OW15249   4.873   3.840   2.629 -0.3081 -0.2211 -0.3466
 3813SOL    HW115250   4.943   3.800   2.578  0.1920  1.3317 -0.9200
 3813SOL    HW215251   4.873   3.932   2.603 -1.7183  0.0829  0.5958
 3813SOL     MW15252   4.882   3.847   2.619 -0.4306  0.0288 -0.2969
 3814SOL     OW15253   3.717   5.030   3.834 -0.4745 -0.2417  0.5688
 3814SOL    HW115254   3.738   5.084   3.910  1.5618 -0.4910  0.2346
 3814SOL    HW215255   3.650   4.969   3.866 -1.4172  1.1991  1.4651
 3814SOL     MW15256   3.710   5.029   3.848 -0.3273 -0.0813  0.6444
 3815SOL     OW15257   2.758   4.607   0.168  0.6449 -0.2445 -0.1412
 3815SOL    HW115258   2.728   4.548   0.238  1.4515  0.0830  0.4983
 3815SOL    HW215259   2.813   4.552   0.113  1.1626 -0.1780  0.2937
 3815SOL     MW15260   2.761   4.591   0.170  0.8231 -0.1915  0.0034
 3816SOL     OW15261   3.392   1.987   5.397  0.0577  0.6447  0.1341
 3816SOL    HW115262   3.308   2.029   5.418  0.0007  0.5897  0.0161
 3816SOL    HW215263   3.423   1.953   5.480  0.2842  1.2504  0.3066
 3816SOL     MW15264   3.385   1.988   5.411  0.0805  0.7188  0.1415
 3817SOL     OW15265   1.472   4.852   1.585  0.0541  0.3466  0.0301
 3817SOL    HW115266   1.398   4.810   1.541 -1.7327  0.2151  2.8731
 3817SOL    HW215267   1.432   4.924   1.635  2.1275  1.3473  0.3380
 3817SOL     MW15268   1.457   4.856   1.586  0.0927  0.4636  0.4541
 3818SOL     OW15269   3.896   3.069   3.389 -0.2962 -0.1321  0.3671
 3818SOL    HW115270   3.911   3.137   3.324  0.0065  0.1659  0.7466
 3818SOL    HW215271   3.971   3.074   3.448 -1.3161  0.6481  1.6499
 3818SOL     MW15272   3.908   3.079   3.389 -0.3927  0.0130  0.5908
 3819SOL     OW15273   2.895   4.222   3.786  0.2058  0.2078  0.4402
 3819SOL    HW115274   2.956   4.267   3.844 -0.2690  1.1396  0.2478
 3819SOL    HW215275   2.810   4.230   3.830  0.0961 -0.4142  0.3470
 3819SOL     MW15276   2.892   4.229   3.800  0.1272  0.2495  0.4018
 3820SOL     OW15277   2.993   2.522   3.337 -0.4347  0.4139  0.3915
 3820SOL    HW115278   3.068   2.501   3.393  0.4891  0.9019 -0.6334
 3820SOL    HW215279   2.916   2.499   3.390  0.4402 -0.6991  1.2069
 3820SOL     MW15280   2.993   2.516   3.352 -0.1926  0.3298  0.3633
 3821SOL     OW15281   0.552   3.616   4.941  0.1332  0.5919  0.5122
 3821SOL    HW115282   0.481   3.591   4.881  0.2205 -0.2733  0.7577
 3821SOL    HW215283   0.511   3.619   5.027  0.6024 -0.9985  0.8230
 3821SOL     MW15284   0.537   3.613   4.944  0.2081  0.2614  0.5871
 3822SOL     OW15285   2.913   0.816   0.287  0.0363 -0.3319  0.5386
 3822SOL    HW115286   2.834   0.838   0.337 -0.2203 -0.7196  0.3076
 3822SOL    HW215287   2.915   0.720   0.285  0.0096 -0.3249 -0.2428
 3822SOL     MW15288   2.903   0.806   0.293 -0.0018 -0.3832  0.4023
 3823SOL     OW15289   2.408   4.596   2.009 -0.1354 -0.0609 -0.4087
 3823SOL    HW115290   2.369   4.605   2.096 -1.8122  0.6164 -1.1767
 3823SOL    HW215291   2.365   4.519   1.971 -0.4683  0.4645 -1.1278
 3823SOL     MW15292   2.397   4.587   2.016 -0.4059  0.1010 -0.6089
 3824SOL     OW15293   1.394   3.999   5.355  0.3603 -0.1705  0.5835
 3824SOL    HW115294   1.319   4.044   5.316  1.1633 -0.4931 -1.4304
 3824SOL    HW215295   1.360   3.913   5.378  0.0703 -0.2688 -0.1923
 3824SOL     MW15296   1.379   3.994   5.353  0.4293 -0.2272  0.2081
 3825SOL     OW15297   3.205   3.413   3.970  0.1743 -0.0295 -0.1814
 3825SOL    HW115298   3.208   3.490   3.912  1.3809 -0.6192 -0.9526
 3825SOL    HW215299   3.278   3.426   4.030 -0.2293 -0.0957  0.3214
 3825SOL     MW15300   3.216   3.425   3.970  0.2823 -0.1178 -0.2175
 3826SOL     OW15301   4.679   4.768   1.994 -0.0909  0.0429  0.1080
 3826SOL    HW115302   4.661   4.702   1.927  1.4508  1.0664 -1.4084
 3826SOL    HW215303   4.726   4.837   1.947  1.6320  0.5119  2.3811
 3826SOL     MW15304   4.683   4.768   1.978  0.3484  0.2438  0.2099
 3827SOL     OW15305   3.067   0.705   2.465  0.2383  0.4266 -0.4174
 3827SOL    HW115306   2.980   0.721   2.500  1.0194  2.4745  0.8030
 3827SOL    HW215307   3.125   0.760   2.519  2.3166 -1.0477 -1.0176
 3827SOL     MW15308   3.063   0.715   2.477  0.6231  0.5038 -0.3339
 3828SOL     OW15309   5.231   1.944   3.083 -0.1060 -0.2302 -0.4111
 3828SOL    HW115310   5.161   1.958   3.147  0.4166  0.1512  0.0941
 3828SOL    HW215311   5.228   2.021   3.027 -0.0740 -0.2047 -0.3774
 3828SOL     MW15312   5.221   1.956   3.084 -0.0314 -0.1754 -0.3386
 3829SOL     OW15313   1.780   3.712   2.218 -0.0246  0.0177  0.0846
 3829SOL    HW115314   1.751   3.802   2.237 -0.9846 -0.4888  1.1446
 3829SOL    HW215315   1.778   3.706   2.122 -0.0458  1.0922  0.0057
 3829SOL     MW15316   1.776   3.723   2.208 -0.1567  0.0942  0.2166
 3830SOL     OW15317   2.366   0.975   5.116  0.6582  0.1712 -0.6260
 3830SOL    HW115318   2.362   0.890   5.072 -0.0764 -0.5900  0.8035
 3830SOL    HW215319   2.456   1.005   5.104  1.4002 -1.5870  0.1512
 3830SOL     MW15320   2.377   0.968   5.109  0.6592 -0.1679 -0.3290
 3831SOL     OW15321   4.244   2.182   1.042 -0.3974 -0.5917  0.0762
 3831SOL    HW115322   4.252   2.239   0.965 -0.7945 -0.1303  0.3691
 3831SOL    HW215323   4.334   2.155   1.061 -0.0491  0.7948  0.5584
 3831SOL     MW15324   4.257   2.186   1.034 -0.4040 -0.3430  0.1805
 3832SOL     OW15325   3.521   0.328   4.009  0.2690 -0.2273  0.4820
 3832SOL    HW115326   3.575   0.392   4.054 -0.0938  1.1213 -0.9074
 3832SOL    HW215327   3.456   0.300   4.074  0.2353  1.0586  1.0193
 3832SOL     MW15328   3.520   0.333   4.024  0.2157  0.1273  0.3673
 3833SOL     OW15329   3.918   1.718   3.771 -0.2547  0.2135 -0.5371
 3833SOL    HW115330   3.826   1.747   3.773 -1.1123 -2.3027 -0.3427
 3833SOL    HW215331   3.914   1.628   3.739  2.1356 -0.1030 -0.1253
 3833SOL     MW15332   3.905   1.710   3.767 -0.0484 -0.1677 -0.4555
 3834SOL     OW15333   5.511   4.059   3.752 -0.1939  0.2447 -0.3568
 3834SOL    HW115334   5.435   4.072   3.808  0.2400 -0.2981  0.3698
 3834SOL    HW215335   5.567   4.136   3.768 -0.2966  0.3335 -0.4237
 3834SOL     MW15336   5.509   4.072   3.762 -0.1493  0.1836 -0.2680
 3835SOL     OW15337   2.673   0.632   2.454 -1.2083  0.0278  0.0359
 3835SOL    HW115338   2.702   0.541   2.446 -2.8775 -0.6193  0.9177
 3835SOL    HW215339   2.701   0.673   2.372 -0.2519 -1.2112 -0.2942
 3835SOL     MW15340   2.681   0.625   2.442 -1.3043 -0.2260  0.1101
 3836SOL     OW15341   4.344   4.755   1.011  0.4467  0.3578 -0.9329
 3836SOL    HW115342   4.358   4.845   1.042 -0.4055 -0.2806  1.5574
 3836SOL    HW215343   4.391   4.701   1.073  1.3585 -0.9462 -2.6880
 3836SOL     MW15344   4.352   4.760   1.024  0.4547  0.0964 -0.8339
 3837SOL     OW15345   1.646   4.273   1.175 -0.4712 -0.0414  0.1156
 3837SOL    HW115346   1.553   4.274   1.152 -0.4838 -0.8256  0.1076
 3837SOL    HW215347   1.689   4.235   1.099 -0.0214  1.1593 -0.2539
 3837SOL     MW15348   1.639   4.268   1.162 -0.4124  0.0146  0.0648
 3838SOL     OW15349   2.128   1.677   1.623 -0.2056  0.8515 -0.0781
 3838SOL    HW115350   2.095   1.751   1.573 -0.6105 -0.4508 -1.8235
 3838SOL    HW215351   2.085   1.684   1.708 -0.0155  2.7478 -0.0995
 3838SOL     MW15352   2.118   1.688   1.628 -0.2345  0.9314 -0.3159
 3839SOL     OW15353   4.006   5.352   2.189  0.4208 -0.0190  0.4154
 3839SOL    HW115354   4.027   5.387   2.275  1.8942 -0.1413  0.1340
 3839SOL    HW215355   4.091   5.345   2.145 -0.2837 -0.1866 -0.9538
 3839SOL     MW15356   4.021   5.356   2.195  0.5243 -0.0580  0.1932
 3840SOL     OW15357   3.841   0.296   2.025 -0.3483  0.1058  0.5090
 3840SOL    HW115358   3.922   0.249   2.043  0.0405 -0.4709 -2.2941
 3840SOL    HW215359   3.773   0.229   2.031 -0.1976 -0.1273 -0.3120
 3840SOL     MW15360   3.843   0.281   2.029 -0.2757 -0.0032  0.0212
 3841SOL     OW15361   2.032   4.992   0.263 -0.5178  0.6797 -0.1408
 3841SOL    HW115362   1.990   5.055   0.322  0.3531  0.4705  0.7265
 3841SOL    HW215363   2.043   4.914   0.316 -1.4611 -0.1748 -1.1701
 3841SOL     MW15364   2.028   4.990   0.278 -0.5275  0.5365 -0.1626
 3842SOL     OW15365   5.172   2.403   4.382 -0.1602  0.1681 -0.4432
 3842SOL    HW115366   5.085   2.378   4.414  0.2589 -0.4445  0.2677
 3842SOL    HW215367   5.164   2.497   4.364 -1.3628 -0.1514 -1.7769
 3842SOL     MW15368   5.159   2.412   4.384 -0.2657  0.0427 -0.5270
 3843SOL     OW15369   2.916   3.413   0.966 -0.6337 -0.4069 -0.1700
 3843SOL    HW115370   2.911   3.317   0.960 -0.3579 -0.4140 -0.3067
 3843SOL    HW215371   2.847   3.437   1.028  1.0773 -0.9478  2.0911
 3843SOL     MW15372   2.906   3.403   0.973 -0.3663 -0.4807  0.1159
 3844SOL     OW15373   2.325   2.665   3.562 -0.3590  0.6048  0.0641
 3844SOL    HW115374   2.290   2.584   3.600  1.5302 -0.1863  0.2168
 3844SOL    HW215375   2.416   2.644   3.541  0.2115  2.7354  0.2299
 3844SOL     MW15376   2.333   2.651   3.564 -0.0280  0.7851  0.1069
 3845SOL     OW15377   5.404   1.759   2.337 -0.0644 -0.4514 -0.4326
 3845SOL    HW115378   5.424   1.676   2.293 -0.7000 -0.8270 -0.0350
 3845SOL    HW215379   5.486   1.784   2.379  0.1991 -0.7548 -0.7575
 3845SOL     MW15380   5.418   1.751   2.336 -0.1145 -0.5428 -0.4228
 3846SOL     OW15381   2.644   0.912   1.289 -0.3965  0.2553 -0.5517
 3846SOL    HW115382   2.706   0.976   1.324  0.5420 -1.0259  0.2006
 3846SOL    HW215383   2.584   0.964   1.235  0.9386  1.6231 -0.7811
 3846SOL     MW15384   2.644   0.928   1.286 -0.0905  0.2670 -0.4813
 3847SOL     OW15385   0.909   0.072   1.268 -0.3078  0.5385  0.2582
 3847SOL    HW115386   0.955   0.111   1.342 -0.2663  1.8935 -0.4303
 3847SOL    HW215387   0.949   0.113   1.191  1.0974 -2.3485 -0.6915
 3847SOL     MW15388   0.921   0.083   1.268 -0.1131  0.3323  0.0377
 3848SOL     OW15389   2.471   2.464   5.428  0.0316  0.1019  0.3109
 3848SOL    HW115390   2.489   2.403   5.500 -0.0110  0.2970  0.4890
 3848SOL    HW215391   2.414   2.530   5.467  1.1333  0.9815  0.4780
 3848SOL     MW15392   2.466   2.464   5.443  0.1741  0.2465  0.3574
 3849SOL     OW15393   2.166   0.239   3.753 -0.2108 -0.3487  0.0233
 3849SOL    HW115394   2.164   0.284   3.838 -1.2588 -0.4209  0.0526
 3849SOL    HW215395   2.241   0.180   3.759 -0.8126 -1.0304  1.2644
 3849SOL     MW15396   2.175   0.237   3.766 -0.4329 -0.4502  0.1942
 3850SOL     OW15397   1.544   2.980   4.109  0.3801 -0.3513  0.2517
 3850SOL    HW115398   1.626   2.948   4.072  0.3562 -0.5045  0.3303
 3850SOL    HW215399   1.483   2.984   4.035  0.5119 -0.0571  0.1574
 3850SOL     MW15400   1.547   2.976   4.094  0.3946 -0.3323  0.2496
 3851SOL     OW15401   1.056   4.401   4.401  0.6055 -0.0673 -0.2587
 3851SOL    HW115402   1.056   4.310   4.369 -0.1210 -0.4764  0.8405
 3851SOL    HW215403   0.967   4.432   4.385  0.5748  0.1217  0.2888
 3851SOL     MW15404   1.044   4.393   4.394  0.5036 -0.0970 -0.0371
 3852SOL     OW15405   1.890   5.277   0.011 -0.1363 -0.1503  0.4648
 3852SOL    HW115406   1.822   5.270   0.078 -0.3206  0.9660  0.4136
 3852SOL    HW215407   1.926   5.188   0.005 -0.5129 -0.4077  1.6096
 3852SOL     MW15408   1.886   5.264   0.019 -0.2118 -0.0347  0.6120
 3853SOL     OW15409   0.004   5.380   3.258 -0.0413 -0.2365 -0.0521
 3853SOL    HW115410   0.029   5.469   3.233  0.7023 -0.2831  0.4723
 3853SOL    HW215411   0.073   5.353   3.320 -1.1206 -0.5847  1.0323
 3853SOL     MW15412   0.017   5.388   3.263 -0.0865 -0.2896  0.1644
 3854SOL     OW15413   2.809   3.141   4.703 -0.0019  0.3222  0.0388
 3854SOL    HW115414   2.852   3.116   4.784  0.5555 -0.1985 -0.4041
 3854SOL    HW215415   2.876   3.188   4.654  0.2458 -0.8905 -0.8513
 3854SOL     MW15416   2.823   3.144   4.707  0.1064  0.0889 -0.1406
 3855SOL     OW15417   0.107   5.139   5.060 -0.3544  0.2377  0.1102
 3855SOL    HW115418   0.152   5.078   5.001  0.5525  1.4191 -0.4591
 3855SOL    HW215419   0.088   5.087   5.138 -1.4906 -1.3461 -1.1578
 3855SOL     MW15420   0.110   5.123   5.062 -0.3852  0.1836 -0.1371
 3856SOL     OW15421   2.340   3.404   2.950  0.1821 -0.6506  0.1735
 3856SOL    HW115422   2.365   3.422   3.041 -0.8854  0.1559  0.3270
 3856SOL    HW215423   2.258   3.356   2.957 -0.5517  0.4786 -0.3628
 3856SOL     MW15424   2.332   3.400   2.963 -0.0603 -0.3901  0.1220
 3857SOL     OW15425   0.796   0.967   4.195 -0.0983 -0.3183  0.0650
 3857SOL    HW115426   0.866   0.922   4.148 -0.4900  0.3427 -1.2097
 3857SOL    HW215427   0.762   1.031   4.132 -1.6977 -0.4784  0.7140
 3857SOL     MW15428   0.801   0.969   4.180 -0.3663 -0.2509 -0.0192
 3858SOL     OW15429   2.914   3.781   0.275 -0.7337 -0.3614  0.2367
 3858SOL    HW115430   2.931   3.749   0.186  0.5598 -0.4442  0.4996
 3858SOL    HW215431   2.948   3.871   0.275 -1.3455 -0.1277  0.4573
 3858SOL     MW15432   2.921   3.789   0.263 -0.6419 -0.3411  0.3018
 3859SOL     OW15433   4.603   4.048   3.704  0.3330 -0.6663  0.1593
 3859SOL    HW115434   4.573   3.965   3.667 -0.1379 -0.6787  0.5599
 3859SOL    HW215435   4.552   4.114   3.657 -1.0090 -0.7316  1.4591
 3859SOL     MW15436   4.592   4.046   3.692  0.0890 -0.6767  0.3882
 3860SOL     OW15437   4.172   0.832   0.458  0.1352  0.2031  0.4164
 3860SOL    HW115438   4.149   0.901   0.395  1.2175 -1.3953 -1.8524
 3860SOL    HW215439   4.145   0.751   0.416 -0.6103 -0.8739  2.7944
 3860SOL     MW15440   4.165   0.830   0.444  0.1805 -0.1570  0.4311
 3861SOL     OW15441   2.221   1.423   1.637 -0.4145 -0.0705  0.2037
 3861SOL    HW115442   2.236   1.396   1.546 -2.2272 -1.6952  0.3086
 3861SOL    HW215443   2.187   1.512   1.631  1.5607  0.6872 -0.5032
 3861SOL     MW15444   2.218   1.431   1.624 -0.3926 -0.1872  0.1227
 3862SOL     OW15445   1.784   3.119   0.118 -0.4229 -0.3558 -0.3715
 3862SOL    HW115446   1.855   3.068   0.080 -0.1728 -0.5319  0.3180
 3862SOL    HW215447   1.736   3.154   0.042 -0.1380 -0.9728 -0.8455
 3862SOL     MW15448   1.787   3.116   0.102 -0.3509 -0.4625 -0.3425
 3863SOL     OW15449   3.947   5.273   4.727  0.3351 -0.1038 -0.1836
 3863SOL    HW115450   3.856   5.245   4.728  0.5427 -0.7952  0.7787
 3863SOL    HW215451   3.947   5.353   4.673 -0.8684  0.0467  0.0088
 3863SOL     MW15452   3.935   5.280   4.719  0.2011 -0.1766 -0.0282
 3864SOL     OW15453   3.945   4.601   3.890 -0.3461 -0.0248 -0.8430
 3864SOL    HW115454   3.929   4.629   3.800 -1.4062 -0.4580 -0.8000
 3864SOL    HW215455   3.867   4.630   3.939 -0.7535 -1.6127 -0.4876
 3864SOL     MW15456   3.932   4.609   3.885 -0.5436 -0.2968 -0.7894
 3865SOL     OW15457   1.783   0.319   2.439 -0.0772 -0.1614  0.1967
 3865SOL    HW115458   1.732   0.239   2.425  1.2257 -1.2469  1.3343
 3865SOL    HW215459   1.788   0.359   2.352 -2.8693  0.0701  0.0339
 3865SOL     MW15460   1.777   0.314   2.425 -0.2776 -0.2763  0.3279
 3866SOL     OW15461   3.566   2.476   4.969 -0.1128  0.1701  0.4304
 3866SOL    HW115462   3.493   2.446   4.915 -0.0055 -0.8275  0.8114
 3866SOL    HW215463   3.604   2.549   4.921  0.2966 -1.0052 -1.1134
 3866SOL     MW15464   3.561   2.481   4.956 -0.0433 -0.1224  0.2739
 3867SOL     OW15465   4.635   5.060   5.396  0.0157 -0.2859 -0.0123
 3867SOL    HW115466   4.708   5.007   5.364  1.0625  1.2708 -0.3369
 3867SOL    HW215467   4.558   5.005   5.384  1.0952 -1.8871  0.1143
 3867SOL     MW15468   4.635   5.046   5.390  0.3018 -0.2919 -0.0390
 3868SOL     OW15469   0.251   5.430   2.887 -0.7296  0.2085 -0.1590
 3868SOL    HW115470   0.214   5.517   2.872 -2.8082 -0.5375  0.3201
 3868SOL    HW215471   0.268   5.396   2.799  0.7138  1.3059 -0.3417
 3868SOL     MW15472   0.248   5.437   2.873 -0.8151  0.2558 -0.1191
 3869SOL     OW15473   2.737   2.082   3.113  0.4108 -0.2971  0.7331
 3869SOL    HW115474   2.666   2.041   3.063  1.2792 -1.5438  0.4711
 3869SOL    HW215475   2.817   2.054   3.067  1.1610 -0.4254  2.0822
 3869SOL     MW15476   2.739   2.073   3.100  0.6286 -0.4821  0.8794
 3870SOL     OW15477   5.243   4.697   4.486 -0.1321  0.5040  0.2827
 3870SOL    HW115478   5.267   4.763   4.551  2.6234  0.3901 -0.4936
 3870SOL    HW215479   5.222   4.748   4.408 -1.7780  0.5640  0.7272
 3870SOL     MW15480   5.243   4.713   4.484  0.0172  0.4967  0.2380
 3871SOL     OW15481   2.164   0.301   4.879  0.7876 -0.3024 -0.3683
 3871SOL    HW115482   2.254   0.291   4.848  1.2718  0.6597  0.6677
 3871SOL    HW215483   2.118   0.342   4.806  1.6633  0.9888 -0.2193
 3871SOL     MW15484   2.170   0.305   4.865  0.9706  0.0009 -0.2088
 3872SOL     OW15485   3.878   1.017   1.007 -0.2888  0.7599  0.4972
 3872SOL    HW115486   3.822   0.980   0.938 -1.0818  1.3122  0.8209
 3872SOL    HW215487   3.953   1.052   0.960  0.9398 -1.9464  0.2342
 3872SOL     MW15488   3.880   1.016   0.991 -0.2302  0.4700  0.5054
 3873SOL     OW15489   2.903   4.635   2.496  0.1559 -0.0020 -0.8927
 3873SOL    HW115490   2.897   4.619   2.590 -1.6284 -2.4998 -1.3283
 3873SOL    HW215491   2.997   4.637   2.478  0.5192 -0.6995  0.7604
 3873SOL     MW15492   2.915   4.633   2.506 -0.0353 -0.4320 -0.7288
 3874SOL     OW15493   4.459   0.669   4.465 -0.0140 -0.4192 -0.0155
 3874SOL    HW115494   4.506   0.730   4.408  0.5453  0.7924  1.6546
 3874SOL    HW215495   4.376   0.714   4.484 -0.1524 -0.7554  0.1821
 3874SOL     MW15496   4.454   0.683   4.460  0.0427 -0.3014  0.2358
 3875SOL     OW15497   1.760   4.709   4.830 -0.6065  0.3072  0.5680
 3875SOL    HW115498   1.817   4.710   4.907 -1.9144 -0.0046  1.5804
 3875SOL    HW215499   1.718   4.795   4.830 -1.3843 -0.0534  0.8439
 3875SOL     MW15500   1.762   4.720   4.841 -0.8872  0.2167  0.7414
 3876SOL     OW15501   5.440   3.074   1.788 -0.3093  0.1007 -0.5208
 3876SOL    HW115502   5.427   3.145   1.726 -1.4597 -0.8576 -1.4431
 3876SOL    HW215503   5.366   3.014   1.772  0.3164 -1.0298  0.5807
 3876SOL     MW15504   5.428   3.075   1.777 -0.3799 -0.1804 -0.4967
 3877SOL     OW15505   0.129   3.961   5.335  0.0090 -0.3442 -0.3491
 3877SOL    HW115506   0.217   3.950   5.373  0.6962  0.7239 -1.5596
 3877SOL    HW215507   0.070   3.926   5.402  1.1497  1.4878  1.7579
 3877SOL     MW15508   0.133   3.954   5.349  0.2550  0.0461 -0.2285
 3878SOL     OW15509   1.738   5.116   2.771  0.5937 -0.0577 -0.1738
 3878SOL    HW115510   1.700   5.045   2.719 -0.0571 -0.4335  0.7999
 3878SOL    HW215511   1.765   5.181   2.706  1.0941 -1.1275 -1.0756
 3878SOL     MW15512   1.737   5.115   2.755  0.5734 -0.2522 -0.1642
 3879SOL     OW15513   2.666   4.612   3.149  0.3621  0.3818 -0.2967
 3879SOL    HW115514   2.726   4.682   3.124 -1.1180  1.6868 -0.3840
 3879SOL    HW215515   2.710   4.566   3.220  3.0770 -1.0969 -2.7073
 3879SOL     MW15516   2.680   4.615   3.155  0.5283  0.3584 -0.6328
 3880SOL     OW15517   1.510   3.041   4.530  0.5851  0.4819  0.1754
 3880SOL    HW115518   1.550   2.997   4.605  1.0492 -0.2102 -0.4662
 3880SOL    HW215519   1.569   3.113   4.509 -0.3276  1.6391  1.4150
 3880SOL     MW15520   1.523   3.044   4.537  0.5247  0.5445  0.2559
 3881SOL     OW15521   4.990   0.334   1.285 -0.5344 -0.4343  0.1892
 3881SOL    HW115522   5.048   0.314   1.211  0.2228  0.0400  0.6380
 3881SOL    HW215523   4.908   0.362   1.244  0.0531  0.3559 -0.4879
 3881SOL     MW15524   4.987   0.335   1.269 -0.3534 -0.2641  0.1585
 3882SOL     OW15525   1.652   5.179   0.455  0.1246 -0.1286 -0.3973
 3882SOL    HW115526   1.746   5.185   0.438  0.0444 -0.8846 -1.1824
 3882SOL    HW215527   1.639   5.094   0.496 -0.3292 -0.4209 -1.1308
 3882SOL     MW15528   1.663   5.169   0.458  0.0527 -0.2697 -0.6017
 3883SOL     OW15529   0.693   1.461   4.357 -0.1463  0.2679 -0.1790
 3883SOL    HW115530   0.689   1.406   4.436  0.7688  0.0575 -0.2802
 3883SOL    HW215531   0.661   1.405   4.287  0.0394  0.1184 -0.1441
 3883SOL     MW15532   0.688   1.446   4.358  0.0018  0.2195 -0.1879
 3884SOL     OW15533   0.466   2.910   2.345  0.3150  0.5369  0.1024
 3884SOL    HW115534   0.460   3.000   2.377 -1.3842  0.3022  0.4957
 3884SOL    HW215535   0.467   2.919   2.250  0.3902  0.9755  0.1420
 3884SOL     MW15536   0.465   2.924   2.336  0.0965  0.5644  0.1607
 3885SOL     OW15537   5.247   3.266   1.399  0.1973  0.8317 -0.1427
 3885SOL    HW115538   5.281   3.233   1.316 -0.5116  0.9491 -0.4854
 3885SOL    HW215539   5.204   3.348   1.376 -1.1251  0.2332  0.1263
 3885SOL     MW15540   5.246   3.273   1.384 -0.0761  0.7669 -0.1526
 3886SOL     OW15541   1.699   0.793   2.360 -0.3166 -0.3628  0.3815
 3886SOL    HW115542   1.703   0.784   2.456  1.4582 -3.2153  0.1826
 3886SOL    HW215543   1.777   0.745   2.329 -0.0583  1.6760 -2.4673
 3886SOL     MW15544   1.710   0.785   2.369 -0.0430 -0.4723 -0.0287
 3887SOL     OW15545   5.230   5.490   1.664  0.3515  0.1133  0.4419
 3887SOL    HW115546   5.324   5.507   1.651  0.4107 -0.5783 -0.0738
 3887SOL    HW215547   5.191   5.509   1.579 -0.1355  1.3566  0.9153
 3887SOL     MW15548   5.237   5.495   1.651  0.2939  0.1875  0.4362
 3888SOL     OW15549   0.657   3.917   4.306 -0.4143 -0.6082 -0.3768
 3888SOL    HW115550   0.575   3.886   4.345 -0.3618 -0.9699 -0.5581
 3888SOL    HW215551   0.724   3.857   4.340 -0.2550 -0.4514 -0.4117
 3888SOL     MW15552   0.655   3.905   4.316 -0.3858 -0.6358 -0.4059
 3889SOL     OW15553   2.431   2.047   4.945  0.8762  0.3974 -0.4918
 3889SOL    HW115554   2.483   2.080   5.018  0.3625  0.2168 -0.0358
 3889SOL    HW215555   2.475   2.081   4.867 -0.0764  2.8838 -0.0420
 3889SOL     MW15556   2.444   2.056   4.945  0.6789  0.7077 -0.3699
 3890SOL     OW15557   2.219   4.346   0.698 -0.5252 -0.2321 -0.1576
 3890SOL    HW115558   2.151   4.302   0.749 -0.6286  0.2287  0.1045
 3890SOL    HW215559   2.184   4.348   0.609 -0.3371 -1.0498 -0.2598
 3890SOL     MW15560   2.205   4.340   0.692 -0.5138 -0.2801 -0.1361
 3891SOL     OW15561   2.679   5.322   0.259 -0.2878 -0.4856 -0.3084
 3891SOL    HW115562   2.660   5.387   0.191 -0.9298 -0.2308  0.1068
 3891SOL    HW215563   2.618   5.343   0.330  0.0783 -1.0199  0.1713
 3891SOL     MW15564   2.668   5.333   0.260 -0.3250 -0.5232 -0.1880
 3892SOL     OW15565   3.941   3.916   4.394  0.1819  0.1829 -0.2180
 3892SOL    HW115566   3.986   3.922   4.478  0.1925 -1.0915 -0.1247
 3892SOL    HW215567   3.935   3.823   4.375  0.9060  0.4605 -2.0445
 3892SOL     MW15568   3.946   3.905   4.403  0.2807  0.0487 -0.4512
 3893SOL     OW15569   0.762   0.782   1.851 -0.1167  0.1235 -0.4157
 3893SOL    HW115570   0.816   0.711   1.819 -0.0954  0.8621 -2.1144
 3893SOL    HW215571   0.824   0.852   1.872 -0.1624 -0.2173  0.9369
 3893SOL     MW15572   0.777   0.782   1.850 -0.1200  0.1770 -0.4622
 3894SOL     OW15573   2.956   0.822   4.527 -0.4998  0.5186  0.2246
 3894SOL    HW115574   2.964   0.858   4.438 -0.0195  0.9606  0.4346
 3894SOL    HW215575   2.893   0.751   4.519 -1.1195  1.1129 -0.3045
 3894SOL     MW15576   2.949   0.818   4.514 -0.5186  0.6581  0.1816
 3895SOL     OW15577   5.545   0.199   0.936  0.3986 -0.4352  0.3934
 3895SOL    HW115578   5.485   0.124   0.925  0.1860  0.0002 -2.0363
 3895SOL    HW215579   5.490   0.276   0.920  1.2572  0.0442 -0.3807
 3895SOL     MW15580   5.529   0.199   0.932  0.4855 -0.3121 -0.0378
 3896SOL     OW15581   0.644   5.317   2.786 -0.0374 -0.0830  0.2110
 3896SOL    HW115582   0.656   5.364   2.703 -0.9282 -0.6785 -0.2818
 3896SOL    HW215583   0.665   5.381   2.854  1.0792  0.3017 -0.4836
 3896SOL     MW15584   0.648   5.332   2.784 -0.0070 -0.1113  0.0512
 3897SOL     OW15585   2.533   3.813   4.456  0.1347  0.4501  0.0845
 3897SOL    HW115586   2.605   3.749   4.448 -0.8585 -0.9457  1.7565
 3897SOL    HW215587   2.484   3.803   4.374 -0.9041 -2.1453  0.9320
 3897SOL     MW15588   2.536   3.803   4.444 -0.1387 -0.0870  0.4236
 3898SOL     OW15589   3.671   3.352   3.301  0.2876 -0.8976 -0.2315
 3898SOL    HW115590   3.763   3.327   3.285  0.5328 -1.3725  1.6354
 3898SOL    HW215591   3.676   3.443   3.328  0.0607 -0.5970 -1.1532
 3898SOL     MW15592   3.684   3.361   3.302  0.2901 -0.9211 -0.1043
 3899SOL     OW15593   3.159   1.937   0.881  0.5768 -0.4198  0.1540
 3899SOL    HW115594   3.087   1.924   0.820  1.4147 -0.6250 -0.8112
 3899SOL    HW215595   3.130   2.011   0.936 -0.8420 -1.2271  0.5519
 3899SOL     MW15596   3.145   1.945   0.880  0.4986 -0.5561  0.0776
 3900SOL     OW15597   2.299   2.145   2.886  0.1462  0.6654 -0.0642
 3900SOL    HW115598   2.285   2.176   2.796  0.7717  1.8116  0.2200
 3900SOL    HW215599   2.220   2.095   2.907 -0.4637  1.2666 -0.8818
 3900SOL     MW15600   2.286   2.143   2.877  0.1483  0.9006 -0.1360
 3901SOL     OW15601   3.044   5.281   5.327 -0.0720 -0.2423  0.2019
 3901SOL    HW115602   2.959   5.237   5.329 -0.3817  0.3556  0.1845
 3901SOL    HW215603   3.034   5.349   5.261 -0.2401  1.1833  1.6487
 3901SOL     MW15604   3.032   5.284   5.318 -0.1363  0.0301  0.3942
 3902SOL     OW15605   1.905   1.255   0.602 -0.4236  0.5244  0.0250
 3902SOL    HW115606   1.827   1.238   0.550 -0.0781  0.3016 -0.4280
 3902SOL    HW215607   1.961   1.307   0.545 -0.7125  1.6555  0.7553
 3902SOL     MW15608   1.902   1.259   0.587 -0.4160  0.6466  0.0623
 3903SOL     OW15609   0.081   1.956   3.973 -0.5392 -0.3919  0.1635
 3903SOL    HW115610  -0.000   2.006   3.962  0.2164  0.6663 -0.9207
 3903SOL    HW215611   0.074   1.886   3.908 -0.9113 -0.7735  0.6064
 3903SOL     MW15612   0.069   1.953   3.963 -0.4876 -0.3008  0.0772
 3904SOL     OW15613   2.378   0.969   1.822  0.2977  0.5429  0.0536
 3904SOL    HW115614   2.453   0.959   1.764  0.1706  0.6145 -0.1225
 3904SOL    HW215615   2.310   0.915   1.783  0.7948 -0.9805  1.1623
 3904SOL     MW15616   2.379   0.960   1.809  0.3475  0.3475  0.1791
 3905SOL     OW15617   3.766   1.932   2.284  0.1598  0.0224  0.0984
 3905SOL    HW115618   3.780   2.022   2.255 -1.3289  0.2323 -0.0456
 3905SOL    HW215619   3.759   1.882   2.203 -0.5986  0.0442  0.1490
 3905SOL     MW15620   3.767   1.938   2.269 -0.1426  0.0536  0.0858
 3906SOL     OW15621   3.356   1.759   2.889  0.5514 -0.0346  0.1162
 3906SOL    HW115622   3.320   1.671   2.887 -0.3682  0.3187  0.4824
 3906SOL    HW215623   3.430   1.756   2.829  0.8576 -1.1901  0.5312
 3906SOL     MW15624   3.361   1.747   2.881  0.4688 -0.1426  0.2214
 3907SOL     OW15625   2.750   0.039   1.975  0.0663 -0.3316 -0.3124
 3907SOL    HW115626   2.659   0.065   1.980  0.0870 -0.3431  0.1219
 3907SOL    HW215627   2.791   0.105   1.918  0.0885  0.5108  0.6524
 3907SOL     MW15628   2.743   0.051   1.968  0.0721 -0.2198 -0.1241
 3908SOL     OW15629   3.474   4.888   3.188  0.1069  0.3469 -0.9432
 3908SOL    HW115630   3.465   4.883   3.283  0.0005 -0.8133 -1.0059
 3908SOL    HW215631   3.439   4.975   3.165 -2.1944 -0.3045 -0.1823
 3908SOL     MW15632   3.468   4.899   3.197 -0.2171  0.1031 -0.8492
 3909SOL     OW15633   4.969   2.083   4.041  0.1536  0.1254 -0.0478
 3909SOL    HW115634   4.890   2.038   4.072  0.4640 -0.6331 -0.3389
 3909SOL    HW215635   4.969   2.069   3.946 -0.1560  1.4175 -0.2547
 3909SOL     MW15636   4.959   2.075   4.033  0.1537  0.1972 -0.1148
 3910SOL     OW15637   2.784   0.729   1.668 -0.2041  0.0781 -0.3773
 3910SOL    HW115638   2.861   0.759   1.716 -0.3256  1.3892 -0.9700
 3910SOL    HW215639   2.725   0.804   1.669 -1.1187 -0.6234 -0.6809
 3910SOL     MW15640   2.786   0.743   1.675 -0.3435  0.1601 -0.4980
 3911SOL     OW15641   2.164   5.486   0.324  0.1845 -0.2204  0.1523
 3911SOL    HW115642   2.177   5.454   0.234 -0.0618  0.5170 -0.1567
 3911SOL    HW215643   2.069   5.480   0.338  0.0643  0.8165 -0.0989
 3911SOL     MW15644   2.153   5.481   0.314  0.1352  0.0184  0.0769
 3912SOL     OW15645   0.748   3.209   5.441  0.2546  0.8040 -0.6885
 3912SOL    HW115646   0.662   3.188   5.477  0.5239  1.0877  0.1428
 3912SOL    HW215647   0.745   3.304   5.425 -0.0960  0.5870 -2.0870
 3912SOL     MW15648   0.736   3.219   5.443  0.2437  0.8130 -0.7648
 3913SOL     OW15649   4.941   4.118   3.483  0.2398  0.2138 -0.5828
 3913SOL    HW115650   4.862   4.157   3.447 -0.2682  1.1312  1.3958
 3913SOL    HW215651   5.013   4.165   3.440 -0.3406  1.3586 -0.3387
 3913SOL     MW15652   4.940   4.130   3.472  0.0933  0.4913 -0.2837
 3914SOL     OW15653   1.242   1.409   0.235  0.7052  0.0220 -0.1028
 3914SOL    HW115654   1.209   1.464   0.164 -0.0578  0.2872  0.4513
 3914SOL    HW215655   1.181   1.336   0.239  0.9239 -0.1536  0.0876
 3914SOL     MW15656   1.230   1.407   0.226  0.6320  0.0341 -0.0026
 3915SOL     OW15657   0.772   5.015   0.479 -0.1560 -0.1367  0.0166
 3915SOL    HW115658   0.680   5.043   0.481  0.0368  0.4981  0.1868
 3915SOL    HW215659   0.816   5.074   0.540  0.5380  0.1534 -0.7529
 3915SOL     MW15660   0.765   5.026   0.488 -0.0366 -0.0122 -0.0641
 3916SOL     OW15661   2.183   4.783   3.769 -0.2813 -0.7571  0.6691
 3916SOL    HW115662   2.238   4.837   3.712 -2.3527  1.7231  0.8400
 3916SOL    HW215663   2.094   4.810   3.750 -1.2035 -1.2360  3.6926
 3916SOL     MW15664   2.178   4.794   3.759 -0.6842 -0.4878  1.0990
 3917SOL     OW15665   3.691   2.160   1.964 -0.5765  0.0498 -0.0997
 3917SOL    HW115666   3.766   2.166   2.023 -0.5172  0.7017 -0.2396
 3917SOL    HW215667   3.703   2.231   1.902  0.4419 -1.8350 -2.1962
 3917SOL     MW15668   3.702   2.170   1.964 -0.4315 -0.1161 -0.4007
 3918SOL     OW15669   3.202   2.674   4.885 -0.1914 -0.1252 -0.3260
 3918SOL    HW115670   3.128   2.723   4.848  0.2137  1.0357  0.3274
 3918SOL    HW215671   3.164   2.627   4.959 -0.6044 -0.8960 -1.0111
 3918SOL     MW15672   3.187   2.675   4.890 -0.1925 -0.0727 -0.3302
 3919SOL     OW15673   2.300   5.196   4.916  0.4481 -0.9202  0.2122
 3919SOL    HW115674   2.218   5.197   4.965  1.0762  0.2816  1.2853
 3919SOL    HW215675   2.367   5.175   4.981  1.1203 -0.8608 -0.4383
 3919SOL     MW15676   2.298   5.193   4.931  0.6231 -0.7505  0.2691
 3920SOL     OW15677   4.618   3.409   0.523  0.5516  0.5891 -0.3852
 3920SOL    HW115678   4.696   3.458   0.551  1.2198  0.2943 -1.6741
 3920SOL    HW215679   4.628   3.398   0.429  0.4039 -1.9555 -0.1842
 3920SOL     MW15680   4.630   3.414   0.514  0.6217  0.2070 -0.5316
 3921SOL     OW15681   3.260   0.455   2.759  0.7425 -0.0907  0.5753
 3921SOL    HW115682   3.254   0.547   2.783  1.0598 -0.0379  0.4597
 3921SOL    HW215683   3.273   0.409   2.842  1.9813  0.1041  0.5050
 3921SOL     MW15684   3.261   0.461   2.773  0.9519 -0.0574  0.5503
 3922SOL     OW15685   2.050   1.821   3.215  0.2324  0.0429 -0.3657
 3922SOL    HW115686   2.045   1.913   3.189 -0.6162 -0.6990 -3.1646
 3922SOL    HW215687   1.959   1.790   3.214  0.5079 -0.8423  0.4663
 3922SOL     MW15688   2.037   1.829   3.211  0.1553 -0.1761 -0.6304
 3923SOL     OW15689   5.395   1.117   0.983 -0.2907  0.2377  0.3300
 3923SOL    HW115690   5.326   1.137   0.920 -0.1850 -2.3820 -0.7162
 3923SOL    HW215691   5.368   1.163   1.063 -1.5501  1.8474 -0.9640
 3923SOL     MW15692   5.382   1.126   0.986 -0.4459  0.1018  0.0150
 3924SOL     OW15693   3.668   1.413   4.553 -0.2067  0.0927  0.1750
 3924SOL    HW115694   3.676   1.483   4.488  2.1144  0.5396  0.8199
 3924SOL    HW215695   3.583   1.373   4.536 -0.5346  1.4924 -1.8044
 3924SOL     MW15696   3.658   1.417   4.542  0.0616  0.3412 -0.0046
 3925SOL     OW15697   0.986   0.213   4.866  0.4209 -0.3274  0.0240
 3925SOL    HW115698   0.906   0.265   4.878  0.7670  0.1023  0.5016
 3925SOL    HW215699   0.972   0.166   4.784 -0.0880  0.1881 -0.1891
 3925SOL     MW15700   0.974   0.214   4.856  0.3990 -0.2002  0.0596
 3926SOL     OW15701   4.285   3.248   0.453 -0.4415  0.0521 -0.4149
 3926SOL    HW115702   4.256   3.339   0.448 -1.1630 -0.1924 -0.9088
 3926SOL    HW215703   4.347   3.246   0.526  1.2832  1.3964 -1.7426
 3926SOL     MW15704   4.289   3.260   0.462 -0.3065  0.2001 -0.6600
 3927SOL     OW15705   3.789   0.063   0.051  0.0928  0.2085  0.3688
 3927SOL    HW115706   3.700   0.070   0.088  0.3679 -0.6980  1.2508
 3927SOL    HW215707   3.794  -0.027   0.019  0.9881 -0.0354  1.1552
 3927SOL     MW15708   3.778   0.052   0.052  0.2503  0.0537  0.5933
 3928SOL     OW15709   1.864   3.303   1.430  0.2916 -0.1143  0.0315
 3928SOL    HW115710   1.823   3.371   1.484 -1.6172 -0.6037 -0.7181
 3928SOL    HW215711   1.833   3.320   1.342  0.5411 -1.3845 -0.3263
 3928SOL     MW15712   1.855   3.314   1.426  0.0683 -0.3511 -0.1175
 3929SOL     OW15713   5.169   1.346   5.139 -0.7340 -0.2095  0.1657
 3929SOL    HW115714   5.228   1.416   5.170 -1.0808  0.4620 -0.6545
 3929SOL    HW215715   5.200   1.268   5.184 -0.3011  0.4569  1.0746
 3929SOL     MW15716   5.181   1.345   5.149 -0.7225 -0.0294  0.1776
 3930SOL     OW15717   1.080   4.838   0.564  0.1016  0.3214  0.1880
 3930SOL    HW115718   1.140   4.901   0.604 -0.3067  0.0332  1.3002
 3930SOL    HW215719   1.090   4.851   0.470 -0.0199  2.0918  0.3881
 3930SOL     MW15720   1.090   4.848   0.557  0.0303  0.5209  0.3646
 3931SOL     OW15721   3.690   4.804   0.946 -0.1343  0.2794 -0.4139
 3931SOL    HW115722   3.654   4.793   0.858 -3.6361 -1.6053  1.0424
 3931SOL    HW215723   3.722   4.717   0.969  0.5976  0.7172  0.2704
 3931SOL     MW15724   3.689   4.791   0.937 -0.5071  0.0846 -0.1258
 3932SOL     OW15725   0.201   1.387   3.205 -0.5023  0.0746  0.1785
 3932SOL    HW115726   0.165   1.458   3.152 -1.5412  0.0631  0.8543
 3932SOL    HW215727   0.280   1.424   3.244 -0.2636  0.3956 -0.5934
 3932SOL     MW15728   0.207   1.402   3.203 -0.6100  0.1163  0.1656
 3933SOL     OW15729   5.264   1.890   4.232  0.2722 -0.3922  0.0814
 3933SOL    HW115730   5.359   1.880   4.228  0.2888 -0.0978 -0.4341
 3933SOL    HW215731   5.250   1.985   4.225 -0.0720 -0.4560 -0.1215
 3933SOL     MW15732   5.275   1.902   4.231  0.2281 -0.3612 -0.0153
 3934SOL     OW15733   0.097   3.847   3.895 -0.1931 -0.0365  0.0698
 3934SOL    HW115734   0.055   3.911   3.839  0.3593 -0.0470 -0.3671
 3934SOL    HW215735   0.057   3.764   3.872 -0.1169 -0.0096 -0.1596
 3934SOL     MW15736   0.086   3.844   3.885 -0.1085 -0.0343 -0.0198
 3935SOL     OW15737   5.515   3.273   3.987  0.2361 -0.9947 -0.3209
 3935SOL    HW115738   5.431   3.316   3.968  1.0419  0.3710 -0.9069
 3935SOL    HW215739   5.563   3.277   3.904  1.8108  0.3982  0.6083
 3935SOL     MW15740   5.510   3.279   3.973  0.5565 -0.6235 -0.2747
 3936SOL     OW15741   2.748   4.014   4.267  0.2005  0.5171 -0.2823
 3936SOL    HW115742   2.807   4.070   4.216 -0.2388  0.2575 -1.0852
 3936SOL    HW215743   2.748   3.931   4.220 -0.6742  0.4631 -0.1908
 3936SOL     MW15744   2.756   4.010   4.254  0.0237  0.4749 -0.3781
 3937SOL     OW15745   0.736   0.218   0.163  0.9496 -0.0423  0.2968
 3937SOL    HW115746   0.809   0.197   0.104  1.4565 -0.0443  0.9065
 3937SOL    HW215747   0.776   0.275   0.229  0.2810  0.3507  0.3639
 3937SOL     MW15748   0.751   0.223   0.164  0.9279  0.0104  0.3879
 3938SOL     OW15749   4.857   3.406   0.851 -0.3178  0.0254 -0.1219
 3938SOL    HW115750   4.840   3.454   0.770  0.8900 -0.2426 -0.5479
 3938SOL    HW215751   4.787   3.340   0.854 -0.3638  0.0221 -0.9568
 3938SOL     MW15752   4.845   3.404   0.841 -0.1615 -0.0111 -0.2916
 3939SOL     OW15753   3.340   0.984   4.464 -0.5236  0.1482 -0.2460
 3939SOL    HW115754   3.329   0.921   4.536  1.2439  1.2649  1.0789
 3939SOL    HW215755   3.280   1.055   4.484  0.0520  0.5122  0.1964
 3939SOL     MW15756   3.330   0.985   4.476 -0.2083  0.3475 -0.0081
 3940SOL     OW15757   4.299   2.768   1.296  0.0489 -0.3274  0.2517
 3940SOL    HW115758   4.343   2.807   1.221 -1.8600 -1.4172 -1.5346
 3940SOL    HW215759   4.218   2.819   1.305 -0.5414 -1.2835  0.4634
 3940SOL     MW15760   4.294   2.780   1.287 -0.2875 -0.6027  0.0397
 3941SOL     OW15761   5.085   3.646   3.035  0.0831  0.2600 -0.0171
 3941SOL    HW115762   5.076   3.560   2.996 -1.2294  0.5962 -0.4788
 3941SOL    HW215763   4.996   3.678   3.046  0.4838  1.0106  1.4082
 3941SOL     MW15764   5.072   3.639   3.031 -0.0396  0.4063  0.1126
 3942SOL     OW15765   2.386   3.000   0.735 -0.7747  0.2638  0.1436
 3942SOL    HW115766   2.424   2.913   0.725  0.5692  0.5782  2.0319
 3942SOL    HW215767   2.460   3.060   0.730 -1.4649  1.1670  0.4880
 3942SOL     MW15768   2.401   2.996   0.733 -0.6867  0.4277  0.4441
 3943SOL     OW15769   4.354   2.172   2.150 -0.1460  0.0684 -0.1276
 3943SOL    HW115770   4.361   2.169   2.245  1.9190  0.4132 -0.2114
 3943SOL    HW215771   4.387   2.259   2.127 -1.8547  0.4990 -1.1072
 3943SOL     MW15772   4.360   2.183   2.159 -0.0981  0.1728 -0.2707
 3944SOL     OW15773   0.954   2.701   0.109 -0.6107 -0.2883 -0.2366
 3944SOL    HW115774   1.034   2.734   0.069 -0.8927  1.5203  0.5865
 3944SOL    HW215775   0.971   2.702   0.203 -0.7066 -2.4348 -0.1407
 3944SOL     MW15776   0.967   2.705   0.117 -0.6615 -0.3338 -0.1129
 3945SOL     OW15777   4.205   5.243   3.571  0.3836  0.4729 -0.4909
 3945SOL    HW115778   4.147   5.291   3.513  0.9700  2.4662  0.4895
 3945SOL    HW215779   4.289   5.240   3.524  0.3956  0.5742 -0.4768
 3945SOL     MW15780   4.209   5.249   3.557  0.4641  0.7548 -0.3571
 3946SOL     OW15781   1.624   4.928   0.599  0.4280 -0.3112  0.1371
 3946SOL    HW115782   1.586   4.885   0.676  0.8854 -1.3505 -0.1906
 3946SOL    HW215783   1.622   4.860   0.531  0.3785  0.4761 -0.6601
 3946SOL     MW15784   1.619   4.913   0.600  0.4829 -0.3451 -0.0143
 3947SOL     OW15785   1.727   2.803   4.406  0.2200 -0.0488 -0.6397
 3947SOL    HW115786   1.797   2.737   4.403  0.2483 -0.0364 -0.2732
 3947SOL    HW215787   1.658   2.768   4.350  1.3935  0.9624 -2.8852
 3947SOL     MW15788   1.727   2.790   4.398  0.3817  0.0889 -0.8926
 3948SOL     OW15789   3.977   3.440   1.434 -0.0275  0.1206 -0.0662
 3948SOL    HW115790   3.991   3.433   1.529 -0.8183 -0.1292  0.0369
 3948SOL    HW215791   3.984   3.350   1.402 -0.6052  0.0928 -0.1202
 3948SOL     MW15792   3.980   3.427   1.443 -0.2117  0.0833 -0.0596
 3949SOL     OW15793   5.223   3.558   3.255  0.0186  0.2444 -0.1691
 3949SOL    HW115794   5.163   3.513   3.315 -0.2563 -1.0494 -1.3566
 3949SOL    HW215795   5.166   3.590   3.185  0.5891 -0.0834 -0.7833
 3949SOL     MW15796   5.207   3.556   3.254  0.0584  0.0262 -0.4116
 3950SOL     OW15797   0.361   3.327   0.396 -0.1080 -0.4099  0.5433
 3950SOL    HW115798   0.345   3.412   0.437  0.8002 -0.0908  0.2633
 3950SOL    HW215799   0.311   3.265   0.448 -0.0906  0.1808  1.2772
 3950SOL     MW15800   0.352   3.330   0.408  0.0165 -0.2874  0.6044
 3951SOL     OW15801   2.175   4.206   1.116 -0.3196  0.2019  0.0328
 3951SOL    HW115802   2.104   4.186   1.177 -1.3492  1.1472 -0.8193
 3951SOL    HW215803   2.188   4.301   1.124  2.0460 -0.1522  1.4069
 3951SOL     MW15804   2.168   4.216   1.125 -0.1398  0.2815  0.1030
 3952SOL     OW15805   3.166   3.890   4.499  0.5451  0.3166  0.1990
 3952SOL    HW115806   3.212   3.896   4.415 -2.3708 -0.8671 -1.6334
 3952SOL    HW215807   3.150   3.797   4.511 -2.9816  0.6966 -0.3641
 3952SOL     MW15808   3.170   3.879   4.489 -0.3219  0.2084 -0.1234
 3953SOL     OW15809   0.466   1.592   0.317 -0.6563  0.1750 -0.5155
 3953SOL    HW115810   0.412   1.576   0.240 -0.9944  1.1409 -0.4993
 3953SOL    HW215811   0.537   1.647   0.285 -0.1113 -0.4456 -0.3805
 3953SOL     MW15812   0.468   1.597   0.302 -0.6284  0.2215 -0.4951
 3954SOL     OW15813   5.172   0.293   0.797 -0.2904  0.1385 -0.6135
 3954SOL    HW115814   5.187   0.388   0.791  1.4727 -0.1019 -0.4634
 3954SOL    HW215815   5.082   0.282   0.767 -0.7608  1.9282 -0.0460
 3954SOL     MW15816   5.161   0.305   0.792 -0.1165  0.3470 -0.5169
 3955SOL     OW15817   2.271   1.680   3.089 -0.0572  0.1521  0.3811
 3955SOL    HW115818   2.268   1.668   2.994  0.1775 -0.3586  0.4330
 3955SOL    HW215819   2.185   1.718   3.111 -0.6094 -0.8950  0.1105
 3955SOL     MW15820   2.259   1.683   3.079 -0.0999 -0.0576  0.3517
 3956SOL     OW15821   2.714   5.047   0.251  0.2782 -0.5018  0.5037
 3956SOL    HW115822   2.723   5.015   0.341 -1.0382 -0.6820  0.6003
 3956SOL    HW215823   2.718   5.142   0.258 -1.9334 -0.3966  1.0858
 3956SOL     MW15824   2.716   5.056   0.264 -0.1966 -0.5119  0.5951
 3957SOL     OW15825   5.375   2.996   2.234 -0.2892  0.5072 -0.0192
 3957SOL    HW115826   5.289   2.964   2.261 -0.3331  0.2748 -0.4235
 3957SOL    HW215827   5.356   3.057   2.162 -0.1199  0.4467 -0.1170
 3957SOL     MW15828   5.360   3.000   2.228 -0.2723  0.4678 -0.0868
 3958SOL     OW15829   3.183   0.486   4.007  0.3079 -0.2049 -0.1422
 3958SOL    HW115830   3.135   0.567   4.024  0.1619 -0.1874 -0.6221
 3958SOL    HW215831   3.155   0.427   4.077 -1.0842 -0.4726 -0.8652
 3958SOL     MW15832   3.173   0.489   4.019  0.1009 -0.2385 -0.3041
 3959SOL     OW15833   4.679   2.528   0.241  0.5765  0.1337  0.3313
 3959SOL    HW115834   4.682   2.539   0.336  0.3130  0.6544  0.2765
 3959SOL    HW215835   4.634   2.605   0.208  0.7507  0.0035 -0.2295
 3959SOL     MW15836   4.673   2.540   0.249  0.5645  0.1863  0.2484
 3960SOL     OW15837   2.068   3.240   1.603  0.1803  0.6383 -0.1752
 3960SOL    HW115838   1.985   3.237   1.555 -0.3800 -0.6224  0.8282
 3960SOL    HW215839   2.077   3.332   1.629 -1.1077  0.7071  0.0651
 3960SOL     MW15840   2.058   3.252   1.600 -0.0684  0.4779 -0.0078
 3961SOL     OW15841   1.625   5.453   4.167 -0.0121 -0.4668  0.3799
 3961SOL    HW115842   1.704   5.473   4.118 -1.4111 -0.2889 -1.9649
 3961SOL    HW215843   1.574   5.534   4.166 -0.5387 -0.7704  1.2114
 3961SOL     MW15844   1.629   5.466   4.160 -0.2712 -0.4837  0.1763
 3962SOL     OW15845   2.055   3.032   2.267  0.2531 -0.6056 -0.3570
 3962SOL    HW115846   2.119   3.090   2.306 -0.0261  1.3503 -2.5368
 3962SOL    HW215847   2.071   3.039   2.173 -2.9875 -0.0894 -1.0061
 3962SOL     MW15848   2.065   3.041   2.259 -0.2206 -0.2729 -0.7377
 3963SOL     OW15849   1.771   3.520   1.559 -0.1625 -0.2456  0.3901
 3963SOL    HW115850   1.698   3.523   1.497  1.5110  1.7372 -1.6295
 3963SOL    HW215851   1.819   3.601   1.543  1.7089 -0.8244  2.6511
 3963SOL     MW15852   1.767   3.531   1.549  0.3145 -0.0566  0.4226
 3964SOL     OW15853   1.344   4.490   5.048 -0.1103 -0.3006 -0.5155
 3964SOL    HW115854   1.286   4.565   5.038  0.2342  0.0778  0.1757
 3964SOL    HW215855   1.419   4.509   4.991  0.7684  0.7239  0.9031
 3964SOL     MW15856   1.347   4.503   5.039  0.0543 -0.1118 -0.2316
 3965SOL     OW15857   0.322   0.849  -0.020 -0.5094  0.3163 -0.2652
 3965SOL    HW115858   0.303   0.776   0.039  0.7389  0.8780  0.9010
 3965SOL    HW215859   0.286   0.926   0.023  0.0647  0.6802 -0.4145
 3965SOL     MW15860   0.315   0.850  -0.006 -0.2641  0.4408 -0.1284
 3966SOL     OW15861   2.550   2.021   2.907  0.1624 -0.1132 -0.3367
 3966SOL    HW115862   2.464   2.062   2.920 -0.8872 -1.6412 -2.0443
 3966SOL    HW215863   2.602   2.088   2.864 -0.2687  0.7167  0.3922
 3966SOL     MW15864   2.545   2.035   2.903 -0.0369 -0.2072 -0.4684
 3967SOL     OW15865   0.065   3.372   4.810  0.0436 -0.0148  0.6851
 3967SOL    HW115866  -0.030   3.364   4.817 -0.0146  0.4396  0.4134
 3967SOL    HW215867   0.084   3.461   4.838  0.2404  0.4031 -0.7444
 3967SOL     MW15868   0.055   3.383   4.815  0.0623  0.1026  0.4562
 3968SOL     OW15869   3.741   4.985   5.385  0.3229  0.1252 -0.2973
 3968SOL    HW115870   3.662   5.019   5.428  0.3002 -1.4734  1.0153
 3968SOL    HW215871   3.808   4.987   5.453  0.2489 -2.5985 -0.0332
 3968SOL     MW15872   3.739   4.990   5.400  0.3098 -0.4565 -0.0851
 3969SOL     OW15873   4.105   3.713   4.577  0.1914  0.6976 -0.2271
 3969SOL    HW115874   4.059   3.630   4.587  1.6987 -0.3551 -1.6765
 3969SOL    HW215875   4.186   3.703   4.626 -0.4696  2.0899  1.2614
 3969SOL     MW15876   4.110   3.701   4.585  0.3053  0.7433 -0.2218
 3970SOL     OW15877   5.203   1.438   0.949 -0.1694  0.0183  0.3069
 3970SOL    HW115878   5.295   1.456   0.929 -0.2667  1.5348  1.1127
 3970SOL    HW215879   5.183   1.360   0.897  1.2269  0.3602 -0.8339
 3970SOL     MW15880   5.213   1.430   0.939  0.0055  0.2684  0.2618
 3971SOL     OW15881   2.353   0.217   0.781  0.3778 -0.3321 -0.9318
 3971SOL    HW115882   2.296   0.293   0.789  0.1816 -0.4775 -0.9306
 3971SOL    HW215883   2.366   0.187   0.871  2.3591  1.0757 -0.6870
 3971SOL     MW15884   2.347   0.223   0.794  0.6180 -0.1622 -0.8987
 3972SOL     OW15885   4.085   3.315   5.109  0.2965  0.1612 -0.1851
 3972SOL    HW115886   4.107   3.349   5.195 -0.1963 -0.3917  0.1682
 3972SOL    HW215887   4.096   3.390   5.050 -1.1132  1.0552  0.6227
 3972SOL     MW15888   4.089   3.330   5.113  0.0405  0.2071 -0.0289
 3973SOL     OW15889   4.019   1.960   4.335 -0.4204 -0.7308 -0.3240
 3973SOL    HW115890   4.032   2.036   4.279  0.5319  0.7733  1.7875
 3973SOL    HW215891   3.927   1.965   4.361 -0.1382  0.2884  0.5432
 3973SOL     MW15892   4.008   1.971   4.331 -0.2543 -0.3912  0.0769
 3974SOL     OW15893   3.604   3.999   4.571 -0.7119 -0.2196 -0.3144
 3974SOL    HW115894   3.547   4.054   4.624 -1.4746 -0.8178 -0.4947
 3974SOL    HW215895   3.636   4.058   4.502 -2.1775 -0.1704 -0.9953
 3974SOL     MW15896   3.601   4.014   4.569 -1.0118 -0.2935 -0.4303
 3975SOL     OW15897   3.260   3.284   1.890  0.4952  0.3032  0.4003
 3975SOL    HW115898   3.180   3.330   1.917 -0.6448 -1.3219 -0.0324
 3975SOL    HW215899   3.330   3.348   1.902 -1.1119  2.5065 -1.1340
 3975SOL     MW15900   3.259   3.299   1.895  0.1255  0.3810  0.1356
 3976SOL     OW15901   3.564   2.107   4.695  0.7088  0.6457  0.4304
 3976SOL    HW115902   3.627   2.179   4.701  0.7952  0.5810  0.3172
 3976SOL    HW215903   3.575   2.074   4.605  0.0135  1.0949  0.1723
 3976SOL     MW15904   3.574   2.112   4.683  0.6269  0.6974  0.3804
 3977SOL     OW15905   5.174   3.345   1.842  0.1650 -0.1472 -0.1269
 3977SOL    HW115906   5.251   3.351   1.786  0.5236 -1.1116  0.2275
 3977SOL    HW215907   5.207   3.307   1.923 -0.6238 -0.2379  0.1599
 3977SOL     MW15908   5.189   3.341   1.845  0.1071 -0.2892 -0.0406
 3978SOL     OW15909   4.792   0.440   0.002 -0.0913  0.3755  0.2238
 3978SOL    HW115910   4.793   0.493   0.081  0.7986  0.0766  0.4304
 3978SOL    HW215911   4.758   0.355   0.030 -2.9886  1.2055 -0.4036
 3978SOL     MW15912   4.788   0.435   0.016 -0.3614  0.4470  0.1672
 3979SOL     OW15913   1.026   3.446   1.137  1.0190 -0.1106  0.4738
 3979SOL    HW115914   1.086   3.453   1.211  1.1205 -0.3445  0.4151
 3979SOL    HW215915   0.941   3.425   1.177  1.1281 -0.4983  0.5068
 3979SOL     MW15916   1.022   3.444   1.152  1.0473 -0.1943  0.4703
 3980SOL     OW15917   0.846   1.607   2.554 -0.1010 -0.1121 -0.0031
 3980SOL    HW115918   0.872   1.649   2.636 -2.0523 -0.5899  0.9183
 3980SOL    HW215919   0.919   1.623   2.494  2.0842 -1.0107  2.2463
 3980SOL     MW15920   0.859   1.615   2.557 -0.0695 -0.2973  0.4236
 3981SOL     OW15921   5.185   5.107   3.156 -0.0761  0.0108 -0.5356
 3981SOL    HW115922   5.154   5.114   3.246  0.2915  1.3231 -0.4939
 3981SOL    HW215923   5.243   5.030   3.157 -0.3520 -0.1939  0.2579
 3981SOL     MW15924   5.189   5.098   3.168 -0.0638  0.1598 -0.4232
 3982SOL     OW15925   3.937   4.944   0.903 -0.1004 -0.3395  0.2238
 3982SOL    HW115926   3.857   4.894   0.919  0.9630 -1.5730  2.1478
 3982SOL    HW215927   3.999   4.880   0.867  1.6770 -0.9229  3.8583
 3982SOL     MW15928   3.935   4.929   0.901  0.2819 -0.5840  0.9718
 3983SOL     OW15929   3.561   0.861   4.942  0.2015  0.4039  0.8757
 3983SOL    HW115930   3.590   0.805   5.015 -1.0299  0.0854  1.1354
 3983SOL    HW215931   3.499   0.922   4.982  0.8716  1.4054  0.4252
 3983SOL     MW15932   3.557   0.861   4.957  0.1260  0.4958  0.8500
 3984SOL     OW15933   0.053   1.870   0.357  0.1607 -0.2193  0.6108
 3984SOL    HW115934   0.083   1.865   0.448 -0.4392 -2.1411  0.7510
 3984SOL    HW215935  -0.003   1.948   0.354 -0.6195 -0.6807  2.1651
 3984SOL     MW15936   0.050   1.880   0.369 -0.0250 -0.5401  0.8388
 3985SOL     OW15937   3.247   0.913   4.240  0.1231  0.1915 -0.1627
 3985SOL    HW115938   3.300   0.841   4.206 -0.8016 -0.7015  0.2429
 3985SOL    HW215939   3.280   0.928   4.328  0.0107 -0.0543 -0.0782
 3985SOL     MW15940   3.259   0.905   4.247 -0.0165  0.0383 -0.0967
 3986SOL     OW15941   1.371   0.315   5.325  0.3887 -0.0124 -0.0485
 3986SOL    HW115942   1.375   0.409   5.346  0.5397 -0.1943  0.7763
 3986SOL    HW215943   1.278   0.297   5.317  0.3711  0.2746 -0.5270
 3986SOL     MW15944   1.359   0.325   5.327  0.4066  0.0018 -0.0019
 3987SOL     OW15945   5.292   0.713   5.125  0.0220  0.2273 -0.0539
 3987SOL    HW115946   5.241   0.666   5.190  1.4814 -0.4997  0.6301
 3987SOL    HW215947   5.316   0.796   5.168  0.8354 -0.1760  0.2946
 3987SOL     MW15948   5.289   0.718   5.140  0.3279  0.0752  0.0851
 3988SOL     OW15949   2.076   2.403   3.188  0.8111 -0.0557  0.2133
 3988SOL    HW115950   2.051   2.311   3.202 -2.9173  0.4621 -1.8278
 3988SOL    HW215951   2.146   2.399   3.123  0.9210 -1.4070  0.3660
 3988SOL     MW15952   2.082   2.390   3.181  0.3241 -0.1679 -0.0409
 3989SOL     OW15953   3.287   2.525   4.685  0.2071  0.1925  0.6371
 3989SOL    HW115954   3.309   2.449   4.738 -1.0350 -1.4116 -1.0012
 3989SOL    HW215955   3.228   2.576   4.740 -0.4978 -1.0573  1.0862
 3989SOL     MW15956   3.282   2.521   4.700 -0.0549 -0.1916  0.4771
 3990SOL     OW15957   2.456   2.722   4.875  0.0173  0.2525  0.1726
 3990SOL    HW115958   2.389   2.758   4.818  0.5395  1.5158  0.3021
 3990SOL    HW215959   2.538   2.732   4.825  0.1537 -1.0229  0.1148
 3990SOL     MW15960   2.458   2.728   4.860  0.1060  0.2509  0.1822
 3991SOL     OW15961   3.919   0.960   5.443  0.0898  0.2540 -0.3650
 3991SOL    HW115962   3.870   0.939   5.364  0.2513 -0.4238 -0.2960
 3991SOL    HW215963   4.003   0.993   5.411 -0.3553  1.3107 -0.4813
 3991SOL     MW15964   3.924   0.961   5.428  0.0516  0.3050 -0.3713
 3992SOL     OW15965   2.843   1.052   3.817 -0.0538 -0.5376 -0.2108
 3992SOL    HW115966   2.827   1.137   3.776 -0.9702 -0.3417  0.5376
 3992SOL    HW215967   2.855   1.071   3.910 -0.7857 -1.2785  0.0456
 3992SOL     MW15968   2.843   1.066   3.824 -0.2756 -0.6109 -0.0756
 3993SOL     OW15969   1.244   1.405   1.600 -0.1989  0.2077 -0.2037
 3993SOL    HW115970   1.281   1.372   1.518  2.3708 -0.5757  1.1707
 3993SOL    HW215971   1.258   1.500   1.597  1.4757 -0.0133  0.0266
 3993SOL     MW15972   1.251   1.414   1.589  0.3723  0.0725  0.0123
 3994SOL     OW15973   3.446   2.174   1.071 -0.4169  0.1199  0.5329
 3994SOL    HW115974   3.484   2.231   1.138 -0.1842 -0.5323  0.9676
 3994SOL    HW215975   3.509   2.102   1.062  0.4326  1.0660 -1.6700
 3994SOL     MW15976   3.459   2.172   1.079 -0.2712  0.1595  0.2950
 3995SOL     OW15977   4.843   4.804   1.554 -0.5601  0.0759  0.0310
 3995SOL    HW115978   4.873   4.740   1.619  1.4352  0.3730 -0.5387
 3995SOL    HW215979   4.768   4.762   1.512 -1.0365 -0.6829  1.5796
 3995SOL     MW15980   4.837   4.790   1.557 -0.3557  0.0138  0.1628
 3996SOL     OW15981   1.764   4.793   4.016 -0.8548  0.1923  0.3056
 3996SOL    HW115982   1.853   4.800   4.048 -1.5041 -0.0424  2.2817
 3996SOL    HW215983   1.724   4.878   4.037 -0.8261  0.7335 -1.6054
 3996SOL     MW15984   1.770   4.805   4.023 -0.9383  0.2335  0.3144
 3997SOL     OW15985   2.863   3.159   2.583  0.2570 -0.1481  0.0549
 3997SOL    HW115986   2.797   3.208   2.535  0.2623  0.8038  0.9707
 3997SOL    HW215987   2.881   3.214   2.660  0.9779 -1.1329  0.6029
 3997SOL     MW15988   2.856   3.173   2.587  0.3548 -0.1526  0.2519
 3998SOL     OW15989   0.327   2.366   0.844 -0.1256  0.1815 -0.0778
 3998SOL    HW115990   0.344   2.272   0.854 -2.9387 -0.4197  0.0681
 3998SOL    HW215991   0.236   2.376   0.872 -0.6045  2.5669 -2.1536
 3998SOL     MW15992   0.317   2.355   0.849 -0.5686  0.4216 -0.3376
 3999SOL     OW15993   2.174   3.569   4.463 -0.2302 -0.1593  0.3067
 3999SOL    HW115994   2.091   3.544   4.505  0.2403 -0.9239  0.8043
 3999SOL    HW215995   2.205   3.489   4.422  0.3582  0.0742  0.2837
 3999SOL     MW15996   2.167   3.555   4.463 -0.0877 -0.2308  0.3706
 4000SOL     OW15997   3.535   1.420   0.759 -0.0193  0.3476 -0.1858
 4000SOL    HW115998   3.486   1.383   0.832 -2.1129  2.2036 -0.5165
 4000SOL    HW215999   3.627   1.416   0.785 -0.7575  3.8587  4.1187
 4000SOL     MW16000   3.541   1.415   0.772 -0.4004  1.0699  0.3490
 4001SOL     OW16001   4.040   3.726   0.436  0.0767  0.4762  0.1611
 4001SOL    HW116002   3.995   3.749   0.518 -0.1724  1.0148 -0.1256
 4001SOL    HW216003   4.055   3.810   0.393  1.0071  0.2719  0.0647
 4001SOL     MW16004   4.036   3.741   0.441  0.1684  0.5212  0.1095
 4002SOL     OW16005   2.070   2.046   2.370  0.2596  0.1797  0.1736
 4002SOL    HW116006   2.161   2.072   2.380 -0.3466  2.0736  1.4226
 4002SOL    HW216007   2.060   1.970   2.428  1.1351 -0.3231 -0.3213
 4002SOL     MW16008   2.081   2.039   2.379  0.2959  0.3669  0.2751
 4003SOL     OW16009   1.322   3.518   1.918 -0.3431 -0.0775 -0.1759
 4003SOL    HW116010   1.328   3.427   1.946 -0.8001  0.3181  1.2809
 4003SOL    HW216011   1.259   3.558   1.978 -0.6439  1.0566 -1.1973
 4003SOL     MW16012   1.314   3.511   1.930 -0.4451  0.1283 -0.1173
 4004SOL     OW16013   2.401   3.076   4.055 -0.2707 -0.4066 -0.4087
 4004SOL    HW116014   2.435   3.048   3.969  2.2246 -0.7674  0.6012
 4004SOL    HW216015   2.478   3.110   4.101 -1.0620 -2.1499  2.4651
 4004SOL     MW16016   2.416   3.077   4.049 -0.0414 -0.6898  0.1140
 4005SOL     OW16017   2.026   1.069   1.863 -0.1052  0.4440 -0.6217
 4005SOL    HW116018   2.022   1.067   1.959  0.9500 -1.6475 -0.5492
 4005SOL    HW216019   2.013   1.161   1.840  1.2786  1.3034  1.6317
 4005SOL     MW16020   2.024   1.081   1.873  0.2230  0.2782 -0.3086
 4006SOL     OW16021   1.801   3.284   1.770 -0.0903  0.5035 -0.1164
 4006SOL    HW116022   1.761   3.369   1.751  1.5430  1.2501 -0.3937
 4006SOL    HW216023   1.828   3.290   1.862 -1.2673 -0.2860  0.3020
 4006SOL     MW16024   1.800   3.297   1.780 -0.0289  0.4977 -0.0974
 4007SOL     OW16025   0.522   2.723   3.442 -0.3197 -0.3345 -0.0802
 4007SOL    HW116026   0.598   2.712   3.384 -0.0326 -1.0386  0.4220
 4007SOL    HW216027   0.547   2.794   3.501  0.8308 -1.9223  1.4441
 4007SOL     MW16028   0.535   2.731   3.442 -0.1262 -0.6429  0.1925
 4008SOL     OW16029   2.570   5.532   4.214  0.2909  0.1113 -0.4437
 4008SOL    HW116030   2.564   5.464   4.282 -1.6693 -0.7001 -1.3513
 4008SOL    HW216031   2.653   5.515   4.170 -0.6509 -2.5433 -1.4069
 4008SOL     MW16032   2.580   5.520   4.217 -0.0997 -0.3551 -0.6955
 4009SOL     OW16033   4.851   1.332   1.228  0.1251 -0.1492 -0.4518
 4009SOL    HW116034   4.872   1.424   1.217  0.0345  0.0594  0.8930
 4009SOL    HW216035   4.924   1.296   1.278 -1.3004 -0.0307  1.8843
 4009SOL     MW16036   4.864   1.339   1.233 -0.0790 -0.1052  0.0436
 4010SOL     OW16037   0.525   3.402   3.223 -0.1214 -0.1753  0.2733
 4010SOL    HW116038   0.434   3.387   3.248  0.1944 -1.1121  0.8928
 4010SOL    HW216039   0.552   3.320   3.180  0.8230 -0.4280  1.2934
 4010SOL     MW16040   0.516   3.389   3.220  0.0482 -0.3354  0.4940
 4011SOL     OW16041   2.181   1.426   4.016  0.1049  0.1404 -0.1196
 4011SOL    HW116042   2.233   1.372   4.076  0.5396  0.2114 -0.4255
 4011SOL    HW216043   2.234   1.432   3.937  0.4633  1.7145  0.2000
 4011SOL     MW16044   2.195   1.420   4.013  0.2116  0.3618 -0.1178
 4012SOL     OW16045   4.389   3.140   1.802  0.2107 -0.0199 -0.2248
 4012SOL    HW116046   4.299   3.166   1.781  0.0211 -1.2898 -1.1023
 4012SOL    HW216047   4.443   3.211   1.768 -0.5335  2.4411  3.2105
 4012SOL     MW16048   4.384   3.153   1.795  0.0851  0.1404  0.1195
 4013SOL     OW16049   4.610   1.751   5.016  0.1967 -0.3613  0.5482
 4013SOL    HW116050   4.586   1.786   4.931 -1.1973 -2.2662  0.0916
 4013SOL    HW216051   4.663   1.819   5.056 -0.9908  1.5251 -0.9248
 4013SOL     MW16052   4.614   1.765   5.010 -0.1507 -0.3638  0.2885
 4014SOL     OW16053   0.563   4.617   5.460  0.8095  0.1348 -0.0974
 4014SOL    HW116054   0.625   4.675   5.505  0.1936 -0.2979  1.3718
 4014SOL    HW216055   0.477   4.654   5.478  0.1893 -2.2350  2.6833
 4014SOL     MW16056   0.560   4.629   5.468  0.6432 -0.2424  0.4746
 4015SOL     OW16057   0.337   1.671   2.324  0.4653  0.2145 -0.2180
 4015SOL    HW116058   0.346   1.717   2.241  1.1708 -0.6299 -0.6252
 4015SOL    HW216059   0.328   1.579   2.300 -1.1366  0.1194  0.5709
 4015SOL     MW16060   0.337   1.665   2.310  0.3447  0.0880 -0.1667
 4016SOL     OW16061   5.170   4.243   4.498  0.1604  0.4399 -0.7927
 4016SOL    HW116062   5.082   4.279   4.486 -0.3725 -1.0590 -1.6198
 4016SOL    HW216063   5.203   4.285   4.578 -2.0462 -0.3610  0.6238
 4016SOL     MW16064   5.163   4.253   4.508 -0.2082  0.1304 -0.7134
 4017SOL     OW16065   1.126   3.861   3.937 -0.1295  0.5190  0.1386
 4017SOL    HW116066   1.166   3.781   3.903 -2.5743 -0.3118 -1.0267
 4017SOL    HW216067   1.175   3.932   3.897 -0.4732 -0.4537 -2.1459
 4017SOL     MW16068   1.138   3.860   3.927 -0.5048  0.2763 -0.3257
 4018SOL     OW16069   2.159   5.342   2.082 -0.1727  0.3667  0.7020
 4018SOL    HW116070   2.252   5.357   2.098  0.1900 -1.0567  0.0449
 4018SOL    HW216071   2.154   5.315   1.990 -1.0104 -1.2092  1.1694
 4018SOL     MW16072   2.170   5.341   2.072 -0.2366 -0.0369  0.6765
 4019SOL     OW16073   4.403   4.612   2.274 -0.6822  0.3416 -0.1758
 4019SOL    HW116074   4.438   4.620   2.362 -0.7690 -0.8656 -0.0170
 4019SOL    HW216075   4.436   4.689   2.228  1.4283 -0.2701  0.2276
 4019SOL     MW16076   4.412   4.623   2.279 -0.4099  0.0968 -0.1001
 4020SOL     OW16077   2.853   0.732   3.562  0.5977 -0.2504 -0.2832
 4020SOL    HW116078   2.779   0.791   3.546  0.7231 -0.1886 -0.6415
 4020SOL    HW216079   2.817   0.664   3.619  0.6750  0.6403  0.8630
 4020SOL     MW16080   2.838   0.731   3.567  0.6249 -0.1222 -0.1771
 4021SOL     OW16081   1.445   0.918   4.836  0.3479 -0.5201  0.2188
 4021SOL    HW116082   1.471   0.842   4.783 -1.4492 -1.6044  0.7845
 4021SOL    HW216083   1.434   0.882   4.924  2.4250  1.0654  1.2071
 4021SOL     MW16084   1.447   0.903   4.841  0.3856 -0.4526  0.4279
 4022SOL     OW16085   4.697   4.758   4.827  0.2820  0.1857  0.4099
 4022SOL    HW116086   4.692   4.852   4.847  0.5673 -0.0445  1.6803
 4022SOL    HW216087   4.623   4.742   4.769 -1.3931  0.7279  2.2680
 4022SOL     MW16088   4.686   4.769   4.822  0.0950  0.2277  0.8309
 4023SOL     OW16089   0.134   3.868   0.212 -0.2065  0.0463 -0.4041
 4023SOL    HW116090   0.066   3.825   0.161  0.4689 -0.8222 -0.5842
 4023SOL    HW216091   0.215   3.849   0.166  0.1619  1.1436 -0.2429
 4023SOL     MW16092   0.136   3.860   0.199 -0.0660  0.0771 -0.4067
 4024SOL     OW16093   1.455   0.364   3.513  0.3159 -0.1730 -0.0120
 4024SOL    HW116094   1.449   0.455   3.484 -0.2078 -0.1889  0.0346
 4024SOL    HW216095   1.392   0.358   3.585  0.3670 -0.5640 -0.0005
 4024SOL     MW16096   1.446   0.375   3.519  0.2523 -0.2277 -0.0042
 4025SOL     OW16097   2.165   2.072   4.935 -0.3013  0.2681 -0.6822
 4025SOL    HW116098   2.130   1.983   4.949 -0.7103  0.0797 -2.6193
 4025SOL    HW216099   2.259   2.063   4.948 -0.2107 -0.7113 -1.8072
 4025SOL     MW16100   2.173   2.059   4.938 -0.3442  0.1109 -1.0943
 4026SOL     OW16101   4.419   3.397   4.126 -0.5955  0.2489  0.0104
 4026SOL    HW116102   4.466   3.323   4.088 -1.4032  0.5488 -1.6581
 4026SOL    HW216103   4.479   3.471   4.115 -0.4408  0.1529  0.2036
 4026SOL     MW16104   4.434   3.397   4.120 -0.6834  0.2763 -0.1881
 4027SOL     OW16105   2.787   0.522   3.738  0.5459 -0.5878 -0.3624
 4027SOL    HW116106   2.875   0.486   3.725  0.6555 -0.1770 -0.7813
 4027SOL    HW216107   2.732   0.475   3.675  0.6764 -0.0835 -0.8627
 4027SOL     MW16108   2.791   0.511   3.728  0.5782 -0.4646 -0.4861
 4028SOL     OW16109   4.455   4.943   2.867 -0.4801  0.0574  0.4700
 4028SOL    HW116110   4.486   4.903   2.786 -1.6226  0.2050 -0.0596
 4028SOL    HW216111   4.526   5.001   2.893  0.4541 -0.9709  0.2969
 4028SOL     MW16112   4.469   4.945   2.860 -0.5081 -0.0611  0.3754
 4029SOL     OW16113   0.479   5.223   4.302  0.4114  0.6354 -0.0884
 4029SOL    HW116114   0.399   5.234   4.354  0.4741  0.3293  0.0747
 4029SOL    HW216115   0.495   5.128   4.303 -0.5364  0.4083 -2.0704
 4029SOL     MW16116   0.470   5.211   4.309  0.2923  0.5636 -0.3332
 4030SOL     OW16117   0.303   0.627   1.387  0.1696 -0.2965  0.6016
 4030SOL    HW116118   0.342   0.546   1.354 -0.1764 -0.1872 -0.0726
 4030SOL    HW216119   0.377   0.678   1.418  0.2724 -1.6903  2.9414
 4030SOL     MW16120   0.318   0.623   1.387  0.1369 -0.4694  0.8258
 4031SOL     OW16121   1.192   0.479   1.716 -0.0127 -0.0167  0.4517
 4031SOL    HW116122   1.185   0.383   1.724 -0.9798  0.0656  0.7571
 4031SOL    HW216123   1.278   0.500   1.752  0.7212 -0.8853 -0.7179
 4031SOL     MW16124   1.202   0.469   1.722 -0.0441 -0.1225  0.3354
 4032SOL     OW16125   4.118   2.001   4.633 -0.4633 -0.3051 -0.1982
 4032SOL    HW116126   4.071   1.998   4.549 -0.5997 -1.1886 -0.1007
 4032SOL    HW216127   4.061   2.050   4.691 -0.3750  0.3044 -0.6101
 4032SOL     MW16128   4.104   2.007   4.629 -0.4698 -0.3420 -0.2405
 4033SOL     OW16129   0.546   5.176   3.151 -0.2452 -0.1393 -0.0087
 4033SOL    HW116130   0.491   5.121   3.096 -0.9807  0.3586  0.2076
 4033SOL    HW216131   0.546   5.132   3.236  0.5492 -0.6886 -0.2906
 4033SOL     MW16132   0.539   5.163   3.155 -0.2373 -0.1462 -0.0176
 4034SOL     OW16133   3.921   1.674   0.822  0.3385 -0.0048  0.1917
 4034SOL    HW116134   3.901   1.677   0.729 -0.8991  0.9231  0.4581
 4034SOL    HW216135   3.980   1.748   0.837  0.5328 -0.1507  0.1502
 4034SOL     MW16136   3.926   1.684   0.812  0.1981  0.1004  0.2220
 4035SOL     OW16137   0.283   2.788   4.294  0.1080 -0.3837 -0.3450
 4035SOL    HW116138   0.267   2.870   4.341 -0.5677  0.2716 -1.6553
 4035SOL    HW216139   0.243   2.721   4.349  0.0941  0.2483  0.4357
 4035SOL     MW16140   0.275   2.790   4.307  0.0152 -0.2105 -0.4163
 4036SOL     OW16141   1.137   1.070   3.947 -0.5109  0.1241 -0.2655
 4036SOL    HW116142   1.203   1.007   3.918  0.0538  1.0223 -0.9781
 4036SOL    HW216143   1.075   1.017   3.997 -1.3619 -1.4609 -2.8086
 4036SOL     MW16144   1.138   1.054   3.950 -0.5494  0.0317 -0.7037
 4037SOL     OW16145   2.383   3.786   1.315  0.3031  0.0587  0.2706
 4037SOL    HW116146   2.323   3.737   1.258 -0.4146  0.9479  0.2444
 4037SOL    HW216147   2.464   3.792   1.264  0.8350 -2.0793  0.7316
 4037SOL     MW16148   2.386   3.780   1.300  0.2781 -0.1094  0.3291
 4038SOL     OW16149   2.483   0.449   0.164 -0.0351  0.3970 -0.3370
 4038SOL    HW116150   2.555   0.390   0.185  1.7332  3.1052  1.8751
 4038SOL    HW216151   2.516   0.503   0.092 -0.5769  0.5412 -0.4850
 4038SOL     MW16152   2.497   0.448   0.157  0.1300  0.7809 -0.0592
 4039SOL     OW16153   4.318   4.780   5.074 -0.3921  0.1001 -0.0263
 4039SOL    HW116154   4.230   4.760   5.107 -0.0770  1.5340  1.8350
 4039SOL    HW216155   4.377   4.747   5.141  0.3371  1.8108  0.2233
 4039SOL     MW16156   4.314   4.773   5.087 -0.2516  0.5233  0.2578
 4040SOL     OW16157   5.259   3.719   1.271 -0.0711  0.4554 -0.6321
 4040SOL    HW116158   5.189   3.784   1.275 -0.2355  0.2921 -0.8796
 4040SOL    HW216159   5.229   3.647   1.326 -0.0927  0.3875 -0.7340
 4040SOL     MW16160   5.246   3.718   1.279 -0.0962  0.4243 -0.6791
 4041SOL     OW16161   3.905   2.214   0.148 -0.0869  0.7809  0.5866
 4041SOL    HW116162   3.916   2.270   0.225  0.2139  2.3163 -0.5314
 4041SOL    HW216163   3.923   2.126   0.180  2.6433  1.6427  1.7381
 4041SOL     MW16164   3.909   2.210   0.163  0.3210  1.1035  0.5911
 4042SOL     OW16165   0.282   3.539   0.555 -0.2661  0.0879  0.4834
 4042SOL    HW116166   0.187   3.532   0.566 -0.3608 -1.4178 -0.8635
 4042SOL    HW216167   0.317   3.543   0.644 -1.5429 -0.0372  1.0032
 4042SOL     MW16168   0.274   3.539   0.569 -0.4507 -0.1316  0.3721
 4043SOL     OW16169   2.984   2.785   4.776 -0.0142  0.0673 -0.0878
 4043SOL    HW116170   2.947   2.865   4.813  1.2349  1.7174 -2.1985
 4043SOL    HW216171   2.989   2.802   4.682  1.6159 -1.9473 -0.4363
 4043SOL     MW16172   2.979   2.798   4.768  0.3733  0.0183 -0.4188
 4044SOL     OW16173   5.422   0.234   2.185 -0.2904 -0.2765 -0.2936
 4044SOL    HW116174   5.335   0.240   2.144 -0.6430  0.2906  0.5104
 4044SOL    HW216175   5.404   0.227   2.279  0.5316 -0.0963 -0.1120
 4044SOL     MW16176   5.408   0.234   2.192 -0.2273 -0.1760 -0.1610
 4045SOL     OW16177   2.295   3.676   3.460  0.4403  0.3519  0.8013
 4045SOL    HW116178   2.330   3.743   3.518  0.5074  1.2491 -0.2483
 4045SOL    HW216179   2.238   3.724   3.400  0.1281 -0.6025  0.3236
 4045SOL     MW16180   2.292   3.691   3.460  0.4074  0.3442  0.5958
 4046SOL     OW16181   5.537   2.128   5.077 -0.1340 -0.0603  0.3892
 4046SOL    HW116182   5.482   2.152   5.152  0.4648  0.0839  0.7976
 4046SOL    HW216183   5.488   2.060   5.031  0.3808 -1.6496  2.0753
 4046SOL     MW16184   5.523   2.122   5.081  0.0159 -0.2548  0.6711
 4047SOL     OW16185   4.536   2.497   3.915 -0.0055 -0.2850 -0.3112
 4047SOL    HW116186   4.595   2.465   3.847  0.3895 -1.3259  0.4985
 4047SOL    HW216187   4.556   2.444   3.991  0.8805  2.0909  1.2234
 4047SOL     MW16188   4.546   2.486   3.916  0.1669 -0.1054  0.0043
 4048SOL     OW16189   2.555   2.475   5.169  0.3147  0.1519  0.0106
 4048SOL    HW116190   2.495   2.549   5.161 -0.4491 -0.1333  2.3944
 4048SOL    HW216191   2.546   2.446   5.260  0.3432 -3.0864 -0.8972
 4048SOL     MW16192   2.546   2.481   5.180  0.2158 -0.3223  0.2092
 4049SOL     OW16193   3.067   2.182   1.000 -0.0970  0.0916 -0.3600
 4049SOL    HW116194   3.114   2.157   1.081 -2.3645  0.6659  1.2256
 4049SOL    HW216195   3.031   2.268   1.019 -1.3637 -0.1116 -1.6874
 4049SOL     MW16196   3.069   2.190   1.014 -0.5726  0.1415 -0.3253
 4050SOL     OW16197   4.733   3.226   1.140 -0.3345 -0.0175  0.4827
 4050SOL    HW116198   4.730   3.213   1.045  0.2506 -0.5280  0.5283
 4050SOL    HW216199   4.818   3.192   1.166 -1.6443 -2.7201  1.6003
 4050SOL     MW16200   4.744   3.219   1.131 -0.4320 -0.4499  0.6392
 4051SOL     OW16201   3.541   2.924   2.459  0.2715 -0.5525  0.0460
 4051SOL    HW116202   3.490   2.982   2.516 -1.9692 -0.4383 -1.9337
 4051SOL    HW216203   3.593   2.984   2.405 -0.3373 -0.4764 -0.4634
 4051SOL     MW16204   3.541   2.940   2.459 -0.1120 -0.5269 -0.2890
 4052SOL     OW16205   0.742   0.523   3.000 -0.3557  0.1838 -0.0299
 4052SOL    HW116206   0.660   0.473   3.005 -1.1513  1.4861  0.6012
 4052SOL    HW216207   0.714   0.615   3.003  1.1235  0.6616  0.0287
 4052SOL     MW16208   0.727   0.529   3.001 -0.2637  0.4234  0.0630
 4053SOL     OW16209   4.394   5.260   4.670 -0.4743  0.2116  0.1063
 4053SOL    HW116210   4.395   5.208   4.750  0.4964 -1.0550 -0.6985
 4053SOL    HW216211   4.318   5.229   4.622 -0.1718 -0.1286 -0.1561
 4053SOL     MW16212   4.384   5.249   4.674 -0.3029 -0.0046 -0.0374
 4054SOL     OW16213   4.045   3.503   3.470  0.0154  0.4341  0.2709
 4054SOL    HW116214   3.987   3.548   3.409  0.5314  1.4575  0.4956
 4054SOL    HW216215   3.988   3.445   3.520 -1.1520  2.6395  1.6501
 4054SOL     MW16216   4.030   3.501   3.469 -0.0722  0.8686  0.4867
 4055SOL     OW16217   0.460   3.176   2.468  0.2023  0.1757 -0.1694
 4055SOL    HW116218   0.496   3.147   2.551  0.9759 -0.6239 -0.7694
 4055SOL    HW216219   0.514   3.251   2.443 -0.5111  0.8970  0.3991
 4055SOL     MW16220   0.472   3.182   2.476  0.2104  0.1652 -0.1736
 4056SOL     OW16221   4.743   4.755   1.045  0.4691  0.4360  0.1220
 4056SOL    HW116222   4.808   4.790   0.984 -0.8051  0.4751 -1.2812
 4056SOL    HW216223   4.706   4.832   1.088 -0.2145  0.6171 -0.7530
 4056SOL     MW16224   4.747   4.770   1.042  0.2056  0.4656 -0.1846
 4057SOL     OW16225   4.898   1.211   3.792  0.1278 -0.0827  0.1629
 4057SOL    HW116226   4.942   1.294   3.773  3.3857 -1.6068  0.3161
 4057SOL    HW216227   4.896   1.166   3.707  0.0529 -0.5557  0.4129
 4057SOL     MW16228   4.904   1.216   3.778  0.5562 -0.3515  0.2171
 4058SOL     OW16229   0.078   2.691   0.405 -0.3848  0.1652  0.2154
 4058SOL    HW116230   0.031   2.696   0.322 -0.7809 -1.3748  0.3222
 4058SOL    HW216231   0.165   2.658   0.382 -0.3891  0.0432  0.3700
 4058SOL     MW16232   0.083   2.687   0.391 -0.4387 -0.0585  0.2505
 4059SOL     OW16233   4.826   2.481   1.727  0.0667 -0.3364 -0.3688
 4059SOL    HW116234   4.851   2.409   1.669  1.6988 -1.0420  1.0972
 4059SOL    HW216235   4.891   2.549   1.710  1.7684 -1.2631  1.8032
 4059SOL     MW16236   4.838   2.480   1.717  0.5154 -0.5561  0.1208
 4060SOL     OW16237   3.475   3.268   3.089  0.1871 -0.0826 -0.0945
 4060SOL    HW116238   3.553   3.292   3.140  0.5186 -0.4804 -0.3990
 4060SOL    HW216239   3.505   3.273   2.998  0.1418 -1.1941 -0.1815
 4060SOL     MW16240   3.490   3.272   3.084  0.2256 -0.2857 -0.1472
 4061SOL     OW16241   2.533   3.359   0.394 -0.0527  0.2870  0.0412
 4061SOL    HW116242   2.613   3.343   0.444  0.3222 -0.5024 -0.7818
 4061SOL    HW216243   2.482   3.279   0.403  0.1217  0.0447 -1.0173
 4061SOL     MW16244   2.537   3.346   0.402  0.0212  0.1482 -0.2120
 4062SOL     OW16245   4.635   1.208   0.149  0.1152 -0.2684  0.0218
 4062SOL    HW116246   4.580   1.269   0.099  1.6795  0.7019 -0.6024
 4062SOL    HW216247   4.574   1.142   0.182 -1.8348  2.0660  1.4669
 4062SOL     MW16248   4.620   1.208   0.147  0.0633  0.1764  0.1323
 4063SOL     OW16249   5.218   3.233   3.594  0.2991  0.0790  0.2678
 4063SOL    HW116250   5.306   3.242   3.631  0.0569 -0.3254  0.9561
 4063SOL    HW216251   5.229   3.173   3.520  0.8103  0.9949 -0.4204
 4063SOL     MW16252   5.232   3.226   3.589  0.3353  0.1479  0.2678
 4064SOL     OW16253   4.112   3.444   5.340 -0.0069  0.2155 -0.2940
 4064SOL    HW116254   4.040   3.501   5.314  0.4212  0.3802 -1.1650
 4064SOL    HW216255   4.190   3.500   5.334  0.3851 -0.3798 -0.8956
 4064SOL     MW16256   4.113   3.459   5.336  0.1035  0.1576 -0.4922
 4065SOL     OW16257   1.549   3.021   1.179 -0.4845 -0.5467 -0.1005
 4065SOL    HW116258   1.531   3.031   1.273  1.0786 -0.8499  0.2614
 4065SOL    HW216259   1.483   2.959   1.149 -0.4364 -1.1832  1.0184
 4065SOL     MW16260   1.538   3.014   1.188 -0.2677 -0.6732  0.0988
 4066SOL     OW16261   1.892   5.064   5.020 -0.5439  0.6965 -0.4830
 4066SOL    HW116262   1.799   5.065   5.042 -0.8934  0.7455 -1.8287
 4066SOL    HW216263   1.917   4.972   5.024 -0.5771  0.7128  0.1519
 4066SOL     MW16264   1.883   5.052   5.023 -0.5954  0.7053 -0.5787
 4067SOL     OW16265   1.637   3.055   3.791  0.0639 -0.2330 -0.1385
 4067SOL    HW116266   1.703   3.027   3.727 -0.2164 -1.2901  0.0242
 4067SOL    HW216267   1.681   3.124   3.841  0.3103  0.5823 -1.4077
 4067SOL     MW16268   1.652   3.061   3.789  0.0593 -0.2655 -0.2874
 4068SOL     OW16269   0.803   1.943   3.140 -0.1623 -0.4275 -0.5602
 4068SOL    HW116270   0.810   1.852   3.169  1.3575 -0.0027  0.5665
 4068SOL    HW216271   0.820   1.940   3.046  0.0272 -1.2817 -0.5102
 4068SOL     MW16272   0.806   1.930   3.132  0.0678 -0.4853 -0.4018
 4069SOL     OW16273   2.732   2.911   3.961 -0.3398 -0.0515  0.1447
 4069SOL    HW116274   2.655   2.908   3.905 -0.0310 -0.9794 -0.2388
 4069SOL    HW216275   2.801   2.947   3.904 -0.5662  1.1845  0.6064
 4069SOL     MW16276   2.731   2.916   3.946 -0.3287 -0.0100  0.1552
 4070SOL     OW16277   3.226   2.248   1.729 -0.0342 -0.2534 -0.2404
 4070SOL    HW116278   3.176   2.307   1.785 -0.6884 -1.0292  0.0020
 4070SOL    HW216279   3.193   2.264   1.641 -0.8547 -0.9032 -0.0554
 4070SOL     MW16280   3.215   2.258   1.724 -0.2327 -0.4452 -0.1829
 4071SOL     OW16281   4.881   2.739   5.517 -0.4803  0.2650  0.3362
 4071SOL    HW116282   4.955   2.718   5.460 -2.2431 -1.5482 -1.4470
 4071SOL    HW216283   4.865   2.832   5.502  0.8996  0.4816  0.1198
 4071SOL     MW16284   4.889   2.749   5.508 -0.5318  0.0501  0.0671
 4072SOL     OW16285   1.924   2.187   2.805  0.1304  0.1115  0.8737
 4072SOL    HW116286   1.841   2.174   2.759 -0.5042  0.9256  1.7403
 4072SOL    HW216287   1.967   2.257   2.756  1.5322 -1.9704 -1.1177
 4072SOL     MW16288   1.919   2.195   2.792  0.2337 -0.0591  0.7224
 4073SOL     OW16289   3.822   0.189   0.427  0.1169  0.0777 -0.1503
 4073SOL    HW116290   3.867   0.139   0.359 -0.2094 -0.9532  0.3727
 4073SOL    HW216291   3.856   0.154   0.510  0.9846  1.7570  0.2411
 4073SOL     MW16292   3.833   0.178   0.429  0.1897  0.1650 -0.0273
 4074SOL     OW16293   0.058   5.501   0.067 -0.3090 -0.1929  0.7046
 4074SOL    HW116294  -0.011   5.556   0.104  1.5537  2.9311 -0.1127
 4074SOL    HW216295   0.050   5.511  -0.027 -0.0266 -1.5221  0.5209
 4074SOL     MW16296   0.048   5.510   0.059 -0.0203  0.0487  0.5699
 4075SOL     OW16297   1.677   5.251   0.167  0.0746  0.0203 -0.2204
 4075SOL    HW116298   1.631   5.331   0.194  2.4976  1.3076  0.4365
 4075SOL    HW216299   1.679   5.197   0.245  1.4264  0.8909  0.3855
 4075SOL     MW16300   1.671   5.255   0.181  0.5826  0.3107 -0.0505
 4076SOL     OW16301   2.526   4.983   1.152  0.1728  0.4468  0.0228
 4076SOL    HW116302   2.576   5.059   1.180 -0.6424  1.0602 -0.1317
 4076SOL    HW216303   2.435   5.006   1.171 -0.2750  0.3279 -1.8162
 4076SOL     MW16304   2.520   4.996   1.158  0.0028  0.5134 -0.2455
 4077SOL     OW16305   1.522   2.010   5.450  0.1612  0.2438 -0.1673
 4077SOL    HW116306   1.529   2.084   5.389  0.1716  0.8554  0.5582
 4077SOL    HW216307   1.434   2.018   5.487  0.3535  0.2019  0.3019
 4077SOL     MW16308   1.511   2.021   5.447  0.1885  0.3205 -0.0065
 4078SOL     OW16309   0.409   1.165   0.191 -0.6307  0.6842 -0.0255
 4078SOL    HW116310   0.446   1.244   0.230 -0.8930  0.8202 -0.0507
 4078SOL    HW216311   0.421   1.176   0.097 -0.4210  0.5701 -0.0117
 4078SOL     MW16312   0.415   1.177   0.184 -0.6378  0.6871 -0.0271
 4079SOL     OW16313   5.065   2.149   3.652 -0.3258 -0.2370  0.5896
 4079SOL    HW116314   5.062   2.168   3.559 -2.5222 -1.9392  0.2383
 4079SOL    HW216315   5.080   2.235   3.693  1.5274  0.4179 -1.2939
 4079SOL     MW16316   5.066   2.163   3.645 -0.3720 -0.3780  0.2888
 4080SOL     OW16317   4.871   1.331   0.561 -0.8065 -0.0937 -0.3852
 4080SOL    HW116318   4.780   1.300   0.554 -0.6669 -0.3227 -1.5665
 4080SOL    HW216319   4.923   1.255   0.534 -0.3736  0.5939 -1.5879
 4080SOL     MW16320   4.866   1.316   0.556 -0.7294 -0.0320 -0.7060
 4081SOL     OW16321   3.423   3.437   4.136 -0.0846  0.2560  0.0630
 4081SOL    HW116322   3.415   3.462   4.228  0.8845 -0.2627  0.2885
 4081SOL    HW216323   3.516   3.441   4.117 -0.2483  0.1146 -0.8396
 4081SOL     MW16324   3.434   3.441   4.146  0.0238  0.1672 -0.0281
 4082SOL     OW16325   1.414   3.575   2.412  0.5117 -0.7035 -0.4868
 4082SOL    HW116326   1.399   3.648   2.352  1.0231 -0.5747 -0.4644
 4082SOL    HW216327   1.342   3.580   2.475  0.0961 -0.7056 -0.9555
 4082SOL     MW16328   1.403   3.585   2.412  0.5246 -0.6864 -0.5468
 4083SOL     OW16329   3.002   4.369   1.217 -0.2975 -0.5307  0.5811
 4083SOL    HW116330   2.948   4.291   1.235  1.2089 -2.2922 -1.8728
 4083SOL    HW216331   2.941   4.431   1.176 -0.8368 -1.9039 -0.7965
 4083SOL     MW16332   2.986   4.367   1.214 -0.1674 -0.9526  0.0655
 4084SOL     OW16333   2.179   4.126   5.330 -0.1500  0.4111 -0.3296
 4084SOL    HW116334   2.274   4.134   5.323 -0.3176  2.0112 -1.2656
 4084SOL    HW216335   2.163   4.108   5.422  1.0831 -0.3744 -0.2485
 4084SOL     MW16336   2.189   4.125   5.341 -0.0066  0.5207 -0.4447
 4085SOL     OW16337   0.884   4.408   3.904 -0.3272  0.0882 -0.0118
 4085SOL    HW116338   0.887   4.318   3.873 -0.6992 -0.0615  0.3742
 4085SOL    HW216339   0.883   4.461   3.824 -1.8096 -0.3004 -0.2778
 4085SOL     MW16340   0.884   4.403   3.889 -0.5768  0.0157  0.0043
 4086SOL     OW16341   3.472   3.869   0.081  0.1858  0.0918 -0.2473
 4086SOL    HW116342   3.458   3.906  -0.006  0.5683  0.4146 -0.1789
 4086SOL    HW216343   3.402   3.805   0.093  1.4208 -1.6519 -1.7211
 4086SOL     MW16344   3.461   3.865   0.071  0.4035 -0.0995 -0.4364
 4087SOL     OW16345   0.238   1.364   0.606 -0.0952  0.1476  0.2708
 4087SOL    HW116346   0.242   1.396   0.516  1.7636 -0.3467  0.1467
 4087SOL    HW216347   0.265   1.272   0.600  0.8859  0.3450  1.4436
 4087SOL     MW16348   0.242   1.356   0.593  0.2870  0.1077  0.4119
 4088SOL     OW16349   1.275   2.723   1.593 -0.1685  0.1404  0.4657
 4088SOL    HW116350   1.241   2.811   1.603 -0.2786  0.3947 -1.6523
 4088SOL    HW216351   1.219   2.669   1.649 -0.8519  1.2437  0.8771
 4088SOL     MW16352   1.263   2.727   1.602 -0.2753  0.3231  0.2360
 4089SOL     OW16353   4.460   5.202   0.823  0.5265 -0.4005  0.4623
 4089SOL    HW116354   4.468   5.287   0.778  1.5839 -0.5211  0.4041
 4089SOL    HW216355   4.450   5.225   0.915 -1.2274 -0.1652  0.2488
 4089SOL     MW16356   4.459   5.217   0.829  0.4328 -0.3851  0.4257
 4090SOL     OW16357   4.292   0.709   1.196 -0.2992  0.2765 -0.0014
 4090SOL    HW116358   4.215   0.763   1.177  0.0084  0.1237 -1.7874
 4090SOL    HW216359   4.258   0.621   1.208 -0.4599  0.3150 -0.1797
 4090SOL     MW16360   4.277   0.705   1.195 -0.2794  0.2611 -0.2657
 4091SOL     OW16361   1.556   5.436   1.461 -0.2169 -0.4136 -0.3297
 4091SOL    HW116362   1.573   5.506   1.524 -1.7369 -0.7621  0.5082
 4091SOL    HW216363   1.568   5.356   1.511 -0.4554 -0.7148 -0.7498
 4091SOL     MW16364   1.560   5.435   1.476 -0.4535 -0.5010 -0.2735
 4092SOL     OW16365   3.056   4.295   3.361 -0.0564  0.5043 -0.0082
 4092SOL    HW116366   2.982   4.313   3.419 -0.9557 -0.6006 -0.7651
 4092SOL    HW216367   3.016   4.262   3.280  1.3126 -1.8963  0.2035
 4092SOL     MW16368   3.041   4.293   3.358  0.0068  0.0326 -0.0816
 4093SOL     OW16369   0.127   1.067   2.089 -0.6151  0.6976  0.1674
 4093SOL    HW116370   0.142   0.973   2.103 -0.0968  0.9231  1.1383
 4093SOL    HW216371   0.039   1.083   2.123 -1.0548  0.4100 -0.7850
 4093SOL     MW16372   0.117   1.056   2.095 -0.6045  0.6892  0.1699
 4094SOL     OW16373   4.451   2.756   0.810 -0.4550 -0.4169  0.2999
 4094SOL    HW116374   4.375   2.710   0.774  0.4358 -0.9985 -0.8832
 4094SOL    HW216375   4.451   2.841   0.767  0.1072 -0.7832 -0.4425
 4094SOL     MW16376   4.441   2.761   0.800 -0.2595 -0.5445  0.0408
 4095SOL     OW16377   3.020   4.727   3.423  0.4230 -0.0430  0.2761
 4095SOL    HW116378   3.079   4.660   3.389  0.2043 -0.7792  1.2946
 4095SOL    HW216379   3.012   4.791   3.352  0.7480 -1.0217 -0.6650
 4095SOL     MW16380   3.027   4.727   3.409  0.4373 -0.2738  0.2865
 4096SOL     OW16381   3.339   1.885   4.544 -0.0390 -0.2096  0.1714
 4096SOL    HW116382   3.270   1.902   4.608 -1.5048  0.3691 -1.4701
 4096SOL    HW216383   3.308   1.927   4.463  2.3033  0.1742 -0.6188
 4096SOL     MW16384   3.326   1.893   4.542  0.0790 -0.0801 -0.1559
 4097SOL     OW16385   3.078   4.742   4.610 -0.3274 -0.1200  0.8536
 4097SOL    HW116386   3.130   4.813   4.572 -0.2390  0.5766  2.2392
 4097SOL    HW216387   3.011   4.723   4.543  0.0292  0.8346  0.2046
 4097SOL     MW16388   3.076   4.749   4.596 -0.2675  0.1022  0.9527
 4098SOL     OW16389   1.009   3.834   5.350  0.1753 -0.4465 -0.3064
 4098SOL    HW116390   1.019   3.925   5.379 -0.4625 -0.7040  0.8110
 4098SOL    HW216391   1.004   3.840   5.255  0.5039  0.6557 -0.2730
 4098SOL     MW16392   1.009   3.847   5.341  0.1337 -0.3328 -0.1515
 4099SOL     OW16393   3.481   0.858   2.056  0.0115  0.5301 -0.4214
 4099SOL    HW116394   3.420   0.806   2.004  0.7871 -0.1652 -0.6586
 4099SOL    HW216395   3.492   0.939   2.007 -2.6491  1.7998  0.8517
 4099SOL     MW16396   3.474   0.861   2.043 -0.2422  0.6074 -0.2820
 4100SOL     OW16397   4.256   1.938   2.888  0.1995  0.2406 -0.4221
 4100SOL    HW116398   4.312   2.006   2.850  1.5425 -0.4783  0.2210
 4100SOL    HW216399   4.179   1.986   2.920  1.8217  1.7703  1.5028
 4100SOL     MW16400   4.253   1.954   2.887  0.5985  0.3497 -0.0765
 4101SOL     OW16401   3.980   5.361   0.421  0.0390 -0.2715  0.0046
 4101SOL    HW116402   4.012   5.304   0.350 -1.2210 -0.0081 -0.8055
 4101SOL    HW216403   3.982   5.449   0.383  1.6062  0.2075  1.1219
 4101SOL     MW16404   3.985   5.365   0.406  0.0803 -0.1716  0.0460
 4102SOL     OW16405   4.119   4.289   2.150  0.4687  0.4956 -0.1944
 4102SOL    HW116406   4.052   4.333   2.097  0.2843  1.8288  1.0636
 4102SOL    HW216407   4.192   4.275   2.089 -0.2730  0.6551 -1.1478
 4102SOL     MW16408   4.120   4.293   2.135  0.3441  0.6965 -0.1534
 4103SOL     OW16409   2.809   3.371   3.430 -0.0680 -0.5297 -0.1990
 4103SOL    HW116410   2.787   3.295   3.484  0.7913 -0.4755  0.2506
 4103SOL    HW216411   2.904   3.379   3.438 -0.1579  0.6939 -0.0985
 4103SOL     MW16412   2.819   3.362   3.439  0.0356 -0.3577 -0.1250
 4104SOL     OW16413   1.599   1.178   4.460  0.2458 -0.1943  0.1906
 4104SOL    HW116414   1.659   1.177   4.386 -0.2416 -0.7493 -0.2114
 4104SOL    HW216415   1.520   1.222   4.427 -0.6720 -2.0272 -0.2206
 4104SOL     MW16416   1.596   1.184   4.446  0.0567 -0.5157  0.0811
 4105SOL     OW16417   0.203   3.411   2.888  0.0404  0.1926  0.1080
 4105SOL    HW116418   0.156   3.432   2.807 -0.7691  1.7825  0.9445
 4105SOL    HW216419   0.157   3.335   2.923 -1.2371  1.0431  0.3423
 4105SOL     MW16420   0.191   3.404   2.882 -0.2405  0.5210  0.2521
 4106SOL     OW16421   4.990   5.496   0.265 -0.2001  0.3441  0.0919
 4106SOL    HW116422   5.081   5.475   0.286 -0.3217  1.5488  2.0229
 4106SOL    HW216423   4.938   5.434   0.316 -0.4752  1.0808  0.7213
 4106SOL     MW16424   4.995   5.484   0.274 -0.2535  0.6054  0.4365
 4107SOL     OW16425   5.285   3.162   0.593 -0.1265  0.1640 -0.3131
 4107SOL    HW116426   5.270   3.231   0.658 -0.4159 -1.0495  0.9535
 4107SOL    HW216427   5.278   3.080   0.642  0.5141 -0.7782 -1.7141
 4107SOL     MW16428   5.282   3.160   0.608 -0.0793 -0.1261 -0.3312
 4108SOL     OW16429   3.629   2.602   3.057 -0.1627 -0.5971 -0.1528
 4108SOL    HW116430   3.667   2.517   3.039 -0.1370 -0.8592  1.0180
 4108SOL    HW216431   3.576   2.622   2.980  0.6506 -1.1915 -0.8790
 4108SOL     MW16432   3.627   2.593   3.044 -0.0498 -0.7124 -0.0930
 4109SOL     OW16433   3.957   1.859   1.617  0.2748 -0.3642 -0.2180
 4109SOL    HW116434   3.938   1.942   1.572  0.5368 -1.1127 -1.7978
 4109SOL    HW216435   4.010   1.884   1.693 -1.3928  1.0942  0.5080
 4109SOL     MW16436   3.962   1.874   1.621  0.0856 -0.2686 -0.3329
 4110SOL     OW16437   3.856   1.657   0.538  0.5632  0.0241 -0.1990
 4110SOL    HW116438   3.792   1.689   0.475  0.2913 -2.2470 -1.1791
 4110SOL    HW216439   3.940   1.695   0.510 -0.1507  2.3852  0.6327
 4110SOL     MW16440   3.859   1.666   0.526  0.4305  0.0362 -0.2190
 4111SOL     OW16441   5.335   3.796   2.445  0.2873  0.2331 -0.5118
 4111SOL    HW116442   5.283   3.824   2.370 -0.7517  1.6292  0.6742
 4111SOL    HW216443   5.277   3.739   2.495  0.4864  0.4150 -0.0661
 4111SOL     MW16444   5.320   3.792   2.442  0.1743  0.4455 -0.2922
 4112SOL     OW16445   4.920   4.654   3.564  0.2560  0.3548 -0.0253
 4112SOL    HW116446   4.982   4.584   3.585 -0.2458  0.1139  0.7102
 4112SOL    HW216447   4.876   4.624   3.484 -0.3776 -0.4769  0.6100
 4112SOL     MW16448   4.922   4.640   3.556  0.1032  0.2105  0.1592
 4113SOL     OW16449   4.373   2.821   1.895  0.5264  0.1027  0.2678
 4113SOL    HW116450   4.286   2.838   1.929  1.1538  0.6770  1.6760
 4113SOL    HW216451   4.377   2.726   1.886 -0.8635  0.1745 -1.6345
 4113SOL     MW16452   4.362   2.811   1.898  0.4238  0.1897  0.2013
 4114SOL     OW16453   0.090   4.737   0.574 -0.1092  0.3832 -0.4106
 4114SOL    HW116454   0.016   4.759   0.517 -2.5418 -2.0504  1.5139
 4114SOL    HW216455   0.116   4.649   0.546 -0.0007 -0.0124  0.8562
 4114SOL     MW16456   0.083   4.728   0.562 -0.4220  0.0024  0.0189
 4115SOL     OW16457   5.365   3.182   1.175  0.0799  0.0416  0.5168
 4115SOL    HW116458   5.352   3.268   1.135  1.4583  0.2179  0.3813
 4115SOL    HW216459   5.332   3.120   1.110  0.3341  0.4206  0.0168
 4115SOL     MW16460   5.359   3.185   1.161  0.2996  0.1163  0.4313
 4116SOL     OW16461   4.810   3.948   1.723  0.5655 -0.2291  0.1634
 4116SOL    HW116462   4.864   3.879   1.760  0.7805  0.3279  0.9267
 4116SOL    HW216463   4.729   3.946   1.775  0.3519 -0.2619 -0.1666
 4116SOL     MW16464   4.806   3.939   1.735  0.5657 -0.1585  0.2217
 4117SOL     OW16465   3.107   0.290   4.732 -0.4856  0.1931  0.4294
 4117SOL    HW116466   3.192   0.333   4.721 -1.5151  1.9672 -1.1233
 4117SOL    HW216467   3.127   0.210   4.781  2.0429  0.6260  0.2392
 4117SOL     MW16468   3.121   0.285   4.737 -0.2839  0.4901  0.1949
 4118SOL     OW16469   0.089   0.245   2.653  0.0340  0.4768 -0.4101
 4118SOL    HW116470   0.020   0.227   2.589 -0.2383 -1.1746  0.2882
 4118SOL    HW216471   0.088   0.340   2.663 -1.9508  0.5228 -0.6346
 4118SOL     MW16472   0.079   0.256   2.646 -0.2698  0.2608 -0.3463
 4119SOL     OW16473   0.657   3.946   5.252  0.5552  0.0535  0.1292
 4119SOL    HW116474   0.649   4.040   5.267  1.5757  0.8064 -3.2389
 4119SOL    HW216475   0.619   3.931   5.166  3.8184 -1.8795 -1.2003
 4119SOL     MW16476   0.651   3.956   5.243  1.1317 -0.1053 -0.5030
 4120SOL     OW16477   0.436   1.557   3.267  0.4303  0.7701 -0.0615
 4120SOL    HW116478   0.401   1.641   3.237  0.7494  1.0677  0.3860
 4120SOL    HW216479   0.469   1.575   3.355 -0.7174 -0.1415  0.5852
 4120SOL     MW16480   0.435   1.571   3.274  0.3188  0.6875  0.0858
 4121SOL     OW16481   3.699   2.368   4.741  0.3530 -0.0215 -0.3112
 4121SOL    HW116482   3.655   2.412   4.814 -1.2731  0.6805 -1.6461
 4121SOL    HW216483   3.754   2.436   4.702  0.1291  0.0059 -0.5816
 4121SOL     MW16484   3.701   2.383   4.746  0.1040  0.0767 -0.5273
 4122SOL     OW16485   0.087   5.084   4.163  0.0862 -0.4698  0.2897
 4122SOL    HW116486   0.034   5.030   4.104  0.8147  0.3294 -1.1287
 4122SOL    HW216487   0.149   5.022   4.202 -1.5087 -1.3309  1.6039
 4122SOL     MW16488   0.088   5.068   4.160 -0.0304 -0.4781  0.2757
 4123SOL     OW16489   2.898   0.925   4.786 -0.6247 -0.3010  0.0224
 4123SOL    HW116490   2.949   0.913   4.706  1.2294  1.0044  0.9485
 4123SOL    HW216491   2.807   0.921   4.757 -0.0140 -0.7869 -1.9876
 4123SOL     MW16492   2.892   0.923   4.771 -0.2930 -0.1907 -0.1235
 4124SOL     OW16493   2.555   1.950   3.678  0.1588  0.6167 -0.2317
 4124SOL    HW116494   2.590   2.039   3.677 -2.2566  1.6384 -0.2773
 4124SOL    HW216495   2.482   1.951   3.616 -1.1756 -0.8286  1.1900
 4124SOL     MW16496   2.550   1.962   3.670 -0.3459  0.5597 -0.0465
 4125SOL     OW16497   2.859   5.237   4.036  0.3476  0.1563 -0.0987
 4125SOL    HW116498   2.798   5.193   4.095  0.1529  0.1625 -0.2980
 4125SOL    HW216499   2.944   5.230   4.081  0.0004  1.2149  0.7557
 4125SOL     MW16500   2.862   5.230   4.050  0.2747  0.2996 -0.0105
 4126SOL     OW16501   3.291   3.276   4.705 -0.1979 -1.1211  0.1545
 4126SOL    HW116502   3.345   3.198   4.691  1.1631 -0.4362  1.3458
 4126SOL    HW216503   3.220   3.267   4.641  0.4386 -2.8490 -0.3854
 4126SOL     MW16504   3.288   3.264   4.694  0.0709 -1.2614  0.2422
 4127SOL     OW16505   0.607   3.064   0.840 -0.1055  0.5542 -0.1467
 4127SOL    HW116506   0.558   3.056   0.758 -1.0056 -0.1080  0.4387
 4127SOL    HW216507   0.544   3.040   0.908  0.8271  0.4141  0.6848
 4127SOL     MW16508   0.592   3.060   0.838 -0.1012  0.4462  0.0440
 4128SOL     OW16509   4.065   1.584   2.911  0.2921 -0.1819 -0.4861
 4128SOL    HW116510   4.002   1.523   2.873  0.4935 -0.2618 -0.6921
 4128SOL    HW216511   4.124   1.606   2.839  0.1485  0.3522 -0.4464
 4128SOL     MW16512   4.064   1.579   2.896  0.2999 -0.1208 -0.5085
 4129SOL     OW16513   0.733   3.138   1.876  0.0638  0.2395  0.1967
 4129SOL    HW116514   0.702   3.186   1.952 -1.5823 -0.6503  0.1315
 4129SOL    HW216515   0.756   3.052   1.910  0.8303  0.3377 -0.0589
 4129SOL     MW16516   0.732   3.133   1.891 -0.0546  0.1330  0.1535
 4130SOL     OW16517   3.178   1.457   1.998  0.7339  0.3178  0.2834
 4130SOL    HW116518   3.260   1.500   1.973 -0.1692  1.7763 -0.3279
 4130SOL    HW216519   3.138   1.518   2.060 -0.6380  0.4422 -0.6827
 4130SOL     MW16520   3.184   1.471   2.003  0.4277  0.5308  0.0711
 4131SOL     OW16521   2.844   5.515   0.092 -0.1707  0.3332 -0.0041
 4131SOL    HW116522   2.874   5.567   0.017 -1.0080 -1.0765 -1.3550
 4131SOL    HW216523   2.764   5.472   0.062  0.4751 -1.7483  1.0517
 4131SOL     MW16524   2.837   5.516   0.078 -0.1965 -0.1366 -0.0438
 4132SOL     OW16525   5.420   5.253   0.686  0.3402 -0.3739  0.3138
 4132SOL    HW116526   5.477   5.223   0.615 -0.4759 -0.7976 -0.1934
 4132SOL    HW216527   5.357   5.311   0.642  0.1331 -0.2419  0.7807
 4132SOL     MW16528   5.419   5.257   0.670  0.2025 -0.4132  0.3084
 4133SOL     OW16529   4.737   0.140   0.855 -0.1620 -0.1146  0.1054
 4133SOL    HW116530   4.671   0.074   0.836 -0.8971  0.7602 -0.4613
 4133SOL    HW216531   4.688   0.213   0.892  0.3506  0.8620 -1.0698
 4133SOL     MW16532   4.722   0.141   0.857 -0.1920  0.1346 -0.1291
 4134SOL     OW16533   0.894   4.378   3.027  0.0863  0.6277 -0.3874
 4134SOL    HW116534   0.963   4.407   2.967  0.7724 -1.0547 -0.4346
 4134SOL    HW216535   0.826   4.344   2.969 -0.0917  0.7934 -0.2771
 4134SOL     MW16536   0.894   4.378   3.011  0.1547  0.4236 -0.3789
 4135SOL     OW16537   1.670   4.681   4.420 -0.2763  0.3033  0.2453
 4135SOL    HW116538   1.748   4.630   4.397 -1.8466 -1.4643 -1.5499
 4135SOL    HW216539   1.676   4.760   4.367  1.0329  0.9868  1.3339
 4135SOL     MW16540   1.681   4.685   4.410 -0.3115  0.1574  0.1502
 4136SOL     OW16541   5.360   2.738   4.887 -0.3405  0.4548 -0.4592
 4136SOL    HW116542   5.445   2.718   4.849  0.0271  0.3755  0.3632
 4136SOL    HW216543   5.317   2.796   4.824 -0.5827 -1.2367 -1.9070
 4136SOL     MW16544   5.366   2.743   4.874 -0.3236  0.2165 -0.5434
 4137SOL     OW16545   2.931   0.008   3.021  0.2434  0.0546 -0.5127
 4137SOL    HW116546   2.837   0.000   3.032  0.3400  0.0170  0.3939
 4137SOL    HW216547   2.947   0.101   3.010  0.1509  0.1179 -0.1141
 4137SOL     MW16548   2.921   0.019   3.021  0.2439  0.0580 -0.3370
 4138SOL     OW16549   5.491   4.573   5.441 -0.9847  0.1895  0.0159
 4138SOL    HW116550   5.547   4.546   5.514 -0.2215  0.1840 -0.5701
 4138SOL    HW216551   5.430   4.499   5.430 -1.0861  0.1737  0.6120
 4138SOL     MW16552   5.490   4.559   5.450 -0.8956  0.1866  0.0172
 4139SOL     OW16553   1.727   0.717   3.569  0.0723 -0.0913 -0.3589
 4139SOL    HW116554   1.679   0.780   3.623  2.3300  0.6312  0.9393
 4139SOL    HW216555   1.767   0.771   3.500 -0.2865 -0.5577 -0.9398
 4139SOL     MW16556   1.726   0.733   3.567  0.3279 -0.0568 -0.2624
 4140SOL     OW16557   3.697   4.876   1.329  0.2323  0.0862  0.2018
 4140SOL    HW116558   3.630   4.840   1.387  0.1254  0.5814  0.3894
 4140SOL    HW216559   3.647   4.920   1.260  0.3305 -1.3713 -0.8625
 4140SOL     MW16560   3.681   4.877   1.327  0.2311 -0.0433  0.0838
 4141SOL     OW16561   5.260   1.695   0.105 -0.2096 -0.0609 -0.1650
 4141SOL    HW116562   5.346   1.661   0.080 -0.4766 -0.3204 -0.7503
 4141SOL    HW216563   5.201   1.663   0.037 -0.7378  0.2740  0.1296
 4141SOL     MW16564   5.264   1.686   0.092 -0.3166 -0.0507 -0.2041
 4142SOL     OW16565   1.781   0.413   1.549  0.1133  0.0460 -0.1228
 4142SOL    HW116566   1.783   0.426   1.644 -2.0335 -1.6733  0.2310
 4142SOL    HW216567   1.688   0.408   1.527  0.5770 -1.2471 -2.0515
 4142SOL     MW16568   1.769   0.414   1.559 -0.1132 -0.3594 -0.3347
 4143SOL     OW16569   4.844   0.424   1.821 -0.0320  0.2215 -0.2091
 4143SOL    HW116570   4.841   0.335   1.858  0.2827 -0.5531 -1.9663
 4143SOL    HW216571   4.832   0.481   1.897  0.2961 -1.2970  1.0495
 4143SOL     MW16572   4.842   0.420   1.836  0.0545 -0.0871 -0.2762
 4144SOL     OW16573   2.788   1.315   4.706  0.0306 -0.2952 -0.3428
 4144SOL    HW116574   2.855   1.324   4.774 -0.2433  0.6057 -0.1649
 4144SOL    HW216575   2.787   1.401   4.663 -0.9243 -0.3300 -0.4111
 4144SOL     MW16576   2.797   1.328   4.709 -0.1348 -0.1786 -0.3281
 4145SOL     OW16577  -0.004   0.504   3.017 -0.2841  0.5388 -0.1366
 4145SOL    HW116578   0.073   0.464   2.977 -0.5351 -0.0674 -0.0343
 4145SOL    HW216579   0.025   0.530   3.104 -0.7285 -1.6732  0.7439
 4145SOL     MW16580   0.010   0.502   3.023 -0.3777  0.1595 -0.0043
 4146SOL     OW16581   0.768   2.272   0.076  0.5187  0.3945 -0.0046
 4146SOL    HW116582   0.736   2.244   0.162 -0.5269  1.6364  0.0524
 4146SOL    HW216583   0.692   2.262   0.018  1.4410 -1.2329 -1.0114
 4146SOL     MW16584   0.753   2.267   0.080  0.5021  0.3426 -0.1324
 4147SOL     OW16585   4.178   3.934   2.869 -0.1677  0.3026 -0.0423
 4147SOL    HW116586   4.216   3.972   2.789  0.8501 -1.3069 -0.3688
 4147SOL    HW216587   4.253   3.898   2.916 -0.8591  0.5493  1.2816
 4147SOL     MW16588   4.193   3.935   2.864 -0.1238  0.1192  0.0919
 4148SOL     OW16589   0.301   3.615   0.850  0.1787  0.2473 -0.0388
 4148SOL    HW116590   0.283   3.578   0.936 -0.5903  0.5445 -0.0581
 4148SOL    HW216591   0.334   3.703   0.867  2.3259 -0.5250  0.0186
 4148SOL     MW16592   0.303   3.622   0.864  0.3641  0.1834 -0.0336
 4149SOL     OW16593   3.150   2.155   3.053  0.7154  0.1387 -0.1252
 4149SOL    HW116594   3.112   2.240   3.075  1.2038  0.0935  0.9466
 4149SOL    HW216595   3.243   2.173   3.041  0.4975  0.1603 -2.2522
 4149SOL     MW16596   3.157   2.169   3.054  0.7518  0.1355 -0.2672
 4150SOL     OW16597   3.853   1.958   0.260 -0.1038 -0.3415  0.0295
 4150SOL    HW116598   3.819   1.991   0.343  2.6951  0.7380  0.8921
 4150SOL    HW216599   3.822   1.868   0.254 -1.2020 -0.1103  1.7290
 4150SOL     MW16600   3.844   1.951   0.270  0.1251 -0.1651  0.3743
 4151SOL     OW16601   2.743   4.649   3.782  0.2832  0.0985 -0.4500
 4151SOL    HW116602   2.735   4.687   3.695 -1.8120  0.3540 -0.1915
 4151SOL    HW216603   2.699   4.564   3.775  0.2159  0.0641  0.3122
 4151SOL     MW16604   2.736   4.642   3.770 -0.0078  0.1283 -0.3127
 4152SOL     OW16605   0.125   1.180   1.057 -0.1181  0.7481  0.8972
 4152SOL    HW116606   0.139   1.114   1.125 -1.2526  0.3714  0.7824
 4152SOL    HW216607   0.040   1.159   1.020  0.3715  1.1043 -0.4874
 4152SOL     MW16608   0.116   1.168   1.061 -0.2049  0.7453  0.6954
 4153SOL     OW16609   1.845   3.913   4.392  0.2199  0.5776 -0.0774
 4153SOL    HW116610   1.816   3.989   4.342 -3.0291 -1.5768 -1.8352
 4153SOL    HW216611   1.928   3.888   4.351 -0.1826  1.4323 -1.4675
 4153SOL     MW16612   1.852   3.920   4.380 -0.2716  0.4027 -0.5011
 4154SOL     OW16613   5.054   0.428   5.511 -0.0100  0.0929  0.4163
 4154SOL    HW116614   4.959   0.434   5.509  0.0699  1.4103 -1.3919
 4154SOL    HW216615   5.073   0.344   5.470 -0.3731  0.9603 -1.6600
 4154SOL     MW16616   5.044   0.417   5.505 -0.0481  0.3869 -0.1065
 4155SOL     OW16617   4.784   1.787   1.253  0.2339 -0.2797 -0.1165
 4155SOL    HW116618   4.851   1.856   1.255 -1.4676  1.4568  1.7820
 4155SOL    HW216619   4.730   1.807   1.177 -0.1140  0.3675  0.2940
 4155SOL     MW16620   4.786   1.799   1.243 -0.0419  0.0411  0.1942
 4156SOL     OW16621   5.188   3.836   3.982  0.2029  0.2916  0.0816
 4156SOL    HW116622   5.161   3.847   3.891  0.6281  2.4560  0.1648
 4156SOL    HW216623   5.107   3.816   4.029  0.1743 -2.3540 -0.8943
 4156SOL     MW16624   5.173   3.835   3.976  0.2563  0.2269 -0.0385
 4157SOL     OW16625   1.971   1.973   1.744 -0.3887  0.1485  0.3036
 4157SOL    HW116626   2.050   1.990   1.795  0.1266 -0.3845 -0.2903
 4157SOL    HW216627   1.912   1.931   1.806 -0.1230  0.3450  0.6984
 4157SOL     MW16628   1.974   1.969   1.760 -0.2836  0.1032  0.2768
 4158SOL     OW16629   0.136   4.938   1.028  1.1751  0.5868  0.3447
 4158SOL    HW116630   0.072   4.916   0.960  0.1595  1.7963  0.8657
 4158SOL    HW216631   0.174   4.854   1.053 -0.0303 -0.1398 -0.1598
 4158SOL     MW16632   0.132   4.924   1.022  0.8762  0.6518  0.3469
 4159SOL     OW16633   3.633   0.468   4.409  0.1734  0.0798  0.1713
 4159SOL    HW116634   3.630   0.396   4.471 -1.0749 -1.0465 -1.1361
 4159SOL    HW216635   3.640   0.546   4.463 -0.8107 -0.8618  1.7215
 4159SOL     MW16636   3.634   0.469   4.424 -0.1270 -0.1985  0.2040
 4160SOL     OW16637   5.383   4.125   0.032  0.2666 -0.2259  0.1580
 4160SOL    HW116638   5.380   4.133   0.127  1.5480  0.4373  0.1587
 4160SOL    HW216639   5.471   4.153   0.007 -0.6918  1.6777 -1.4153
 4160SOL     MW16640   5.395   4.130   0.041  0.3101  0.1195 -0.0537
 4161SOL     OW16641   0.248   0.514   3.527  0.2222 -0.2807 -0.1581
 4161SOL    HW116642   0.274   0.425   3.549 -0.3105 -0.1878  0.9371
 4161SOL    HW216643   0.165   0.527   3.573 -0.3757  0.3479 -1.3617
 4161SOL     MW16644   0.240   0.504   3.536  0.0700 -0.1836 -0.1727
 4162SOL     OW16645   2.935   4.889   4.314  0.4992  0.0721  0.0424
 4162SOL    HW116646   2.958   4.937   4.234  0.3266  1.1237  0.6057
 4162SOL    HW216647   2.908   4.957   4.376 -0.5640 -0.8227  0.6031
 4162SOL     MW16648   2.934   4.904   4.312  0.3329  0.0932  0.1937
 4163SOL     OW16649   3.207   1.977   4.299  0.1473  0.7481  0.4045
 4163SOL    HW116650   3.113   1.957   4.297  0.0727  1.1418 -0.3350
 4163SOL    HW216651   3.211   2.071   4.316  0.3925  0.7964  0.0855
 4163SOL     MW16652   3.195   1.987   4.301  0.1703  0.8076  0.2620
 4164SOL     OW16653   4.519   5.246   4.336  0.4311 -0.3117 -0.4526
 4164SOL    HW116654   4.512   5.289   4.421 -0.3242  0.0300 -0.6702
 4164SOL    HW216655   4.539   5.317   4.275  2.0350 -0.7144 -0.4195
 4164SOL     MW16656   4.521   5.261   4.339  0.5453 -0.3199 -0.4774
 4165SOL     OW16657   0.195   3.009   4.918  0.0141  0.4254 -0.3559
 4165SOL    HW116658   0.274   2.970   4.954 -0.5703  1.1979  1.9678
 4165SOL    HW216659   0.226   3.066   4.847  1.1356 -1.8640 -1.8435
 4165SOL     MW16660   0.210   3.011   4.913  0.0864  0.2213 -0.2434
 4166SOL     OW16661   1.342   1.978   2.442 -0.2377  0.2899  0.0242
 4166SOL    HW116662   1.412   2.033   2.407 -1.7756  1.9677 -0.5797
 4166SOL    HW216663   1.306   1.934   2.365  0.5841 -1.1168  0.4259
 4166SOL     MW16664   1.347   1.980   2.427 -0.3340  0.3264 -0.0030
 4167SOL     OW16665   0.134   4.726   5.302 -0.8577 -0.7637  0.1781
 4167SOL    HW116666   0.166   4.677   5.226  0.1459  0.3696 -0.1554
 4167SOL    HW216667   0.066   4.670   5.339  1.7917 -3.5589  1.2223
 4167SOL     MW16668   0.129   4.712   5.296 -0.3661 -0.9874  0.2737
 4168SOL     OW16669   1.308   4.170   1.822  0.4909 -0.4342 -0.4799
 4168SOL    HW116670   1.260   4.151   1.741 -2.6463  1.0721  0.8487
 4168SOL    HW216671   1.361   4.247   1.800  0.7862 -0.8980 -1.4526
 4168SOL     MW16672   1.309   4.178   1.808  0.1084 -0.2939 -0.4320
 4169SOL     OW16673   2.798   2.596   5.102  0.4153  0.0871  0.7716
 4169SOL    HW116674   2.870   2.532   5.098 -0.9111 -1.4086 -2.4298
 4169SOL    HW216675   2.729   2.551   5.150  0.8645  0.8085  2.1692
 4169SOL     MW16676   2.799   2.581   5.108  0.2972 -0.0171  0.5288
 4170SOL     OW16677   0.999   3.838   5.075  0.1726 -0.3734 -0.0619
 4170SOL    HW116678   1.015   3.758   5.026 -0.3566  0.7607 -2.2051
 4170SOL    HW216679   0.941   3.890   5.020 -0.2894  1.1030  1.6848
 4170SOL     MW16680   0.994   3.834   5.061  0.0392 -0.0221 -0.1152
 4171SOL     OW16681   5.483   5.068   0.064 -0.2368 -0.0658  0.2105
 4171SOL    HW116682   5.476   4.996   0.001  0.9180  0.6219 -0.7316
 4171SOL    HW216683   5.549   5.126   0.027 -1.5670  1.8128  0.6385
 4171SOL     MW16684   5.491   5.066   0.050 -0.2604  0.2796  0.1413
 4172SOL     OW16685   0.568   0.182   1.250 -0.1135 -0.5378  0.4782
 4172SOL    HW116686   0.602   0.223   1.170 -0.8590  1.8773  1.3048
 4172SOL    HW216687   0.529   0.100   1.220  0.9018 -0.3969 -1.4017
 4172SOL     MW16688   0.568   0.176   1.235 -0.0772 -0.1938  0.3365
 4173SOL     OW16689   4.633   1.410   2.757 -0.6999  0.0647  0.5330
 4173SOL    HW116690   4.723   1.384   2.735 -1.1622 -0.2146 -1.1829
 4173SOL    HW216691   4.642   1.457   2.840  1.1867  1.0264 -0.1373
 4173SOL     MW16692   4.647   1.413   2.765 -0.5082  0.1565  0.2119
 4174SOL     OW16693   2.058   5.091   3.801 -0.3659 -0.1897  0.0079
 4174SOL    HW116694   1.996   5.018   3.798 -1.1259  0.3717  1.1701
 4174SOL    HW216695   2.012   5.159   3.850  0.7481  0.6707 -0.1015
 4174SOL     MW16696   2.043   5.090   3.807 -0.3182  0.0016  0.1496
 4175SOL     OW16697   4.419   1.749   1.314 -0.2740  0.6303  0.2140
 4175SOL    HW116698   4.336   1.780   1.278 -0.2388  0.8681  0.3358
 4175SOL    HW216699   4.455   1.692   1.246 -0.5782  0.4587  0.1966
 4175SOL     MW16700   4.413   1.745   1.300 -0.3102  0.6392  0.2281
 4176SOL     OW16701   4.608   0.251   1.780 -0.0839  0.0196 -0.1383
 4176SOL    HW116702   4.635   0.159   1.780  0.9773  0.3300 -0.0934
 4176SOL    HW216703   4.689   0.301   1.777 -0.6571  0.9601 -0.7282
 4176SOL     MW16704   4.622   0.245   1.779 -0.0182  0.1879 -0.2117
 4177SOL     OW16705   1.886   2.926   3.264 -0.1358 -0.5074  0.3441
 4177SOL    HW116706   1.849   3.004   3.305  0.6492 -0.0527  0.2156
 4177SOL    HW216707   1.811   2.870   3.245 -0.6284 -0.1346  1.1754
 4177SOL     MW16708   1.871   2.929   3.267 -0.0965 -0.3961  0.4387
 4178SOL     OW16709   3.317   3.157   4.186 -0.6722 -0.1598  0.5954
 4178SOL    HW116710   3.392   3.107   4.220 -0.0122  0.5491  0.2040
 4178SOL    HW216711   3.356   3.231   4.141 -1.5724 -0.4109 -0.6486
 4178SOL     MW16712   3.332   3.160   4.184 -0.7045 -0.0982  0.3753
 4179SOL     OW16713   4.825   1.977   1.553  0.3194 -0.0155  0.3904
 4179SOL    HW116714   4.797   1.992   1.644  1.8153  0.1664  0.8489
 4179SOL    HW216715   4.844   1.883   1.549 -1.9289 -0.4972 -0.4120
 4179SOL     MW16716   4.824   1.966   1.565  0.2182 -0.0559  0.3441
 4180SOL     OW16717   4.996   4.220   1.361  0.1709 -0.2977  0.0221
 4180SOL    HW116718   4.970   4.137   1.401 -2.3014  0.6643  0.5861
 4180SOL    HW216719   5.043   4.194   1.281  1.6304 -2.2038  1.3866
 4180SOL     MW16720   4.999   4.205   1.356  0.0346 -0.4248  0.2816
 4181SOL     OW16721   3.312   0.958   3.526  0.0003  0.0520 -0.0847
 4181SOL    HW116722   3.275   0.950   3.438  2.4343 -0.4602 -1.1490
 4181SOL    HW216723   3.240   0.990   3.580 -1.6633  0.0462 -2.1874
 4181SOL     MW16724   3.297   0.961   3.521  0.1040 -0.0177 -0.5109
 4182SOL     OW16725   4.786   4.465   1.121 -0.2878 -0.0342  0.1732
 4182SOL    HW116726   4.737   4.545   1.105 -2.2645 -1.2771 -0.4128
 4182SOL    HW216727   4.874   4.483   1.088  0.2799  2.8863  2.8455
 4182SOL     MW16728   4.791   4.478   1.114 -0.4774  0.1916  0.4540
 4183SOL     OW16729   3.355   2.484   1.310  0.2843  0.0846  0.2174
 4183SOL    HW116730   3.260   2.490   1.300  0.2217  0.6529  1.0389
 4183SOL    HW216731   3.374   2.532   1.390  1.2329 -0.3118  0.2504
 4183SOL     MW16732   3.345   2.491   1.319  0.4036  0.1077  0.3324
 4184SOL     OW16733   0.834   1.518   0.148 -0.7584  0.1358 -0.3375
 4184SOL    HW116734   0.825   1.431   0.109 -1.0287 -0.8848  1.8161
 4184SOL    HW216735   0.758   1.566   0.118 -0.4245 -0.2194 -1.8509
 4184SOL     MW16736   0.823   1.513   0.139 -0.7499 -0.0494 -0.2513
 4185SOL     OW16737   1.793   5.289   2.567 -0.2474  0.2976  0.1720
 4185SOL    HW116738   1.853   5.348   2.612  0.3018  0.9482 -1.3530
 4185SOL    HW216739   1.706   5.323   2.587 -0.1375 -0.5117  2.2022
 4185SOL     MW16740   1.789   5.302   2.575 -0.1587  0.2762  0.2400
 4186SOL     OW16741   5.217   5.462   3.869  0.0575  0.4314 -0.0028
 4186SOL    HW116742   5.299   5.444   3.822  0.7072  0.8095  0.9696
 4186SOL    HW216743   5.237   5.445   3.961 -0.7089  1.3791  0.3600
 4186SOL     MW16744   5.230   5.457   3.875  0.0418  0.6099  0.1769
 4187SOL     OW16745   0.744   2.883   4.160 -0.3214 -0.6439  0.1737
 4187SOL    HW116746   0.813   2.908   4.222  0.5218  0.8323 -1.3124
 4187SOL    HW216747   0.717   2.965   4.119 -1.8134 -1.4224 -0.4600
 4187SOL     MW16748   0.750   2.897   4.163 -0.4087 -0.5500 -0.1116
 4188SOL     OW16749   1.637   3.217   4.869  0.4381 -0.3070 -0.0177
 4188SOL    HW116750   1.703   3.200   4.802 -0.5101  1.3252 -1.4709
 4188SOL    HW216751   1.654   3.307   4.898 -2.0365  0.8300 -1.6763
 4188SOL     MW16752   1.648   3.227   4.864 -0.0226  0.0656 -0.4365
 4189SOL     OW16753   3.933   1.041   3.308 -0.2134 -0.1978  0.2892
 4189SOL    HW116754   3.912   1.066   3.218  1.9174  1.4613  0.1720
 4189SOL    HW216755   3.932   1.124   3.357 -0.9945 -1.0262  1.7451
 4189SOL     MW16756   3.930   1.056   3.303 -0.0318 -0.0860  0.4694
 4190SOL     OW16757   1.314   3.902   1.920 -0.0350  0.1375  0.3967
 4190SOL    HW116758   1.342   3.984   1.879  0.5559 -0.3382 -0.1734
 4190SOL    HW216759   1.295   3.844   1.846  2.5700 -1.2601  0.6976
 4190SOL     MW16760   1.315   3.905   1.904  0.3951 -0.1146  0.3605
 4191SOL     OW16761   2.496   2.328   1.582 -0.2035  0.5160 -0.6269
 4191SOL    HW116762   2.556   2.304   1.652 -0.0915 -1.2198 -1.2742
 4191SOL    HW216763   2.434   2.255   1.577 -0.9222  1.1623 -1.5564
 4191SOL     MW16764   2.496   2.315   1.590 -0.2852  0.3694 -0.8391
 4192SOL     OW16765   2.966   2.932   3.512  0.1740  0.2272 -0.4311
 4192SOL    HW116766   3.050   2.975   3.493  0.6010  0.0967  1.0628
 4192SOL    HW216767   2.901   3.002   3.503  0.5712  0.5919 -0.5100
 4192SOL     MW16768   2.968   2.948   3.508  0.2849  0.2587 -0.2407
 4193SOL     OW16769   3.557   2.010   4.251  0.3753 -0.3058 -0.5038
 4193SOL    HW116770   3.541   2.100   4.223  0.4921 -0.4503 -1.0581
 4193SOL    HW216771   3.509   1.957   4.188 -0.4592 -0.6084  0.3814
 4193SOL     MW16772   3.548   2.015   4.239  0.2787 -0.3660 -0.4593
 4194SOL     OW16773   2.751   3.439   2.001  0.3179 -0.2529  0.2858
 4194SOL    HW116774   2.748   3.446   2.097 -0.6453 -0.2772  0.2748
 4194SOL    HW216775   2.707   3.519   1.971 -1.1482 -1.1539 -0.0795
 4194SOL     MW16776   2.745   3.451   2.010 -0.0090 -0.3775  0.2352
 4195SOL     OW16777   0.264   3.966   2.418  0.2120  0.4336 -0.0349
 4195SOL    HW116778   0.275   3.872   2.433 -1.1319  0.5410  1.8143
 4195SOL    HW216779   0.187   3.991   2.468 -0.3899  2.2622 -1.7121
 4195SOL     MW16780   0.255   3.957   2.427 -0.0499  0.6941 -0.0118
 4196SOL     OW16781   3.609   3.401   2.601 -0.1321 -0.1782 -0.4712
 4196SOL    HW116782   3.520   3.392   2.568 -0.3344 -1.8021  0.4081
 4196SOL    HW216783   3.613   3.490   2.636 -2.1035 -0.6853  1.2923
 4196SOL     MW16784   3.598   3.411   2.602 -0.4247 -0.4650 -0.1156
 4197SOL     OW16785   0.705   3.105   4.721  0.4533  0.5021 -0.3821
 4197SOL    HW116786   0.754   3.041   4.670  3.1312  0.6725  1.7564
 4197SOL    HW216787   0.741   3.190   4.695  2.2522  0.5657  1.9607
 4197SOL     MW16788   0.716   3.108   4.711  1.0558  0.5336  0.2210
 4198SOL     OW16789   3.722   1.243   2.061  0.7862  0.0494  0.4046
 4198SOL    HW116790   3.781   1.277   1.994  0.6029  1.6599  1.0097
 4198SOL    HW216791   3.684   1.321   2.101 -1.5108 -0.9346  0.2714
 4198SOL     MW16792   3.725   1.258   2.057  0.4524  0.1337  0.4681
 4199SOL     OW16793   4.675   0.301   2.136 -0.1432 -0.1723  0.2523
 4199SOL    HW116794   4.757   0.262   2.108 -0.2052  0.6545 -1.1704
 4199SOL    HW216795   4.692   0.332   2.225  0.8146 -0.7481  0.2830
 4199SOL     MW16796   4.688   0.300   2.144 -0.0226 -0.1386  0.0650
 4200SOL     OW16797   0.466   1.201   1.818  0.3999 -0.3484 -0.0937
 4200SOL    HW116798   0.490   1.108   1.820  0.0877 -0.4817  3.0101
 4200SOL    HW216799   0.371   1.201   1.830  0.4605  0.3552  0.4307
 4200SOL     MW16800   0.457   1.188   1.820  0.3661 -0.2716  0.3946
 4201SOL     OW16801   4.474   0.619   0.995  0.0361  0.1869 -0.2819
 4201SOL    HW116802   4.417   0.654   1.063 -0.3788  0.3524 -0.7129
 4201SOL    HW216803   4.509   0.697   0.951  2.7089  0.2144  1.6633
 4201SOL     MW16804   4.471   0.634   0.998  0.3400  0.2129 -0.0781
 4202SOL     OW16805   4.216   1.209   0.272 -0.9353  0.1480 -0.2224
 4202SOL    HW116806   4.148   1.149   0.305 -0.9615 -0.3738 -1.1850
 4202SOL    HW216807   4.169   1.268   0.213 -0.8496  0.9213  0.4673
 4202SOL     MW16808   4.200   1.209   0.269 -0.9273  0.1818 -0.2592
 4203SOL     OW16809   2.862   2.966   0.036 -0.2454 -0.0075 -0.0573
 4203SOL    HW116810   2.856   2.989   0.129  0.0547  1.1874 -0.3121
 4203SOL    HW216811   2.777   2.930   0.014 -1.0236  1.5774  0.2146
 4203SOL     MW16812   2.850   2.964   0.046 -0.3097  0.3666 -0.0550
 4204SOL     OW16813   1.629   2.573   2.447 -0.5821  0.5147  0.2857
 4204SOL    HW116814   1.582   2.491   2.428 -0.6469  1.0612 -2.1593
 4204SOL    HW216815   1.591   2.637   2.388  0.6103  1.9401  1.0050
 4204SOL     MW16816   1.618   2.570   2.437 -0.4304  0.7801  0.0534
 4205SOL     OW16817   5.245   0.147   4.281  0.3624  0.3959  0.5858
 4205SOL    HW116818   5.152   0.168   4.277  0.3040  0.1669  0.7339
 4205SOL    HW216819   5.276   0.191   4.360  0.1729 -0.3343  1.0720
 4205SOL     MW16820   5.237   0.156   4.291  0.3290  0.2668  0.6711
 4206SOL     OW16821   2.128   3.048   2.869  0.0750 -0.8080 -0.1654
 4206SOL    HW116822   2.190   2.991   2.914 -0.7470 -1.1764  0.5334
 4206SOL    HW216823   2.042   3.013   2.893 -0.4404  0.5754  0.0991
 4206SOL     MW16824   2.125   3.036   2.878 -0.1050 -0.6714 -0.0358
 4207SOL     OW16825   2.391   0.896   2.504 -0.0799 -0.2246 -0.2462
 4207SOL    HW116826   2.366   0.972   2.558  1.2559  0.4114 -0.4864
 4207SOL    HW216827   2.430   0.835   2.566 -0.2286 -0.2838 -0.2104
 4207SOL     MW16828   2.393   0.898   2.520  0.0798 -0.1470 -0.2737
 4208SOL     OW16829   5.354   3.867   1.973 -0.2600  0.5263 -0.2370
 4208SOL    HW116830   5.313   3.893   2.056  0.8976  2.5784 -0.2501
 4208SOL    HW216831   5.292   3.805   1.935 -1.8138  1.0864  1.2137
 4208SOL     MW16832   5.340   3.862   1.979 -0.3133  0.8778 -0.0436
 4209SOL     OW16833   3.225   1.200   3.089  0.4445  0.1438  0.0838
 4209SOL    HW116834   3.317   1.174   3.084  0.6541  1.0507 -1.6544
 4209SOL    HW216835   3.227   1.294   3.106 -0.1726  0.0791  0.5481
 4209SOL     MW16836   3.238   1.209   3.090  0.3896  0.2572 -0.0877
 4210SOL     OW16837   2.109   2.995   0.841 -0.0589 -0.0697  0.3455
 4210SOL    HW116838   2.132   3.066   0.901  0.8479  0.6469 -0.8206
 4210SOL    HW216839   2.179   2.994   0.776 -0.6056 -1.3549 -0.2669
 4210SOL     MW16840   2.121   3.004   0.840 -0.0104 -0.1462  0.1062
 4211SOL     OW16841   2.062   0.068   1.026  0.0748  0.3940  0.2911
 4211SOL    HW116842   1.994   0.101   0.969  1.6290 -0.1966 -2.0256
 4211SOL    HW216843   2.026  -0.013   1.063 -0.6562  0.3655 -0.4778
 4211SOL     MW16844   2.048   0.061   1.024  0.1856  0.3107 -0.1242
 4212SOL     OW16845   0.870   0.144   2.732  0.1952 -0.0589 -0.5768
 4212SOL    HW116846   0.904   0.225   2.768  2.3942 -1.0638 -0.2367
 4212SOL    HW216847   0.810   0.111   2.800 -0.3541  1.0187 -0.5218
 4212SOL     MW16848   0.867   0.150   2.746  0.4173 -0.0492 -0.5236
 4213SOL     OW16849   3.586   4.674   3.050  0.0472  0.1827 -0.1939
 4213SOL    HW116850   3.661   4.646   3.104 -0.3089 -0.5529 -0.0721
 4213SOL    HW216851   3.553   4.752   3.095 -0.0736 -0.2594  0.5043
 4213SOL     MW16852   3.592   4.681   3.063 -0.0169  0.0242 -0.0835
 4214SOL     OW16853   3.528   4.529   1.886 -0.3434 -0.0384  0.0245
 4214SOL    HW116854   3.568   4.599   1.937  0.1331 -1.3915  1.6451
 4214SOL    HW216855   3.434   4.546   1.892 -0.1742  1.9450 -1.9515
 4214SOL     MW16856   3.521   4.540   1.894 -0.2565  0.0464 -0.0233
 4215SOL     OW16857   1.995   1.033   1.345  0.7872  0.4819 -0.5406
 4215SOL    HW116858   1.962   1.113   1.386 -0.3756  0.4617 -1.3622
 4215SOL    HW216859   1.916   0.988   1.316  1.3872 -1.2377  0.3753
 4215SOL     MW16860   1.980   1.038   1.347  0.7114  0.2478 -0.5279
 4216SOL     OW16861   2.627   2.068   3.987  0.2293  0.2316  1.0552
 4216SOL    HW116862   2.563   2.024   3.932 -0.5986  1.4512  1.0096
 4216SOL    HW216863   2.590   2.155   4.003  0.0434 -0.2815  4.1394
 4216SOL     MW16864   2.614   2.074   3.982  0.0929  0.3267  1.4642
 4217SOL     OW16865   3.434   1.528   1.937 -0.4870 -0.0094 -0.4716
 4217SOL    HW116866   3.512   1.493   1.979 -1.2302 -1.1948 -0.0350
 4217SOL    HW216867   3.466   1.598   1.880  1.0966 -1.5891 -1.6136
 4217SOL     MW16868   3.448   1.533   1.935 -0.3739 -0.3815 -0.5666
 4218SOL     OW16869   0.103   2.648   1.130  0.3492 -0.0410  0.0063
 4218SOL    HW116870   0.074   2.568   1.088  0.2770 -0.6750  1.2201
 4218SOL    HW216871   0.023   2.699   1.142  0.4708  0.5002 -1.2947
 4218SOL     MW16872   0.088   2.644   1.126  0.3558 -0.0535 -0.0054
 4219SOL     OW16873   4.095   1.933   1.868  0.2189 -0.1046  0.6279
 4219SOL    HW116874   4.090   1.960   1.960  0.3893  2.4825 -0.0471
 4219SOL    HW216875   4.164   1.867   1.866  0.0756 -0.3571  2.3826
 4219SOL     MW16876   4.103   1.928   1.880  0.2225  0.2096  0.7732
 4220SOL     OW16877   5.059   4.503   5.091  0.1625  0.1331 -0.1583
 4220SOL    HW116878   5.111   4.425   5.113  1.0411  1.1775  1.6323
 4220SOL    HW216879   5.066   4.559   5.168 -3.9830  0.1793  0.3875
 4220SOL     MW16880   5.067   4.500   5.104 -0.2772  0.2799  0.1562
 4221SOL     OW16881   0.951   4.364   1.547  0.1303  0.1447  0.4872
 4221SOL    HW116882   0.884   4.430   1.531  0.8042  0.7228 -0.0287
 4221SOL    HW216883   1.032   4.414   1.559  1.2198 -0.6002 -2.7364
 4221SOL     MW16884   0.953   4.379   1.546  0.3676  0.1223 -0.0161
 4222SOL     OW16885   0.033   0.036   3.978  0.0611 -0.1154  0.7264
 4222SOL    HW116886   0.102   0.028   4.044  0.1617  0.8999  0.7556
 4222SOL    HW216887  -0.049   0.031   4.027  0.1338  1.6949  1.0945
 4222SOL     MW16888   0.031   0.034   3.993  0.0844  0.2648  0.7799
 4223SOL     OW16889   1.798   1.778   4.334 -0.6788 -0.6685  0.1488
 4223SOL    HW116890   1.845   1.796   4.415  1.1356 -2.6562 -0.3891
 4223SOL    HW216891   1.795   1.683   4.328 -2.8747 -0.5907 -0.9797
 4223SOL     MW16892   1.804   1.768   4.344 -0.7302 -0.9255 -0.0755
 4224SOL     OW16893   4.873   4.868   5.335  0.0794  0.8335  0.2075
 4224SOL    HW116894   4.921   4.791   5.304 -0.7355  0.8033 -1.0388
 4224SOL    HW216895   4.835   4.841   5.418 -0.6801 -0.3231 -0.5008
 4224SOL     MW16896   4.874   4.854   5.342 -0.1325  0.6738 -0.0555
 4225SOL     OW16897   0.739   1.297   5.504 -0.1551  0.3599  0.0109
 4225SOL    HW116898   0.647   1.277   5.490  0.3138 -0.5278 -2.2714
 4225SOL    HW216899   0.764   1.350   5.428  1.2110  0.6019  0.5965
 4225SOL     MW16900   0.730   1.302   5.492  0.0919  0.2730 -0.2175
 4226SOL     OW16901   0.400   4.316   2.620  0.2205  0.3072 -0.2933
 4226SOL    HW116902   0.476   4.350   2.667  0.1449 -0.8476  0.6954
 4226SOL    HW216903   0.327   4.326   2.681 -0.1302 -0.0054 -0.6539
 4226SOL     MW16904   0.400   4.322   2.635  0.1631  0.1097 -0.2088
 4227SOL     OW16905   2.181   3.938   1.041 -0.2454 -0.9357 -0.2172
 4227SOL    HW116906   2.212   3.926   0.951 -1.0617 -0.3209 -0.5848
 4227SOL    HW216907   2.207   4.027   1.064 -1.8129 -0.3612 -0.5750
 4227SOL     MW16908   2.189   3.948   1.032 -0.5662 -0.7756 -0.3148
 4228SOL     OW16909   5.518   5.115   1.229  0.2304  0.4541 -0.5984
 4228SOL    HW116910   5.428   5.092   1.207  0.0657 -0.2940  0.7564
 4228SOL    HW216911   5.569   5.090   1.152 -0.6276  0.1935 -1.0910
 4228SOL     MW16912   5.513   5.108   1.216  0.0928  0.3184 -0.4823
 4229SOL     OW16913   2.026   2.547   3.481  0.7465  0.4784  0.1403
 4229SOL    HW116914   2.043   2.512   3.393  0.7376  1.2464 -0.1787
 4229SOL    HW216915   2.087   2.500   3.537 -0.8926 -1.7856  0.1473
 4229SOL     MW16916   2.036   2.536   3.476  0.5247  0.2770  0.0983
 4230SOL     OW16917   2.221   1.493   1.987  0.6758 -0.2241 -0.4808
 4230SOL    HW116918   2.239   1.401   1.966  0.5354 -0.3974  0.1444
 4230SOL    HW216919   2.175   1.490   2.071  2.9687  0.5604  0.8898
 4230SOL     MW16920   2.217   1.480   1.995  0.9655 -0.1418 -0.2122
 4231SOL     OW16921   3.610   3.069   5.141 -0.6019 -0.4961  0.1741
 4231SOL    HW116922   3.622   2.986   5.187  0.0919 -0.3405  0.2805
 4231SOL    HW216923   3.693   3.115   5.151 -0.6961 -0.1418 -0.5955
 4231SOL     MW16924   3.623   3.064   5.148 -0.5212 -0.4275  0.0849
 4232SOL     OW16925   4.708   4.183   3.360  0.8188 -0.5850  0.2794
 4232SOL    HW116926   4.663   4.111   3.317  0.4143 -0.2510  0.1396
 4232SOL    HW216927   4.650   4.209   3.432 -0.1519  1.0694 -1.0156
 4232SOL     MW16928   4.694   4.177   3.364  0.6338 -0.3174  0.0863
 4233SOL     OW16929   0.487   0.502   3.813  0.0586  0.3469  0.6911
 4233SOL    HW116930   0.530   0.554   3.881 -1.0059  0.8902  0.9722
 4233SOL    HW216931   0.534   0.419   3.813  0.6691  0.6792  1.4570
 4233SOL     MW16932   0.499   0.498   3.822 -0.0025  0.4647  0.8320
 4234SOL     OW16933   0.093   0.512   3.267  0.0634  0.0628  0.1390
 4234SOL    HW116934   0.147   0.462   3.329  1.0976  0.1941 -0.6297
 4234SOL    HW216935   0.088   0.599   3.305 -1.9402 -0.6220  1.6053
 4234SOL     MW16936   0.100   0.517   3.281 -0.0671 -0.0117  0.2329
 4235SOL     OW16937   2.301   2.874   3.255 -0.3270 -0.0744 -0.5400
 4235SOL    HW116938   2.233   2.849   3.318 -0.4303  1.2815 -0.0756
 4235SOL    HW216939   2.376   2.820   3.279 -0.0956  0.9585  1.3391
 4235SOL     MW16940   2.302   2.864   3.267 -0.3097  0.2471 -0.2246
 4236SOL     OW16941   2.137   3.818   2.247 -0.1609 -0.4069 -0.0322
 4236SOL    HW116942   2.157   3.858   2.162 -1.7797 -0.1823 -0.3515
 4236SOL    HW216943   2.105   3.730   2.226  3.0907 -1.8859  0.6522
 4236SOL     MW16944   2.135   3.812   2.233  0.0588 -0.5757  0.0169
 4237SOL     OW16945   3.317   2.436   5.298  0.3652  0.2608  0.1070
 4237SOL    HW116946   3.371   2.390   5.362  1.1296 -0.0153 -0.7157
 4237SOL    HW216947   3.369   2.512   5.273 -0.4926  1.0943  0.7623
 4237SOL     MW16948   3.332   2.440   5.303  0.3526  0.3359  0.0844
 4238SOL     OW16949   3.986   1.809   3.043 -0.3307 -0.1336 -0.0763
 4238SOL    HW116950   3.891   1.796   3.053 -0.1115 -1.9647 -0.1638
 4238SOL    HW216951   4.016   1.732   2.995  1.3462 -0.0095  0.7094
 4238SOL     MW16952   3.977   1.797   3.038 -0.0755 -0.3634  0.0177
 4239SOL     OW16953   2.881   5.507   3.718 -0.2550  0.1754 -0.1033
 4239SOL    HW116954   2.904   5.420   3.688  1.3037  0.9401 -1.2432
 4239SOL    HW216955   2.954   5.534   3.774 -2.1737 -0.4349  2.9230
 4239SOL     MW16956   2.894   5.499   3.722 -0.3035  0.1962  0.1505
 4240SOL     OW16957   4.119   1.109   0.867  0.1891  0.2412 -0.0340
 4240SOL    HW116958   4.187   1.049   0.897 -0.3063  0.0263  0.6775
 4240SOL    HW216959   4.167   1.185   0.835  0.8472 -0.6251 -1.2184
 4240SOL     MW16960   4.135   1.111   0.867  0.2110  0.0957 -0.0976
 4241SOL     OW16961   1.631   3.894   4.934 -0.0319  0.0903  0.1213
 4241SOL    HW116962   1.626   3.816   4.878  0.5512 -0.5904  0.9994
 4241SOL    HW216963   1.720   3.893   4.969 -0.2908  0.6785  0.8131
 4241SOL     MW16964   1.642   3.883   4.931  0.0118  0.0778  0.3326
 4242SOL     OW16965   3.881   2.174   2.182 -0.1008 -0.1159 -0.3575
 4242SOL    HW116966   3.895   2.230   2.258 -0.5242  1.7962 -1.6114
 4242SOL    HW216967   3.965   2.130   2.169 -0.0801 -0.6293  1.2915
 4242SOL     MW16968   3.894   2.175   2.190 -0.1550  0.0724 -0.3043
 4243SOL     OW16969   0.098   2.679   4.732  0.4365  0.2239 -0.2897
 4243SOL    HW116970   0.168   2.701   4.793  1.2727 -0.1910 -1.0770
 4243SOL    HW216971   0.093   2.583   4.735 -0.4517  0.2735  0.1374
 4243SOL     MW16972   0.107   2.669   4.741  0.4295  0.1748 -0.3382
 4244SOL     OW16973   0.156   3.342   0.205 -0.4097 -0.4229 -0.0299
 4244SOL    HW116974   0.222   3.329   0.273 -0.9100  0.6160  0.6858
 4244SOL    HW216975   0.073   3.318   0.246 -0.6056 -0.7518 -0.5989
 4244SOL     MW16976   0.154   3.337   0.219 -0.5034 -0.3273 -0.0102
 4245SOL     OW16977   3.240   5.032   2.808  0.0307  0.5502  0.2026
 4245SOL    HW116978   3.247   5.127   2.817 -0.7000  0.4377  2.3813
 4245SOL    HW216979   3.150   5.017   2.780 -0.2036  0.4462  1.0016
 4245SOL     MW16980   3.229   5.043   2.805 -0.0992  0.5210  0.6034
 4246SOL     OW16981   1.219   2.781   0.021  0.0443  0.2420  0.1718
 4246SOL    HW116982   1.293   2.721   0.035  0.7447  1.4022  1.7261
 4246SOL    HW216983   1.252   2.866   0.049 -1.5896  0.9593 -0.0190
 4246SOL     MW16984   1.234   2.784   0.027 -0.0813  0.4946  0.3553
 4247SOL     OW16985   0.478   2.487   1.041  0.5620  0.3404 -0.0552
 4247SOL    HW116986   0.549   2.431   1.071 -0.0471  0.1502  1.1150
 4247SOL    HW216987   0.435   2.438   0.972  0.8819 -0.0337  0.0122
 4247SOL     MW16988   0.482   2.473   1.036  0.5231  0.2645  0.1113
 4248SOL     OW16989   1.552   4.680   1.803 -0.4300 -0.3383  0.2716
 4248SOL    HW116990   1.536   4.730   1.883 -0.0505 -0.5671  0.4945
 4248SOL    HW216991   1.516   4.734   1.732  1.1114  0.8421  0.3607
 4248SOL     MW16992   1.545   4.694   1.804 -0.1714 -0.2102  0.3136
 4249SOL     OW16993   1.095   1.379   3.074  0.2112  0.0885 -0.1446
 4249SOL    HW116994   1.044   1.337   3.143 -0.8250  1.5174  0.0173
 4249SOL    HW216995   1.120   1.308   3.015 -0.0167 -0.9644  0.9946
 4249SOL     MW16996   1.091   1.364   3.075  0.0411  0.1391  0.0305
 4250SOL     OW16997   4.017   1.229   2.814 -0.1778 -0.7886  0.3679
 4250SOL    HW116998   3.963   1.305   2.791  2.0459  1.3877  1.8561
 4250SOL    HW216999   3.982   1.200   2.898 -1.2862 -1.7227 -0.3903
 4250SOL     MW17000   4.005   1.236   2.822 -0.0277 -0.6214  0.4661
 4251SOL     OW17001   0.288   3.699   2.445  0.1331 -0.0537 -0.3508
 4251SOL    HW117002   0.206   3.652   2.463  1.6347 -1.9164  2.3098
 4251SOL    HW217003   0.335   3.644   2.383 -0.4889  0.9404 -1.7592
 4251SOL     MW17004   0.283   3.685   2.439  0.2514 -0.1706 -0.1822
 4252SOL     OW17005   1.766   2.300   4.934 -0.0205 -0.4399 -0.3567
 4252SOL    HW117006   1.716   2.357   4.993 -0.2464  0.1073 -1.0684
 4252SOL    HW217007   1.700   2.261   4.876  0.2724 -0.4621 -0.6758
 4252SOL     MW17008   1.750   2.302   4.934 -0.0115 -0.3692 -0.4954
 4253SOL     OW17009   4.836   0.810   2.647 -0.2933 -0.0607 -0.5198
 4253SOL    HW117010   4.755   0.858   2.664 -0.6751 -0.5317 -0.9938
 4253SOL    HW217011   4.860   0.774   2.733 -1.5019 -1.3197 -0.6597
 4253SOL     MW17012   4.828   0.811   2.661 -0.5074 -0.2935 -0.6024
 4254SOL     OW17013   0.105   0.998   0.505  0.4397  0.5145 -0.4830
 4254SOL    HW117014   0.052   1.005   0.585 -1.4543  0.7469 -1.6936
 4254SOL    HW217015   0.077   0.916   0.464  1.2024  0.5294 -1.0630
 4254SOL     MW17016   0.094   0.988   0.510  0.2875  0.5478 -0.7240
 4255SOL     OW17017   1.405   0.813   4.230  0.3132  0.8311 -0.3674
 4255SOL    HW117018   1.421   0.907   4.226  1.3252  0.7055  0.3415
 4255SOL    HW217019   1.332   0.803   4.291  0.2693  1.1554 -0.3692
 4255SOL     MW17020   1.397   0.824   4.237  0.4435  0.8579 -0.2723
 4256SOL     OW17021   3.193   5.486   4.144  0.3320  0.3826 -0.4365
 4256SOL    HW117022   3.283   5.482   4.114  0.0554 -1.7797 -1.0996
 4256SOL    HW217023   3.163   5.395   4.144 -1.5122  0.9365  0.8208
 4256SOL     MW17024   3.201   5.473   4.140  0.0466  0.1661 -0.3565
 4257SOL     OW17025   2.063   2.391   1.507 -0.0728  0.0766  0.2765
 4257SOL    HW117026   1.975   2.355   1.515 -0.1530  0.1850 -0.1030
 4257SOL    HW217027   2.120   2.314   1.506 -0.0785  0.0339  1.4407
 4257SOL     MW17028   2.059   2.376   1.508 -0.0843  0.0854  0.3821
 4258SOL     OW17029   3.466   5.199   5.009  0.2077  0.4538  0.4067
 4258SOL    HW117030   3.530   5.198   5.081  0.4522  1.0096  0.1972
 4258SOL    HW217031   3.464   5.108   4.978  0.2559  0.2554  0.9762
 4258SOL     MW17032   3.474   5.186   5.014  0.2471  0.5019  0.4551
 4259SOL     OW17033   3.928   2.814   5.338 -0.1795 -0.3230  0.0181
 4259SOL    HW117034   3.938   2.905   5.365 -1.1965 -0.2891  0.3427
 4259SOL    HW217035   3.944   2.763   5.418 -2.4370 -0.2607  0.5816
 4259SOL     MW17036   3.931   2.819   5.352 -0.6202 -0.3101  0.1376
 4260SOL     OW17037   2.231   4.843   5.292 -0.0575 -0.3649 -0.2530
 4260SOL    HW117038   2.326   4.856   5.294  0.0645  0.5286 -3.9340
 4260SOL    HW217039   2.195   4.930   5.308 -0.3523 -0.8399  1.8838
 4260SOL     MW17040   2.239   4.857   5.295 -0.0807 -0.3086 -0.4608
 4261SOL     OW17041   1.394   0.023   5.472 -0.0253 -0.7402 -0.7395
 4261SOL    HW117042   1.413   0.111   5.439 -0.3758 -0.3437  0.1037
 4261SOL    HW217043   1.393  -0.032   5.393  0.4643 -0.0462 -1.2438
 4261SOL     MW17044   1.397   0.028   5.457 -0.0066 -0.5934 -0.6939
 4262SOL     OW17045   2.657   3.754   3.237  0.7808  0.1822 -0.0205
 4262SOL    HW117046   2.674   3.739   3.330 -0.8510  1.8775  0.6204
 4262SOL    HW217047   2.696   3.679   3.193  0.2539 -1.4651  2.1537
 4262SOL     MW17048   2.665   3.742   3.244  0.4903  0.1887  0.3584
 4263SOL     OW17049   1.171   4.442   0.718  0.0014 -0.1399 -0.0107
 4263SOL    HW117050   1.222   4.381   0.771 -1.3870 -0.4334  1.0522
 4263SOL    HW217051   1.122   4.494   0.781 -0.1363  0.9280 -0.9612
 4263SOL     MW17052   1.171   4.441   0.733 -0.2040 -0.0357  0.0044
 4264SOL     OW17053   3.499   0.621   2.412 -0.1518 -0.3783  0.2200
 4264SOL    HW117054   3.572   0.670   2.372 -0.7189  0.3732  0.0865
 4264SOL    HW217055   3.500   0.648   2.504 -1.0612  0.6512 -0.0517
 4264SOL     MW17056   3.509   0.631   2.419 -0.3505 -0.1386  0.1655
 4265SOL     OW17057   5.311   0.366   4.113  0.4141 -0.1626  0.3230
 4265SOL    HW117058   5.305   0.305   4.186  1.0602 -0.6409 -0.0126
 4265SOL    HW217059   5.405   0.382   4.103  0.3416 -0.1954 -0.4722
 4265SOL     MW17060   5.323   0.360   4.121  0.4913 -0.2314  0.1708
 4266SOL     OW17061   4.764   4.910   4.438  0.3138 -0.1960 -0.1904
 4266SOL    HW117062   4.711   4.841   4.476 -0.1697  0.3324  0.1058
 4266SOL    HW217063   4.804   4.870   4.361 -1.2551 -0.3379 -0.9665
 4266SOL     MW17064   4.762   4.895   4.433  0.0376 -0.1440 -0.2550
 4267SOL     OW17065   1.166   4.501   3.965 -0.2965  0.1167  0.0435
 4267SOL    HW117066   1.079   4.470   3.939 -0.0894 -0.7257  0.3159
 4267SOL    HW217067   1.209   4.424   4.003  0.2435  0.7458  0.7500
 4267SOL     MW17068   1.160   4.486   3.966 -0.1959  0.0880  0.1753
 4268SOL     OW17069   1.257   2.365   1.719  0.1572 -0.5260 -0.4374
 4268SOL    HW117070   1.326   2.379   1.784 -0.7023  0.1635  0.3598
 4268SOL    HW217071   1.301   2.370   1.635  1.2037 -0.8623  0.0783
 4268SOL     MW17072   1.272   2.367   1.716  0.1824 -0.4784 -0.2607
 4269SOL     OW17073   3.986   2.608   5.145  0.2552  0.3459 -0.1664
 4269SOL    HW117074   3.974   2.651   5.060 -1.2097 -0.5981 -0.4766
 4269SOL    HW217075   3.965   2.676   5.209  0.8213  0.9128 -0.5687
 4269SOL     MW17076   3.981   2.623   5.142  0.1342  0.2952 -0.2623
 4270SOL     OW17077   2.094   4.894   1.107 -0.1446 -0.4890  0.1119
 4270SOL    HW117078   2.076   4.819   1.164 -2.0387 -0.8932 -0.9208
 4270SOL    HW217079   2.152   4.951   1.159 -0.5365 -1.5695  1.8087
 4270SOL     MW17080   2.099   4.892   1.122 -0.4523 -0.6888  0.2013
 4271SOL     OW17081   3.022   3.385   1.967  0.1085 -0.0528  0.6887
 4271SOL    HW117082   3.028   3.438   1.887 -0.1364 -3.6755 -1.9834
 4271SOL    HW217083   2.931   3.394   1.995 -0.1523  0.2717 -0.2262
 4271SOL     MW17084   3.011   3.393   1.960  0.0404 -0.4967  0.2059
 4272SOL     OW17085   0.349   4.338   3.909  0.3582 -0.2399  0.2163
 4272SOL    HW117086   0.380   4.254   3.943  0.9750  0.1108  0.5317
 4272SOL    HW217087   0.421   4.371   3.856  1.5562  1.6879  2.8400
 4272SOL     MW17088   0.363   4.331   3.906  0.6024  0.0667  0.6119
 4273SOL     OW17089   0.638   0.537   1.253 -0.0331 -0.2502  0.7083
 4273SOL    HW117090   0.674   0.543   1.164 -0.2094  1.6665  0.7183
 4273SOL    HW217091   0.557   0.488   1.243 -0.2063  0.2084 -0.2500
 4273SOL     MW17092   0.632   0.531   1.240 -0.0802  0.0695  0.5807
 4274SOL     OW17093   2.105   0.591   0.301 -0.1565 -0.0269  0.0485
 4274SOL    HW117094   2.197   0.584   0.326 -0.4493 -0.2047  1.1545
 4274SOL    HW217095   2.073   0.666   0.351 -0.6998 -0.1994 -0.0394
 4274SOL     MW17096   2.113   0.600   0.311 -0.2691 -0.0741  0.1855
 4275SOL     OW17097   0.924   1.337   4.139 -0.6928  0.1303  0.1098
 4275SOL    HW117098   0.990   1.291   4.191  0.4323  0.6721 -0.8047
 4275SOL    HW217099   0.939   1.430   4.157 -0.7273  0.2930 -0.6488
 4275SOL     MW17100   0.934   1.343   4.148 -0.5460  0.2251 -0.1154
 4276SOL     OW17101   0.874   0.445   4.007  0.3303  0.2465  0.1224
 4276SOL    HW117102   0.887   0.393   4.086  0.0917  0.7441  0.4962
 4276SOL    HW217103   0.949   0.503   4.004 -0.8472  1.9391  1.3532
 4276SOL     MW17104   0.886   0.446   4.017  0.1397  0.5412  0.3384
 4277SOL     OW17105   3.487   0.844   1.296  0.3927 -0.3285  0.5158
 4277SOL    HW117106   3.482   0.855   1.391  0.1250 -0.3130  0.4983
 4277SOL    HW217107   3.415   0.784   1.275  0.0133  0.2250  0.2305
 4277SOL     MW17108   3.477   0.837   1.306  0.3056 -0.2519  0.4750
 4278SOL     OW17109   1.198   1.343   3.891  0.2059  0.0369  0.1355
 4278SOL    HW117110   1.201   1.400   3.968 -0.5697 -0.0420  0.2276
 4278SOL    HW217111   1.162   1.261   3.923  1.1008 -0.4386 -0.0500
 4278SOL     MW17112   1.193   1.340   3.906  0.2219 -0.0377  0.1230
 4279SOL     OW17113   0.129   1.295   3.449  0.0843  0.0594 -0.5942
 4279SOL    HW117114   0.126   1.326   3.358 -0.7268 -1.1938 -1.0361
 4279SOL    HW217115   0.164   1.368   3.499 -2.9397  2.2184 -1.3522
 4279SOL     MW17116   0.133   1.309   3.443 -0.4318  0.1813 -0.7557
 4280SOL     OW17117   4.823   4.475   4.061 -0.2881 -0.2732 -0.5432
 4280SOL    HW117118   4.792   4.515   3.980  0.1735  1.3764  0.0613
 4280SOL    HW217119   4.743   4.450   4.107 -0.6752  1.1961 -0.3535
 4280SOL     MW17120   4.808   4.477   4.056 -0.2780  0.1465 -0.4363
 4281SOL     OW17121   0.925   0.506   5.476 -0.0268 -0.3491 -0.0108
 4281SOL    HW117122   0.896   0.555   5.400 -0.9593  0.0355  0.5788
 4281SOL    HW217123   0.934   0.572   5.545 -1.9703 -1.0574  0.9951
 4281SOL     MW17124   0.923   0.522   5.475 -0.4138 -0.3927  0.2039
 4282SOL     OW17125   4.650   3.528   1.441 -0.5284 -0.2194  0.4418
 4282SOL    HW117126   4.603   3.610   1.454  1.0357  0.8441 -0.2709
 4282SOL    HW217127   4.589   3.472   1.393 -1.3839  0.7682  0.3599
 4282SOL     MW17128   4.636   3.531   1.436 -0.4330  0.0566  0.3349
 4283SOL     OW17129   0.013   1.798   1.787 -0.5219 -0.8193 -0.0233
 4283SOL    HW117130  -0.065   1.765   1.744 -1.2956  2.5666 -1.5332
 4283SOL    HW217131   0.085   1.751   1.744 -1.5818 -2.3345 -0.2212
 4283SOL     MW17132   0.013   1.787   1.775 -0.7686 -0.5675 -0.2531
 4284SOL     OW17133   4.113   3.320   4.718  0.7661  0.2978 -0.7767
 4284SOL    HW117134   4.146   3.269   4.644  1.2063 -1.5207  0.5967
 4284SOL    HW217135   4.070   3.395   4.678  2.3289  0.2062 -2.8102
 4284SOL     MW17136   4.112   3.323   4.703  1.0356  0.0407 -0.8655
 4285SOL     OW17137   0.430   1.720   0.570 -0.2338  1.0012 -0.1716
 4285SOL    HW117138   0.437   1.639   0.620 -0.6569 -0.5591 -2.4633
 4285SOL    HW217139   0.442   1.693   0.479  2.2455  3.9268 -0.8712
 4285SOL     MW17140   0.433   1.706   0.564  0.0429  1.1850 -0.5742
 4286SOL     OW17141   0.611   3.527   1.158  0.0064 -0.4550  0.2395
 4286SOL    HW117142   0.646   3.596   1.101 -1.4483 -1.4698 -2.0224
 4286SOL    HW217143   0.644   3.446   1.120 -0.4144 -1.1389  1.3066
 4286SOL     MW17144   0.621   3.525   1.145 -0.2460 -0.6836  0.0787
 4287SOL     OW17145   1.348   3.431   2.995 -0.2642  0.1876 -0.8514
 4287SOL    HW117146   1.397   3.378   2.932 -0.5698  0.3124 -1.2013
 4287SOL    HW217147   1.281   3.474   2.942 -1.6794 -1.0868 -0.1619
 4287SOL     MW17148   1.346   3.430   2.979 -0.4958  0.0329 -0.8057
 4288SOL     OW17149   5.285   1.455   1.515  0.1734 -0.1295  0.1025
 4288SOL    HW117150   5.372   1.424   1.489 -0.3061 -0.6764 -0.9035
 4288SOL    HW217151   5.226   1.384   1.491 -0.9374  1.3906 -2.0233
 4288SOL     MW17152   5.289   1.441   1.508 -0.0406  0.0014 -0.3190
 4289SOL     OW17153   4.445   1.213   2.715  0.3560 -0.2926 -0.0456
 4289SOL    HW117154   4.393   1.260   2.649  1.3471 -1.3517 -1.6577
 4289SOL    HW217155   4.521   1.270   2.729 -0.8344  0.9430  1.8266
 4289SOL     MW17156   4.448   1.227   2.708  0.3292 -0.2688 -0.0106
 4290SOL     OW17157   4.014   1.732   5.456  0.2906  0.0273 -0.0124
 4290SOL    HW117158   4.062   1.672   5.399  0.2598 -1.2117  1.2197
 4290SOL    HW217159   4.061   1.815   5.447  1.2248 -0.5402 -0.6479
 4290SOL     MW17160   4.027   1.735   5.447  0.4122 -0.2158  0.0679
 4291SOL     OW17161   1.585   0.433   4.902  0.0642 -0.2442 -0.6957
 4291SOL    HW117162   1.502   0.408   4.943 -0.0250 -0.3188 -0.9211
 4291SOL    HW217163   1.651   0.405   4.965 -0.1295  0.9247  0.0580
 4291SOL     MW17164   1.582   0.426   4.916  0.0262 -0.0969 -0.6246
 4292SOL     OW17165   2.512   2.247   0.403  0.3208  0.3207 -0.7186
 4292SOL    HW117166   2.464   2.169   0.430  1.7447 -0.6416 -0.8904
 4292SOL    HW217167   2.594   2.243   0.452 -0.2390  2.6029  0.5353
 4292SOL     MW17168   2.517   2.236   0.413  0.4371  0.4983 -0.5730
 4293SOL     OW17169   0.614   4.783   3.201  0.4013  0.0139 -0.1648
 4293SOL    HW117170   0.651   4.696   3.219 -1.8180 -1.2403 -1.3061
 4293SOL    HW217171   0.678   4.824   3.143  0.6960 -1.5557 -1.0121
 4293SOL     MW17172   0.628   4.777   3.196  0.1423 -0.3661 -0.4324
 4294SOL     OW17173   5.027   1.945   3.322 -0.3835 -0.3809  0.1232
 4294SOL    HW117174   5.014   1.907   3.409 -2.2511  0.5452  0.3031
 4294SOL    HW217175   4.944   1.931   3.277  0.5448 -0.8323 -1.5371
 4294SOL     MW17176   5.014   1.938   3.328 -0.5099 -0.3170 -0.0760
 4295SOL     OW17177   4.066   1.608   4.180 -0.4501  1.0601 -0.5737
 4295SOL    HW117178   4.133   1.543   4.158 -0.8627  0.3862  0.1172
 4295SOL    HW217179   4.106   1.660   4.251  0.4222  2.4878 -2.0247
 4295SOL     MW17180   4.081   1.607   4.186 -0.3883  1.1616 -0.6760
 4296SOL     OW17181   2.281   3.539   2.399  0.4162 -0.3464 -0.1365
 4296SOL    HW117182   2.221   3.556   2.327  0.0019 -1.0257  0.0411
 4296SOL    HW217183   2.235   3.572   2.477  0.6145 -0.1429 -0.1038
 4296SOL     MW17184   2.267   3.546   2.400  0.3871 -0.4104 -0.1082
 4297SOL     OW17185   0.289   1.145   3.930  0.0258 -0.3477 -0.3186
 4297SOL    HW117186   0.303   1.184   4.016  0.4720 -0.2704 -0.4204
 4297SOL    HW217187   0.329   1.058   3.936 -2.4095 -1.5028  0.4267
 4297SOL     MW17188   0.297   1.139   3.942 -0.2419 -0.4928 -0.2320
 4298SOL     OW17189   2.239   3.495   4.975 -0.3890  0.1230 -0.7746
 4298SOL    HW117190   2.290   3.458   5.047 -2.4937 -0.6635  0.4046
 4298SOL    HW217191   2.258   3.439   4.900  0.6868  0.0399 -0.4446
 4298SOL     MW17192   2.248   3.483   4.974 -0.5275  0.0060 -0.5715
 4299SOL     OW17193   5.400   2.861   5.133  0.1363 -0.3961 -0.1737
 4299SOL    HW117194   5.494   2.876   5.146  0.2247 -2.1736  1.5894
 4299SOL    HW217195   5.396   2.800   5.059  0.2797  0.5206 -0.9588
 4299SOL     MW17196   5.412   2.855   5.125  0.1675 -0.5120 -0.0421
 4300SOL     OW17197   1.843   4.029   3.255 -0.1568  0.9919 -0.1294
 4300SOL    HW117198   1.758   4.041   3.298 -0.0021  1.9779 -0.0969
 4300SOL    HW217199   1.898   4.098   3.291  0.6960  0.2973 -0.0836
 4300SOL     MW17200   1.839   4.040   3.266 -0.0212  1.0311 -0.1189
 4301SOL     OW17201   4.046   5.430   1.584 -0.2185  0.3797 -0.2480
 4301SOL    HW117202   4.094   5.350   1.607  0.4889  0.5727 -0.9984
 4301SOL    HW217203   4.010   5.461   1.667 -0.6414 -0.8022  0.0238
 4301SOL     MW17204   4.048   5.423   1.598 -0.1802  0.2466 -0.3124
 4302SOL     OW17205   3.641   2.272   5.176 -0.1977  0.0895 -0.3194
 4302SOL    HW117206   3.611   2.325   5.102  1.7472 -1.1298 -2.0843
 4302SOL    HW217207   3.731   2.300   5.192 -0.4896  0.1359  1.4518
 4302SOL     MW17208   3.649   2.283   5.168  0.0248 -0.0684 -0.3186
 4303SOL     OW17209   4.717   0.064   1.440 -0.2150 -0.0002 -0.0078
 4303SOL    HW117210   4.738   0.001   1.371 -1.4942 -0.4432 -0.0091
 4303SOL    HW217211   4.650   0.120   1.402  0.8599  1.3666  0.0136
 4303SOL     MW17212   4.711   0.063   1.426 -0.2425  0.1241 -0.0051
 4304SOL     OW17213   1.826   2.626   3.690  0.0220 -0.4119 -0.2712
 4304SOL    HW117214   1.872   2.593   3.614  0.5696 -2.1939  0.7864
 4304SOL    HW217215   1.733   2.613   3.669  0.1930 -1.6680 -0.3266
 4304SOL     MW17216   1.819   2.620   3.677  0.1187 -0.8208 -0.1363
 4305SOL     OW17217   0.101   4.061   2.606  0.6181 -0.0446 -0.0029
 4305SOL    HW117218   0.128   4.143   2.648  1.8059 -0.8311  0.8488
 4305SOL    HW217219   0.006   4.067   2.599  0.4345  0.3787  2.2722
 4305SOL     MW17220   0.092   4.073   2.610  0.7532 -0.0935  0.4179
 4306SOL     OW17221   3.312   0.321   1.589 -0.0855 -0.4432 -0.0725
 4306SOL    HW117222   3.218   0.302   1.592 -0.0920 -0.7886 -1.6807
 4306SOL    HW217223   3.330   0.341   1.497  1.3534 -0.0190  0.2753
 4306SOL     MW17224   3.302   0.321   1.577  0.1073 -0.4326 -0.2421
 4307SOL     OW17225   5.168   0.246   2.077  0.1683 -0.0085 -0.2604
 4307SOL    HW117226   5.165   0.340   2.093 -1.1999 -0.1106  0.2320
 4307SOL    HW217227   5.180   0.238   1.982 -0.8344  0.6888 -0.4677
 4307SOL     MW17228   5.169   0.257   2.066 -0.1508  0.0716 -0.2221
 4308SOL     OW17229   5.155   1.136   5.331 -0.5745  0.2742 -0.0996
 4308SOL    HW117230   5.204   1.064   5.292 -2.4461 -1.0105 -0.1717
 4308SOL    HW217231   5.213   1.169   5.400  0.0772 -1.7273  0.3764
 4308SOL     MW17232   5.169   1.131   5.335 -0.7386 -0.1681 -0.0452
 4309SOL     OW17233   1.959   0.153   5.030  0.3121  1.1335  0.3676
 4309SOL    HW117234   2.028   0.171   4.966 -0.3761 -2.5714 -1.7339
 4309SOL    HW217235   2.003   0.158   5.115  2.5939  1.1575 -0.7398
 4309SOL     MW17236   1.974   0.156   5.033  0.5266  0.6381 -0.0643
 4310SOL     OW17237   5.531   2.542   1.923 -0.3087  0.0813  0.7663
 4310SOL    HW117238   5.510   2.516   2.013 -0.6062  1.1143  1.0159
 4310SOL    HW217239   5.446   2.566   1.886 -0.0200  0.9303  0.6446
 4310SOL     MW17240   5.517   2.542   1.930 -0.3099  0.3346  0.7835
 4311SOL     OW17241   0.516   1.701   2.909  0.5164 -0.1828 -0.2152
 4311SOL    HW117242   0.480   1.787   2.930 -0.4693 -0.3354 -1.1635
 4311SOL    HW217243   0.502   1.691   2.814  0.2024 -1.5610 -0.0542
 4311SOL     MW17244   0.509   1.711   2.899  0.3415 -0.3888 -0.3212
 4312SOL     OW17245   2.054   4.949   2.642 -0.1050  0.2897 -0.6302
 4312SOL    HW117246   2.038   4.994   2.725  0.1833  0.0241 -0.4269
 4312SOL    HW217247   2.131   4.895   2.659  0.4770  0.8866 -1.3320
 4312SOL     MW17248   2.062   4.948   2.656  0.0121  0.3343 -0.6973
 4313SOL     OW17249   3.386   2.410   3.899 -0.5573 -0.4890 -0.0873
 4313SOL    HW117250   3.331   2.424   3.975 -0.2261 -0.2761  0.1174
 4313SOL    HW217251   3.345   2.338   3.852  0.3680 -2.0819  1.4039
 4313SOL     MW17252   3.373   2.402   3.903 -0.3882 -0.6748  0.1410
 4314SOL     OW17253   3.428   0.119   2.364  0.2139  0.1796  0.4328
 4314SOL    HW117254   3.340   0.132   2.401 -0.1001  0.5662 -0.4223
 4314SOL    HW217255   3.434   0.185   2.294  0.3394 -1.2915 -0.9853
 4314SOL     MW17256   3.417   0.130   2.360  0.1885  0.0337  0.1269
 4315SOL     OW17257   0.130   2.599   3.603  0.2660 -0.6369 -0.1873
 4315SOL    HW117258   0.129   2.571   3.512  1.6736 -0.7806 -0.1870
 4315SOL    HW217259   0.127   2.518   3.653 -3.3201 -0.5270  0.0247
 4315SOL     MW17260   0.130   2.584   3.598 -0.0272 -0.6414 -0.1587
 4316SOL     OW17261   0.349   4.008   3.366 -0.3996  0.6318  0.2118
 4316SOL    HW117262   0.382   3.925   3.399 -0.6793 -0.3689 -1.8958
 4316SOL    HW217263   0.426   4.054   3.332 -0.5266  0.2691 -0.5885
 4316SOL     MW17264   0.364   4.003   3.366 -0.4544  0.4483 -0.1796
 4317SOL     OW17265   2.156   1.530   1.012  0.3780 -0.4621 -0.1629
 4317SOL    HW117266   2.117   1.442   1.015  2.7623 -1.5740  0.1920
 4317SOL    HW217267   2.206   1.532   0.931  2.4727 -0.4491  1.0560
 4317SOL     MW17268   2.157   1.518   1.002  0.9808 -0.6100  0.0489
 4318SOL     OW17269   3.341   0.707   0.393  0.5648 -0.5075  0.0490
 4318SOL    HW117270   3.395   0.696   0.471  0.3830  0.1514  0.2661
 4318SOL    HW217271   3.278   0.775   0.416  0.7843 -0.0032 -0.8121
 4318SOL     MW17272   3.340   0.715   0.406  0.5698 -0.3509 -0.0376
 4319SOL     OW17273   2.641   0.199   1.398 -0.3176  0.3241 -0.0304
 4319SOL    HW117274   2.612   0.152   1.320 -0.1091 -0.0348  0.1085
 4319SOL    HW217275   2.732   0.223   1.379  0.1727 -0.9245  0.6332
 4319SOL     MW17276   2.649   0.196   1.385 -0.2235  0.1078  0.0776
 4320SOL     OW17277   4.187   1.593   3.439  0.4441  0.0085 -0.2822
 4320SOL    HW117278   4.136   1.529   3.389  1.1096 -1.2752  0.6027
 4320SOL    HW217279   4.270   1.548   3.457  1.2084  1.3942 -0.2149
 4320SOL     MW17280   4.191   1.578   3.435  0.6365  0.0222 -0.1540
 4321SOL     OW17281   4.414   4.455   0.704  0.7954  0.1998 -0.2696
 4321SOL    HW117282   4.319   4.470   0.702  0.9066  1.2076  0.9762
 4321SOL    HW217283   4.451   4.543   0.699  1.5963  0.0719  2.2649
 4321SOL     MW17284   4.406   4.469   0.703  0.9182  0.3182  0.2392
 4322SOL     OW17285   2.018   2.396   4.361  0.2537  0.1859  0.1416
 4322SOL    HW117286   2.063   2.390   4.445  1.3558  1.0932 -0.3559
 4322SOL    HW217287   2.087   2.381   4.296 -0.4837  0.0043 -0.6172
 4322SOL     MW17288   2.033   2.393   4.364  0.3028  0.2836 -0.0275
 4323SOL     OW17289   5.263   1.836   0.692  0.3668 -0.4684 -0.1994
 4323SOL    HW117290   5.269   1.927   0.663  0.5498 -0.5146 -0.3094
 4323SOL    HW217291   5.180   1.804   0.656  0.3885 -0.3988 -0.3087
 4323SOL     MW17292   5.253   1.844   0.683  0.3943 -0.4653 -0.2289
 4324SOL     OW17293   2.674   0.287   0.225  0.2570 -0.3714 -0.6971
 4324SOL    HW117294   2.630   0.210   0.188 -1.9779 -0.8359  2.4553
 4324SOL    HW217295   2.744   0.250   0.279  0.5507 -0.0481 -0.8555
 4324SOL     MW17296   2.677   0.271   0.228 -0.0043 -0.3904 -0.2941
 4325SOL     OW17297   3.740   3.077   2.041  0.2202  0.3156  0.2181
 4325SOL    HW117298   3.835   3.082   2.030  0.2137 -1.7027 -1.5003
 4325SOL    HW217299   3.723   2.985   2.060 -1.4874  0.3833 -0.7888
 4325SOL     MW17300   3.750   3.065   2.042 -0.0104  0.0531 -0.1487
 4326SOL     OW17301   4.496   2.220   4.416 -0.3866  0.2580  0.3796
 4326SOL    HW117302   4.541   2.137   4.431  2.0174  1.5628  0.8744
 4326SOL    HW217303   4.444   2.234   4.496  1.0117  0.2808  1.3231
 4326SOL     MW17304   4.495   2.211   4.429  0.1251  0.4367  0.5732
 4327SOL     OW17305   1.184   3.040   1.960 -0.1348 -0.6958  0.4009
 4327SOL    HW117306   1.104   3.030   1.908  0.4630 -0.3169 -0.6257
 4327SOL    HW217307   1.248   2.984   1.915  0.9715  1.2280 -0.5450
 4327SOL     MW17308   1.181   3.031   1.947  0.0946 -0.3859  0.1354
 4328SOL     OW17309   3.064   1.076   5.404 -0.3564 -0.1209 -0.1343
 4328SOL    HW117310   3.025   1.004   5.454 -0.9093  0.0856 -0.2699
 4328SOL    HW217311   3.156   1.050   5.394 -0.1889 -0.0772  1.1399
 4328SOL     MW17312   3.071   1.063   5.409 -0.4083 -0.0873  0.0189
 4329SOL     OW17313   3.645   0.816   2.292 -0.1277 -0.1166  0.0870
 4329SOL    HW117314   3.601   0.811   2.207 -0.9083 -3.3026  0.5476
 4329SOL    HW217315   3.585   0.865   2.348 -1.4646 -1.3129 -0.2506
 4329SOL     MW17316   3.631   0.822   2.288 -0.4127 -0.7064  0.1036
 4330SOL     OW17317   2.751   2.623   4.841 -0.0007 -0.3584  0.3157
 4330SOL    HW117318   2.822   2.683   4.820  1.4023 -2.3887 -1.0397
 4330SOL    HW217319   2.749   2.620   4.937  0.1899  1.4382  0.4009
 4330SOL     MW17320   2.760   2.630   4.851  0.2137 -0.3899  0.1448
 4331SOL     OW17321   4.314   1.664   3.811 -0.0811  0.3713  0.0387
 4331SOL    HW117322   4.274   1.710   3.737 -0.4391 -0.1856 -0.1211
 4331SOL    HW217323   4.408   1.674   3.798 -0.1201 -0.4050 -0.9342
 4331SOL     MW17324   4.321   1.672   3.799 -0.1345  0.1919 -0.1137
 4332SOL     OW17325   3.667   3.027   3.555  0.7585 -0.2819 -0.0497
 4332SOL    HW117326   3.627   3.114   3.564  1.5388  0.0346  0.3940
 4332SOL    HW217327   3.746   3.042   3.503  1.1865 -0.6356  0.4909
 4332SOL     MW17328   3.672   3.041   3.550  0.9211 -0.2869  0.0827
 4333SOL     OW17329   0.993   2.753   1.119  0.2952 -0.2615 -0.1417
 4333SOL    HW117330   1.047   2.728   1.044  1.7894  0.8723  0.5160
 4333SOL    HW217331   0.903   2.748   1.086  0.9263  0.7984 -2.2030
 4333SOL     MW17332   0.988   2.749   1.105  0.5812  0.0337 -0.3306
 4334SOL     OW17333   2.511   4.382   3.426 -0.1452  0.1067  0.8346
 4334SOL    HW117334   2.574   4.330   3.376  1.5033  1.9202  0.9121
 4334SOL    HW217335   2.431   4.328   3.427  0.8869 -1.5729 -0.6155
 4334SOL     MW17336   2.509   4.367   3.419  0.2156  0.1247  0.6499
 4335SOL     OW17337   1.174   4.142   0.178 -0.0124 -0.0134 -0.7006
 4335SOL    HW117338   1.149   4.139   0.085  1.8852  1.4722 -1.3307
 4335SOL    HW217339   1.269   4.148   0.177 -0.0211  1.4639  1.2817
 4335SOL     MW17340   1.183   4.143   0.165  0.2418  0.3854 -0.5186
 4336SOL     OW17341   4.718   1.530   4.750  0.7341 -0.1158 -0.0492
 4336SOL    HW117342   4.717   1.563   4.660 -1.1337 -0.6624 -0.2716
 4336SOL    HW217343   4.763   1.446   4.745  1.5346  0.3179 -0.2772
 4336SOL     MW17344   4.724   1.524   4.738  0.5904 -0.1310 -0.1098
 4337SOL     OW17345   2.659   1.270   0.800  0.0109  0.1102  0.1460
 4337SOL    HW117346   2.741   1.220   0.793 -0.1894 -0.2795  0.5617
 4337SOL    HW217347   2.640   1.296   0.710  0.5547  0.1455  0.0336
 4337SOL     MW17348   2.668   1.267   0.787  0.0571  0.0625  0.1868
 4338SOL     OW17349   3.394   1.355   5.358  0.5061 -0.1510 -0.5690
 4338SOL    HW117350   3.339   1.415   5.307 -2.0718 -1.1561  0.8531
 4338SOL    HW217351   3.477   1.403   5.370 -0.9272  2.5574 -0.6357
 4338SOL     MW17352   3.398   1.370   5.353 -0.0338  0.0782 -0.3866
 4339SOL     OW17353   2.387   1.804   1.635 -0.6701 -0.0832  0.8937
 4339SOL    HW117354   2.302   1.769   1.661 -1.3907  0.2300 -0.8878
 4339SOL    HW217355   2.415   1.749   1.562  0.4747  0.0744  1.1916
 4339SOL     MW17356   2.379   1.792   1.629 -0.6130 -0.0199  0.6940
 4340SOL     OW17357   2.805   4.325   0.584 -0.3283  0.3254  0.4285
 4340SOL    HW117358   2.764   4.278   0.656  1.2325 -0.1964  1.0222
 4340SOL    HW217359   2.873   4.266   0.552 -1.6544  0.0694 -2.2412
 4340SOL     MW17360   2.809   4.311   0.589 -0.2967  0.2207  0.1491
 4341SOL     OW17361   4.639   3.313   5.341  0.1090 -0.4257  0.2861
 4341SOL    HW117362   4.623   3.221   5.321 -0.7696 -0.2436  0.0936
 4341SOL    HW217363   4.585   3.331   5.418  0.2753 -0.0707  0.3254
 4341SOL     MW17364   4.630   3.303   5.348  0.0131 -0.3534  0.2655
 4342SOL     OW17365   4.378   1.865   1.752 -0.3170  0.1727  0.0858
 4342SOL    HW117366   4.380   1.910   1.837  1.1735 -1.2214  0.8544
 4342SOL    HW217367   4.363   1.935   1.688 -0.4183  1.4066  1.4016
 4342SOL     MW17368   4.376   1.880   1.755 -0.1301  0.1511  0.3663
 4343SOL     OW17369   5.488   2.694   0.148  0.2230  0.5780  0.1222
 4343SOL    HW117370   5.548   2.703   0.074  0.9596 -1.0098  0.4780
 4343SOL    HW217371   5.423   2.630   0.118 -0.8128  1.6186  0.0627
 4343SOL     MW17372   5.487   2.686   0.134  0.1828  0.5044  0.1621
 4344SOL     OW17373   3.791   1.747   2.060 -0.0820  0.5365  0.3368
 4344SOL    HW117374   3.774   1.756   1.966  1.3573  1.7002  0.1364
 4344SOL    HW217375   3.875   1.702   2.064 -0.3774  0.0546  1.0862
 4344SOL     MW17376   3.800   1.742   2.048  0.0719  0.6283  0.4106
 4345SOL     OW17377   3.655   0.756   4.066  0.2909  0.4612  0.0690
 4345SOL    HW117378   3.634   0.849   4.071 -0.1914  0.4288 -1.0201
 4345SOL    HW217379   3.660   0.738   3.972  1.3226 -0.4062  0.2714
 4345SOL     MW17380   3.653   0.766   4.054  0.3648  0.3401 -0.0503
 4346SOL     OW17381   4.203   4.217   5.062 -0.1524 -0.2698  0.2990
 4346SOL    HW117382   4.233   4.295   5.016  0.9213 -0.7361  0.1700
 4346SOL    HW217383   4.266   4.206   5.134 -1.5301  0.1825  1.6155
 4346SOL     MW17384   4.216   4.226   5.066 -0.1933 -0.2717  0.4588
 4347SOL     OW17385   4.382   0.250   3.772  0.2211  0.1963 -0.0381
 4347SOL    HW117386   4.377   0.241   3.867 -4.5208  0.6179 -0.0111
 4347SOL    HW217387   4.374   0.160   3.739  0.3768  0.1728 -0.0098
 4347SOL     MW17388   4.380   0.236   3.780 -0.3961  0.2498 -0.0306
 4348SOL     OW17389   1.781   2.380   5.291 -0.2863 -0.3261 -0.8960
 4348SOL    HW117390   1.854   2.382   5.230 -0.4609 -0.6419 -1.1210
 4348SOL    HW217391   1.805   2.313   5.356 -0.9403 -1.3963 -1.7099
 4348SOL     MW17392   1.794   2.371   5.292 -0.3978 -0.5126 -1.0358
 4349SOL     OW17393   0.303   5.107   2.537 -0.0024  0.0120  0.1098
 4349SOL    HW117394   0.220   5.089   2.582 -0.3326  0.4129 -0.3222
 4349SOL    HW217395   0.370   5.094   2.604 -0.5285  1.2493  0.9143
 4349SOL     MW17396   0.301   5.103   2.552 -0.1177  0.2325  0.1599
 4350SOL     OW17397   0.601   4.622   4.629 -0.3603 -0.4166 -0.0656
 4350SOL    HW117398   0.519   4.583   4.600  0.1043 -0.5282 -1.3202
 4350SOL    HW217399   0.640   4.657   4.549  1.4503 -1.5499  0.2491
 4350SOL     MW17400   0.595   4.621   4.614 -0.0541 -0.5842 -0.1921
 4351SOL     OW17401   5.148   2.350   1.489 -0.1282  0.0923  0.1121
 4351SOL    HW117402   5.196   2.278   1.531 -0.4930 -1.5187 -2.0819
 4351SOL    HW217403   5.056   2.323   1.492 -0.3751  0.9060  0.0585
 4351SOL     MW17404   5.142   2.336   1.495 -0.2106 -0.0150 -0.1904
 4352SOL     OW17405   4.141   2.576   4.852 -0.6081 -0.1043  0.3612
 4352SOL    HW117406   4.131   2.496   4.903  0.6384 -0.3925  0.1989
 4352SOL    HW217407   4.235   2.582   4.835 -0.5406  1.8659  1.1261
 4352SOL     MW17408   4.152   2.566   4.856 -0.4313  0.1220  0.4423
 4353SOL     OW17409   1.533   2.448   3.852  0.0013  0.1249 -0.1696
 4353SOL    HW117410   1.501   2.380   3.792  0.3252 -0.1915  0.0135
 4353SOL    HW217411   1.486   2.527   3.826 -1.2958 -0.4326  0.3974
 4353SOL     MW17412   1.522   2.449   3.841 -0.1297  0.0073 -0.0687
 4354SOL     OW17413   5.095   3.214   0.411 -0.3169 -0.2007 -0.1425
 4354SOL    HW117414   5.125   3.144   0.354  0.2975  0.3045 -0.4550
 4354SOL    HW217415   5.155   3.212   0.486 -1.2202 -0.9707  0.6019
 4354SOL     MW17416   5.107   3.204   0.414 -0.3558 -0.2364 -0.0844
 4355SOL     OW17417   2.499   0.172   3.390 -0.7236 -0.4546 -0.2174
 4355SOL    HW117418   2.435   0.101   3.385  0.1877 -1.4350  1.2195
 4355SOL    HW217419   2.576   0.132   3.431  0.5549  0.8713 -1.2487
 4355SOL     MW17420   2.501   0.158   3.395 -0.4289 -0.4081 -0.1628
 4356SOL     OW17421   1.050   4.725   5.408 -0.2229 -0.4448 -0.0677
 4356SOL    HW117422   0.973   4.713   5.464 -0.3616  0.6635  0.0075
 4356SOL    HW217423   1.026   4.684   5.325 -0.7500 -0.4330  0.0751
 4356SOL     MW17424   1.037   4.718   5.404 -0.3125 -0.2941 -0.0383
 4357SOL     OW17425   2.730   4.249   4.797  0.0096 -0.2699 -0.6429
 4357SOL    HW117426   2.642   4.258   4.760 -0.3068 -2.3085 -0.5088
 4357SOL    HW217427   2.715   4.229   4.890  0.6563  0.0974 -0.4512
 4357SOL     MW17428   2.716   4.247   4.805  0.0541 -0.4948 -0.5991
 4358SOL     OW17429   3.224   1.170   1.785  0.2955  0.2533  0.4937
 4358SOL    HW117430   3.267   1.240   1.737  0.0391 -1.0036 -1.6813
 4358SOL    HW217431   3.131   1.178   1.763  0.4017 -1.4748 -0.8764
 4358SOL     MW17432   3.217   1.180   1.776  0.2753 -0.1484  0.0166
 4359SOL     OW17433   0.009   2.360   2.955  0.1913  0.2488  0.1415
 4359SOL    HW117434   0.061   2.290   2.994  0.4230 -0.0948 -0.7640
 4359SOL    HW217435  -0.028   2.407   3.030 -1.1559 -1.7031  0.7831
 4359SOL     MW17436   0.011   2.357   2.970  0.0412 -0.0601  0.1060
 4360SOL     OW17437   4.868   2.330   4.164  0.4943  0.7904  0.2786
 4360SOL    HW117438   4.871   2.250   4.111 -0.4779  0.0811  1.2527
 4360SOL    HW217439   4.903   2.398   4.106 -1.0367  0.1712 -1.4878
 4360SOL     MW17440   4.874   2.329   4.149  0.1574  0.6116  0.1720
 4361SOL     OW17441   3.201   0.362   5.493  0.2827  0.5041  0.1020
 4361SOL    HW117442   3.112   0.327   5.504  0.3529  0.2354 -0.1716
 4361SOL    HW217443   3.204   0.438   5.552 -1.5005  3.1199 -2.8840
 4361SOL     MW17444   3.190   0.367   5.503  0.0522  0.8200 -0.3367
 4362SOL     OW17445   1.518   2.236   3.633  0.4746  0.1405 -0.1656
 4362SOL    HW117446   1.578   2.241   3.559 -0.4319  1.1555 -0.8775
 4362SOL    HW217447   1.508   2.143   3.650 -0.8031 -0.2542 -2.6412
 4362SOL     MW17448   1.524   2.224   3.625  0.1806  0.2240 -0.5946
 4363SOL     OW17449   1.242   5.090   1.324  0.1024  0.4296  0.1256
 4363SOL    HW117450   1.198   5.118   1.244  0.5004 -0.1084 -0.2922
 4363SOL    HW217451   1.182   5.028   1.365  0.7985 -0.9467 -0.8740
 4363SOL     MW17452   1.228   5.085   1.319  0.2496  0.1720 -0.0652
 4364SOL     OW17453   4.277   5.003   3.702  0.2340  0.5779  0.2142
 4364SOL    HW117454   4.253   5.088   3.665  2.1308  1.0627  0.0254
 4364SOL    HW217455   4.310   5.023   3.789  1.0162  0.0847  0.0386
 4364SOL     MW17456   4.278   5.017   3.709  0.5946  0.5768  0.1651
 4365SOL     OW17457   1.800   0.112   1.862  0.0819 -0.1297  0.6265
 4365SOL    HW117458   1.792   0.163   1.943  0.4787 -0.0389  0.6148
 4365SOL    HW217459   1.894   0.113   1.844 -0.1925  1.7383 -1.0268
 4365SOL     MW17460   1.812   0.119   1.871  0.0983  0.1339  0.4024
 4366SOL     OW17461   5.486   2.739   2.159  0.1297 -0.0244 -0.4388
 4366SOL    HW117462   5.529   2.793   2.093 -1.4115  1.0760 -0.6170
 4366SOL    HW217463   5.462   2.801   2.228  0.5140 -0.9287  0.5209
 4366SOL     MW17464   5.488   2.755   2.159 -0.0260  0.0020 -0.3336
 4367SOL     OW17465   3.461   3.572   4.870  0.2148 -0.2807 -0.1465
 4367SOL    HW117466   3.449   3.552   4.777  1.9411 -1.5237 -0.1476
 4367SOL    HW217467   3.543   3.528   4.893  0.1218  0.5148  1.8248
 4367SOL     MW17468   3.470   3.563   4.860  0.4346 -0.3409  0.1187
 4368SOL     OW17469   4.023   0.139   5.115  0.1913 -0.0784  0.0926
 4368SOL    HW117470   3.982   0.216   5.076  0.3384  0.2588  0.6037
 4368SOL    HW217471   3.957   0.070   5.108 -1.1447  0.8679  2.4179
 4368SOL     MW17472   4.009   0.140   5.109  0.0313  0.0943  0.4743
 4369SOL     OW17473   2.009   1.313   1.769  0.1211  0.2707 -0.2458
 4369SOL    HW117474   2.090   1.344   1.728 -1.2146 -0.3393 -3.6958
 4369SOL    HW217475   1.952   1.390   1.770 -0.6893 -0.2399 -2.0212
 4369SOL     MW17476   2.012   1.328   1.764 -0.1678  0.1199 -0.9491
 4370SOL     OW17477   2.404   3.536   3.203  0.1160 -0.5655  0.5773
 4370SOL    HW117478   2.480   3.547   3.260  0.3283 -0.3157  0.2506
 4370SOL    HW217479   2.364   3.623   3.199  0.1021 -0.5813  0.3491
 4370SOL     MW17480   2.409   3.549   3.210  0.1427 -0.5340  0.5026
 4371SOL     OW17481   0.614   2.056   1.386 -0.0371 -0.0496  0.1818
 4371SOL    HW117482   0.584   2.146   1.397 -0.5423 -0.2570  0.5656
 4371SOL    HW217483   0.553   2.017   1.323  1.3173  0.4010 -1.4827
 4371SOL     MW17484   0.602   2.063   1.379  0.0772 -0.0168  0.0094
 4372SOL     OW17485   1.152   0.815   0.401  0.0978 -0.2003 -0.1109
 4372SOL    HW117486   1.072   0.762   0.410  0.1234 -0.4714 -1.2584
 4372SOL    HW217487   1.127   0.902   0.431 -0.9963  0.0193 -1.5540
 4372SOL     MW17488   1.138   0.819   0.406 -0.0460 -0.2072 -0.4595
 4373SOL     OW17489   2.199   0.983   4.738 -0.4734  0.2140  0.4642
 4373SOL    HW117490   2.272   0.923   4.750 -0.2445 -0.0568 -1.8167
 4373SOL    HW217491   2.124   0.926   4.721 -1.6495  0.4192  4.1113
 4373SOL     MW17492   2.199   0.967   4.738 -0.6009  0.2052  0.6480
 4374SOL     OW17493   1.984   4.266   0.144 -0.4041  0.0207 -0.4239
 4374SOL    HW117494   1.972   4.300   0.055 -0.9587 -0.0938 -0.3963
 4374SOL    HW217495   1.897   4.237   0.170 -0.3885  0.7403  0.4461
 4374SOL     MW17496   1.971   4.267   0.135 -0.4766  0.1021 -0.3031
 4375SOL     OW17497   4.532   4.248   1.375 -0.1208  0.1926 -0.0031
 4375SOL    HW117498   4.488   4.262   1.291 -1.0933 -0.2059  0.4333
 4375SOL    HW217499   4.603   4.313   1.376 -0.6882  0.8404 -0.7154
 4375SOL     MW17500   4.536   4.259   1.364 -0.3281  0.2262 -0.0403
 4376SOL     OW17501   2.803   1.447   3.910 -0.4412 -0.4213  0.4264
 4376SOL    HW117502   2.878   1.400   3.946  0.0108  1.8471  2.8460
 4376SOL    HW217503   2.835   1.537   3.899 -2.3691  0.2669  0.0715
 4376SOL     MW17504   2.818   1.453   3.914 -0.6398 -0.0234  0.7043
 4377SOL     OW17505   3.493   2.621   5.198  0.3123 -0.4616  0.2744
 4377SOL    HW117506   3.565   2.672   5.235  0.1945 -1.0495  1.3635
 4377SOL    HW217507   3.532   2.576   5.123  0.3497  1.3998 -0.9075
 4377SOL     MW17508   3.508   2.622   5.193  0.3015 -0.2902  0.2619
 4378SOL     OW17509   3.204   1.518   0.568 -0.0151 -0.1185  0.1557
 4378SOL    HW117510   3.255   1.592   0.536  1.0684  0.5670  3.1821
 4378SOL    HW217511   3.261   1.442   0.557 -0.4805 -0.2910 -1.3662
 4378SOL     MW17512   3.218   1.517   0.562  0.0681 -0.0495  0.3582
 4379SOL     OW17513   2.577   4.208   1.961 -0.7231  0.0823  0.2995
 4379SOL    HW117514   2.604   4.116   1.960 -0.1626  0.2407 -0.4366
 4379SOL    HW217515   2.610   4.243   1.878 -1.3118  0.8396  0.3806
 4379SOL     MW17516   2.585   4.201   1.949 -0.7269  0.2055  0.2114
 4380SOL     OW17517   3.902   3.305   3.598  0.1213 -0.2412 -0.1022
 4380SOL    HW117518   3.831   3.329   3.658  0.9936  0.6425  0.6148
 4380SOL    HW217519   3.934   3.222   3.632  0.9267  0.4894  0.9846
 4380SOL     MW17520   3.897   3.297   3.611  0.3471 -0.0240  0.1405
 4381SOL     OW17521   3.886   3.022   2.887 -0.1856 -0.0120 -0.0632
 4381SOL    HW117522   3.911   3.020   2.794 -1.8855 -1.6764 -0.5558
 4381SOL    HW217523   3.885   2.930   2.913 -3.3426  0.0595  0.4934
 4381SOL     MW17524   3.889   3.009   2.878 -0.8393 -0.2264 -0.0545
 4382SOL     OW17525   1.250   1.448   1.267  0.3506 -0.3169 -0.6192
 4382SOL    HW117526   1.233   1.402   1.184  1.7490  0.8050 -1.5710
 4382SOL    HW217527   1.343   1.467   1.265  0.3936 -0.2163  1.2293
 4382SOL     MW17528   1.260   1.444   1.255  0.5446 -0.1524 -0.4986
 4383SOL     OW17529   1.922   4.288   5.026 -0.2032 -0.1481  0.0568
 4383SOL    HW117530   2.007   4.304   4.985  0.4277 -1.6529  0.7064
 4383SOL    HW217531   1.867   4.256   4.954 -0.0549  0.2465 -0.2386
 4383SOL     MW17532   1.926   4.286   5.010 -0.0983 -0.2975  0.1045
 4384SOL     OW17533   0.498   3.664   1.526 -0.2931  0.2071 -0.2367
 4384SOL    HW117534   0.532   3.753   1.517  0.2441  0.2578  1.7304
 4384SOL    HW217535   0.547   3.628   1.600 -2.6062 -0.6771  0.9560
 4384SOL     MW17536   0.509   3.671   1.535 -0.5321  0.0949  0.1886
 4385SOL     OW17537   0.441   0.711   5.153  0.2906  0.0839 -0.1654
 4385SOL    HW117538   0.459   0.653   5.228 -0.8718 -1.0676 -0.7282
 4385SOL    HW217539   0.375   0.772   5.186  1.0770  0.7157  0.2567
 4385SOL     MW17540   0.434   0.711   5.168  0.2400  0.0140 -0.1843
 4386SOL     OW17541   1.786   4.466   1.360  0.3255  0.5082 -0.2937
 4386SOL    HW117542   1.743   4.413   1.293  1.7734  1.0426 -1.7088
 4386SOL    HW217543   1.743   4.552   1.354 -1.4460 -0.1635  1.4336
 4386SOL     MW17544   1.774   4.471   1.350  0.2819  0.4897 -0.2517
 4387SOL     OW17545   5.241   5.327   0.969  0.1697 -0.4544  0.2112
 4387SOL    HW117546   5.198   5.334   1.055 -0.9467 -1.8369 -0.1981
 4387SOL    HW217547   5.173   5.295   0.910  0.8205  0.8338 -1.3118
 4387SOL     MW17548   5.226   5.323   0.973  0.1070 -0.4671 -0.0488
 4388SOL     OW17549   5.414   4.816   0.420 -0.5062  0.0113  0.6176
 4388SOL    HW117550   5.369   4.864   0.490 -2.0620 -0.4044 -0.0358
 4388SOL    HW217551   5.475   4.880   0.383 -2.2309  1.4137  0.0367
 4388SOL     MW17552   5.416   4.831   0.424 -0.9477  0.1441  0.4515
 4389SOL     OW17553   2.956   1.525   5.228  0.0584  0.0784 -0.6209
 4389SOL    HW117554   2.951   1.429   5.229  0.3830  0.0653 -0.1701
 4389SOL    HW217555   2.869   1.553   5.258  0.5428 -0.1000  1.0492
 4389SOL     MW17556   2.943   1.516   5.232  0.1672  0.0526 -0.3355
 4390SOL     OW17557   0.846   2.933   2.275 -0.0009 -0.0080 -0.6192
 4390SOL    HW117558   0.941   2.930   2.285 -0.1165 -0.4517  0.5340
 4390SOL    HW217559   0.816   2.852   2.316 -1.0986  1.6078  2.0386
 4390SOL     MW17560   0.855   2.921   2.282 -0.1642  0.1497 -0.1063
 4391SOL     OW17561   0.585   3.397   2.393  0.3095 -0.1474 -0.0433
 4391SOL    HW117562   0.598   3.453   2.470 -0.6297 -0.4198  0.3255
 4391SOL    HW217563   0.669   3.400   2.347  1.4450 -1.2090  1.8095
 4391SOL     MW17564   0.598   3.405   2.398  0.3359 -0.3269  0.2557
 4392SOL     OW17565   2.718   5.196   1.220 -0.2230  0.0795 -0.6081
 4392SOL    HW117566   2.803   5.234   1.200 -0.7187  1.2371 -0.6031
 4392SOL    HW217567   2.697   5.229   1.308 -0.3340 -0.8271 -0.2822
 4392SOL     MW17568   2.726   5.205   1.229 -0.3047  0.1133 -0.5636
 4393SOL     OW17569   0.221   0.584   0.875 -0.1047  0.1582 -0.2788
 4393SOL    HW117570   0.236   0.609   0.784  0.4569 -1.7452 -0.7533
 4393SOL    HW217571   0.253   0.658   0.926  1.8335  0.2825 -1.5790
 4393SOL     MW17572   0.227   0.597   0.870  0.2317 -0.0812 -0.5177
 4394SOL     OW17573   2.230   1.652   0.433 -0.2556  0.1918  0.5966
 4394SOL    HW117574   2.223   1.711   0.508  1.2944  2.7410 -1.1044
 4394SOL    HW217575   2.323   1.631   0.427 -0.4985 -0.7647 -0.0809
 4394SOL     MW17576   2.242   1.657   0.442 -0.0797  0.4062  0.2765
 4395SOL     OW17577   4.738   4.414   1.650 -0.1545 -0.1108  0.0974
 4395SOL    HW117578   4.750   4.390   1.559  1.6248 -0.8086  0.4937
 4395SOL    HW217579   4.769   4.339   1.700 -0.5703  0.4806  1.3017
 4395SOL     MW17580   4.744   4.401   1.645  0.0290 -0.1251  0.3128
 4396SOL     OW17581   4.111   1.852   3.279 -0.2967 -0.3516 -0.3123
 4396SOL    HW117582   4.134   1.768   3.318 -1.8532  0.0174  1.5303
 4396SOL    HW217583   4.061   1.830   3.200 -1.0832 -1.1737  0.4042
 4396SOL     MW17584   4.108   1.838   3.273 -0.6120 -0.4126  0.0321
 4397SOL     OW17585   5.020   1.878   5.307  0.5259  0.4149 -0.3381
 4397SOL    HW117586   5.099   1.877   5.254  0.6752  0.2558 -0.1144
 4397SOL    HW217587   5.014   1.969   5.338  0.6769  0.4034 -0.2731
 4397SOL     MW17588   5.030   1.890   5.304  0.5663  0.3920 -0.2993
 4398SOL     OW17589   3.950   4.988   1.427 -0.0230 -0.2639  0.2436
 4398SOL    HW117590   3.869   4.941   1.408  0.4560 -0.2687 -2.0953
 4398SOL    HW217591   4.001   4.927   1.481 -1.5777 -0.1934  1.8861
 4398SOL     MW17592   3.946   4.973   1.431 -0.1678 -0.2551  0.1499
 4399SOL     OW17593   0.384   3.973   1.243 -0.1059  0.6097  0.1477
 4399SOL    HW117594   0.444   4.024   1.188 -0.7115  0.6788 -0.4677
 4399SOL    HW217595   0.322   4.038   1.277 -1.1770  0.2394 -1.0327
 4399SOL     MW17596   0.384   3.988   1.240 -0.3315  0.5692 -0.0940
 4400SOL     OW17597   0.895   1.232   3.230  0.3808  0.2923  0.0525
 4400SOL    HW117598   0.899   1.139   3.253 -1.2942  0.0391 -0.5222
 4400SOL    HW217599   0.807   1.259   3.259  0.7089  1.5981 -0.1413
 4400SOL     MW17600   0.884   1.223   3.237  0.1995  0.4340 -0.0509
 4401SOL     OW17601   3.324   0.264   4.197  0.7145  0.0506 -0.3295
 4401SOL    HW117602   3.332   0.336   4.260  1.4108  1.5227 -2.0119
 4401SOL    HW217603   3.229   0.249   4.189  0.6003  0.1941  0.6602
 4401SOL     MW17604   3.312   0.271   4.204  0.7928  0.2680 -0.4227
 4402SOL     OW17605   0.466   0.319   2.429 -0.2291  0.3228  0.6642
 4402SOL    HW117606   0.523   0.393   2.452  0.7950 -0.6857  1.5172
 4402SOL    HW217607   0.475   0.259   2.503 -1.0902 -0.6246  0.0167
 4402SOL     MW17608   0.475   0.321   2.442 -0.2072  0.0596  0.6918
 4403SOL     OW17609   1.231   5.287   1.717  0.3410 -0.3693 -0.3035
 4403SOL    HW117610   1.172   5.272   1.642  0.5078 -0.0520 -0.5009
 4403SOL    HW217611   1.270   5.202   1.734  0.8664 -0.2840 -1.0595
 4403SOL     MW17612   1.228   5.274   1.709  0.4342 -0.3151 -0.4318
 4404SOL     OW17613   2.408   0.807   4.713 -0.5361 -0.2289 -0.4193
 4404SOL    HW117614   2.395   0.738   4.647  1.1513 -0.4645 -0.5537
 4404SOL    HW217615   2.498   0.838   4.697 -0.3975  0.2932  1.2393
 4404SOL     MW17616   2.419   0.802   4.702 -0.2904 -0.1903 -0.2142
 4405SOL     OW17617   0.754   1.183   4.011  0.3556 -0.3622  0.3584
 4405SOL    HW117618   0.771   1.195   3.917 -0.2728  0.3594  0.3260
 4405SOL    HW217619   0.823   1.233   4.054  0.5864 -0.6112  0.2808
 4405SOL     MW17620   0.765   1.191   4.004  0.3021 -0.2986  0.3436
 4406SOL     OW17621   4.450   1.742   4.488  0.2836  0.2152 -0.1503
 4406SOL    HW117622   4.461   1.647   4.490 -0.7176  0.0755 -0.8057
 4406SOL    HW217623   4.362   1.756   4.455 -0.0791  1.3581  1.2038
 4406SOL     MW17624   4.440   1.731   4.484  0.1001  0.3502 -0.0563
 4407SOL     OW17625   2.539   1.145   3.813 -0.4825  0.2629  0.4296
 4407SOL    HW117626   2.622   1.164   3.769 -0.6961  0.0370 -0.0793
 4407SOL    HW217627   2.550   1.056   3.848 -1.7461 -1.3140 -2.7440
 4407SOL     MW17628   2.552   1.136   3.812 -0.6813  0.0203 -0.0660
 4408SOL     OW17629   2.511   4.055   2.383  0.4895  0.5306  0.4441
 4408SOL    HW117630   2.473   4.133   2.343  1.0910  0.1691 -0.8861
 4408SOL    HW217631   2.480   4.057   2.474 -2.2310  0.5675 -0.3776
 4408SOL     MW17632   2.502   4.065   2.390  0.2043  0.4869  0.1545
 4409SOL     OW17633   3.322   1.325   2.395  0.4226 -0.3496  0.0664
 4409SOL    HW117634   3.301   1.418   2.400  1.3355 -0.1969  1.4015
 4409SOL    HW217635   3.237   1.282   2.385  0.0143  0.6217 -0.8440
 4409SOL     MW17636   3.308   1.331   2.394  0.4905 -0.1983  0.1236
 4410SOL     OW17637   4.443   0.823   1.456  0.2174 -0.0261 -0.1898
 4410SOL    HW117638   4.481   0.744   1.419  1.1321  0.0414  0.5805
 4410SOL    HW217639   4.349   0.815   1.439  0.2175 -1.5886  0.4274
 4410SOL     MW17640   4.435   0.811   1.449  0.3406 -0.2273 -0.0031
 4411SOL     OW17641   1.339   5.359   5.280 -0.5913  0.3572  0.2829
 4411SOL    HW117642   1.366   5.270   5.301  0.2587  0.5053 -0.1218
 4411SOL    HW217643   1.244   5.359   5.289 -0.7716 -0.9969 -1.1473
 4411SOL     MW17644   1.330   5.347   5.284 -0.5011  0.1949  0.0360
 4412SOL     OW17645   1.757   3.634   2.823  0.1231  0.2081 -0.6444
 4412SOL    HW117646   1.725   3.550   2.790 -0.6128  0.2729 -0.1173
 4412SOL    HW217647   1.718   3.642   2.910  1.4851  0.3588 -0.0389
 4412SOL     MW17648   1.747   3.624   2.830  0.2073  0.2371 -0.4919
 4413SOL     OW17649   2.018   0.124   5.307  0.3926 -0.2044  0.0051
 4413SOL    HW117650   1.977   0.039   5.295 -0.0482 -0.0043  0.0964
 4413SOL    HW217651   2.018   0.138   5.401 -0.6121  0.4190 -0.0752
 4413SOL     MW17652   2.013   0.114   5.318  0.1981 -0.0936  0.0066
 4414SOL     OW17653   1.111   2.125   4.761 -0.2740  0.4277 -0.2927
 4414SOL    HW117654   1.199   2.098   4.732 -0.2889  2.0186 -2.0294
 4414SOL    HW217655   1.082   2.187   4.694 -1.6455  1.9910  1.6446
 4414SOL     MW17656   1.119   2.130   4.748 -0.4606  0.8522 -0.2657
 4415SOL     OW17657   0.922   0.571   1.782 -0.2248  0.1572  0.5613
 4415SOL    HW117658   0.902   0.479   1.803  1.3576 -0.0548  1.3008
 4415SOL    HW217659   1.013   0.569   1.752 -0.5369  1.3454 -0.5222
 4415SOL     MW17660   0.932   0.558   1.781 -0.0538  0.2886  0.5150
 4416SOL     OW17661   5.481   4.241   2.229  0.2479  0.0179  0.5513
 4416SOL    HW117662   5.545   4.170   2.225  0.3546  0.1493 -0.7011
 4416SOL    HW217663   5.479   4.276   2.140 -0.6623  0.8250  0.8678
 4416SOL     MW17664   5.490   4.236   2.216  0.1397  0.1442  0.4253
 4417SOL     OW17665   3.090   3.115   4.064 -0.1616  0.0755  0.4766
 4417SOL    HW117666   3.083   3.036   4.011  0.5335  0.3436 -0.0299
 4417SOL    HW217667   3.183   3.118   4.089  0.2169  1.6148 -0.9228
 4417SOL     MW17668   3.102   3.105   4.060 -0.0171  0.3187  0.2201
 4418SOL     OW17669   4.386   2.072   4.917 -0.0719 -0.3919 -0.0085
 4418SOL    HW117670   4.321   2.070   4.987  0.6706 -0.7401  0.6837
 4418SOL    HW217671   4.461   2.119   4.954  0.0383  0.1133 -0.8359
 4418SOL     MW17672   4.388   2.078   4.932  0.0428 -0.3707 -0.0267
 4419SOL     OW17673   4.669   1.029   5.477  0.4855 -0.5357 -0.1626
 4419SOL    HW117674   4.734   1.068   5.419  0.8068 -1.4930 -0.4615
 4419SOL    HW217675   4.654   1.095   5.544 -0.1825  0.7517 -1.5296
 4419SOL     MW17676   4.676   1.043   5.479  0.4388 -0.4913 -0.3868
 4420SOL     OW17677   5.149   2.101   1.074  0.2205 -0.6111 -0.4796
 4420SOL    HW117678   5.183   2.014   1.056 -0.4860 -1.1663  0.7638
 4420SOL    HW217679   5.093   2.121   0.999 -0.8905 -1.9260 -0.0464
 4420SOL     MW17680   5.146   2.092   1.062 -0.0241 -0.8628 -0.2539
 4421SOL     OW17681   5.399   2.132   3.858 -0.2837 -0.3433 -0.4591
 4421SOL    HW117682   5.444   2.209   3.823  0.1146  0.6832  2.0261
 4421SOL    HW217683   5.313   2.165   3.883 -0.8235 -1.2083 -1.1609
 4421SOL     MW17684   5.394   2.147   3.857 -0.3027 -0.3216 -0.2191
 4422SOL     OW17685   2.098   2.211   0.614 -0.1113 -0.4973 -0.0344
 4422SOL    HW117686   2.170   2.272   0.596 -0.1436 -0.2278  0.6943
 4422SOL    HW217687   2.079   2.170   0.530 -1.3532  1.8475 -1.0056
 4422SOL     MW17688   2.105   2.214   0.600 -0.2828 -0.1455 -0.0670
 4423SOL     OW17689   1.122   2.998   4.999 -0.3184  0.2600  0.6206
 4423SOL    HW117690   1.173   2.929   4.956  0.0686  1.2257 -0.5197
 4423SOL    HW217691   1.038   2.956   5.020 -0.2260 -0.4619 -0.3868
 4423SOL     MW17692   1.117   2.983   4.996 -0.2539  0.2928  0.3316
 4424SOL     OW17693   5.434   0.661   4.737 -0.5768 -0.0135 -0.4108
 4424SOL    HW117694   5.349   0.659   4.781 -0.4734  0.8568 -0.1496
 4424SOL    HW217695   5.495   0.624   4.800 -0.5210  0.7326 -0.0091
 4424SOL     MW17696   5.431   0.656   4.751 -0.5554  0.2041 -0.3216
 4425SOL     OW17697   3.300   5.412   2.195 -0.4340 -0.0471  0.1091
 4425SOL    HW117698   3.269   5.494   2.233  0.7277  0.2511  0.4436
 4425SOL    HW217699   3.380   5.436   2.148  0.4638 -1.1368  1.0221
 4425SOL     MW17700   3.307   5.427   2.194 -0.1569 -0.1536  0.2770
 4426SOL     OW17701   0.951   4.988   1.019  0.2232 -0.0436  0.0732
 4426SOL    HW117702   0.965   4.928   0.946  1.0344 -1.1571  1.1032
 4426SOL    HW217703   0.887   5.051   0.987 -0.0969 -1.0270 -1.2954
 4426SOL     MW17704   0.944   4.988   1.005  0.2893 -0.3258  0.0277
 4427SOL     OW17705   3.011   0.803   1.814 -0.3157 -0.3952 -0.3380
 4427SOL    HW117706   2.987   0.826   1.903  0.4334 -1.1696  0.0830
 4427SOL    HW217707   3.089   0.856   1.796 -0.2738 -0.4817 -0.4112
 4427SOL     MW17708   3.019   0.813   1.823 -0.2093 -0.5111 -0.2912
 4428SOL     OW17709   0.711   5.115   1.436  0.3191  0.3568 -0.3086
 4428SOL    HW117710   0.761   5.188   1.472  1.7463 -0.3482 -0.7358
 4428SOL    HW217711   0.714   5.048   1.504 -0.2316  0.3827 -0.2580
 4428SOL     MW17712   0.718   5.115   1.450  0.4370  0.2654 -0.3593
 4429SOL     OW17713   2.231   1.519   5.515 -0.2150  0.0129 -0.3620
 4429SOL    HW117714   2.193   1.601   5.482  0.1577 -0.1470 -1.2094
 4429SOL    HW217715   2.206   1.453   5.451  1.3274 -0.1304 -0.8665
 4429SOL     MW17716   2.223   1.521   5.502  0.0428 -0.0279 -0.5439
 4430SOL     OW17717   4.070   0.585   3.117 -0.6508  0.2593  0.2615
 4430SOL    HW117718   4.049   0.586   3.210  2.7546  1.1605  1.1753
 4430SOL    HW217719   4.060   0.676   3.089 -0.7126  0.1749  0.0068
 4430SOL     MW17720   4.066   0.597   3.126 -0.2008  0.3692  0.3502
 4431SOL     OW17721   4.963   1.990   1.267  0.1520  0.5873 -0.2068
 4431SOL    HW117722   5.012   2.021   1.190  0.1756 -0.2572 -0.5386
 4431SOL    HW217723   5.028   1.990   1.338  0.6662 -0.5324 -0.6457
 4431SOL     MW17724   4.979   1.994   1.266  0.2244  0.3230 -0.3105
 4432SOL     OW17725   3.225   0.158   3.373 -0.0161 -0.0061  0.5982
 4432SOL    HW117726   3.307   0.108   3.380  0.4802  0.7813  0.5154
 4432SOL    HW217727   3.210   0.191   3.461 -1.0262 -1.3305  0.9524
 4432SOL     MW17728   3.234   0.156   3.386 -0.0853 -0.0784  0.6347
 4433SOL     OW17729   2.049   4.379   1.404 -0.2286  0.2045  0.1613
 4433SOL    HW117730   1.970   4.432   1.394 -0.7146 -0.0208  2.3012
 4433SOL    HW217731   2.023   4.291   1.376 -0.2730  0.4365 -0.5612
 4433SOL     MW17732   2.035   4.374   1.399 -0.3000  0.2054  0.3521
 4434SOL     OW17733   2.424   4.959   4.299 -0.4013  0.0191  0.2398
 4434SOL    HW117734   2.400   4.952   4.207 -0.7204 -0.7029  0.3713
 4434SOL    HW217735   2.445   4.869   4.325  0.9970  0.4051  0.5189
 4434SOL     MW17736   2.424   4.946   4.290 -0.2561 -0.0261  0.2951
 4435SOL     OW17737   1.297   5.448   2.754 -0.3878  0.3811  0.1685
 4435SOL    HW117738   1.333   5.488   2.833  0.7252 -0.2385 -0.0085
 4435SOL    HW217739   1.271   5.360   2.781  0.2070  0.0863 -0.1870
 4435SOL     MW17740   1.298   5.442   2.768 -0.1579  0.2581  0.0968
 4436SOL     OW17741   2.059   4.623   2.048 -0.2154 -0.0094  0.4204
 4436SOL    HW117742   1.967   4.619   2.074  0.0703  0.0195  1.4530
 4436SOL    HW217743   2.056   4.627   1.952 -1.2609 -0.9069  0.3958
 4436SOL     MW17744   2.046   4.623   2.038 -0.3176 -0.1263  0.5560
 4437SOL     OW17745   3.353   4.146   0.789  0.1963  0.6581  0.0781
 4437SOL    HW117746   3.377   4.239   0.787  0.6838  0.5632  1.0864
 4437SOL    HW217747   3.436   4.100   0.802 -0.2813  0.2209  1.8210
 4437SOL     MW17748   3.367   4.152   0.791  0.1977  0.5865  0.4483
 4438SOL     OW17749   2.674   0.084   1.639  0.3180  0.1003 -0.2449
 4438SOL    HW117750   2.741   0.017   1.630  1.1278  0.9365 -0.5707
 4438SOL    HW217751   2.656   0.113   1.549 -0.7908 -0.3924 -0.2066
 4438SOL     MW17752   2.680   0.079   1.626  0.2778  0.1465 -0.2836
 4439SOL     OW17753   1.449   2.418   1.935 -0.1047 -0.1045 -0.0193
 4439SOL    HW117754   1.529   2.384   1.974  0.0235  0.5462  0.2806
 4439SOL    HW217755   1.437   2.504   1.973 -0.7326 -0.0275 -0.3669
 4439SOL     MW17756   1.458   2.425   1.945 -0.1719 -0.0066 -0.0257
 4440SOL     OW17757   3.383   2.541   1.971  0.1484  0.1197 -0.3338
 4440SOL    HW117758   3.454   2.476   1.973 -0.0107 -0.0756 -0.9108
 4440SOL    HW217759   3.408   2.606   2.037  1.1807  0.3722 -0.9521
 4440SOL     MW17760   3.396   2.541   1.980  0.2659  0.1274 -0.4947
 4441SOL     OW17761   0.337   2.427   1.277 -0.3973  0.3767 -0.3189
 4441SOL    HW117762   0.258   2.478   1.296 -0.2791  0.6268 -0.4983
 4441SOL    HW217763   0.367   2.460   1.192 -0.8497 -0.6393 -0.8907
 4441SOL     MW17764   0.330   2.438   1.268 -0.4423  0.2737 -0.4200
 4442SOL     OW17765   3.344   1.440   3.228  0.2326 -0.0216  0.2385
 4442SOL    HW117766   3.282   1.511   3.246 -0.6833 -0.8084  0.2658
 4442SOL    HW217767   3.416   1.482   3.180 -1.3270  0.5305 -1.7319
 4442SOL     MW17768   3.346   1.455   3.224 -0.1006 -0.0532 -0.0230
 4443SOL     OW17769   3.989   5.496   4.542  0.6693 -0.1072  0.6082
 4443SOL    HW117770   3.967   5.501   4.449 -0.6784  2.8524  0.9623
 4443SOL    HW217771   4.079   5.527   4.548  0.7187 -0.1912  0.3059
 4443SOL     MW17772   3.998   5.500   4.531  0.4946  0.2798  0.6152
 4444SOL     OW17773   0.825   0.059   4.704 -0.0227  0.3609 -0.4912
 4444SOL    HW117774   0.861  -0.027   4.681  0.2375  0.4827 -0.5499
 4444SOL    HW217775   0.807   0.053   4.798 -1.7923 -0.3893 -0.8440
 4444SOL     MW17776   0.828   0.046   4.714 -0.2258  0.2763 -0.5466
 4445SOL     OW17777   2.016   5.082   2.891 -0.4651 -0.2766  0.1236
 4445SOL    HW117778   2.013   5.007   2.951 -1.5356 -0.9742 -0.7650
 4445SOL    HW217779   1.925   5.099   2.869 -0.0638 -0.7804 -2.1632
 4445SOL     MW17780   2.003   5.074   2.896 -0.5551 -0.4383 -0.3038
 4446SOL     OW17781   3.453   4.402   0.074  0.3925  0.0525  0.0634
 4446SOL    HW117782   3.390   4.347   0.119  0.2033  1.6103  1.8149
 4446SOL    HW217783   3.402   4.474   0.038  1.2045  2.0879  2.6917
 4446SOL     MW17784   3.438   4.404   0.075  0.4763  0.5361  0.6528
 4447SOL     OW17785   2.811   1.780   2.147 -0.3905  0.2024 -0.4533
 4447SOL    HW117786   2.797   1.745   2.060 -1.4493  0.8813 -0.5694
 4447SOL    HW217787   2.744   1.847   2.157 -0.3690  0.0450  0.9301
 4447SOL     MW17788   2.801   1.784   2.137 -0.5301  0.2726 -0.2827
 4448SOL     OW17789   4.785   0.096   5.011  0.3203  0.0918  0.8161
 4448SOL    HW117790   4.851   0.160   5.039 -0.2893  2.2712 -2.2337
 4448SOL    HW217791   4.818   0.063   4.927 -1.2661 -0.7249  0.4754
 4448SOL     MW17792   4.799   0.100   5.003  0.0248  0.2752  0.3598
 4449SOL     OW17793   0.901   5.499   2.208 -0.0503  0.0927  0.0992
 4449SOL    HW117794   0.844   5.549   2.266 -1.2755 -2.9431  1.7676
 4449SOL    HW217795   0.963   5.457   2.267 -0.5420 -2.1202 -0.8526
 4449SOL     MW17796   0.902   5.500   2.224 -0.2814 -0.6137  0.1957
 4450SOL     OW17797   4.152   1.076   5.328  0.1865 -0.0350  0.2128
 4450SOL    HW117798   4.142   1.076   5.233 -2.2632  0.4537  0.3950
 4450SOL    HW217799   4.161   1.168   5.351  1.8013 -0.2202  0.4100
 4450SOL     MW17800   4.152   1.088   5.318  0.0742  0.0058  0.2639
 4451SOL     OW17801   0.364   4.864   4.709 -0.3890  0.3020 -0.3284
 4451SOL    HW117802   0.442   4.903   4.669  0.7280 -1.6336 -0.2044
 4451SOL    HW217803   0.396   4.824   4.790 -1.5456 -0.3696 -0.1840
 4451SOL     MW17804   0.379   4.864   4.714 -0.3943 -0.0489 -0.2923
 4452SOL     OW17805   0.837   3.455   0.533  0.5926 -0.0863 -0.6001
 4452SOL    HW117806   0.779   3.428   0.462 -0.9625  1.3442  0.0695
 4452SOL    HW217807   0.859   3.546   0.513  3.0112 -0.6856 -1.0449
 4452SOL     MW17808   0.832   3.464   0.521  0.7088  0.0255 -0.5698
 4453SOL     OW17809   2.735   2.279   0.572  0.4105 -0.5368  1.2366
 4453SOL    HW117810   2.830   2.272   0.558  0.5787  2.2209  0.5516
 4453SOL    HW217811   2.726   2.302   0.664  0.4884  0.2272  1.0583
 4453SOL     MW17812   2.747   2.281   0.582  0.4436 -0.0629  1.1204
 4454SOL     OW17813   0.317   0.010   0.177 -0.1377  0.5243 -0.6196
 4454SOL    HW117814   0.224   0.029   0.161 -0.1647  0.7318 -0.2232
 4454SOL    HW217815   0.358   0.095   0.187 -0.2768  0.4266  1.2524
 4454SOL     MW17816   0.310   0.024   0.176 -0.1601  0.5391 -0.3143
 4455SOL     OW17817   3.887   4.564   5.312  0.5303 -0.1107  0.0220
 4455SOL    HW117818   3.816   4.626   5.331 -0.6778 -1.4141 -0.1042
 4455SOL    HW217819   3.898   4.515   5.393 -0.7824 -1.8956 -0.8087
 4455SOL     MW17820   3.879   4.566   5.326  0.1911 -0.5263 -0.1068
 4456SOL     OW17821   5.149   2.901   2.797 -0.2187  0.4875  0.2759
 4456SOL    HW117822   5.198   2.824   2.826  0.4860  1.5321  1.9906
 4456SOL    HW217823   5.080   2.911   2.862  0.2913  1.8377  0.6490
 4456SOL     MW17824   5.147   2.892   2.810 -0.0553  0.8098  0.5569
 4457SOL     OW17825   3.986   4.381   0.946 -0.1664 -0.0509  0.0784
 4457SOL    HW117826   3.933   4.457   0.968  1.6513  1.9148 -1.8912
 4457SOL    HW217827   4.046   4.371   1.020 -0.2743  0.5500  0.2463
 4457SOL     MW17828   3.987   4.390   0.959  0.0637  0.2945 -0.1641
 4458SOL     OW17829   2.951   3.110   4.301 -0.1294  0.1783  0.1993
 4458SOL    HW117830   2.860   3.121   4.274 -0.0811  0.8016  0.2726
 4458SOL    HW217831   3.002   3.131   4.223 -0.0260  0.6349  0.3905
 4458SOL     MW17832   2.946   3.114   4.287 -0.1089  0.3236  0.2349
 4459SOL     OW17833   1.017   3.039   5.425  0.1308  0.2172  0.4098
 4459SOL    HW117834   1.061   2.974   5.370  1.7336  0.8651  0.8778
 4459SOL    HW217835   0.927   3.007   5.432 -0.0048 -0.1505 -2.1344
 4459SOL     MW17836   1.011   3.026   5.419  0.3283  0.2549  0.1304
 4460SOL     OW17837   2.413   0.709   0.656 -0.1076  0.5449  0.1544
 4460SOL    HW117838   2.395   0.671   0.570  1.1956  0.3321 -0.0484
 4460SOL    HW217839   2.382   0.643   0.718 -1.1090  0.7252 -0.1417
 4460SOL     MW17840   2.407   0.695   0.653 -0.0670  0.5406  0.0872
 4461SOL     OW17841   2.009   2.846   4.605  0.5859 -0.2694 -0.2889
 4461SOL    HW117842   1.951   2.902   4.552  2.2420  1.8920  0.0261
 4461SOL    HW217843   1.954   2.819   4.679 -0.8028 -0.6408 -1.3996
 4461SOL     MW17844   1.994   2.850   4.608  0.6219 -0.0285 -0.3960
 4462SOL     OW17845   2.083   1.086   1.096 -0.3839  0.0342  0.6461
 4462SOL    HW117846   2.025   1.139   1.040  0.4079  0.2912  0.0596
 4462SOL    HW217847   2.043   1.092   1.183 -1.2486  0.1986  0.2498
 4462SOL     MW17848   2.069   1.094   1.100 -0.3937  0.0909  0.5138
 4463SOL     OW17849   2.275   3.569   4.148 -0.9265 -0.4297 -0.2917
 4463SOL    HW117850   2.187   3.601   4.131 -0.7151 -0.7281 -2.1298
 4463SOL    HW217851   2.262   3.488   4.198 -1.5962  0.3596  0.8671
 4463SOL     MW17852   2.262   3.562   4.153 -0.9882 -0.3636 -0.3831
 4464SOL     OW17853   0.887   1.457   1.839  0.1375 -0.6327 -0.4789
 4464SOL    HW117854   0.794   1.464   1.815  0.6275  0.4837 -2.2312
 4464SOL    HW217855   0.917   1.377   1.797  0.1610 -0.5412 -0.6385
 4464SOL     MW17856   0.878   1.447   1.830  0.2066 -0.4701 -0.7362
 4465SOL     OW17857   0.274   3.768   3.160  0.2160 -0.7099  0.1981
 4465SOL    HW117858   0.292   3.762   3.254  0.6702  1.8310  0.3409
 4465SOL    HW217859   0.340   3.712   3.120  0.1183 -1.7037  1.3645
 4465SOL     MW17860   0.285   3.760   3.168  0.2640 -0.5017  0.3743
 4466SOL     OW17861   1.180   3.616   3.501 -0.1156 -0.4291 -0.0566
 4466SOL    HW117862   1.138   3.610   3.415  0.7788  2.1746 -0.7661
 4466SOL    HW217863   1.107   3.627   3.562 -0.7041 -1.2183 -0.5814
 4466SOL     MW17864   1.164   3.617   3.497 -0.0744 -0.1849 -0.2227
 4467SOL     OW17865   2.106   4.232   4.145 -0.7909 -0.3480  0.2018
 4467SOL    HW117866   2.021   4.276   4.145 -0.9767 -0.7003 -0.3083
 4467SOL    HW217867   2.099   4.164   4.078  0.6734  1.1169 -1.5580
 4467SOL     MW17868   2.094   4.229   4.136 -0.6189 -0.1982 -0.1037
 4468SOL     OW17869   2.687   4.267   1.077 -0.2925  0.0841 -0.1280
 4468SOL    HW117870   2.644   4.265   0.992 -1.5221 -1.7605  0.4640
 4468SOL    HW217871   2.617   4.286   1.139  0.6735  1.9311  0.4694
 4468SOL     MW17872   2.672   4.269   1.074 -0.3280  0.0844  0.0321
 4469SOL     OW17873   3.566   1.529   3.091 -0.0087  0.1598  0.2224
 4469SOL    HW117874   3.563   1.518   2.996 -0.3431  0.4313  0.1992
 4469SOL    HW217875   3.640   1.476   3.119 -0.1174 -0.1975 -0.1534
 4469SOL     MW17876   3.575   1.521   3.082 -0.0683  0.1483  0.1687
 4470SOL     OW17877   4.588   2.000   5.376  0.2064 -0.4792  0.0155
 4470SOL    HW117878   4.587   2.095   5.372  0.8068 -0.3894  1.4358
 4470SOL    HW217879   4.652   1.974   5.310 -1.8820 -0.0910 -2.3248
 4470SOL     MW17880   4.596   2.009   5.366  0.0061 -0.4149 -0.1083
 4471SOL     OW17881   4.661   5.108   2.969  0.1340 -0.2401 -0.4827
 4471SOL    HW117882   4.705   5.104   3.054 -0.2896  0.6587 -0.2165
 4471SOL    HW217883   4.728   5.142   2.909 -0.2136  1.3175 -0.0371
 4471SOL     MW17884   4.676   5.112   2.972  0.0302  0.0905 -0.3869
 4472SOL     OW17885   1.549   3.985   0.630  0.3047  0.1938  0.1013
 4472SOL    HW117886   1.610   3.910   0.628  1.0978  0.8266 -0.1332
 4472SOL    HW217887   1.482   3.963   0.565  0.5267 -0.3188  0.0366
 4472SOL     MW17888   1.549   3.972   0.621  0.4413  0.2100  0.0611
 4473SOL     OW17889   3.438   3.484   2.014  0.8095 -0.1575 -0.2918
 4473SOL    HW117890   3.410   3.575   2.018 -1.5045 -0.6851 -2.1602
 4473SOL    HW217891   3.496   3.474   2.090 -0.8880  2.1996  1.5021
 4473SOL     MW17892   3.442   3.495   2.025  0.2696  0.0887 -0.3019
 4474SOL     OW17893   5.330   1.357   4.066  0.5108  0.0567 -0.0504
 4474SOL    HW117894   5.366   1.270   4.079 -0.2218 -0.6433 -2.2701
 4474SOL    HW217895   5.287   1.353   3.980 -1.2028  2.0472  0.6277
 4474SOL     MW17896   5.330   1.345   4.056  0.1816  0.2304 -0.2578
 4475SOL     OW17897   3.846   3.645   4.816 -0.4496 -0.6195  0.4360
 4475SOL    HW117898   3.792   3.723   4.807 -0.8576 -1.0277 -0.8575
 4475SOL    HW217899   3.785   3.576   4.842 -0.2552 -0.7325  0.6039
 4475SOL     MW17900   3.831   3.646   4.819 -0.4783 -0.6896  0.2845
 4476SOL     OW17901   3.698   0.729   1.940 -0.3115  0.3852  0.0453
 4476SOL    HW117902   3.776   0.785   1.943 -0.4592  0.6836 -1.0350
 4476SOL    HW217903   3.625   0.787   1.962 -0.7396  1.2482 -3.1033
 4476SOL     MW17904   3.699   0.744   1.943 -0.3890  0.5415 -0.5238
 4477SOL     OW17905   5.225   0.916   3.001 -0.4618  0.7182  0.1419
 4477SOL    HW117906   5.210   0.914   3.095  0.6969 -0.6107  0.3314
 4477SOL    HW217907   5.141   0.888   2.963  0.2624 -3.2150  1.0188
 4477SOL     MW17908   5.211   0.912   3.009 -0.2084  0.0100  0.2854
 4478SOL     OW17909   5.272   3.087   4.553 -0.0846  0.3103  0.0419
 4478SOL    HW117910   5.332   3.037   4.498 -3.3696 -1.8536 -1.9723
 4478SOL    HW217911   5.248   3.027   4.624 -0.9074  0.5707  0.0005
 4478SOL     MW17912   5.277   3.072   4.555 -0.6374  0.0542 -0.2347
 4479SOL     OW17913   2.057   4.948   4.604  0.0848  0.4115  0.1238
 4479SOL    HW117914   1.979   4.990   4.641  0.2918  1.9351 -1.1033
 4479SOL    HW217915   2.117   4.941   4.678 -1.3432 -1.2743  1.2306
 4479SOL     MW17916   2.054   4.952   4.619 -0.0795  0.3897  0.1076
 4480SOL     OW17917   3.718   4.055   5.094  0.3458  0.0390 -0.0576
 4480SOL    HW117918   3.664   4.009   5.158 -0.4679  0.4787 -0.4025
 4480SOL    HW217919   3.748   4.134   5.139 -0.2631  0.3710 -0.2135
 4480SOL     MW17920   3.714   4.059   5.108  0.1544  0.1429 -0.1250
 4481SOL     OW17921   5.413   2.083   1.820  0.4421 -0.4513 -0.5179
 4481SOL    HW117922   5.366   2.089   1.904  0.5094 -1.1090 -0.4299
 4481SOL    HW217923   5.458   1.999   1.824  0.3977 -0.5124 -1.2409
 4481SOL     MW17924   5.413   2.072   1.832  0.4452 -0.5481 -0.6034
 4482SOL     OW17925   1.796   2.324   1.558 -0.0877  0.0392  0.1947
 4482SOL    HW117926   1.749   2.396   1.516  2.2361  0.8989 -1.0866
 4482SOL    HW217927   1.796   2.254   1.492 -0.3682 -0.3159  0.5635
 4482SOL     MW17928   1.789   2.324   1.543  0.1873  0.1071  0.0719
 4483SOL     OW17929   4.099   3.226   1.776  1.0124 -0.1097 -0.2210
 4483SOL    HW117930   4.043   3.176   1.716  0.5014  0.2962 -0.0926
 4483SOL    HW217931   4.071   3.317   1.763  0.4485 -0.0717  1.0891
 4483SOL     MW17932   4.087   3.232   1.766  0.8677 -0.0499 -0.0274
 4484SOL     OW17933   4.143   5.150   4.594 -0.2898  0.1090 -0.4068
 4484SOL    HW117934   4.138   5.151   4.498 -0.3863  1.7986 -0.4128
 4484SOL    HW217935   4.061   5.191   4.623 -0.0573  0.0242  0.3954
 4484SOL     MW17936   4.131   5.156   4.585 -0.2715  0.3250 -0.2996
 4485SOL     OW17937   0.738   4.237   2.850 -0.0118 -0.1356 -0.0874
 4485SOL    HW117938   0.664   4.197   2.897  0.3643  1.6307  2.1347
 4485SOL    HW217939   0.770   4.167   2.793 -2.0264 -1.6261  0.4837
 4485SOL     MW17940   0.732   4.222   2.848 -0.2323 -0.0985  0.2885
 4486SOL     OW17941   5.372   4.059   2.549  0.3565  0.4475 -0.0825
 4486SOL    HW117942   5.364   3.969   2.517  0.9117  0.2324  0.3885
 4486SOL    HW217943   5.320   4.110   2.487  0.1913 -0.1697 -0.4623
 4486SOL     MW17944   5.364   4.054   2.536  0.4090  0.3355 -0.0702
 4487SOL     OW17945   3.894   1.689   1.271 -0.1930  0.4477 -0.0717
 4487SOL    HW117946   3.858   1.614   1.224 -0.7383 -0.7087  2.0930
 4487SOL    HW217947   3.931   1.653   1.351  0.5103  2.3741  0.5451
 4487SOL     MW17948   3.894   1.674   1.275 -0.1718  0.5513  0.3026
 4488SOL     OW17949   1.069   0.689   2.310  0.4959  0.1923 -0.3134
 4488SOL    HW117950   1.055   0.783   2.298  2.2685  0.6154  0.4935
 4488SOL    HW217951   1.078   0.654   2.222 -1.6391  0.4830 -0.6868
 4488SOL     MW17952   1.069   0.697   2.297  0.4472  0.2884 -0.2551
 4489SOL     OW17953   2.029   4.115   1.339 -0.3485  0.3703 -0.3644
 4489SOL    HW117954   2.069   4.030   1.360  0.6773  0.6055 -1.2863
 4489SOL    HW217955   1.935   4.098   1.341 -0.1674 -0.7210 -0.2694
 4489SOL     MW17956   2.022   4.101   1.342 -0.1861  0.2551 -0.4757
 4490SOL     OW17957   1.363   1.437   4.749 -0.0164 -0.6142 -0.1510
 4490SOL    HW117958   1.396   1.471   4.832 -1.3743 -0.1017  0.1995
 4490SOL    HW217959   1.403   1.350   4.742 -0.5937 -1.0567  1.4950
 4490SOL     MW17960   1.373   1.430   4.759 -0.2768 -0.6048  0.1177
 4491SOL     OW17961   0.500   3.331   4.448  0.0228  0.1014  0.0203
 4491SOL    HW117962   0.477   3.256   4.502  1.3854 -0.7141 -0.4902
 4491SOL    HW217963   0.560   3.382   4.501  1.2725 -0.6408 -0.6354
 4491SOL     MW17964   0.505   3.328   4.462  0.3744 -0.1082 -0.1367
 4492SOL     OW17965   0.356   2.160   5.464 -0.3234  0.4763  0.0737
 4492SOL    HW117966   0.302   2.194   5.535  0.5654  0.8003  0.6095
 4492SOL    HW217967   0.403   2.087   5.502  1.2327  1.5214  0.2654
 4492SOL     MW17968   0.355   2.155   5.478  0.0056  0.6605  0.1716
 4493SOL     OW17969   2.182   2.464   1.032 -0.0700  0.1035 -0.1153
 4493SOL    HW117970   2.220   2.507   0.955 -0.0169  1.3455  0.5815
 4493SOL    HW217971   2.124   2.530   1.071 -0.0196 -0.4658  0.9728
 4493SOL     MW17972   2.179   2.478   1.027 -0.0561  0.1940  0.1249
 4494SOL     OW17973   2.213   1.755   0.696  0.1054 -0.4216 -0.0349
 4494SOL    HW117974   2.164   1.826   0.736 -1.0307 -1.5690  0.6350
 4494SOL    HW217975   2.305   1.783   0.703 -0.1219 -0.1497  2.4737
 4494SOL     MW17976   2.219   1.768   0.702 -0.0781 -0.5395  0.3928
 4495SOL     OW17977   0.854   1.687   5.241  0.4257 -0.7479  0.0290
 4495SOL    HW117978   0.948   1.701   5.235  0.0536  1.5715 -2.1553
 4495SOL    HW217979   0.822   1.698   5.151 -2.0749  0.0154  0.9081
 4495SOL     MW17980   0.862   1.691   5.228  0.0391 -0.3330 -0.1466
 4496SOL     OW17981   1.567   1.550   4.333 -0.4631  0.2881  0.1378
 4496SOL    HW117982   1.549   1.581   4.422 -1.6614  1.7881 -0.5728
 4496SOL    HW217983   1.651   1.505   4.340  0.5840  2.3165  1.6156
 4496SOL     MW17984   1.576   1.548   4.346 -0.4834  0.7630  0.2411
 4497SOL     OW17985   5.475   3.781   2.933  0.1646 -0.3581 -0.7599
 4497SOL    HW117986   5.460   3.688   2.917  1.1172 -0.3283 -2.0274
 4497SOL    HW217987   5.550   3.803   2.877  1.6969  0.5710  1.4719
 4497SOL     MW17988   5.483   3.772   2.923  0.4990 -0.2290 -0.6301
 4498SOL     OW17989   4.338   4.263   1.976  0.2650  0.2213  0.0608
 4498SOL    HW117990   4.347   4.346   1.929 -1.3592  0.3465 -0.0716
 4498SOL    HW217991   4.411   4.263   2.038  1.2546  0.9849 -1.0586
 4498SOL     MW17992   4.349   4.274   1.978  0.1796  0.3409 -0.1077
 4499SOL     OW17993   1.311   3.021   2.814  0.1747 -0.1973  0.2823
 4499SOL    HW117994   1.345   3.002   2.727  0.8305 -0.0314  0.4953
 4499SOL    HW217995   1.327   2.940   2.864 -0.8695 -0.5546  0.0580
 4499SOL     MW17996   1.318   3.007   2.809  0.1224 -0.2231  0.2808
 4500SOL     OW17997   3.454   2.801   0.492 -0.1341 -0.4599  0.8788
 4500SOL    HW117998   3.441   2.767   0.403 -2.7603  0.9371  0.6362
 4500SOL    HW217999   3.491   2.727   0.541 -0.6163 -1.9175 -0.8739
 4500SOL     MW18000   3.458   2.786   0.487 -0.5525 -0.4681  0.6102
 4501SOL     OW18001   3.874   4.630   2.335  0.3689  0.4201 -0.1554
 4501SOL    HW118002   3.850   4.660   2.248  0.8985  0.8239 -0.1721
 4501SOL    HW218003   3.966   4.604   2.327  1.5282  3.5783  0.9790
 4501SOL     MW18004   3.883   4.631   2.322  0.5962  0.8995 -0.0050
 4502SOL     OW18005   2.826   2.242   4.334  0.0916  0.1879 -0.1063
 4502SOL    HW118006   2.858   2.216   4.248 -0.4099 -0.7191 -0.0361
 4502SOL    HW218007   2.737   2.273   4.318 -0.0554 -0.1181  0.0986
 4502SOL     MW18008   2.818   2.242   4.320  0.0043  0.0246 -0.0693
 4503SOL     OW18009   4.679   1.947   2.102  0.1279  0.2532 -0.0414
 4503SOL    HW118010   4.696   1.978   2.191 -0.0085  0.4041 -0.0673
 4503SOL    HW218011   4.734   2.002   2.046  1.1834 -0.6740  0.0459
 4503SOL     MW18012   4.689   1.958   2.107  0.2516  0.1488 -0.0332
 4504SOL     OW18013   4.704   3.707   3.748 -0.2102  0.6218  0.2402
 4504SOL    HW118014   4.749   3.663   3.676 -0.9941 -0.6421  0.4877
 4504SOL    HW218015   4.614   3.674   3.744 -0.7230  1.9088  0.7071
 4504SOL     MW18016   4.698   3.697   3.738 -0.3847  0.6249  0.3364
 4505SOL     OW18017   5.089   0.460   2.523  0.4375  0.4352 -0.3150
 4505SOL    HW118018   5.156   0.502   2.576  0.6059  2.8320 -2.2387
 4505SOL    HW218019   5.057   0.529   2.465  0.5167 -2.0114 -3.5713
 4505SOL     MW18020   5.094   0.475   2.522  0.4708  0.4285 -1.0121
 4506SOL     OW18021   1.271   5.538   1.372  0.5628  0.0888  0.1810
 4506SOL    HW118022   1.349   5.488   1.394  0.3004 -0.6417 -0.5108
 4506SOL    HW218023   1.198   5.480   1.393  0.2198  0.5857  0.3766
 4506SOL     MW18024   1.272   5.524   1.377  0.4814  0.0573  0.1142
 4507SOL     OW18025   3.632   3.661   2.679  0.3024 -0.1962  0.8650
 4507SOL    HW118026   3.600   3.700   2.760  0.0688  0.8193  0.2993
 4507SOL    HW218027   3.699   3.721   2.649 -0.3267 -0.0124 -0.2200
 4507SOL     MW18028   3.636   3.674   2.686  0.1863 -0.0348  0.6429
 4508SOL     OW18029   1.830   3.872   2.673  0.2061  0.9577 -0.0552
 4508SOL    HW118030   1.793   3.822   2.745  2.9147 -0.4105  0.5554
 4508SOL    HW218031   1.818   3.816   2.596 -0.1249  1.0997 -0.1065
 4508SOL     MW18032   1.824   3.858   2.672  0.5261  0.7927  0.0201
 4509SOL     OW18033   3.378   3.418   0.590 -0.0131 -0.2294  0.9197
 4509SOL    HW118034   3.385   3.496   0.644 -0.3047  0.2374  0.3015
 4509SOL    HW218035   3.467   3.381   0.589  0.8138  1.6380 -1.0066
 4509SOL     MW18036   3.391   3.423   0.597  0.0589  0.0847  0.5773
 4510SOL     OW18037   0.445   2.117   2.269  0.1855 -0.5868  0.5873
 4510SOL    HW118038   0.395   2.108   2.189 -0.0170  1.4239  0.4410
 4510SOL    HW218039   0.381   2.107   2.339  0.0179 -0.4270  0.4556
 4510SOL     MW18040   0.430   2.115   2.268  0.1357 -0.2947  0.5498
 4511SOL     OW18041   0.622   2.039   3.721  0.1986 -0.1479  0.5693
 4511SOL    HW118042   0.646   1.954   3.685 -1.6852  0.0148 -1.2216
 4511SOL    HW218043   0.554   2.019   3.785 -0.4882  0.0156 -0.0992
 4511SOL     MW18044   0.616   2.025   3.725 -0.1474 -0.1040  0.2383
 4512SOL     OW18045   5.399   4.469   1.384  0.4817  0.5908 -0.1356
 4512SOL    HW118046   5.409   4.508   1.297  2.2685  0.4271 -0.0319
 4512SOL    HW218047   5.459   4.518   1.440  1.5022 -1.1436  0.3696
 4512SOL     MW18048   5.408   4.481   1.380  0.8595  0.3354 -0.0537
 4513SOL     OW18049   3.312   5.492   1.086  0.0654 -0.3978  0.2757
 4513SOL    HW118050   3.314   5.407   1.042 -0.7643  0.6024 -1.8204
 4513SOL    HW218051   3.221   5.503   1.114  0.2430 -0.3115  0.8472
 4513SOL     MW18052   3.300   5.482   1.084 -0.0224 -0.2515  0.0705
 4514SOL     OW18053   3.934   2.628   0.809  0.2088 -0.0916 -0.7629
 4514SOL    HW118054   3.874   2.680   0.755  1.5336  0.6268 -1.6120
 4514SOL    HW218055   3.925   2.665   0.897  0.6965  1.2141 -1.2417
 4514SOL     MW18056   3.925   2.640   0.814  0.4527  0.1808 -0.9416
 4515SOL     OW18057   1.800   3.914   1.716  0.3138  0.1258  0.1017
 4515SOL    HW118058   1.711   3.891   1.689  0.7813  0.9258 -2.3820
 4515SOL    HW218059   1.855   3.849   1.672  1.0423  0.4205  0.5674
 4515SOL     MW18060   1.795   3.902   1.707  0.4747  0.2731 -0.1699
 4516SOL     OW18061   5.251   0.616   2.673 -0.9302 -0.1421  0.3275
 4516SOL    HW118062   5.248   0.701   2.630  2.2892  0.9487  1.9604
 4516SOL    HW218063   5.225   0.633   2.764 -1.4509 -1.1687  0.3938
 4516SOL     MW18064   5.247   0.629   2.680 -0.5670 -0.1334  0.5562
 4517SOL     OW18065   3.982   0.054   0.258  0.1101 -0.0414 -0.0726
 4517SOL    HW118066   4.055   0.096   0.213  1.6071 -1.6749  0.6973
 4517SOL    HW218067   3.912   0.051   0.193  0.3748  2.3632 -0.5542
 4517SOL     MW18068   3.982   0.059   0.243  0.3472  0.0624 -0.0338
 4518SOL     OW18069   0.368   1.047   2.882  0.4625 -0.2350 -0.1280
 4518SOL    HW118070   0.401   1.104   2.812  0.5783 -0.4733 -0.2717
 4518SOL    HW218071   0.333   1.107   2.948  2.4567  0.0993  0.6922
 4518SOL     MW18072   0.368   1.063   2.881  0.7465 -0.2221 -0.0370
 4519SOL     OW18073   2.379   1.986   3.455  0.6721 -0.0931 -1.1340
 4519SOL    HW118074   2.286   2.008   3.463  0.7843  0.2041 -0.5390
 4519SOL    HW218075   2.383   1.921   3.385 -0.2002 -1.3580 -0.0759
 4519SOL     MW18076   2.367   1.980   3.447  0.5698 -0.2234 -0.9115
 4520SOL     OW18077   4.194   3.760   4.092 -0.1141  0.4877 -0.2015
 4520SOL    HW118078   4.219   3.721   4.175  0.6402  0.0667 -0.6185
 4520SOL    HW218079   4.274   3.760   4.040 -0.6768  0.3175 -1.0927
 4520SOL     MW18080   4.208   3.755   4.096 -0.0883  0.4081 -0.3776
 4521SOL     OW18081   2.974   3.729   0.677  0.2089 -0.7169  0.1626
 4521SOL    HW118082   2.909   3.775   0.624 -0.0017  1.2262  1.9798
 4521SOL    HW218083   3.053   3.729   0.624  0.1117  1.4919 -0.0652
 4521SOL     MW18084   2.976   3.735   0.662  0.1675 -0.1582  0.3765
 4522SOL     OW18085   0.891   0.788   0.967  0.3664 -0.0642  0.2129
 4522SOL    HW118086   0.939   0.828   1.039 -0.2543  1.0870  0.0093
 4522SOL    HW218087   0.879   0.858   0.903 -2.5165  0.0636  0.7251
 4522SOL     MW18088   0.896   0.803   0.968 -0.1051  0.1079  0.2545
 4523SOL     OW18089   5.001   3.560   2.195  0.2036  0.2581 -0.2705
 4523SOL    HW118090   4.979   3.469   2.216  2.2820 -0.3171 -0.3549
 4523SOL    HW218091   4.916   3.603   2.183 -0.9248 -0.9920  2.4466
 4523SOL     MW18092   4.987   3.553   2.196  0.3314  0.0124  0.0838
 4524SOL     OW18093   0.746   4.387   4.641  0.2589  0.2466  0.3570
 4524SOL    HW118094   0.726   4.319   4.577  1.5497 -0.8373  1.0536
 4524SOL    HW218095   0.674   4.449   4.633 -1.6506 -1.8323  0.5987
 4524SOL     MW18096   0.734   4.387   4.631  0.1757 -0.1790  0.4833
 4525SOL     OW18097   1.890   3.924   1.117  0.5118 -0.4951 -0.0357
 4525SOL    HW118098   1.981   3.928   1.087 -0.1103 -1.0050 -2.1986
 4525SOL    HW218099   1.881   3.836   1.154  0.8897 -0.4276  0.2246
 4525SOL     MW18100   1.901   3.912   1.118  0.4790 -0.5546 -0.2917
 4526SOL     OW18101   3.723   3.414   5.253  0.2599  0.0513  0.0861
 4526SOL    HW118102   3.652   3.452   5.304  0.2381  0.9826 -0.6134
 4526SOL    HW218103   3.783   3.487   5.237 -0.1233 -0.0134 -1.8681
 4526SOL     MW18104   3.721   3.429   5.258  0.2054  0.1679 -0.2710
 4527SOL     OW18105   3.595   4.234   5.427 -0.2250  0.2207  1.1804
 4527SOL    HW118106   3.536   4.292   5.476 -0.2098  1.6072 -0.3469
 4527SOL    HW218107   3.618   4.285   5.349  0.1312 -1.7026 -0.0181
 4527SOL     MW18108   3.590   4.249   5.423 -0.1750  0.1484  0.8135
 4528SOL     OW18109   4.762   4.665   3.800  0.1361  0.2438  0.5493
 4528SOL    HW118110   4.684   4.709   3.767  0.4200  1.2625  1.1724
 4528SOL    HW218111   4.813   4.645   3.722 -0.2138  0.6263  0.2186
 4528SOL     MW18112   4.759   4.668   3.785  0.1272  0.4324  0.5886
 4529SOL     OW18113   1.652   2.841   4.681 -0.2411 -0.1342  0.3868
 4529SOL    HW118114   1.599   2.771   4.719  0.3346  0.0559  1.6010
 4529SOL    HW218115   1.679   2.807   4.595 -0.2191 -1.2791  0.8298
 4529SOL     MW18116   1.649   2.827   4.674 -0.1607 -0.2627  0.6098
 4530SOL     OW18117   3.515   2.341   2.670 -0.1009 -0.9365 -0.2289
 4530SOL    HW118118   3.512   2.272   2.604  0.2541 -0.0890 -1.1573
 4530SOL    HW218119   3.607   2.347   2.695  0.0332 -0.1427 -0.8800
 4530SOL     MW18120   3.527   2.332   2.664 -0.0350 -0.7156 -0.4414
 4531SOL     OW18121   0.515   0.303   2.925 -0.1566 -0.0702 -0.3740
 4531SOL    HW118122   0.497   0.219   2.967  0.2806  0.7175  1.4868
 4531SOL    HW218123   0.430   0.333   2.893 -0.5790 -0.5180  0.3068
 4531SOL     MW18124   0.501   0.296   2.926 -0.1546 -0.0244 -0.0319
 4532SOL     OW18125   1.326   3.669   3.886  0.0507  0.1352 -0.4604
 4532SOL    HW118126   1.402   3.676   3.944 -0.5676 -1.3678  0.5995
 4532SOL    HW218127   1.351   3.717   3.807  1.6833  0.5560  0.2764
 4532SOL     MW18128   1.339   3.677   3.883  0.1872 -0.0104 -0.2186
 4533SOL     OW18129   5.329   3.273   0.071 -0.0466 -0.7245  0.6498
 4533SOL    HW118130   5.364   3.256  -0.017  0.9405  0.6105  0.7480
 4533SOL    HW218131   5.369   3.207   0.127 -0.1641 -1.1699  0.2143
 4533SOL     MW18132   5.339   3.262   0.066  0.0704 -0.6048  0.6044
 4534SOL     OW18133   1.319   1.853   0.247  0.0977 -0.1052 -0.0005
 4534SOL    HW118134   1.377   1.794   0.199  0.1542  0.3251 -0.4717
 4534SOL    HW218135   1.283   1.911   0.179 -0.2451  0.1563  0.4030
 4534SOL     MW18136   1.322   1.853   0.231  0.0592 -0.0121 -0.0096
 4535SOL     OW18137   1.839   2.101   4.578  0.7745 -0.1887  0.7727
 4535SOL    HW118138   1.839   2.114   4.483 -2.4215 -0.4453  0.6201
 4535SOL    HW218139   1.828   2.189   4.614  0.6652 -0.2224  0.8223
 4535SOL     MW18140   1.837   2.115   4.570  0.3297 -0.2278  0.7588
 4536SOL     OW18141   4.392   5.011   1.100 -0.1741 -0.3136  0.5164
 4536SOL    HW118142   4.317   4.994   1.157 -1.2571 -0.3926 -0.8684
 4536SOL    HW218143   4.389   5.106   1.085 -0.1808 -0.3588  0.2275
 4536SOL     MW18144   4.381   5.021   1.105 -0.3208 -0.3303  0.2912
 4537SOL     OW18145   5.279   0.210   0.559 -0.4431 -0.2425 -0.2184
 4537SOL    HW118146   5.231   0.226   0.640 -0.2041 -0.6424  0.0044
 4537SOL    HW218147   5.371   0.207   0.585 -0.4406 -1.5138 -0.3146
 4537SOL     MW18148   5.285   0.212   0.573 -0.4106 -0.4674 -0.2014
 4538SOL     OW18149   2.163   4.683   5.072 -0.0600  0.3134 -0.2289
 4538SOL    HW118150   2.179   4.743   5.145 -0.0042 -0.6309  0.5582
 4538SOL    HW218151   2.229   4.707   5.006  1.4591 -0.3255  0.9845
 4538SOL     MW18152   2.174   4.694   5.073  0.1519  0.1003  0.0404
 4539SOL     OW18153   4.134   3.419   4.287 -0.1928  0.0797  0.7138
 4539SOL    HW118154   4.124   3.412   4.192  0.6732 -2.0270  0.7422
 4539SOL    HW218155   4.201   3.486   4.299 -0.0974  0.1495 -0.1666
 4539SOL     MW18156   4.142   3.427   4.276 -0.0634 -0.1945  0.5991
 4540SOL     OW18157   1.951   3.930   0.827 -0.4261  0.4067  0.3249
 4540SOL    HW118158   1.893   3.864   0.864 -0.0862  0.1432  0.3893
 4540SOL    HW218159   1.914   3.950   0.741  1.7277 -2.9432 -1.6142
 4540SOL     MW18160   1.938   3.924   0.820 -0.0905 -0.0796  0.0726
 4541SOL     OW18161   3.596   1.223   4.924  0.0377  0.7539  0.3052
 4541SOL    HW118162   3.654   1.298   4.917  2.3164 -0.9578 -0.0998
 4541SOL    HW218163   3.632   1.158   4.864 -1.5003 -0.9100  1.0629
 4541SOL     MW18164   3.608   1.224   4.915  0.1374  0.2996  0.3527
 4542SOL     OW18165   3.528   3.038   4.303 -0.4713 -0.1490 -0.3166
 4542SOL    HW118166   3.492   2.989   4.377 -1.2420  1.0340  0.1223
 4542SOL    HW218167   3.530   2.975   4.231  0.4443 -1.3698  0.7358
 4542SOL     MW18168   3.523   3.023   4.303 -0.4518 -0.1541 -0.1159
 4543SOL     OW18169   3.613   0.838   5.489  0.1626 -0.0877 -0.3047
 4543SOL    HW118170   3.629   0.859   5.581 -1.4391 -1.0386  0.2401
 4543SOL    HW218171   3.651   0.751   5.478  1.1188  0.3739 -0.8085
 4543SOL     MW18172   3.621   0.829   5.500  0.0757 -0.1535 -0.2991
 4544SOL     OW18173   2.659   5.399   5.197  0.1130 -0.0771  0.0386
 4544SOL    HW118174   2.592   5.466   5.183  0.3854  0.3135  0.5901
 4544SOL    HW218175   2.652   5.378   5.290 -0.2340 -1.1042 -0.2030
 4544SOL     MW18176   2.649   5.405   5.207  0.1029 -0.1628  0.0803
 4545SOL     OW18177   0.618   1.440   2.107 -0.1102  0.3597  0.6285
 4545SOL    HW118178   0.627   1.535   2.113  0.2505  0.3612  0.1356
 4545SOL    HW218179   0.617   1.422   2.013 -2.4132  0.0801  0.6468
 4545SOL     MW18180   0.619   1.450   2.095 -0.3716  0.3223  0.5646
 4546SOL     OW18181   5.320   2.117   0.579  0.0181 -0.0274  0.5496
 4546SOL    HW118182   5.343   2.101   0.488  1.2038  0.3397  0.7627
 4546SOL    HW218183   5.390   2.173   0.612 -1.6039  1.8402  1.0491
 4546SOL     MW18184   5.332   2.122   0.571 -0.0407  0.2734  0.6455
 4547SOL     OW18185   1.050   2.759   4.235  0.1022  0.3691 -0.1638
 4547SOL    HW118186   0.990   2.685   4.244  0.5371 -0.2123 -1.7148
 4547SOL    HW218187   1.125   2.737   4.289  0.5338 -0.6681 -1.1627
 4547SOL     MW18188   1.052   2.746   4.243  0.2188  0.1513 -0.5070
 4548SOL     OW18189   2.034   0.278   1.239  0.0244  0.0408 -1.0403
 4548SOL    HW118190   2.067   0.208   1.182  0.0654  0.2624 -1.2902
 4548SOL    HW218191   1.945   0.250   1.261 -0.3229  0.3784 -1.9384
 4548SOL     MW18192   2.026   0.264   1.234 -0.0168  0.1160 -1.1948
 4549SOL     OW18193   0.339   0.655   3.099 -0.1526  0.1120  0.0321
 4549SOL    HW118194   0.425   0.698   3.092  0.0002  0.0713  1.2750
 4549SOL    HW218195   0.279   0.713   3.052  0.5553  0.1224 -0.8873
 4549SOL     MW18196   0.343   0.669   3.092 -0.0368  0.1079  0.0756
 4550SOL     OW18197   1.186   4.518   1.563  0.3085 -0.2750 -0.1641
 4550SOL    HW118198   1.245   4.444   1.572  0.6712  0.1596  1.2670
 4550SOL    HW218199   1.205   4.574   1.638 -0.8591  0.6321 -0.5015
 4550SOL     MW18200   1.196   4.516   1.575  0.2002 -0.0944 -0.0169
 4551SOL     OW18201   0.023   5.361   4.232  0.0193  1.0281 -0.1334
 4551SOL    HW118202   0.109   5.398   4.215 -0.4528  3.5368  2.0976
 4551SOL    HW218203   0.035   5.266   4.228  2.4078  1.3239 -1.6714
 4551SOL     MW18204   0.036   5.353   4.229  0.2772  1.4055 -0.0401
 4552SOL     OW18205   4.058   3.961   0.296 -0.3374  0.3125 -0.7281
 4552SOL    HW118206   4.070   3.951   0.201  1.4006  1.6400 -0.6996
 4552SOL    HW218207   3.988   4.025   0.304  0.4428  1.2604 -1.1827
 4552SOL     MW18208   4.050   3.969   0.284  0.0015  0.6187 -0.7854
 4553SOL     OW18209   3.073   2.857   5.437  0.0323 -0.5583 -0.3677
 4553SOL    HW118210   2.981   2.879   5.454  0.2880  0.5863 -0.3778
 4553SOL    HW218211   3.072   2.763   5.419 -1.0443 -0.6892  0.2637
 4553SOL     MW18212   3.060   2.848   5.437 -0.0782 -0.4218 -0.2840
 4554SOL     OW18213   2.254   5.382   1.797 -0.0652 -0.5983  0.0503
 4554SOL    HW118214   2.203   5.463   1.796 -0.4477 -0.8377 -1.1087
 4554SOL    HW218215   2.201   5.320   1.748 -0.5584 -2.0653  2.2852
 4554SOL     MW18216   2.240   5.385   1.791 -0.1830 -0.8279  0.1951
 4555SOL     OW18217   4.886   3.276   5.196  0.0085 -0.0022 -0.1997
 4555SOL    HW118218   4.886   3.307   5.105 -1.6150 -0.3525 -0.3521
 4555SOL    HW218219   4.817   3.327   5.239 -0.0908 -0.7144  0.5124
 4555SOL     MW18220   4.877   3.287   5.189 -0.2234 -0.1452 -0.1244
 4556SOL     OW18221   0.884   4.369   4.856 -0.2689 -0.0277 -0.1958
 4556SOL    HW118222   0.830   4.375   4.778 -1.6803  2.3865  0.8766
 4556SOL    HW218223   0.965   4.414   4.832  0.7982 -2.3211 -1.2958
 4556SOL     MW18224   0.888   4.376   4.842 -0.3153 -0.0114 -0.1995
 4557SOL     OW18225   4.656   0.253   4.803 -0.0318 -0.8739 -0.3391
 4557SOL    HW118226   4.710   0.209   4.869 -1.3797 -1.1369  0.6251
 4557SOL    HW218227   4.708   0.328   4.776  0.1839 -0.1839  1.7645
 4557SOL     MW18228   4.670   0.257   4.808 -0.1842 -0.8164  0.0738
 4558SOL     OW18229   1.278   1.121   3.517 -0.3279 -0.5511 -0.1917
 4558SOL    HW118230   1.271   1.180   3.442  1.5686  0.2206  0.1774
 4558SOL    HW218231   1.202   1.143   3.572 -1.2133 -0.4770 -1.4061
 4558SOL     MW18232   1.267   1.132   3.514 -0.1918 -0.4373 -0.3055
 4559SOL     OW18233   4.999   2.502   3.083  0.2323 -0.4977 -0.5151
 4559SOL    HW118234   4.964   2.566   3.144 -0.3628 -1.9446  0.7438
 4559SOL    HW218235   4.922   2.470   3.035  0.3328 -1.0617 -0.3183
 4559SOL     MW18236   4.984   2.506   3.085  0.1657 -0.7683 -0.3192
 4560SOL     OW18237   5.364   0.238   5.314  0.1301  0.1562 -0.5029
 4560SOL    HW118238   5.332   0.219   5.225  0.6156  1.9617 -1.1147
 4560SOL    HW218239   5.441   0.183   5.324  0.5005  0.4686 -1.4951
 4560SOL     MW18240   5.370   0.228   5.303  0.2453  0.4413 -0.7188
 4561SOL     OW18241   2.045   5.068   4.351 -0.5326 -0.5728 -0.6359
 4561SOL    HW118242   2.130   5.111   4.343 -0.3709 -0.6810  0.3509
 4561SOL    HW218243   2.044   5.032   4.440 -1.5958 -0.5963 -0.6364
 4561SOL     MW18244   2.056   5.069   4.362 -0.6539 -0.5905 -0.5032
 4562SOL     OW18245   0.869   0.587   5.012  0.1295 -0.0355 -0.1290
 4562SOL    HW118246   0.910   0.646   4.949 -2.6549  1.7029 -0.5086
 4562SOL    HW218247   0.847   0.643   5.087 -0.2947 -1.1680  0.6202
 4562SOL     MW18248   0.871   0.603   5.014 -0.3023  0.0461 -0.0793
 4563SOL     OW18249   3.926   1.882   2.515  0.6293  0.3294  0.0901
 4563SOL    HW118250   3.884   1.901   2.431  1.7785  1.0735 -0.3468
 4563SOL    HW218251   3.919   1.964   2.564  0.5338  0.0970  0.4646
 4563SOL     MW18252   3.920   1.896   2.510  0.7711  0.3983  0.0817
 4564SOL     OW18253   5.132   0.638   3.848  0.1100 -0.0545  0.3545
 4564SOL    HW118254   5.087   0.558   3.874  0.3763 -0.8230 -1.3432
 4564SOL    HW218255   5.064   0.706   3.847 -0.0571 -0.1583  2.1061
 4564SOL     MW18256   5.117   0.636   3.851  0.1234 -0.1719  0.3617
 4565SOL     OW18257   4.872   2.131   0.442 -0.3957  0.2190 -0.7545
 4565SOL    HW118258   4.908   2.083   0.367  0.6345  1.6929 -1.2661
 4565SOL    HW218259   4.948   2.175   0.480 -0.9063 -0.4159  1.1441
 4565SOL     MW18260   4.887   2.130   0.437 -0.3258  0.3319 -0.5678
 4566SOL     OW18261   1.627   2.815   3.257  0.2171  0.1547 -0.1871
 4566SOL    HW118262   1.589   2.829   3.344 -0.0090 -1.6026  0.0440
 4566SOL    HW218263   1.589   2.883   3.202 -1.1999  0.0681  0.6462
 4566SOL     MW18264   1.617   2.826   3.261 -0.0040 -0.0934 -0.0438
 4567SOL     OW18265   1.125   4.298   2.268  0.3071 -0.0430 -0.1606
 4567SOL    HW118266   1.103   4.256   2.185 -0.7015 -0.4896  0.3163
 4567SOL    HW218267   1.218   4.319   2.260  0.2315 -0.0940 -1.3894
 4567SOL     MW18268   1.135   4.296   2.256  0.1612 -0.1100 -0.2618
 4568SOL     OW18269   5.187   2.806   3.999 -0.1182 -0.4038  0.2102
 4568SOL    HW118270   5.193   2.887   4.051 -1.0458 -0.1717 -0.0283
 4568SOL    HW218271   5.127   2.751   4.048 -0.3229 -0.5264 -0.1775
 4568SOL     MW18272   5.180   2.810   4.013 -0.2706 -0.3891  0.1259
 4569SOL     OW18273   5.442   1.596   0.409 -0.1518 -0.2893 -0.3153
 4569SOL    HW118274   5.515   1.545   0.372  0.6356  0.8178 -0.3190
 4569SOL    HW218275   5.471   1.687   0.405 -0.7928  0.0165  1.3686
 4569SOL     MW18276   5.456   1.601   0.403 -0.1321 -0.0992 -0.0892
 4570SOL     OW18277   2.797   2.842   0.794 -0.1537 -0.3567  0.4085
 4570SOL    HW118278   2.726   2.850   0.731 -0.7831 -2.1004  0.8468
 4570SOL    HW218279   2.770   2.896   0.868  0.8623  2.1932 -0.9662
 4570SOL     MW18280   2.784   2.850   0.796 -0.1017 -0.2482  0.2825
 4571SOL     OW18281   2.813   4.149   5.344 -0.2265  0.2329  0.2682
 4571SOL    HW118282   2.729   4.132   5.388 -0.1775  0.3942  0.4236
 4571SOL    HW218283   2.838   4.064   5.307  0.4089 -0.2343  1.7147
 4571SOL     MW18284   2.805   4.135   5.345 -0.1344  0.1917  0.4838
 4572SOL     OW18285   0.239   1.666   1.694  0.3060 -0.3271  0.0729
 4572SOL    HW118286   0.303   1.717   1.644  0.0109 -0.1323 -0.1122
 4572SOL    HW218287   0.239   1.580   1.652 -0.4955  0.0630 -0.7634
 4572SOL     MW18288   0.247   1.662   1.682  0.1584 -0.2484 -0.0646
 4573SOL     OW18289   5.192   2.190   4.151  0.2538 -0.2724 -0.1814
 4573SOL    HW118290   5.164   2.239   4.228  1.2142 -0.2511  0.1632
 4573SOL    HW218291   5.112   2.149   4.119 -0.8813  2.5165 -1.2559
 4573SOL     MW18292   5.177   2.191   4.157  0.2303  0.1058 -0.2797
 4574SOL     OW18293   0.526   2.382   2.265  0.1412  0.0017  0.5955
 4574SOL    HW118294   0.486   2.297   2.282  0.2401 -0.1033  0.3101
 4574SOL    HW218295   0.607   2.382   2.317  0.2199 -0.1409  0.4730
 4574SOL     MW18296   0.532   2.371   2.275  0.1651 -0.0316  0.5406
 4575SOL     OW18297   2.882   4.587   0.622  0.0243 -0.1326  0.3872
 4575SOL    HW118298   2.851   4.497   0.605 -0.3038 -0.2418  1.4715
 4575SOL    HW218299   2.879   4.629   0.536 -2.2206 -0.4357  0.2412
 4575SOL     MW18300   2.877   4.580   0.608 -0.3220 -0.1881  0.5135
 4576SOL     OW18301   5.443   2.686   4.045 -0.8150 -0.5006  0.4109
 4576SOL    HW118302   5.354   2.707   4.014 -0.8259  1.5906  1.6498
 4576SOL    HW218303   5.500   2.745   3.995 -0.3818 -0.2494  1.1814
 4576SOL     MW18304   5.438   2.697   4.034 -0.7582 -0.1854  0.6813
 4577SOL     OW18305   1.830   2.367   4.669 -0.3845 -0.4100 -0.2165
 4577SOL    HW118306   1.922   2.391   4.657 -0.3455 -1.0683 -1.3808
 4577SOL    HW218307   1.813   2.383   4.762  0.3374  1.6202 -0.3833
 4577SOL     MW18308   1.840   2.372   4.680 -0.2821 -0.2253 -0.3956
 4578SOL     OW18309   4.237   0.676   2.231  0.3277 -0.3776  0.4698
 4578SOL    HW118310   4.280   0.753   2.193  3.0169 -1.3989  1.2250
 4578SOL    HW218311   4.241   0.610   2.162 -0.3401 -0.4057  0.4511
 4578SOL     MW18312   4.243   0.678   2.216  0.5998 -0.5188  0.5689
 4579SOL     OW18313   3.483   3.497   5.352 -0.7579  0.6707 -0.2322
 4579SOL    HW118314   3.438   3.417   5.327 -1.3180  1.0081 -0.3173
 4579SOL    HW218315   3.485   3.495   5.448  0.4914 -0.1256 -0.2404
 4579SOL     MW18316   3.477   3.486   5.362 -0.6652  0.6089 -0.2448
 4580SOL     OW18317   3.410   4.039   5.358  0.1678 -0.2328 -0.1365
 4580SOL    HW118318   3.319   4.064   5.344  0.3338  0.3345 -0.2746
 4580SOL    HW218319   3.448   4.114   5.405  0.1618 -1.1685  1.4456
 4580SOL     MW18320   3.403   4.053   5.363  0.1893 -0.2824  0.0578
 4581SOL     OW18321   0.333   2.007   3.292  0.2643 -0.3321 -0.5001
 4581SOL    HW118322   0.415   2.048   3.263  0.8252  0.4439  1.8965
 4581SOL    HW218323   0.325   1.928   3.238  1.9759  0.1732 -1.5907
 4581SOL     MW18324   0.343   2.002   3.281  0.5702 -0.1597 -0.3244
 4582SOL     OW18325   5.453   2.466   3.189 -0.3026 -0.2821  0.2949
 4582SOL    HW118326   5.365   2.437   3.213  0.1094 -2.4226 -0.5243
 4582SOL    HW218327   5.497   2.478   3.273 -0.8382 -1.0743  0.7065
 4582SOL     MW18328   5.447   2.464   3.204 -0.3192 -0.6768  0.2401
 4583SOL     OW18329   0.984   2.460   2.240 -0.3481 -0.0920  0.0962
 4583SOL    HW118330   1.041   2.383   2.236 -1.9150 -1.4831  2.1676
 4583SOL    HW218331   0.978   2.491   2.150  1.8169 -1.2405 -0.5173
 4583SOL     MW18332   0.991   2.454   2.228 -0.2676 -0.4338  0.2924
 4584SOL     OW18333   0.557   2.761   4.343  0.3383 -0.4595 -0.4814
 4584SOL    HW118334   0.463   2.767   4.324  0.5110  0.4266 -1.1409
 4584SOL    HW218335   0.597   2.822   4.281  1.1831  0.5482  0.9978
 4584SOL     MW18336   0.549   2.770   4.332  0.4752 -0.2046 -0.3711
 4585SOL     OW18337   2.011   2.579   0.658  0.6090  0.4587  0.1044
 4585SOL    HW118338   1.989   2.501   0.709  0.5528  0.9431  0.8448
 4585SOL    HW218339   2.035   2.546   0.572  0.1779 -0.3430  0.2807
 4585SOL     MW18340   2.011   2.564   0.653  0.5434  0.4160  0.2278
 4586SOL     OW18341   5.039   1.579   5.021  0.6536  0.2106  0.4451
 4586SOL    HW118342   5.061   1.565   4.929 -1.8911 -0.1156 -0.1603
 4586SOL    HW218343   5.085   1.508   5.067  0.9092 -0.4029 -0.7017
 4586SOL     MW18344   5.048   1.568   5.015  0.3455  0.0841  0.2093
 4587SOL     OW18345   4.211   2.215   3.766 -0.7544  0.1024 -0.6315
 4587SOL    HW118346   4.230   2.309   3.776 -0.2293 -0.1961  1.5821
 4587SOL    HW218347   4.136   2.200   3.824 -0.6185 -0.9274 -0.7132
 4587SOL     MW18348   4.203   2.226   3.775 -0.6655 -0.0763 -0.3446
 4588SOL     OW18349   4.689   5.337   5.366  0.4522 -0.2308  0.3153
 4588SOL    HW118350   4.719   5.382   5.445 -0.3737  0.8907  0.0225
 4588SOL    HW218351   4.666   5.249   5.396  0.5092  0.0648  1.2573
 4588SOL     MW18352   4.690   5.331   5.381  0.3487 -0.0401  0.4027
 4589SOL     OW18353   4.732   0.674   1.602  0.3660  0.2723 -0.4052
 4589SOL    HW118354   4.705   0.587   1.633  0.3939  0.2222 -0.5217
 4589SOL    HW218355   4.682   0.735   1.657  2.7574  0.2658  1.9803
 4589SOL     MW18356   4.721   0.670   1.614  0.6916  0.2647 -0.0998
 4590SOL     OW18357   4.839   1.400   3.324  0.4716 -0.1339  0.3357
 4590SOL    HW118358   4.785   1.337   3.371 -1.2046  1.6591  0.9848
 4590SOL    HW218359   4.896   1.437   3.391 -0.1817  0.6465  0.4859
 4590SOL     MW18360   4.839   1.397   3.340  0.1581  0.2125  0.4433
 4591SOL     OW18361   4.963   2.615   4.856 -0.0250 -0.7939  0.2458
 4591SOL    HW118362   5.045   2.599   4.811  1.0712  1.5036  1.2554
 4591SOL    HW218363   4.900   2.632   4.785  1.2389  0.9759 -0.5216
 4591SOL     MW18364   4.965   2.615   4.840  0.2926 -0.2465  0.2784
 4592SOL     OW18365   0.064   1.734   3.802  0.2566  0.1082 -0.0943
 4592SOL    HW118366  -0.023   1.751   3.765  0.2299  0.7106  0.2378
 4592SOL    HW218367   0.059   1.645   3.835 -0.7791  0.6884  1.4127
 4592SOL     MW18368   0.051   1.724   3.801  0.1136  0.2674  0.1532
 4593SOL     OW18369   2.613   0.878   3.856  0.2967 -0.1243  0.0662
 4593SOL    HW118370   2.540   0.824   3.886 -0.2430 -0.0361 -1.0746
 4593SOL    HW218371   2.690   0.837   3.897 -0.2868 -0.6891  0.6393
 4593SOL     MW18372   2.614   0.865   3.866  0.1455 -0.1884 -0.0102
 4594SOL     OW18373   0.861   1.978   4.808  0.0123 -0.2704  0.2354
 4594SOL    HW118374   0.850   1.916   4.736  0.8264 -0.2828  0.1185
 4594SOL    HW218375   0.944   2.022   4.791 -0.2658  0.4361  0.6412
 4594SOL     MW18376   0.871   1.975   4.796  0.0845 -0.1770  0.2743
 4595SOL     OW18377   2.929   1.544   2.846 -0.0769  0.0802 -0.1404
 4595SOL    HW118378   2.887   1.475   2.796  0.7496  0.1203 -0.9068
 4595SOL    HW218379   3.023   1.526   2.839  0.1818  1.4793 -0.6843
 4595SOL     MW18380   2.936   1.532   2.839  0.0692  0.2739 -0.3168
 4596SOL     OW18381   1.497   4.517   0.742 -0.5177  0.1689 -0.3431
 4596SOL    HW118382   1.443   4.537   0.666  0.9728 -1.9616 -2.1039
 4596SOL    HW218383   1.455   4.440   0.781 -0.1414  0.0048 -0.2567
 4596SOL     MW18384   1.484   4.509   0.737 -0.2665 -0.1399 -0.5684
 4597SOL     OW18385   0.730   5.149   5.341  0.1298  0.5565  0.4154
 4597SOL    HW118386   0.736   5.158   5.246 -0.5552 -0.1189  0.2964
 4597SOL    HW218387   0.730   5.239   5.374 -1.1741  0.8621 -0.3407
 4597SOL     MW18388   0.731   5.163   5.333 -0.1379  0.5068  0.2976
 4598SOL     OW18389   0.166   0.321   5.141  0.0209 -0.1806  0.1291
 4598SOL    HW118390   0.099   0.388   5.127  0.4940  0.3000  0.1442
 4598SOL    HW218391   0.234   0.341   5.077 -0.6047 -1.6948 -1.0541
 4598SOL     MW18392   0.166   0.333   5.131  0.0004 -0.3197 -0.0281
 4599SOL     OW18393   0.767   2.992   3.375 -0.0480 -0.0015 -0.2247
 4599SOL    HW118394   0.838   2.930   3.388  1.2207  1.3137 -0.5567
 4599SOL    HW218395   0.716   2.956   3.303  0.3079 -0.9420 -0.0167
 4599SOL     MW18396   0.770   2.979   3.367  0.1706  0.0489 -0.2414
 4600SOL     OW18397   1.838   1.465   4.270 -0.3046  0.2791  0.1355
 4600SOL    HW118398   1.899   1.517   4.216  0.8515 -0.9031  0.2459
 4600SOL    HW218399   1.893   1.430   4.340 -1.6076  1.0397  1.5891
 4600SOL     MW18400   1.854   1.468   4.272 -0.3244  0.2224  0.3460
 4601SOL     OW18401   3.068   1.579   4.990 -0.0822 -0.4468 -0.7006
 4601SOL    HW118402   3.082   1.508   4.928  0.2495 -1.6015  0.6583
 4601SOL    HW218403   3.004   1.544   5.053 -0.6699  0.8162 -0.5570
 4601SOL     MW18404   3.061   1.565   4.990 -0.1166 -0.4323 -0.4984
 4602SOL     OW18405   4.368   2.890   2.624 -0.0337 -0.5034  0.0678
 4602SOL    HW118406   4.449   2.937   2.605 -0.8646  0.6844 -0.6795
 4602SOL    HW218407   4.363   2.887   2.719  0.9814 -0.7778  0.1210
 4602SOL     MW18408   4.378   2.896   2.634 -0.0089 -0.3805 -0.0256
 4603SOL     OW18409   5.349   2.352   2.471  0.3611  0.4400 -0.0986
 4603SOL    HW118410   5.309   2.278   2.518  0.5216  0.2565 -0.2480
 4603SOL    HW218411   5.331   2.334   2.379  1.1137  0.1497 -0.2007
 4603SOL     MW18412   5.342   2.339   2.465  0.4840  0.3762 -0.1325
 4604SOL     OW18413   4.722   2.600   3.434  0.4796 -0.5585 -0.1848
 4604SOL    HW118414   4.741   2.506   3.439  1.2138 -0.3761  0.5545
 4604SOL    HW218415   4.749   2.635   3.519 -0.0300  0.2842 -0.3568
 4604SOL     MW18416   4.728   2.592   3.446  0.5098 -0.4205 -0.1084
 4605SOL     OW18417   4.880   1.297   2.590 -0.2503  0.5213 -0.8266
 4605SOL    HW118418   4.954   1.343   2.549 -1.1346  1.1987 -1.7323
 4605SOL    HW218419   4.919   1.220   2.630  0.9676  0.9181 -1.1833
 4605SOL     MW18420   4.895   1.293   2.590 -0.2054  0.6659 -0.9965
 4606SOL     OW18421   2.594   1.066   2.777  0.2527  0.2081 -0.5680
 4606SOL    HW118422   2.675   1.054   2.728  0.2669  1.5056 -0.9041
 4606SOL    HW218423   2.623   1.080   2.867  0.2938 -0.9215 -0.3866
 4606SOL     MW18424   2.609   1.066   2.783  0.2602  0.2307 -0.5888
 4607SOL     OW18425   4.280   0.500   0.836 -0.3938 -0.5080 -0.3794
 4607SOL    HW118426   4.201   0.545   0.868 -0.6993 -0.8038 -0.7157
 4607SOL    HW218427   4.350   0.536   0.890 -0.8907 -0.9416  0.5955
 4607SOL     MW18428   4.279   0.511   0.848 -0.5018 -0.6062 -0.2935
 4608SOL     OW18429   2.114   1.404   0.464 -0.0476  0.1304 -0.3218
 4608SOL    HW118430   2.165   1.485   0.465 -0.0223  0.1081  0.8553
 4608SOL    HW218431   2.125   1.370   0.375  1.8043  0.2462 -0.1747
 4608SOL     MW18432   2.122   1.410   0.452  0.2050  0.1430 -0.1436
 4609SOL     OW18433   2.268   5.364   0.889 -0.2321  0.0630  0.1759
 4609SOL    HW118434   2.193   5.319   0.929  0.1668 -1.0173 -0.2620
 4609SOL    HW218435   2.344   5.312   0.915  0.0247 -0.8344 -2.1273
 4609SOL     MW18436   2.268   5.351   0.898 -0.1439 -0.2032 -0.1930
 4610SOL     OW18437   4.894   3.930   5.431 -0.1373 -0.2014  0.4142
 4610SOL    HW118438   4.871   3.998   5.368  0.2658 -0.4911 -0.0589
 4610SOL    HW218439   4.911   3.976   5.513 -4.1994 -0.0740  1.3987
 4610SOL     MW18440   4.893   3.945   5.433 -0.6297 -0.2233  0.4830
 4611SOL     OW18441   5.140   0.457   0.254  0.0873  0.6491  0.3643
 4611SOL    HW118442   5.144   0.365   0.280 -0.0328  0.2385 -0.9754
 4611SOL    HW218443   5.119   0.454   0.160 -1.5483  2.0740  0.6408
 4611SOL     MW18444   5.138   0.444   0.245 -0.1490  0.7856  0.2212
 4612SOL     OW18445   5.261   0.098   4.838 -0.1607  0.1384 -0.2237
 4612SOL    HW118446   5.341   0.116   4.789  0.3215 -0.3754  0.3698
 4612SOL    HW218447   5.193   0.145   4.790  0.4114  0.1776 -1.0193
 4612SOL     MW18448   5.263   0.106   4.825 -0.0188  0.0746 -0.2509
 4613SOL     OW18449   5.007   0.859   2.416 -0.4165 -0.1123  0.0751
 4613SOL    HW118450   4.959   0.918   2.359  0.4696 -0.3752 -0.9926
 4613SOL    HW218451   4.951   0.847   2.492 -1.1834  1.0545 -0.2822
 4613SOL     MW18452   4.993   0.865   2.418 -0.4005  0.0094 -0.1167
 4614SOL     OW18453   4.069   0.839   3.907 -0.3660 -0.0724  0.5593
 4614SOL    HW118454   4.013   0.834   3.985 -1.3248 -1.3880 -0.1733
 4614SOL    HW218455   4.009   0.824   3.834  0.8485 -0.9342 -0.2868
 4614SOL     MW18456   4.053   0.836   3.908 -0.3316 -0.3654  0.3469
 4615SOL     OW18457   1.781   3.707   0.903 -0.0017 -0.1249  0.2206
 4615SOL    HW118458   1.713   3.739   0.962  0.4672  0.2641  0.5541
 4615SOL    HW218459   1.746   3.721   0.816 -0.2140  0.3896  0.3840
 4615SOL     MW18460   1.767   3.713   0.900  0.0328 -0.0034  0.2875
 4616SOL     OW18461   3.117   3.855   3.603  0.0087  0.0882  0.4427
 4616SOL    HW118462   3.038   3.908   3.609 -1.2568 -1.5018 -1.0926
 4616SOL    HW218463   3.169   3.897   3.534 -0.0241  0.4522  0.6352
 4616SOL     MW18464   3.114   3.868   3.594 -0.1660 -0.0768  0.2620
 4617SOL     OW18465   1.199   1.513   5.134 -0.0575  0.0243 -0.4157
 4617SOL    HW118466   1.173   1.463   5.212 -1.0049 -0.2185 -0.8670
 4617SOL    HW218467   1.141   1.481   5.065  1.3593 -0.4054 -1.4484
 4617SOL     MW18468   1.188   1.502   5.135  0.0057 -0.0662 -0.6154
 4618SOL     OW18469   2.209   4.393   2.751  0.0541 -0.4322  0.1750
 4618SOL    HW118470   2.223   4.346   2.669 -0.4762 -0.0851 -0.1168
 4618SOL    HW218471   2.288   4.447   2.761 -0.9671  1.4712 -1.4423
 4618SOL     MW18472   2.222   4.394   2.741 -0.1547 -0.1293 -0.0819
 4619SOL     OW18473   4.226   0.812   4.514  0.1485 -0.1271  0.6653
 4619SOL    HW118474   4.165   0.878   4.547 -1.1915 -0.6280 -0.6882
 4619SOL    HW218475   4.212   0.736   4.571  0.5542  0.2224  1.2418
 4619SOL     MW18476   4.216   0.811   4.526  0.0228 -0.1475  0.5608
 4620SOL     OW18477   5.261   2.548   0.097 -0.0552  0.0656 -0.3133
 4620SOL    HW118478   5.192   2.579   0.037 -0.3460  2.9345  1.2925
 4620SOL    HW218479   5.214   2.530   0.178  0.6579 -1.4272 -0.2184
 4620SOL     MW18480   5.245   2.550   0.100  0.0016  0.2508 -0.0844
 4621SOL     OW18481   3.590   3.692   1.328 -0.5365  0.3510 -0.5476
 4621SOL    HW118482   3.627   3.718   1.243  1.4283 -0.4895 -0.0051
 4621SOL    HW218483   3.631   3.607   1.346 -0.4129  0.8135  1.5352
 4621SOL     MW18484   3.601   3.684   1.319 -0.2554  0.3002 -0.1943
 4622SOL     OW18485   0.547   1.425   2.979  0.0841  0.0642 -0.1959
 4622SOL    HW118486   0.570   1.407   3.070  2.1529 -1.8654 -1.0131
 4622SOL    HW218487   0.521   1.517   2.979  1.6529  0.6002  2.0816
 4622SOL     MW18488   0.547   1.435   2.991  0.5737 -0.1233  0.0007
 4623SOL     OW18489   2.265   2.260   2.616 -0.4762 -0.3729 -0.5306
 4623SOL    HW118490   2.178   2.300   2.607 -0.6599 -0.8202 -0.7526
 4623SOL    HW218491   2.324   2.335   2.626 -0.6634  0.0297 -2.1075
 4623SOL     MW18492   2.261   2.276   2.616 -0.5261 -0.3789 -0.7727
 4624SOL     OW18493   1.824   1.432   0.795  0.1881 -0.3147 -0.1742
 4624SOL    HW118494   1.865   1.407   0.878  1.9101 -0.8311 -1.1408
 4624SOL    HW218495   1.863   1.373   0.730 -0.0338  1.0312 -1.5837
 4624SOL     MW18496   1.835   1.421   0.798  0.3900 -0.2031 -0.4940
 4625SOL     OW18497   1.061   2.289   0.613  0.3724  0.8257 -0.1002
 4625SOL    HW118498   1.063   2.250   0.526 -1.3998 -0.0630  0.2241
 4625SOL    HW218499   0.987   2.349   0.612 -1.0259 -0.7793  1.3978
 4625SOL     MW18500   1.052   2.292   0.601 -0.0543  0.4901  0.1451
 4626SOL     OW18501   4.947   3.882   2.200 -0.1383  0.0273  0.1111
 4626SOL    HW118502   4.926   3.969   2.235  1.3518 -0.7254  3.2551
 4626SOL    HW218503   4.868   3.831   2.215 -0.7350  0.5982 -0.9875
 4626SOL     MW18504   4.934   3.887   2.207 -0.0181  0.0028  0.3864
 4627SOL     OW18505   2.656   1.292   5.216  0.3341 -0.1075  0.1380
 4627SOL    HW118506   2.597   1.320   5.286  0.5360  0.1761  0.1939
 4627SOL    HW218507   2.656   1.365   5.154  4.0217  1.9543  2.1823
 4627SOL     MW18508   2.648   1.306   5.217  0.8575  0.2081  0.4206
 4628SOL     OW18509   1.645   0.685   1.183 -0.3215 -0.3769  0.2218
 4628SOL    HW118510   1.652   0.660   1.275 -0.7027  0.1269  0.3968
 4628SOL    HW218511   1.736   0.684   1.151 -0.1893 -0.5803  0.5969
 4628SOL     MW18512   1.659   0.682   1.191 -0.3550 -0.3365  0.2959
 4629SOL     OW18513   4.047   5.461   4.258 -0.5108  0.0966 -0.1168
 4629SOL    HW118514   4.131   5.505   4.258  0.1613 -1.1287  0.3054
 4629SOL    HW218515   3.997   5.504   4.188  0.6312  0.5212 -0.6954
 4629SOL     MW18516   4.051   5.472   4.248 -0.2667 -0.0112 -0.1378
 4630SOL     OW18517   5.338   4.915   4.641  0.7632 -0.0507 -0.5556
 4630SOL    HW118518   5.312   4.950   4.726 -0.0757 -0.4718 -0.6276
 4630SOL    HW218519   5.422   4.871   4.657 -0.3234 -1.8474  0.5077
 4630SOL     MW18520   5.346   4.913   4.654  0.5041 -0.3492 -0.4222
 4631SOL     OW18521   1.650   3.402   0.728  0.2982  0.9059  0.1211
 4631SOL    HW118522   1.575   3.436   0.778  0.1304  0.7596 -0.0273
 4631SOL    HW218523   1.641   3.307   0.734  1.5318  0.8518  1.6827
 4631SOL     MW18524   1.639   3.394   0.735  0.4416  0.8789  0.3113
 4632SOL     OW18525   2.849   3.502   1.582 -0.5986 -0.3033 -0.4574
 4632SOL    HW118526   2.810   3.584   1.550 -0.1611  0.8928  1.8180
 4632SOL    HW218527   2.864   3.450   1.503 -0.0725  2.1820 -2.1129
 4632SOL     MW18528   2.846   3.506   1.567 -0.4689  0.1922 -0.3740
 4633SOL     OW18529   1.732   3.574   2.463  0.0480  0.3979 -1.0255
 4633SOL    HW118530   1.758   3.621   2.384  1.3375  1.9877  0.2532
 4633SOL    HW218531   1.637   3.574   2.462  0.0446 -0.0939 -2.8279
 4633SOL     MW18532   1.723   3.581   2.452  0.2211  0.5457 -1.0960
 4634SOL     OW18533   2.312   2.196   3.674 -0.1528 -0.0571 -0.2858
 4634SOL    HW118534   2.406   2.183   3.661 -0.0100 -0.6939  1.2186
 4634SOL    HW218535   2.274   2.178   3.588  1.0748  0.0076 -0.8674
 4634SOL     MW18536   2.320   2.192   3.660  0.0316 -0.1341 -0.1616
 4635SOL     OW18537   5.039   2.228   2.092 -0.2037  0.3079 -0.0613
 4635SOL    HW118538   4.958   2.275   2.072 -0.6414  0.5362  2.0389
 4635SOL    HW218539   5.019   2.178   2.171  1.7092  0.3834  0.5168
 4635SOL     MW18540   5.026   2.228   2.100 -0.0052  0.3488  0.2991
 4636SOL     OW18541   0.523   3.400   5.317  0.0261 -0.4352 -0.2755
 4636SOL    HW118542   0.600   3.437   5.358  0.2758 -0.4941 -0.6821
 4636SOL    HW218543   0.460   3.389   5.388  0.4705 -0.5955  0.0970
 4636SOL     MW18544   0.525   3.403   5.332  0.1195 -0.4647 -0.2801
 4637SOL     OW18545   4.956   1.798   3.551  0.2431 -0.9231 -0.1980
 4637SOL    HW118546   4.987   1.782   3.640  0.0132 -0.1509  0.0272
 4637SOL    HW218547   4.862   1.812   3.561  0.2831 -0.4066 -0.5047
 4637SOL     MW18548   4.947   1.797   3.564  0.2176 -0.7497 -0.2089
 4638SOL     OW18549   2.068   1.988   2.922 -0.1808 -0.4262 -0.1055
 4638SOL    HW118550   2.044   1.900   2.893 -5.8871  0.3798  1.1044
 4638SOL    HW218551   2.009   2.046   2.876 -0.1303  2.2149  2.8240
 4638SOL     MW18552   2.057   1.984   2.912 -0.9419  0.0377  0.4516
 4639SOL     OW18553   0.964   5.145   5.125  0.2357 -0.3829 -0.4335
 4639SOL    HW118554   1.042   5.089   5.127 -0.6960 -1.6942  0.6813
 4639SOL    HW218555   0.903   5.098   5.068 -0.5416 -0.5348  0.4918
 4639SOL     MW18556   0.967   5.131   5.118  0.0057 -0.5798 -0.1590
 4640SOL     OW18557   2.844   5.392   1.605  0.3603 -0.1566 -0.2726
 4640SOL    HW118558   2.863   5.342   1.685  1.1182  0.9869  0.2916
 4640SOL    HW218559   2.781   5.338   1.558 -1.7321  0.0385  2.0563
 4640SOL     MW18560   2.838   5.378   1.610  0.1807  0.0235  0.1168
 4641SOL     OW18561   0.223   5.358   3.483  0.5260  0.5797  0.1754
 4641SOL    HW118562   0.303   5.378   3.434  0.9313  0.5260  0.7965
 4641SOL    HW218563   0.215   5.263   3.479  0.7875  0.5380  0.5491
 4641SOL     MW18564   0.233   5.348   3.476  0.6158  0.5669  0.3093
 4642SOL     OW18565   3.912   3.647   3.264 -0.1285  0.2301 -0.0250
 4642SOL    HW118566   3.910   3.735   3.301  0.1494  1.0361 -1.8275
 4642SOL    HW218567   3.824   3.634   3.229 -0.1094 -0.1250  0.0558
 4642SOL     MW18568   3.900   3.657   3.264 -0.0885  0.2908 -0.2567
 4643SOL     OW18569   1.740   0.669   1.443 -0.0516  0.1541 -0.1945
 4643SOL    HW118570   1.763   0.582   1.476 -1.8793 -0.2001  0.2628
 4643SOL    HW218571   1.687   0.708   1.513  0.7443  1.6606 -0.3836
 4643SOL     MW18572   1.736   0.663   1.457 -0.1904  0.3092 -0.1584
 4644SOL     OW18573   2.068   1.377   4.980  0.5809 -0.2853  0.8501
 4644SOL    HW118574   2.150   1.424   4.994  1.9038 -1.7320 -1.3946
 4644SOL    HW218575   2.092   1.285   4.983 -1.0171 -0.7536  0.4455
 4644SOL     MW18576   2.082   1.371   4.982  0.5438 -0.5430  0.4936
 4645SOL     OW18577   1.900   5.458   0.373  0.1922  0.1336 -0.1994
 4645SOL    HW118578   1.892   5.527   0.439 -1.1206 -1.1573  1.0706
 4645SOL    HW218579   1.844   5.488   0.301  0.3528  0.8024 -0.0512
 4645SOL     MW18580   1.891   5.471   0.372  0.0371  0.0499 -0.0085
 4646SOL     OW18581   3.815   0.163   4.367 -0.3059  0.0567  0.0156
 4646SOL    HW118582   3.774   0.096   4.313  0.5116  0.9618 -1.8472
 4646SOL    HW218583   3.743   0.203   4.415 -0.6160 -3.2953  2.6977
 4646SOL     MW18584   3.800   0.160   4.366 -0.2376 -0.2726  0.1258
 4647SOL     OW18585   0.256   2.118   2.483 -0.3015  0.0745  0.2677
 4647SOL    HW118586   0.287   2.111   2.573  0.2071 -0.1780  0.0810
 4647SOL    HW218587   0.198   2.194   2.483  0.3563  0.5968  0.6306
 4647SOL     MW18588   0.253   2.127   2.495 -0.1445  0.1108  0.2914
 4648SOL     OW18589   4.720   2.035   0.112  0.0466  0.4795  0.0056
 4648SOL    HW118590   4.664   2.110   0.132 -1.5811 -0.5313 -0.5003
 4648SOL    HW218591   4.692   2.007   0.024  2.3106  0.7353 -0.8574
 4648SOL     MW18592   4.709   2.041   0.103  0.1322  0.3779 -0.1787
 4649SOL     OW18593   4.003   0.659   4.275  0.2346 -0.2710  0.4259
 4649SOL    HW118594   4.066   0.696   4.336 -0.0107  0.8912  0.0062
 4649SOL    HW218595   3.919   0.662   4.321  0.4328 -1.6984  0.9356
 4649SOL     MW18596   4.000   0.664   4.289  0.2283 -0.3066  0.4380
 4650SOL     OW18597   1.835   1.677   3.571 -0.0869 -0.3480 -0.0878
 4650SOL    HW118598   1.758   1.622   3.586  0.1195 -0.4611  0.6036
 4650SOL    HW218599   1.799   1.763   3.548 -0.4376 -0.1316  1.2159
 4650SOL     MW18600   1.819   1.682   3.570 -0.1063 -0.3341  0.1807
 4651SOL     OW18601   4.678   0.014   3.952 -0.5443  0.2318 -0.3167
 4651SOL    HW118602   4.755  -0.034   3.921  0.1687  0.7931  0.5268
 4651SOL    HW218603   4.714   0.089   4.000 -1.6299  2.3972 -2.6820
 4651SOL     MW18604   4.694   0.017   3.955 -0.5944  0.5987 -0.5215
 4652SOL     OW18605   4.614   3.033   2.584 -0.0962  0.2826  0.4886
 4652SOL    HW118606   4.647   2.979   2.512 -0.3079  2.2308 -1.1290
 4652SOL    HW218607   4.583   3.113   2.543 -3.4025  0.1375  2.3640
 4652SOL     MW18608   4.614   3.036   2.569 -0.5696  0.5253  0.5233
 4653SOL     OW18609   4.464   1.672   2.231 -0.3475  0.3199 -0.2413
 4653SOL    HW118610   4.546   1.678   2.280  0.0655  0.8131 -0.9895
 4653SOL    HW218611   4.490   1.666   2.140 -1.0770 -1.7977 -0.3537
 4653SOL     MW18612   4.478   1.672   2.226 -0.3901  0.1013 -0.3571
 4654SOL     OW18613   4.865   3.353   4.536  0.4286  0.3203 -0.1217
 4654SOL    HW118614   4.904   3.322   4.455 -0.3479 -1.9601  0.3094
 4654SOL    HW218615   4.929   3.332   4.604  0.5225  1.0510  0.0315
 4654SOL     MW18616   4.879   3.346   4.534  0.3367  0.1118 -0.0431
 4655SOL     OW18617   4.768   1.273   5.102 -0.4532 -0.3916 -0.3216
 4655SOL    HW118618   4.676   1.254   5.085 -0.7117  0.2695  0.2851
 4655SOL    HW218619   4.782   1.360   5.064  0.1272 -0.8133 -1.0948
 4655SOL     MW18620   4.757   1.282   5.095 -0.4099 -0.3594 -0.3440
 4656SOL     OW18621   1.612   3.616   3.331 -0.5629  0.3709  0.0210
 4656SOL    HW118622   1.701   3.582   3.343  0.2187  2.3874  0.3323
 4656SOL    HW218623   1.555   3.545   3.359  0.9476 -0.8797  0.0538
 4656SOL     MW18624   1.617   3.602   3.336 -0.2544  0.4740  0.0673
 4657SOL     OW18625   5.090   0.557   1.036  0.1305 -0.1703 -0.2766
 4657SOL    HW118626   5.102   0.612   1.113 -0.4685  0.5390 -0.6740
 4657SOL    HW218627   4.995   0.554   1.023  0.2123 -0.5154 -0.8156
 4657SOL     MW18628   5.079   0.564   1.044  0.0609 -0.1213 -0.4026
 4658SOL     OW18629   2.855   4.499   4.763 -0.4430  0.4679 -0.6441
 4658SOL    HW118630   2.779   4.526   4.814 -0.5959  0.8977 -1.0820
 4658SOL    HW218631   2.842   4.406   4.746  0.1924  0.0433  1.0731
 4658SOL     MW18632   2.843   4.490   4.767 -0.3781  0.4686 -0.4719
 4659SOL     OW18633   3.868   2.740   2.287 -0.0717 -0.1242  0.2256
 4659SOL    HW118634   3.833   2.775   2.205  0.0126  0.7121  0.5401
 4659SOL    HW218635   3.963   2.753   2.279 -0.2160  2.1308  1.4108
 4659SOL     MW18636   3.876   2.746   2.275 -0.0798  0.2918  0.4274
 4660SOL     OW18637   4.331   2.866   2.897  0.0097  0.4328 -0.1048
 4660SOL    HW118638   4.266   2.819   2.949  1.3008 -0.5140  0.7048
 4660SOL    HW218639   4.352   2.943   2.949  0.9247 -0.2511  0.5651
 4660SOL     MW18640   4.325   2.870   2.911  0.3066  0.2133  0.0943
 4661SOL     OW18641   3.343   0.356   3.227 -0.0282 -0.1907 -0.4046
 4661SOL    HW118642   3.303   0.438   3.257 -0.8049 -0.5683 -0.3715
 4661SOL    HW218643   3.288   0.288   3.265 -1.7231 -0.7180 -3.4276
 4661SOL     MW18644   3.330   0.358   3.236 -0.3608 -0.3125 -0.8070
 4662SOL     OW18645   0.143   0.763   5.235 -0.3867  0.2115 -0.4553
 4662SOL    HW118646   0.114   0.849   5.263  2.2146  1.2528 -0.6454
 4662SOL    HW218647   0.173   0.721   5.315 -2.5087 -0.9697 -0.2073
 4662SOL     MW18648   0.143   0.769   5.249 -0.3222  0.1927 -0.4475
 4663SOL     OW18649   4.964   3.827   4.151  0.1354  0.0354 -0.0132
 4663SOL    HW118650   4.927   3.767   4.085 -0.4614  1.2389 -0.8022
 4663SOL    HW218651   4.899   3.896   4.160  0.4452  0.1518  1.4946
 4663SOL     MW18652   4.950   3.828   4.143  0.0968  0.2131  0.0836
 4664SOL     OW18653   0.326   3.842   4.797 -0.7318 -0.2927 -0.5157
 4664SOL    HW118654   0.358   3.871   4.883  0.1554  0.6853 -1.1550
 4664SOL    HW218655   0.285   3.920   4.759  1.4390  0.1454 -2.1485
 4664SOL     MW18656   0.325   3.856   4.804 -0.3203 -0.1022 -0.8215
 4665SOL     OW18657   2.963   5.549   0.631  0.4671 -0.2689  0.6265
 4665SOL    HW118658   2.969   5.495   0.552  1.0295  0.4915  0.1342
 4665SOL    HW218659   2.939   5.487   0.700  1.3126 -1.1945  0.1245
 4665SOL     MW18660   2.960   5.533   0.630  0.6566 -0.2911  0.4926
 4666SOL     OW18661   3.712   0.490   4.137 -0.3347  0.0854  0.4535
 4666SOL    HW118662   3.682   0.483   4.227 -0.9537  0.9226  0.3297
 4666SOL    HW218663   3.682   0.577   4.109 -2.7168 -1.2365 -1.4791
 4666SOL     MW18664   3.704   0.501   4.145 -0.7386  0.0202  0.1767
 4667SOL     OW18665   4.916   5.409   3.913  0.1704  0.1170  0.1216
 4667SOL    HW118666   5.012   5.412   3.915  0.1348  2.0022  1.2092
 4667SOL    HW218667   4.893   5.340   3.975  0.8116  1.6547  2.1586
 4667SOL     MW18668   4.926   5.400   3.922  0.2519  0.5777  0.5421
 4668SOL     OW18669   2.748   5.065   1.962 -0.2228  0.3313 -0.1881
 4668SOL    HW118670   2.800   4.995   1.922 -1.3988  0.3380 -1.7829
 4668SOL    HW218671   2.773   5.144   1.915 -1.7961  0.3012 -1.1228
 4668SOL     MW18672   2.758   5.066   1.951 -0.5928  0.3281 -0.5285
 4669SOL     OW18673   3.578   1.060   3.615  0.5131  0.0300  0.6459
 4669SOL    HW118674   3.641   1.083   3.547  0.2042 -0.5749  0.1522
 4669SOL    HW218675   3.498   1.038   3.567  0.3778 -0.6864  1.1856
 4669SOL     MW18676   3.576   1.060   3.599  0.4533 -0.1478  0.6521
 4670SOL     OW18677   1.909   4.836   3.783 -0.1974  0.4888 -0.3352
 4670SOL    HW118678   1.851   4.868   3.714  0.4796  0.2749 -1.0145
 4670SOL    HW218679   1.852   4.827   3.859 -0.6573  2.1386 -0.4461
 4670SOL     MW18680   1.894   4.839   3.784 -0.1682  0.6821 -0.4416
 4671SOL     OW18681   0.455   0.821   0.561  0.1573  0.0449  0.5429
 4671SOL    HW118682   0.405   0.884   0.613  1.3825  2.0837 -0.6196
 4671SOL    HW218683   0.476   0.868   0.480  1.5628 -1.6967 -0.1707
 4671SOL     MW18684   0.451   0.836   0.557  0.5114  0.0849  0.2904
 4672SOL     OW18685   0.776   2.731   5.306 -0.0129  0.1417 -0.0330
 4672SOL    HW118686   0.703   2.675   5.280  0.6647 -1.0634  0.5417
 4672SOL    HW218687   0.815   2.760   5.224 -0.0587 -0.6918 -0.3637
 4672SOL     MW18688   0.771   2.727   5.291  0.0721 -0.1326 -0.0002
 4673SOL     OW18689   5.154   4.325   1.791  0.0901 -0.4920  0.4666
 4673SOL    HW118690   5.218   4.256   1.809  0.3157 -1.0703 -2.1290
 4673SOL    HW218691   5.171   4.350   1.700 -0.8428  2.1187  0.9237
 4673SOL     MW18692   5.165   4.319   1.781 -0.0051 -0.2185  0.1788
 4674SOL     OW18693   1.448   1.519   4.998 -0.4409  0.0399 -0.0813
 4674SOL    HW118694   1.478   1.601   5.036 -1.1344  0.6964 -0.9127
 4674SOL    HW218695   1.365   1.501   5.042 -0.9064  0.4460 -0.7723
 4674SOL     MW18696   1.441   1.528   5.009 -0.5969  0.1829 -0.2862
 4675SOL     OW18697   0.832   4.791   2.535 -0.4878 -0.1444  0.3078
 4675SOL    HW118698   0.764   4.853   2.509 -0.7915 -1.0828 -1.2537
 4675SOL    HW218699   0.792   4.705   2.521 -0.2406 -0.7692  2.8292
 4675SOL     MW18700   0.817   4.788   2.530 -0.4954 -0.3548  0.4370
 4676SOL     OW18701   3.917   3.070   2.609 -0.4231  0.3185  0.7659
 4676SOL    HW118702   3.863   2.992   2.594 -0.6033  0.3798  1.0793
 4676SOL    HW218703   3.864   3.143   2.577  0.2466  0.2088 -0.6846
 4676SOL     MW18704   3.903   3.069   2.603 -0.3572  0.3120  0.6129
 4677SOL     OW18705   3.343   2.987   2.140  0.2108  0.4419  0.1585
 4677SOL    HW118706   3.258   3.019   2.169 -1.2801 -1.9681 -1.1475
 4677SOL    HW218707   3.340   2.992   2.044  1.1169 -0.5933  0.0412
 4677SOL     MW18708   3.331   2.992   2.131  0.1321 -0.0217 -0.0331
 4678SOL     OW18709   0.708   3.219   4.300  0.3386  0.0822 -0.4184
 4678SOL    HW118710   0.628   3.260   4.333 -0.4862 -2.0859  0.4578
 4678SOL    HW218711   0.778   3.277   4.329 -0.6149 -0.0208  2.3632
 4678SOL     MW18712   0.706   3.233   4.308  0.0993 -0.2234  0.0738
 4679SOL     OW18713   5.167   0.611   5.341 -0.2603 -0.1555 -0.3701
 4679SOL    HW118714   5.110   0.688   5.346 -0.4945 -0.3042 -0.6678
 4679SOL    HW218715   5.132   0.551   5.407 -0.0700 -0.0004 -0.1292
 4679SOL     MW18716   5.154   0.614   5.351 -0.2662 -0.1546 -0.3778
 4680SOL     OW18717   1.170   5.393   4.645  0.1350  0.1895 -0.3922
 4680SOL    HW118718   1.208   5.446   4.715 -3.0027 -0.3556  1.9678
 4680SOL    HW218719   1.229   5.318   4.637  0.0306 -0.3705  2.6539
 4680SOL     MW18720   1.183   5.390   4.654 -0.3013  0.0408  0.3354
 4681SOL     OW18721   3.469   4.941   2.630 -0.0019 -0.1369  0.3019
 4681SOL    HW118722   3.524   4.879   2.680 -2.5791 -2.3294  0.6585
 4681SOL    HW218723   3.420   4.989   2.698 -2.1814 -1.8502  0.0620
 4681SOL     MW18724   3.470   4.939   2.646 -0.6421 -0.6625  0.3176
 4682SOL     OW18725   3.643   1.843   3.823 -0.0959  0.6071 -0.1990
 4682SOL    HW118726   3.669   1.900   3.751  0.2297  1.6669  0.7326
 4682SOL    HW218727   3.671   1.889   3.902  3.7807 -2.5173  0.5722
 4682SOL     MW18728   3.650   1.856   3.824  0.4696  0.3292  0.0302
 4683SOL     OW18729   3.512   3.041   3.872 -0.0724 -0.3774  0.1705
 4683SOL    HW118730   3.594   2.997   3.853 -0.3590 -1.6933  1.7682
 4683SOL    HW218731   3.445   2.985   3.833 -0.3638 -0.7119  1.1364
 4683SOL     MW18732   3.514   3.028   3.864 -0.1502 -0.5995  0.5155
 4684SOL     OW18733   1.287   2.343   0.794 -0.3315 -0.2220  0.6921
 4684SOL    HW118734   1.319   2.366   0.706  0.1239 -2.8383  0.1067
 4684SOL    HW218735   1.194   2.327   0.783 -0.2242 -0.8038  0.6367
 4684SOL     MW18736   1.279   2.344   0.780 -0.2558 -0.6524  0.6059
 4685SOL     OW18737   2.241   4.130   1.645 -0.3870 -0.2848 -0.0919
 4685SOL    HW118738   2.279   4.158   1.561 -0.1842 -0.5492 -0.0913
 4685SOL    HW218739   2.173   4.194   1.663 -1.1373 -0.8136 -0.9758
 4685SOL     MW18740   2.237   4.142   1.636 -0.4607 -0.3915 -0.2107
 4686SOL     OW18741   4.401   0.444   4.859 -0.4822 -0.3410  0.0807
 4686SOL    HW118742   4.349   0.428   4.780  0.1492 -0.1591 -0.3851
 4686SOL    HW218743   4.456   0.366   4.868 -0.3364 -0.2274  0.1730
 4686SOL     MW18744   4.401   0.431   4.850 -0.3776 -0.3012  0.0304
 4687SOL     OW18745   2.074   0.327   1.747  0.2259 -0.3762  0.4320
 4687SOL    HW118746   1.992   0.358   1.784 -0.5631 -2.0834  0.1932
 4687SOL    HW218747   2.141   0.384   1.786 -1.0793  1.2871  0.3255
 4687SOL     MW18748   2.072   0.339   1.757 -0.0559 -0.3821  0.3855
 4688SOL     OW18749   1.119   1.100   1.296  0.3782 -0.1855  0.1625
 4688SOL    HW118750   1.198   1.144   1.326 -0.3738  0.4239  1.2765
 4688SOL    HW218751   1.062   1.170   1.264 -0.4433 -0.4153  1.0671
 4688SOL     MW18752   1.122   1.115   1.295  0.1664 -0.1344  0.4341
 4689SOL     OW18753   1.651   0.265   5.361  0.0915 -0.0514 -0.1741
 4689SOL    HW118754   1.702   0.221   5.293 -1.3202  1.4422 -2.3022
 4689SOL    HW218755   1.562   0.267   5.327 -1.2385 -1.4230  2.8565
 4689SOL     MW18756   1.646   0.259   5.348 -0.2775 -0.0350 -0.0526
 4690SOL     OW18757   4.128   2.231   3.332 -0.2013  0.0774 -0.2077
 4690SOL    HW118758   4.212   2.274   3.315  0.7168 -1.9870 -1.1902
 4690SOL    HW218759   4.149   2.161   3.393 -1.3566 -0.0455  0.0740
 4690SOL     MW18760   4.142   2.227   3.338 -0.2332 -0.2170 -0.3020
 4691SOL     OW18761   3.936   3.815   2.875  0.3240  0.2417  0.2047
 4691SOL    HW118762   4.031   3.819   2.874  0.4656 -1.0163  2.1707
 4691SOL    HW218763   3.910   3.886   2.934  0.2132 -0.6603  1.2814
 4691SOL     MW18764   3.945   3.826   2.883  0.3282 -0.0490  0.6142
 4692SOL     OW18765   1.760   1.890   1.905 -0.1562 -0.5503 -0.1107
 4692SOL    HW118766   1.699   1.958   1.933  0.3521  0.2881 -0.9638
 4692SOL    HW218767   1.712   1.842   1.838  0.3907  0.6913 -1.4528
 4692SOL     MW18768   1.745   1.893   1.900 -0.0142 -0.2704 -0.4061
 4693SOL     OW18769   3.479   1.138   2.281 -0.5679  0.3204 -0.1190
 4693SOL    HW118770   3.434   1.217   2.310 -0.1039  0.9613 -1.0928
 4693SOL    HW218771   3.443   1.120   2.194  1.0149  0.8464 -0.9264
 4693SOL     MW18772   3.468   1.146   2.273 -0.2924  0.4774 -0.3587
 4694SOL     OW18773   0.417   2.781   0.742  0.0537  0.3009 -0.1412
 4694SOL    HW118774   0.350   2.768   0.808  0.3639 -1.6756 -0.1780
 4694SOL    HW218775   0.492   2.731   0.772  0.4816  0.0187 -1.5854
 4694SOL     MW18776   0.418   2.773   0.755  0.1530 -0.0031 -0.3405
 4695SOL     OW18777   2.119   0.563   1.219  0.2139 -0.3670  0.0743
 4695SOL    HW118778   2.136   0.594   1.308  0.9537  0.7570 -0.4320
 4695SOL    HW218779   2.094   0.471   1.230  0.8702 -0.4186  1.3923
 4695SOL     MW18780   2.118   0.555   1.232  0.4018 -0.2227  0.1835
 4696SOL     OW18781   1.949   4.147   0.475 -0.4963  0.0452  0.1529
 4696SOL    HW118782   1.905   4.165   0.559 -3.0242 -0.9556 -0.8580
 4696SOL    HW218783   2.007   4.223   0.462 -0.9596  0.8353  2.1865
 4696SOL     MW18784   1.951   4.160   0.485 -0.8989  0.0169  0.2906
 4697SOL     OW18785   3.430   1.340   0.525  0.2851 -0.6901 -0.6218
 4697SOL    HW118786   3.471   1.388   0.597 -1.5071  0.0152 -0.0113
 4697SOL    HW218787   3.402   1.257   0.565  0.4265 -0.8365 -0.8265
 4697SOL     MW18788   3.431   1.335   0.540  0.0630 -0.6149 -0.5672
 4698SOL     OW18789   0.143   1.031   3.534  0.0415 -0.0330 -0.6512
 4698SOL    HW118790   0.136   1.102   3.470 -1.2863 -0.0243 -0.5219
 4698SOL    HW218791   0.154   1.075   3.618 -2.9695  0.1833 -0.2561
 4698SOL     MW18792   0.143   1.047   3.537 -0.5424 -0.0027 -0.5806
 4699SOL     OW18793   4.632   1.764   1.835 -0.3971  0.2055  0.2925
 4699SOL    HW118794   4.561   1.808   1.788  0.5239 -0.8674 -2.3285
 4699SOL    HW218795   4.588   1.696   1.886 -1.3570  0.3421 -0.3261
 4699SOL     MW18796   4.616   1.760   1.835 -0.4024  0.0795 -0.1435
 4700SOL     OW18797   5.154   0.716   1.857 -1.1188  0.0127 -0.2188
 4700SOL    HW118798   5.074   0.757   1.888 -0.0456  1.4875  0.7548
 4700SOL    HW218799   5.125   0.644   1.801 -3.0991  0.0717  0.6715
 4700SOL     MW18800   5.140   0.712   1.854 -1.2409  0.2191  0.0321
 4701SOL     OW18801   0.271   1.373   2.276 -0.9174 -0.0159 -0.6418
 4701SOL    HW118802   0.191   1.384   2.328 -0.9256  2.0266 -1.0162
 4701SOL    HW218803   0.246   1.397   2.187  0.0730  0.5659 -0.7819
 4701SOL     MW18804   0.257   1.378   2.271 -0.7852  0.3372 -0.7111
 4702SOL     OW18805   1.774   2.146   3.957 -0.1007  0.3708  0.0297
 4702SOL    HW118806   1.768   2.190   3.872  0.6980  1.3892  0.4857
 4702SOL    HW218807   1.831   2.071   3.942 -0.1507  0.4151 -0.3822
 4702SOL     MW18808   1.781   2.142   3.944  0.0001  0.5138  0.0356
 4703SOL     OW18809   1.188   1.649   1.055  0.2392 -0.1063  0.1641
 4703SOL    HW118810   1.192   1.596   1.135  0.0706 -0.3244  0.0307
 4703SOL    HW218811   1.217   1.736   1.082 -1.0230  0.1571  0.7601
 4703SOL     MW18812   1.192   1.654   1.069  0.0466 -0.1002  0.2263
 4704SOL     OW18813   1.791   0.500   0.865  0.1879 -0.0948  0.0705
 4704SOL    HW118814   1.826   0.413   0.888 -0.7580 -0.6206 -0.3937
 4704SOL    HW218815   1.796   0.550   0.947  1.5300 -0.2995  0.1369
 4704SOL     MW18816   1.796   0.495   0.879  0.2412 -0.1931  0.0170
 4705SOL     OW18817   2.237   3.768   4.964  0.1644 -0.3768 -0.7570
 4705SOL    HW118818   2.331   3.784   4.958 -0.0235  1.2560  0.1189
 4705SOL    HW218819   2.229   3.673   4.961  1.8423 -0.5557 -0.7323
 4705SOL     MW18820   2.249   3.757   4.963  0.3650 -0.1811 -0.6358
 4706SOL     OW18821   1.874   3.933   5.081 -0.1598  0.1123  0.0661
 4706SOL    HW118822   1.880   3.861   5.144 -0.2625  0.9361  1.0577
 4706SOL    HW218823   1.961   3.972   5.080 -0.5268  1.0246  0.8751
 4706SOL     MW18824   1.886   3.929   5.089 -0.2230  0.3460  0.3085
 4707SOL     OW18825   4.816   2.104   2.297  0.0216  0.0703  0.0097
 4707SOL    HW118826   4.823   2.101   2.393 -3.2181  0.2400  0.3722
 4707SOL    HW218827   4.773   2.188   2.280  0.4670 -0.0136 -1.6007
 4707SOL     MW18828   4.811   2.115   2.308 -0.3544  0.0819 -0.1582
 4708SOL     OW18829   0.243   4.626   4.361 -0.4610  0.0166 -0.4721
 4708SOL    HW118830   0.245   4.590   4.272 -2.8436  1.2178 -1.0972
 4708SOL    HW218831   0.160   4.595   4.397  0.9026 -1.2761  1.7784
 4708SOL     MW18832   0.232   4.617   4.353 -0.5981  0.0043 -0.2534
 4709SOL     OW18833   2.811   0.297   4.824 -0.6265  0.2084  0.2577
 4709SOL    HW118834   2.904   0.316   4.835 -1.0324  2.0330  0.9701
 4709SOL    HW218835   2.771   0.324   4.906 -1.8736  0.1001 -0.2866
 4709SOL     MW18836   2.818   0.303   4.836 -0.8489  0.4394  0.2803
 4710SOL     OW18837   1.797   3.222   4.182 -0.2149  0.0081  0.2436
 4710SOL    HW118838   1.857   3.147   4.182 -1.0147 -0.6366  0.3187
 4710SOL    HW218839   1.780   3.239   4.089 -0.0625  0.0794  0.2277
 4710SOL     MW18840   1.803   3.214   4.170 -0.3020 -0.0691  0.2516
 4711SOL     OW18841   4.288   3.662   5.282 -0.3119 -0.1363  0.0333
 4711SOL    HW118842   4.233   3.677   5.206  0.3730 -0.7211 -0.6016
 4711SOL    HW218843   4.349   3.593   5.254  0.5902  0.3297  0.7778
 4711SOL     MW18844   4.289   3.654   5.268 -0.0983 -0.1523  0.0480
 4712SOL     OW18845   3.438   5.444   3.982  0.6640 -0.6271  0.0539
 4712SOL    HW118846   3.517   5.498   3.975 -1.3843  2.6098 -0.0974
 4712SOL    HW218847   3.401   5.443   3.894 -0.6687 -0.0896  0.5870
 4712SOL     MW18848   3.444   5.451   3.969  0.2090 -0.1191  0.1053
 4713SOL     OW18849   3.110   0.091   2.256 -0.2174 -0.4378 -0.0832
 4713SOL    HW118850   3.114   0.146   2.334  0.0162 -1.2386  0.4902
 4713SOL    HW218851   3.068   0.010   2.286  0.3193 -0.9507 -0.6577
 4713SOL     MW18852   3.105   0.087   2.271 -0.1137 -0.6146 -0.0833
 4714SOL     OW18853   1.097   4.171   2.005  0.1518 -0.1820 -0.2626
 4714SOL    HW118854   1.077   4.077   2.002  0.8381 -0.3608  0.3268
 4714SOL    HW218855   1.173   4.181   1.947  1.3994 -0.3661  1.2954
 4714SOL     MW18856   1.104   4.159   1.997  0.4121 -0.2308  0.0264
 4715SOL     OW18857   1.941   3.492   4.599 -0.3811  0.7106  0.3389
 4715SOL    HW118858   1.909   3.563   4.654 -0.5211 -0.0015  1.1885
 4715SOL    HW218859   1.892   3.501   4.517 -2.0466  0.2730  1.2386
 4715SOL     MW18860   1.930   3.503   4.595 -0.6241  0.5559  0.5743
 4716SOL     OW18861   4.976   0.284   5.074  0.2383  0.1497  0.2322
 4716SOL    HW118862   4.994   0.335   4.994 -3.0206 -0.3141 -0.9366
 4716SOL    HW218863   4.929   0.345   5.131  0.1504 -0.3127  0.6561
 4716SOL     MW18864   4.972   0.299   5.071 -0.2121  0.0251  0.1319
 4717SOL     OW18865   3.079   2.769   2.415 -0.1162 -0.1778 -0.0385
 4717SOL    HW118866   3.015   2.742   2.480  0.5252 -0.4764  0.4853
 4717SOL    HW218867   3.028   2.785   2.335 -0.7628 -0.9300  0.2157
 4717SOL     MW18868   3.064   2.768   2.413 -0.1169 -0.3192  0.0662
 4718SOL     OW18869   3.604   5.483   3.669  0.6543 -0.8543 -0.1342
 4718SOL    HW118870   3.633   5.491   3.760  3.9834  1.7586 -1.2302
 4718SOL    HW218871   3.655   5.411   3.634  1.1492 -0.3399 -0.4878
 4718SOL     MW18872   3.615   5.475   3.677  1.1690 -0.4334 -0.3293
 4719SOL     OW18873   1.704   4.263   4.821 -0.2203  0.6125  0.1279
 4719SOL    HW118874   1.661   4.335   4.867  0.1249  0.5960  0.4808
 4719SOL    HW218875   1.633   4.201   4.802 -0.0683 -0.4363  2.6204
 4719SOL     MW18876   1.689   4.264   4.825 -0.1534  0.4691  0.5109
 4720SOL     OW18877   1.129   0.447   1.432  0.0613 -0.4205 -0.4522
 4720SOL    HW118878   1.074   0.370   1.447  1.4843 -1.5371 -0.7762
 4720SOL    HW218879   1.165   0.468   1.518 -1.1713  0.5875 -0.1527
 4720SOL     MW18880   1.127   0.439   1.446  0.0870 -0.4352 -0.4555
 4721SOL     OW18881   3.902   2.695   3.681  0.4657 -0.3750 -0.5422
 4721SOL    HW118882   3.836   2.761   3.702  0.1806 -0.4756 -1.0949
 4721SOL    HW218883   3.870   2.615   3.722  1.1495 -0.0431  0.7068
 4721SOL     MW18884   3.889   2.693   3.689  0.5194 -0.3439 -0.4485
 4722SOL     OW18885   0.470   2.513   0.132  0.1480 -0.0221 -0.4166
 4722SOL    HW118886   0.442   2.571   0.061  0.6043  1.2825  0.4174
 4722SOL    HW218887   0.423   2.546   0.209 -0.6945 -1.6985 -0.1768
 4722SOL     MW18888   0.460   2.526   0.133  0.0960 -0.0721 -0.2721
 4723SOL     OW18889   4.777   2.646   4.622 -0.1552 -0.0578 -0.2055
 4723SOL    HW118890   4.696   2.680   4.660  0.1632 -0.1632  0.5989
 4723SOL    HW218891   4.802   2.712   4.557 -1.2201 -0.3437 -0.9408
 4723SOL     MW18892   4.769   2.660   4.619 -0.2557 -0.1105 -0.1962
 4724SOL     OW18893   1.690   4.365   2.987  0.4729 -0.4137  0.1136
 4724SOL    HW118894   1.733   4.382   3.071 -0.9048  1.4175  0.5151
 4724SOL    HW218895   1.629   4.293   3.006 -1.9018  1.7968  1.5574
 4724SOL     MW18896   1.687   4.357   3.001 -0.0321  0.1302  0.3619
 4725SOL     OW18897   2.610   2.123   5.139  0.9363  0.0291  0.3663
 4725SOL    HW118898   2.529   2.166   5.166  0.8613 -0.6324  1.2635
 4725SOL    HW218899   2.621   2.052   5.203  2.3192  0.2282  0.3751
 4725SOL     MW18900   2.600   2.119   5.151  1.1123 -0.0331  0.4883
 4726SOL     OW18901   3.462   2.664   0.736  0.0728  0.0850  0.0235
 4726SOL    HW118902   3.376   2.672   0.778 -0.1815 -0.5395 -0.3623
 4726SOL    HW218903   3.510   2.742   0.765 -1.0080  1.0399 -0.6538
 4726SOL     MW18904   3.457   2.676   0.746 -0.1068  0.1295 -0.1196
 4727SOL     OW18905   3.089   3.464   5.262  0.0433 -0.0946 -0.3430
 4727SOL    HW118906   3.092   3.379   5.217  4.1427  0.8333 -2.3698
 4727SOL    HW218907   3.130   3.447   5.347  0.9554 -0.2270 -0.7852
 4727SOL     MW18908   3.095   3.450   5.267  0.7178  0.0125 -0.6753
 4728SOL     OW18909   2.066   3.999   0.048 -0.1392  0.1035  0.1706
 4728SOL    HW118910   2.028   4.074   0.093 -1.6408  0.1987 -1.1767
 4728SOL    HW218911   1.991   3.942   0.029  0.9301 -1.6355  0.9279
 4728SOL     MW18912   2.051   4.001   0.051 -0.1974 -0.1177  0.0912
 4729SOL     OW18913   1.724   4.036   3.616 -0.3344 -0.0110 -0.3551
 4729SOL    HW118914   1.665   4.048   3.691 -2.8457  0.1799 -2.2048
 4729SOL    HW218915   1.712   3.944   3.591  1.3522 -0.3887  0.0748
 4729SOL     MW18916   1.714   4.025   3.623 -0.4454 -0.0361 -0.5462
 4730SOL     OW18917   2.300   3.343   2.043  0.3308 -0.0775  0.8409
 4730SOL    HW118918   2.371   3.320   2.104  0.2238 -0.3986  0.8488
 4730SOL    HW218919   2.343   3.344   1.957  0.5299  0.6044  0.9468
 4730SOL     MW18920   2.316   3.340   2.040  0.3432 -0.0289  0.8562
 4731SOL     OW18921   3.570   3.260   2.826 -0.1361 -0.7542  0.2663
 4731SOL    HW118922   3.569   3.167   2.803 -1.5629 -0.7270  0.1622
 4731SOL    HW218923   3.579   3.305   2.742 -1.6373 -0.7606  0.0733
 4731SOL     MW18924   3.571   3.254   2.811 -0.5301 -0.7514  0.2263
 4732SOL     OW18925   3.277   1.913   1.408 -0.4424 -0.6112 -0.0388
 4732SOL    HW118926   3.352   1.860   1.433  0.6160  0.3351 -1.0939
 4732SOL    HW218927   3.215   1.904   1.481 -0.3199 -3.2426 -0.1796
 4732SOL     MW18928   3.279   1.905   1.421 -0.2835 -0.8380 -0.1997
 4733SOL     OW18929   1.399   2.546   5.436  0.4413  0.2421 -0.5561
 4733SOL    HW118930   1.407   2.488   5.512 -0.4385  0.5737 -0.1948
 4733SOL    HW218931   1.482   2.593   5.433  0.8877 -0.5245 -0.4261
 4733SOL     MW18932   1.411   2.544   5.446  0.3830  0.1836 -0.4900
 4734SOL     OW18933   0.393   3.861   5.362  0.1899 -0.2865  0.3415
 4734SOL    HW118934   0.371   3.826   5.448  0.9916 -2.5846 -0.2953
 4734SOL    HW218935   0.459   3.928   5.378 -0.0005 -0.3735  1.5393
 4734SOL     MW18936   0.399   3.865   5.376  0.2722 -0.6075  0.4170
 4735SOL     OW18937   1.736   1.998   0.494  0.1962 -0.0005 -0.8163
 4735SOL    HW118938   1.765   1.958   0.576  0.4953  3.0156  0.6987
 4735SOL    HW218939   1.645   1.973   0.486 -0.4774  1.2740  1.6583
 4735SOL     MW18940   1.728   1.989   0.504  0.1458  0.5769 -0.2794
 4736SOL     OW18941   1.783   2.867   1.190  0.0019 -0.2843 -0.1466
 4736SOL    HW118942   1.774   2.788   1.136 -0.1792 -1.1691  1.1288
 4736SOL    HW218943   1.701   2.914   1.176  0.2971 -0.0793 -1.2713
 4736SOL     MW18944   1.771   2.862   1.181  0.0173 -0.3758 -0.1263
 4737SOL     OW18945   0.118   1.504   4.570  0.2474  0.1601  0.3383
 4737SOL    HW118946   0.093   1.540   4.485  0.3246  1.9837  1.0547
 4737SOL    HW218947   0.195   1.555   4.595  0.8709 -1.0854  1.0411
 4737SOL     MW18948   0.125   1.516   4.562  0.3417  0.2379  0.5293
 4738SOL     OW18949   3.464   4.767   4.430  0.9760  0.4343  0.0082
 4738SOL    HW118950   3.398   4.809   4.485 -0.5321 -1.6051 -0.1454
 4738SOL    HW218951   3.530   4.735   4.491  1.1127  1.2392  0.2933
 4738SOL     MW18952   3.464   4.769   4.446  0.7914  0.2682  0.0259
 4739SOL     OW18953   1.178   0.751   0.674 -0.2495 -0.5006 -0.1255
 4739SOL    HW118954   1.186   0.844   0.696 -3.9845 -0.4672  1.8852
 4739SOL    HW218955   1.171   0.750   0.578  0.4515  1.1737 -0.2384
 4739SOL     MW18956   1.178   0.763   0.664 -0.6578 -0.2708  0.1299
 4740SOL     OW18957   1.598   3.135   0.791  0.0918  0.1210 -0.2378
 4740SOL    HW118958   1.667   3.071   0.772  0.4457  0.2520  0.5391
 4740SOL    HW218959   1.519   3.097   0.753  0.3832 -0.5842 -0.1610
 4740SOL     MW18960   1.597   3.121   0.784  0.1787  0.0438 -0.1229
 4741SOL     OW18961   2.671   3.418   4.401 -0.3824  0.1476  0.1404
 4741SOL    HW118962   2.634   3.439   4.487  1.0738  0.7980  0.6353
 4741SOL    HW218963   2.628   3.479   4.341 -0.1589  0.8601  0.6924
 4741SOL     MW18964   2.660   3.429   4.404 -0.1563  0.3310  0.2813
 4742SOL     OW18965   4.259   1.699   2.734  0.4110 -0.2061  0.0007
 4742SOL    HW118966   4.264   1.780   2.786  1.8708 -1.3795  1.7797
 4742SOL    HW218967   4.348   1.685   2.702 -0.4068  0.3743 -2.7860
 4742SOL     MW18968   4.271   1.708   2.737  0.4974 -0.2859 -0.1349
 4743SOL     OW18969   1.888   2.169   1.144 -0.4146 -0.0034 -0.3252
 4743SOL    HW118970   1.855   2.122   1.068  0.5608 -3.3164  1.1286
 4743SOL    HW218971   1.838   2.134   1.218 -0.0727  1.7709  0.8152
 4743SOL     MW18972   1.876   2.158   1.144 -0.2373 -0.2105  0.0239
 4744SOL     OW18973   0.531   3.126   1.285 -0.2306 -0.1161  0.0491
 4744SOL    HW118974   0.479   3.067   1.340 -1.7258  0.0701 -1.0935
 4744SOL    HW218975   0.515   3.213   1.321 -0.6127 -0.0794 -0.1938
 4744SOL     MW18976   0.521   3.130   1.297 -0.4833 -0.0861 -0.1374
 4745SOL     OW18977   2.629   5.390   4.747  0.4346  0.1050  0.2123
 4745SOL    HW118978   2.596   5.402   4.658 -0.9277  2.4405  0.9304
 4745SOL    HW218979   2.555   5.412   4.803  1.4702 -0.6207  1.9296
 4745SOL     MW18980   2.615   5.395   4.742  0.3906  0.3216  0.5401
 4746SOL     OW18981   4.083   1.775   0.437 -0.4478  0.0183 -0.5063
 4746SOL    HW118982   4.088   1.740   0.348 -1.7923  0.1737 -0.6686
 4746SOL    HW218983   4.164   1.747   0.479  0.7797  0.9627 -2.1418
 4746SOL     MW18984   4.094   1.767   0.431 -0.4636  0.1663 -0.7482
 4747SOL     OW18985   3.258   4.684   1.367  0.1467  0.1885  0.1810
 4747SOL    HW118986   3.192   4.730   1.420 -0.0324  0.3482 -0.1734
 4747SOL    HW218987   3.342   4.718   1.398 -0.0100  1.7195 -0.9157
 4747SOL     MW18988   3.260   4.695   1.378  0.1015  0.4160 -0.0143
 4748SOL     OW18989   5.483   1.452   0.887  0.2481  0.0489 -0.1109
 4748SOL    HW118990   5.497   1.536   0.843  0.6079  0.3583  0.5875
 4748SOL    HW218991   5.508   1.386   0.821  1.5313  0.5213 -0.1108
 4748SOL     MW18992   5.488   1.454   0.872  0.4692  0.1541 -0.0169
 4749SOL     OW18993   3.494   5.423   1.972 -0.0712 -0.5472  0.2394
 4749SOL    HW118994   3.569   5.481   1.987 -0.0383 -0.7573  0.8947
 4749SOL    HW218995   3.436   5.474   1.916  0.3228 -0.1829  0.1539
 4749SOL     MW18996   3.497   5.438   1.966 -0.0137 -0.5264  0.3161
 4750SOL     OW18997   0.937   1.823   3.471  0.0505  0.0299 -0.2183
 4750SOL    HW118998   0.915   1.905   3.426  2.7379  1.3842  0.7081
 4750SOL    HW218999   0.966   1.851   3.558  0.5713 -1.9671  0.2953
 4750SOL     MW19000   0.938   1.838   3.477  0.4823 -0.0566 -0.0245
 4751SOL     OW19001   5.166   3.767   1.687  0.0975  0.3170  0.4291
 4751SOL    HW119002   5.188   3.845   1.635 -0.7865 -1.4936 -2.9961
 4751SOL    HW219003   5.250   3.723   1.700  0.2680  0.4476 -0.1674
 4751SOL     MW19004   5.181   3.772   1.682  0.0015  0.0909 -0.1122
 4752SOL     OW19005   1.747   3.540   5.417 -0.5204 -0.0894  0.0836
 4752SOL    HW119006   1.701   3.551   5.334  0.6254  2.5376 -0.3239
 4752SOL    HW219007   1.696   3.591   5.480  0.1009  0.2499  0.3291
 4752SOL     MW19008   1.734   3.548   5.414 -0.2826  0.3098  0.0618
 4753SOL     OW19009   3.144   5.318   3.651 -0.0309 -0.2632  0.0377
 4753SOL    HW119010   3.128   5.324   3.557  1.0719 -0.4751 -0.1736
 4753SOL    HW219011   3.213   5.381   3.668 -0.2801 -0.1661  0.7233
 4753SOL     MW19012   3.151   5.327   3.640  0.0839 -0.2787  0.1015
 4754SOL     OW19013   1.404   1.171   1.101  0.1855  0.4182 -0.4931
 4754SOL    HW119014   1.328   1.219   1.066 -2.3620 -1.8206  1.5304
 4754SOL    HW219015   1.465   1.166   1.028 -2.5590  0.4656 -2.9837
 4754SOL     MW19016   1.402   1.177   1.087 -0.5267  0.1233 -0.5560
 4755SOL     OW19017   1.467   3.368   3.978 -0.0830 -0.1385  0.5713
 4755SOL    HW119018   1.467   3.381   4.073  1.4439  0.9788  0.4523
 4755SOL    HW219019   1.376   3.348   3.957 -0.5522  0.1326  2.1994
 4755SOL     MW19020   1.455   3.367   3.988  0.0593  0.0484  0.7744
 4756SOL     OW19021   4.590   4.033   0.710 -0.6690  0.2097  0.3744
 4756SOL    HW119022   4.530   4.003   0.641  1.7681 -1.1085 -1.3263
 4756SOL    HW219023   4.651   4.091   0.665  0.6715 -0.2578  1.5109
 4756SOL     MW19024   4.590   4.037   0.694 -0.1606 -0.0306  0.2984
 4757SOL     OW19025   3.642   3.176   0.056  0.0004 -0.2378  0.2478
 4757SOL    HW119026   3.582   3.170   0.131 -0.7466  0.2801 -0.2872
 4757SOL    HW219027   3.658   3.269   0.046  1.5633 -0.4079  0.8646
 4757SOL     MW19028   3.636   3.188   0.065  0.1102 -0.1910  0.2588
 4758SOL     OW19029   1.485   0.167   4.200  0.7233 -0.2866  0.1025
 4758SOL    HW119030   1.424   0.175   4.127  0.3546 -0.0455  0.4359
 4758SOL    HW219031   1.546   0.240   4.188 -0.1048  0.5392  0.7505
 4758SOL     MW19032   1.485   0.178   4.188  0.5623 -0.1431  0.2346
 4759SOL     OW19033   1.487   1.755   1.389  0.6180 -0.2962 -0.4336
 4759SOL    HW119034   1.501   1.666   1.356  2.2294 -0.9925  1.8386
 4759SOL    HW219035   1.574   1.795   1.389 -0.2606  1.8926 -2.7568
 4759SOL     MW19036   1.500   1.748   1.385  0.7166 -0.0953 -0.4404
 4760SOL     OW19037   5.214   1.793   5.110  0.1768  0.0725  0.5706
 4760SOL    HW119038   5.144   1.745   5.066 -0.5387  1.1069  0.5495
 4760SOL    HW219039   5.275   1.815   5.039  0.1532 -0.1873  0.4664
 4760SOL     MW19040   5.213   1.790   5.094  0.0774  0.1768  0.5537
 4761SOL     OW19041   2.327   1.526   0.800 -0.3281  0.3026 -0.6121
 4761SOL    HW119042   2.284   1.457   0.749  2.3930  0.2264 -3.0771
 4761SOL    HW219043   2.288   1.607   0.769 -1.4495  0.0949  0.1602
 4761SOL     MW19044   2.316   1.527   0.789 -0.1128  0.2644 -0.8399
 4762SOL     OW19045   4.692   0.195   0.095 -0.1765 -0.2309  0.1108
 4762SOL    HW119046   4.625   0.190   0.027 -1.0092 -1.1483  0.9837
 4762SOL    HW219047   4.753   0.124   0.073 -0.1310 -0.1620  0.0083
 4762SOL     MW19048   4.691   0.185   0.083 -0.2824 -0.3451  0.2145
 4763SOL     OW19049   4.247   0.527   1.606  0.6261  0.1154 -0.3229
 4763SOL    HW119050   4.163   0.530   1.560  1.0302  1.2721 -1.0387
 4763SOL    HW219051   4.274   0.619   1.612  0.8613 -0.0463  1.7580
 4763SOL     MW19052   4.239   0.540   1.600  0.7121  0.2493 -0.1392
 4764SOL     OW19053   2.346   1.877   0.226  0.7340 -0.7318 -0.4221
 4764SOL    HW119054   2.403   1.931   0.172 -1.0685  0.0311 -1.6658
 4764SOL    HW219055   2.382   1.789   0.219  1.9459 -0.2185 -0.8690
 4764SOL     MW19056   2.358   1.873   0.218  0.6545 -0.5600 -0.6496
 4765SOL     OW19057   0.176   0.903   4.881 -0.0649  0.0515  0.8358
 4765SOL    HW119058   0.181   0.808   4.890 -0.5948 -0.2182 -1.0860
 4765SOL    HW219059   0.082   0.921   4.876  0.0555  0.5266  0.0952
 4765SOL     MW19060   0.164   0.892   4.881 -0.1200  0.0791  0.4775
 4766SOL     OW19061   2.960   0.489   1.090 -0.4725 -0.0696  0.4231
 4766SOL    HW119062   2.866   0.507   1.091 -0.5976 -0.7191  0.1807
 4766SOL    HW219063   2.968   0.398   1.062  0.1745 -0.3528  1.4633
 4766SOL     MW19064   2.949   0.480   1.087 -0.4023 -0.1951  0.5305
 4767SOL     OW19065   1.568   2.601   3.595  0.4385  0.5867  0.2184
 4767SOL    HW119066   1.570   2.693   3.570 -0.8960  0.7563  0.6647
 4767SOL    HW219067   1.489   2.567   3.553  1.0842 -0.4395 -0.2006
 4767SOL     MW19068   1.558   2.609   3.586  0.3458  0.4714  0.2221
 4768SOL     OW19069   4.573   0.211   4.526  0.0672  0.0328 -0.0510
 4768SOL    HW119070   4.554   0.119   4.509 -1.2868 -0.1044  1.8703
 4768SOL    HW219071   4.583   0.215   4.621  1.6429  1.6322 -0.2348
 4768SOL     MW19072   4.572   0.199   4.536  0.0970  0.2296  0.1829
 4769SOL     OW19073   1.539   1.901   4.294  0.1592  0.1533 -0.2961
 4769SOL    HW119074   1.532   1.941   4.207 -2.0308 -0.1004 -0.2965
 4769SOL    HW219075   1.618   1.846   4.288 -0.9112 -1.3059 -2.7743
 4769SOL     MW19076   1.549   1.899   4.281 -0.2795 -0.0772 -0.6296
 4770SOL     OW19077   3.535   4.715   5.055  0.3046  0.0313 -0.1070
 4770SOL    HW119078   3.529   4.624   5.023  0.0259 -0.8319  2.2246
 4770SOL    HW219079   3.584   4.708   5.136 -0.3836  1.8806  0.5061
 4770SOL     MW19080   3.541   4.702   5.061  0.1745  0.1640  0.2893
 4771SOL     OW19081   1.101   3.139   2.434  0.2536 -0.0688 -0.0877
 4771SOL    HW119082   1.118   3.107   2.346  1.5425 -1.2125  0.5450
 4771SOL    HW219083   1.186   3.166   2.468 -0.1785  0.1415  0.8939
 4771SOL     MW19084   1.114   3.138   2.427  0.3689 -0.1944  0.1295
 4772SOL     OW19085   4.515   0.894   4.847  0.5150 -0.1130  0.5155
 4772SOL    HW119086   4.520   0.801   4.827  1.3664  0.1234 -0.4364
 4772SOL    HW219087   4.511   0.898   4.943  0.4326 -1.1175  0.5598
 4772SOL     MW19088   4.515   0.882   4.857  0.6185 -0.2164  0.3934
 4773SOL     OW19089   2.255   5.346   3.545  0.0212  0.2264 -0.6012
 4773SOL    HW119090   2.324   5.286   3.573 -0.7821 -0.8082 -0.8065
 4773SOL    HW219091   2.178   5.291   3.533 -0.5905  1.2074 -1.3431
 4773SOL     MW19092   2.254   5.331   3.547 -0.1692  0.2192 -0.7287
 4774SOL     OW19093   0.995   0.104   1.987  0.3420 -0.4169 -0.1978
 4774SOL    HW119094   0.951   0.075   2.066 -0.6237  1.1965 -0.0974
 4774SOL    HW219095   0.991   0.029   1.928  1.8523 -1.9613  1.5253
 4774SOL     MW19096   0.989   0.090   1.990  0.4153 -0.4076  0.0476
 4775SOL     OW19097   1.379   0.295   5.050 -0.7356  0.1304 -0.5383
 4775SOL    HW119098   1.296   0.256   5.024 -0.3895  0.0613 -1.5592
 4775SOL    HW219099   1.369   0.311   5.144 -0.4804 -3.4885  0.2504
 4775SOL     MW19100   1.367   0.292   5.059 -0.6547 -0.3659 -0.5695
 4776SOL     OW19101   3.111   3.788   4.006 -0.0542  0.2604  0.1926
 4776SOL    HW119102   3.188   3.799   3.949 -0.4769 -0.1243 -0.4744
 4776SOL    HW219103   3.067   3.873   4.003 -0.3489  0.0940 -0.4849
 4776SOL     MW19104   3.116   3.801   3.998 -0.1507  0.1863  0.0117
 4777SOL     OW19105   4.540   0.330   0.960 -0.1074 -0.0913 -0.4695
 4777SOL    HW119106   4.451   0.297   0.965 -0.8867  1.8651 -0.4059
 4777SOL    HW219107   4.535   0.418   0.998  2.2267 -0.5807  1.1798
 4777SOL     MW19108   4.528   0.337   0.966  0.1019  0.1062 -0.2389
 4778SOL     OW19109   3.742   3.227   4.271  0.1120 -0.1726 -0.2588
 4778SOL    HW119110   3.674   3.163   4.293 -1.2187  0.5806 -1.8919
 4778SOL    HW219111   3.823   3.177   4.270 -0.2855 -1.0238  2.1713
 4778SOL     MW19112   3.744   3.212   4.274 -0.1205 -0.1858 -0.1515
 4779SOL     OW19113   2.298   2.177   4.346  0.0218  0.1310 -0.3392
 4779SOL    HW119114   2.226   2.116   4.328 -1.4873  1.0158  2.2270
 4779SOL    HW219115   2.295   2.240   4.274 -1.0168 -0.5169 -0.8927
 4779SOL     MW19116   2.288   2.177   4.334 -0.3210  0.1629 -0.0683
 4780SOL     OW19117   3.945   0.226   3.040 -0.1481  0.4187 -0.7204
 4780SOL    HW119118   3.957   0.134   3.018  1.8787  0.6377 -0.7728
 4780SOL    HW219119   3.941   0.228   3.135  0.6337  0.3262 -0.6770
 4780SOL     MW19120   3.946   0.214   3.050  0.2298  0.4357 -0.7216
 4781SOL     OW19121   2.297   1.508   5.037 -1.0050 -0.1752  1.1906
 4781SOL    HW119122   2.338   1.585   5.078  0.9859 -1.2023  1.2604
 4781SOL    HW219123   2.366   1.471   4.982 -2.1021 -1.5936  0.7135
 4781SOL     MW19124   2.312   1.514   5.035 -0.8847 -0.5043  1.1358
 4782SOL     OW19125   1.707   4.304   3.929 -0.1562  0.3541  0.0144
 4782SOL    HW119126   1.627   4.350   3.952 -0.9777 -0.5717 -0.8709
 4782SOL    HW219127   1.745   4.356   3.858  0.1707  0.9281  0.6004
 4782SOL     MW19128   1.702   4.317   3.923 -0.2228  0.3068 -0.0259
 4783SOL     OW19129   1.452   3.895   3.251 -0.5612 -0.1523 -0.3007
 4783SOL    HW119130   1.367   3.874   3.212 -0.4497 -0.9546 -0.1358
 4783SOL    HW219131   1.473   3.818   3.304 -0.1682  0.4386  0.4080
 4783SOL     MW19132   1.443   3.882   3.253 -0.4933 -0.1808 -0.1831
 4784SOL     OW19133   4.550   4.288   3.572 -0.2337 -0.1652  0.5236
 4784SOL    HW119134   4.505   4.364   3.535  2.4968  0.5174 -1.7507
 4784SOL    HW219135   4.623   4.325   3.623  0.6864 -1.2182  0.0201
 4784SOL     MW19136   4.554   4.303   3.574  0.2576 -0.2150  0.1498
 4785SOL     OW19137   2.887   5.460   5.050 -0.1540 -0.8165 -0.2745
 4785SOL    HW119138   2.803   5.437   5.089  0.5761  0.4759  2.2804
 4785SOL    HW219139   2.881   5.429   4.959 -2.7768 -2.1004  0.2498
 4785SOL     MW19140   2.875   5.453   5.043 -0.4087 -0.8154  0.1399
 4786SOL     OW19141   4.442   1.057   0.248  0.3019 -0.0998  0.1601
 4786SOL    HW119142   4.415   0.967   0.228  1.0770 -0.5299  1.0185
 4786SOL    HW219143   4.362   1.109   0.236 -0.8475 -1.2870  2.1964
 4786SOL     MW19144   4.427   1.052   0.243  0.2515 -0.3174  0.5497
 4787SOL     OW19145   0.207   1.270   4.652  0.3440 -0.4955  0.0460
 4787SOL    HW119146   0.172   1.348   4.608  0.8706 -0.4496 -0.3069
 4787SOL    HW219147   0.139   1.204   4.644 -0.0346 -0.1282  0.1879
 4787SOL     MW19148   0.193   1.272   4.645  0.3639 -0.4399  0.0176
 4788SOL     OW19149   2.176   3.861   1.964 -0.3885  0.0782  0.1247
 4788SOL    HW119150   2.117   3.932   1.994  0.3647  1.0240 -0.5749
 4788SOL    HW219151   2.118   3.785   1.955 -1.0988  0.4006  1.5644
 4788SOL     MW19152   2.160   3.861   1.967 -0.3827  0.2488  0.2243
 4789SOL     OW19153   3.467   2.639   3.746 -0.0342 -0.1089 -0.0519
 4789SOL    HW119154   3.483   2.609   3.657 -1.1158  0.0687 -0.3211
 4789SOL    HW219155   3.421   2.566   3.788 -0.3976  0.1829  0.0624
 4789SOL     MW19156   3.463   2.625   3.740 -0.2286 -0.0457 -0.0728
 4790SOL     OW19157   5.109   1.831   1.728 -0.4102  0.3216 -0.1313
 4790SOL    HW119158   5.030   1.778   1.732 -0.7724  0.8114 -0.6269
 4790SOL    HW219159   5.096   1.899   1.795 -0.9660  1.1316 -1.0353
 4790SOL     MW19160   5.097   1.833   1.738 -0.5337  0.4965 -0.3197
 4791SOL     OW19161   0.248   1.516   3.611 -0.1720  0.0705  0.0772
 4791SOL    HW119162   0.215   1.604   3.592  1.0925 -0.0668 -3.5048
 4791SOL    HW219163   0.343   1.526   3.617 -0.1684 -0.4902  4.2561
 4791SOL     MW19164   0.256   1.529   3.610 -0.0013 -0.0234  0.1575
 4792SOL     OW19165   0.535   3.480   3.571 -0.2701  0.1292 -0.4727
 4792SOL    HW119166   0.493   3.489   3.656  0.5414 -0.7137  0.0285
 4792SOL    HW219167   0.519   3.389   3.545 -0.9401  0.5061 -1.4644
 4792SOL     MW19168   0.527   3.469   3.579 -0.2511  0.0665 -0.5387
 4793SOL     OW19169   5.259   3.108   3.327 -0.0165 -0.0328 -0.2836
 4793SOL    HW119170   5.179   3.059   3.310 -0.2259  0.5268 -0.9836
 4793SOL    HW219171   5.254   3.184   3.269  1.0138  0.0289 -0.3215
 4793SOL     MW19172   5.248   3.112   3.317  0.0940  0.0508 -0.3829
 4794SOL     OW19173   2.495   3.815   3.648 -0.3521 -0.0014  0.2387
 4794SOL    HW119174   2.556   3.802   3.575 -1.3925  0.2770 -0.7224
 4794SOL    HW219175   2.469   3.906   3.641  0.6690  0.4672  1.9187
 4794SOL     MW19176   2.500   3.825   3.637 -0.3547  0.0991  0.3354
 4795SOL     OW19177   4.085   2.021   0.635  0.5639 -0.5277 -0.2647
 4795SOL    HW119178   4.075   1.956   0.565  0.9110 -1.3663  0.4419
 4795SOL    HW219179   4.171   2.060   0.620 -0.1376  0.6668 -1.4039
 4795SOL     MW19180   4.095   2.017   0.624  0.5162 -0.4798 -0.3229
 4796SOL     OW19181   1.058   3.595   4.937 -0.1317 -0.3442  0.1231
 4796SOL    HW119182   1.070   3.530   5.007 -0.0674 -0.3679  0.0899
 4796SOL    HW219183   0.981   3.564   4.890  0.7488 -1.2179 -0.7998
 4796SOL     MW19184   1.049   3.582   4.940 -0.0046 -0.4649 -0.0056
 4797SOL     OW19185   3.033   2.161   3.832  0.3431  0.2418  0.9145
 4797SOL    HW119186   2.991   2.185   3.914  2.0850  0.2329  1.8499
 4797SOL    HW219187   3.023   2.066   3.825 -0.8967  0.3897  0.4592
 4797SOL     MW19188   3.026   2.152   3.842  0.4107  0.2605  0.9791
 4798SOL     OW19189   3.849   2.759   2.992 -0.1107  0.1089  0.2214
 4798SOL    HW119190   3.881   2.801   3.072  1.1367 -1.4036  0.5609
 4798SOL    HW219191   3.772   2.710   3.019 -1.1305  1.5141 -0.0277
 4798SOL     MW19192   3.843   2.758   3.006 -0.0800  0.0945  0.2335
 4799SOL     OW19193   2.924   3.905   1.462  0.8789 -0.3931  0.0354
 4799SOL    HW119194   2.902   3.937   1.549 -0.5003 -2.0523  0.3518
 4799SOL    HW219195   3.019   3.918   1.455  0.8078  1.0357  1.2020
 4799SOL     MW19196   2.934   3.911   1.473  0.6837 -0.4241  0.2350
 4800SOL     OW19197   3.867   0.287   1.576  0.1026 -0.3212 -0.0485
 4800SOL    HW119198   3.945   0.233   1.568 -0.5219 -1.2041 -0.2493
 4800SOL    HW219199   3.805   0.234   1.626 -0.3564  0.3944  0.1666
 4800SOL     MW19200   3.869   0.273   1.582 -0.0432 -0.3437 -0.0466
 4801SOL     OW19201   0.664   0.495   4.569 -0.2734 -0.5530 -0.0962
 4801SOL    HW119202   0.722   0.495   4.493 -0.3547 -0.1470 -0.1620
 4801SOL    HW219203   0.577   0.510   4.532 -0.1625  0.9019  0.1779
 4801SOL     MW19204   0.660   0.497   4.553 -0.2694 -0.3026 -0.0682
 4802SOL     OW19205   0.218   5.393   0.439  0.0231  0.4839  0.1281
 4802SOL    HW119206   0.163   5.469   0.454 -0.6333  0.0838 -0.1955
 4802SOL    HW219207   0.260   5.409   0.355 -1.1649 -0.1102 -0.6011
 4802SOL     MW19208   0.216   5.405   0.430 -0.2251  0.3501 -0.0136
 4803SOL     OW19209   3.507   4.863   3.469 -0.7572 -0.1420  0.8898
 4803SOL    HW119210   3.595   4.826   3.460 -0.2919  1.3575 -2.0286
 4803SOL    HW219211   3.518   4.936   3.530  0.4730  1.0188 -0.6251
 4803SOL     MW19212   3.520   4.868   3.476 -0.5290  0.2161  0.2932
 4804SOL     OW19213   0.596   3.076   4.966 -0.1647  0.4313  0.3744
 4804SOL    HW119214   0.646   3.076   4.885 -0.2254 -0.8551  0.3264
 4804SOL    HW219215   0.658   3.104   5.033  0.0928  0.7172  0.0172
 4804SOL     MW19216   0.611   3.080   4.964 -0.1382  0.2966  0.3199
 4805SOL     OW19217   5.204   3.034   4.145 -0.0528  0.2994  0.4215
 4805SOL    HW119218   5.158   3.105   4.101 -0.3462 -0.4629 -0.5342
 4805SOL    HW219219   5.162   3.027   4.231 -0.4429  0.8507  0.2792
 4805SOL     MW19220   5.192   3.043   4.151 -0.1448  0.2710  0.2737
 4806SOL     OW19221   4.052   2.835   1.617  0.5072  0.0050 -0.3735
 4806SOL    HW119222   4.040   2.781   1.695 -0.8313 -1.2075 -1.3619
 4806SOL    HW219223   4.140   2.871   1.626 -0.4585  1.9530  2.8830
 4806SOL     MW19224   4.062   2.832   1.629  0.1971  0.1040 -0.0682
 4807SOL     OW19225   3.043   1.353   4.013  0.2149  0.2500  0.3242
 4807SOL    HW119226   3.111   1.290   4.035 -0.5669 -1.4150 -1.7068
 4807SOL    HW219227   3.087   1.438   4.016  1.8209 -0.5679  1.1253
 4807SOL     MW19228   3.058   1.356   4.017  0.3258 -0.0841  0.1587
 4808SOL     OW19229   1.444   3.457   0.246 -0.1673  0.0054 -0.9543
 4808SOL    HW119230   1.371   3.432   0.189  0.6123  0.9621 -2.4232
 4808SOL    HW219231   1.491   3.375   0.261 -1.9532 -0.8056  0.7372
 4808SOL     MW19232   1.440   3.442   0.241 -0.3027  0.0250 -0.9244
 4809SOL     OW19233   2.020   5.310   4.750 -0.4401 -0.7400 -0.2127
 4809SOL    HW119234   2.108   5.282   4.724 -0.7291 -3.6044  1.4365
 4809SOL    HW219235   1.968   5.230   4.751 -2.7247  0.6506  0.2384
 4809SOL     MW19236   2.025   5.295   4.747 -0.7864 -0.9384  0.0699
 4810SOL     OW19237   0.220   4.232   0.461  0.1322  0.6393 -0.4472
 4810SOL    HW119238   0.222   4.195   0.372  0.4524  2.5897 -1.3073
 4810SOL    HW219239   0.135   4.206   0.496 -0.2342  0.2985 -1.5429
 4810SOL     MW19240   0.209   4.223   0.454  0.1260  0.8559 -0.7104
 4811SOL     OW19241   2.799   3.683   1.374  0.1249 -0.4770  0.4666
 4811SOL    HW119242   2.865   3.665   1.308 -0.7144 -0.7190 -0.3208
 4811SOL    HW219243   2.832   3.761   1.420  0.2129  0.3358 -0.9239
 4811SOL     MW19244   2.812   3.691   1.371  0.0238 -0.4002  0.1735
 4812SOL     OW19245   2.106   0.042   2.859  0.5650  0.1928 -0.4743
 4812SOL    HW119246   2.102   0.043   2.955 -2.5978 -1.6394 -0.4583
 4812SOL    HW219247   2.155  -0.038   2.838 -1.0645 -0.8934 -0.3044
 4812SOL     MW19248   2.112   0.031   2.869 -0.0800 -0.1999 -0.4493
 4813SOL     OW19249   3.528   3.822   4.180  0.3936 -0.7288 -0.2871
 4813SOL    HW119250   3.609   3.872   4.168 -0.1932  0.2014 -0.5113
 4813SOL    HW219251   3.524   3.765   4.103  0.4497 -0.2123 -0.6837
 4813SOL     MW19252   3.538   3.821   4.168  0.3222 -0.5341 -0.3707
 4814SOL     OW19253   2.660   0.518   4.741 -0.9793  0.1724  0.1688
 4814SOL    HW119254   2.702   0.433   4.729 -3.2417 -1.4533  2.5923
 4814SOL    HW219255   2.721   0.567   4.797 -1.3221 -1.4103  2.0394
 4814SOL     MW19256   2.674   0.513   4.747 -1.3299 -0.2594  0.7467
 4815SOL     OW19257   4.915   3.627   4.961 -0.2911 -0.2676 -0.2201
 4815SOL    HW119258   4.872   3.679   4.893 -1.9159  0.2250  1.0849
 4815SOL    HW219259   4.863   3.645   5.040  1.8549 -0.3355  1.2954
 4815SOL     MW19260   4.902   3.636   4.963 -0.2210 -0.2104  0.1595
 4816SOL     OW19261   3.172   5.044   2.022  0.1860  0.1374  0.5996
 4816SOL    HW119262   3.119   4.994   1.960 -0.7506 -0.5029  1.8730
 4816SOL    HW219263   3.262   5.020   2.000  0.0077  1.3027 -1.6432
 4816SOL     MW19264   3.177   5.034   2.011  0.0360  0.2081  0.4691
 4817SOL     OW19265   3.122   0.544   1.770 -0.0026  0.5418 -0.2594
 4817SOL    HW119266   3.081   0.630   1.775 -0.3045  0.4953 -1.4953
 4817SOL    HW219267   3.081   0.494   1.840 -1.4301  0.7685 -0.8893
 4817SOL     MW19268   3.111   0.549   1.780 -0.2354  0.5661 -0.5105
 4818SOL     OW19269   4.608   0.215   2.990 -0.5705 -0.6295  0.2888
 4818SOL    HW119270   4.635   0.200   3.080 -1.1747  0.3060  0.6420
 4818SOL    HW219271   4.563   0.299   2.992 -2.3177 -1.4856 -0.5064
 4818SOL     MW19272   4.605   0.224   3.002 -0.8869 -0.6188  0.2293
 4819SOL     OW19273   3.556   4.832   2.265  0.0017  0.1708  0.4592
 4819SOL    HW119274   3.478   4.883   2.246 -1.0723 -1.9659 -1.3479
 4819SOL    HW219275   3.525   4.760   2.320  0.4441 -1.2158 -1.0353
 4819SOL     MW19276   3.542   4.829   2.270 -0.0833 -0.3034  0.0149
 4820SOL     OW19277   4.644   3.033   5.255 -0.5393  0.1023  0.0831
 4820SOL    HW119278   4.583   3.002   5.321  0.6967 -0.3231  1.0722
 4820SOL    HW219279   4.591   3.044   5.176 -1.8299 -0.4403  0.8447
 4820SOL     MW19280   4.629   3.030   5.253 -0.5467 -0.0280  0.3187
 4821SOL     OW19281   3.512   2.909   4.932  0.4463  0.0262 -0.6206
 4821SOL    HW119282   3.432   2.889   4.981  1.4634 -0.6648  0.8690
 4821SOL    HW219283   3.559   2.970   4.988  0.6553  0.9887 -1.8173
 4821SOL     MW19284   3.508   2.914   4.946  0.6113  0.0627 -0.5812
 4822SOL     OW19285   4.913   0.473   0.665  0.1066 -0.3868  0.1353
 4822SOL    HW119286   4.956   0.559   0.663  1.7537 -1.1626  0.4054
 4822SOL    HW219287   4.868   0.471   0.750  0.0028  0.2215  0.1011
 4822SOL     MW19288   4.913   0.484   0.676  0.3143 -0.4094  0.1670
 4823SOL     OW19289   4.208   4.029   5.520  0.2329 -0.0738  0.3777
 4823SOL    HW119290   4.242   3.939   5.525  0.9286  0.1189 -0.6974
 4823SOL    HW219291   4.125   4.020   5.473 -0.7008 -0.3828  1.9751
 4823SOL     MW19292   4.201   4.016   5.515  0.2009 -0.0895  0.4480
 4824SOL     OW19293   2.675   1.768   1.356  0.6236 -0.2434 -0.1963
 4824SOL    HW119294   2.622   1.848   1.360 -1.0089 -1.3193  1.7540
 4824SOL    HW219295   2.747   1.784   1.417  1.0694  0.2138 -0.8270
 4824SOL     MW19296   2.678   1.781   1.365  0.4639 -0.3267 -0.0187
 4825SOL     OW19297   1.000   2.116   2.743 -0.2821  0.2652 -0.3266
 4825SOL    HW119298   1.068   2.101   2.676  0.0573  0.4853 -0.0353
 4825SOL    HW219299   1.003   2.210   2.759  0.1687  0.1081  0.5543
 4825SOL     MW19300   1.010   2.127   2.736 -0.1757  0.2737 -0.1689
 4826SOL     OW19301   2.984   1.593   2.500 -0.3104 -0.4794  0.0146
 4826SOL    HW119302   2.951   1.679   2.474  0.4683 -0.4289 -0.8714
 4826SOL    HW219303   3.063   1.612   2.551  0.6963 -0.6724 -1.4148
 4826SOL     MW19304   2.990   1.607   2.503 -0.0701 -0.4986 -0.2970
 4827SOL     OW19305   3.715   1.734   0.306 -0.1045  0.2260  0.1759
 4827SOL    HW119306   3.626   1.768   0.318 -0.5292 -1.4264  2.1120
 4827SOL    HW219307   3.702   1.645   0.275  0.9726  0.7326 -1.9658
 4827SOL     MW19308   3.701   1.727   0.303 -0.0167  0.0718  0.1482
 4828SOL     OW19309   3.946   2.249   3.137 -0.3236  0.4324 -0.2286
 4828SOL    HW119310   3.989   2.232   3.221 -2.7960  0.4062  1.1041
 4828SOL    HW219311   3.993   2.193   3.075  3.0478  2.0990  0.5599
 4828SOL     MW19312   3.958   2.239   3.140 -0.2026  0.6532  0.0569
 4829SOL     OW19313   4.572   0.600   1.380  0.1771 -0.5941 -0.2698
 4829SOL    HW119314   4.627   0.642   1.446 -0.0645 -0.9585  0.1697
 4829SOL    HW219315   4.555   0.513   1.416  2.0798 -1.7395 -1.9094
 4829SOL     MW19316   4.577   0.594   1.394  0.4007 -0.7973 -0.4313
 4830SOL     OW19317   3.205   4.536   3.361  0.4147 -0.4511  0.4496
 4830SOL    HW119318   3.172   4.447   3.349  1.2627 -0.6473 -0.5767
 4830SOL    HW219319   3.279   4.543   3.300  0.9156  0.6707  1.1452
 4830SOL     MW19320   3.211   4.525   3.351  0.5963 -0.3266  0.4051
 4831SOL     OW19321   1.855   3.052   4.424 -0.6734 -0.4905  0.2579
 4831SOL    HW119322   1.924   3.045   4.358 -0.3409  0.1916  0.5239
 4831SOL    HW219323   1.795   2.980   4.404  0.2942 -1.3166  0.2303
 4831SOL     MW19324   1.856   3.041   4.413 -0.4984 -0.5099  0.2900
 4832SOL     OW19325   3.656   2.843   5.301 -0.1784  0.0830 -0.5747
 4832SOL    HW119326   3.646   2.859   5.395 -0.0325  1.2424 -0.7297
 4832SOL    HW219327   3.749   2.823   5.291 -0.5860 -2.2881 -0.2155
 4832SOL     MW19328   3.668   2.843   5.312 -0.2136 -0.0801 -0.5472
 4833SOL     OW19329   1.079   3.230   1.619 -0.1331 -0.0810  0.2738
 4833SOL    HW119330   1.116   3.310   1.657 -0.0937 -0.4728  1.0675
 4833SOL    HW219331   0.998   3.259   1.577 -1.5201 -0.0248  2.8320
 4833SOL     MW19332   1.073   3.245   1.618 -0.3145 -0.1262  0.7249
 4834SOL     OW19333   5.407   0.313   3.266 -0.1694 -0.1853  0.2477
 4834SOL    HW119334   5.476   0.380   3.269  2.0406 -2.2678 -0.8065
 4834SOL    HW219335   5.334   0.357   3.222  1.0410  1.6695 -0.0549
 4834SOL     MW19336   5.407   0.328   3.260  0.2909 -0.2159  0.0651
 4835SOL     OW19337   2.845   4.741   0.392  0.1124  0.3270 -0.4476
 4835SOL    HW119338   2.814   4.703   0.309  1.3087 -1.0982 -0.2842
 4835SOL    HW219339   2.770   4.790   0.425 -1.5826 -1.9758 -0.6460
 4835SOL     MW19340   2.831   4.743   0.385  0.0453 -0.1747 -0.4523
 4836SOL     OW19341   0.205   3.876   2.786  0.7263 -0.4743 -0.2619
 4836SOL    HW119342   0.185   3.941   2.719  1.1983 -0.0041  0.0395
 4836SOL    HW219343   0.255   3.808   2.740  1.2613 -0.0351 -0.3499
 4836SOL     MW19344   0.209   3.875   2.771  0.8618 -0.3519 -0.2332
 4837SOL     OW19345   3.238   4.626   2.006  0.4533 -0.0143 -0.2983
 4837SOL    HW119346   3.170   4.666   2.060  2.1164  0.9752  1.1521
 4837SOL    HW219347   3.208   4.640   1.916 -2.3131 -1.5665  0.2431
 4837SOL     MW19348   3.225   4.633   2.001  0.3048 -0.0900 -0.0302
 4838SOL     OW19349   2.321   0.977   4.455 -0.5636 -0.2728  0.7438
 4838SOL    HW119350   2.342   0.912   4.388 -3.3060 -0.4283 -0.0700
 4838SOL    HW219351   2.310   0.926   4.535  0.6702 -0.3387  0.8911
 4838SOL     MW19352   2.322   0.962   4.457 -0.7666 -0.3026  0.6541
 4839SOL     OW19353   3.207   3.604   3.734  0.1369  0.3268 -0.4950
 4839SOL    HW119354   3.263   3.546   3.681 -0.1264 -1.3003  0.9164
 4839SOL    HW219355   3.198   3.683   3.681  1.4153 -0.4878 -2.0311
 4839SOL     MW19356   3.213   3.607   3.720  0.2735 -0.0018 -0.5118
 4840SOL     OW19357   4.472   4.280   0.477 -0.2376  0.0761  0.4099
 4840SOL    HW119358   4.421   4.359   0.498 -0.9219 -0.5729  1.2431
 4840SOL    HW219359   4.408   4.219   0.441  0.3017 -0.1044 -0.2682
 4840SOL     MW19360   4.457   4.283   0.475 -0.2571 -0.0355  0.4308
 4841SOL     OW19361   1.403   5.055   2.040 -0.2291  0.0326  0.6856
 4841SOL    HW119362   1.472   5.120   2.052 -0.9391  0.6043  1.8084
 4841SOL    HW219363   1.321   5.105   2.045 -0.7730 -0.3587 -2.2173
 4841SOL     MW19364   1.401   5.070   2.042 -0.3978  0.0569  0.4460
 4842SOL     OW19365   5.071   3.019   4.364  0.1428 -0.4412  0.4745
 4842SOL    HW119366   5.145   3.036   4.423  0.1469 -0.5275  0.4951
 4842SOL    HW219367   5.039   3.106   4.339  0.1650 -0.4036  0.5751
 4842SOL     MW19368   5.077   3.033   4.369  0.1464 -0.4478  0.4908
 4843SOL     OW19369   3.490   3.427   4.614  0.0840 -0.5092  0.6452
 4843SOL    HW119370   3.447   3.459   4.535  1.1599 -0.9600 -0.1494
 4843SOL    HW219371   3.423   3.373   4.657 -0.0840 -1.4651 -0.7225
 4843SOL     MW19372   3.475   3.424   4.609  0.2062 -0.6985  0.3542
 4844SOL     OW19373   3.435   1.332   0.243 -0.1982  0.4130  0.6139
 4844SOL    HW119374   3.414   1.335   0.337 -0.8327 -1.5388  0.5890
 4844SOL    HW219375   3.432   1.239   0.221 -1.0015  0.8920 -1.5641
 4844SOL     MW19376   3.432   1.320   0.253 -0.3917  0.2148  0.3175
 4845SOL     OW19377   2.551   1.433   2.305 -0.4270  0.0221  0.3500
 4845SOL    HW119378   2.475   1.395   2.350 -0.4420 -1.4916 -0.8478
 4845SOL    HW219379   2.515   1.506   2.255 -0.8618  0.1195  0.7895
 4845SOL     MW19380   2.536   1.437   2.305 -0.4876 -0.1685  0.2480
 4846SOL     OW19381   5.230   0.135   5.114  0.9400 -0.1007  0.1924
 4846SOL    HW119382   5.138   0.161   5.110  0.0542 -2.8741  0.1907
 4846SOL    HW219383   5.264   0.155   5.027 -0.1544 -0.4871 -0.3495
 4846SOL     MW19384   5.222   0.141   5.102  0.6735 -0.5259  0.1192
 4847SOL     OW19385   1.988   2.974   5.506  0.2934 -0.1792 -0.4882
 4847SOL    HW119386   2.049   3.028   5.456  0.4684 -1.2408 -1.4630
 4847SOL    HW219387   2.043   2.926   5.568  0.3510 -0.4921 -0.7784
 4847SOL     MW19388   2.004   2.975   5.508  0.3247 -0.3642 -0.6584
 4848SOL     OW19389   2.853   2.214   2.581 -0.0061 -0.4387 -0.1208
 4848SOL    HW119390   2.945   2.188   2.579  0.5951  1.4456 -2.1877
 4848SOL    HW219391   2.807   2.146   2.531  0.7472 -0.0454 -1.4001
 4848SOL     MW19392   2.859   2.202   2.574  0.1762 -0.1322 -0.5712
 4849SOL     OW19393   2.434   3.679   0.893 -0.0465  0.1591  0.1918
 4849SOL    HW119394   2.511   3.651   0.844  0.9193 -1.0485  2.2436
 4849SOL    HW219395   2.364   3.681   0.829  1.3672 -0.2510 -1.4357
 4849SOL     MW19396   2.435   3.675   0.878  0.2737 -0.0586  0.2489
 4850SOL     OW19397   1.267   2.353   2.638 -0.1814  0.7780  0.2235
 4850SOL    HW119398   1.263   2.318   2.727 -1.9182 -0.4146 -0.2539
 4850SOL    HW219399   1.244   2.445   2.647 -1.8236  0.3516  0.9136
 4850SOL     MW19400   1.263   2.361   2.651 -0.6362  0.5601  0.2521
 4851SOL     OW19401   0.207   2.995   4.490  0.3529  0.1575 -0.1402
 4851SOL    HW119402   0.248   3.003   4.576 -1.6549  2.2992  0.7237
 4851SOL    HW219403   0.228   3.077   4.446  0.7375 -0.6166 -1.4503
 4851SOL     MW19404   0.216   3.007   4.496  0.1345  0.3416 -0.2002
 4852SOL     OW19405   2.026   0.819   0.418  0.5547  0.0787 -0.0214
 4852SOL    HW119406   1.996   0.810   0.509 -0.0043 -1.3487 -0.3199
 4852SOL    HW219407   1.960   0.874   0.376 -0.2964 -0.9008 -0.0255
 4852SOL     MW19408   2.013   0.825   0.425  0.3649 -0.2453 -0.0621
 4853SOL     OW19409   2.065   3.791   2.974  0.6555 -0.3998 -0.4819
 4853SOL    HW119410   2.106   3.866   2.931 -0.1681  0.8603  0.8320
 4853SOL    HW219411   1.971   3.810   2.972  0.5657 -0.2482  1.8067
 4853SOL     MW19412   2.058   3.804   2.968  0.5326 -0.2099  0.0029
 4854SOL     OW19413   2.431   3.019   1.679  0.3064 -0.3774  0.3011
 4854SOL    HW119414   2.460   2.928   1.674  0.3104 -0.3872  0.4845
 4854SOL    HW219415   2.337   3.012   1.699  0.3459 -0.3391  0.4957
 4854SOL     MW19416   2.422   3.005   1.681  0.3122 -0.3735  0.3520
 4855SOL     OW19417   4.187   4.882   3.306  0.4961  0.2434  0.5071
 4855SOL    HW119418   4.121   4.930   3.357 -0.8530 -1.3093  0.3165
 4855SOL    HW219419   4.135   4.824   3.249  1.9984  0.4741 -1.1829
 4855SOL     MW19420   4.171   4.881   3.305  0.5167  0.0655  0.2540
 4856SOL     OW19421   5.448   5.426   3.711 -0.1772 -0.5352  0.0806
 4856SOL    HW119422   5.396   5.427   3.631  0.1564 -0.3874 -0.1361
 4856SOL    HW219423   5.496   5.509   3.709  2.2329 -1.8539 -1.1505
 4856SOL     MW19424   5.447   5.438   3.700  0.1921 -0.6928 -0.1143
 4857SOL     OW19425   2.194   1.630   4.324 -0.1553 -0.0725  0.1957
 4857SOL    HW119426   2.112   1.650   4.279  0.6854 -0.4694 -1.5794
 4857SOL    HW219427   2.260   1.678   4.275  0.5431  1.6526  2.6164
 4857SOL     MW19428   2.192   1.639   4.311  0.0519  0.1062  0.2826
 4858SOL     OW19429   4.945   0.185   3.348 -0.3233  0.6639  0.2351
 4858SOL    HW119430   4.995   0.129   3.288  1.1560  0.5425  1.5214
 4858SOL    HW219431   4.943   0.270   3.303  0.2058  0.4142 -0.2912
 4858SOL     MW19432   4.952   0.189   3.334 -0.0530  0.6139  0.3374
 4859SOL     OW19433   1.284   2.739   4.372 -0.6847 -0.0868  0.3201
 4859SOL    HW119434   1.371   2.748   4.334 -0.8714  0.1298 -0.0536
 4859SOL    HW219435   1.296   2.675   4.443 -0.7301 -2.0951 -1.3861
 4859SOL     MW19436   1.297   2.731   4.377 -0.7159 -0.3279  0.0402
 4860SOL     OW19437   0.358   0.247   1.603 -0.3200  0.2577  0.5887
 4860SOL    HW119438   0.310   0.329   1.614 -0.3908  0.0350  2.0837
 4860SOL    HW219439   0.445   0.264   1.638  0.0339  0.0251 -0.1522
 4860SOL     MW19440   0.363   0.260   1.609 -0.2819  0.1964  0.6902
 4861SOL     OW19441   2.708   1.492   2.546 -0.2154  0.9207  0.3005
 4861SOL    HW119442   2.797   1.510   2.515 -0.4175  0.4444 -0.6013
 4861SOL    HW219443   2.661   1.466   2.467 -0.5158 -1.3161  1.1539
 4861SOL     MW19444   2.714   1.491   2.531 -0.2830  0.5556  0.2940
 4862SOL     OW19445   5.460   5.327   4.951 -0.6589 -0.2589 -0.2069
 4862SOL    HW119446   5.544   5.291   4.980 -0.7465  0.1756  0.6353
 4862SOL    HW219447   5.481   5.375   4.871 -0.3614 -1.3046 -0.7752
 4862SOL     MW19448   5.475   5.329   4.944 -0.6307 -0.3412 -0.1700
 4863SOL     OW19449   3.448   2.733   2.155  0.0440  0.7867  0.5453
 4863SOL    HW119450   3.409   2.820   2.153  1.6601  1.5459 -0.3197
 4863SOL    HW219451   3.435   2.703   2.244 -0.9619  1.7128  0.7310
 4863SOL     MW19452   3.441   2.741   2.166  0.1261  1.0135  0.4539
 4864SOL     OW19453   2.497   2.963   2.324 -0.4406 -0.0718  0.6724
 4864SOL    HW119454   2.494   2.930   2.235 -1.5458 -1.6186  1.2401
 4864SOL    HW219455   2.581   2.932   2.358 -1.2904 -2.0957  1.0689
 4864SOL     MW19456   2.508   2.954   2.317 -0.7037 -0.5523  0.8021
 4865SOL     OW19457   3.596   3.327   1.651  0.5121  0.3307  0.2531
 4865SOL    HW119458   3.560   3.405   1.693 -0.0723  1.5049 -2.2892
 4865SOL    HW219459   3.520   3.279   1.620  0.9551  0.2026 -0.6652
 4865SOL     MW19460   3.581   3.331   1.653  0.4931  0.4715 -0.2126
 4866SOL     OW19461   0.086   2.446   5.283  0.0735 -0.6409 -0.9205
 4866SOL    HW119462   0.103   2.534   5.318  0.9748 -1.1513 -0.0107
 4866SOL    HW219463   0.021   2.460   5.214 -0.1243  0.6840 -0.5049
 4866SOL     MW19464   0.080   2.460   5.279  0.1682 -0.5313 -0.7421
 4867SOL     OW19465   5.515   4.220   1.383  0.1015 -0.2917 -0.0746
 4867SOL    HW119466   5.523   4.188   1.473  0.0976  0.0660  0.0536
 4867SOL    HW219467   5.485   4.311   1.392 -1.5196 -0.7545 -0.4816
 4867SOL     MW19468   5.512   4.228   1.396 -0.1172 -0.3058 -0.1121
 4868SOL     OW19469   4.308   4.392   2.910  0.1336 -0.0571 -0.1250
 4868SOL    HW119470   4.223   4.350   2.922 -0.3434  1.3455  1.8151
 4868SOL    HW219471   4.297   4.449   2.834 -0.2562 -0.7932 -0.6354
 4868SOL     MW19472   4.295   4.394   2.901  0.0169  0.0326  0.0674
 4869SOL     OW19473   2.034   4.562   4.237 -0.5165 -0.2112 -0.0634
 4869SOL    HW119474   2.011   4.651   4.212  0.2830 -0.7266 -2.9533
 4869SOL    HW219475   1.963   4.508   4.203 -1.3236 -0.6931  2.2178
 4869SOL     MW19476   2.021   4.567   4.229 -0.5175 -0.3455 -0.1453
 4870SOL     OW19477   4.849   1.794   4.747  0.0430  0.1579 -0.2975
 4870SOL    HW119478   4.789   1.719   4.753  1.1636 -0.6299  3.1436
 4870SOL    HW219479   4.878   1.793   4.655 -3.6066 -0.5939 -1.6169
 4870SOL     MW19480   4.845   1.784   4.735 -0.2973 -0.0493 -0.0120
 4871SOL     OW19481   0.470   2.376   3.832 -0.0472  0.1396  0.4186
 4871SOL    HW119482   0.450   2.452   3.779 -1.2236 -0.1351  0.4491
 4871SOL    HW219483   0.461   2.406   3.922  2.9146  0.8782  0.5779
 4871SOL     MW19484   0.466   2.390   3.837  0.1931  0.2020  0.4442
 4872SOL     OW19485   4.329   3.284   1.136  0.3873 -0.0627  0.2425
 4872SOL    HW119486   4.277   3.360   1.164  1.1807  0.2994  0.7673
 4872SOL    HW219487   4.407   3.287   1.191  1.7523  0.3347 -1.5956
 4872SOL     MW19488   4.333   3.295   1.147  0.6778  0.0395  0.0658
 4873SOL     OW19489   1.100   2.586   1.769  0.2466  0.4112 -0.4149
 4873SOL    HW119490   1.149   2.505   1.753 -0.0658  0.3596 -1.1645
 4873SOL    HW219491   1.034   2.588   1.699 -0.9156  0.4108  0.6562
 4873SOL     MW19492   1.098   2.575   1.757  0.0482  0.4042 -0.3717
 4874SOL     OW19493   3.048   4.213   0.056  0.0113  0.9549  0.2339
 4874SOL    HW119494   3.017   4.162   0.130 -0.5087  0.7161 -0.1418
 4874SOL    HW219495   3.112   4.274   0.093 -1.2484  1.7875  1.1269
 4874SOL     MW19496   3.053   4.215   0.071 -0.2282  1.0348  0.3035
 4875SOL     OW19497   3.008   0.218   4.458 -0.1516 -0.6330  1.2770
 4875SOL    HW119498   3.018   0.229   4.553 -2.0218  0.2553  1.4246
 4875SOL    HW219499   2.918   0.246   4.440  0.6426  0.7685 -0.9843
 4875SOL     MW19500   2.998   0.223   4.468 -0.2964 -0.3248  0.9926
 4876SOL     OW19501   3.650   4.176   4.361 -0.2013  0.6958  0.1357
 4876SOL    HW119502   3.556   4.192   4.371 -0.3014 -0.6490  1.6813
 4876SOL    HW219503   3.657   4.118   4.286 -0.6849  0.1593  0.5005
 4876SOL     MW19504   3.638   4.171   4.353 -0.2798  0.4426  0.3928
 4877SOL     OW19505   4.452   2.436   2.127  0.3946  0.0146  0.6786
 4877SOL    HW119506   4.468   2.521   2.167 -1.3231  0.1466  1.1387
 4877SOL    HW219507   4.460   2.451   2.033  0.7640  0.5277  0.7920
 4877SOL     MW19508   4.455   2.449   2.120  0.2131  0.1014  0.7558
 4878SOL     OW19509   1.418   4.944   3.066 -0.3906  0.0647 -0.3897
 4878SOL    HW119510   1.497   4.997   3.075 -0.1781 -0.2396 -0.4373
 4878SOL    HW219511   1.372   4.955   3.148 -0.9905  1.3421 -0.8713
 4878SOL     MW19512   1.422   4.952   3.078 -0.4427  0.1956 -0.4609
 4879SOL     OW19513   1.331   2.220   2.104 -0.2313  0.1753 -0.1461
 4879SOL    HW119514   1.273   2.177   2.042  0.3709  0.8085 -1.1738
 4879SOL    HW219515   1.379   2.284   2.052  1.6748 -0.5869  0.5872
 4879SOL     MW19516   1.330   2.223   2.089  0.1063  0.1580 -0.1857
 4880SOL     OW19517   1.588   3.228   0.298  0.2949 -0.6880 -0.1100
 4880SOL    HW119518   1.542   3.151   0.332 -1.1806 -1.1624 -2.9096
 4880SOL    HW219519   1.675   3.196   0.275  0.0056 -1.3119 -0.3676
 4880SOL     MW19520   1.594   3.214   0.300  0.0574 -0.8358 -0.5214
 4881SOL     OW19521   0.448   4.087   4.012 -0.5376  0.6081 -0.4640
 4881SOL    HW119522   0.419   4.045   4.093  1.7275  0.4009  0.3286
 4881SOL    HW219523   0.540   4.109   4.028 -0.2654  1.3793 -2.6667
 4881SOL     MW19524   0.457   4.084   4.025 -0.1961  0.6840 -0.6538
 4882SOL     OW19525   3.827   4.039   3.025  0.2207  0.6168 -0.1365
 4882SOL    HW119526   3.765   4.066   2.957 -0.8583 -2.2969 -0.4779
 4882SOL    HW219527   3.772   4.024   3.102  0.6302 -0.8288 -0.0949
 4882SOL     MW19528   3.811   4.041   3.026  0.1306  0.0301 -0.1768
 4883SOL     OW19529   2.696   1.592   5.364  0.0057  0.0625 -0.1168
 4883SOL    HW119530   2.660   1.676   5.337  0.1244  0.3478  0.5983
 4883SOL    HW219531   2.711   1.601   5.458 -1.4021 -1.2892  0.2610
 4883SOL     MW19532   2.693   1.605   5.373 -0.1678 -0.0810  0.0303
 4884SOL     OW19533   1.832   3.889   5.460  0.3171  0.3793 -0.0504
 4884SOL    HW119534   1.864   3.827   5.394 -2.0410 -0.5942 -0.3699
 4884SOL    HW219535   1.795   3.961   5.409 -1.6419 -0.4423  0.1355
 4884SOL     MW19536   1.831   3.890   5.444 -0.2639  0.1377 -0.0684
 4885SOL     OW19537   2.219   3.897   0.775 -0.1288 -0.2817  0.5889
 4885SOL    HW119538   2.229   3.945   0.693 -0.3678  1.0779  1.3179
 4885SOL    HW219539   2.126   3.904   0.796  0.2007  0.9702  1.8510
 4885SOL     MW19540   2.208   3.905   0.767 -0.1167  0.0697  0.8569
 4886SOL     OW19541   2.745   2.730   5.336  0.4661 -0.3695 -0.6262
 4886SOL    HW119542   2.790   2.690   5.410 -1.6688 -2.6676 -0.4125
 4886SOL    HW219543   2.788   2.692   5.259 -0.1779 -1.5020 -0.4499
 4886SOL     MW19544   2.757   2.720   5.336  0.0921 -0.8312 -0.5737
 4887SOL     OW19545   1.385   3.941   2.582 -0.5069 -0.1605 -0.5115
 4887SOL    HW119546   1.416   3.878   2.647 -0.3923  1.0958  0.7181
 4887SOL    HW219547   1.315   3.989   2.627  0.3404  1.5045 -0.8936
 4887SOL     MW19548   1.380   3.939   2.597 -0.3774  0.2326 -0.3974
 4888SOL     OW19549   0.417   3.555   2.243 -0.0911  0.4517 -0.5572
 4888SOL    HW119550   0.489   3.610   2.212  0.1697  0.8881  0.7547
 4888SOL    HW219551   0.460   3.492   2.301 -0.3282 -1.3900 -2.2634
 4888SOL     MW19552   0.433   3.554   2.247 -0.0879  0.2626 -0.6102
 4889SOL     OW19553   0.823   3.870   2.359  0.0888  0.1668 -0.2089
 4889SOL    HW119554   0.836   3.851   2.452  1.8027  0.0822 -0.4434
 4889SOL    HW219555   0.792   3.961   2.357 -0.9595 -0.1610  0.4839
 4889SOL     MW19556   0.821   3.880   2.371  0.1783  0.1113 -0.1472
 4890SOL     OW19557   4.135   1.810   3.953  0.5839 -0.4101  0.4040
 4890SOL    HW119558   4.204   1.772   3.898  0.8613 -0.4378  0.7737
 4890SOL    HW219559   4.061   1.750   3.943 -1.0995  1.9066 -3.7221
 4890SOL     MW19560   4.134   1.797   3.944  0.3947 -0.1020 -0.1015
 4891SOL     OW19561   4.140   2.832   3.722 -1.3332  0.4378  0.0675
 4891SOL    HW119562   4.206   2.784   3.672  0.0307  0.5678  1.6840
 4891SOL    HW219563   4.067   2.771   3.729 -0.6607 -0.4100 -0.1579
 4891SOL     MW19564   4.139   2.818   3.716 -1.0592  0.3412  0.2547
 4892SOL     OW19565   2.619   1.866   5.315 -0.5912  0.1761  0.2795
 4892SOL    HW119566   2.601   1.897   5.404 -0.3204 -1.4983  0.9501
 4892SOL    HW219567   2.713   1.880   5.303 -0.6093  0.3112  0.2973
 4892SOL     MW19568   2.629   1.872   5.325 -0.5572 -0.0311  0.3722
 4893SOL     OW19569   4.676   2.605   0.517  0.2242 -0.1642 -0.3972
 4893SOL    HW119570   4.599   2.661   0.506  1.1155  1.3099  0.5408
 4893SOL    HW219571   4.751   2.665   0.505  1.2072 -1.1668  0.5471
 4893SOL     MW19572   4.676   2.621   0.514  0.4764 -0.1007 -0.1439
 4894SOL     OW19573   1.393   3.125   4.292  0.4090  0.5562 -0.3981
 4894SOL    HW119574   1.450   3.103   4.218  1.1277  0.9632  0.0127
 4894SOL    HW219575   1.436   3.086   4.368 -1.8754 -2.4951 -0.4990
 4894SOL     MW19576   1.407   3.117   4.292  0.1983  0.2003 -0.3564
 4895SOL     OW19577   5.090   2.271   0.601  0.0757 -0.1388 -0.1710
 4895SOL    HW119578   5.161   2.208   0.590  2.2020  2.0028  0.2299
 4895SOL    HW219579   5.044   2.242   0.680 -0.8457 -2.6896 -1.5433
 4895SOL     MW19580   5.093   2.259   0.610  0.2379 -0.1939 -0.3017
 4896SOL     OW19581   2.288   4.708   1.581  0.1202 -0.4240  0.5960
 4896SOL    HW119582   2.254   4.657   1.507 -0.7046 -0.3699  0.9358
 4896SOL    HW219583   2.240   4.791   1.578 -0.3319 -0.6439  1.5327
 4896SOL     MW19584   2.277   4.712   1.570 -0.0517 -0.4463  0.7678
 4897SOL     OW19585   3.214   4.110   3.101 -0.1534  0.2066  0.5513
 4897SOL    HW119586   3.218   4.028   3.051  1.9663  1.0719 -0.8212
 4897SOL    HW219587   3.122   4.136   3.095 -0.3957 -0.8497 -1.0888
 4897SOL     MW19588   3.202   4.102   3.093  0.0992  0.1809  0.1459
 4898SOL     OW19589   4.494   1.593   0.347  0.4603 -0.5605 -0.1660
 4898SOL    HW119590   4.563   1.529   0.327 -0.3435 -1.4110 -0.2835
 4898SOL    HW219591   4.453   1.611   0.263  0.3545 -0.2729 -0.0542
 4898SOL     MW19592   4.498   1.586   0.333  0.3379 -0.6363 -0.1668
 4899SOL     OW19593   0.043   2.463   2.179 -0.1083 -0.2122 -0.3221
 4899SOL    HW119594   0.124   2.435   2.136  0.3259  0.4493  0.0350
 4899SOL    HW219595   0.057   2.556   2.197 -1.5691  0.2998 -1.6261
 4899SOL     MW19596   0.056   2.472   2.176 -0.2465 -0.0543 -0.4496
 4900SOL     OW19597   0.745   3.621   4.041 -0.0248 -0.2260 -0.1604
 4900SOL    HW119598   0.824   3.636   4.092 -0.5831  2.6348  0.0315
 4900SOL    HW219599   0.677   3.606   4.106 -0.4782  2.0978 -0.0040
 4900SOL     MW19600   0.746   3.621   4.056 -0.1609  0.4718 -0.1136
 4901SOL     OW19601   0.852   2.719   3.002 -0.3740  0.3732  0.5225
 4901SOL    HW119602   0.939   2.745   2.972  0.6099  0.5121  3.2454
 4901SOL    HW219603   0.804   2.697   2.922  1.8487  1.2083 -1.1142
 4901SOL     MW19604   0.857   2.719   2.987  0.0575  0.5043  0.6687
 4902SOL     OW19605   0.265   5.202   3.981  0.1974 -0.0304  0.4272
 4902SOL    HW119606   0.339   5.144   3.962  0.0084 -0.2632  0.3900
 4902SOL    HW219607   0.216   5.156   4.050  0.1740  0.1973  0.5646
 4902SOL     MW19608   0.268   5.188   3.988  0.1688 -0.0311  0.4407
 4903SOL     OW19609   4.529   0.399   1.565  0.0612  0.3347  0.7054
 4903SOL    HW119610   4.435   0.412   1.578  0.1694  0.7045  1.1370
 4903SOL    HW219611   4.555   0.342   1.637  0.0621 -0.2587  0.2465
 4903SOL     MW19612   4.520   0.393   1.576  0.0759  0.3046  0.7017
 4904SOL     OW19613   1.049   1.406   4.901  0.6375 -0.2751  0.6268
 4904SOL    HW119614   0.962   1.410   4.860  0.5383 -0.3200  0.8333
 4904SOL    HW219615   1.061   1.313   4.922  1.0248 -0.3797 -0.0222
 4904SOL     MW19616   1.039   1.394   4.898  0.6763 -0.2952  0.5672
 4905SOL     OW19617   0.999   1.486   2.117 -0.0056 -1.1670 -0.2885
 4905SOL    HW119618   0.948   1.421   2.166  1.6779 -2.8454 -0.5995
 4905SOL    HW219619   0.954   1.495   2.034 -1.7323  0.1297  0.7324
 4905SOL     MW19620   0.986   1.478   2.113 -0.0114 -1.2183 -0.1929
 4906SOL     OW19621   0.400   0.596   4.191  0.2924 -0.7105  0.1291
 4906SOL    HW119622   0.458   0.525   4.163  2.0719 -0.1404  2.1121
 4906SOL    HW219623   0.454   0.675   4.182 -0.9807  0.1525 -0.1202
 4906SOL     MW19624   0.415   0.597   4.186  0.3606 -0.5177  0.3624
 4907SOL     OW19625   4.199   0.114   0.109 -0.3264 -0.1581  0.1619
 4907SOL    HW119626   4.241   0.199   0.120  0.4255 -0.5487  0.3788
 4907SOL    HW219627   4.164   0.116   0.019 -1.2348  0.7621  0.5085
 4907SOL     MW19628   4.200   0.126   0.098 -0.3475 -0.0869  0.2377
 4908SOL     OW19629   1.727   1.902   3.472 -0.5608  0.5804 -0.0304
 4908SOL    HW119630   1.799   1.964   3.481 -0.0828 -0.0954  1.0959
 4908SOL    HW219631   1.656   1.940   3.524 -0.1602  0.0631  0.9283
 4908SOL     MW19632   1.727   1.915   3.481 -0.4425  0.4198  0.2502
 4909SOL     OW19633   1.056   4.093   4.593 -0.1441 -0.2454  0.0427
 4909SOL    HW119634   1.086   4.174   4.634  0.5172 -0.5642  0.2049
 4909SOL    HW219635   1.000   4.052   4.659 -1.6045  0.7282 -0.5540
 4909SOL     MW19636   1.053   4.098   4.607 -0.2516 -0.1573 -0.0158
 4910SOL     OW19637   1.751   4.354   3.273  0.2329 -0.6179  0.0607
 4910SOL    HW119638   1.843   4.374   3.291  0.8384 -0.8946 -2.4715
 4910SOL    HW219639   1.745   4.258   3.281  0.5655 -0.7687 -1.3871
 4910SOL     MW19640   1.762   4.344   3.277  0.3592 -0.6754 -0.4749
 4911SOL     OW19641   0.603   5.502   0.617  0.2448  0.0776  0.7198
 4911SOL    HW119642   0.632   5.493   0.708  1.0608 -3.0139  0.2519
 4911SOL    HW219643   0.518   5.458   0.615  1.4432 -2.3842 -0.4593
 4911SOL     MW19644   0.596   5.495   0.629  0.5159 -0.6697  0.4981
 4912SOL     OW19645   1.330   2.029   2.921 -0.3939 -0.7117  0.1634
 4912SOL    HW119646   1.261   1.969   2.893 -0.4531  0.1602 -1.6875
 4912SOL    HW219647   1.409   1.997   2.878 -0.4149  0.4618 -0.8162
 4912SOL     MW19648   1.332   2.017   2.912 -0.4047 -0.4364 -0.2175
 4913SOL     OW19649   4.547   3.144   2.030  0.3038  0.0339 -0.0930
 4913SOL    HW119650   4.622   3.090   2.004  0.9805  1.6574 -1.7638
 4913SOL    HW219651   4.488   3.140   1.955  0.2060  1.2992 -0.1037
 4913SOL     MW19652   4.549   3.136   2.016  0.3817  0.4226 -0.3193
 4914SOL     OW19653   1.798   0.993   0.384  0.0436 -0.5719  0.3786
 4914SOL    HW119654   1.745   0.939   0.443 -1.7319  0.4903 -0.1562
 4914SOL    HW219655   1.760   0.978   0.297  0.1285  0.7582  0.0820
 4914SOL     MW19656   1.786   0.984   0.380 -0.1840 -0.2500  0.2667
 4915SOL     OW19657   2.440   0.383   2.941  0.2865 -0.0294  0.4015
 4915SOL    HW119658   2.510   0.407   2.880 -0.9668 -0.0075 -1.0926
 4915SOL    HW219659   2.403   0.467   2.970 -0.7860 -0.0102 -0.8772
 4915SOL     MW19660   2.444   0.398   2.937 -0.0265 -0.0238  0.0284
 4916SOL     OW19661   0.258   4.325   5.006 -0.0757 -0.2867 -0.0681
 4916SOL    HW119662   0.247   4.416   5.034 -1.4496  0.1500 -1.8175
 4916SOL    HW219663   0.231   4.273   5.081  1.8816  0.6779  1.4013
 4916SOL     MW19664   0.253   4.330   5.020  0.0028 -0.0981 -0.1058
 4917SOL     OW19665   1.490   4.085   4.807 -0.2350  0.1269  0.3601
 4917SOL    HW119666   1.427   4.125   4.867 -0.0528  2.5701 -0.9613
 4917SOL    HW219667   1.550   4.036   4.865 -0.8194  1.2975  2.0432
 4917SOL     MW19668   1.490   4.083   4.823 -0.2891  0.6132  0.4088
 4918SOL     OW19669   1.508   0.555   2.210 -0.3345 -0.2424  0.2951
 4918SOL    HW119670   1.437   0.502   2.175 -0.0644 -1.0163  0.8769
 4918SOL    HW219671   1.466   0.635   2.242 -0.3417  1.7052 -3.9317
 4918SOL     MW19672   1.493   0.558   2.210 -0.2991 -0.0844 -0.1955
 4919SOL     OW19673   1.341   5.532   1.821  0.1776 -0.5519  0.1852
 4919SOL    HW119674   1.309   5.449   1.786 -0.0065 -0.2196 -0.4380
 4919SOL    HW219675   1.372   5.510   1.909  0.8438 -1.4270 -0.2540
 4919SOL     MW19676   1.340   5.518   1.828  0.2425 -0.6250  0.0422
 4920SOL     OW19677   1.398   3.323   1.508  0.5148 -0.5609  0.0886
 4920SOL    HW119678   1.455   3.247   1.494  0.1653 -0.7582 -0.2900
 4920SOL    HW219679   1.381   3.324   1.602  1.4000 -0.3158  0.2532
 4920SOL     MW19680   1.404   3.313   1.518  0.5869 -0.5544  0.0598
 4921SOL     OW19681   5.335   2.095   2.071  0.2930  0.2303 -0.1185
 4921SOL    HW119682   5.419   2.091   2.117 -0.1756  0.7789  0.8095
 4921SOL    HW219683   5.291   2.172   2.108 -0.9892 -0.5563  0.0461
 4921SOL     MW19684   5.340   2.105   2.082  0.0574  0.1983  0.0285
 4922SOL     OW19685   4.533   0.095   2.014  0.3486  0.1227  0.3824
 4922SOL    HW119686   4.532   0.020   2.073 -0.6377 -0.4497 -0.3423
 4922SOL    HW219687   4.568   0.167   2.068 -0.5666 -0.3705  1.6856
 4922SOL     MW19688   4.538   0.095   2.030  0.0927 -0.0207  0.4602
 4923SOL     OW19689   3.702   2.599   0.128 -0.2875 -0.1323  0.1220
 4923SOL    HW119690   3.711   2.508   0.099  1.5949 -0.2220  0.8951
 4923SOL    HW219691   3.703   2.594   0.224  2.1232  0.8634  0.1971
 4923SOL     MW19692   3.703   2.586   0.137  0.2903 -0.0104  0.2361
 4924SOL     OW19693   3.322   4.344   2.964  0.0592 -0.2188 -0.2917
 4924SOL    HW119694   3.256   4.398   2.920  0.5960  0.0955 -0.7304
 4924SOL    HW219695   3.275   4.265   2.989  0.3554 -1.9146 -4.3352
 4924SOL     MW19696   3.307   4.341   2.961  0.1713 -0.4047 -0.8949
 4925SOL     OW19697   2.024   4.482   3.098 -0.1993 -0.1321  0.0907
 4925SOL    HW119698   2.076   4.402   3.085 -0.1596 -0.0767 -0.0991
 4925SOL    HW219699   1.989   4.501   3.011  0.9199  0.8373 -0.1832
 4925SOL     MW19700   2.027   4.474   3.084 -0.0433  0.0058  0.0283
 4926SOL     OW19701   0.887   4.565   2.153  0.5048 -0.3084 -0.3069
 4926SOL    HW119702   0.792   4.557   2.150  0.4670 -0.3211  0.6162
 4926SOL    HW219703   0.919   4.500   2.090 -0.0954 -0.1516 -0.7834
 4926SOL     MW19704   0.879   4.555   2.144  0.4190 -0.2890 -0.2468
 4927SOL     OW19705   2.825   1.120   1.381  0.0170 -0.0218 -0.2844
 4927SOL    HW119706   2.889   1.075   1.436 -0.1160 -0.8152 -0.7663
 4927SOL    HW219707   2.877   1.173   1.321  0.2356 -0.7904 -0.7838
 4927SOL     MW19708   2.840   1.122   1.381  0.0286 -0.2320 -0.4164
 4928SOL     OW19709   2.187   0.872   0.731 -0.6600  0.2116 -0.4497
 4928SOL    HW119710   2.188   0.860   0.826 -0.4680  0.3909 -0.4289
 4928SOL    HW219711   2.272   0.838   0.702 -0.9773 -0.4410 -0.6312
 4928SOL     MW19712   2.199   0.865   0.740 -0.6769  0.1479 -0.4713
 4929SOL     OW19713   3.753   3.658   3.032  0.6591 -0.2319  0.2703
 4929SOL    HW119714   3.819   3.717   2.998  1.3340 -1.8928 -1.4466
 4929SOL    HW219715   3.669   3.700   3.012  1.1445  0.9655  0.7199
 4929SOL     MW19716   3.750   3.671   3.025  0.8152 -0.2943  0.0997
 4930SOL     OW19717   1.388   2.548   0.952 -0.4970 -0.3094  0.4006
 4930SOL    HW119718   1.418   2.497   1.027 -0.9141 -0.2802  0.5851
 4930SOL    HW219719   1.353   2.484   0.891 -0.9856 -0.2451  0.6158
 4930SOL     MW19720   1.388   2.533   0.954 -0.6189 -0.2968  0.4544
 4931SOL     OW19721   4.549   1.331   1.169 -0.4261  0.2453 -0.2633
 4931SOL    HW119722   4.551   1.277   1.090  0.4507 -1.5735  0.9413
 4931SOL    HW219723   4.641   1.348   1.189 -0.6665  1.4532 -0.0973
 4931SOL     MW19724   4.562   1.326   1.161 -0.3404  0.1631 -0.0789
 4932SOL     OW19725   3.764   1.067   3.832  0.0836  0.7433  0.6089
 4932SOL    HW119726   3.711   1.060   3.911 -0.3270 -2.0061  0.1977
 4932SOL    HW219727   3.700   1.079   3.761  0.0950 -0.5693  0.3387
 4932SOL     MW19728   3.748   1.067   3.833  0.0299  0.1966  0.5172
 4933SOL     OW19729   4.426   2.581   4.839 -0.6032 -0.8114 -0.1993
 4933SOL    HW119730   4.443   2.634   4.917 -1.8579  0.3921 -0.7000
 4933SOL    HW219731   4.466   2.629   4.768 -1.0893 -0.9247 -0.5554
 4933SOL     MW19732   4.433   2.595   4.840 -0.8375 -0.6646 -0.3146
 4934SOL     OW19733   0.015   5.524   5.324  0.4241  0.2833 -0.0723
 4934SOL    HW119734  -0.053   5.474   5.280  2.0400 -2.3391  0.2176
 4934SOL    HW219735   0.077   5.547   5.255  0.6504  0.2100  0.1061
 4934SOL     MW19736   0.014   5.521   5.309  0.6720 -0.0795 -0.0093
 4935SOL     OW19737   4.142   4.177   4.016  0.5775  1.1774  0.2467
 4935SOL    HW119738   4.104   4.108   4.069  0.5703 -0.0119 -1.2450
 4935SOL    HW219739   4.089   4.254   4.035 -0.3020  0.4294  0.8811
 4935SOL     MW19740   4.130   4.178   4.025  0.4581  0.9167  0.1313
 4936SOL     OW19741   3.942   0.462   4.732 -0.1566  0.3155 -0.2820
 4936SOL    HW119742   3.896   0.382   4.708  1.2729 -1.5635  2.5573
 4936SOL    HW219743   3.947   0.459   4.828  0.8321  3.3287 -0.1262
 4936SOL     MW19744   3.937   0.451   4.742  0.1688  0.4681  0.1211
 4937SOL     OW19745   0.504   0.048   2.007 -0.5003  0.1036 -0.2829
 4937SOL    HW119746   0.553  -0.032   1.986 -0.5283  0.2615 -0.9823
 4937SOL    HW219747   0.499   0.049   2.103 -0.2185 -0.5623 -0.2560
 4937SOL     MW19748   0.510   0.037   2.017 -0.4661  0.0352 -0.3734
 4938SOL     OW19749   0.041   1.468   3.932 -0.1371  0.1220 -0.0457
 4938SOL    HW119750   0.048   1.394   3.872  2.0498  0.0032  0.2999
 4938SOL    HW219751  -0.031   1.444   3.991  0.6601 -1.8457  0.1949
 4938SOL     MW19752   0.032   1.455   3.932  0.2645 -0.1588  0.0332
 4939SOL     OW19753   1.844   5.334   0.803  0.2715 -0.1663 -0.0584
 4939SOL    HW119754   1.793   5.396   0.752 -1.1233 -0.5256  0.8304
 4939SOL    HW219755   1.903   5.293   0.740  1.2317  2.0119 -0.6561
 4939SOL     MW19756   1.845   5.337   0.788  0.2130  0.0785 -0.0193
 4940SOL     OW19757   3.244   0.304   2.988 -0.3627  0.4679 -0.0781
 4940SOL    HW119758   3.293   0.335   3.065 -1.0308  2.0928 -0.2581
 4940SOL    HW219759   3.263   0.211   2.984  0.8973  0.6238  1.1784
 4940SOL     MW19760   3.253   0.296   2.998 -0.2831  0.7075  0.0668
 4941SOL     OW19761   2.237   3.185   1.383  0.2207  1.1431 -0.6308
 4941SOL    HW119762   2.192   3.239   1.448 -0.8837  0.2984 -0.6592
 4941SOL    HW219763   2.196   3.099   1.392  0.4810  0.8545 -2.0305
 4941SOL     MW19764   2.226   3.181   1.393  0.1071  0.9905 -0.8230
 4942SOL     OW19765   3.916   4.550   4.934 -0.0354 -0.0157 -0.3387
 4942SOL    HW119766   3.857   4.480   4.906  0.4650 -0.5007 -0.2046
 4942SOL    HW219767   3.872   4.631   4.908 -0.9552 -0.3468  0.1197
 4942SOL     MW19768   3.902   4.552   4.927 -0.0919 -0.1255 -0.2590
 4943SOL     OW19769   5.183   1.521   3.259 -0.4131 -0.3472 -0.0991
 4943SOL    HW119770   5.177   1.583   3.186 -0.5940 -1.5831 -1.1656
 4943SOL    HW219771   5.265   1.543   3.303  0.0184  0.0035 -1.0547
 4943SOL     MW19772   5.193   1.533   3.255 -0.3794 -0.4663 -0.3712
 4944SOL     OW19773   4.534   4.871   2.617 -0.1373 -0.0950 -0.4252
 4944SOL    HW119774   4.628   4.891   2.622 -0.5928  1.9291  1.5988
 4944SOL    HW219775   4.502   4.926   2.546 -0.2073  1.4117  0.7130
 4944SOL     MW19776   4.543   4.881   2.608 -0.2080  0.3802  0.0004
 4945SOL     OW19777   0.166   4.984   2.749  0.2340 -0.0711  0.7357
 4945SOL    HW119778   0.084   4.992   2.798  0.7122  1.0514  1.3927
 4945SOL    HW219779   0.155   4.905   2.696 -1.1866 -0.0515  0.9672
 4945SOL     MW19780   0.153   4.975   2.748  0.1072  0.0826  0.8553
 4946SOL     OW19781   3.245   0.677   2.271  0.3748 -0.0728  0.4724
 4946SOL    HW119782   3.176   0.678   2.337  1.7051  0.4361  1.9229
 4946SOL    HW219783   3.325   0.663   2.321  1.4474  0.4415 -1.0378
 4946SOL     MW19784   3.246   0.675   2.287  0.6982  0.0649  0.4643
 4947SOL     OW19785   0.337   4.859   0.238 -0.3464 -0.1998  0.1009
 4947SOL    HW119786   0.389   4.939   0.241  0.3112 -0.6463  1.2805
 4947SOL    HW219787   0.318   4.846   0.145 -1.7260  2.1116 -0.0238
 4947SOL     MW19788   0.341   4.868   0.226 -0.4436  0.0512  0.2429
 4948SOL     OW19789   2.735   4.709   4.204  0.3438  0.5912 -0.3067
 4948SOL    HW119790   2.794   4.777   4.234 -0.5478  1.0017  0.5769
 4948SOL    HW219791   2.658   4.717   4.260  0.9659 -2.3836  1.1921
 4948SOL     MW19792   2.733   4.719   4.215  0.3075  0.2461  0.0139
 4949SOL     OW19793   1.046   1.151   3.673 -0.2927  0.5564  0.3929
 4949SOL    HW119794   1.088   1.141   3.759  0.1599  0.5338  0.1740
 4949SOL    HW219795   1.038   1.246   3.662 -0.0719  0.5702  0.3330
 4949SOL     MW19796   1.051   1.162   3.683 -0.2021  0.5553  0.3553
 4950SOL     OW19797   0.699   0.028   1.474 -0.0875  0.0702  0.0312
 4950SOL    HW119798   0.745   0.050   1.394 -0.7068  0.2157 -0.2914
 4950SOL    HW219799   0.608   0.053   1.457 -0.0772  0.8867  1.0708
 4950SOL     MW19800   0.693   0.034   1.461 -0.1695  0.1997  0.1277
 4951SOL     OW19801   4.483   3.581   4.483 -0.2525 -0.3472  0.6161
 4951SOL    HW119802   4.555   3.610   4.427 -1.0498 -0.5105 -0.5370
 4951SOL    HW219803   4.458   3.496   4.447 -1.2155 -0.1578  0.8019
 4951SOL     MW19804   4.489   3.573   4.471 -0.4894 -0.3437  0.4859
 4952SOL     OW19805   4.951   4.739   4.733  0.4252 -0.2609  0.0601
 4952SOL    HW119806   4.855   4.732   4.736  0.4624 -1.3431 -0.7504
 4952SOL    HW219807   4.968   4.820   4.684 -0.0875 -0.9690 -1.3323
 4952SOL     MW19808   4.940   4.749   4.727  0.3612 -0.5018 -0.2363
 4953SOL     OW19809   0.447   0.572   4.912 -0.1406 -0.4667 -0.3027
 4953SOL    HW119810   0.526   0.605   4.869 -0.0476 -0.3158 -0.0137
 4953SOL    HW219811   0.455   0.600   5.003  0.5463 -2.3005  0.2446
 4953SOL     MW19812   0.459   0.580   4.919 -0.0356 -0.6932 -0.1901
 4954SOL     OW19813   0.213   3.133   0.004  0.1729 -0.1991 -0.2126
 4954SOL    HW119814   0.173   3.194   0.065 -0.1845 -0.7359  0.1037
 4954SOL    HW219815   0.145   3.118  -0.062 -0.3670 -1.4677  0.5731
 4954SOL     MW19816   0.198   3.139   0.003  0.0521 -0.4421 -0.0643
 4955SOL     OW19817   4.046   0.041   3.756 -0.2169 -0.5353 -0.2464
 4955SOL    HW119818   4.066   0.098   3.682  0.6301  0.3803  0.6628
 4955SOL    HW219819   4.131   0.012   3.788 -0.6220 -1.8199 -0.3042
 4955SOL     MW19820   4.060   0.045   3.751 -0.1574 -0.5850 -0.1318
 4956SOL     OW19821   3.937   1.092   2.586 -0.3359  0.2726 -0.4103
 4956SOL    HW119822   3.976   1.138   2.661  1.1291  0.0481 -0.9980
 4956SOL    HW219823   3.950   1.151   2.512  0.6434 -0.6154 -0.9786
 4956SOL     MW19824   3.944   1.106   2.586 -0.0070  0.1229 -0.5659
 4957SOL     OW19825   0.977   1.087   1.535 -0.2672 -0.1252 -0.7419
 4957SOL    HW119826   0.998   1.108   1.444  0.5662  1.0549 -0.3119
 4957SOL    HW219827   0.887   1.055   1.533  0.2399 -1.5342 -2.1598
 4957SOL     MW19828   0.968   1.086   1.523 -0.0868 -0.1560 -0.8749
 4958SOL     OW19829   1.501   0.428   1.532  0.2110  0.1023 -0.1578
 4958SOL    HW119830   1.479   0.359   1.470 -1.7930  0.4700  0.0911
 4958SOL    HW219831   1.455   0.506   1.500  0.4687  0.7097  0.8825
 4958SOL     MW19832   1.492   0.429   1.519 -0.0240  0.2335  0.0157
 4959SOL     OW19833   2.569   2.346   4.310  0.0811  0.0015  0.2277
 4959SOL    HW119834   2.497   2.316   4.365 -0.5330 -0.9273 -1.0207
 4959SOL    HW219835   2.578   2.439   4.330 -2.2524  0.4215 -0.4058
 4959SOL     MW19836   2.561   2.354   4.320 -0.3156 -0.0670 -0.0256
 4960SOL     OW19837   0.171   2.582   2.879  0.0912  0.2482  0.1693
 4960SOL    HW119838   0.103   2.515   2.884  2.1050 -2.0706 -1.3010
 4960SOL    HW219839   0.240   2.551   2.938  1.7286  0.0932 -1.7001
 4960SOL     MW19840   0.171   2.568   2.887  0.5826 -0.0848 -0.2801
 4961SOL     OW19841   4.385   5.518   4.733 -0.3397 -0.0050 -0.2098
 4961SOL    HW119842   4.348   5.555   4.812 -0.4419 -1.0454  0.2493
 4961SOL    HW219843   4.379   5.423   4.745  0.3252 -0.1892 -1.1349
 4961SOL     MW19844   4.379   5.510   4.745 -0.2639 -0.1698 -0.2725
 4962SOL     OW19845   4.576   5.296   0.164  0.1268  0.2792  0.0896
 4962SOL    HW119846   4.483   5.274   0.161  0.1188 -0.0334  1.7212
 4962SOL    HW219847   4.619   5.215   0.189  0.6845  0.7491  0.7014
 4962SOL     MW19848   4.569   5.282   0.167  0.2008  0.3004  0.3915
 4963SOL     OW19849   2.761   0.829   0.557 -0.1129 -0.2589  0.2460
 4963SOL    HW119850   2.705   0.754   0.538 -1.9983  1.3594 -1.0767
 4963SOL    HW219851   2.714   0.904   0.519  2.0871  1.4758  0.7253
 4963SOL     MW19852   2.747   0.829   0.549 -0.0705  0.1924  0.1325
 4964SOL     OW19853   5.157   3.833   3.688 -0.0874 -0.5377  0.3051
 4964SOL    HW119854   5.215   3.903   3.661  0.9583 -0.8495  1.6563
 4964SOL    HW219855   5.075   3.876   3.712  0.0475  0.0484 -0.2824
 4964SOL     MW19856   5.154   3.848   3.688  0.0715 -0.5008  0.4079
 4965SOL     OW19857   2.554   4.219   4.343 -0.2250  0.1590 -0.5829
 4965SOL    HW119858   2.597   4.141   4.309 -0.1260 -1.6231  3.0754
 4965SOL    HW219859   2.461   4.203   4.328 -0.1484 -0.2816 -0.6097
 4965SOL     MW19860   2.547   4.206   4.337 -0.2014 -0.1401 -0.0942
 4966SOL     OW19861   5.322   2.315   2.795  0.4995 -0.1923  0.3395
 4966SOL    HW119862   5.402   2.323   2.848 -0.4211 -0.9257  1.9189
 4966SOL    HW219863   5.275   2.397   2.812  0.7975  0.1408 -0.4104
 4966SOL     MW19864   5.326   2.327   2.804  0.4158 -0.2462  0.4511
 4967SOL     OW19865   0.802   3.997   3.378 -0.5885  0.0235  0.5845
 4967SOL    HW119866   0.726   4.053   3.362 -3.4272 -3.4246  0.9439
 4967SOL    HW219867   0.817   3.952   3.295  0.4618 -0.0693  0.8104
 4967SOL     MW19868   0.794   3.999   3.365 -0.8292 -0.4530  0.6633
 4968SOL     OW19869   2.072   5.074   3.310 -0.1372  0.0450 -0.5257
 4968SOL    HW119870   2.099   5.131   3.238  0.6541  0.3552 -0.0040
 4968SOL    HW219871   2.130   4.998   3.304  0.4947  0.4409  0.2457
 4968SOL     MW19872   2.084   5.072   3.300  0.0543  0.1400 -0.3517
 4969SOL     OW19873   1.768   0.615   4.042 -0.1782  0.1851  0.0609
 4969SOL    HW119874   1.839   0.609   4.106  0.9552 -0.4196 -1.2093
 4969SOL    HW219875   1.755   0.709   4.029  0.3126  0.2984  0.3924
 4969SOL     MW19876   1.776   0.627   4.049  0.0404  0.1189 -0.0654
 4970SOL     OW19877   4.467   3.639   0.410 -0.1630  0.2204  0.3351
 4970SOL    HW119878   4.468   3.724   0.454 -0.0516  1.1106 -1.3229
 4970SOL    HW219879   4.534   3.588   0.456  2.1725  2.1494 -0.6952
 4970SOL     MW19880   4.476   3.643   0.422  0.1663  0.5998 -0.0267
 4971SOL     OW19881   0.081   4.560   1.840  0.1124  0.4951 -0.3760
 4971SOL    HW119882   0.159   4.512   1.869 -0.3346 -0.5285 -0.8407
 4971SOL    HW219883   0.081   4.639   1.895  0.9086  0.0241  0.3437
 4971SOL     MW19884   0.092   4.564   1.852  0.1594  0.2940 -0.3417
 4972SOL     OW19885   4.931   3.215   3.265  0.3521  0.0322 -0.4610
 4972SOL    HW119886   4.984   3.265   3.327  0.2098 -0.6290  0.2188
 4972SOL    HW219887   4.942   3.124   3.293 -2.1367 -0.0364  0.5334
 4972SOL     MW19888   4.940   3.210   3.277 -0.0020 -0.0660 -0.2357
 4973SOL     OW19889   2.055   1.976   0.786  0.1265  0.2013 -0.1005
 4973SOL    HW119890   1.979   1.929   0.751 -0.7234  0.3444  1.4382
 4973SOL    HW219891   2.052   2.061   0.742 -0.4042  0.0810 -0.3110
 4973SOL     MW19892   2.044   1.981   0.775 -0.0593  0.2044  0.0782
 4974SOL     OW19893   3.600   3.602   3.405  0.2320  0.2810 -0.0849
 4974SOL    HW119894   3.647   3.646   3.476  0.7055  1.4289 -1.0728
 4974SOL    HW219895   3.556   3.673   3.358 -0.2946 -0.4909 -0.7861
 4974SOL     MW19896   3.600   3.618   3.409  0.2249  0.3316 -0.3122
 4975SOL     OW19897   5.237   4.150   2.309 -0.6666 -0.3462  0.8757
 4975SOL    HW119898   5.311   4.191   2.265  0.0009  0.2047  2.4336
 4975SOL    HW219899   5.166   4.213   2.300 -0.9819 -0.8913 -0.6536
 4975SOL     MW19900   5.238   4.164   2.302 -0.6192 -0.3454  0.8796
 4976SOL     OW19901   2.852   2.373   4.775  0.1875  0.1503  0.2280
 4976SOL    HW119902   2.772   2.326   4.797  0.2878  0.2282  0.7672
 4976SOL    HW219903   2.835   2.463   4.800  0.3845  0.1994  0.1883
 4976SOL     MW19904   2.839   2.378   4.781  0.2275  0.1674  0.2952
 4977SOL     OW19905   3.699   0.701   3.099  0.3050 -0.9511  0.3085
 4977SOL    HW119906   3.682   0.673   3.189 -3.3562 -1.1039 -0.2788
 4977SOL    HW219907   3.738   0.625   3.057 -1.4668 -2.2523  0.9045
 4977SOL     MW19908   3.702   0.687   3.105 -0.4262 -1.1468  0.3097
 4978SOL     OW19909   0.622   2.147   2.807  0.0839 -0.0902  0.2017
 4978SOL    HW119910   0.677   2.145   2.729 -0.2412 -1.8187 -0.0162
 4978SOL    HW219911   0.632   2.236   2.841  3.4620 -0.4639  0.5178
 4978SOL     MW19912   0.631   2.159   2.801  0.4948 -0.3731  0.2149
 4979SOL     OW19913   4.744   0.437   5.247 -0.0354  0.0332  0.3205
 4979SOL    HW119914   4.763   0.445   5.341  0.9517  1.9584  0.0108
 4979SOL    HW219915   4.654   0.406   5.243  0.4736 -1.8961  1.8793
 4979SOL     MW19916   4.735   0.434   5.259  0.1659  0.0327  0.4886
 4980SOL     OW19917   1.731   3.471   4.956 -0.6111  0.0512 -0.4491
 4980SOL    HW119918   1.685   3.514   5.028  0.2665  0.8864 -0.3708
 4980SOL    HW219919   1.808   3.431   4.996 -1.5858 -1.9326 -0.4610
 4980SOL     MW19920   1.735   3.471   4.971 -0.6241 -0.1034 -0.4402
 4981SOL     OW19921   0.453   5.307   0.054 -0.0115 -0.6926  0.5447
 4981SOL    HW119922   0.530   5.336   0.006 -0.2186  0.5176  0.9237
 4981SOL    HW219923   0.418   5.386   0.094 -0.0833 -1.5991  2.3595
 4981SOL     MW19924   0.459   5.321   0.053 -0.0490 -0.6517  0.8400
 4982SOL     OW19925   3.590   5.203   2.917  0.4653 -0.5697 -0.2806
 4982SOL    HW119926   3.641   5.122   2.909 -1.1554 -1.5755 -1.0187
 4982SOL    HW219927   3.597   5.244   2.831  0.3237 -0.5346 -0.2753
 4982SOL     MW19928   3.598   5.197   2.905  0.2281 -0.7003 -0.3792
 4983SOL     OW19929   4.106   2.018   2.136 -0.0327 -0.6503 -0.0067
 4983SOL    HW119930   4.147   1.949   2.188  0.4811 -1.2537 -1.1517
 4983SOL    HW219931   4.171   2.088   2.133  0.3236 -0.9878 -0.5560
 4983SOL     MW19932   4.121   2.018   2.142  0.0844 -0.7769 -0.2347
 4984SOL     OW19933   2.764   4.863   5.028  0.0137 -0.4733 -0.2532
 4984SOL    HW119934   2.847   4.889   4.988  0.0488 -0.3253 -0.0847
 4984SOL    HW219935   2.727   4.944   5.061 -1.0786 -0.2457 -1.9498
 4984SOL     MW19936   2.770   4.877   5.027 -0.1286 -0.4228 -0.4588
 4985SOL     OW19937   4.649   5.382   2.267  0.3254  0.4777  0.6881
 4985SOL    HW119938   4.659   5.292   2.299 -1.4456  0.2405  0.7056
 4985SOL    HW219939   4.683   5.437   2.337 -1.3665 -0.1124  2.0441
 4985SOL     MW19940   4.655   5.377   2.281 -0.1407  0.3663  0.8730
 4986SOL     OW19941   0.975   0.324   3.568  0.2728  0.5925  0.2330
 4986SOL    HW119942   1.016   0.282   3.492 -0.4531 -0.5557  0.4624
 4986SOL    HW219943   0.897   0.366   3.533 -0.6664 -0.8689  0.4924
 4986SOL     MW19944   0.970   0.324   3.553  0.0487  0.2413  0.2988
 4987SOL     OW19945   0.602   1.237   0.588  0.4262  0.5549 -0.4827
 4987SOL    HW119946   0.518   1.191   0.583  1.4204 -1.3329 -0.5516
 4987SOL    HW219947   0.604   1.290   0.508 -0.3014 -0.0809 -0.9423
 4987SOL     MW19948   0.591   1.238   0.577  0.4621  0.2153 -0.5539
 4988SOL     OW19949   1.499   2.154   2.318  0.3359 -0.1013 -0.4127
 4988SOL    HW119950   1.572   2.101   2.286  0.7236  0.5608 -0.6375
 4988SOL    HW219951   1.444   2.169   2.240  0.2737 -0.0918 -0.3675
 4988SOL     MW19952   1.501   2.149   2.303  0.3797 -0.0109 -0.4369
 4989SOL     OW19953   4.774   4.566   5.013 -0.3040 -0.4609  0.0171
 4989SOL    HW119954   4.868   4.549   5.016 -0.5359 -1.7486  0.6915
 4989SOL    HW219955   4.765   4.643   4.957  1.0758 -0.8799 -0.8296
 4989SOL     MW19956   4.786   4.574   5.005 -0.1495 -0.6906 -0.0061
 4990SOL     OW19957   1.571   2.705   1.643 -0.1616  0.1838 -0.4189
 4990SOL    HW119958   1.617   2.646   1.582 -0.0163  0.0447 -0.1775
 4990SOL    HW219959   1.478   2.684   1.631 -0.3183  1.5448 -2.0493
 4990SOL     MW19960   1.565   2.694   1.633 -0.1631  0.3483 -0.6058
 4991SOL     OW19961   0.214   3.107   0.538 -0.7308 -0.0765  0.0642
 4991SOL    HW119962   0.146   3.163   0.577 -1.5691 -1.3836  0.5229
 4991SOL    HW219963   0.167   3.048   0.480  0.1490 -0.3030 -0.4361
 4991SOL     MW19964   0.199   3.107   0.536 -0.7252 -0.2829  0.0586
 4992SOL     OW19965   3.138   0.668   4.694  0.2910  0.2643 -0.0332
 4992SOL    HW119966   3.153   0.615   4.616  1.6036  0.7122 -0.1130
 4992SOL    HW219967   3.050   0.704   4.683  0.6600  0.7667 -1.5879
 4992SOL     MW19968   3.128   0.666   4.682  0.5173  0.3922 -0.2532
 4993SOL     OW19969   1.448   1.825   2.051  0.4189  0.1898  0.2034
 4993SOL    HW119970   1.467   1.902   1.998  0.3239 -0.7807 -1.3127
 4993SOL    HW219971   1.417   1.760   1.988 -1.6067 -0.3989  1.7145
 4993SOL     MW19972   1.447   1.827   2.035  0.1335 -0.0200  0.2027
 4994SOL     OW19973   2.472   0.050   2.799 -0.7697  0.0742 -0.2654
 4994SOL    HW119974   2.436  -0.038   2.789 -1.3287  0.3513 -0.7991
 4994SOL    HW219975   2.400   0.108   2.773  0.1211  0.6400 -1.5639
 4994SOL     MW19976   2.457   0.046   2.794 -0.7250  0.1876 -0.5120
 4995SOL     OW19977   0.344   1.720   4.140  0.1554  0.0874 -0.2095
 4995SOL    HW119978   0.366   1.729   4.047 -0.8996  0.4916 -0.4248
 4995SOL    HW219979   0.331   1.809   4.170  0.2861 -0.0591  0.2825
 4995SOL     MW19980   0.345   1.733   4.131  0.0310  0.1221 -0.1723
 4996SOL     OW19981   5.385   1.180   2.089  0.3459  0.4053  0.4237
 4996SOL    HW119982   5.411   1.244   2.023 -1.6658  0.7294 -0.1335
 4996SOL    HW219983   5.306   1.217   2.129  1.1485 -0.0826  2.6111
 4996SOL     MW19984   5.378   1.194   2.086  0.1832  0.3832  0.6431
 4997SOL     OW19985   1.490   0.634   3.440  0.3509 -0.0001  0.2107
 4997SOL    HW119986   1.574   0.657   3.481  0.8988 -0.0065 -0.8893
 4997SOL    HW219987   1.444   0.717   3.434  0.4934  0.0893  0.3266
 4997SOL     MW19988   1.495   0.648   3.445  0.4438  0.0111  0.0782
 4998SOL     OW19989   1.151   0.133   5.061 -0.0793 -0.1022  0.1369
 4998SOL    HW119990   1.094   0.155   4.988 -0.3130 -0.4097  0.2263
 4998SOL    HW219991   1.178   0.043   5.046  0.7903  0.1943 -0.1670
 4998SOL     MW19992   1.147   0.124   5.049  0.0063 -0.1037  0.1081
 4999SOL     OW19993   1.124   4.742   3.795 -0.3531 -0.4873  0.1013
 4999SOL    HW119994   1.203   4.690   3.783  0.1697  0.2554  0.2826
 4999SOL    HW219995   1.106   4.738   3.889 -2.4065 -3.3270 -0.2756
 4999SOL     MW19996   1.132   4.734   3.806 -0.5591 -0.7695  0.0750
 5000SOL     OW19997   1.179   0.427   2.498  0.0421  0.0444 -0.2256
 5000SOL    HW119998   1.117   0.481   2.449  0.6272  0.5669 -0.3943
 5000SOL    HW219999   1.178   0.342   2.453 -1.1960 -0.2406  0.2989
 5000SOL     MW20000   1.171   0.423   2.485 -0.0457  0.0764 -0.1777
 5001SOL     OW20001   0.725   4.522   1.555  0.5120  0.4959  0.2167
 5001SOL    HW120002   0.669   4.447   1.536  0.9301  0.3491 -0.4548
 5001SOL    HW220003   0.718   4.534   1.650 -0.3767  0.2623  0.1848
 5001SOL     MW20004   0.717   4.513   1.565  0.4487  0.4447  0.1220
 5002SOL     OW20005   4.053   4.693   1.239 -0.3751 -0.5322 -0.4226
 5002SOL    HW120006   3.961   4.719   1.238 -0.8657 -2.0859  0.4690
 5002SOL    HW220007   4.098   4.762   1.191 -1.8513  0.8357  0.0606
 5002SOL     MW20008   4.047   4.705   1.233 -0.6398 -0.5572 -0.2376
 5003SOL     OW20009   4.623   4.365   4.852  0.1482 -0.0883  0.0321
 5003SOL    HW120010   4.663   4.439   4.897  0.6231 -1.0167  1.1909
 5003SOL    HW220011   4.696   4.320   4.810 -0.0071 -0.4052  0.0948
 5003SOL     MW20012   4.638   4.369   4.852  0.1912 -0.2559  0.1965
 5004SOL     OW20013   2.310   1.371   4.385 -0.3138 -0.2814  0.0012
 5004SOL    HW120014   2.295   1.347   4.476 -1.5980  0.2282 -0.0590
 5004SOL    HW220015   2.262   1.453   4.374 -0.7844 -0.7235 -1.3403
 5004SOL     MW20016   2.302   1.379   4.396 -0.5500 -0.2723 -0.1874
 5005SOL     OW20017   3.627   2.994   2.812  0.1133  0.4051 -0.0955
 5005SOL    HW120018   3.574   2.968   2.887  0.2713  1.4432  0.3896
 5005SOL    HW220019   3.715   3.007   2.847 -0.0950  2.1979 -0.1686
 5005SOL     MW20020   3.632   2.992   2.826  0.1066  0.7861 -0.0400
 5006SOL     OW20021   1.083   1.309   0.539 -0.1882 -0.3273  0.5107
 5006SOL    HW120022   1.165   1.357   0.528 -0.1521  0.7669  4.2415
 5006SOL    HW220023   1.019   1.361   0.489  0.5795  1.4298  1.2572
 5006SOL     MW20024   1.085   1.323   0.530 -0.0800  0.0565  1.1133
 5007SOL     OW20025  -0.019   0.269   1.804 -1.2051 -0.3599 -0.6654
 5007SOL    HW120026   0.017   0.190   1.764 -1.2067 -0.4411 -0.5048
 5007SOL    HW220027   0.034   0.283   1.883 -0.0847  0.7442 -1.5689
 5007SOL     MW20028  -0.007   0.260   1.809 -1.0546 -0.2222 -0.7654
 5008SOL     OW20029   3.766   1.217   4.379  0.3732  0.0562  0.0246
 5008SOL    HW120030   3.763   1.281   4.450 -0.8536 -0.6544  0.6267
 5008SOL    HW220031   3.703   1.150   4.403 -0.4726  0.0455 -1.9826
 5008SOL     MW20032   3.757   1.217   4.391  0.0942 -0.0409 -0.1645
 5009SOL     OW20033   2.847   0.424   0.021  0.6863  0.3175 -0.0227
 5009SOL    HW120034   2.862   0.479   0.098 -1.1949  0.3444  0.3624
 5009SOL    HW220035   2.793   0.352   0.054  0.3271  0.0343 -1.2162
 5009SOL     MW20036   2.842   0.422   0.036  0.3848  0.2830 -0.1315
 5010SOL     OW20037   0.083   5.274   0.893  0.3589 -0.0771  0.1189
 5010SOL    HW120038   0.025   5.280   0.816  2.5739  4.5094 -1.5044
 5010SOL    HW220039   0.033   5.315   0.964 -0.5364 -1.6078  0.4264
 5010SOL     MW20040   0.068   5.280   0.892  0.5365  0.3342 -0.0582
 5011SOL     OW20041   3.825   0.679   2.615  0.7529 -0.3035  0.3581
 5011SOL    HW120042   3.790   0.598   2.652 -1.0361  0.4638  0.4418
 5011SOL    HW220043   3.863   0.652   2.531 -0.4774 -1.1469  0.0347
 5011SOL     MW20044   3.825   0.665   2.608  0.3465 -0.3138  0.3259
 5012SOL     OW20045   4.196   3.375   3.252  0.4231 -0.3970 -0.1127
 5012SOL    HW120046   4.236   3.298   3.292 -0.1075 -1.5655 -1.7251
 5012SOL    HW220047   4.142   3.414   3.322 -0.5592 -2.4155  0.3129
 5012SOL     MW20048   4.194   3.370   3.267  0.2195 -0.8259 -0.2724
 5013SOL     OW20049   4.692   4.004   4.636  0.6242  0.0127 -0.1090
 5013SOL    HW120050   4.661   4.006   4.546  1.3391  0.9604 -0.3468
 5013SOL    HW220051   4.622   3.960   4.685 -0.9021  1.7043 -0.6874
 5013SOL     MW20052   4.679   3.998   4.631  0.5150  0.3679 -0.2188
 5014SOL     OW20053   2.280   2.650   4.259  0.6592 -0.0733 -0.1795
 5014SOL    HW120054   2.233   2.711   4.202  1.0789  0.5915  0.1734
 5014SOL    HW220055   2.273   2.565   4.215 -0.0995  0.1917 -0.5753
 5014SOL     MW20056   2.273   2.647   4.246  0.6136  0.0519 -0.1853
 5015SOL     OW20057   0.309   1.065   0.888  0.3062 -0.4741 -0.5189
 5015SOL    HW120058   0.254   1.108   0.953  0.0419  0.4865 -1.3383
 5015SOL    HW220059   0.398   1.070   0.924  0.2490  0.5970 -0.4858
 5015SOL     MW20060   0.314   1.072   0.902  0.2629 -0.2006 -0.6247
 5016SOL     OW20061   4.913   4.059   0.170 -0.2888 -0.1339 -0.2222
 5016SOL    HW120062   5.004   4.072   0.193 -0.4380 -0.7509  0.7750
 5016SOL    HW220063   4.877   4.147   0.162  0.3423  0.1082 -0.4630
 5016SOL     MW20064   4.920   4.072   0.172 -0.2239 -0.1843 -0.1204
 5017SOL     OW20065   3.687   5.187   4.732  0.3571 -0.0346  0.0343
 5017SOL    HW120066   3.734   5.115   4.774 -0.5124 -1.4917 -1.3487
 5017SOL    HW220067   3.597   5.179   4.766  0.8709  2.4325  2.3072
 5017SOL     MW20068   3.681   5.176   4.742  0.3092  0.1013  0.1541
 5018SOL     OW20069   0.858   1.339   2.536 -0.5258 -0.0573 -0.1583
 5018SOL    HW120070   0.840   1.431   2.559  1.8561  0.5079 -0.3658
 5018SOL    HW220071   0.851   1.337   2.441  2.1488  0.6460 -0.4507
 5018SOL     MW20072   0.854   1.351   2.527  0.1547  0.1134 -0.2256
 5019SOL     OW20073   3.587   5.011   1.118 -0.5332 -0.2364 -0.3493
 5019SOL    HW120074   3.645   5.087   1.108 -1.1467  0.2880 -0.0239
 5019SOL    HW220075   3.621   4.947   1.056  2.4374 -1.2564  2.1367
 5019SOL     MW20076   3.599   5.013   1.108 -0.2160 -0.3031  0.0291
 5020SOL     OW20077   0.746   4.572   4.071  0.0285 -0.1453  0.6626
 5020SOL    HW120078   0.785   4.553   4.156  0.5476  1.2229  0.7543
 5020SOL    HW220079   0.791   4.514   4.009 -0.5889 -1.3926  1.3384
 5020SOL     MW20080   0.757   4.561   4.074  0.0153 -0.1290  0.7659
 5021SOL     OW20081   4.066   0.110   1.064 -0.2239  0.1297  0.3345
 5021SOL    HW120082   3.973   0.123   1.083 -0.6169 -3.9464  2.3935
 5021SOL    HW220083   4.067   0.048   0.991  0.8378  0.1155  0.3432
 5021SOL     MW20084   4.054   0.103   1.057 -0.1339 -0.4208  0.6128
 5022SOL     OW20085   3.859   3.187   5.205  0.2697  0.0835 -0.4385
 5022SOL    HW120086   3.812   3.265   5.235 -1.1795  0.3841 -3.1595
 5022SOL    HW220087   3.919   3.220   5.138 -0.9511 -1.1615 -2.2256
 5022SOL     MW20088   3.861   3.202   5.200 -0.0896 -0.0436 -1.0452
 5023SOL     OW20089   1.557   1.563   4.605  0.0873  0.6283  0.0520
 5023SOL    HW120090   1.642   1.540   4.644  0.2907 -1.6875 -1.5027
 5023SOL    HW220091   1.496   1.500   4.643 -0.0111 -0.6113 -1.9941
 5023SOL     MW20092   1.560   1.551   4.615  0.1014  0.1498 -0.4326
 5024SOL     OW20093   1.828   3.342   3.166 -0.4252  0.5904  0.0539
 5024SOL    HW120094   1.766   3.381   3.105  0.9344  2.0977 -0.4213
 5024SOL    HW220095   1.908   3.332   3.115  0.1461  0.0112  1.0490
 5024SOL     MW20096   1.830   3.346   3.151 -0.1654  0.7153  0.1238
 5025SOL     OW20097   2.689   0.595   0.427  0.3403 -0.1240 -0.0135
 5025SOL    HW120098   2.716   0.543   0.503 -0.7192  0.9749  1.1622
 5025SOL    HW220099   2.594   0.594   0.430  0.2909  0.6088 -0.8701
 5025SOL     MW20100   2.680   0.588   0.438  0.1910  0.1225  0.0295
 5026SOL     OW20101   2.734   2.644   1.068 -0.8063  0.8246  0.1791
 5026SOL    HW120102   2.644   2.647   1.035 -1.2903 -1.8893  0.9358
 5026SOL    HW220103   2.725   2.655   1.163 -0.2366  1.4246  0.1692
 5026SOL     MW20104   2.721   2.646   1.077 -0.7948  0.5401  0.2796
 5027SOL     OW20105   3.963   2.910   3.974 -0.6388  0.3843  0.4614
 5027SOL    HW120106   4.017   2.890   3.898 -1.0379 -3.5952  1.0286
 5027SOL    HW220107   4.014   2.975   4.023  1.0014  0.8084 -1.6858
 5027SOL     MW20108   3.977   2.916   3.971 -0.4718 -0.0942  0.2488
 5028SOL     OW20109   4.570   2.722   2.945  0.8012 -0.6604 -0.8585
 5028SOL    HW120110   4.558   2.645   2.889  0.2858 -1.2289 -0.0016
 5028SOL    HW220111   4.507   2.786   2.912 -1.8491 -2.1387  1.0087
 5028SOL     MW20112   4.560   2.720   2.933  0.3752 -0.9359 -0.4919
 5029SOL     OW20113   1.117   2.208   2.256 -0.2142  0.1263  0.1174
 5029SOL    HW120114   1.133   2.203   2.350 -0.9887  0.3606  0.2698
 5029SOL    HW220115   1.204   2.216   2.217  0.0728  0.8107  0.8717
 5029SOL     MW20116   1.131   2.209   2.263 -0.2798  0.2499  0.2394
 5030SOL     OW20117   2.989   0.812   1.280 -0.0375 -0.1222 -0.3141
 5030SOL    HW120118   2.930   0.745   1.314 -2.8392  0.5682 -3.3399
 5030SOL    HW220119   3.047   0.766   1.219 -1.4321 -0.0064 -1.7834
 5030SOL     MW20120   2.989   0.797   1.276 -0.6022 -0.0137 -0.9190
 5031SOL     OW20121   2.151   0.227   1.494  0.2161 -0.1696 -0.2550
 5031SOL    HW120122   2.084   0.252   1.430 -1.9546 -1.1728  1.4693
 5031SOL    HW220123   2.122   0.269   1.575 -0.1125 -3.1258  1.2756
 5031SOL     MW20124   2.138   0.236   1.497 -0.1202 -0.7024  0.1831
 5032SOL     OW20125   5.189   2.818   3.711 -0.1221 -0.0197 -0.3265
 5032SOL    HW120126   5.284   2.827   3.716 -0.2450  1.2294  0.1300
 5032SOL    HW220127   5.163   2.790   3.798 -0.4085  2.5647  0.5226
 5032SOL     MW20128   5.198   2.816   3.723 -0.1772  0.4963 -0.1508
 5033SOL     OW20129   3.485   5.415   1.327  0.2307 -0.3939 -0.2089
 5033SOL    HW120130   3.454   5.444   1.241  0.6985  1.0819  0.0989
 5033SOL    HW220131   3.468   5.489   1.385  2.5726 -0.2286  0.3627
 5033SOL     MW20132   3.478   5.428   1.323  0.6088 -0.1730 -0.0906
 5034SOL     OW20133   1.367   4.996   2.343 -0.0512 -0.2923 -0.1824
 5034SOL    HW120134   1.348   5.001   2.437 -1.1839  0.7808 -0.4461
 5034SOL    HW220135   1.461   5.010   2.337 -0.0192 -0.0066  0.7732
 5034SOL     MW20136   1.377   4.998   2.355 -0.1993 -0.1094 -0.0893
 5035SOL     OW20137   3.849   4.170  -0.013 -1.0712  0.2272 -0.1622
 5035SOL    HW120138   3.763   4.198  -0.043 -0.7537  1.1561 -0.2487
 5035SOL    HW220139   3.839   4.158   0.081 -1.4834 -0.4048 -0.2872
 5035SOL     MW20140   3.836   4.172  -0.004 -1.0839  0.2672 -0.1907
 5036SOL     OW20141   4.000   4.928   2.166 -0.3741  0.2005  0.0530
 5036SOL    HW120142   4.081   4.939   2.117 -1.2154 -0.2266 -1.4777
 5036SOL    HW220143   3.956   5.013   2.160 -0.0738  0.4310  0.8782
 5036SOL     MW20144   4.005   4.941   2.159 -0.4469  0.1741 -0.0419
 5037SOL     OW20145   1.599   4.103   3.363 -0.4690 -0.5412 -0.2650
 5037SOL    HW120146   1.607   4.091   3.458 -0.5509  0.1094 -0.1753
 5037SOL    HW220147   1.541   4.032   3.335 -1.3410 -0.0789  0.3345
 5037SOL     MW20148   1.593   4.092   3.372 -0.5974 -0.3914 -0.1723
 5038SOL     OW20149   4.094   2.791   0.209  0.1690  0.2768 -0.8388
 5038SOL    HW120150   4.129   2.864   0.157 -0.6122  0.9803 -0.4062
 5038SOL    HW220151   4.034   2.746   0.150  0.4754  0.1259 -1.0352
 5038SOL     MW20152   4.091   2.795   0.194  0.1051  0.3512 -0.8070
 5039SOL     OW20153   3.157   2.805   1.123 -0.2580  0.1879  0.8603
 5039SOL    HW120154   3.249   2.797   1.099 -0.3504  0.9154  0.2235
 5039SOL    HW220155   3.109   2.779   1.044 -0.5730  1.3736  0.6327
 5039SOL     MW20156   3.163   2.801   1.109 -0.3128  0.4454  0.7440
 5040SOL     OW20157   5.317   2.098   1.550  0.1702 -0.4558 -0.4458
 5040SOL    HW120158   5.335   2.071   1.640 -0.4926  0.1226 -0.1361
 5040SOL    HW220159   5.253   2.033   1.518  2.4037 -2.3145 -1.4385
 5040SOL     MW20160   5.311   2.085   1.558  0.3816 -0.6281 -0.5377
 5041SOL     OW20161   5.216   1.004   0.441 -0.1638 -0.4759 -0.0780
 5041SOL    HW120162   5.241   0.935   0.502 -0.1281  0.4887  1.0208
 5041SOL    HW220163   5.223   0.962   0.355  2.1442 -1.1865  0.3626
 5041SOL     MW20164   5.220   0.989   0.437  0.1516 -0.4417  0.1292
 5042SOL     OW20165   0.089   3.803   2.051 -0.5563  0.3311  0.3841
 5042SOL    HW120166   0.166   3.820   1.996 -0.2767 -0.8227  0.3998
 5042SOL    HW220167   0.016   3.835   1.998 -0.2808 -0.6678 -0.6350
 5042SOL     MW20168   0.090   3.810   2.036 -0.4816  0.0414  0.2491
 5043SOL     OW20169   4.885   2.249   1.526  0.3186 -0.0025 -0.2880
 5043SOL    HW120170   4.877   2.269   1.433 -0.8674  1.2066  0.0463
 5043SOL    HW220171   4.895   2.153   1.529  1.8698  0.0632 -1.7027
 5043SOL     MW20172   4.885   2.239   1.514  0.3678  0.1690 -0.4334
 5044SOL     OW20173   0.953   1.675   2.794 -0.1179 -0.4798  0.1383
 5044SOL    HW120174   0.907   1.759   2.793  1.7742  0.6202  1.0061
 5044SOL    HW220175   0.908   1.624   2.861 -0.7312  0.1564  0.2275
 5044SOL     MW20176   0.941   1.680   2.803  0.0542 -0.2462  0.2671
 5045SOL     OW20177   2.504   1.381   1.637  0.5850  0.0120 -0.5272
 5045SOL    HW120178   2.410   1.361   1.642  0.5947  0.2117  0.8580
 5045SOL    HW220179   2.507   1.471   1.606  0.2506  0.4713  0.7263
 5045SOL     MW20180   2.492   1.390   1.633  0.5413  0.1007 -0.1721
 5046SOL     OW20181   3.951   4.448   1.715  0.1596  0.2245 -0.0862
 5046SOL    HW120182   3.967   4.429   1.808  0.1052 -0.6751 -0.2450
 5046SOL    HW220183   4.037   4.441   1.674  0.0859 -0.0437 -0.2013
 5046SOL     MW20184   3.964   4.444   1.722  0.1424  0.0673 -0.1231
 5047SOL     OW20185   4.487   1.460   4.463 -0.1009 -0.3011  0.6025
 5047SOL    HW120186   4.529   1.387   4.508  0.5071  0.1891  0.8479
 5047SOL    HW220187   4.510   1.448   4.371 -1.4208 -1.3565  0.3851
 5047SOL     MW20188   4.496   1.449   4.456 -0.1967 -0.3772  0.6063
 5048SOL     OW20189   1.191   1.800   2.851  0.2183 -0.1500  0.4030
 5048SOL    HW120190   1.226   1.747   2.923 -0.1477 -1.0710 -0.0749
 5048SOL    HW220191   1.106   1.761   2.832  0.8442 -0.7386 -1.3675
 5048SOL     MW20192   1.184   1.788   2.858  0.2533 -0.3531  0.1004
 5049SOL     OW20193   2.856   3.464   0.046  0.1181 -0.3334  0.0634
 5049SOL    HW120194   2.779   3.515   0.072  0.4602 -1.1625  3.1634
 5049SOL    HW220195   2.929   3.525   0.056  0.4683 -1.1131  3.2723
 5049SOL     MW20196   2.855   3.479   0.051  0.2112 -0.5499  0.9125
 5050SOL     OW20197   0.049   0.794   4.420 -0.2968 -0.1939 -0.8716
 5050SOL    HW120198   0.120   0.774   4.481 -0.2658  2.3535  0.0694
 5050SOL    HW220199  -0.013   0.722   4.431  1.8009 -2.1850 -1.2916
 5050SOL     MW20200   0.050   0.782   4.430 -0.0104 -0.1190 -0.8015
 5051SOL     OW20201   5.323   4.077   0.790  0.1696 -0.2621  0.1684
 5051SOL    HW120202   5.383   4.046   0.858  0.6423  0.6200  0.1753
 5051SOL    HW220203   5.380   4.122   0.727 -0.3684 -0.3234 -0.3680
 5051SOL     MW20204   5.339   4.079   0.791  0.1608 -0.1517  0.0971
 5052SOL     OW20205   1.796   2.324   3.706  0.2360  0.3396 -0.9926
 5052SOL    HW120206   1.760   2.296   3.621 -0.7810  0.5474 -0.6492
 5052SOL    HW220207   1.757   2.410   3.721  1.0328  0.6515 -0.6683
 5052SOL     MW20208   1.786   2.331   3.696  0.2064  0.4095 -0.9028
 5053SOL     OW20209   3.727   1.667   3.403  0.0102 -0.2929  0.5582
 5053SOL    HW120210   3.635   1.678   3.380  0.1601  0.1428  0.1431
 5053SOL    HW220211   3.725   1.620   3.486 -0.6022  0.0879  0.7708
 5053SOL     MW20212   3.714   1.662   3.411 -0.0520 -0.1831  0.5309
 5054SOL     OW20213   1.035   3.125   2.955 -0.5995  0.4459 -0.0921
 5054SOL    HW120214   1.033   3.095   3.045  0.1602  0.0733 -0.1850
 5054SOL    HW220215   1.126   3.109   2.927 -0.5402  1.5406 -0.5817
 5054SOL     MW20216   1.047   3.119   2.963 -0.4893  0.5431 -0.1705
 5055SOL     OW20217   1.239   3.108   0.071  0.2582  0.1944 -0.2607
 5055SOL    HW120218   1.160   3.112   0.018 -0.8228 -1.2136  1.1731
 5055SOL    HW220219   1.305   3.153   0.018 -0.7478 -1.1021 -2.7730
 5055SOL     MW20220   1.237   3.115   0.057 -0.0226 -0.1695 -0.4059
 5056SOL     OW20221   3.560   0.251   1.930 -0.0671  0.3856 -1.0469
 5056SOL    HW120222   3.560   0.346   1.914  3.9036  0.2029 -3.2696
 5056SOL    HW220223   3.483   0.220   1.881 -0.8224  2.2974 -1.1949
 5056SOL     MW20224   3.549   0.260   1.921  0.3656  0.6183 -1.3660
 5057SOL     OW20225   2.012   1.618   4.123  0.3917  0.2081  0.4029
 5057SOL    HW120226   2.087   1.568   4.092 -0.7884 -0.8114 -0.9673
 5057SOL    HW220227   1.965   1.643   4.043 -2.9312 -2.7254  1.1728
 5057SOL     MW20228   2.015   1.615   4.108 -0.2143 -0.3239  0.3221
 5058SOL     OW20229   3.808   0.389   3.758 -0.2507  0.0395  0.6864
 5058SOL    HW120230   3.866   0.410   3.684 -0.2129  1.1968  1.0265
 5058SOL    HW220231   3.737   0.338   3.719  0.1009  0.0965 -0.0439
 5058SOL     MW20232   3.806   0.385   3.743 -0.1983  0.2029  0.6339
 5059SOL     OW20233   1.584   4.069   3.865  0.0361 -0.1956  0.1667
 5059SOL    HW120234   1.626   4.153   3.887  1.1182 -0.1748 -1.7608
 5059SOL    HW220235   1.591   4.017   3.945  1.1741  0.8505  0.7853
 5059SOL     MW20236   1.590   4.074   3.879  0.3349 -0.0520 -0.0094
 5060SOL     OW20237   5.127  -0.004   1.416  0.7608  0.0675  0.1292
 5060SOL    HW120238   5.189   0.045   1.362 -0.7692  1.6968 -0.2498
 5060SOL    HW220239   5.059   0.060   1.438 -1.4569 -1.9291 -0.5178
 5060SOL     MW20240   5.127   0.012   1.412  0.2564  0.0180 -0.0088
 5061SOL     OW20241   2.417   0.827   1.433 -0.4954  0.2945 -0.0276
 5061SOL    HW120242   2.384   0.737   1.438  0.2955  0.0413  3.4414
 5061SOL    HW220243   2.504   0.818   1.394 -0.2460 -0.5719  0.6710
 5061SOL     MW20244   2.424   0.814   1.429 -0.3554  0.1438  0.5333
 5062SOL     OW20245   3.687   5.419   4.270 -0.1269  0.2194  0.7287
 5062SOL    HW120246   3.693   5.346   4.332 -2.0238 -1.6690 -1.1710
 5062SOL    HW220247   3.715   5.383   4.186 -2.2883  1.2550 -0.5319
 5062SOL     MW20248   3.692   5.405   4.267 -0.6731  0.1046  0.3034
 5063SOL     OW20249   1.185   3.383   0.181 -0.5251  0.4443 -0.1500
 5063SOL    HW120250   1.130   3.332   0.122 -2.2021  1.9927 -0.0514
 5063SOL    HW220251   1.215   3.321   0.247 -2.1640 -0.4988 -0.2400
 5063SOL     MW20252   1.182   3.368   0.182 -0.9714  0.5258 -0.1489
 5064SOL     OW20253   4.762   0.437   1.199  0.2675 -0.4358 -0.3651
 5064SOL    HW120254   4.733   0.519   1.238  0.4441 -0.7603  0.4747
 5064SOL    HW220255   4.687   0.378   1.208  0.0019 -0.2598 -1.3233
 5064SOL     MW20256   4.748   0.440   1.206  0.2555 -0.4558 -0.3810
 5065SOL     OW20257   0.251   0.435   2.932 -0.4927 -0.1113  0.7523
 5065SOL    HW120258   0.284   0.492   3.002 -0.9475  1.5056 -0.2921
 5065SOL    HW220259   0.286   0.473   2.851 -1.4244 -0.8814 -0.0480
 5065SOL     MW20260   0.260   0.448   2.930 -0.6793  0.0026  0.5040
 5066SOL     OW20261   1.333   5.420   5.002  0.8420  0.1389 -0.4533
 5066SOL    HW120262   1.408   5.479   4.991  0.9116  0.0546 -0.4360
 5066SOL    HW220263   1.333   5.398   5.095 -0.0483  1.2441 -0.1742
 5066SOL     MW20264   1.343   5.425   5.013  0.7315  0.2763 -0.4134
 5067SOL     OW20265   2.933   0.853  -0.008 -0.0582  0.0123  0.0253
 5067SOL    HW120266   3.010   0.801  -0.033  1.8970  1.9293  1.6593
 5067SOL    HW220267   2.934   0.853   0.088 -2.0686  0.2263  0.0985
 5067SOL     MW20268   2.943   0.846   0.002 -0.0657  0.2991  0.2551
 5068SOL     OW20269   5.245   0.245   3.864 -0.7584 -0.1918  0.5549
 5068SOL    HW120270   5.237   0.150   3.864  1.4380 -0.4487  0.6850
 5068SOL    HW220271   5.290   0.265   3.947 -0.8107  0.9031  0.3418
 5068SOL     MW20272   5.250   0.235   3.875 -0.4698 -0.0791  0.5437
 5069SOL     OW20273   1.538   1.263   1.787 -0.1884  0.2988  0.0254
 5069SOL    HW120274   1.557   1.329   1.854  0.0630 -0.2905  0.5483
 5069SOL    HW220275   1.443   1.254   1.788 -0.1692  0.1542  0.4347
 5069SOL     MW20276   1.528   1.271   1.796 -0.1520  0.2000  0.1509
 5070SOL     OW20277   1.105   3.573   2.096  0.2627 -0.0556 -0.0561
 5070SOL    HW120278   1.098   3.657   2.141 -0.0800 -0.4079  0.5567
 5070SOL    HW220279   1.074   3.508   2.160 -0.7570 -0.5103 -0.9938
 5070SOL     MW20280   1.100   3.575   2.111  0.0793 -0.1642 -0.0999
 5071SOL     OW20281   1.404   2.407   0.152 -0.3917  0.3249 -0.5718
 5071SOL    HW120282   1.385   2.479   0.212  0.3979 -0.3612  0.5469
 5071SOL    HW220283   1.468   2.353   0.199 -0.7848 -0.9755 -1.4748
 5071SOL     MW20284   1.410   2.409   0.166 -0.3383  0.0576 -0.5428
 5072SOL     OW20285   0.505   0.113   5.420  0.3201  0.4942 -0.3719
 5072SOL    HW120286   0.424   0.149   5.454  0.1154 -1.2026  1.0470
 5072SOL    HW220287   0.553   0.189   5.387 -1.0053  1.7637  0.5234
 5072SOL     MW20288   0.501   0.128   5.420  0.1142  0.4367 -0.0604
 5073SOL     OW20289   4.991   4.530   2.613 -0.7088 -0.0601  0.4755
 5073SOL    HW120290   5.050   4.513   2.540 -3.1243 -0.0051 -1.6458
 5073SOL    HW220291   5.023   4.611   2.652  0.3008  0.2672 -0.9511
 5073SOL     MW20292   5.003   4.539   2.608 -0.8980 -0.0087 -0.0020
 5074SOL     OW20293   3.098   1.675   4.328  0.1656  0.2971  0.2378
 5074SOL    HW120294   3.052   1.759   4.318  0.6487  0.5504  0.1088
 5074SOL    HW220295   3.032   1.609   4.308 -0.6192  0.5862  1.7002
 5074SOL     MW20296   3.083   1.677   4.324  0.1250  0.3701  0.4172
 5075SOL     OW20297   2.917   3.326   3.960  0.0794  0.6958 -0.4517
 5075SOL    HW120298   2.944   3.373   3.881  0.6532  0.5565 -0.3379
 5075SOL    HW220299   2.998   3.290   3.996 -0.0334  1.6152  0.7694
 5075SOL     MW20300   2.931   3.328   3.954  0.1414  0.8008 -0.2720
 5076SOL     OW20301   4.815   2.719   2.594  0.1068 -0.0762  0.6081
 5076SOL    HW120302   4.899   2.675   2.606  0.3343  0.1357 -0.1747
 5076SOL    HW220303   4.756   2.650   2.566  0.1880 -0.0975  0.4889
 5076SOL     MW20304   4.819   2.704   2.592  0.1483 -0.0506  0.4867
 5077SOL     OW20305   5.364   4.147   1.867 -0.0356 -0.4473 -0.3494
 5077SOL    HW120306   5.359   4.055   1.894  2.7883 -0.3183  0.9365
 5077SOL    HW220307   5.422   4.147   1.792  0.6722  0.3431  0.1838
 5077SOL     MW20308   5.371   4.134   1.861  0.4397 -0.3236 -0.1046
 5078SOL     OW20309   2.816   1.952   3.521 -0.1980 -0.1785  1.0105
 5078SOL    HW120310   2.736   1.939   3.572 -1.7714  0.4780 -1.1598
 5078SOL    HW220311   2.797   1.914   3.436  0.0506  3.7791 -1.0640
 5078SOL     MW20312   2.802   1.946   3.517 -0.3763  0.4424  0.4393
 5079SOL     OW20313   0.676   2.307   5.105 -0.8551 -0.1655 -0.3250
 5079SOL    HW120314   0.759   2.277   5.141 -1.1632  1.0496  1.4859
 5079SOL    HW220315   0.696   2.332   5.015  0.5338 -0.6816 -0.1774
 5079SOL     MW20316   0.690   2.306   5.098 -0.7097 -0.0715 -0.0615
 5080SOL     OW20317   1.368   1.779   2.632 -0.2517  0.0831  0.1355
 5080SOL    HW120318   1.310   1.787   2.708 -1.3476 -0.1326 -0.6485
 5080SOL    HW220319   1.339   1.849   2.573 -0.1271 -0.4116 -0.5278
 5080SOL     MW20320   1.356   1.790   2.634 -0.3824 -0.0125 -0.0593
 5081SOL     OW20321   4.146   0.459   4.151  0.5697  0.3327  0.1310
 5081SOL    HW120322   4.103   0.530   4.199  0.2127  1.8006 -2.2091
 5081SOL    HW220323   4.078   0.427   4.091  1.0159 -1.3814  0.5082
 5081SOL     MW20324   4.131   0.464   4.149  0.5817  0.2995 -0.1331
 5082SOL     OW20325   3.135   0.804   5.077 -0.2241 -0.7242  0.4604
 5082SOL    HW120326   3.141   0.720   5.032 -0.1137 -0.6601  0.3534
 5082SOL    HW220327   3.133   0.783   5.170  3.2108 -0.7027  0.6475
 5082SOL     MW20328   3.136   0.790   5.083  0.2530 -0.7127  0.4712
 5083SOL     OW20329   1.762   1.535   2.653  0.0112  0.0193 -0.0691
 5083SOL    HW120330   1.718   1.620   2.655  0.5676  0.3065  0.4533
 5083SOL    HW220331   1.691   1.471   2.655 -0.4078  0.4736 -0.3219
 5083SOL     MW20332   1.746   1.538   2.654  0.0297  0.1191 -0.0328
 5084SOL     OW20333   0.301   3.309   3.350 -0.6556 -0.6173  0.3798
 5084SOL    HW120334   0.331   3.271   3.432  0.2560  2.9486  1.9034
 5084SOL    HW220335   0.212   3.338   3.367 -0.5442 -0.0563  0.0413
 5084SOL     MW20336   0.293   3.308   3.363 -0.5179 -0.0619  0.5393
 5085SOL     OW20337   2.014   2.742   4.120 -0.2494 -0.4209 -0.4163
 5085SOL    HW120338   1.963   2.685   4.062 -1.0086 -1.5086  1.2508
 5085SOL    HW220339   1.979   2.726   4.207  0.8884  1.1350  0.3870
 5085SOL     MW20340   2.002   2.732   4.124 -0.1984 -0.3579 -0.0838
 5086SOL     OW20341   4.190   3.073   1.007  0.3700  0.0021  0.0933
 5086SOL    HW120342   4.238   3.151   1.034 -1.3384  1.0306  0.2511
 5086SOL    HW220343   4.115   3.106   0.957 -2.3811 -1.2250  3.0588
 5086SOL     MW20344   4.187   3.088   1.004 -0.2301 -0.0247  0.5136
 5087SOL     OW20345   2.257   3.428   1.046 -0.1935  0.5478 -0.6861
 5087SOL    HW120346   2.318   3.386   1.108 -1.2159  1.8488  1.3051
 5087SOL    HW220347   2.279   3.389   0.961  0.2988 -2.4270  0.6840
 5087SOL     MW20348   2.268   3.417   1.043 -0.2648  0.3226 -0.2337
 5088SOL     OW20349   4.971   1.568   0.477 -0.0708  0.3617 -0.0600
 5088SOL    HW120350   4.937   1.592   0.390  1.0785  0.3570 -0.5319
 5088SOL    HW220351   4.932   1.482   0.494  0.2488  0.0361 -0.8979
 5088SOL     MW20352   4.961   1.559   0.467  0.1269  0.3172 -0.2363
 5089SOL     OW20353   0.045   0.954   1.476 -0.4365  0.1744 -0.2437
 5089SOL    HW120354   0.125   0.949   1.528 -0.3700 -1.3124 -0.4550
 5089SOL    HW220355  -0.017   1.000   1.533  0.4472  1.0534  0.0442
 5089SOL     MW20356   0.047   0.960   1.491 -0.3086  0.0926 -0.2334
 5090SOL     OW20357   0.279   3.207   4.343  0.4055 -0.0413 -0.6265
 5090SOL    HW120358   0.358   3.239   4.386  0.9627 -0.4945 -1.3024
 5090SOL    HW220359   0.212   3.272   4.364  0.1717 -1.0549  2.4208
 5090SOL     MW20360   0.281   3.220   4.352  0.4490 -0.2387 -0.3073
 5091SOL     OW20361   4.532   5.083   2.199 -0.1284  0.9347 -0.7090
 5091SOL    HW120362   4.511   4.993   2.174  0.7911  0.6460 -0.4916
 5091SOL    HW220363   4.610   5.074   2.254  0.1465  1.8887 -0.9370
 5091SOL     MW20364   4.539   5.069   2.203  0.0323  1.0243 -0.7104
 5092SOL     OW20365   4.394   4.839   4.373 -0.2512  0.4358  0.1470
 5092SOL    HW120366   4.329   4.773   4.348 -0.2316  0.6270 -0.4236
 5092SOL    HW220367   4.427   4.810   4.458 -1.1562  0.3939  0.4877
 5092SOL     MW20368   4.390   4.826   4.381 -0.3704  0.4559  0.1161
 5093SOL     OW20369   1.480   4.793   4.590  0.2588  0.3919  0.1352
 5093SOL    HW120370   1.541   4.746   4.533 -1.1784 -1.4424  0.0359
 5093SOL    HW220371   1.410   4.822   4.532 -0.0260  0.6102  0.5835
 5093SOL     MW20372   1.479   4.790   4.575  0.0271  0.1744  0.1822
 5094SOL     OW20373   1.389   1.764   4.746 -0.5469  0.3269  0.0911
 5094SOL    HW120374   1.320   1.700   4.761 -0.5621  0.9314  3.3576
 5094SOL    HW220375   1.460   1.715   4.704 -1.8748 -0.9530 -0.7244
 5094SOL     MW20376   1.389   1.749   4.742 -0.7277  0.2360  0.4209
 5095SOL     OW20377   1.901   0.742   0.766 -0.2684 -0.4610 -0.1690
 5095SOL    HW120378   1.993   0.761   0.783 -0.2439 -0.4826 -0.2811
 5095SOL    HW220379   1.890   0.650   0.789 -0.3404 -0.3671  0.1764
 5095SOL     MW20380   1.912   0.732   0.771 -0.2748 -0.4513 -0.1376
 5096SOL     OW20381   4.831   0.599   2.043 -0.3547 -1.0299 -0.2711
 5096SOL    HW120382   4.737   0.614   2.031 -0.0981  0.7569 -0.2922
 5096SOL    HW220383   4.840   0.574   2.135 -0.9712 -2.5591 -0.5945
 5096SOL     MW20384   4.819   0.598   2.054 -0.4031 -0.9953 -0.3174
 5097SOL     OW20385   3.052   2.788   3.281  0.0375 -0.2076 -0.4646
 5097SOL    HW120386   3.034   2.694   3.292  0.0906 -0.1413  0.2427
 5097SOL    HW220387   3.015   2.829   3.359  0.9619  0.2290 -0.2355
 5097SOL     MW20388   3.045   2.781   3.293  0.1691 -0.1399 -0.3386
 5098SOL     OW20389   0.451   2.004   3.960  0.0883  0.2893 -0.5810
 5098SOL    HW120390   0.537   2.014   4.002  0.0762  1.7189 -0.8593
 5098SOL    HW220391   0.451   1.913   3.928  0.9141 -0.1784  0.6779
 5098SOL     MW20392   0.463   1.993   3.961  0.1978  0.4188 -0.4490
 5099SOL     OW20393   3.436   5.468   4.956  0.0856  0.0200 -0.4914
 5099SOL    HW120394   3.448   5.382   4.996 -0.1972 -0.0854 -0.6310
 5099SOL    HW220395   3.439   5.529   5.030  1.3267 -0.0014 -0.4970
 5099SOL     MW20396   3.438   5.465   4.971  0.2145  0.0029 -0.5110
 5100SOL     OW20397   2.080   0.338   3.054  0.3527  0.0921 -0.1705
 5100SOL    HW120398   2.031   0.409   3.097 -1.1975 -0.5794 -0.7382
 5100SOL    HW220399   2.146   0.312   3.117 -1.5584 -0.5690  1.6467
 5100SOL     MW20400   2.082   0.344   3.068 -0.1132 -0.0872 -0.0024
 5101SOL     OW20401   2.000   4.227   3.378 -0.1165 -0.3917 -0.4134
 5101SOL    HW120402   1.993   4.291   3.449 -1.0326  0.5633 -1.3374
 5101SOL    HW220403   2.086   4.242   3.341  0.8602 -1.6932  1.2063
 5101SOL     MW20404   2.010   4.238   3.383 -0.1083 -0.4383 -0.3198
 5102SOL     OW20405   1.847   0.196   0.852  0.0759  0.3844 -0.3451
 5102SOL    HW120406   1.880   0.168   0.767  1.4083 -0.0299  0.2734
 5102SOL    HW220407   1.753   0.202   0.841  0.2341  0.3740 -1.8557
 5102SOL     MW20408   1.839   0.193   0.839  0.2765  0.3273 -0.4651
 5103SOL     OW20409   2.364   0.069   1.027  0.3090 -0.3827 -0.4276
 5103SOL    HW120410   2.347  -0.005   0.969  0.0135 -1.0050  0.4150
 5103SOL    HW220411   2.277   0.097   1.056  0.4844 -0.9531  0.7378
 5103SOL     MW20412   2.350   0.063   1.023  0.2928 -0.5432 -0.1574
 5104SOL     OW20413   0.089   2.872   3.261  0.3110 -0.2703 -0.1512
 5104SOL    HW120414   0.181   2.844   3.264  0.7371  1.0872  0.3729
 5104SOL    HW220415   0.071   2.885   3.168  1.3334  1.4411 -0.1638
 5104SOL     MW20416   0.099   2.870   3.249  0.5059  0.1427 -0.0823
 5105SOL     OW20417   4.046   0.645   3.389 -0.0021  0.2062 -0.2040
 5105SOL    HW120418   3.978   0.711   3.405 -0.7239 -0.7720  1.0189
 5105SOL    HW220419   4.013   0.566   3.432  1.0915 -0.8112 -1.1502
 5105SOL     MW20420   4.033   0.643   3.397  0.0479 -0.0623 -0.1667
 5106SOL     OW20421   0.311   5.148   1.112 -0.4547 -0.1932  0.1063
 5106SOL    HW120422   0.246   5.084   1.084  0.8030 -1.5470  0.1894
 5106SOL    HW220423   0.324   5.204   1.035 -0.1349 -1.2596 -0.6364
 5106SOL     MW20424   0.304   5.147   1.098 -0.2424 -0.5189  0.0175
 5107SOL     OW20425   5.266   4.466   3.115  0.2958 -0.2177 -0.2531
 5107SOL    HW120426   5.329   4.491   3.182  0.6874 -1.0372 -0.3102
 5107SOL    HW220427   5.287   4.375   3.094 -0.7705 -0.4376 -0.4259
 5107SOL     MW20428   5.277   4.457   3.121  0.2050 -0.3576 -0.2841
 5108SOL     OW20429   1.648   5.485   3.269  0.0930 -0.3071  0.2385
 5108SOL    HW120430   1.721   5.438   3.311 -0.5952 -0.3937  1.3535
 5108SOL    HW220431   1.659   5.576   3.296 -0.1739 -0.3067  0.3431
 5108SOL     MW20432   1.659   5.491   3.278 -0.0355 -0.3187  0.4026
 5109SOL     OW20433   0.272   5.217   5.276  0.1170 -0.0885  0.4033
 5109SOL    HW120434   0.224   5.236   5.196  0.7641  2.9191  0.5961
 5109SOL    HW220435   0.210   5.233   5.346 -0.1679 -1.7790  0.5775
 5109SOL     MW20436   0.257   5.222   5.275  0.1658  0.0887  0.4527
 5110SOL     OW20437   4.555   5.127   5.115  0.1265  0.0318  0.1965
 5110SOL    HW120438   4.506   5.209   5.123  1.1635  0.7838 -0.7713
 5110SOL    HW220439   4.598   5.116   5.199  0.5741  0.8898  0.0850
 5110SOL     MW20440   4.554   5.137   5.127  0.3263  0.2485  0.0512
 5111SOL     OW20441   3.076   4.893   3.186  0.5304 -0.3691  0.3772
 5111SOL    HW120442   3.142   4.871   3.121  0.3504  0.4613 -0.0907
 5111SOL    HW220443   3.080   4.988   3.194 -0.8350 -0.2788  0.1050
 5111SOL     MW20444   3.086   4.903   3.179  0.3224 -0.2452  0.2776
 5112SOL     OW20445   5.162   2.659   3.474 -0.2901 -0.4555  0.3178
 5112SOL    HW120446   5.234   2.717   3.449 -0.1349 -0.6710  0.2553
 5112SOL    HW220447   5.145   2.679   3.566  0.1034 -0.6689  0.4392
 5112SOL     MW20448   5.169   2.669   3.483 -0.2162 -0.5132  0.3257
 5113SOL     OW20449   2.067   2.604   1.264  0.0830  0.5059  0.6334
 5113SOL    HW120450   2.117   2.558   1.331  0.0715 -1.0313 -0.3563
 5113SOL    HW220451   2.004   2.657   1.313  0.6342  0.0723  1.8404
 5113SOL     MW20452   2.065   2.605   1.279  0.1556  0.2407  0.6626
 5114SOL     OW20453   1.526   4.296   0.303 -0.4471  0.5164 -0.0708
 5114SOL    HW120454   1.489   4.338   0.224  0.0372  0.5782 -0.2661
 5114SOL    HW220455   1.605   4.253   0.272 -1.4911 -1.5032 -0.1019
 5114SOL     MW20456   1.531   4.296   0.288 -0.5224  0.2529 -0.1013
 5115SOL     OW20457   1.631   1.157   5.020 -0.4843 -0.5402  0.9649
 5115SOL    HW120458   1.696   1.109   4.968 -0.7731 -0.1898  0.2713
 5115SOL    HW220459   1.663   1.247   5.021 -0.5068 -0.5359  1.3578
 5115SOL     MW20460   1.644   1.162   5.013 -0.5262 -0.4925  0.9244
 5116SOL     OW20461   4.390   3.170   0.211 -0.9993 -0.0672 -0.1799
 5116SOL    HW120462   4.470   3.119   0.222  0.8801  2.8731  0.9565
 5116SOL    HW220463   4.350   3.172   0.297 -1.7954 -0.7103 -0.5254
 5116SOL     MW20464   4.395   3.163   0.224 -0.8535  0.2420 -0.0735
 5117SOL     OW20465   1.393   2.950   3.884  0.0966 -0.3259  0.4767
 5117SOL    HW120466   1.464   2.975   3.826 -0.7323 -2.6760 -1.7622
 5117SOL    HW220467   1.326   3.017   3.870  0.3364 -0.2744 -0.5169
 5117SOL     MW20468   1.393   2.962   3.874  0.0173 -0.6352  0.0417
 5118SOL     OW20469   3.176   1.988   4.747  0.0163 -0.3309  0.4231
 5118SOL    HW120470   3.134   2.071   4.768 -0.2408 -0.8676  2.2753
 5118SOL    HW220471   3.119   1.922   4.786  1.1840 -1.2472  0.6620
 5118SOL     MW20472   3.163   1.990   4.755  0.1389 -0.5265  0.7045
 5119SOL     OW20473   5.120   4.261   0.498  0.4343 -0.4052 -0.2598
 5119SOL    HW120474   5.052   4.326   0.481  0.7630 -0.4379 -1.8065
 5119SOL    HW220475   5.103   4.232   0.588  1.1033  2.7843  1.0301
 5119SOL     MW20476   5.109   4.266   0.508  0.5686  0.0196 -0.2944
 5120SOL     OW20477   0.211   2.268   4.173 -0.2511  0.2699  0.2404
 5120SOL    HW120478   0.287   2.320   4.147 -0.7824  1.1344  0.3870
 5120SOL    HW220479   0.244   2.178   4.177  0.9319  0.7109  0.9194
 5120SOL     MW20480   0.226   2.262   4.170 -0.1634  0.4456  0.3515
 5121SOL     OW20481   0.230   1.673   0.947  0.2365 -0.0632  0.4849
 5121SOL    HW120482   0.282   1.617   0.890 -0.0345  0.3174 -0.1412
 5121SOL    HW220483   0.187   1.612   1.007 -0.2221 -0.5421 -0.3219
 5121SOL     MW20484   0.231   1.657   0.948  0.1383 -0.0765  0.2920
 5122SOL     OW20485   2.958   1.487   0.418  0.0050  0.4931  0.7402
 5122SOL    HW120486   3.033   1.526   0.461 -1.4744  0.3289  3.7336
 5122SOL    HW220487   2.958   1.395   0.447  0.6449 -0.5452 -2.2017
 5122SOL     MW20488   2.968   1.480   0.428 -0.1080  0.3313  0.7471
 5123SOL     OW20489   0.598   2.938   3.583 -0.0436  0.1192 -0.3591
 5123SOL    HW120490   0.626   2.951   3.674  1.0980 -2.6485 -0.2166
 5123SOL    HW220491   0.664   2.982   3.531  0.5714 -0.2146  0.1286
 5123SOL     MW20492   0.610   2.945   3.588  0.1928 -0.2982 -0.2742
 5124SOL     OW20493   0.952   2.474   4.986 -0.3292  0.0999  0.7501
 5124SOL    HW120494   0.912   2.404   4.934 -1.1921 -0.6620  2.3665
 5124SOL    HW220495   1.003   2.428   5.053 -1.2061  0.9601  2.0720
 5124SOL     MW20496   0.953   2.458   4.988 -0.5634  0.1131  1.1455
 5125SOL     OW20497   4.742   0.696   5.216  0.1167 -0.2212  0.0044
 5125SOL    HW120498   4.741   0.600   5.212 -1.2285 -0.2585  0.6951
 5125SOL    HW220499   4.732   0.716   5.309 -1.5481  0.5776 -0.3169
 5125SOL     MW20500   4.741   0.686   5.228 -0.2884 -0.1187  0.0541
 5126SOL     OW20501   0.674   0.184   4.506 -0.2155 -0.1844 -0.4957
 5126SOL    HW120502   0.717   0.270   4.515 -0.9668  0.2043 -0.5482
 5126SOL    HW220503   0.710   0.133   4.579  1.3015 -0.3008 -1.2859
 5126SOL     MW20504   0.685   0.189   4.517 -0.1124 -0.1478 -0.6091
 5127SOL     OW20505   0.573   0.903   2.521 -0.4415 -0.3987 -0.4801
 5127SOL    HW120506   0.551   0.849   2.445  0.7906 -0.2158 -1.0065
 5127SOL    HW220507   0.533   0.860   2.595 -0.2050 -1.5599 -1.0107
 5127SOL     MW20508   0.565   0.890   2.521 -0.2438 -0.5303 -0.6224
 5128SOL     OW20509   5.371   2.783   1.163  0.1101  0.5529  0.2390
 5128SOL    HW120510   5.359   2.723   1.090  2.0780 -1.0854  1.1621
 5128SOL    HW220511   5.313   2.750   1.231  1.2359 -0.4355  0.7680
 5128SOL     MW20512   5.362   2.771   1.162  0.5265  0.1994  0.4344
 5129SOL     OW20513   3.876   0.083   0.717  0.3898  0.0987 -0.0079
 5129SOL    HW120514   3.934   0.021   0.762 -1.4522  0.2958  2.8690
 5129SOL    HW220515   3.901   0.168   0.753  0.0336  0.5149 -0.7296
 5129SOL     MW20516   3.887   0.086   0.728  0.0940  0.1812  0.2822
 5130SOL     OW20517   4.117   3.959   1.378 -0.1443 -0.4442 -0.9213
 5130SOL    HW120518   4.177   4.023   1.416 -0.9072 -1.1243  1.6516
 5130SOL    HW220519   4.175   3.888   1.348  0.5050  0.1807 -1.1802
 5130SOL     MW20520   4.133   3.958   1.379 -0.1596 -0.4516 -0.6099
 5131SOL     OW20521   3.776   5.202   1.065  0.5709 -0.0348 -0.1518
 5131SOL    HW120522   3.751   5.285   1.107  2.7776  0.6975 -0.1539
 5131SOL    HW220523   3.741   5.209   0.976 -0.4505  0.2686  0.2578
 5131SOL     MW20524   3.768   5.214   1.059  0.7304  0.1046 -0.0970
 5132SOL     OW20525   0.237   4.380   2.387 -0.2387  0.5199 -0.4298
 5132SOL    HW120526   0.160   4.419   2.428 -1.0756 -1.8280  0.4055
 5132SOL    HW220527   0.294   4.357   2.460 -1.1219 -2.4409 -0.5371
 5132SOL     MW20528   0.235   4.382   2.402 -0.4702 -0.1945 -0.3318
 5133SOL     OW20529   1.674   1.442   3.892  0.1708  0.2268 -0.3232
 5133SOL    HW120530   1.760   1.412   3.921 -0.9782 -2.3014  0.7897
 5133SOL    HW220531   1.629   1.362   3.863 -1.4019  1.6350 -2.0284
 5133SOL     MW20532   1.679   1.427   3.892 -0.1955  0.0761 -0.4029
 5134SOL     OW20533   1.309   0.699   5.059  0.4202 -0.2477  0.4008
 5134SOL    HW120534   1.390   0.712   5.108  1.3021 -1.5265 -0.6403
 5134SOL    HW220535   1.256   0.776   5.080  2.1160  0.9188  0.6809
 5134SOL     MW20536   1.313   0.711   5.068  0.7671 -0.2628  0.2984
 5135SOL     OW20537   4.572   2.352   4.835  0.3956  0.1071  0.0484
 5135SOL    HW120538   4.628   2.363   4.759 -0.0741 -1.5683 -0.5916
 5135SOL    HW220539   4.520   2.432   4.838  2.4578  1.5153  0.4101
 5135SOL     MW20540   4.572   2.364   4.825  0.6099  0.0712  0.0110
 5136SOL     OW20541   0.652   4.519   4.977 -0.0845  0.1527 -0.0690
 5136SOL    HW120542   0.738   4.485   4.953  1.1574  2.5966  0.6085
 5136SOL    HW220543   0.662   4.547   5.068 -1.7498  0.0881  0.1640
 5136SOL     MW20544   0.665   4.518   4.986 -0.1414  0.4729  0.0535
 5137SOL     OW20545   5.318   4.633   0.934 -0.3864  0.0471  0.4726
 5137SOL    HW120546   5.351   4.602   1.018 -1.6934  0.0043  0.9850
 5137SOL    HW220547   5.350   4.568   0.871  1.1215  0.4073  0.8140
 5137SOL     MW20548   5.327   4.620   0.937 -0.3593  0.0898  0.5875
 5138SOL     OW20549   5.214   2.534   1.675  0.0516  0.5073  0.4651
 5138SOL    HW120550   5.215   2.487   1.758 -2.2202  0.3264  0.4741
 5138SOL    HW220551   5.173   2.473   1.614  0.3889  1.1631 -0.4400
 5138SOL     MW20552   5.208   2.519   1.678 -0.2087  0.5712  0.3445
 5139SOL     OW20553   0.742   4.539   3.203 -0.5966  0.4368 -0.0667
 5139SOL    HW120554   0.808   4.497   3.148  0.6045  1.0429  0.8602
 5139SOL    HW220555   0.662   4.488   3.188  0.1087 -0.3988 -1.1132
 5139SOL     MW20556   0.740   4.526   3.194 -0.3400  0.4059 -0.0828
 5140SOL     OW20557   4.127   4.197   3.464 -0.1119 -0.3282  0.2978
 5140SOL    HW120558   4.160   4.281   3.431 -3.0519  0.3835 -1.1355
 5140SOL    HW220559   4.115   4.212   3.558  2.4191 -0.3089  0.6997
 5140SOL     MW20560   4.130   4.211   3.472 -0.1669 -0.2298  0.1590
 5141SOL     OW20561   2.252   2.389   4.154 -0.0283  0.3057 -0.0383
 5141SOL    HW120562   2.326   2.378   4.095  0.8281  4.1868  0.0250
 5141SOL    HW220563   2.175   2.387   4.097  0.5209  0.6138 -0.8055
 5141SOL     MW20564   2.252   2.387   4.139  0.1608  0.8695 -0.1330
 5142SOL     OW20565   0.711   2.267   2.078  0.2546 -0.0960 -0.2743
 5142SOL    HW120566   0.658   2.300   2.151  0.0308 -1.9280  0.4468
 5142SOL    HW220567   0.705   2.335   2.012 -1.4431  0.6110  0.5407
 5142SOL     MW20568   0.703   2.280   2.079 -0.0040 -0.2474 -0.0676
 5143SOL     OW20569   4.644   4.710   1.400  0.6775  0.2593 -0.2170
 5143SOL    HW120570   4.652   4.782   1.338  1.4679 -0.0518 -0.4866
 5143SOL    HW220571   4.579   4.740   1.463 -1.6800 -0.2279 -2.2705
 5143SOL     MW20572   4.637   4.724   1.400  0.4666  0.1519 -0.5296
 5144SOL     OW20573   3.814   0.694   1.009  0.4850 -0.1019  0.0141
 5144SOL    HW120574   3.751   0.643   0.959  1.0948 -0.2418 -0.6293
 5144SOL    HW220575   3.809   0.783   0.973  1.1808 -0.2842 -0.5611
 5144SOL     MW20576   3.805   0.699   0.998  0.6607 -0.1453 -0.1499
 5145SOL     OW20577   2.288   2.404   3.003  0.4296 -0.1688 -0.3993
 5145SOL    HW120578   2.367   2.416   3.056 -0.3876 -0.4647  0.9439
 5145SOL    HW220579   2.295   2.315   2.968  0.1157 -0.6584  0.7476
 5145SOL     MW20580   2.299   2.394   3.005  0.2774 -0.2745 -0.0642
 5146SOL     OW20581   0.200   2.165   3.468  0.0311  0.1249  0.5178
 5146SOL    HW120582   0.264   2.113   3.419  0.7175  0.1937  1.3209
 5146SOL    HW220583   0.225   2.154   3.560 -1.1078  0.1606  0.8538
 5146SOL     MW20584   0.212   2.156   3.474 -0.0298  0.1390  0.6711
 5147SOL     OW20585   1.289   1.418   2.062  0.5661  0.5285  0.2991
 5147SOL    HW120586   1.324   1.352   2.122 -1.0059 -0.8960 -0.2447
 5147SOL    HW220587   1.199   1.432   2.091 -0.5712 -0.9056 -2.1668
 5147SOL     MW20588   1.282   1.411   2.074  0.2015  0.1438 -0.1059
 5148SOL     OW20589   1.669   2.291   2.013  0.0713  0.4981 -0.1951
 5148SOL    HW120590   1.725   2.323   2.083  0.5198  0.0675 -0.3485
 5148SOL    HW220591   1.728   2.279   1.938  0.1915 -1.7729  0.1732
 5148SOL     MW20592   1.684   2.294   2.012  0.1478  0.1345 -0.1662
 5149SOL     OW20593   0.033   2.379   0.925  0.6775 -0.0212 -0.2375
 5149SOL    HW120594  -0.040   2.441   0.924  1.4086  0.8537 -0.7411
 5149SOL    HW220595   0.027   2.337   1.011 -0.1075  0.4007 -0.0722
 5149SOL     MW20596   0.022   2.382   0.936  0.6703  0.1533 -0.2830
 5150SOL     OW20597   2.634   3.671   1.875 -0.0033  0.1209 -0.5505
 5150SOL    HW120598   2.558   3.613   1.870 -0.9394  1.1463  0.9435
 5150SOL    HW220599   2.598   3.755   1.904  1.8484  0.3151  1.3805
 5150SOL     MW20600   2.619   3.675   1.878  0.1199  0.2851 -0.0895
 5151SOL     OW20601   0.998   4.788   4.575 -0.4948  0.3957  0.3697
 5151SOL    HW120602   1.011   4.882   4.587  0.4425  0.6072 -1.7926
 5151SOL    HW220603   1.064   4.763   4.510 -0.9187 -1.7023  0.6852
 5151SOL     MW20604   1.009   4.797   4.568 -0.4257  0.1418  0.1212
 5152SOL     OW20605   0.994   1.912   3.716 -0.7176 -0.0567  0.1150
 5152SOL    HW120606   0.990   1.854   3.792  0.4474 -1.1929 -0.6423
 5152SOL    HW220607   0.967   1.998   3.750  1.4296 -0.1190  2.2491
 5152SOL     MW20608   0.990   1.916   3.731 -0.2718 -0.2180  0.3003
 5153SOL     OW20609   3.924   1.426   0.931 -0.3561  0.4237 -0.2796
 5153SOL    HW120610   3.888   1.362   0.869  1.0460 -0.4832 -0.1976
 5153SOL    HW220611   3.920   1.510   0.884 -1.7411  0.2082 -0.5777
 5153SOL     MW20612   3.919   1.429   0.916 -0.3538  0.2727 -0.3087
 5154SOL     OW20613   5.113   4.769   3.317 -0.2571  0.4938  0.2671
 5154SOL    HW120614   5.171   4.831   3.273 -0.1520  0.4347  0.3227
 5154SOL    HW220615   5.024   4.799   3.294 -0.2712  1.8494  1.8608
 5154SOL     MW20616   5.109   4.782   3.308 -0.2449  0.6683  0.4890
 5155SOL     OW20617   4.292   3.241   3.775 -0.1789 -0.3688 -0.4608
 5155SOL    HW120618   4.268   3.297   3.848  0.7706 -1.0400  0.4041
 5155SOL    HW220619   4.209   3.204   3.744 -0.5880 -0.0890  0.2856
 5155SOL     MW20620   4.278   3.243   3.781 -0.1062 -0.4215 -0.2440
 5156SOL     OW20621   0.313   4.589   0.272 -0.0546 -0.0886  0.0492
 5156SOL    HW120622   0.397   4.548   0.294 -0.5359 -0.8741  0.4958
 5156SOL    HW220623   0.331   4.683   0.271  0.7404 -0.2240  0.5426
 5156SOL     MW20624   0.327   4.596   0.275 -0.0124 -0.2125  0.1757
 5157SOL     OW20625   1.984   1.803   5.266 -0.4650  0.6441  0.1145
 5157SOL    HW120626   2.027   1.822   5.182 -0.6999 -0.3009 -0.2333
 5157SOL    HW220627   1.915   1.741   5.244 -0.4891  0.3360  1.0227
 5157SOL     MW20628   1.981   1.797   5.251 -0.4999  0.4755  0.1899
 5158SOL     OW20629   1.914   0.715   2.943  0.0131 -0.8203  0.1442
 5158SOL    HW120630   1.930   0.808   2.933  0.8734 -0.9184  0.5690
 5158SOL    HW220631   1.989   0.672   2.902  1.1278 -1.2701  2.4688
 5158SOL     MW20632   1.926   0.722   2.936  0.2789 -0.8940  0.5142
 5159SOL     OW20633   0.768   4.182   1.676 -0.3527 -0.1694  0.2013
 5159SOL    HW120634   0.698   4.224   1.626  0.2533  0.3107 -0.2542
 5159SOL    HW220635   0.847   4.232   1.655  0.2976 -1.2032  0.0562
 5159SOL     MW20636   0.769   4.194   1.666 -0.1836 -0.2439  0.1205
 5160SOL     OW20637   2.409   1.814   5.146 -0.1242  0.5341 -0.0628
 5160SOL    HW120638   2.494   1.816   5.188 -0.5094 -1.7826  0.9821
 5160SOL    HW220639   2.424   1.848   5.058  2.0887 -0.7287 -0.2292
 5160SOL     MW20640   2.422   1.819   5.139  0.1218  0.0523  0.0554
 5161SOL     OW20641   4.378   1.065   4.381 -0.3105 -0.0388  0.1466
 5161SOL    HW120642   4.323   0.987   4.394 -0.1788  0.1228  2.0776
 5161SOL    HW220643   4.334   1.114   4.312 -0.9902 -1.2966 -0.3563
 5161SOL     MW20644   4.365   1.061   4.374 -0.3842 -0.1863  0.3388
 5162SOL     OW20645   2.192   1.315   0.203  0.1289 -0.4327 -0.0521
 5162SOL    HW120646   2.282   1.283   0.192  0.3355  0.1494 -0.0651
 5162SOL    HW220647   2.186   1.391   0.145 -0.3619 -0.4504 -0.0241
 5162SOL     MW20648   2.203   1.321   0.194  0.0906 -0.3568 -0.0501
 5163SOL     OW20649   2.445   1.608   1.468 -0.3795  0.2700  0.5848
 5163SOL    HW120650   2.398   1.606   1.385 -0.8672 -0.0818  0.8700
 5163SOL    HW220651   2.536   1.627   1.443 -0.6798  1.0445  0.0408
 5163SOL     MW20652   2.451   1.610   1.454 -0.4856  0.3269  0.5500
 5164SOL     OW20653   3.436   0.402   4.986 -0.0596 -0.2653 -0.1115
 5164SOL    HW120654   3.386   0.385   5.066  1.6038 -2.2068  0.6110
 5164SOL    HW220655   3.525   0.419   5.016  0.3287  0.3540 -1.5040
 5164SOL     MW20656   3.441   0.402   5.001  0.2165 -0.4433 -0.2016
 5165SOL     OW20657   1.417   5.087   5.337 -0.0979  0.2774  0.0137
 5165SOL    HW120658   1.445   5.062   5.424 -2.1519  1.3840  1.0670
 5165SOL    HW220659   1.349   5.024   5.314  1.2575 -0.7561 -1.3611
 5165SOL     MW20660   1.411   5.075   5.345 -0.1919  0.2873 -0.0296
 5166SOL     OW20661   5.246   1.306   1.211 -0.0092  0.0625  0.2477
 5166SOL    HW120662   5.323   1.351   1.245 -0.3800  0.1933  0.9143
 5166SOL    HW220663   5.215   1.361   1.139 -1.0900  1.4557  1.7256
 5166SOL     MW20664   5.252   1.319   1.206 -0.2046  0.2676  0.5363
 5167SOL     OW20665   1.271   2.035   0.041  0.4469 -0.2488  0.1020
 5167SOL    HW120666   1.210   1.967   0.013  2.0407 -2.5204  1.8227
 5167SOL    HW220667   1.215   2.108   0.067 -1.3222 -0.8280 -1.7834
 5167SOL     MW20668   1.255   2.036   0.041  0.4233 -0.6325  0.0798
 5168SOL     OW20669   2.786   2.122   1.051 -0.4149 -0.6205 -0.2522
 5168SOL    HW120670   2.764   2.042   1.003  1.8224 -1.4850  0.0350
 5168SOL    HW220671   2.882   2.120   1.059 -0.4242  1.2911  1.1586
 5168SOL     MW20672   2.796   2.111   1.046 -0.1151 -0.4796 -0.0237
 5169SOL     OW20673   2.667   2.642   1.364 -0.6493  0.4004  0.2240
 5169SOL    HW120674   2.737   2.598   1.412 -2.3183 -0.2713  2.1771
 5169SOL    HW220675   2.692   2.734   1.363  0.2552  0.1702  0.9052
 5169SOL     MW20676   2.680   2.648   1.370 -0.7522  0.2790  0.5785
 5170SOL     OW20677   0.427   1.317   3.718  0.2976  0.3720 -0.5510
 5170SOL    HW120678   0.395   1.245   3.773 -0.4430 -0.2020 -1.7068
 5170SOL    HW220679   0.348   1.361   3.687  0.7432  1.5745 -0.0231
 5170SOL     MW20680   0.412   1.313   3.721  0.2579  0.4566 -0.6355
 5171SOL     OW20681   0.288   4.392   1.940  0.1580  0.3855 -0.0528
 5171SOL    HW120682   0.363   4.451   1.927 -0.2248  1.0142  0.5263
 5171SOL    HW220683   0.310   4.343   2.019 -0.7531  1.7597  1.1157
 5171SOL     MW20684   0.301   4.394   1.949 -0.0161  0.6551  0.1824
 5172SOL     OW20685   0.600   4.294   4.284 -0.1792  0.2728  0.0291
 5172SOL    HW120686   0.617   4.237   4.359 -0.7238  0.2831  0.1652
 5172SOL    HW220687   0.506   4.311   4.287 -0.6132 -1.3660 -1.8030
 5172SOL     MW20688   0.589   4.289   4.294 -0.3109  0.0536 -0.1991
 5173SOL     OW20689   2.575   1.327   4.017 -0.0557  0.0122  0.3632
 5173SOL    HW120690   2.658   1.372   4.002 -0.7008  1.0969 -0.0849
 5173SOL    HW220691   2.565   1.269   3.941 -0.2976  0.8166 -0.2323
 5173SOL     MW20692   2.585   1.325   4.005 -0.1751  0.2664  0.2228
 5174SOL     OW20693   2.268   5.310   0.555  0.0268  0.5035  0.4401
 5174SOL    HW120694   2.262   5.283   0.464  0.0790 -0.5113  0.7211
 5174SOL    HW220695   2.233   5.399   0.557 -1.8128 -0.1752 -0.2324
 5174SOL     MW20696   2.263   5.318   0.543 -0.2138  0.2756  0.3874
 5175SOL     OW20697   3.512   3.311   5.068 -0.3251 -0.0776  0.0486
 5175SOL    HW120698   3.527   3.222   5.100  1.3895 -0.0754 -0.6564
 5175SOL    HW220699   3.557   3.367   5.130 -0.2392  0.2021 -0.2657
 5175SOL     MW20700   3.520   3.306   5.081 -0.0828 -0.0396 -0.0886
 5176SOL     OW20701   5.041   0.720   0.356 -0.1632  0.1030 -0.0415
 5176SOL    HW120702   4.947   0.732   0.338 -0.5358  0.8851  2.1116
 5176SOL    HW220703   5.060   0.632   0.324 -1.5998 -0.0055 -0.6761
 5176SOL     MW20704   5.031   0.710   0.349 -0.4067  0.1937  0.1629
 5177SOL     OW20705   0.277   2.399   2.074  0.4863 -0.5073 -0.3092
 5177SOL    HW120706   0.281   2.304   2.065  0.9243 -0.4428 -0.8083
 5177SOL    HW220707   0.368   2.427   2.079  0.3453 -0.2490  1.4401
 5177SOL     MW20708   0.290   2.390   2.073  0.5263 -0.4638 -0.1410
 5178SOL     OW20709   2.021   4.900   1.550  0.0596 -0.0239  0.0278
 5178SOL    HW120710   1.932   4.932   1.536 -0.1419 -0.6431 -0.1276
 5178SOL    HW220711   2.039   4.917   1.642 -0.7614 -1.2196  0.4200
 5178SOL     MW20712   2.012   4.907   1.560 -0.0780 -0.2682  0.0597
 5179SOL     OW20713   0.172   0.620   4.884  0.2314 -0.4527  0.2844
 5179SOL    HW120714   0.131   0.576   4.959  0.0378 -0.8087 -0.0240
 5179SOL    HW220715   0.263   0.592   4.886 -0.1508 -1.8420 -0.6018
 5179SOL     MW20716   0.178   0.610   4.894  0.1539 -0.6876  0.1236
 5180SOL     OW20717   0.110   3.478   4.133  0.4627  0.4205 -0.1241
 5180SOL    HW120718   0.054   3.415   4.088 -1.6569  0.8992  1.6501
 5180SOL    HW220719   0.120   3.443   4.221  2.1387  0.9051 -0.0855
 5180SOL     MW20720   0.104   3.465   4.139  0.4030  0.5502  0.1199
 5181SOL     OW20721   3.444   0.098   5.197 -0.4213 -0.2410  0.3975
 5181SOL    HW120722   3.383   0.046   5.249 -0.1859 -1.8415 -0.8388
 5181SOL    HW220723   3.528   0.091   5.243 -0.3880 -0.9987  0.2380
 5181SOL     MW20724   3.447   0.090   5.210 -0.3852 -0.5584  0.2097
 5182SOL     OW20725   0.406   4.101   4.675 -0.2368  0.0265 -0.0862
 5182SOL    HW120726   0.379   4.118   4.584 -1.1782 -1.6646 -0.1599
 5182SOL    HW220727   0.355   4.163   4.727 -0.9193 -0.0945 -0.5959
 5182SOL     MW20728   0.395   4.112   4.670 -0.4554 -0.2174 -0.1648
 5183SOL     OW20729   0.725   4.860   3.732 -0.6691  0.2255 -0.0307
 5183SOL    HW120730   0.743   4.893   3.644  1.9036 -0.0555  0.3071
 5183SOL    HW220731   0.784   4.785   3.742  0.8240  1.6088  2.6766
 5183SOL     MW20732   0.736   4.855   3.722 -0.1220  0.3739  0.3791
 5184SOL     OW20733   2.815   1.697   0.747  0.1374 -0.5742  0.5316
 5184SOL    HW120734   2.858   1.612   0.752  0.1214 -0.7425 -1.3549
 5184SOL    HW220735   2.883   1.757   0.715 -0.4306 -0.3839 -0.3682
 5184SOL     MW20736   2.830   1.694   0.743  0.0588 -0.5712  0.1566
 5185SOL     OW20737   3.167   3.892   2.933  0.3613 -0.3799 -0.0763
 5185SOL    HW120738   3.121   3.947   2.869  1.2244  0.7120  0.1975
 5185SOL    HW220739   3.098   3.840   2.974 -0.6794  1.2586  0.3897
 5185SOL     MW20740   3.151   3.893   2.930  0.3374 -0.0124  0.0232
 5186SOL     OW20741   2.472   4.503   0.561  0.2098 -0.1839 -0.3110
 5186SOL    HW120742   2.522   4.492   0.481 -1.7240 -1.8293 -1.3782
 5186SOL    HW220743   2.468   4.415   0.600 -1.1701  0.0504  0.1307
 5186SOL     MW20744   2.478   4.490   0.556 -0.2362 -0.3738 -0.3952
 5187SOL     OW20745   3.932   4.370   0.437  0.0227  0.2252 -0.1438
 5187SOL    HW120746   4.003   4.369   0.373 -0.9137 -1.1312 -1.2371
 5187SOL    HW220747   3.944   4.452   0.485 -0.0110  2.0251 -2.9639
 5187SOL     MW20748   3.943   4.381   0.435 -0.1078  0.2849 -0.6705
 5188SOL     OW20749   4.326   3.556   2.644 -0.6111  0.2781 -0.0310
 5188SOL    HW120750   4.261   3.491   2.617 -1.0340  0.2673  0.9742
 5188SOL    HW220751   4.345   3.606   2.565  0.1321 -1.4046 -0.9607
 5188SOL     MW20752   4.320   3.554   2.630 -0.5680  0.0502 -0.0209
 5189SOL     OW20753   4.029   5.412   0.870 -0.0891 -0.0769  0.1609
 5189SOL    HW120754   4.012   5.335   0.924  0.4356  0.1694  0.6824
 5189SOL    HW220755   4.091   5.382   0.804  2.4114  0.5624  2.0889
 5189SOL     MW20756   4.035   5.398   0.868  0.3180  0.0423  0.4906
 5190SOL     OW20757   3.868   4.702   2.055  0.2188 -0.3416  0.1735
 5190SOL    HW120758   3.790   4.741   2.015  0.3545  0.0923  0.3226
 5190SOL    HW220759   3.911   4.775   2.099 -1.1284 -1.1755  3.0921
 5190SOL     MW20760   3.863   4.717   2.056  0.0558 -0.3955  0.5863
 5191SOL     OW20761   3.236   2.504   0.894  0.1681 -1.0067 -0.1009
 5191SOL    HW120762   3.285   2.546   0.964 -0.1745  0.6842 -0.8223
 5191SOL    HW220763   3.157   2.557   0.885 -1.2654 -2.9469  0.2199
 5191SOL     MW20764   3.232   2.516   0.902 -0.0709 -1.0402 -0.1548
 5192SOL     OW20765   4.400   2.881   1.052  0.2285  0.4866 -0.2492
 5192SOL    HW120766   4.413   2.833   0.970 -1.9063 -0.0413 -0.3281
 5192SOL    HW220767   4.333   2.946   1.032  0.2493  0.8876  0.8864
 5192SOL     MW20768   4.393   2.883   1.039 -0.0560  0.4695 -0.1070
 5193SOL     OW20769   2.684   3.079   4.161  0.3636  0.0337  0.0839
 5193SOL    HW120770   2.702   3.164   4.119  1.8668 -0.0416  0.5294
 5193SOL    HW220771   2.709   3.014   4.095  2.4678 -0.0805  0.9240
 5193SOL     MW20772   2.689   3.082   4.146  0.8491  0.0082  0.2569
 5194SOL     OW20773   0.820   0.968   2.594 -0.5159  0.1382 -0.1835
 5194SOL    HW120774   0.732   0.942   2.569 -0.5473 -1.2369  1.2064
 5194SOL    HW220775   0.817   1.064   2.596 -2.0601  0.1039  0.0927
 5194SOL     MW20776   0.808   0.978   2.591 -0.7280 -0.0515  0.0407
 5195SOL     OW20777   0.211   0.772   3.861  0.6288 -0.1661  0.5175
 5195SOL    HW120778   0.120   0.782   3.830  1.1323  1.9609 -0.5006
 5195SOL    HW220779   0.222   0.678   3.873 -0.8392 -0.7873 -2.1611
 5195SOL     MW20780   0.200   0.761   3.858  0.4990  0.0365  0.0200
 5196SOL     OW20781   4.689   2.592   5.165  0.0985 -0.6404 -0.0669
 5196SOL    HW120782   4.718   2.578   5.255  0.5087  0.2326 -0.0461
 5196SOL    HW220783   4.744   2.534   5.112  0.3407 -0.6334  0.1796
 5196SOL     MW20784   4.700   2.582   5.170  0.1863 -0.5220 -0.0309
 5197SOL     OW20785   0.994   5.511   0.836  0.0886 -0.0517 -0.3185
 5197SOL    HW120786   1.077   5.464   0.845  1.0821  1.7972  0.8843
 5197SOL    HW220787   1.000   5.555   0.751  1.1297  1.4166  0.4713
 5197SOL     MW20788   1.006   5.510   0.826  0.3624  0.3947 -0.0503
 5198SOL     OW20789   0.044   0.097   0.474 -0.0512 -0.2718 -0.3218
 5198SOL    HW120790   0.080   0.126   0.558 -0.4045 -0.8925  0.0460
 5198SOL    HW220791   0.090   0.151   0.409 -0.4292  0.8738  0.3196
 5198SOL     MW20792   0.055   0.108   0.477 -0.1496 -0.2012 -0.1860
 5199SOL     OW20793   3.600   4.883   0.323 -0.1804 -0.1469 -0.1662
 5199SOL    HW120794   3.651   4.845   0.395 -1.2504 -1.9709 -0.3217
 5199SOL    HW220795   3.564   4.964   0.359  1.4032  0.3010  0.4877
 5199SOL     MW20796   3.602   4.888   0.337 -0.1113 -0.3321 -0.0992
 5200SOL     OW20797   2.354   3.861   4.232  0.3609 -0.0127 -0.0683
 5200SOL    HW120798   2.349   3.945   4.278 -1.6048  0.0395 -0.3052
 5200SOL    HW220799   2.358   3.885   4.140  0.6824 -0.1789 -0.0992
 5200SOL     MW20800   2.354   3.876   4.226  0.1397 -0.0281 -0.1044
 5201SOL     OW20801   5.092   2.392   3.776 -0.4041 -0.0280  0.5166
 5201SOL    HW120802   5.140   2.420   3.698 -1.1951  1.7662  0.6345
 5201SOL    HW220803   5.155   2.402   3.848 -0.3518  0.4490  0.4069
 5201SOL     MW20804   5.107   2.397   3.775 -0.5035  0.2777  0.5177
 5202SOL     OW20805   4.475   3.903   4.806 -0.6408 -0.5820 -0.3006
 5202SOL    HW120806   4.503   3.913   4.897  0.5648  1.6756 -0.8371
 5202SOL    HW220807   4.400   3.960   4.797 -1.3718 -1.5490 -0.5193
 5202SOL     MW20808   4.469   3.912   4.817 -0.5770 -0.4083 -0.4022
 5203SOL     OW20809   2.631   4.375   1.724 -0.1382 -0.8127 -0.3615
 5203SOL    HW120810   2.724   4.360   1.706  0.4699 -0.2447  1.9522
 5203SOL    HW220811   2.610   4.457   1.681  0.2962 -1.1597 -1.2548
 5203SOL     MW20812   2.641   4.384   1.716  0.0021 -0.7830 -0.1703
 5204SOL     OW20813   4.879   4.402   0.437 -0.3316 -0.4826  0.0330
 5204SOL    HW120814   4.829   4.349   0.499  0.8727 -2.5279 -0.6564
 5204SOL    HW220815   4.841   4.490   0.444 -1.1208 -0.9668  2.6229
 5204SOL     MW20816   4.867   4.407   0.446 -0.2758 -0.8230  0.2888
 5205SOL     OW20817   0.209   0.172   0.732  0.0389  0.1006 -0.4105
 5205SOL    HW120818   0.131   0.174   0.786 -0.8754  0.6463 -1.7002
 5205SOL    HW220819   0.279   0.142   0.791 -0.8380  0.9519  1.1275
 5205SOL     MW20820   0.208   0.168   0.747 -0.2021  0.2886 -0.3771
 5206SOL     OW20821   1.369   4.282   0.811 -0.0700  0.4821  0.0613
 5206SOL    HW120822   1.394   4.241   0.727  1.6430  0.4652  0.5280
 5206SOL    HW220823   1.343   4.209   0.866 -0.7821  0.4481 -0.3072
 5206SOL     MW20824   1.369   4.267   0.807  0.0647  0.4753  0.0746
 5207SOL     OW20825   5.484   0.982   0.748  0.2509  0.6800 -0.5428
 5207SOL    HW120826   5.481   0.946   0.836 -1.4214  1.2114 -0.3639
 5207SOL    HW220827   5.501   1.076   0.760 -1.6207  1.0707 -0.6592
 5207SOL     MW20828   5.486   0.990   0.761 -0.2260  0.8041 -0.5344
 5208SOL     OW20829   1.748   0.402   2.906  0.0459  0.4774  0.4397
 5208SOL    HW120830   1.821   0.383   2.847  0.2173  0.1195  0.7668
 5208SOL    HW220831   1.675   0.423   2.847  0.1456 -0.1352  0.0960
 5208SOL     MW20832   1.748   0.403   2.890  0.0824  0.3468  0.4375
 5209SOL     OW20833   2.148   1.084   4.994  0.0382 -0.2277  0.2979
 5209SOL    HW120834   2.223   1.051   5.044  0.6821 -1.6367 -1.4755
 5209SOL    HW220835   2.167   1.060   4.904 -1.3254  1.7411 -0.5957
 5209SOL     MW20836   2.161   1.076   4.989 -0.0586 -0.1524 -0.0610
 5210SOL     OW20837   3.725   2.500   2.293 -0.7119  0.4924 -0.5311
 5210SOL    HW120838   3.786   2.572   2.278 -0.1052  0.5358  1.7093
 5210SOL    HW220839   3.680   2.523   2.374  0.2566 -2.0780  0.8515
 5210SOL     MW20840   3.727   2.513   2.302 -0.4999  0.1523 -0.0435
 5211SOL     OW20841   0.932   1.579   4.293  0.2691  0.3942  0.5130
 5211SOL    HW120842   0.857   1.530   4.326 -0.3098 -1.1197 -2.6377
 5211SOL    HW220843   0.893   1.650   4.241  0.9854  0.1182 -0.4314
 5211SOL     MW20844   0.917   1.582   4.290  0.2876  0.1533 -0.0381
 5212SOL     OW20845   1.329   0.296   2.845  0.2048 -0.1909 -0.4715
 5212SOL    HW120846   1.400   0.288   2.782  0.2440 -0.5209 -0.3888
 5212SOL    HW220847   1.323   0.209   2.886 -1.5706 -0.7985 -1.8905
 5212SOL     MW20848   1.338   0.283   2.842 -0.0288 -0.3171 -0.6513
 5213SOL     OW20849   3.118   3.003   0.879 -0.1878  0.1069 -0.2207
 5213SOL    HW120850   3.143   2.942   0.809  1.0189  1.0019 -0.6027
 5213SOL    HW220851   3.183   3.074   0.873 -2.3848  2.1910 -0.7609
 5213SOL     MW20852   3.130   3.004   0.869 -0.3211  0.5078 -0.3448
 5214SOL     OW20853   2.043   2.953   1.185 -0.2069  0.2252 -0.2206
 5214SOL    HW120854   2.061   3.040   1.149  0.2914 -0.2739 -1.2238
 5214SOL    HW220855   1.949   2.952   1.200 -0.1480  1.1021  0.2734
 5214SOL     MW20856   2.033   2.964   1.182 -0.1319  0.2760 -0.2891
 5215SOL     OW20857   3.045   4.740   2.171  0.0147  0.0642  0.6237
 5215SOL    HW120858   2.992   4.765   2.095 -0.4799  0.5002  1.1127
 5215SOL    HW220859   3.068   4.822   2.213  0.8645 -0.1334  0.5737
 5215SOL     MW20860   3.041   4.754   2.166  0.0625  0.0963  0.6828
 5216SOL     OW20861   0.723   1.246   2.928 -0.2068 -0.3976 -0.2889
 5216SOL    HW120862   0.730   1.208   3.016  0.8018 -0.9280 -0.5737
 5216SOL    HW220863   0.646   1.303   2.932 -0.8123 -1.2434  0.6254
 5216SOL     MW20864   0.714   1.248   2.941 -0.1525 -0.5828 -0.2042
 5217SOL     OW20865   0.159   1.835   0.623  0.3830 -0.8261 -0.3302
 5217SOL    HW120866   0.113   1.777   0.684 -0.4219  0.7055  0.5767
 5217SOL    HW220867   0.241   1.789   0.603  0.3663 -1.6768  1.4128
 5217SOL     MW20868   0.164   1.821   0.629  0.2724 -0.7345  0.0264
 5218SOL     OW20869   3.601   4.055   1.142  0.3202 -0.3016 -0.7273
 5218SOL    HW120870   3.506   4.049   1.148  0.2001  1.8871  1.8726
 5218SOL    HW220871   3.631   3.965   1.132 -1.9689 -1.1557 -0.4355
 5218SOL     MW20872   3.593   4.042   1.142 -0.0041 -0.1220 -0.3382
 5219SOL     OW20873   2.983   4.120   0.535 -0.2104 -0.1957  0.3002
 5219SOL    HW120874   3.066   4.088   0.571 -0.7187 -0.2080  1.5063
 5219SOL    HW220875   2.920   4.050   0.554 -0.8384  0.5065  0.8728
 5219SOL     MW20876   2.986   4.106   0.542 -0.3633 -0.1028  0.5396
 5220SOL     OW20877   1.096   3.221   4.822  0.3816  0.8367 -0.5769
 5220SOL    HW120878   1.082   3.141   4.874  1.1843  1.6279  0.9137
 5220SOL    HW220879   1.191   3.236   4.827  0.0900  2.6569  0.4057
 5220SOL     MW20880   1.107   3.212   4.830  0.4504  1.1881 -0.2441
 5221SOL     OW20881   4.065   4.918   2.900 -0.1461 -1.0083  0.4394
 5221SOL    HW120882   4.066   4.850   2.833 -1.5510 -0.1209 -0.5339
 5221SOL    HW220883   4.134   4.978   2.874 -1.9017  0.3402 -1.3762
 5221SOL     MW20884   4.075   4.917   2.888 -0.5715 -0.7074  0.0640
 5222SOL     OW20885   5.491   4.025   1.015 -0.3997 -0.1931 -0.1668
 5222SOL    HW120886   5.442   4.010   1.096  1.4210  2.0062  1.4756
 5222SOL    HW220887   5.577   3.987   1.030  0.3938  1.3821 -0.5060
 5222SOL     MW20888   5.496   4.018   1.028 -0.0479  0.3149  0.0086
 5223SOL     OW20889   2.456   1.971   0.896 -0.1415 -0.5152  0.0896
 5223SOL    HW120890   2.546   1.943   0.915 -0.1646  0.0797  1.1843
 5223SOL    HW220891   2.407   1.950   0.976 -0.7275  0.1704 -0.0737
 5223SOL     MW20892   2.461   1.964   0.909 -0.2235 -0.3429  0.2149
 5224SOL     OW20893   3.442   1.532   3.743 -0.6239  0.0391 -0.3600
 5224SOL    HW120894   3.395   1.450   3.733 -2.0802  0.9683 -1.5070
 5224SOL    HW220895   3.396   1.594   3.687  1.4206  1.2590 -0.8049
 5224SOL     MW20896   3.430   1.529   3.734 -0.5448  0.3283 -0.5742
 5225SOL     OW20897   0.344   5.370   3.748 -0.6534  0.3685 -0.3175
 5225SOL    HW120898   0.295   5.318   3.811 -0.8668  1.2464  0.2594
 5225SOL    HW220899   0.294   5.363   3.667 -0.4606 -0.6400 -0.3606
 5225SOL     MW20900   0.331   5.362   3.745 -0.6561  0.3510 -0.2456
 5226SOL     OW20901   2.067   2.125   5.186  0.3198  0.0405 -0.4768
 5226SOL    HW120902   2.111   2.096   5.106 -0.9452 -0.4018 -1.0405
 5226SOL    HW220903   1.982   2.080   5.184 -0.6258  1.7449 -0.0176
 5226SOL     MW20904   2.061   2.115   5.175  0.0223  0.2103 -0.4909
 5227SOL     OW20905   2.934   0.885   2.067  0.1156  0.9216 -0.1133
 5227SOL    HW120906   3.015   0.908   2.112  0.1561  1.0351 -0.2447
 5227SOL    HW220907   2.900   0.968   2.032  0.6506  0.6887 -1.2215
 5227SOL     MW20908   2.940   0.899   2.068  0.1931  0.9055 -0.2801
 5228SOL     OW20909   2.240   2.595   2.819  0.2008 -0.1291  0.3943
 5228SOL    HW120910   2.265   2.669   2.875 -0.0852 -0.4529  0.9660
 5228SOL    HW220911   2.245   2.519   2.878 -0.8956 -0.3651  0.1951
 5228SOL     MW20912   2.244   2.594   2.835  0.0147 -0.2044  0.4444
 5229SOL     OW20913   5.322   3.338   4.890 -0.5256  0.2522  0.0638
 5229SOL    HW120914   5.296   3.250   4.917 -0.6179  0.9112  2.3540
 5229SOL    HW220915   5.259   3.396   4.933  1.2695  1.5819  1.0242
 5229SOL     MW20916   5.310   3.334   4.899 -0.2964  0.5199  0.5013
 5230SOL     OW20917   3.398   0.697   3.508  0.3245  0.1805  0.1457
 5230SOL    HW120918   3.367   0.785   3.529 -1.4440 -0.7543  1.8965
 5230SOL    HW220919   3.409   0.655   3.593 -0.1369 -1.6769 -0.6651
 5230SOL     MW20920   3.395   0.703   3.522  0.0244 -0.1952  0.2722
 5231SOL     OW20921   4.453   4.840   2.146  0.7187 -0.1460  0.1093
 5231SOL    HW120922   4.377   4.856   2.088  1.1693  0.8316 -0.2369
 5231SOL    HW220923   4.525   4.821   2.086  0.8080 -0.8582  0.4314
 5231SOL     MW20924   4.452   4.840   2.130  0.7914 -0.1103  0.1060
 5232SOL     OW20925   5.352   1.469   1.893  0.5624 -0.2265  0.1165
 5232SOL    HW120926   5.354   1.536   1.824 -0.2969 -1.8943 -1.6033
 5232SOL    HW220927   5.259   1.449   1.904  0.8627 -1.7775 -0.0422
 5232SOL     MW20928   5.340   1.476   1.885  0.4871 -0.6597 -0.1364
 5233SOL     OW20929   0.960   5.275   4.779 -0.1820 -0.4589 -0.0195
 5233SOL    HW120930   1.019   5.321   4.720 -1.1799  0.5570 -0.2653
 5233SOL    HW220931   0.880   5.261   4.728 -1.2597  0.9060  1.1977
 5233SOL     MW20932   0.957   5.279   4.764 -0.4613 -0.1385  0.1113
 5234SOL     OW20933   2.213   1.245   0.773  0.0540 -0.0088  0.5243
 5234SOL    HW120934   2.295   1.214   0.812  0.8645  0.1800 -0.9383
 5234SOL    HW220935   2.151   1.174   0.789  1.2007 -1.3132 -0.5413
 5234SOL     MW20936   2.216   1.231   0.780  0.3174 -0.1590  0.1840
 5235SOL     OW20937   0.400   1.202   2.668 -0.2215  0.5489 -0.1337
 5235SOL    HW120938   0.355   1.163   2.593 -1.0479  0.2724  0.4932
 5235SOL    HW220939   0.493   1.191   2.648 -0.4324 -0.4877 -0.6185
 5235SOL     MW20940   0.407   1.195   2.655 -0.3611  0.3722 -0.1146
 5236SOL     OW20941   5.430   0.581   5.447 -0.1857 -0.0410 -0.0650
 5236SOL    HW120942   5.347   0.605   5.406  0.3790  0.8864 -0.6997
 5236SOL    HW220943   5.445   0.650   5.512  0.4660  0.2402 -0.5044
 5236SOL     MW20944   5.421   0.594   5.450 -0.0220  0.1216 -0.2095
 5237SOL     OW20945   5.298   5.045   0.834  0.0100  0.2277 -0.1290
 5237SOL    HW120946   5.347   5.122   0.804  0.8398 -0.4741 -0.6395
 5237SOL    HW220947   5.362   4.974   0.832 -0.9311 -0.6364 -0.3923
 5237SOL     MW20948   5.313   5.046   0.830 -0.0050  0.0170 -0.2332
 5238SOL     OW20949   1.139   2.990   0.308  0.5268 -0.1342  0.3397
 5238SOL    HW120950   1.116   3.055   0.374 -0.1176 -0.7490  0.7285
 5238SOL    HW220951   1.162   3.042   0.230  0.9869  0.5759  0.9397
 5238SOL     MW20952   1.139   3.006   0.306  0.5020 -0.1214  0.4728
 5239SOL     OW20953   2.028   4.070   2.373 -0.1765 -0.4621  0.4911
 5239SOL    HW120954   2.069   4.005   2.431  0.7089 -1.4764 -1.1971
 5239SOL    HW220955   2.037   4.033   2.286 -0.8929  1.3268 -0.3854
 5239SOL     MW20956   2.035   4.056   2.369 -0.1537 -0.3579  0.1459
 5240SOL     OW20957   2.413   0.350   4.748 -0.6845  0.3292 -0.3128
 5240SOL    HW120958   2.485   0.411   4.762  0.9751 -1.8214  1.1745
 5240SOL    HW220959   2.412   0.336   4.653 -1.1039  2.5639 -0.6843
 5240SOL     MW20960   2.423   0.356   4.737 -0.5176  0.3405 -0.1626
 5241SOL     OW20961   0.915   1.094   0.033 -0.5248  0.4751 -0.0938
 5241SOL    HW120962   0.927   1.052  -0.052 -1.2471  1.2981 -0.6210
 5241SOL    HW220963   0.858   1.169   0.015  1.1208  1.9971  0.7203
 5241SOL     MW20964   0.909   1.099   0.019 -0.4006  0.7907 -0.0552
 5242SOL     OW20965   1.535   0.650   3.167  0.1851  0.0823 -0.2952
 5242SOL    HW120966   1.504   0.657   3.257  1.0929 -0.9090  0.1110
 5242SOL    HW220967   1.549   0.741   3.140  2.4163  0.3524  1.4849
 5242SOL     MW20968   1.533   0.663   3.175  0.6075 -0.0148 -0.0010
 5243SOL     OW20969   0.605   3.499   0.723 -0.4327 -0.1186  0.1130
 5243SOL    HW120970   0.657   3.472   0.647  0.1444 -0.4324  0.6104
 5243SOL    HW220971   0.668   3.500   0.795 -1.6834 -3.6340  1.4423
 5243SOL     MW20972   0.621   3.496   0.722 -0.5233 -0.6339  0.3588
 5244SOL     OW20973   2.277   5.266   4.645 -0.0990  0.4731  0.3252
 5244SOL    HW120974   2.272   5.252   4.550  0.0732  1.5253  0.1552
 5244SOL    HW220975   2.336   5.197   4.676  1.0229  1.0119 -0.5415
 5244SOL     MW20976   2.284   5.255   4.636  0.0752  0.6872  0.1857
 5245SOL     OW20977   2.289   5.087   1.225 -0.3385 -0.0071  0.3393
 5245SOL    HW120978   2.298   5.083   1.320  0.1199 -0.7682  0.2727
 5245SOL    HW220979   2.288   5.180   1.204  2.4696  0.2003  0.8405
 5245SOL     MW20980   2.290   5.099   1.235  0.1011 -0.0816  0.3978
 5246SOL     OW20981   2.904   1.131   4.534  0.4112  0.4162  0.7295
 5246SOL    HW120982   2.860   1.200   4.584 -0.2773 -0.8544  1.9438
 5246SOL    HW220983   2.997   1.144   4.553  0.3707  1.5454  0.2179
 5246SOL     MW20984   2.911   1.142   4.543  0.3131  0.3972  0.8241
 5247SOL     OW20985   3.514   4.492   1.185 -0.4699  0.6558 -0.1090
 5247SOL    HW120986   3.546   4.425   1.125  0.1492  1.5933 -0.8614
 5247SOL    HW220987   3.430   4.458   1.218  0.7985 -1.3988  1.1611
 5247SOL     MW20988   3.507   4.479   1.181 -0.2159  0.5055 -0.0393
 5248SOL     OW20989   0.941   1.721   1.007  0.2340 -0.0647 -0.1282
 5248SOL    HW120990   1.035   1.709   1.011  0.3266  0.5484 -0.3337
 5248SOL    HW220991   0.928   1.815   1.021 -0.1778  0.2546 -2.2651
 5248SOL     MW20992   0.952   1.732   1.010  0.1910  0.0608 -0.4435
 5249SOL     OW20993   2.189   2.891   1.414  0.0154 -0.1609 -0.4379
 5249SOL    HW120994   2.245   2.814   1.407 -1.6470 -1.5019  0.4223
 5249SOL    HW220995   2.167   2.913   1.323  0.3974 -0.7881 -0.6827
 5249SOL     MW20996   2.193   2.884   1.400 -0.1569 -0.4258 -0.3551
 5250SOL     OW20997   0.468   4.003   1.728 -0.3234 -0.2999  0.2743
 5250SOL    HW120998   0.411   3.931   1.756 -1.2666  0.8156  1.3225
 5250SOL    HW220999   0.409   4.079   1.722  1.4280  1.6696  4.3938
 5250SOL     MW21000   0.452   4.004   1.731 -0.2146  0.1153  0.9698
 5251SOL     OW21001   4.664   2.043   2.830 -0.3279 -0.0026  0.6818
 5251SOL    HW121002   4.717   2.032   2.751 -0.1241 -1.4929  1.0028
 5251SOL    HW221003   4.716   2.102   2.885 -1.1032  2.1953 -0.8102
 5251SOL     MW21004   4.678   2.049   2.826 -0.4048  0.0926  0.5242
 5252SOL     OW21005   3.389   2.200   2.221  0.2038  0.0942 -0.1876
 5252SOL    HW121006   3.397   2.145   2.143  0.1232 -0.2426  0.0400
 5252SOL    HW221007   3.439   2.279   2.200 -1.6059  0.9850 -1.4532
 5252SOL     MW21008   3.396   2.203   2.208 -0.0506  0.1688 -0.3273
 5253SOL     OW21009   0.954   4.413   1.923 -0.0408  0.0077 -0.7091
 5253SOL    HW121010   1.045   4.441   1.929 -0.1963  0.9202 -2.3266
 5253SOL    HW221011   0.959   4.320   1.901  0.4681 -0.3771  0.8924
 5253SOL     MW21012   0.967   4.404   1.921  0.0068  0.0787 -0.7112
 5254SOL     OW21013   1.365   4.239   3.245  0.3702  0.4801  0.2379
 5254SOL    HW121014   1.434   4.196   3.296  1.1391 -0.2748 -1.3574
 5254SOL    HW221015   1.286   4.188   3.263  0.4672  0.6599  1.2098
 5254SOL     MW21016   1.364   4.226   3.254  0.4868  0.4027  0.1540
 5255SOL     OW21017   4.757   1.687   1.501 -0.0871 -0.1813  0.4570
 5255SOL    HW121018   4.760   1.712   1.409  0.8297 -0.1407  0.4938
 5255SOL    HW221019   4.663   1.676   1.519 -0.2813 -0.1369 -0.4563
 5255SOL     MW21020   4.745   1.689   1.491  0.0101 -0.1698  0.3391
 5256SOL     OW21021   0.569   4.547   0.591  0.4337  0.3704  0.2984
 5256SOL    HW121022   0.611   4.632   0.593  3.5546 -1.0612  0.6333
 5256SOL    HW221023   0.561   4.526   0.498  0.4280  0.6680  0.2319
 5256SOL     MW21024   0.573   4.556   0.579  0.8529  0.2178  0.3345
 5257SOL     OW21025   3.950   4.955   3.717 -0.3428 -0.2424 -0.0663
 5257SOL    HW121026   4.017   4.939   3.783 -0.6027  1.8652  0.7561
 5257SOL    HW221027   3.874   4.985   3.766 -0.9345  0.2092 -1.2173
 5257SOL     MW21028   3.949   4.957   3.732 -0.4574  0.1020 -0.1105
 5258SOL     OW21029   3.313   2.753   3.334 -0.0916 -1.0893  0.4956
 5258SOL    HW121030   3.293   2.688   3.401 -0.4645 -0.9229  0.5506
 5258SOL    HW221031   3.228   2.775   3.296  0.0731 -0.9006  0.2299
 5258SOL     MW21032   3.299   2.747   3.337 -0.1196 -1.0415  0.4672
 5259SOL     OW21033   2.740   0.080   2.663  0.0969 -0.2904 -0.1308
 5259SOL    HW121034   2.732   0.002   2.608 -1.8715 -0.0335 -0.2679
 5259SOL    HW221035   2.655   0.088   2.707  0.2160  1.7914 -0.1514
 5259SOL     MW21036   2.727   0.071   2.662 -0.1519  0.0244 -0.1520
 5260SOL     OW21037   4.023   3.191   0.337  0.0010 -0.1240 -0.2897
 5260SOL    HW121038   4.112   3.210   0.364 -0.1896  1.1243 -0.4976
 5260SOL    HW221039   4.014   3.233   0.252 -0.4020 -1.3119 -0.8568
 5260SOL     MW21040   4.034   3.199   0.329 -0.0789 -0.1159 -0.3940
 5261SOL     OW21041   0.205   5.520   4.827  0.1288 -0.1683  0.4297
 5261SOL    HW121042   0.297   5.499   4.842  0.3996  0.7503  0.1320
 5261SOL    HW221043   0.167   5.528   4.915  0.4210 -0.1680  0.5554
 5261SOL     MW21044   0.212   5.518   4.841  0.2046 -0.0446  0.4065
 5262SOL     OW21045   2.011   0.392   0.494 -0.0047  0.6256  0.0562
 5262SOL    HW121046   2.045   0.455   0.430  1.2913 -0.2192 -0.1122
 5262SOL    HW221047   2.046   0.422   0.578 -1.7254  1.7489  0.4382
 5262SOL     MW21048   2.020   0.404   0.496 -0.0619  0.6631  0.0849
 5263SOL     OW21049   4.079   3.321   2.197  0.0718 -0.0226 -0.4198
 5263SOL    HW121050   4.131   3.297   2.274 -0.4665 -0.8373 -0.2900
 5263SOL    HW221051   3.991   3.336   2.231 -0.0710  0.0500 -0.8160
 5263SOL     MW21052   4.074   3.320   2.212 -0.0199 -0.1225 -0.4557
 5264SOL     OW21053   1.635   2.900   0.197  0.4095  0.4109  0.5057
 5264SOL    HW121054   1.561   2.946   0.238 -0.1403  0.5732 -0.6350
 5264SOL    HW221055   1.702   2.967   0.185  0.0082  0.6907 -0.1972
 5264SOL     MW21056   1.634   2.915   0.201  0.2815  0.4704  0.2576
 5265SOL     OW21057   2.971   3.703   3.412 -0.1739  0.4707 -0.3266
 5265SOL    HW121058   3.021   3.623   3.424  2.2794  1.5436 -2.4847
 5265SOL    HW221059   2.996   3.759   3.485 -1.0422 -0.2636  0.5641
 5265SOL     MW21060   2.981   3.700   3.423  0.0394  0.5163 -0.4971
 5266SOL     OW21061   3.136   3.795   4.923  0.0911 -0.0893 -0.6692
 5266SOL    HW121062   3.148   3.746   5.004  0.2350  0.2406 -0.4889
 5266SOL    HW221063   3.047   3.829   4.929 -0.4702 -1.3566 -1.3637
 5266SOL     MW21064   3.126   3.793   4.934  0.0349 -0.2155 -0.7384
 5267SOL     OW21065   2.923   1.516   1.238  0.2587  0.4602 -0.1774
 5267SOL    HW121066   2.863   1.563   1.181 -1.6227  1.0141  2.0756
 5267SOL    HW221067   2.966   1.584   1.289 -2.4350  0.0177  3.0741
 5267SOL     MW21068   2.921   1.531   1.237 -0.3570  0.4752  0.5634
 5268SOL     OW21069   1.174   5.203   2.759 -0.7125 -0.1304 -0.4091
 5268SOL    HW121070   1.082   5.210   2.731 -0.7801 -2.1746 -0.8508
 5268SOL    HW221071   1.210   5.134   2.704  1.6906  1.9431 -1.6225
 5268SOL     MW21072   1.166   5.195   2.748 -0.3982 -0.1265 -0.6318
 5269SOL     OW21073   4.836   4.708   2.480  0.0150 -0.0520 -0.6422
 5269SOL    HW121074   4.827   4.682   2.389  0.3404 -0.4411 -0.5645
 5269SOL    HW221075   4.892   4.641   2.519  1.2282  0.9629 -0.5383
 5269SOL     MW21076   4.843   4.696   2.473  0.2221  0.0322 -0.6177
 5270SOL     OW21077   5.358   1.726   3.662  0.1325 -0.2626  0.7244
 5270SOL    HW121078   5.336   1.817   3.642 -0.4964 -0.5553  0.0715
 5270SOL    HW221079   5.283   1.694   3.712  0.0136 -0.6453  0.2992
 5270SOL     MW21080   5.345   1.734   3.666  0.0319 -0.3535  0.5793
 5271SOL     OW21081   4.894   5.509   4.763  0.4700 -0.2364 -0.0079
 5271SOL    HW121082   4.846   5.430   4.740  0.2167 -0.4094  1.0586
 5271SOL    HW221083   4.978   5.477   4.795  1.2476  0.0544 -1.6687
 5271SOL     MW21084   4.899   5.494   4.764  0.5405 -0.2205 -0.0879
 5272SOL     OW21085   0.583   0.567   2.500  0.2573 -0.0162  0.2789
 5272SOL    HW121086   0.573   0.619   2.420  1.3668  0.7597  0.6083
 5272SOL    HW221087   0.678   0.568   2.517  0.1984 -1.3881  0.8145
 5272SOL     MW21088   0.595   0.574   2.491  0.3987 -0.0964  0.3953
 5273SOL     OW21089   3.406   4.151   3.728  0.1657  0.1931  0.3641
 5273SOL    HW121090   3.389   4.177   3.638  0.9023  1.0977  0.4673
 5273SOL    HW221091   3.418   4.234   3.775  1.8767 -0.2844  0.8577
 5273SOL     MW21092   3.406   4.166   3.723  0.4951  0.2506  0.4444
 5274SOL     OW21093   4.683   4.499   2.746 -0.2046 -0.0473 -0.3339
 5274SOL    HW121094   4.776   4.495   2.768 -0.1782 -2.3399 -0.5567
 5274SOL    HW221095   4.638   4.498   2.830 -0.0134 -0.5333 -0.2299
 5274SOL     MW21096   4.689   4.498   2.760 -0.1753 -0.4213 -0.3499
 5275SOL     OW21097   4.803   5.355   0.401 -0.4510  0.3416  0.0874
 5275SOL    HW121098   4.712   5.384   0.406 -0.5954 -0.2697  2.1708
 5275SOL    HW221099   4.842   5.388   0.482  0.9721 -0.0589 -0.4190
 5275SOL     MW21100   4.796   5.363   0.413 -0.2789  0.2054  0.2996
 5276SOL     OW21101   3.234   3.745   0.568  0.2001  0.5495  0.2715
 5276SOL    HW121102   3.286   3.716   0.643 -0.1290  0.7665  0.5861
 5276SOL    HW221103   3.225   3.840   0.580 -1.8350  0.3094  1.2570
 5276SOL     MW21104   3.240   3.754   0.580 -0.1181  0.5464  0.4464
 5277SOL     OW21105   1.650   1.467   3.606  0.4837  0.7074 -0.1970
 5277SOL    HW121106   1.671   1.383   3.564 -0.3726 -0.8162  2.2375
 5277SOL    HW221107   1.671   1.454   3.698  0.1699  3.1614  0.2916
 5277SOL     MW21108   1.656   1.454   3.613  0.3262  0.8326  0.1964
 5278SOL     OW21109   5.097   4.515   0.035  0.3463  0.5566 -0.8453
 5278SOL    HW121110   5.048   4.449   0.084 -0.1470  1.2854 -0.3337
 5278SOL    HW221111   5.138   4.570   0.103 -0.2516  1.5138 -1.2308
 5278SOL     MW21112   5.096   4.514   0.051  0.1995  0.7835 -0.8283
 5279SOL     OW21113   2.900   1.139   0.770  0.4686 -0.2140  0.0456
 5279SOL    HW121114   2.907   1.189   0.688 -0.9549 -1.5697 -0.9639
 5279SOL    HW221115   2.955   1.187   0.832  0.4047  1.7089 -1.2884
 5279SOL     MW21116   2.908   1.152   0.767  0.2684 -0.1377 -0.2698
 5280SOL     OW21117   2.242   0.972   0.359  0.0482  0.2838 -0.6141
 5280SOL    HW121118   2.267   1.027   0.433 -2.4508  1.8005 -0.8120
 5280SOL    HW221119   2.165   0.924   0.389 -0.6743  0.4970 -2.0426
 5280SOL     MW21120   2.235   0.973   0.373 -0.3853  0.5166 -0.8330
 5281SOL     OW21121   0.626   3.517   2.656 -0.0455  0.0976 -0.1770
 5281SOL    HW121122   0.707   3.534   2.704  0.3141 -0.3092 -0.6324
 5281SOL    HW221123   0.583   3.448   2.705 -1.3720  1.9862  1.5182
 5281SOL     MW21124   0.631   3.510   2.669 -0.1756  0.2970 -0.0101
 5282SOL     OW21125   0.546   2.213   1.774  0.2595  0.2826  0.2461
 5282SOL    HW121126   0.517   2.146   1.712  2.2502 -0.1574 -0.3067
 5282SOL    HW221127   0.467   2.262   1.796 -0.8691 -0.8915 -1.0068
 5282SOL     MW21128   0.532   2.210   1.768  0.3755  0.0654  0.0031
 5283SOL     OW21129   0.115   1.734   4.941 -0.2831  0.3649  0.2548
 5283SOL    HW121130   0.103   1.713   5.034 -1.8480 -1.0509 -0.1953
 5283SOL    HW221131   0.206   1.759   4.934 -0.1674  0.7021  2.2133
 5283SOL     MW21132   0.125   1.734   4.953 -0.4781  0.2197  0.4578
 5284SOL     OW21133   2.798   3.904   0.550 -0.3597 -0.6138  0.1936
 5284SOL    HW121134   2.735   3.887   0.479 -0.0019 -0.2653 -0.2141
 5284SOL    HW221135   2.744   3.905   0.629 -0.8660 -0.3987 -0.1420
 5284SOL     MW21136   2.782   3.902   0.551 -0.3797 -0.5380  0.0936
 5285SOL     OW21137   4.490   2.045   1.110 -0.6243  0.0201 -0.3679
 5285SOL    HW121138   4.545   1.971   1.085 -0.9288  0.0781 -1.2131
 5285SOL    HW221139   4.493   2.045   1.206  1.3300  0.3860 -0.3808
 5285SOL     MW21140   4.498   2.035   1.120 -0.4023  0.0772 -0.4834
 5286SOL     OW21141   0.621   4.212   2.153  0.0939 -0.4425 -0.1142
 5286SOL    HW121142   0.647   4.182   2.066  2.7104 -2.7929  1.2821
 5286SOL    HW221143   0.530   4.183   2.163  0.0084 -0.8317 -1.7668
 5286SOL     MW21144   0.612   4.204   2.143  0.4345 -0.8112 -0.1487
 5287SOL     OW21145   2.698   0.898   4.342 -0.7052  0.1700 -0.1999
 5287SOL    HW121146   2.666   0.989   4.335  2.0540  1.1950 -0.8938
 5287SOL    HW221147   2.775   0.896   4.285 -0.1859 -2.4101  0.4816
 5287SOL     MW21148   2.704   0.910   4.333 -0.2640 -0.0393 -0.2016
 5288SOL     OW21149   4.116   4.616   3.494 -0.2803 -0.0393  0.3063
 5288SOL    HW121150   4.174   4.691   3.510  0.4285 -0.2646 -1.0597
 5288SOL    HW221151   4.150   4.548   3.552 -0.0355  0.2504  0.5120
 5288SOL     MW21152   4.129   4.617   3.504 -0.1520 -0.0306  0.1501
 5289SOL     OW21153   2.822   5.133   5.365  0.1908 -0.8575 -0.1564
 5289SOL    HW121154   2.791   5.123   5.275 -0.5498 -2.8808  0.2739
 5289SOL    HW221155   2.832   5.043   5.397  1.1558 -0.1831  1.5475
 5289SOL     MW21156   2.819   5.120   5.357  0.2210 -1.0390  0.1308
 5290SOL     OW21157   0.244   1.764   3.181 -0.1607 -0.4285 -0.4678
 5290SOL    HW121158   0.199   1.742   3.099  1.6534 -1.2888 -1.2861
 5290SOL    HW221159   0.192   1.721   3.249 -2.6170  1.5991 -0.9075
 5290SOL     MW21160   0.231   1.755   3.179 -0.2472 -0.2714 -0.6371
 5291SOL     OW21161   1.282   4.550   1.064  0.2520 -0.5799 -0.0111
 5291SOL    HW121162   1.259   4.614   0.997  1.2692  0.2237  0.3703
 5291SOL    HW221163   1.347   4.595   1.119  0.5019 -1.7091  0.6589
 5291SOL     MW21164   1.288   4.564   1.062  0.4225 -0.6237  0.1304
 5292SOL     OW21165   1.119   2.957   2.226 -0.8042 -0.2476 -0.1435
 5292SOL    HW121166   1.130   2.862   2.223 -0.1833 -0.2453  1.2907
 5292SOL    HW221167   1.157   2.987   2.143  2.8415 -0.9637  1.0818
 5292SOL     MW21168   1.126   2.948   2.214 -0.2300 -0.3436  0.2144
 5293SOL     OW21169   0.959   4.817   1.257 -0.0765 -0.6609 -0.5541
 5293SOL    HW121170   0.875   4.784   1.288  0.4262 -0.2731  1.4039
 5293SOL    HW221171   0.937   4.878   1.186 -1.3965 -0.9700 -0.4271
 5293SOL     MW21172   0.945   4.821   1.252 -0.1865 -0.6503 -0.2735
 5294SOL     OW21173   4.683   3.090   2.849  0.2186  0.0716 -0.4823
 5294SOL    HW121174   4.717   3.004   2.873 -0.4386 -0.1895 -0.4496
 5294SOL    HW221175   4.688   3.093   2.753  1.7551  0.6508 -0.3995
 5294SOL     MW21176   4.688   3.079   2.839  0.3369  0.1144 -0.4668
 5295SOL     OW21177   3.023   1.858   0.218  0.1597  0.7082  0.0519
 5295SOL    HW121178   3.059   1.787   0.166 -0.2596  1.4052 -1.2229
 5295SOL    HW221179   3.091   1.876   0.283  1.3011  0.7403 -1.1065
 5295SOL     MW21180   3.037   1.851   0.220  0.2569  0.8063 -0.2756
 5296SOL     OW21181   1.638   5.096   5.145 -0.1576 -0.3202  0.4428
 5296SOL    HW121182   1.601   5.080   5.232 -2.4223 -0.8848 -0.5518
 5296SOL    HW221183   1.662   5.188   5.146 -0.1835 -0.3039  1.6566
 5296SOL     MW21184   1.636   5.106   5.157 -0.4659 -0.3940  0.4723
 5297SOL     OW21185   2.158   3.220   4.564 -0.4313 -0.1995  0.3461
 5297SOL    HW121186   2.165   3.235   4.469 -0.7863 -0.5282  0.2624
 5297SOL    HW221187   2.064   3.207   4.578 -0.1825 -2.0851  0.4428
 5297SOL     MW21188   2.146   3.221   4.553 -0.4456 -0.4975  0.3478
 5298SOL     OW21189   1.546   2.868   3.514 -0.0864 -0.1738  0.1183
 5298SOL    HW121190   1.473   2.921   3.546  0.3251 -0.2576  1.2488
 5298SOL    HW221191   1.622   2.927   3.517  0.2297 -0.5941  0.6793
 5298SOL     MW21192   1.547   2.883   3.518  0.0115 -0.2416  0.3460
 5299SOL     OW21193   3.746   4.216   1.335  0.8520  0.1583 -0.8781
 5299SOL    HW121194   3.678   4.174   1.282  0.0186  1.1314 -0.6357
 5299SOL    HW221195   3.795   4.144   1.374 -1.0557 -0.6455  0.2281
 5299SOL     MW21196   3.743   4.201   1.333  0.4831  0.1811 -0.6966
 5300SOL     OW21197   4.524   0.160   5.401  0.0441 -0.0612  0.1745
 5300SOL    HW121198   4.455   0.095   5.413 -0.6090  0.4433 -0.7020
 5300SOL    HW221199   4.544   0.156   5.307  1.4718 -0.4477  0.4606
 5300SOL     MW21200   4.518   0.151   5.390  0.1483 -0.0453  0.0950
 5301SOL     OW21201   1.409   3.409   2.714 -0.3351 -0.5955 -0.0486
 5301SOL    HW121202   1.378   3.495   2.744 -0.2286 -0.1252 -1.2353
 5301SOL    HW221203   1.503   3.412   2.728 -0.5284 -1.2139  1.5650
 5301SOL     MW21204   1.417   3.421   2.720 -0.3468 -0.6154  0.0088
 5302SOL     OW21205   5.287   1.598   2.589 -0.1649 -0.1192 -0.0225
 5302SOL    HW121206   5.367   1.549   2.607  0.7153  1.6088  1.0881
 5302SOL    HW221207   5.306   1.647   2.509  0.0344  0.5363  0.4164
 5302SOL     MW21208   5.300   1.598   2.581 -0.0197  0.2016  0.1860
 5303SOL     OW21209   1.209   1.563   3.716 -0.2932  0.2623  0.1548
 5303SOL    HW121210   1.213   1.490   3.777  1.2162  0.0882 -0.1196
 5303SOL    HW221211   1.284   1.551   3.659 -0.1752  1.8642 -0.0823
 5303SOL     MW21212   1.219   1.552   3.717 -0.0742  0.4544  0.0860
 5304SOL     OW21213   4.217   2.624   0.703 -0.7455  0.9541 -0.1953
 5304SOL    HW121214   4.123   2.639   0.703 -1.0193 -0.5097  0.7049
 5304SOL    HW221215   4.232   2.565   0.629 -0.4793  1.5215 -0.5918
 5304SOL     MW21216   4.207   2.618   0.693 -0.7466  0.8335 -0.1275
 5305SOL     OW21217   1.854   2.655   1.031 -0.3701 -0.0005  0.3403
 5305SOL    HW121218   1.860   2.578   1.088 -2.5016  0.2068  0.9347
 5305SOL    HW221219   1.945   2.678   1.011  0.3292 -2.0966  0.9110
 5305SOL     MW21220   1.867   2.648   1.036 -0.5629 -0.2547  0.4971
 5306SOL     OW21221   1.907   4.764   5.058 -0.0535 -0.4994  0.6172
 5306SOL    HW121222   1.991   4.718   5.063 -1.1466 -2.7799 -0.3622
 5306SOL    HW221223   1.865   4.747   5.142 -0.5453 -1.5179  0.1761
 5306SOL     MW21224   1.913   4.756   5.070 -0.2668 -0.9434  0.4260
 5307SOL     OW21225   3.671   4.984   2.438 -0.3630  0.1658 -0.2029
 5307SOL    HW121226   3.595   4.981   2.495 -0.8138  1.7931 -0.6788
 5307SOL    HW221227   3.651   4.921   2.368 -0.1404 -1.2659  0.9804
 5307SOL     MW21228   3.658   4.975   2.436 -0.3937  0.1922 -0.1077
 5308SOL     OW21229   3.371   1.924   4.069  0.4181 -0.4189  0.1443
 5308SOL    HW121230   3.313   1.945   4.143 -0.2141 -0.8634 -0.2201
 5308SOL    HW221231   3.363   1.830   4.058  1.3468 -0.5120  0.1889
 5308SOL     MW21232   3.362   1.914   4.078  0.4580 -0.4912  0.1013
 5309SOL     OW21233   0.698   4.660   5.221 -0.6241 -0.1021 -0.5236
 5309SOL    HW121234   0.633   4.634   5.286  0.0793 -0.0212  0.2347
 5309SOL    HW221235   0.675   4.750   5.199 -0.9341 -0.1681 -0.4736
 5309SOL     MW21236   0.686   4.669   5.227 -0.5712 -0.1001 -0.4148
 5310SOL     OW21237   1.618   4.846   2.662  0.3331  0.2214  0.4581
 5310SOL    HW121238   1.549   4.782   2.647  1.0570 -0.2500 -1.0049
 5310SOL    HW221239   1.674   4.806   2.728 -1.1035  0.8957  2.1753
 5310SOL     MW21240   1.616   4.832   2.669  0.2372  0.2487  0.4923
 5311SOL     OW21241   3.094   2.752   1.561 -0.0436 -0.0062 -0.3121
 5311SOL    HW121242   3.180   2.724   1.593  0.8841  0.1282 -2.4871
 5311SOL    HW221243   3.086   2.842   1.592  0.5163 -0.0853  0.0857
 5311SOL     MW21244   3.105   2.761   1.570  0.1566  0.0013 -0.5513
 5312SOL     OW21245   5.388   0.472   1.502  0.1285 -0.0791  0.3113
 5312SOL    HW121246   5.430   0.547   1.460 -1.5205  1.1381  0.6920
 5312SOL    HW221247   5.295   0.495   1.502 -0.2658 -1.5333  1.6628
 5312SOL     MW21248   5.381   0.485   1.497 -0.1465 -0.1110  0.5444
 5313SOL     OW21249   4.732   2.219   0.976 -0.2119 -0.0429  0.1917
 5313SOL    HW121250   4.676   2.145   0.951  2.5633 -1.6473 -1.9294
 5313SOL    HW221251   4.676   2.296   0.966 -2.0134 -1.4996 -1.9207
 5313SOL     MW21252   4.717   2.219   0.971 -0.0808 -0.4549 -0.3781
 5314SOL     OW21253   1.815   0.248   3.561  0.0278 -0.5084 -0.5269
 5314SOL    HW121254   1.765   0.243   3.480  0.3063 -1.4150 -0.6487
 5314SOL    HW221255   1.907   0.248   3.533  0.1172 -0.1252 -0.2429
 5314SOL     MW21256   1.821   0.248   3.546  0.0773 -0.5789 -0.5051
 5315SOL     OW21257   2.806   3.670   2.572  0.0114 -0.1299  0.2527
 5315SOL    HW121258   2.825   3.697   2.482  0.7521 -0.1950  0.3890
 5315SOL    HW221259   2.721   3.626   2.566 -1.2786  2.1886  0.0151
 5315SOL     MW21260   2.797   3.668   2.559 -0.0625  0.1733  0.2391
 5316SOL     OW21261   1.298   0.357   3.752  0.0999  0.1776  0.1239
 5316SOL    HW121262   1.230   0.425   3.747  0.6073  0.6398 -0.6594
 5316SOL    HW221263   1.265   0.296   3.818 -1.7390 -0.3318 -1.1534
 5316SOL     MW21264   1.284   0.358   3.760 -0.0793  0.1713 -0.1534
 5317SOL     OW21265   2.773   1.842   4.103 -0.6668 -0.1261 -0.2925
 5317SOL    HW121266   2.726   1.914   4.060 -0.0116  1.2970  1.2579
 5317SOL    HW221267   2.709   1.805   4.164  0.0725  1.7563  1.7562
 5317SOL     MW21268   2.758   1.847   4.105 -0.4791  0.3188  0.1919
 5318SOL     OW21269   4.557   2.520   2.767 -0.2657  0.2550  0.1879
 5318SOL    HW121270   4.593   2.506   2.680  1.2472  0.9392  0.6624
 5318SOL    HW221271   4.464   2.499   2.759  0.2464 -1.8113 -1.0478
 5318SOL     MW21272   4.549   2.515   2.754  0.0068  0.0690  0.0854
 5319SOL     OW21273   4.865   1.393   3.056  0.2653 -0.1649 -0.1972
 5319SOL    HW121274   4.787   1.434   3.018  0.8640 -0.3221 -1.6881
 5319SOL    HW221275   4.856   1.406   3.150 -1.0704  0.6827 -0.4141
 5319SOL     MW21276   4.854   1.400   3.063  0.1661 -0.0720 -0.4270
 5320SOL     OW21277   5.510   4.353   4.604  0.0975 -0.0361  0.5653
 5320SOL    HW121278   5.593   4.352   4.652  0.3980 -0.4489  0.0432
 5320SOL    HW221279   5.444   4.362   4.672  0.5412 -0.2630  1.0346
 5320SOL     MW21280   5.512   4.354   4.620  0.1977 -0.1222  0.5582
 5321SOL     OW21281   2.835   2.746   3.657  0.0402  0.4473 -0.3815
 5321SOL    HW121282   2.885   2.808   3.604  0.9934  0.0780  0.0691
 5321SOL    HW221283   2.897   2.715   3.723 -0.3949 -1.0270 -0.6338
 5321SOL     MW21284   2.850   2.750   3.659  0.1099  0.1992 -0.3548
 5322SOL     OW21285   0.203   0.503   3.865  0.5818 -0.1357  0.0372
 5322SOL    HW121286   0.163   0.460   3.942  0.2307 -0.3503 -0.2583
 5322SOL    HW221287   0.297   0.494   3.879  0.5170 -0.7784  0.1168
 5322SOL     MW21288   0.210   0.496   3.877  0.5258 -0.2511  0.0082
 5323SOL     OW21289   4.485   3.478   2.866 -0.1152  0.1188 -0.4290
 5323SOL    HW121290   4.511   3.556   2.916 -0.4357  0.0233 -0.1066
 5323SOL    HW221291   4.447   3.514   2.785 -0.0787  0.2914 -0.3714
 5323SOL     MW21292   4.483   3.494   2.862 -0.1534  0.1292 -0.3778
 5324SOL     OW21293   1.465   0.607   4.706 -0.3718  0.4908  0.0435
 5324SOL    HW121294   1.506   0.572   4.627  1.2322  0.7504  0.7237
 5324SOL    HW221295   1.495   0.549   4.776 -0.2817  1.3352  0.7144
 5324SOL     MW21296   1.475   0.595   4.705 -0.1438  0.6394  0.2253
 5325SOL     OW21297   3.691   1.995   3.247  0.1498  0.8223 -0.1245
 5325SOL    HW121298   3.625   2.002   3.316 -0.4109 -1.1134 -0.3983
 5325SOL    HW221299   3.773   1.978   3.294  0.5069  3.0495  0.2054
 5325SOL     MW21300   3.693   1.994   3.263  0.1224  0.8616 -0.1169
 5326SOL     OW21301   5.490   3.301   2.210  0.3388  0.0581 -0.5465
 5326SOL    HW121302   5.501   3.395   2.225 -1.2274  0.0223  1.1117
 5326SOL    HW221303   5.573   3.263   2.239  0.9620  0.8895 -1.1697
 5326SOL     MW21304   5.503   3.308   2.216  0.2119  0.1652 -0.4072
 5327SOL     OW21305   4.273   1.487   1.828 -0.4910  0.0201  0.2100
 5327SOL    HW121306   4.227   1.403   1.829 -1.5847  0.6073  1.2373
 5327SOL    HW221307   4.311   1.491   1.741 -2.9689 -0.2060 -0.9865
 5327SOL     MW21308   4.272   1.476   1.816 -0.9717  0.0687  0.1872
 5328SOL     OW21309   5.404   3.304   1.626 -0.2931  0.0055  0.1931
 5328SOL    HW121310   5.485   3.348   1.602 -1.0714  0.6168 -1.5167
 5328SOL    HW221311   5.355   3.297   1.544 -1.1324 -2.1449  0.7813
 5328SOL     MW21312   5.408   3.309   1.612 -0.5108 -0.2016  0.0422
 5329SOL     OW21313   2.829   4.368   3.544  0.0707  0.5100  0.2409
 5329SOL    HW121314   2.872   4.348   3.628  0.9484  1.1864 -0.0356
 5329SOL    HW221315   2.754   4.308   3.541 -0.1219  0.6506  1.6190
 5329SOL     MW21316   2.825   4.357   3.555  0.1629  0.6200  0.3892
 5330SOL     OW21317   4.227   5.442   3.971  0.1693  0.1418  0.4748
 5330SOL    HW121318   4.164   5.369   3.971  0.6232 -0.2570 -0.1447
 5330SOL    HW221319   4.220   5.479   4.059 -1.9785  1.0157  0.0184
 5330SOL     MW21320   4.217   5.437   3.983 -0.0587  0.2058  0.3300
 5331SOL     OW21321   0.670   2.471   0.339  0.9019 -0.0213 -0.6921
 5331SOL    HW121322   0.620   2.477   0.257  0.4476  1.1812 -0.3378
 5331SOL    HW221323   0.744   2.530   0.327  0.8426  0.1471 -0.2361
 5331SOL     MW21324   0.673   2.480   0.326  0.8328  0.1632 -0.5830
 5332SOL     OW21325   1.400   3.017   0.653  0.0271 -0.2507 -0.3564
 5332SOL    HW121326   1.416   2.924   0.670  0.2118 -0.4301 -1.4441
 5332SOL    HW221327   1.307   3.030   0.674  0.4256 -0.2426  1.5680
 5332SOL     MW21328   1.390   3.006   0.658  0.1056 -0.2738 -0.2438
 5333SOL     OW21329   3.435   5.028   4.345  0.7030 -0.1167  1.0742
 5333SOL    HW121330   3.438   5.072   4.260  1.5972  1.0173  1.6451
 5333SOL    HW221331   3.440   4.935   4.325  0.4803  0.1152 -0.1254
 5333SOL     MW21332   3.436   5.022   4.331  0.7933  0.0671  0.9896
 5334SOL     OW21333   5.472   3.107   3.616 -0.1270 -0.5457 -0.6149
 5334SOL    HW121334   5.499   3.024   3.657  0.7505  0.0707  0.0756
 5334SOL    HW221335   5.502   3.100   3.526 -0.4970 -1.1764 -0.7021
 5334SOL     MW21336   5.479   3.095   3.610 -0.0587 -0.5476 -0.5337
 5335SOL     OW21337   3.357   4.514   2.627 -0.0901 -0.4789 -0.0983
 5335SOL    HW121338   3.444   4.487   2.656  0.0114  0.0670  0.1145
 5335SOL    HW221339   3.310   4.431   2.613  0.1616 -0.7662  0.6874
 5335SOL     MW21340   3.362   4.499   2.629 -0.0426 -0.4441  0.0361
 5336SOL     OW21341   4.500   1.208   0.939 -0.3323 -0.2884  0.1648
 5336SOL    HW121342   4.427   1.169   0.987 -0.6321  0.5925  0.4498
 5336SOL    HW221343   4.461   1.280   0.890  0.0882 -0.7761 -0.9052
 5336SOL     MW21344   4.485   1.212   0.939 -0.3160 -0.2355  0.0591
 5337SOL     OW21345   1.251   5.078   0.203  0.0378  0.3305  0.0855
 5337SOL    HW121346   1.281   5.134   0.274 -0.5605  0.7775 -0.0046
 5337SOL    HW221347   1.254   4.990   0.239  1.0589  0.3965  0.2082
 5337SOL     MW21348   1.256   5.074   0.217  0.0947  0.3995  0.0899
 5338SOL     OW21349   1.267   0.111   0.930  0.7769  0.3955  0.2962
 5338SOL    HW121350   1.211   0.187   0.918 -0.0034 -0.1177  0.6542
 5338SOL    HW221351   1.295   0.088   0.841 -1.0470 -0.4179 -0.1273
 5338SOL     MW21352   1.263   0.118   0.916  0.4264  0.2170  0.2874
 5339SOL     OW21353   3.019   4.401   1.498  0.3262 -0.4479 -0.4639
 5339SOL    HW121354   2.949   4.467   1.495 -0.2981 -1.1012 -0.5649
 5339SOL    HW221355   3.028   4.372   1.407 -0.6365 -1.7497 -0.1741
 5339SOL     MW21356   3.011   4.406   1.485  0.1126 -0.7110 -0.4385
 5340SOL     OW21357   1.384   2.888   2.378 -0.3134  0.1716 -0.1348
 5340SOL    HW121358   1.305   2.913   2.331 -0.9544 -3.0533 -1.0077
 5340SOL    HW221359   1.446   2.862   2.309  0.2967 -0.5468  0.6668
 5340SOL     MW21360   1.382   2.888   2.362 -0.3175 -0.3591 -0.1444
 5341SOL     OW21361   1.015   2.409   0.912  0.6984  0.4618  0.0437
 5341SOL    HW121362   1.048   2.498   0.916 -1.2644  1.1873  1.4173
 5341SOL    HW221363   0.940   2.413   0.854  0.4683 -0.2651  0.2758
 5341SOL     MW21364   1.010   2.421   0.905  0.4033  0.4616  0.2598
 5342SOL     OW21365   5.369   3.784   3.228  0.5097  0.0515  0.5079
 5342SOL    HW121366   5.406   3.780   3.140  0.2241  0.1261  0.3837
 5342SOL    HW221367   5.324   3.701   3.240 -2.7327  1.4285 -0.8839
 5342SOL     MW21368   5.368   3.772   3.218  0.0349  0.2469  0.3039
 5343SOL     OW21369   2.560   4.450   3.684 -0.4767 -0.3742 -0.0087
 5343SOL    HW121370   2.484   4.501   3.714 -0.6413  0.8128 -2.2966
 5343SOL    HW221371   2.539   4.427   3.594  2.4501  1.1579 -1.1920
 5343SOL     MW21372   2.547   4.454   3.676 -0.1049 -0.0083 -0.4758
 5344SOL     OW21373   0.256   4.224   1.270 -0.7586 -1.0509 -0.5760
 5344SOL    HW121374   0.160   4.222   1.276 -0.7858  0.5309 -0.2016
 5344SOL    HW221375   0.276   4.307   1.228  0.5283 -0.4222  1.1670
 5344SOL     MW21376   0.246   4.235   1.265 -0.5891 -0.7534 -0.2910
 5345SOL     OW21377   4.855   4.804   4.211  0.3428 -0.4498 -0.3515
 5345SOL    HW121378   4.842   4.841   4.124  1.7014  1.5045  0.1877
 5345SOL    HW221379   4.789   4.735   4.219  0.7308 -1.2726 -3.2178
 5345SOL     MW21380   4.845   4.800   4.200  0.5779 -0.2975 -0.6646
 5346SOL     OW21381   3.670   0.070   3.977 -0.0436 -0.1665  0.4153
 5346SOL    HW121382   3.651   0.160   4.003  0.0569  0.1081 -0.4354
 5346SOL    HW221383   3.764   0.060   3.991 -0.0582 -0.1492  0.5294
 5346SOL     MW21384   3.680   0.080   3.982 -0.0320 -0.1272  0.3162
 5347SOL     OW21385   2.123   5.199   1.612 -0.1903  0.2915 -0.3294
 5347SOL    HW121386   2.076   5.201   1.695  0.9821 -1.0638  0.4144
 5347SOL    HW221387   2.055   5.190   1.546 -1.0794  0.2767  0.5630
 5347SOL     MW21388   2.108   5.198   1.614 -0.1522  0.1071 -0.1092
 5348SOL     OW21389   3.638   0.613   3.361 -0.4537 -0.1281 -0.1107
 5348SOL    HW121390   3.552   0.637   3.396 -0.2907  0.1186  0.1303
 5348SOL    HW221391   3.695   0.685   3.389 -0.4979  0.5354 -1.6337
 5348SOL     MW21392   3.634   0.626   3.370 -0.4377 -0.0056 -0.2833
 5349SOL     OW21393   4.983   2.169   5.368 -0.0496 -0.6047 -0.2716
 5349SOL    HW121394   5.001   2.246   5.314 -0.9539  0.1240  0.4388
 5349SOL    HW221395   5.026   2.187   5.452 -0.7393 -0.6000  0.0940
 5349SOL     MW21396   4.991   2.182   5.372 -0.2641 -0.5060 -0.1268
 5350SOL     OW21397   2.726   0.269   5.323  0.1920 -0.2356 -0.0939
 5350SOL    HW121398   2.727   0.283   5.228  1.7963  1.2755  0.0927
 5350SOL    HW221399   2.633   0.261   5.344 -0.1936 -0.8342 -1.8030
 5350SOL     MW21400   2.713   0.270   5.313  0.3560 -0.1128 -0.2988
 5351SOL     OW21401   4.934   4.570   2.928 -0.3949  0.1220  0.3476
 5351SOL    HW121402   4.953   4.562   3.022 -0.6374  1.5399  0.5337
 5351SOL    HW221403   5.018   4.591   2.888 -0.2418 -0.7393  0.2045
 5351SOL     MW21404   4.948   4.572   2.935 -0.4069  0.1969  0.3534
 5352SOL     OW21405   4.839   1.745   4.259  0.2792  0.2225  0.0673
 5352SOL    HW121406   4.821   1.656   4.227  0.1594  0.1021  0.4579
 5352SOL    HW221407   4.930   1.741   4.288  0.0259 -0.0153  0.8620
 5352SOL     MW21408   4.849   1.732   4.259  0.2290  0.1743  0.2268
 5353SOL     OW21409   0.910   2.109   1.921  0.4463  0.0741 -0.0273
 5353SOL    HW121410   0.889   2.025   1.961  2.0142  0.1984  1.1413
 5353SOL    HW221411   0.853   2.172   1.966  0.7059 -0.0842  0.5237
 5353SOL     MW21412   0.899   2.106   1.932  0.6922  0.0696  0.2041
 5354SOL     OW21413   1.771   3.385   0.480 -0.0247  0.0069 -0.5397
 5354SOL    HW121414   1.730   3.418   0.560 -0.2283  1.5549 -1.2497
 5354SOL    HW221415   1.700   3.377   0.418  0.1435 -1.1541 -0.6025
 5354SOL     MW21416   1.756   3.388   0.483 -0.0294  0.0590 -0.6437
 5355SOL     OW21417   3.824   3.649   4.363  0.7972 -0.3743 -0.2009
 5355SOL    HW121418   3.862   3.586   4.423  2.7890  1.4435  0.6098
 5355SOL    HW221419   3.745   3.681   4.406  1.4152 -0.1551  0.7855
 5355SOL     MW21420   3.819   3.645   4.377  1.1484 -0.1002  0.0409
 5356SOL     OW21421   4.713   1.065   0.824  0.1341 -0.4813  0.3254
 5356SOL    HW121422   4.635   1.120   0.829  0.0738 -0.5433  0.0687
 5356SOL    HW221423   4.772   1.102   0.890  1.4092  1.9783 -1.9731
 5356SOL     MW21424   4.711   1.078   0.834  0.2976 -0.1586 -0.0184
 5357SOL     OW21425   0.314   4.351   1.517 -0.0533  0.2584  0.2134
 5357SOL    HW121426   0.280   4.326   1.431 -1.0237 -0.0902  0.6824
 5357SOL    HW221427   0.267   4.432   1.539  0.5366  0.6026  0.2099
 5357SOL     MW21428   0.303   4.359   1.509 -0.1045  0.2578  0.2761
 5358SOL     OW21429   1.404   5.405   3.355  0.2282  0.0061 -0.5537
 5358SOL    HW121430   1.481   5.445   3.316 -1.0872  0.6015 -2.7108
 5358SOL    HW221431   1.378   5.465   3.425  1.1299  0.3176 -0.4824
 5358SOL     MW21432   1.411   5.418   3.359  0.1725  0.1282 -0.8344
 5359SOL     OW21433   1.331   2.672   3.832  0.1061 -0.5965 -0.2360
 5359SOL    HW121434   1.260   2.649   3.891 -0.7969 -0.6071 -1.2827
 5359SOL    HW221435   1.347   2.765   3.846 -1.8342  0.0269 -1.6930
 5359SOL     MW21436   1.324   2.681   3.842 -0.2765 -0.5140 -0.5729
 5360SOL     OW21437   0.123   1.708   3.423 -0.8154 -0.5688 -0.3895
 5360SOL    HW121438   0.045   1.653   3.429 -1.4263  0.4598  2.1268
 5360SOL    HW221439   0.090   1.795   3.402 -0.3567 -0.1213  0.7067
 5360SOL     MW21440   0.108   1.712   3.421 -0.8359 -0.3702  0.0967
 5361SOL     OW21441   2.142   0.844   1.739 -0.2910 -0.0683  0.4338
 5361SOL    HW121442   2.103   0.924   1.774 -0.0495  0.6138 -0.7991
 5361SOL    HW221443   2.101   0.833   1.653 -1.0195 -1.8018  0.9553
 5361SOL     MW21444   2.131   0.853   1.732 -0.3566 -0.2098  0.3381
 5362SOL     OW21445   1.162   5.249   1.060 -0.4339 -0.1473 -0.3946
 5362SOL    HW121446   1.222   5.319   1.086  0.3344 -0.7686 -0.4697
 5362SOL    HW221447   1.077   5.277   1.093  0.3437 -0.4863  2.1352
 5362SOL     MW21448   1.159   5.262   1.068 -0.2259 -0.2765 -0.0643
 5363SOL     OW21449   2.817   0.628   1.403 -0.0178 -0.0224 -0.1478
 5363SOL    HW121450   2.788   0.668   1.485 -0.5729 -0.3652 -0.1716
 5363SOL    HW221451   2.739   0.582   1.370  0.0194  0.6311 -1.1780
 5363SOL     MW21452   2.803   0.627   1.410 -0.0875  0.0194 -0.2897
 5364SOL     OW21453   4.286   2.590   5.204 -0.6803 -0.5020 -0.2609
 5364SOL    HW121454   4.301   2.497   5.189 -1.2378 -0.8157  0.9550
 5364SOL    HW221455   4.192   2.601   5.190 -0.4341  0.1201 -1.5057
 5364SOL     MW21456   4.276   2.579   5.200 -0.7222 -0.4605 -0.2648
 5365SOL     OW21457   0.545   4.078   2.978  0.2542 -0.0840 -0.0029
 5365SOL    HW121458   0.450   4.077   2.991  0.1212 -1.1456 -0.9471
 5365SOL    HW221459   0.560   4.022   2.902  1.8865 -2.1603  1.7321
 5365SOL     MW21460   0.534   4.071   2.969  0.4559 -0.5063  0.1036
 5366SOL     OW21461   5.097   2.627   5.386 -0.4566 -0.0871  0.1155
 5366SOL    HW121462   5.139   2.683   5.320 -1.5383  1.1651  0.4321
 5366SOL    HW221463   5.069   2.550   5.337 -2.4963  1.4226 -1.3078
 5366SOL     MW21464   5.099   2.624   5.370 -0.8767  0.2846 -0.0334
 5367SOL     OW21465   2.716   3.587   3.777  0.1297 -0.0691  0.2445
 5367SOL    HW121466   2.801   3.546   3.791  0.3102  0.2494  0.1105
 5367SOL    HW221467   2.715   3.607   3.683  1.2542  2.7767  0.7060
 5367SOL     MW21468   2.727   3.584   3.766  0.3053  0.3568  0.2886
 5368SOL     OW21469   4.163   1.366   1.051  0.5883  0.0305  0.0182
 5368SOL    HW121470   4.135   1.403   1.134  0.8142  1.3916 -0.4857
 5368SOL    HW221471   4.083   1.362   0.998  0.5370 -0.3607  0.1219
 5368SOL     MW21472   4.148   1.370   1.055  0.6118  0.1610 -0.0357
 5369SOL     OW21473   5.205   1.954   0.138 -0.6678 -0.4521 -0.4370
 5369SOL    HW121474   5.213   1.858   0.139 -2.2334 -0.6132 -0.7838
 5369SOL    HW221475   5.117   1.971   0.171 -0.4098  0.8835 -0.3808
 5369SOL     MW21476   5.194   1.943   0.142 -0.8438 -0.2940 -0.4761
 5370SOL     OW21477   4.221   0.458   3.709  0.3298 -0.2601 -0.0452
 5370SOL    HW121478   4.273   0.382   3.735 -0.8952 -1.0355  0.1715
 5370SOL    HW221479   4.235   0.522   3.779  1.2588 -0.3198 -0.1653
 5370SOL     MW21480   4.230   0.457   3.722  0.2900 -0.3725 -0.0322
 5371SOL     OW21481   0.689   0.660   3.964 -0.1806  0.6647 -0.3929
 5371SOL    HW121482   0.747   0.590   3.995 -0.5401 -0.3763 -1.9408
 5371SOL    HW221483   0.652   0.697   4.044  0.6812 -0.3338  0.5149
 5371SOL     MW21484   0.692   0.655   3.979 -0.1130  0.3902 -0.4791
 5372SOL     OW21485   2.518   4.735   0.074 -0.3741  0.1158  0.2369
 5372SOL    HW121486   2.601   4.698   0.103 -1.0612 -1.6447  0.1277
 5372SOL    HW221487   2.484   4.671   0.011 -1.4955  1.1232 -0.2353
 5372SOL     MW21488   2.524   4.721   0.069 -0.6175  0.0145  0.1587
 5373SOL     OW21489   3.342   3.061   2.592 -0.5821 -0.2346  0.5476
 5373SOL    HW121490   3.321   3.064   2.685 -1.2548  1.1973  0.3835
 5373SOL    HW221491   3.260   3.035   2.549 -0.5741  0.1592  0.2853
 5373SOL     MW21492   3.328   3.058   2.599 -0.6716  0.0111  0.4902
 5374SOL     OW21493   4.260   2.214   5.404  0.0928 -0.6893 -0.1502
 5374SOL    HW121494   4.240   2.135   5.454  0.8301 -0.3594  0.6937
 5374SOL    HW221495   4.314   2.267   5.463 -0.6393  0.5851 -0.5836
 5374SOL     MW21496   4.265   2.211   5.418  0.0935 -0.4734 -0.0950
 5375SOL     OW21497   0.256   0.711   4.603  0.2267 -0.1410  0.1530
 5375SOL    HW121498   0.230   0.685   4.692  0.0835 -0.3210  0.0595
 5375SOL    HW221499   0.283   0.629   4.562 -2.3087 -0.5564 -0.8718
 5375SOL     MW21500   0.256   0.696   4.610 -0.1338 -0.2211  0.0025
 5376SOL     OW21501   1.730   1.048   2.259  0.1479  0.2439  0.3081
 5376SOL    HW121502   1.725   0.955   2.282  2.5403  0.1721  0.7655
 5376SOL    HW221503   1.674   1.057   2.182 -0.5381 -1.4548  0.5616
 5376SOL     MW21504   1.722   1.037   2.252  0.3775  0.0057  0.4037
 5377SOL     OW21505   1.507   1.214   3.867  0.0149 -0.2655  0.1064
 5377SOL    HW121506   1.421   1.255   3.856 -0.3562 -1.1180 -0.2869
 5377SOL    HW221507   1.498   1.163   3.947  0.1762 -0.3087  0.0960
 5377SOL     MW21508   1.494   1.213   3.876 -0.0133 -0.3861  0.0521
 5378SOL     OW21509   0.034   4.525   2.682  0.4238  0.2361 -0.1651
 5378SOL    HW121510  -0.039   4.546   2.740  0.3030  1.4417 -0.7276
 5378SOL    HW221511  -0.007   4.501   2.599  0.6492  0.3549 -0.3127
 5378SOL     MW21512   0.019   4.524   2.678  0.4379  0.4143 -0.2607
 5379SOL     OW21513   4.572   2.192   5.084  0.1174  0.0295 -0.4460
 5379SOL    HW121514   4.604   2.215   5.171  2.5719  0.5829 -1.4134
 5379SOL    HW221515   4.629   2.241   5.024 -2.0867  0.3949 -2.3670
 5379SOL     MW21516   4.584   2.202   5.087  0.1511  0.1532 -0.8348
 5380SOL     OW21517   2.319   2.098   1.565 -0.0709 -0.2719 -0.5675
 5380SOL    HW121518   2.374   2.024   1.540 -0.3267 -0.1608 -1.5196
 5380SOL    HW221519   2.274   2.069   1.645 -0.6789 -1.4179 -1.2951
 5380SOL     MW21520   2.320   2.084   1.572 -0.1871 -0.4112 -0.7936
 5381SOL     OW21521   3.644   5.264   0.184 -0.3305 -0.1303 -0.5866
 5381SOL    HW121522   3.608   5.352   0.196  1.5044  0.7768 -1.3254
 5381SOL    HW221523   3.636   5.223   0.270 -0.3780  1.1004  0.0230
 5381SOL     MW21524   3.638   5.271   0.197 -0.0899  0.1574 -0.6040
 5382SOL     OW21525   3.261   0.628   0.128 -0.0794  0.3600  0.2479
 5382SOL    HW121526   3.311   0.681   0.190  1.2725  0.2508 -0.7036
 5382SOL    HW221527   3.257   0.682   0.048  1.4896 -0.9762 -0.8040
 5382SOL     MW21528   3.267   0.642   0.125  0.3137  0.1655 -0.0217
 5383SOL     OW21529   3.542   3.556   1.777  0.2417  0.6307 -0.1261
 5383SOL    HW121530   3.628   3.599   1.778  0.4936  0.1661 -0.8783
 5383SOL    HW221531   3.525   3.534   1.869 -0.2328  2.9771  0.4054
 5383SOL     MW21532   3.551   3.559   1.790  0.2117  0.8839 -0.1558
 5384SOL     OW21533   4.909   3.058   2.129 -0.1886  0.6156 -0.5924
 5384SOL    HW121534   4.941   3.087   2.044 -0.8650 -1.5168 -1.6332
 5384SOL    HW221535   4.877   3.138   2.170  1.9421  2.0393 -1.4687
 5384SOL     MW21536   4.909   3.072   2.123  0.0071  0.5202 -0.8504
 5385SOL     OW21537   5.235   3.902   2.213  0.0423  0.5936  0.3848
 5385SOL    HW121538   5.243   3.992   2.244 -2.7564  1.3035 -0.7048
 5385SOL    HW221539   5.141   3.885   2.213  0.4332 -1.9314 -0.6034
 5385SOL     MW21540   5.224   3.912   2.217 -0.2817  0.3493  0.1052
 5386SOL     OW21541   4.634   4.928   1.230 -0.2684  0.4874 -0.5967
 5386SOL    HW121542   4.553   4.924   1.180 -0.3716 -1.1914 -0.3734
 5386SOL    HW221543   4.639   5.018   1.263 -1.9688  0.6469 -0.7218
 5386SOL     MW21544   4.624   4.939   1.228 -0.5111  0.2829 -0.5835
 5387SOL     OW21545   1.302   3.701   4.960  0.8189 -0.3373 -0.0049
 5387SOL    HW121546   1.213   3.668   4.946  1.0106 -1.5523  1.4264
 5387SOL    HW221547   1.313   3.768   4.893 -0.8324 -0.8251 -0.8214
 5387SOL     MW21548   1.291   3.705   4.949  0.6225 -0.5665  0.0779
 5388SOL     OW21549   2.294   1.185   0.532  0.4979 -0.4480 -0.3323
 5388SOL    HW121550   2.282   1.194   0.626 -0.7169 -0.2014 -0.5048
 5388SOL    HW221551   2.251   1.262   0.494 -1.6439 -2.0125 -1.2496
 5388SOL     MW21552   2.287   1.197   0.539  0.0461 -0.6254 -0.4790
 5389SOL     OW21553   0.090   2.709   5.366  0.0381 -0.4542  0.3930
 5389SOL    HW121554   0.127   2.753   5.443 -1.1775 -0.5409  1.0508
 5389SOL    HW221555   0.024   2.770   5.333  0.1156 -0.6939 -0.2211
 5389SOL     MW21556   0.086   2.724   5.372 -0.1151 -0.4981  0.3988
 5390SOL     OW21557   3.440   3.058   4.692  0.7244  0.0577  0.2102
 5390SOL    HW121558   3.465   3.037   4.782  0.6876  2.7453  0.9431
 5390SOL    HW221559   3.434   2.973   4.648  2.7454 -1.2260  2.1913
 5390SOL     MW21560   3.442   3.044   4.698  0.9914  0.2466  0.5755
 5391SOL     OW21561   0.615   2.330   4.651  0.0199  0.0962  0.1349
 5391SOL    HW121562   0.603   2.329   4.556  1.1977  0.4612 -0.0343
 5391SOL    HW221563   0.578   2.247   4.681  0.9540 -0.6859 -0.8189
 5391SOL     MW21564   0.608   2.319   4.643  0.3041  0.0400 -0.0162
 5392SOL     OW21565   4.368   0.541   2.447 -0.3361  0.5265 -0.0204
 5392SOL    HW121566   4.383   0.446   2.440 -1.9099  0.1183  1.3233
 5392SOL    HW221567   4.328   0.564   2.364 -0.5502 -0.1409 -0.1151
 5392SOL     MW21568   4.364   0.531   2.435 -0.5767  0.3817  0.1477
 5393SOL     OW21569   3.982   3.155   1.350  0.1486 -0.2883  0.0932
 5393SOL    HW121570   4.040   3.085   1.321  2.0512  0.9395  0.7307
 5393SOL    HW221571   3.949   3.126   1.436  0.9629 -0.3945  0.3746
 5393SOL     MW21572   3.985   3.142   1.358  0.5142 -0.1374  0.2169
 5394SOL     OW21573   4.954   0.460   3.257  0.0706  0.1551 -0.1871
 5394SOL    HW121574   4.939   0.485   3.348  0.5251 -0.3977  0.0499
 5394SOL    HW221575   4.890   0.510   3.207 -0.0322  0.6375  0.4145
 5394SOL     MW21576   4.944   0.470   3.262  0.1180  0.1456 -0.0742
 5395SOL     OW21577   1.957   5.005   0.007  0.2544  0.7439  0.4818
 5395SOL    HW121578   1.900   4.931  -0.015  2.1624 -0.8933  0.7787
 5395SOL    HW221579   1.964   5.002   0.102 -0.3553  1.8788  0.5722
 5395SOL     MW21580   1.950   4.995   0.017  0.4292  0.6763  0.5340
 5396SOL     OW21581   2.272   2.945   4.266 -0.7286  0.3886  0.2444
 5396SOL    HW121582   2.333   2.981   4.201 -0.0896  1.4154  1.3802
 5396SOL    HW221583   2.324   2.936   4.345 -1.7810  0.2017  0.9356
 5396SOL     MW21584   2.287   2.949   4.268 -0.7842  0.5017  0.4903
 5397SOL     OW21585   0.169   3.166   5.142  0.2670 -0.1303 -0.0198
 5397SOL    HW121586   0.168   3.103   5.070  0.3067 -1.9060  1.4620
 5397SOL    HW221587   0.249   3.215   5.129  0.4312 -0.6232 -1.0119
 5397SOL     MW21588   0.179   3.164   5.131  0.2944 -0.4356  0.0461
 5398SOL     OW21589   1.963   0.838   4.680 -0.1039  0.0467  0.5056
 5398SOL    HW121590   1.948   0.854   4.587  0.2197 -0.4466  0.3674
 5398SOL    HW221591   1.892   0.886   4.724  0.0091  0.6542  0.0329
 5398SOL     MW21592   1.951   0.847   4.673 -0.0452  0.0621  0.4234
 5399SOL     OW21593   5.285   4.713   3.554  0.1347 -0.0237  0.3001
 5399SOL    HW121594   5.235   4.748   3.628 -0.4038 -0.8880  0.3643
 5399SOL    HW221595   5.231   4.731   3.478  0.9814  1.4360  0.0055
 5399SOL     MW21596   5.271   4.720   3.554  0.1762  0.0565  0.2691
 5400SOL     OW21597   0.600   1.106   0.953  0.2021 -0.5020  0.0714
 5400SOL    HW121598   0.684   1.068   0.927  3.0783  2.3917  3.9870
 5400SOL    HW221599   0.599   1.192   0.911  0.6703  0.5874  2.1487
 5400SOL     MW21600   0.611   1.112   0.944  0.6522  0.0340  0.8779
 5401SOL     OW21601   2.351   3.136   0.129 -0.3516 -0.1002  0.2177
 5401SOL    HW121602   2.265   3.171   0.155 -0.8199 -1.0012 -0.0647
 5401SOL    HW221603   2.330   3.053   0.087  0.7273 -0.6776  0.8107
 5401SOL     MW21604   2.336   3.130   0.127 -0.2694 -0.2992  0.2595
 5402SOL     OW21605   3.102   5.481   1.561  0.4062  0.1399 -0.2937
 5402SOL    HW121606   3.150   5.443   1.487  1.3235  0.2472  0.2273
 5402SOL    HW221607   3.027   5.423   1.573  1.8199 -1.6067  0.5394
 5402SOL     MW21608   3.099   5.468   1.552  0.7199 -0.0807 -0.1115
 5403SOL     OW21609   4.404   4.206   4.094  0.2092 -0.0588  0.6463
 5403SOL    HW121610   4.400   4.168   4.182  1.0939  0.5365  0.9627
 5403SOL    HW221611   4.320   4.185   4.055  0.0383 -0.8708  1.4156
 5403SOL     MW21612   4.392   4.198   4.101  0.3053 -0.0880  0.7924
 5404SOL     OW21613   5.258   4.841   1.405 -0.2019  0.0280 -0.3387
 5404SOL    HW121614   5.210   4.835   1.322 -3.1963  0.3656  1.2416
 5404SOL    HW221615   5.216   4.777   1.462  1.1299  0.4794  1.2273
 5404SOL     MW21616   5.246   4.832   1.401 -0.4256  0.1342  0.0847
 5405SOL     OW21617   5.109   0.187   1.076 -0.1411  0.4213 -0.2436
 5405SOL    HW121618   5.177   0.133   1.117  0.1640  1.8042  1.1368
 5405SOL    HW221619   5.149   0.217   0.994  0.1611 -0.3779 -0.4017
 5405SOL     MW21620   5.124   0.184   1.070 -0.0594  0.4998 -0.0791
 5406SOL     OW21621   1.170   3.632   1.479 -0.2781 -0.0052  0.0129
 5406SOL    HW121622   1.185   3.580   1.400  0.0843  0.0532  0.0430
 5406SOL    HW221623   1.075   3.647   1.480 -0.5793 -1.6934  0.6564
 5406SOL     MW21624   1.159   3.627   1.469 -0.2699 -0.2246  0.1035
 5407SOL     OW21625   2.424   1.229   3.058 -0.0392  0.4256 -0.1238
 5407SOL    HW121626   2.517   1.241   3.077  0.0650  0.7629 -0.8079
 5407SOL    HW221627   2.382   1.307   3.093  0.0195  0.5603 -0.3480
 5407SOL     MW21628   2.431   1.241   3.065 -0.0173  0.4891 -0.2461
 5408SOL     OW21629   5.312   2.328   2.213 -0.3193  0.3400  0.3687
 5408SOL    HW121630   5.392   2.372   2.185 -0.6690  3.0974  3.1466
 5408SOL    HW221631   5.241   2.378   2.172 -0.6827 -0.2358  0.2812
 5408SOL     MW21632   5.313   2.340   2.204 -0.4153  0.6336  0.7308
 5409SOL     OW21633   1.808   2.079   5.095  0.5418  0.3251  0.1982
 5409SOL    HW121634   1.792   2.155   5.038 -0.7662 -0.7486 -0.9589
 5409SOL    HW221635   1.784   2.004   5.041  2.5889 -1.0053  1.0151
 5409SOL     MW21636   1.802   2.079   5.080  0.6413  0.0015  0.1524
 5410SOL     OW21637   4.619   4.242   2.644  0.0220  0.0262  0.7456
 5410SOL    HW121638   4.539   4.239   2.591  0.6046 -1.9781 -0.1139
 5410SOL    HW221639   4.626   4.334   2.671 -1.7049  0.5768 -0.4717
 5410SOL     MW21640   4.609   4.254   2.640 -0.1320 -0.1695  0.4661
 5411SOL     OW21641   1.983   0.425   4.691 -0.0809  0.3300 -0.4257
 5411SOL    HW121642   1.956   0.510   4.726  1.4019  0.5810  0.1826
 5411SOL    HW221643   1.906   0.369   4.704 -0.5574  1.1742  0.5876
 5411SOL     MW21644   1.969   0.429   4.698  0.0546  0.4774 -0.2075
 5412SOL     OW21645   2.785   2.444   2.970  0.2571 -0.4221  0.1942
 5412SOL    HW121646   2.862   2.419   3.020  0.3319 -1.6326 -0.5007
 5412SOL    HW221647   2.768   2.370   2.913 -2.2430 -0.7663  1.2716
 5412SOL     MW21648   2.793   2.431   2.969 -0.0693 -0.6314  0.2457
 5413SOL     OW21649   0.052   3.543   3.146  0.1706 -0.3211  0.2870
 5413SOL    HW121650   0.001   3.507   3.073 -0.8895  0.7857  0.4614
 5413SOL    HW221651   0.092   3.623   3.111  0.4272 -0.2881  0.6463
 5413SOL     MW21652   0.051   3.549   3.131  0.0624 -0.1677  0.3588
 5414SOL     OW21653   2.383   5.475   4.878  0.2594 -0.1669  0.4387
 5414SOL    HW121654   2.329   5.517   4.812  1.1924  1.9992  0.9365
 5414SOL    HW221655   2.351   5.385   4.883 -1.4078  0.2787 -1.2141
 5414SOL     MW21656   2.372   5.468   4.870  0.1605  0.1846  0.2833
 5415SOL     OW21657   1.151   5.529   0.076 -0.3651  0.3591  0.3127
 5415SOL    HW121658   1.131   5.438   0.097 -0.5952 -0.0297 -1.4285
 5415SOL    HW221659   1.242   5.528   0.045 -0.7495  0.4669 -0.9048
 5415SOL     MW21660   1.161   5.517   0.074 -0.4478  0.3213 -0.0855
 5416SOL     OW21661   3.851   5.150   2.103 -0.1318  0.7769  0.1332
 5416SOL    HW121662   3.887   5.234   2.131  0.4201  0.5200  0.2012
 5416SOL    HW221663   3.759   5.153   2.130  0.2508  0.7557  1.4915
 5416SOL     MW21664   3.843   5.162   2.110 -0.0060  0.7395  0.3252
 5417SOL     OW21665   4.598   3.426   4.889  0.6646 -0.4707  0.0422
 5417SOL    HW121666   4.665   3.371   4.930 -0.0003 -0.9892  0.4331
 5417SOL    HW221667   4.641   3.461   4.810  1.2149 -1.2381 -0.0048
 5417SOL     MW21668   4.613   3.423   4.884  0.6492 -0.6437  0.0885
 5418SOL     OW21669   4.280   1.601   0.552  0.2714 -0.1763 -0.4552
 5418SOL    HW121670   4.342   1.608   0.479 -0.7230  0.0108 -1.3117
 5418SOL    HW221671   4.215   1.537   0.522 -0.4708  0.3368  0.0146
 5418SOL     MW21672   4.279   1.593   0.538  0.0377 -0.0821 -0.5073
 5419SOL     OW21673   5.284   1.268   4.530 -0.0676 -0.0634 -0.1434
 5419SOL    HW121674   5.293   1.323   4.608  0.1975  0.3703 -0.4747
 5419SOL    HW221675   5.289   1.329   4.457  1.0626 -0.6199 -0.5509
 5419SOL     MW21676   5.286   1.284   4.531  0.1202 -0.0799 -0.2428
 5420SOL     OW21677   3.700   2.492   4.398  0.8196 -0.1213  0.3723
 5420SOL    HW121678   3.643   2.553   4.445  0.1997  0.2021 -0.7684
 5420SOL    HW221679   3.770   2.547   4.363  1.4696 -0.4143  1.1681
 5420SOL     MW21680   3.702   2.508   4.400  0.8236 -0.1172  0.3259
 5421SOL     OW21681   1.329   5.205   0.427  0.9355 -0.0800  0.2768
 5421SOL    HW121682   1.309   5.296   0.450 -0.7476 -1.2014  3.9816
 5421SOL    HW221683   1.425   5.201   0.429  1.0587  1.6520 -0.3332
 5421SOL     MW21684   1.339   5.217   0.430  0.7256  0.0022  0.6933
 5422SOL     OW21685   2.924   2.036   2.922 -0.5263 -0.0487  0.3509
 5422SOL    HW121686   3.006   2.085   2.923 -0.3906 -0.2615 -0.1766
 5422SOL    HW221687   2.943   1.956   2.873 -2.0893  1.7577 -3.6077
 5422SOL     MW21688   2.937   2.032   2.916 -0.7184  0.1658 -0.2528
 5423SOL     OW21689   4.183   0.569   4.652  0.3413  0.4325  0.0491
 5423SOL    HW121690   4.093   0.554   4.682  0.1142  2.5964  0.5924
 5423SOL    HW221691   4.206   0.488   4.606 -1.2636 -0.8456  1.3488
 5423SOL     MW21692   4.174   0.556   4.650  0.0948  0.5517  0.2971
 5424SOL     OW21693   3.488   2.234   5.412  0.2804 -0.0542 -0.0714
 5424SOL    HW121694   3.471   2.140   5.403  0.2509 -0.0569  0.0054
 5424SOL    HW221695   3.537   2.257   5.334 -1.2565  0.2314 -0.9880
 5424SOL     MW21696   3.492   2.224   5.400  0.0696 -0.0161 -0.1844
 5425SOL     OW21697   3.241   0.876   2.617  0.3518  0.4138  0.3746
 5425SOL    HW121698   3.327   0.903   2.583  0.4897  1.2235  1.3325
 5425SOL    HW221699   3.261   0.822   2.693  0.0137  1.7342  1.4265
 5425SOL     MW21700   3.255   0.872   2.623  0.3249  0.7005  0.6451
 5426SOL     OW21701   2.650   4.440   0.363  0.3754 -0.3329  0.2107
 5426SOL    HW121702   2.594   4.371   0.328 -0.3362  0.1353  0.4020
 5426SOL    HW221703   2.693   4.401   0.438 -0.9188 -0.2293  1.0325
 5426SOL     MW21704   2.648   4.425   0.368  0.1054 -0.2560  0.3471
 5427SOL     OW21705   2.839   4.638   4.515  0.1295 -0.1189  0.2938
 5427SOL    HW121706   2.842   4.587   4.596  3.9067 -0.8379 -0.1349
 5427SOL    HW221707   2.842   4.572   4.445  0.4189  0.5788 -0.3603
 5427SOL     MW21708   2.840   4.622   4.516  0.6768 -0.1218  0.1481
 5428SOL     OW21709   4.779   2.306   1.266  0.0797  0.1732  0.0627
 5428SOL    HW121710   4.757   2.235   1.207  0.8548 -0.6189  0.7029
 5428SOL    HW221711   4.696   2.351   1.282 -0.4920 -0.8189 -0.0562
 5428SOL     MW21712   4.765   2.303   1.261  0.1071 -0.0669  0.1329
 5429SOL     OW21713   0.416   5.457   5.214  0.1223  0.1193 -0.3225
 5429SOL    HW121714   0.452   5.483   5.299  0.1591 -0.0392 -0.2881
 5429SOL    HW221715   0.383   5.368   5.229  0.5084 -0.0719 -0.5856
 5429SOL     MW21716   0.416   5.448   5.227  0.1792  0.0722 -0.3533
 5430SOL     OW21717   1.395   4.691   2.760  0.0437 -0.0357  0.5113
 5430SOL    HW121718   1.340   4.763   2.791  0.1356  1.2267 -2.0343
 5430SOL    HW221719   1.339   4.642   2.700  1.0317  0.0970 -0.5661
 5430SOL     MW21720   1.380   4.694   2.756  0.1891  0.1520  0.0237
 5431SOL     OW21721   0.562   5.209   1.758  0.3751  0.2476 -0.3288
 5431SOL    HW121722   0.499   5.256   1.703 -0.8162  0.8370  1.4549
 5431SOL    HW221723   0.524   5.122   1.769  1.7597 -0.6797 -2.2527
 5431SOL     MW21724   0.549   5.204   1.752  0.4011  0.2021 -0.3477
 5432SOL     OW21725   2.717   1.881   0.939 -0.5603  0.0020 -0.2769
 5432SOL    HW121726   2.748   1.836   0.861  3.1813  0.3720  0.7870
 5432SOL    HW221727   2.725   1.816   1.009 -1.9852  0.2525  0.1548
 5432SOL     MW21728   2.722   1.866   0.938 -0.2485  0.0855 -0.0756
 5433SOL     OW21729   1.425   3.007   0.369 -0.1543 -0.1824 -0.6306
 5433SOL    HW121730   1.434   3.010   0.464 -1.5617 -0.4795 -0.4755
 5433SOL    HW221731   1.332   2.991   0.353  0.0003  0.1629 -2.0654
 5433SOL     MW21732   1.414   3.006   0.379 -0.3229 -0.1759 -0.8028
 5434SOL     OW21733   5.349   4.578   2.881  0.3732 -0.2397  0.0804
 5434SOL    HW121734   5.269   4.607   2.838  1.1140 -0.1137 -1.2523
 5434SOL    HW221735   5.318   4.531   2.959 -0.9024  2.3375  1.2473
 5434SOL     MW21736   5.334   4.575   2.886  0.3012  0.1241  0.0581
 5435SOL     OW21737   5.525   1.294   1.735 -0.1324 -0.7009  0.1480
 5435SOL    HW121738   5.471   1.358   1.781  0.0996 -0.0555 -0.4710
 5435SOL    HW221739   5.463   1.241   1.685 -0.1448  0.6938 -1.3782
 5435SOL     MW21740   5.509   1.295   1.734 -0.1028 -0.4264 -0.1407
 5436SOL     OW21741   1.274   2.630   2.444 -0.0147  0.4689 -0.1269
 5436SOL    HW121742   1.320   2.713   2.455  0.4750  0.0232  1.2814
 5436SOL    HW221743   1.192   2.642   2.491  0.6485 -0.3011  1.2611
 5436SOL     MW21744   1.269   2.643   2.452  0.1405  0.3053  0.2495
 5437SOL     OW21745   0.821   1.334   2.261  0.2104  0.8396  1.0292
 5437SOL    HW121746   0.847   1.256   2.212  2.3264  2.9549 -1.5608
 5437SOL    HW221747   0.742   1.364   2.217 -0.2536  0.5093  1.6292
 5437SOL     MW21748   0.814   1.327   2.249  0.4327  1.0798  0.7614
 5438SOL     OW21749   3.193   4.552   4.279 -0.1615 -0.0963 -0.2080
 5438SOL    HW121750   3.279   4.527   4.314  0.1298 -0.7387 -1.3272
 5438SOL    HW221751   3.198   4.646   4.267  0.9531 -0.3015 -1.6672
 5438SOL     MW21752   3.206   4.561   4.282  0.0277 -0.2104 -0.5550
 5439SOL     OW21753   4.364   0.928   3.058 -0.1299 -0.5982  0.1258
 5439SOL    HW121754   4.340   0.967   3.142 -0.6911 -1.2037  0.2494
 5439SOL    HW221755   4.341   0.996   2.994  2.0148  0.6399  0.5516
 5439SOL     MW21756   4.357   0.943   3.061  0.0832 -0.5131  0.1998
 5440SOL     OW21757   5.495   4.140   0.564  0.0990  0.6352 -0.4644
 5440SOL    HW121758   5.521   4.060   0.611  2.1325  1.3998 -0.1878
 5440SOL    HW221759   5.446   4.108   0.489 -0.6125 -0.7818  0.5487
 5440SOL     MW21760   5.492   4.125   0.560  0.2769  0.5474 -0.2908
 5441SOL     OW21761   4.800   2.832   2.847  0.8756 -0.4796 -0.2268
 5441SOL    HW121762   4.799   2.794   2.759  1.5821  0.3727 -0.6194
 5441SOL    HW221763   4.736   2.781   2.896  0.2644 -0.7832 -1.3105
 5441SOL     MW21764   4.791   2.820   2.841  0.8884 -0.4058 -0.4255
 5442SOL     OW21765   0.225   0.824   0.988  0.6881 -0.1165  0.1975
 5442SOL    HW121766   0.264   0.894   0.935  3.0223  0.3610  2.3915
 5442SOL    HW221767   0.238   0.852   1.078 -2.7521 -1.1045  1.1695
 5442SOL     MW21768   0.232   0.837   0.993  0.5392 -0.1852  0.6236
 5443SOL     OW21769   4.107   4.249   3.736  0.1816 -0.1500  0.1592
 5443SOL    HW121770   4.166   4.324   3.740 -1.2927  1.0897 -0.1841
 5443SOL    HW221771   4.107   4.213   3.824 -0.2805  1.2481  0.7603
 5443SOL     MW21772   4.115   4.254   3.748 -0.0790  0.2050  0.1939
 5444SOL     OW21773   3.636   3.298   1.160 -0.0386  0.2947  0.3107
 5444SOL    HW121774   3.554   3.249   1.164  0.6162 -0.7259  2.4312
 5444SOL    HW221775   3.652   3.325   1.250  2.1839  0.1114  0.0199
 5444SOL     MW21776   3.627   3.295   1.172  0.3487  0.1327  0.5570
 5445SOL     OW21777   4.513   0.397   0.358 -0.1190  0.4994  0.6370
 5445SOL    HW121778   4.575   0.324   0.354  0.8468  1.3342 -0.1863
 5445SOL    HW221779   4.465   0.383   0.440  1.6804  0.2180  1.7049
 5445SOL     MW21780   4.515   0.386   0.369  0.2532  0.5739  0.6699
 5446SOL     OW21781   2.780   4.018   2.306 -0.6919  0.3595  0.6928
 5446SOL    HW121782   2.781   3.924   2.285  0.1110  0.0038  2.2338
 5446SOL    HW221783   2.688   4.037   2.325 -0.8086 -0.1879  0.7026
 5446SOL     MW21784   2.767   4.008   2.305 -0.5996  0.2380  0.9015
 5447SOL     OW21785   1.984   1.965   3.877  0.0144 -0.2257  0.1154
 5447SOL    HW121786   2.060   2.023   3.879 -0.4391  0.3644  0.8157
 5447SOL    HW221787   1.973   1.937   3.967  1.4877 -3.1293 -0.4915
 5447SOL     MW21788   1.993   1.969   3.889  0.1516 -0.5371  0.1280
 5448SOL     OW21789   0.653   5.325   1.989  0.1925  0.5578  0.5115
 5448SOL    HW121790   0.741   5.289   2.003  0.2940  0.0919 -1.0545
 5448SOL    HW221791   0.623   5.283   1.908 -2.1460 -0.5230  1.8670
 5448SOL     MW21792   0.661   5.315   1.980 -0.1085  0.3497  0.4831
 5449SOL     OW21793   0.891   3.931   0.328 -0.0800  0.1532 -0.3749
 5449SOL    HW121794   0.863   4.010   0.374  0.4439  0.2048 -0.1357
 5449SOL    HW221795   0.843   3.932   0.246 -0.7682  0.2421  0.0270
 5449SOL     MW21796   0.881   3.942   0.323 -0.1021  0.1721 -0.2886
 5450SOL     OW21797   1.085   4.911   1.749  0.7310  0.2383  0.2315
 5450SOL    HW121798   1.115   4.988   1.798 -0.5832  1.0625 -0.2176
 5450SOL    HW221799   1.096   4.936   1.658 -0.4520  0.2029  0.0763
 5450SOL     MW21800   1.091   4.925   1.744  0.3950  0.3445  0.1502
 5451SOL     OW21801   3.592   2.839   0.062  0.1264  0.1529 -0.3451
 5451SOL    HW121802   3.617   2.747   0.074 -0.0239 -0.2308 -2.6081
 5451SOL    HW221803   3.674   2.888   0.074  0.2967 -0.3136  0.4326
 5451SOL     MW21804   3.607   2.833   0.065  0.1291  0.0385 -0.5450
 5452SOL     OW21805   3.283   3.257   0.886  0.4822  0.2386  0.4810
 5452SOL    HW121806   3.234   3.261   0.804  1.2343 -2.2546 -0.1920
 5452SOL    HW221807   3.215   3.252   0.954 -0.1672  0.4438 -0.1421
 5452SOL     MW21808   3.267   3.257   0.884  0.4960 -0.0693  0.3066
 5453SOL     OW21809   2.443   4.142   5.290 -0.1295  0.3678 -0.3354
 5453SOL    HW121810   2.494   4.214   5.327  0.7449 -0.0323 -0.7303
 5453SOL    HW221811   2.487   4.122   5.207 -0.0329 -0.9667  0.0113
 5453SOL     MW21812   2.456   4.149   5.284  0.0012  0.1344 -0.3419
 5454SOL     OW21813   1.908   2.228   5.497  0.4057 -0.1552 -1.0321
 5454SOL    HW121814   2.003   2.241   5.504  0.3150  0.0629 -0.0518
 5454SOL    HW221815   1.890   2.153   5.554 -0.1141  0.3388 -0.5369
 5454SOL     MW21816   1.919   2.220   5.506  0.3235 -0.0594 -0.8335
 5455SOL     OW21817   5.087   1.605   2.150 -0.3301 -0.4464 -0.2300
 5455SOL    HW121818   5.138   1.686   2.156  0.2826 -0.8325 -0.1150
 5455SOL    HW221819   4.996   1.633   2.157 -0.2143  0.3959 -1.7761
 5455SOL     MW21820   5.082   1.620   2.152 -0.2320 -0.3850 -0.4226
 5456SOL     OW21821   5.424   4.392   0.796 -0.0515 -0.5984  0.2973
 5456SOL    HW121822   5.379   4.408   0.713 -0.6922 -1.6429  0.4202
 5456SOL    HW221823   5.514   4.371   0.771  0.2059  0.7516 -0.0047
 5456SOL     MW21824   5.430   4.391   0.781 -0.1031 -0.5573  0.2732
 5457SOL     OW21825   1.104   4.349   5.374 -0.2707  0.2989 -0.0823
 5457SOL    HW121826   1.182   4.402   5.359  0.4084 -0.5978  0.2187
 5457SOL    HW221827   1.065   4.338   5.287  0.6560 -0.3318 -0.4338
 5457SOL     MW21828   1.109   4.355   5.360 -0.0546  0.0934 -0.0891
 5458SOL     OW21829   2.650   3.018   0.477  0.6167 -0.2668  0.4402
 5458SOL    HW121830   2.672   2.925   0.466  0.8157 -0.1998  0.2477
 5458SOL    HW221831   2.707   3.063   0.414 -1.5011 -0.2538 -1.6001
 5458SOL     MW21832   2.661   3.011   0.467  0.3585 -0.2560  0.1397
 5459SOL     OW21833   1.599   0.199   0.503  0.4278  0.1930 -0.1307
 5459SOL    HW121834   1.608   0.283   0.549 -0.9279 -0.1194  0.7672
 5459SOL    HW221835   1.634   0.134   0.564  2.2964  0.1476 -1.1735
 5459SOL     MW21836   1.605   0.202   0.517  0.4968  0.1448 -0.1502
 5460SOL     OW21837   4.716   4.608   3.357 -0.3345  0.6031 -0.1393
 5460SOL    HW121838   4.756   4.692   3.335  0.3824  0.5455  0.9103
 5460SOL    HW221839   4.758   4.545   3.298  0.8926  0.6009  0.7048
 5460SOL     MW21840   4.727   4.610   3.346 -0.0729  0.5951  0.1156
 5461SOL     OW21841   2.661   4.104   0.091  0.0962 -0.0521 -0.7184
 5461SOL    HW121842   2.616   4.031   0.050 -0.0302 -1.5930  1.9605
 5461SOL    HW221843   2.598   4.139   0.154  1.4269 -0.1182  0.7233
 5461SOL     MW21844   2.646   4.099   0.094  0.2583 -0.2683 -0.1638
 5462SOL     OW21845   2.999   4.920   0.877  0.3344 -0.2722  0.5130
 5462SOL    HW121846   3.055   4.908   0.954 -1.1633  0.1006  1.7026
 5462SOL    HW221847   3.055   4.898   0.802  2.0911  0.2420  1.6408
 5462SOL     MW21848   3.014   4.915   0.877  0.3692 -0.1528  0.8249
 5463SOL     OW21849   4.139   2.498   1.500  0.3293  0.0475 -0.3537
 5463SOL    HW121850   4.213   2.550   1.531  1.2982 -1.6837  0.3764
 5463SOL    HW221851   4.178   2.415   1.473 -1.2884 -0.7393 -0.3692
 5463SOL     MW21852   4.154   2.494   1.501  0.2420 -0.2914 -0.2576
 5464SOL     OW21853   1.868   2.440   1.177 -0.3882 -0.2908 -0.1702
 5464SOL    HW121854   1.884   2.347   1.161 -1.1510 -0.4037 -0.3153
 5464SOL    HW221855   1.939   2.467   1.236 -0.2750 -1.0087  0.0294
 5464SOL     MW21856   1.880   2.431   1.182 -0.4756 -0.4026 -0.1629
 5465SOL     OW21857   5.465   2.305   1.176  0.3378 -0.2991 -1.0481
 5465SOL    HW121858   5.451   2.212   1.160  0.7031 -0.7182  0.8649
 5465SOL    HW221859   5.377   2.340   1.194  0.0512 -0.0090 -2.8033
 5465SOL     MW21860   5.451   2.297   1.176  0.3484 -0.3164 -1.0268
 5466SOL     OW21861   5.222   1.001   4.329  0.2797 -0.7486  0.0874
 5466SOL    HW121862   5.182   1.036   4.409 -0.0285 -0.1040 -0.3384
 5466SOL    HW221863   5.228   0.907   4.344  0.3609 -0.6148  0.9287
 5466SOL     MW21864   5.217   0.993   4.342  0.2492 -0.6439  0.1433
 5467SOL     OW21865   2.371   1.243   4.159  0.1222  0.0892  0.4140
 5467SOL    HW121866   2.363   1.298   4.237  1.3885 -0.0680  0.6896
 5467SOL    HW221867   2.450   1.276   4.115 -1.1899  0.9042 -1.4239
 5467SOL     MW21868   2.381   1.255   4.164  0.1160  0.1777  0.2038
 5468SOL     OW21869   0.375   3.512   4.756  0.2369 -0.2332 -0.0742
 5468SOL    HW121870   0.378   3.416   4.765  1.5267 -0.3229 -1.1299
 5468SOL    HW221871   0.306   3.539   4.816 -0.0854 -1.8179  0.3321
 5468SOL     MW21872   0.366   3.502   4.765  0.3671 -0.4585 -0.1616
 5469SOL     OW21873   0.892   5.173   2.488 -0.3006  0.0835  0.5195
 5469SOL    HW121874   0.825   5.242   2.481  0.0492  0.4104  0.3508
 5469SOL    HW221875   0.899   5.157   2.582 -1.4361 -0.7741  0.4836
 5469SOL     MW21876   0.884   5.180   2.499 -0.4063  0.0121  0.4920
 5470SOL     OW21877   4.115   5.190   3.942  0.5298  0.4312 -0.5115
 5470SOL    HW121878   4.063   5.204   3.864  0.5868 -0.7453 -0.7846
 5470SOL    HW221879   4.199   5.158   3.910 -0.0117 -1.7631  0.0217
 5470SOL     MW21880   4.119   5.187   3.927  0.4646 -0.0225 -0.4765
 5471SOL     OW21881   5.360   1.151   4.992  0.0078  0.1858 -0.4569
 5471SOL    HW121882   5.382   1.088   4.924  1.6043  0.9459 -0.6883
 5471SOL    HW221883   5.438   1.206   5.001  0.3573 -0.5819  2.7751
 5471SOL     MW21884   5.374   1.150   4.984  0.2697  0.1847 -0.0530
 5472SOL     OW21885   3.953   3.650   3.683 -0.2134 -0.4232  0.2346
 5472SOL    HW121886   3.996   3.622   3.764  2.7152  1.1831 -0.6029
 5472SOL    HW221887   4.000   3.604   3.613 -0.9152  0.1881 -0.6796
 5472SOL     MW21888   3.965   3.640   3.684  0.0863 -0.1248 -0.0011
 5473SOL     OW21889   2.082   1.117   4.398 -0.3130 -0.1649 -0.0840
 5473SOL    HW121890   2.013   1.053   4.418 -0.9490  0.2838 -0.7420
 5473SOL    HW221891   2.163   1.066   4.395 -0.6645 -0.7630  0.3850
 5473SOL     MW21892   2.083   1.102   4.400 -0.4459 -0.1850 -0.1094
 5474SOL     OW21893   4.153   1.582   5.270  0.1019  0.4020  0.7776
 5474SOL    HW121894   4.093   1.580   5.196 -1.2443  0.8730  1.8208
 5474SOL    HW221895   4.225   1.639   5.242 -0.9548  1.5073  0.2481
 5474SOL     MW21896   4.155   1.589   5.257 -0.2215  0.6141  0.8467
 5475SOL     OW21897   2.421   2.564   1.821  0.7365 -0.3329 -0.0263
 5475SOL    HW121898   2.357   2.513   1.771  1.5905 -0.0758 -1.4294
 5475SOL    HW221899   2.376   2.586   1.903 -1.4951  1.0362 -1.5289
 5475SOL     MW21900   2.407   2.560   1.826  0.5511 -0.1140 -0.4174
 5476SOL     OW21901   4.426   3.741   3.959 -0.2917 -0.1029  0.1985
 5476SOL    HW121902   4.425   3.715   3.866 -3.7028  0.6396 -0.1221
 5476SOL    HW221903   4.463   3.829   3.959 -0.0589 -0.1935 -0.4294
 5476SOL     MW21904   4.431   3.749   3.946 -0.7195 -0.0152  0.0708
 5477SOL     OW21905   3.806   4.635   3.192 -0.0757  0.1526 -0.4083
 5477SOL    HW121906   3.874   4.688   3.150 -1.0384  0.6759 -1.3619
 5477SOL    HW221907   3.821   4.546   3.160  1.2601 -0.1081  0.8286
 5477SOL     MW21908   3.817   4.631   3.182 -0.0255  0.1879 -0.3702
 5478SOL     OW21909   5.438   3.728   5.004  0.1902 -0.0028 -0.0286
 5478SOL    HW121910   5.418   3.811   4.961  3.0362 -0.1323 -1.8332
 5478SOL    HW221911   5.463   3.753   5.093 -2.1742  0.6499  0.5192
 5478SOL     MW21912   5.439   3.743   5.011  0.2550  0.0676 -0.1977
 5479SOL     OW21913   1.881   3.207   4.676 -0.1060 -1.2243  0.0367
 5479SOL    HW121914   1.887   3.298   4.646 -0.9480 -1.0349  0.3948
 5479SOL    HW221915   1.820   3.166   4.615 -0.4917 -1.2808  0.4468
 5479SOL     MW21916   1.874   3.214   4.664 -0.2712 -1.2064  0.1401
 5480SOL     OW21917   5.049   3.101   0.805  0.3622  0.1765 -0.5388
 5480SOL    HW121918   5.084   3.072   0.889 -1.8840 -0.4390  0.2593
 5480SOL    HW221919   5.089   3.187   0.791  0.3030  0.5932  1.4966
 5480SOL     MW21920   5.059   3.109   0.815  0.0519  0.1497 -0.1575
 5481SOL     OW21921   2.920   1.507   3.115 -0.0757 -0.2940 -0.2008
 5481SOL    HW121922   2.926   1.521   3.020  0.3305  0.7725 -0.0381
 5481SOL    HW221923   2.905   1.413   3.124  0.3213 -0.4917 -1.3107
 5481SOL     MW21924   2.919   1.496   3.103  0.0324 -0.1771 -0.3283
 5482SOL     OW21925   1.622   2.494   5.050 -0.1143  0.3656  0.0460
 5482SOL    HW121926   1.532   2.464   5.038 -0.0024 -0.8986  1.8605
 5482SOL    HW221927   1.616   2.560   5.120 -0.0210  2.9568 -2.2205
 5482SOL     MW21928   1.609   2.499   5.058 -0.0867  0.5442 -0.0148
 5483SOL     OW21929   0.622   1.121   1.237  0.5866  0.0317  0.1773
 5483SOL    HW121930   0.620   1.117   1.142 -1.3805  1.5201  0.0817
 5483SOL    HW221931   0.715   1.128   1.259  1.1668 -1.5414 -1.5142
 5483SOL     MW21932   0.634   1.122   1.227  0.4000  0.0203 -0.0632
 5484SOL     OW21933   2.213   2.450   3.694 -0.8534  0.1505  0.3767
 5484SOL    HW121934   2.251   2.362   3.703 -0.3469  0.4349  1.1318
 5484SOL    HW221935   2.219   2.487   3.782 -0.8339  1.0365  0.0057
 5484SOL     MW21936   2.219   2.443   3.707 -0.7826  0.3080  0.4284
 5485SOL     OW21937   3.774   4.553   1.005  0.1003  0.0716 -0.2142
 5485SOL    HW121938   3.734   4.467   0.993  0.5425 -0.1859  0.0990
 5485SOL    HW221939   3.764   4.570   1.099 -2.8265  1.7952 -0.7052
 5485SOL     MW21940   3.767   4.544   1.016 -0.2341  0.2689 -0.2381
 5486SOL     OW21941   3.979   4.978   3.443 -0.3911  0.2403  1.1512
 5486SOL    HW121942   3.902   4.924   3.430 -0.2565 -0.3354  2.6100
 5486SOL    HW221943   3.992   4.980   3.538  1.0460  0.8015  0.9712
 5486SOL     MW21944   3.971   4.971   3.454 -0.1796  0.2383  1.3233
 5487SOL     OW21945  -0.002   3.655   3.533  0.3192  0.4321 -0.0463
 5487SOL    HW121946   0.078   3.707   3.522 -0.6634  1.7220 -1.4307
 5487SOL    HW221947   0.014   3.576   3.481  0.8642  0.4842  0.0380
 5487SOL     MW21948   0.011   3.651   3.525  0.2603  0.6127 -0.2213
 5488SOL     OW21949   4.693   1.418   0.321 -0.0267 -0.5724 -0.0502
 5488SOL    HW121950   4.666   1.349   0.261 -1.0725 -0.1535 -0.0831
 5488SOL    HW221951   4.671   1.384   0.408  0.1391 -0.5795 -0.0105
 5488SOL     MW21952   4.687   1.404   0.325 -0.1451 -0.5169 -0.0493
 5489SOL     OW21953   4.285   3.450   2.034 -1.2545 -0.1513 -0.5551
 5489SOL    HW121954   4.216   3.514   2.020 -1.6473 -0.7413 -1.4258
 5489SOL    HW221955   4.242   3.377   2.077 -0.8516  0.0780  0.2508
 5489SOL     MW21956   4.270   3.449   2.038 -1.2532 -0.1998 -0.5639
 5490SOL     OW21957   3.447   5.159   2.022 -0.4530 -0.0699  0.0091
 5490SOL    HW121958   3.493   5.161   2.106  1.3819 -0.3237 -0.9330
 5490SOL    HW221959   3.431   5.252   2.001 -1.9632 -0.0397  1.1313
 5490SOL     MW21960   3.451   5.172   2.030 -0.4093 -0.1000  0.0333
 5491SOL     OW21961   2.919   0.545   0.250 -0.1175  0.5293 -0.5834
 5491SOL    HW121962   2.989   0.488   0.282 -0.8006 -0.5323 -0.9298
 5491SOL    HW221963   2.848   0.533   0.313 -0.7863 -0.1261 -1.4371
 5491SOL     MW21964   2.918   0.535   0.263 -0.2995  0.2982 -0.7449
 5492SOL     OW21965   0.685   3.633   3.365  0.1761  0.2787  0.5602
 5492SOL    HW121966   0.627   3.558   3.378  1.0030 -0.3859  0.4880
 5492SOL    HW221967   0.658   3.696   3.431 -0.2035 -0.2781  0.9482
 5492SOL     MW21968   0.674   3.631   3.375  0.2363  0.1143  0.6027
 5493SOL     OW21969   2.323   4.307   1.890  0.2654 -0.0905 -0.1487
 5493SOL    HW121970   2.317   4.281   1.798  1.3355  1.8524 -0.8205
 5493SOL    HW221971   2.399   4.260   1.924 -0.5869 -1.4128 -0.0078
 5493SOL     MW21972   2.332   4.297   1.883  0.2947 -0.0069 -0.2201
 5494SOL     OW21973   2.466   1.592   2.069 -0.2623  0.0531 -0.3476
 5494SOL    HW121974   2.527   1.579   1.996 -0.7920  1.4562 -1.0715
 5494SOL    HW221975   2.382   1.561   2.036 -0.1710 -0.8640  0.2662
 5494SOL     MW21976   2.463   1.586   2.055 -0.3213  0.1185 -0.3624
 5495SOL     OW21977   5.347   4.763   5.004 -0.4077 -0.1058  0.3143
 5495SOL    HW121978   5.277   4.731   4.946 -1.0228  1.2920  0.2648
 5495SOL    HW221979   5.360   4.854   4.978  0.6044  0.0042  1.1507
 5495SOL     MW21980   5.339   4.771   4.992 -0.3543  0.0971  0.4202
 5496SOL     OW21981   3.414   0.617   5.346  0.0471  0.0563  0.2757
 5496SOL    HW121982   3.392   0.533   5.305 -2.0593  0.0356  1.3225
 5496SOL    HW221983   3.469   0.593   5.420 -0.4393 -0.4030  0.4977
 5496SOL     MW21984   3.418   0.602   5.350 -0.3018 -0.0083  0.4465
 5497SOL     OW21985   0.051   4.224   3.041 -0.3303  0.1513  0.1920
 5497SOL    HW121986   0.106   4.146   3.037 -0.9338 -0.2724 -0.0104
 5497SOL    HW221987  -0.034   4.195   3.008 -0.4210  1.0227 -0.3799
 5497SOL     MW21988   0.047   4.210   3.036 -0.4237  0.2116  0.0878
 5498SOL     OW21989   0.089   1.040   4.312 -0.1266  0.4370 -0.3358
 5498SOL    HW121990   0.075   0.945   4.313  1.4458  0.1745  0.2537
 5498SOL    HW221991   0.018   1.075   4.258 -0.8736 -1.0470 -0.3516
 5498SOL     MW21992   0.078   1.032   4.305 -0.0155  0.2019 -0.2586
 5499SOL     OW21993   0.430   2.216   5.034  0.4048  0.4758 -0.5405
 5499SOL    HW121994   0.394   2.152   5.095 -0.6753 -1.3715 -2.9830
 5499SOL    HW221995   0.512   2.245   5.075 -0.9870  0.5407  2.4729
 5499SOL     MW21996   0.436   2.212   5.048  0.0722  0.2359 -0.4637
 5500SOL     OW21997   4.921   2.658   0.898  0.0207  0.2864  0.0780
 5500SOL    HW121998   4.985   2.681   0.830  1.9812 -3.8337  0.1678
 5500SOL    HW221999   4.839   2.645   0.850  1.0924 -1.4057 -1.4395
 5500SOL     MW22000   4.919   2.659   0.882  0.4288 -0.4958 -0.1141
   5.52081   5.52081   5.52081
