Single water molecule with virtual site
22000
    1SOL     OW    1   5.369   1.232   3.711 -0.1663 -0.0527 -0.1472
    1SOL    HW1    2   5.353   1.197   3.624  1.2338  1.1321 -0.9441
    1SOL    HW2    3   5.412   1.161   3.759 -1.4524 -0.9006 -0.2030
    1SOL     MW    4   5.373   1.218   3.706 -0.1510 -0.0074 -0.2620
    2SOL     OW    5   1.192   2.215   0.407  0.1600  0.6004  0.0288
    2SOL    HW1    6   1.200   2.263   0.489  0.9685 -1.0567  0.9706
    2SOL    HW2    7   1.181   2.283   0.340  0.6334  2.0407  1.3522
    2SOL     MW    8   1.191   2.230   0.409  0.3325  0.5712  0.3337
    3SOL     OW    9   1.516   1.367   4.996 -0.0540 -0.1504 -0.4695
    3SOL    HW1   10   1.545   1.456   5.014  0.7634 -0.9398  2.7357
    3SOL    HW2   11   1.437   1.377   4.943 -0.2551  2.4853  0.2232
    3SOL     MW   12   1.509   1.380   4.992  0.0290  0.0981  0.0551
    4SOL     OW   13   1.907   1.154   5.461  0.3579 -0.0302 -0.2139
    4SOL    HW1   14   1.973   1.085   5.458 -1.1065 -1.6485  1.8020
    4SOL    HW2   15   1.936   1.211   5.532  1.2202  1.1285 -1.4496
    4SOL     MW   16   1.920   1.153   5.470  0.2768 -0.0921 -0.1089
    5SOL     OW   17   5.192   2.182   3.817 -0.3764 -0.1949  0.4410
    5SOL    HW1   18   5.136   2.105   3.825 -0.6610 -0.1556 -0.8767
    5SOL    HW2   19   5.137   2.247   3.773  0.6783 -0.1594 -0.8791
    5SOL     MW   20   5.177   2.180   3.812 -0.2728 -0.1849  0.0860
    6SOL     OW   21   0.662   1.993   0.189  0.4831  0.0126 -0.4411
    6SOL    HW1   22   0.710   1.911   0.195 -1.9228 -1.4360  1.7982
    6SOL    HW2   23   0.619   1.990   0.104 -0.6375 -1.8252  0.1160
    6SOL     MW   24   0.662   1.981   0.178  0.0085 -0.4297 -0.0647
    7SOL     OW   25   0.992   2.242   2.815  0.0333 -0.2071  0.3508
    7SOL    HW1   26   0.940   2.163   2.804 -1.0063  0.4809  0.1396
    7SOL    HW2   27   1.080   2.217   2.788 -0.1995 -1.3732  0.6141
    7SOL     MW   28   0.997   2.228   2.810 -0.1380 -0.2714  0.3578
    8SOL     OW   29   0.574   4.336   0.375  0.9271  0.0206  0.4149
    8SOL    HW1   30   0.592   4.329   0.281  0.9102 -2.2082  0.5230
    8SOL    HW2   31   0.658   4.316   0.417  0.5378 -0.7197  0.8644
    8SOL     MW   32   0.588   4.332   0.368  0.8724 -0.3790  0.4899
    9SOL     OW   33   4.378   3.137   0.484 -0.0988 -0.5808 -0.4351
    9SOL    HW1   34   4.338   3.052   0.467 -1.1254  0.1480 -1.8536
    9SOL    HW2   35   4.415   3.164   0.400 -0.4912  0.7167 -0.2169
    9SOL     MW   36   4.378   3.129   0.471 -0.2897 -0.3081 -0.5966
   10SOL     OW   37   4.561   5.376   4.414 -0.7471  0.4534 -0.6012
   10SOL    HW1   38   4.618   5.334   4.349  0.3413 -0.9135  1.1407
   10SOL    HW2   39   4.619   5.434   4.462 -1.5181  1.3698 -0.7581
   10SOL     MW   40   4.577   5.378   4.411 -0.7044  0.3928 -0.3879
   11SOL     OW   41   0.390   1.618   3.382  0.4514  0.1589 -0.2386
   11SOL    HW1   42   0.409   1.672   3.305  1.0688 -1.1604 -1.0447
   11SOL    HW2   43   0.476   1.589   3.412  0.0609 -1.9904 -1.0465
   11SOL     MW   44   0.404   1.621   3.375  0.4820 -0.3079 -0.4558
   12SOL     OW   45   3.552   1.997   2.413  0.1797 -0.2347 -0.4350
   12SOL    HW1   46   3.495   2.072   2.398 -0.6256 -0.8810 -0.6817
   12SOL    HW2   47   3.638   2.035   2.430 -0.3876  0.7719  0.2600
   12SOL     MW   48   3.556   2.012   2.413 -0.0050 -0.1862 -0.3747
   13SOL     OW   49   3.918   0.280   0.671  0.1833 -0.5373  0.0561
   13SOL    HW1   50   4.010   0.307   0.676 -0.0614  0.3865 -0.3898
   13SOL    HW2   51   3.897   0.283   0.578 -0.2419 -0.9702  0.1351
   13SOL     MW   52   3.928   0.284   0.659  0.0931 -0.4712  0.0067
   14SOL     OW   53   4.663   4.558   3.915  0.2026  0.0804  0.1604
   14SOL    HW1   54   4.719   4.593   3.846 -0.9693 -0.5292 -1.1612
   14SOL    HW2   55   4.723   4.516   3.976  1.4031  2.0040  0.3847
   14SOL     MW   56   4.679   4.557   3.914  0.2064  0.2572  0.0127
   15SOL     OW   57   3.412   2.751   1.802  0.2949 -0.5156 -0.4472
   15SOL    HW1   58   3.416   2.655   1.811  0.7442 -0.4751 -0.1908
   15SOL    HW2   59   3.379   2.781   1.887 -0.0688 -0.4533 -0.6065
   15SOL     MW   60   3.408   2.742   1.815  0.3064 -0.5018 -0.4341
   16SOL     OW   61   3.247   2.804   2.806 -0.3054  0.2787  0.3519
   16SOL    HW1   62   3.222   2.713   2.791 -1.5100  0.8533 -1.4644
   16SOL    HW2   63   3.198   2.830   2.884 -2.4961  0.2503 -0.9426
   16SOL     MW   64   3.237   2.796   2.814 -0.7624  0.3522 -0.0667
   17SOL     OW   65   3.086   1.152   0.878  0.7000  0.3876 -0.3980
   17SOL    HW1   66   3.050   1.233   0.843  0.9119  0.4847 -0.3946
   17SOL    HW2   67   3.131   1.179   0.959 -1.4097 -0.0968  1.0159
   17SOL     MW   68   3.087   1.166   0.884  0.4446  0.3355 -0.2073
   18SOL     OW   69   0.941   1.478   0.395  0.3718  0.1229 -0.3192
   18SOL    HW1   70   0.961   1.416   0.465  0.1707  0.8270  0.3734
   18SOL    HW2   71   0.943   1.425   0.315 -1.2071 -1.0886  0.3762
   18SOL     MW   72   0.944   1.462   0.394  0.1323  0.0546 -0.1324
   19SOL     OW   73   1.823   5.041   0.964 -0.1534  0.7101 -0.2030
   19SOL    HW1   74   1.755   4.987   0.924 -0.4951 -0.0065  1.2567
   19SOL    HW2   75   1.776   5.118   0.996 -0.0132  0.9351 -0.5411
   19SOL     MW   76   1.808   5.044   0.963 -0.1805  0.6440 -0.0521
   20SOL     OW   77   1.708   2.574   4.282 -0.2005 -0.0969  0.4410
   20SOL    HW1   78   1.773   2.637   4.251 -0.6539  0.4364  0.5635
   20SOL    HW2   79   1.731   2.492   4.237 -1.9785  1.0631 -2.9665
   20SOL     MW   80   1.720   2.571   4.272 -0.5008  0.1310 -0.0011
   21SOL     OW   81   1.321   2.164   1.532  0.0374 -0.6343 -0.2975
   21SOL    HW1   82   1.367   2.242   1.502 -0.7591  0.2222  0.6245
   21SOL    HW2   83   1.381   2.092   1.515  1.3807  0.3522  0.1538
   21SOL     MW   84   1.335   2.165   1.526  0.1110 -0.3863 -0.1127
   22SOL     OW   85   3.675   3.297   4.800 -0.0523 -0.4168 -0.0654
   22SOL    HW1   86   3.688   3.211   4.842 -0.5654  0.6105  2.3805
   22SOL    HW2   87   3.580   3.308   4.799  0.0420  0.6051  0.7727
   22SOL     MW   88   3.664   3.287   4.806 -0.1087 -0.1410  0.3765
   23SOL     OW   89   1.900   0.581   3.833 -0.2618 -0.2255  0.1824
   23SOL    HW1   90   1.988   0.582   3.798 -0.7498 -1.5525 -1.1978
   23SOL    HW2   91   1.843   0.601   3.758 -1.1147  1.4620  1.2174
   23SOL     MW   92   1.904   0.584   3.818 -0.4422 -0.1770  0.1359
   24SOL     OW   93   2.857   2.991   4.794 -0.0435  0.0043  0.6607
   24SOL    HW1   94   2.874   3.063   4.855  1.1900  1.9583 -1.7523
   24SOL    HW2   95   2.771   3.012   4.757  0.7170  0.8909 -0.7278
   24SOL     MW   96   2.848   3.004   4.797  0.2249  0.3866  0.1491
   25SOL     OW   97   5.153   1.804   1.483  0.4457 -0.0716 -0.2497
   25SOL    HW1   98   5.198   1.746   1.422  0.5399 -0.2028 -0.0549
   25SOL    HW2   99   5.096   1.857   1.427 -1.5671 -2.0704 -0.1857
   25SOL     MW  100   5.152   1.804   1.467  0.1875 -0.3583 -0.2149
   26SOL     OW  101   1.509   3.136   3.184 -0.4479  0.1243 -0.3715
   26SOL    HW1  102   1.435   3.133   3.244  0.2985 -0.2360  0.5612
   26SOL    HW2  103   1.582   3.168   3.237  0.0552  0.5227 -1.2838
   26SOL     MW  104   1.509   3.140   3.199 -0.2798  0.1295 -0.3688
   27SOL     OW  105   3.945   0.577   1.681 -0.6147 -0.0864  0.1585
   27SOL    HW1  106   4.024   0.543   1.723 -0.9184  0.1988  0.9858
   27SOL    HW2  107   3.978   0.636   1.613 -0.1042  0.8099  1.1488
   27SOL     MW  108   3.960   0.580   1.677 -0.5869  0.0726  0.4031
   28SOL     OW  109   1.435   1.660   2.314  0.0153  0.2271 -0.0162
   28SOL    HW1  110   1.426   1.595   2.244 -0.4316 -0.6655  0.8490
   28SOL    HW2  111   1.371   1.728   2.292  0.2383  0.2159 -0.7362
   28SOL     MW  112   1.425   1.661   2.302 -0.0148  0.1055  0.0034
   29SOL     OW  113   0.960   2.140   4.395  0.1858  0.0022  0.1692
   29SOL    HW1  114   0.937   2.081   4.322  1.1281 -0.5097  0.2766
   29SOL    HW2  115   0.941   2.088   4.474 -0.1229  0.2862  0.2841
   29SOL     MW  116   0.954   2.125   4.396  0.2710 -0.0285  0.1991
   30SOL     OW  117   0.740   4.351   5.181  0.4930  0.4894 -0.4712
   30SOL    HW1  118   0.691   4.388   5.108  0.0528 -1.8778 -1.4802
   30SOL    HW2  119   0.700   4.265   5.195  1.5179  0.3014  1.6180
   30SOL     MW  120   0.728   4.344   5.173  0.5717  0.1455 -0.3259
   31SOL     OW  121   4.284   3.932   0.856  0.1365  0.6110 -0.4502
   31SOL    HW1  122   4.355   3.990   0.883 -0.3713  0.4662  1.3378
   31SOL    HW2  123   4.271   3.873   0.931 -1.5861  0.3905 -0.8660
   31SOL     MW  124   4.292   3.932   0.870 -0.1637  0.5618 -0.2655
   32SOL     OW  125   3.396   2.060   5.401  0.5825  0.6059  0.0504
   32SOL    HW1  126   3.439   2.088   5.481 -0.9438  2.1252  0.4082
   32SOL    HW2  127   3.442   2.107   5.331  0.3422  1.2220  0.2983
   32SOL     MW  128   3.408   2.070   5.402  0.3447  0.8933  0.1319
   33SOL     OW  129   4.191   5.415   0.387 -0.5159 -0.3325 -0.3942
   33SOL    HW1  130   4.277   5.375   0.397 -0.6546 -0.1265  2.3728
   33SOL    HW2  131   4.209   5.509   0.382 -0.5378 -0.3470 -0.7706
   33SOL     MW  132   4.205   5.423   0.388 -0.5375 -0.3067 -0.0725
   34SOL     OW  133   0.992   0.529   2.215 -0.1159  0.0935 -0.0711
   34SOL    HW1  134   1.001   0.451   2.271  0.1850 -0.2562 -0.5948
   34SOL    HW2  135   0.998   0.603   2.275 -0.4678 -0.2943  0.4427
   34SOL     MW  136   0.994   0.528   2.231 -0.1228 -0.0058 -0.0724
   35SOL     OW  137   0.675   2.714   3.672  0.0714 -0.4492 -0.2017
   35SOL    HW1  138   0.757   2.740   3.629 -0.0101  1.3092  0.6119
   35SOL    HW2  139   0.607   2.758   3.621 -0.2830 -0.8993 -0.1281
   35SOL     MW  140   0.677   2.724   3.659  0.0127 -0.2731 -0.0823
   36SOL     OW  141   2.642   4.410   3.851  0.3377 -0.6020 -0.5923
   36SOL    HW1  142   2.714   4.442   3.904  0.2232  0.8736 -1.2902
   36SOL    HW2  143   2.564   4.423   3.905  0.5008 -1.7049 -0.0511
   36SOL     MW  144   2.641   4.416   3.865  0.3442 -0.5518 -0.6134
   37SOL     OW  145   0.273   2.947   4.891 -0.2036  0.1771  0.7186
   37SOL    HW1  146   0.309   3.005   4.824 -0.7665 -0.8248 -0.4961
   37SOL    HW2  147   0.301   2.986   4.974  1.0770  1.0812 -0.1000
   37SOL     MW  148   0.281   2.960   4.893 -0.1070  0.1640  0.4449
   38SOL     OW  149   1.795   0.637   4.589 -0.1265 -0.6058 -0.1204
   38SOL    HW1  150   1.804   0.542   4.593  0.4976 -0.5849 -0.7754
   38SOL    HW2  151   1.765   0.662   4.676 -0.6745 -1.4371 -0.0601
   38SOL     MW  152   1.792   0.627   4.601 -0.1163 -0.7149 -0.2004
   39SOL     OW  153   4.262   3.871   0.579 -0.0926  0.4085 -0.5599
   39SOL    HW1  154   4.212   3.939   0.534  1.1303  1.0039 -1.0705
   39SOL    HW2  155   4.268   3.901   0.670  0.7998  1.2127 -0.8748
   39SOL     MW  156   4.256   3.884   0.585  0.1921  0.5969 -0.6710
   40SOL     OW  157   1.187   4.702   2.793 -0.3987  0.0423  0.3169
   40SOL    HW1  158   1.249   4.638   2.827 -1.3876 -0.9681  0.3003
   40SOL    HW2  159   1.167   4.759   2.868  0.9459  0.7275  0.1707
   40SOL     MW  160   1.192   4.701   2.808 -0.3508 -0.0014  0.2950
   41SOL     OW  161   1.718   4.395   3.099 -0.8374 -0.4166  0.0014
   41SOL    HW1  162   1.765   4.358   3.174 -0.0467  2.0626  0.8535
   41SOL    HW2  163   1.638   4.430   3.137 -2.0783 -2.0813 -0.9597
   41SOL     MW  164   1.714   4.395   3.114 -0.8980 -0.3070 -0.0132
   42SOL     OW  165   3.543   0.522   1.849  0.0641 -0.0184  0.0494
   42SOL    HW1  166   3.585   0.607   1.841 -2.9649  1.5302 -0.6986
   42SOL    HW2  167   3.522   0.497   1.759  0.8751 -1.5939  0.2609
   42SOL     MW  168   3.546   0.530   1.836 -0.2344 -0.0220 -0.0228
   43SOL     OW  169   0.846   0.978   1.654  0.0387 -0.2501  0.0937
   43SOL    HW1  170   0.833   0.891   1.616  0.6094 -1.0053  1.5489
   43SOL    HW2  171   0.938   0.999   1.636 -0.0678 -0.0061 -0.1599
   43SOL     MW  172   0.857   0.969   1.647  0.1012 -0.3189  0.2554
   44SOL     OW  173   0.649   0.606   0.618  0.6255  0.3834 -0.4352
   44SOL    HW1  174   0.682   0.639   0.535 -0.9611 -1.3520 -1.8394
   44SOL    HW2  175   0.720   0.553   0.654  1.3416  1.1936 -0.6445
   44SOL     MW  176   0.663   0.603   0.612  0.5084  0.2589 -0.6524
   45SOL     OW  177   1.105   1.653   4.538  0.0479 -0.0988 -0.6452
   45SOL    HW1  178   1.104   1.709   4.616 -1.2776  0.5346 -1.0956
   45SOL    HW2  179   1.028   1.598   4.547 -0.6397  0.6030 -1.9406
   45SOL     MW  180   1.095   1.653   4.550 -0.2230  0.0809 -0.8801
   46SOL     OW  181   4.711   3.455   3.948  0.1506  0.4310 -0.7943
   46SOL    HW1  182   4.644   3.404   3.902 -1.3747 -0.3936  2.1533
   46SOL    HW2  183   4.717   3.416   4.035  0.6314  3.7834  0.8544
   46SOL     MW  184   4.703   3.443   3.953  0.0100  0.7712 -0.1757
   47SOL     OW  185   0.650   3.457   0.392 -0.4537 -1.1536  0.4327
   47SOL    HW1  186   0.607   3.517   0.453  0.9285  0.2089  0.1363
   47SOL    HW2  187   0.611   3.372   0.410 -0.6915 -0.6394  2.6288
   47SOL     MW  188   0.639   3.454   0.403 -0.2997 -0.9010  0.6884
   48SOL     OW  189   4.031   3.000   0.199 -0.5391 -0.1536 -0.1307
   48SOL    HW1  190   4.041   3.085   0.157 -1.9820 -0.1773 -0.5762
   48SOL    HW2  191   3.975   3.017   0.275 -0.4359 -0.6197  0.0509
   48SOL     MW  192   4.025   3.014   0.204 -0.7194 -0.2195 -0.1662
   49SOL     OW  193   4.104   4.744   3.896 -0.0037 -0.3889 -0.4944
   49SOL    HW1  194   4.171   4.717   3.833 -0.8138  0.8985 -1.9731
   49SOL    HW2  195   4.150   4.752   3.979  1.7961  0.9120 -1.5568
   49SOL     MW  196   4.119   4.741   3.898  0.1295 -0.0406 -0.8364
   50SOL     OW  197   0.940   5.438   2.114 -0.0664  0.7685  0.1461
   50SOL    HW1  198   0.954   5.367   2.052 -0.3850  2.6346 -2.2125
   50SOL    HW2  199   0.991   5.413   2.191  1.2121 -1.1750 -1.2345
   50SOL     MW  200   0.948   5.425   2.116  0.0628  0.7581 -0.3571
   51SOL     OW  201   2.693   0.443   2.781  0.4956  0.6796  0.1213
   51SOL    HW1  202   2.628   0.401   2.724  0.8564 -1.9856  1.4863
   51SOL    HW2  203   2.741   0.501   2.723  0.1307 -1.0587 -2.0849
   51SOL     MW  204   2.690   0.445   2.766  0.4950  0.0869  0.0081
   52SOL     OW  205   2.738   2.420   1.134 -0.0368 -0.7141 -0.6955
   52SOL    HW1  206   2.739   2.510   1.166  1.3426 -1.3356  1.1987
   52SOL    HW2  207   2.821   2.411   1.086  0.3346 -1.2322  0.0180
   52SOL     MW  208   2.750   2.431   1.132  0.1988 -0.8675 -0.3446
   53SOL     OW  209   0.934   1.338   3.605 -0.4525 -0.2533 -0.2105
   53SOL    HW1  210   1.014   1.322   3.656 -1.6687 -0.6717  1.6713
   53SOL    HW2  211   0.959   1.405   3.543  0.5925  1.9759  2.3938
   53SOL     MW  212   0.948   1.345   3.604 -0.4755 -0.0096  0.3933
   54SOL     OW  213   0.837   1.029   1.932  0.4333  0.2545 -0.2028
   54SOL    HW1  214   0.865   0.954   1.986 -1.6513 -0.1208  0.4691
   54SOL    HW2  215   0.841   0.996   1.842  1.5422  0.0404 -0.0836
   54SOL     MW  216   0.841   1.014   1.927  0.3020  0.1752 -0.0963
   55SOL     OW  217   5.108   1.649   0.589  0.4330  0.1112  0.3621
   55SOL    HW1  218   5.066   1.682   0.669  1.3835 -0.3916  1.1014
   55SOL    HW2  219   5.107   1.723   0.529 -1.9995 -0.0221  0.1069
   55SOL     MW  220   5.102   1.663   0.592  0.2336  0.0256  0.4272
   56SOL     OW  221   4.666   0.906   1.567  0.5444  0.0080  0.4427
   56SOL    HW1  222   4.702   0.868   1.487  1.1579 -1.1761  1.2375
   56SOL    HW2  223   4.687   0.999   1.561  0.1505  0.0267 -0.9808
   56SOL     MW  224   4.674   0.913   1.556  0.5740 -0.1489  0.3581
   57SOL     OW  225   1.618   2.553   2.176  0.3525  0.0195 -0.0433
   57SOL    HW1  226   1.650   2.564   2.087 -2.5924  2.1518 -1.0236
   57SOL    HW2  227   1.539   2.500   2.167  1.9257 -2.9451  1.9124
   57SOL     MW  228   1.612   2.548   2.163  0.1679 -0.0925  0.0880
   58SOL     OW  229   1.471   4.044   0.933 -0.4520 -0.3947 -0.0362
   58SOL    HW1  230   1.540   3.993   0.891 -0.7598 -0.3563 -0.6109
   58SOL    HW2  231   1.390   4.002   0.903 -0.7023  0.2884 -0.3364
   58SOL     MW  232   1.469   4.032   0.923 -0.5271 -0.2976 -0.1540
   59SOL     OW  233   1.438   0.828   3.755 -0.4735 -0.0417  0.2629
   59SOL    HW1  234   1.353   0.817   3.713 -0.5416  2.3670 -0.3431
   59SOL    HW2  235   1.429   0.907   3.808  0.9478 -0.6098  1.4349
   59SOL     MW  236   1.425   0.837   3.757 -0.2914  0.2060  0.3391
   60SOL     OW  237   5.315   2.706   3.197  0.0906 -0.3809 -0.3116
   60SOL    HW1  238   5.402   2.734   3.168  0.5160 -1.0187  0.3061
   60SOL    HW2  239   5.286   2.776   3.256  0.7463 -0.7698  0.4963
   60SOL     MW  240   5.323   2.719   3.201  0.2361 -0.5191 -0.1197
   61SOL     OW  241   3.319   0.742   2.576 -0.1194  0.0542  0.2770
   61SOL    HW1  242   3.387   0.735   2.643  1.0833  1.4865 -0.7228
   61SOL    HW2  243   3.349   0.683   2.506  0.3782  1.0468 -0.3669
   61SOL     MW  244   3.332   0.733   2.575  0.1095  0.3805  0.0558
   62SOL     OW  245   0.633   3.332   5.014 -0.2267  0.1751  0.8412
   62SOL    HW1  246   0.646   3.355   5.106 -0.3526  0.2310  0.8460
   62SOL    HW2  247   0.713   3.362   4.970 -0.3205  0.4772  0.8753
   62SOL     MW  248   0.646   3.339   5.021 -0.2563  0.2233  0.8465
   63SOL     OW  249   3.828   2.698   1.120  0.3635 -0.5317  0.2531
   63SOL    HW1  250   3.758   2.645   1.081  0.1985 -0.6246  0.6756
   63SOL    HW2  251   3.877   2.636   1.174  0.2924 -0.2930  0.5890
   63SOL     MW  252   3.825   2.682   1.122  0.3317 -0.5121  0.3552
   64SOL     OW  253   4.540   1.384   1.651  0.1055 -0.4629 -0.2320
   64SOL    HW1  254   4.597   1.412   1.722 -0.5209 -0.4445  0.2721
   64SOL    HW2  255   4.482   1.459   1.637 -1.0858 -1.2035  0.6043
   64SOL     MW  256   4.540   1.398   1.658 -0.1391 -0.5601 -0.0517
   65SOL     OW  257   4.241   3.430   5.069  0.6506  0.3709  0.0595
   65SOL    HW1  258   4.293   3.496   5.023  0.7062 -0.9141 -1.8413
   65SOL    HW2  259   4.156   3.432   5.026  0.4623 -0.3435  0.3814
   65SOL     MW  260   4.237   3.439   5.057  0.6328  0.1018 -0.1530
   66SOL     OW  261   3.946   4.774   5.383  0.7816  0.6484  0.2758
   66SOL    HW1  262   3.973   4.799   5.295  3.8421 -0.1291  0.8783
   66SOL    HW2  263   3.941   4.678   5.380  0.5916  0.6366  0.8459
   66SOL     MW  264   3.949   4.764   5.371  1.1680  0.5422  0.4336
   67SOL     OW  265   2.115   4.142   3.276  0.5215 -0.7913 -0.2405
   67SOL    HW1  266   2.119   4.155   3.181 -0.2976  1.2530 -0.0675
   67SOL    HW2  267   2.200   4.171   3.308  0.5978 -0.9387 -0.3119
   67SOL     MW  268   2.127   4.148   3.268  0.4215 -0.5360 -0.2268
   68SOL     OW  269   5.080   2.028   3.365  0.4263  0.5939  0.0308
   68SOL    HW1  270   5.105   2.118   3.341 -0.7261  0.5908 -1.2929
   68SOL    HW2  271   5.088   1.978   3.284 -0.1234 -0.2228  0.4659
   68SOL     MW  272   5.084   2.034   3.351  0.1972  0.4836 -0.0888
   69SOL     OW  273   1.282   4.075   4.165 -0.2834  0.0361  0.0624
   69SOL    HW1  274   1.227   4.018   4.219  0.5858 -0.7089  0.1719
   69SOL    HW2  275   1.372   4.048   4.184  0.1788  1.6391  0.3316
   69SOL     MW  276   1.287   4.063   4.175 -0.1042  0.1515  0.1134
   70SOL     OW  277   3.832   4.100   2.804  0.0526 -0.2535  0.2295
   70SOL    HW1  278   3.785   4.017   2.804  0.2806 -0.3873 -0.6227
   70SOL    HW2  279   3.913   4.082   2.850  1.2117 -1.1666 -2.0292
   70SOL     MW  280   3.836   4.087   2.810  0.2392 -0.3944 -0.1891
   71SOL     OW  281   4.101   4.316   1.519 -0.3182 -0.8219  0.4432
   71SOL    HW1  282   4.185   4.354   1.492 -1.0205 -0.4737 -1.4850
   71SOL    HW2  283   4.052   4.308   1.437 -1.9747 -1.5039  1.4530
   71SOL     MW  284   4.106   4.320   1.504 -0.6356 -0.8668  0.3196
   72SOL     OW  285   3.477   1.035   1.105 -0.0890  0.1888  0.2152
   72SOL    HW1  286   3.443   0.978   1.174 -1.0476  0.6993  0.1813
   72SOL    HW2  287   3.542   1.090   1.149  1.1262 -1.1509  0.1735
   72SOL     MW  288   3.481   1.035   1.120 -0.0545  0.0772  0.2050
   73SOL     OW  289   5.239   3.854   1.300 -0.3529  0.1213  0.1595
   73SOL    HW1  290   5.180   3.861   1.375 -1.4256 -0.8134 -0.5529
   73SOL    HW2  291   5.232   3.762   1.272  0.6141  0.2597 -0.6172
   73SOL     MW  292   5.230   3.843   1.306 -0.3671  0.0141 -0.0409
   74SOL     OW  293   3.671   2.604   1.490 -0.2566  0.4311 -0.3075
   74SOL    HW1  294   3.624   2.552   1.556  1.5382 -2.3566 -1.0352
   74SOL    HW2  295   3.610   2.612   1.417 -1.4648  1.6129  0.7859
   74SOL     MW  296   3.657   2.598   1.489 -0.1777  0.2150 -0.2583
   75SOL     OW  297   0.326   4.145   2.219 -0.2773  0.3705  0.1123
   75SOL    HW1  298   0.313   4.181   2.131  1.1932  0.9977  0.1160
   75SOL    HW2  299   0.378   4.066   2.204  0.3473  0.7128  0.4362
   75SOL     MW  300   0.331   4.139   2.205  0.0047  0.5009  0.1564
   76SOL     OW  301   4.408   1.506   0.559  1.0060 -0.0146 -0.2533
   76SOL    HW1  302   4.434   1.568   0.492  2.6798  0.4576  0.7800
   76SOL    HW2  303   4.354   1.441   0.513 -0.1510  1.7460 -1.4837
   76SOL     MW  304   4.404   1.505   0.544  1.0756  0.2859 -0.2799
   77SOL     OW  305   4.086   0.689   0.155 -0.0886  0.2018 -0.5678
   77SOL    HW1  306   4.025   0.734   0.097 -0.3240  0.7115  0.0617
   77SOL    HW2  307   4.170   0.692   0.110 -0.2994  0.4621 -0.9434
   77SOL     MW  308   4.089   0.695   0.141 -0.1487  0.3055 -0.5337
   78SOL     OW  309   4.891   3.273   0.838  0.2127  0.1413  0.0745
   78SOL    HW1  310   4.858   3.351   0.884 -2.0191 -0.7075  0.0347
   78SOL    HW2  311   4.941   3.308   0.764 -2.0248  1.6181 -0.8439
   78SOL     MW  312   4.894   3.288   0.834 -0.3888  0.2258 -0.0544
   79SOL     OW  313   2.920   1.574   1.703  0.2683  0.8087 -0.7699
   79SOL    HW1  314   2.936   1.592   1.796 -0.1122  1.6440 -0.8545
   79SOL    HW2  315   2.906   1.480   1.698  1.3579  0.5980 -0.1408
   79SOL     MW  316   2.921   1.564   1.715  0.3638  0.8928 -0.6966
   80SOL     OW  317   3.997   2.313   3.148 -0.6413  0.5097 -0.4761
   80SOL    HW1  318   4.065   2.336   3.211 -1.7761  0.6888  0.7315
   80SOL    HW2  319   3.921   2.364   3.175 -1.9041 -1.2852 -0.4503
   80SOL     MW  320   3.996   2.323   3.160 -0.9640  0.2923 -0.3101
   81SOL     OW  321   0.822   4.608   1.696 -0.6627  0.5259 -0.2010
   81SOL    HW1  322   0.834   4.689   1.647 -0.9000 -0.1145 -1.3597
   81SOL    HW2  323   0.893   4.551   1.667 -0.5619  0.2779  0.5196
   81SOL     MW  324   0.833   4.611   1.686 -0.6811  0.4063 -0.2600
   82SOL     OW  325   2.381   0.220   4.142  0.0208 -0.1218 -0.4296
   82SOL    HW1  326   2.308   0.282   4.142  1.2014  1.3696  0.6835
   82SOL    HW2  327   2.437   0.248   4.070  0.9840  0.7045  0.5961
   82SOL     MW  328   2.379   0.232   4.133  0.3094  0.1901 -0.1418
   83SOL     OW  329   0.257   2.788   2.703  0.1784 -0.7438  0.2298
   83SOL    HW1  330   0.217   2.703   2.723  1.8010 -1.7302 -0.4822
   83SOL    HW2  331   0.201   2.825   2.636 -2.5524  0.4109  2.9165
   83SOL     MW  332   0.244   2.781   2.697  0.0292 -0.7212  0.4955
   84SOL     OW  333   5.085   5.490   2.643  0.1877 -0.4432  0.4802
   84SOL    HW1  334   5.042   5.407   2.665  1.1725 -0.2133  3.6343
   84SOL    HW2  335   5.178   5.473   2.655  0.7860  0.2154 -2.3828
   84SOL     MW  336   5.091   5.476   2.647  0.4008 -0.3236  0.5194
   85SOL     OW  337   2.775   5.105   3.153  0.0392  0.1962 -0.3810
   85SOL    HW1  338   2.830   5.176   3.184  2.3872 -2.3670  1.8500
   85SOL    HW2  339   2.816   5.076   3.071  1.1467 -0.6829  0.4562
   85SOL     MW  340   2.788   5.111   3.146  0.5043 -0.2671  0.0319
   86SOL     OW  341   5.162   1.197   1.800 -0.5573 -0.0525  0.1754
   86SOL    HW1  342   5.248   1.198   1.758 -1.2535 -0.3943 -1.3611
   86SOL    HW2  343   5.180   1.189   1.893  1.1448  2.5868  0.1605
   86SOL     MW  344   5.176   1.196   1.807 -0.4219  0.2567 -0.0334
   87SOL     OW  345   2.425   3.939   0.462 -0.5147  0.0671  0.0942
   87SOL    HW1  346   2.442   4.027   0.428  0.5203 -0.3064 -0.3855
   87SOL    HW2  347   2.482   3.882   0.411 -1.0882 -0.8777  0.4851
   87SOL     MW  348   2.435   3.943   0.451 -0.4526 -0.1103  0.0823
   88SOL     OW  349   1.198   1.811   4.199 -0.0602  0.5726 -0.0367
   88SOL    HW1  350   1.247   1.737   4.164 -0.2164  0.6159 -0.3433
   88SOL    HW2  351   1.106   1.785   4.193 -0.0612  0.3321  0.9050
   88SOL     MW  352   1.192   1.798   4.194 -0.0813  0.5461  0.0488
   89SOL     OW  353   2.361   0.704   3.680  0.1305 -0.4464  0.8060
   89SOL    HW1  354   2.406   0.737   3.758  2.0123 -1.0284  0.0436
   89SOL    HW2  355   2.307   0.777   3.650 -2.4804 -0.9244  3.8785
   89SOL     MW  356   2.360   0.718   3.686  0.0323 -0.5891  1.1169
   90SOL     OW  357   4.217   2.631   2.144  0.0584 -0.1432 -0.0129
   90SOL    HW1  358   4.211   2.714   2.097  1.7586 -0.4136 -0.7706
   90SOL    HW2  359   4.262   2.572   2.084 -3.5587 -2.5750 -0.6973
   90SOL     MW  360   4.222   2.634   2.129 -0.1996 -0.5068 -0.2070
   91SOL     OW  361   1.701   5.296   3.071 -0.3461 -0.4982  0.1973
   91SOL    HW1  362   1.795   5.309   3.083  0.1275 -1.0456 -2.3229
   91SOL    HW2  363   1.667   5.382   3.049 -0.3510 -0.4062  0.5545
   91SOL     MW  364   1.709   5.309   3.070 -0.2830 -0.5595 -0.0938
   92SOL     OW  365   4.470   1.585   3.820  0.6683 -0.3238  0.0904
   92SOL    HW1  366   4.501   1.675   3.832  0.0728 -0.3658  2.5540
   92SOL    HW2  367   4.527   1.548   3.753  0.4610  2.0808 -1.5172
   92SOL     MW  368   4.482   1.592   3.813  0.5603 -0.0059  0.2056
   93SOL     OW  369   3.039   1.118   4.836 -0.2343  0.3308 -0.4870
   93SOL    HW1  370   2.961   1.165   4.866 -0.7781  0.0571 -1.4213
   93SOL    HW2  371   3.061   1.059   4.908 -1.4646 -0.2623 -0.5753
   93SOL     MW  372   3.032   1.117   4.850 -0.4731  0.2142 -0.6246
   94SOL     OW  373   0.473   3.826   1.550 -0.8288 -0.4617  0.2079
   94SOL    HW1  374   0.416   3.883   1.499  0.0856  0.2034 -0.0946
   94SOL    HW2  375   0.493   3.753   1.491  1.2271  0.9163 -0.9005
   94SOL     MW  376   0.468   3.824   1.535 -0.4291 -0.1868  0.0180
   95SOL     OW  377   4.647   5.056   4.650  0.5207 -0.1001  0.0766
   95SOL    HW1  378   4.680   5.071   4.739 -0.0754  0.1435  0.2571
   95SOL    HW2  379   4.581   5.124   4.636 -0.1103 -0.7514 -0.1805
   95SOL     MW  380   4.643   5.067   4.660  0.3555 -0.1550  0.0663
   96SOL     OW  381   1.180   3.396   0.049 -0.6239  0.1753  0.5567
   96SOL    HW1  382   1.109   3.353  -0.000  2.9010 -2.8000 -2.5933
   96SOL    HW2  383   1.196   3.337   0.123  0.5417 -1.0151 -0.5861
   96SOL     MW  384   1.173   3.382   0.052  0.0074 -0.3853 -0.0210
   97SOL     OW  385   1.341   1.756   0.528 -0.5117  0.0484 -0.4728
   97SOL    HW1  386   1.426   1.726   0.496 -0.0213 -0.6479  1.3057
   97SOL    HW2  387   1.277   1.700   0.484  0.1671 -1.2447  0.1219
   97SOL     MW  388   1.344   1.744   0.518 -0.3543 -0.2194 -0.1534
   98SOL     OW  389   3.443   2.416   2.826  0.1537  0.0932  0.2336
   98SOL    HW1  390   3.446   2.323   2.802  0.6036  0.5861 -1.8466
   98SOL    HW2  391   3.532   2.436   2.856  0.2143 -0.0344  0.1393
   98SOL     MW  392   3.456   2.406   2.827  0.2224  0.1424 -0.0590
   99SOL     OW  393   2.623   0.637   5.018 -0.0026  0.2839  0.2758
   99SOL    HW1  394   2.686   0.626   5.089  1.6717  1.2544 -0.9884
   99SOL    HW2  395   2.610   0.731   5.012 -2.6519  0.0663  1.3404
   99SOL     MW  396   2.630   0.648   5.027 -0.1338  0.3852  0.2490
  100SOL     OW  397   4.164   3.347   0.897 -0.6168  0.0572 -0.3789
  100SOL    HW1  398   4.073   3.373   0.886 -0.1064  1.6648 -1.1635
  100SOL    HW2  399   4.214   3.428   0.886  0.9261 -0.8131 -0.1531
  100SOL     MW  400   4.159   3.361   0.894 -0.3405  0.1564 -0.4541
  101SOL     OW  401   1.932   1.450   1.928 -0.0207  0.1214  0.3496
  101SOL    HW1  402   1.878   1.456   1.849 -1.9025 -2.3675  1.3302
  101SOL    HW2  403   1.930   1.358   1.952  0.1031  0.8235  3.5407
  101SOL     MW  404   1.924   1.439   1.920 -0.2573 -0.1191  0.9110
  102SOL     OW  405   0.731   0.804   2.226 -0.2455  0.1628 -0.2795
  102SOL    HW1  406   0.684   0.721   2.238 -1.2280  0.6844 -0.4696
  102SOL    HW2  407   0.771   0.797   2.139 -1.6104  0.4918 -0.9574
  102SOL     MW  408   0.730   0.792   2.216 -0.5614  0.2773 -0.3963
  103SOL     OW  409   2.005   2.263   3.019 -0.0125 -0.0637 -0.2699
  103SOL    HW1  410   1.997   2.199   2.949  1.1857  0.9121 -1.3550
  103SOL    HW2  411   1.969   2.344   2.982  1.9337  0.8373 -0.3269
  103SOL     MW  412   1.999   2.265   3.005  0.4107  0.1889 -0.4236
  104SOL     OW  413   0.848   4.007   5.211 -0.2799 -0.0348  0.0626
  104SOL    HW1  414   0.757   4.032   5.226 -0.2422 -0.8578  2.0599
  104SOL    HW2  415   0.894   4.035   5.291  0.8842 -1.0794 -0.1987
  104SOL     MW  416   0.842   4.014   5.224 -0.1182 -0.2862  0.2963
  105SOL     OW  417   0.826   5.130   5.485 -0.2034  0.2388  0.0102
  105SOL    HW1  418   0.829   5.187   5.561  0.1550 -0.7290  0.7401
  105SOL    HW2  419   0.739   5.145   5.448 -1.3897 -1.0584  2.0484
  105SOL     MW  420   0.814   5.140   5.490 -0.3148 -0.0660  0.3828
  106SOL     OW  421   4.321   2.852  -0.030  0.1033 -0.4315  0.0041
  106SOL    HW1  422   4.236   2.826   0.006 -0.5660  0.9927 -0.4837
  106SOL    HW2  423   4.381   2.847   0.044 -0.2428 -2.0971  0.2088
  106SOL     MW  424   4.317   2.848  -0.015 -0.0333 -0.4640 -0.0340
  107SOL     OW  425   5.378   0.495   4.804  0.5548  0.3899  0.6423
  107SOL    HW1  426   5.429   0.573   4.823  1.2256 -0.0042  0.4996
  107SOL    HW2  427   5.344   0.466   4.889 -1.7978  2.2127  0.4369
  107SOL     MW  428   5.380   0.502   4.818  0.3285  0.5822  0.5955
  108SOL     OW  429   3.638   4.847   5.189 -0.4943  0.3218 -0.0892
  108SOL    HW1  430   3.665   4.877   5.276  0.2668  0.3201 -0.3192
  108SOL    HW2  431   3.604   4.926   5.146 -0.1760  0.4846 -0.0494
  108SOL     MW  432   3.637   4.862   5.195 -0.3491  0.3435 -0.1148
  109SOL     OW  433  -0.007   2.807   5.134 -0.0161 -0.0631  0.1651
  109SOL    HW1  434  -0.010   2.711   5.137  0.0532 -0.0312  2.5110
  109SOL    HW2  435   0.072   2.830   5.183 -1.3638  1.2409  1.8466
  109SOL     MW  436   0.003   2.797   5.141 -0.1881  0.1167  0.7071
  110SOL     OW  437   1.706   5.084   1.303 -0.9188 -0.2093  0.6384
  110SOL    HW1  438   1.791   5.120   1.328 -0.9811  0.9793 -0.7569
  110SOL    HW2  439   1.725   4.992   1.283 -0.1008 -0.1271  0.9652
  110SOL     MW  440   1.720   5.076   1.304 -0.8171 -0.0383  0.4946
  111SOL     OW  441   3.554   4.327   1.597 -0.0826  0.1516  0.1209
  111SOL    HW1  442   3.470   4.372   1.603 -0.8980 -0.5942 -3.3653
  111SOL    HW2  443   3.532   4.234   1.602  0.9203 -0.0288  1.8289
  111SOL     MW  444   3.540   4.321   1.598 -0.0573  0.0269 -0.1184
  112SOL     OW  445   1.716   2.042   4.842  0.5048  0.1651 -0.0584
  112SOL    HW1  446   1.649   1.980   4.872  0.4942  0.9561  1.6771
  112SOL    HW2  447   1.686   2.127   4.875  1.3250  0.8563 -1.0414
  112SOL     MW  448   1.703   2.045   4.851  0.6137  0.3646  0.0429
  113SOL     OW  449   0.350   3.627   1.398  0.0896 -0.6110 -0.3306
  113SOL    HW1  450   0.346   3.540   1.358  0.7644 -0.8995  0.2141
  113SOL    HW2  451   0.263   3.664   1.383 -0.3660 -1.5678 -0.1487
  113SOL     MW  452   0.338   3.620   1.391  0.1191 -0.7786 -0.2328
  114SOL     OW  453   2.135   0.459   5.508 -0.2308  0.4200  0.0119
  114SOL    HW1  454   2.224   0.424   5.510  0.2523  1.5789 -0.4053
  114SOL    HW2  455   2.126   0.498   5.421 -1.2706  0.0211 -0.0718
  114SOL     MW  456   2.146   0.460   5.497 -0.3057  0.5223 -0.0555
  115SOL     OW  457   2.177   1.036   5.403  0.0116  0.4390  0.3757
  115SOL    HW1  458   2.227   1.114   5.425  1.3932 -0.9439  2.4694
  115SOL    HW2  459   2.237   0.983   5.351 -0.1839 -0.1234  0.7150
  115SOL     MW  460   2.192   1.039   5.399  0.1712  0.1772  0.7031
  116SOL     OW  461   2.562   2.178   0.943  0.3194  0.0087  0.1979
  116SOL    HW1  462   2.606   2.134   1.016  1.1767  2.1706  1.0752
  116SOL    HW2  463   2.629   2.182   0.874  0.9037  1.4872  0.7973
  116SOL     MW  464   2.577   2.173   0.944  0.5134  0.4986  0.3966
  117SOL     OW  465   0.232   3.396   0.941 -0.0275 -0.1383 -0.1877
  117SOL    HW1  466   0.263   3.440   0.862 -1.9791 -0.2417 -1.0520
  117SOL    HW2  467   0.236   3.302   0.920 -0.7581 -0.1581 -0.2645
  117SOL     MW  468   0.237   3.389   0.928 -0.3885 -0.1549 -0.3143
  118SOL     OW  469   0.338   4.680   5.173  0.1059 -0.2952  0.1677
  118SOL    HW1  470   0.343   4.621   5.099  1.0822 -1.2281  0.9513
  118SOL    HW2  471   0.428   4.709   5.188 -0.1413  0.2306  0.7184
  118SOL     MW  472   0.351   4.676   5.165  0.2040 -0.3500  0.3472
  119SOL     OW  473   0.797   5.375   0.727  0.6450  0.5884 -0.3351
  119SOL    HW1  474   0.874   5.393   0.781  0.8185 -2.4930  0.6573
  119SOL    HW2  475   0.812   5.286   0.693 -1.9711  0.3183 -0.9900
  119SOL     MW  476   0.809   5.365   0.729  0.3162  0.1373 -0.2897
  120SOL     OW  477   0.120   3.083   0.185  0.1215  0.0429  0.5652
  120SOL    HW1  478   0.200   3.079   0.133 -0.3165 -0.2296 -0.1047
  120SOL    HW2  479   0.050   3.099   0.121 -0.5193 -0.9818  0.9748
  120SOL     MW  480   0.121   3.085   0.170 -0.0237 -0.1317  0.5302
  121SOL     OW  481   4.484   1.808   3.330 -0.3150  0.1209  0.5302
  121SOL    HW1  482   4.425   1.857   3.273  1.2026  1.3268 -0.0963
  121SOL    HW2  483   4.572   1.833   3.301  0.5771 -2.8342  0.3488
  121SOL     MW  484   4.488   1.818   3.319  0.0093 -0.1145  0.4215
  122SOL     OW  485   3.074   2.316   2.633 -0.4792  0.6226 -0.4461
  122SOL    HW1  486   3.117   2.286   2.713 -0.2786  1.5039 -0.2082
  122SOL    HW2  487   2.986   2.278   2.637 -0.4130  0.5157  0.1075
  122SOL     MW  488   3.068   2.307   2.645 -0.4433  0.7268 -0.3396
  123SOL     OW  489   0.248   3.692   4.785 -0.4429  0.0153  0.3369
  123SOL    HW1  490   0.281   3.748   4.715  1.3214 -1.0606  0.2439
  123SOL    HW2  491   0.232   3.751   4.858 -1.0271  0.9668 -0.5415
  123SOL     MW  492   0.250   3.707   4.785 -0.2841 -0.0014  0.2061
  124SOL     OW  493   1.453   2.087   0.096  0.0917  0.5642  0.1215
  124SOL    HW1  494   1.502   2.015   0.135  0.3398 -0.2383 -1.6021
  124SOL    HW2  495   1.369   2.049   0.072 -0.2690  1.1896  0.3651
  124SOL     MW  496   1.448   2.072   0.098  0.0765  0.5404 -0.0777
  125SOL     OW  497   0.650   2.448   3.636  0.2687 -0.0603  0.2440
  125SOL    HW1  498   0.667   2.542   3.644  2.1151 -0.3839  0.3444
  125SOL    HW2  499   0.734   2.406   3.651 -0.0720 -1.6636 -1.8439
  125SOL     MW  500   0.663   2.455   3.639  0.4714 -0.3196 -0.0235
  126SOL     OW  501   2.922   1.845   4.285  0.6190 -0.2032  0.8319
  126SOL    HW1  502   2.934   1.938   4.307 -0.8474  0.6666 -1.5811
  126SOL    HW2  503   2.899   1.803   4.367  1.0191  1.6244  1.9378
  126SOL     MW  504   2.921   1.852   4.299  0.4755  0.1598  0.6560
  127SOL     OW  505   0.091   3.351   4.917 -0.2569 -0.1311  0.7865
  127SOL    HW1  506   0.097   3.395   4.832 -1.1357 -0.0955  0.7404
  127SOL    HW2  507   0.015   3.293   4.909 -0.4558  0.0036  1.6165
  127SOL     MW  508   0.082   3.349   4.904 -0.4020 -0.1082  0.8920
  128SOL     OW  509   5.394   1.811   1.146  0.2818  0.1051  0.4732
  128SOL    HW1  510   5.302   1.786   1.155  0.2828  0.4985  1.7646
  128SOL    HW2  511   5.439   1.763   1.215  0.7760  1.1761  0.9313
  128SOL     MW  512   5.388   1.801   1.156  0.3485  0.3022  0.7087
  129SOL     OW  513   5.249   0.681   0.266 -0.1515 -0.0567  0.1910
  129SOL    HW1  514   5.335   0.723   0.258  0.2025 -0.6623  0.7459
  129SOL    HW2  515   5.255   0.603   0.211 -1.1347  1.0775 -1.6187
  129SOL     MW  516   5.262   0.676   0.257 -0.2361  0.0144  0.0221
  130SOL     OW  517   2.245   3.191   1.206  0.3823 -0.0915 -0.2422
  130SOL    HW1  518   2.177   3.190   1.274  0.8767  0.6422  0.2795
  130SOL    HW2  519   2.246   3.101   1.172 -1.2044  0.0101 -0.6292
  130SOL     MW  520   2.236   3.178   1.211  0.2353  0.0209 -0.2241
  131SOL     OW  521   1.626   4.209   2.891  0.2889 -0.5261  0.0746
  131SOL    HW1  522   1.705   4.156   2.886 -0.4779 -1.8761  1.3416
  131SOL    HW2  523   1.643   4.270   2.962  1.6102  1.8269 -2.0950
  131SOL     MW  524   1.639   4.210   2.900  0.3636 -0.3911 -0.0468
  132SOL     OW  525   4.092   0.879   4.267  0.3040  0.2377  0.1347
  132SOL    HW1  526   4.023   0.944   4.279  0.1840  0.3162 -0.9249
  132SOL    HW2  527   4.073   0.838   4.182  2.2261  1.1104 -0.7738
  132SOL     MW  528   4.080   0.882   4.257  0.5466  0.3657 -0.1302
  133SOL     OW  529   5.079   2.001   4.158 -0.1590 -0.1703 -0.1035
  133SOL    HW1  530   5.093   2.089   4.123 -3.4431  1.4397  2.0789
  133SOL    HW2  531   5.120   2.004   4.245 -0.9463 -0.5070  0.2846
  133SOL     MW  532   5.087   2.013   4.165 -0.7069  0.0011  0.2424
  134SOL     OW  533   1.260   2.928   2.711 -0.4078 -0.2363  0.0643
  134SOL    HW1  534   1.268   2.868   2.785 -0.1721 -0.8564 -0.4489
  134SOL    HW2  535   1.262   2.871   2.634  3.7298  0.5549 -0.6826
  134SOL     MW  536   1.262   2.912   2.710  0.1808 -0.2133 -0.1053
  135SOL     OW  537   0.866   0.304   1.229 -0.1570  0.5667  0.0549
  135SOL    HW1  538   0.771   0.302   1.233 -0.1373  1.5293  2.7195
  135SOL    HW2  539   0.888   0.251   1.152 -2.7693 -0.7830  0.1441
  135SOL     MW  540   0.857   0.296   1.219 -0.5059  0.5146  0.4255
  136SOL     OW  541   4.847   1.959   2.509  0.1733  0.1313 -0.3046
  136SOL    HW1  542   4.768   1.957   2.563  0.0850  1.0242 -0.3758
  136SOL    HW2  543   4.919   1.957   2.571  0.0801  0.3856 -0.1858
  136SOL     MW  544   4.846   1.958   2.524  0.1489  0.2857 -0.2982
  137SOL     OW  545   2.870   1.597   2.525 -0.0768 -0.1538 -0.0229
  137SOL    HW1  546   2.815   1.545   2.466 -1.0026  1.4175 -0.5988
  137SOL    HW2  547   2.949   1.615   2.475 -1.8778  3.3677 -1.9772
  137SOL     MW  548   2.873   1.592   2.510 -0.4438  0.5316 -0.3634
  138SOL     OW  549   3.009   0.435   0.212  0.2500 -0.3219 -0.0856
  138SOL    HW1  550   2.937   0.496   0.228 -0.0861 -0.9926  1.0802
  138SOL    HW2  551   3.082   0.490   0.186  0.2881  0.7201  2.0451
  138SOL     MW  552   3.009   0.451   0.211  0.2099 -0.2719  0.3580
  139SOL     OW  553   5.414   5.395   5.259 -0.0802 -0.0120  0.0688
  139SOL    HW1  554   5.331   5.416   5.216 -0.2660 -1.4858 -0.3564
  139SOL    HW2  555   5.475   5.380   5.186  0.2835  0.0501  0.3595
  139SOL     MW  556   5.411   5.396   5.243 -0.0563 -0.2020  0.0507
  140SOL     OW  557   2.542   1.256   4.763  0.6896  0.4848  0.2875
  140SOL    HW1  558   2.477   1.191   4.790 -0.9931  2.1221  0.3938
  140SOL    HW2  559   2.500   1.341   4.779  2.0230  1.6083 -1.6760
  140SOL     MW  560   2.528   1.259   4.769  0.6426  0.8564  0.0375
  141SOL     OW  561   1.199   0.777   5.419 -0.4383  0.4318  0.4589
  141SOL    HW1  562   1.235   0.843   5.479 -0.1468 -0.1418  0.9283
  141SOL    HW2  563   1.119   0.747   5.462 -0.3865  0.2292  0.4128
  141SOL     MW  564   1.193   0.782   5.433 -0.3921  0.3274  0.5158
  142SOL     OW  565   3.735   0.889   4.011 -0.1123  0.2485  0.2523
  142SOL    HW1  566   3.713   0.869   4.102 -2.1734  0.0726 -0.2188
  142SOL    HW2  567   3.700   0.814   3.962  2.3982 -0.4588 -0.6002
  142SOL     MW  568   3.727   0.876   4.017 -0.0518  0.1296  0.0742
  143SOL     OW  569   1.128   4.359   0.924 -0.1898 -0.0897  0.1736
  143SOL    HW1  570   1.045   4.312   0.930 -0.0602 -0.2658  0.6594
  143SOL    HW2  571   1.170   4.324   0.846 -1.0469  0.7783 -0.7034
  143SOL     MW  572   1.122   4.348   0.914 -0.2877  0.0034  0.1209
  144SOL     OW  573   3.274   0.286   2.070 -0.3189  0.0358  0.1766
  144SOL    HW1  574   3.201   0.335   2.033 -0.0874  1.3671  1.4210
  144SOL    HW2  575   3.240   0.248   2.151  0.0270 -0.3348  0.1540
  144SOL     MW  576   3.260   0.287   2.076 -0.2412  0.1651  0.3410
  145SOL     OW  577   3.440   3.606   2.419  0.0999 -0.2815 -0.3618
  145SOL    HW1  578   3.417   3.557   2.340  1.6653  0.3199 -1.2462
  145SOL    HW2  579   3.501   3.549   2.465 -0.7133 -0.5778  0.3726
  145SOL     MW  580   3.445   3.592   2.414  0.2012 -0.2405 -0.3820
  146SOL     OW  581   2.206   0.228   3.268  0.0961  0.1622 -0.3337
  146SOL    HW1  582   2.285   0.174   3.269  1.7352  2.3177 -2.1839
  146SOL    HW2  583   2.176   0.223   3.177  0.2438  2.1852 -0.5287
  146SOL     MW  584   2.213   0.220   3.256  0.3366  0.7246 -0.6090
  147SOL     OW  585   0.545   4.209   3.791  0.6849  0.7706 -0.0048
  147SOL    HW1  586   0.556   4.120   3.759  0.4610  0.7467 -0.0171
  147SOL    HW2  587   0.624   4.226   3.843  0.4583  0.3534  0.4860
  147SOL     MW  588   0.557   4.199   3.794  0.6242  0.7113  0.0596
  148SOL     OW  589   2.535   3.215   4.680 -0.1814  0.4159  0.2341
  148SOL    HW1  590   2.560   3.304   4.705 -0.1944  0.2835  0.7165
  148SOL    HW2  591   2.582   3.199   4.598  0.6500  0.4762  0.6960
  148SOL     MW  592   2.545   3.225   4.672 -0.0713  0.4062  0.3612
  149SOL     OW  593   4.273   0.447   5.123 -0.0942  0.1922 -0.0380
  149SOL    HW1  594   4.251   0.471   5.033 -1.5365  1.5090  0.6333
  149SOL    HW2  595   4.190   0.445   5.169  0.5695 -0.9382  1.1929
  149SOL     MW  596   4.259   0.450   5.117 -0.1990  0.2172  0.2180
  150SOL     OW  597   0.028   1.027   2.345 -0.1639 -0.3522 -0.1723
  150SOL    HW1  598   0.119   0.998   2.347 -0.0631 -0.0126  0.1948
  150SOL    HW2  599   0.021   1.080   2.266 -0.3598 -1.3792 -0.8777
  150SOL     MW  600   0.039   1.030   2.334 -0.1767 -0.4447 -0.2178
  151SOL     OW  601   3.551   2.942   2.200  0.5140  0.1181  0.3529
  151SOL    HW1  602   3.505   3.009   2.251 -1.0016 -0.8625  0.3375
  151SOL    HW2  603   3.482   2.892   2.158  1.6707 -0.5716 -0.7968
  151SOL     MW  604   3.536   2.944   2.202  0.4657 -0.1067  0.1961
  152SOL     OW  605   2.065   4.431   4.996  0.0895  0.2017  0.1317
  152SOL    HW1  606   2.095   4.506   5.048 -0.7659  0.4890  0.2195
  152SOL    HW2  607   1.973   4.450   4.978 -0.0434 -0.6754 -0.1236
  152SOL     MW  608   2.057   4.444   5.001 -0.0435  0.1223  0.1091
  153SOL     OW  609   4.436   1.735   1.768  0.6815  0.1817 -0.4240
  153SOL    HW1  610   4.392   1.792   1.704 -2.1247 -0.5573  0.6703
  153SOL    HW2  611   4.376   1.661   1.779  3.0385 -1.7610  0.0476
  153SOL     MW  612   4.422   1.733   1.761  0.6211 -0.1792 -0.2133
  154SOL     OW  613   1.236   3.921   0.896  0.2488 -0.4110  0.1326
  154SOL    HW1  614   1.240   3.826   0.908 -0.2231 -0.5625 -0.8079
  154SOL    HW2  615   1.172   3.951   0.961  0.2916 -0.7462  0.3342
  154SOL     MW  616   1.228   3.913   0.907  0.1910 -0.4765  0.0332
  155SOL     OW  617   3.770   0.102   1.271 -0.3059  0.2703  0.0952
  155SOL    HW1  618   3.689   0.111   1.321 -1.5264  2.5604 -2.0489
  155SOL    HW2  619   3.798   0.013   1.288 -1.9229  0.1499  2.8441
  155SOL     MW  620   3.763   0.092   1.280 -0.6878  0.5623  0.1766
  156SOL     OW  621   5.468   3.516   1.725  0.4954  0.2263  0.5621
  156SOL    HW1  622   5.562   3.532   1.729  0.2247  2.5843 -0.2340
  156SOL    HW2  623   5.444   3.541   1.635 -0.6288 -2.2503  0.1024
  156SOL     MW  624   5.477   3.522   1.713  0.3077  0.2104  0.3931
  157SOL     OW  625   0.641   1.013   3.672  0.0936  0.5869  0.2613
  157SOL    HW1  626   0.669   1.100   3.645 -0.7129  1.0042  0.7199
  157SOL    HW2  627   0.713   0.955   3.646  0.7522  1.4178  0.1920
  157SOL     MW  628   0.654   1.017   3.665  0.0737  0.7549  0.3137
  158SOL     OW  629   3.164   4.049   0.707  0.0820 -0.2635  0.2825
  158SOL    HW1  630   3.223   3.976   0.719  0.0248 -0.2769  0.4782
  158SOL    HW2  631   3.220   4.127   0.711  0.3976 -0.3549 -1.5376
  158SOL     MW  632   3.179   4.050   0.709  0.1168 -0.2776  0.0639
  159SOL     OW  633   4.872   0.382   2.483 -0.2120 -0.1982 -0.1485
  159SOL    HW1  634   4.927   0.452   2.516 -0.2892  0.6670 -1.7470
  159SOL    HW2  635   4.889   0.381   2.388 -0.6515 -1.9462 -0.2419
  159SOL     MW  636   4.881   0.391   2.474 -0.2816 -0.3170 -0.3762
  160SOL     OW  637   3.209   2.114   2.532  0.4154  0.6174 -0.3496
  160SOL    HW1  638   3.149   2.087   2.463  0.9760  1.5856 -1.2386
  160SOL    HW2  639   3.165   2.188   2.575  0.4777  0.6045 -0.2626
  160SOL     MW  640   3.195   2.120   2.529  0.4992  0.7460 -0.4575
  161SOL     OW  641   3.483   1.508   4.265  0.5237  0.1434  0.1558
  161SOL    HW1  642   3.578   1.519   4.270  0.3821  0.8376  2.4906
  161SOL    HW2  643   3.448   1.565   4.334 -1.5082 -1.0390  0.1989
  161SOL     MW  644   3.491   1.517   4.275  0.2312  0.0777  0.4758
  162SOL     OW  645   3.479   0.944   4.642  0.3424  0.2450 -0.0125
  162SOL    HW1  646   3.386   0.938   4.665  0.3857 -0.0762  0.0939
  162SOL    HW2  647   3.503   1.034   4.663 -0.3441  0.8382 -1.5687
  162SOL     MW  648   3.469   0.955   4.647  0.2558  0.2816 -0.2076
  163SOL     OW  649   1.869   4.171   0.706 -0.1912  0.0841 -0.2322
  163SOL    HW1  650   1.868   4.193   0.613  1.2582  0.1062 -0.2684
  163SOL    HW2  651   1.867   4.256   0.751 -0.9781  0.0715 -0.2207
  163SOL     MW  652   1.868   4.186   0.700 -0.1021  0.0854 -0.2355
  164SOL     OW  653   3.555   5.119   5.112  0.0445 -0.2847 -0.0353
  164SOL    HW1  654   3.559   5.175   5.189 -1.5539 -0.1920  0.0104
  164SOL    HW2  655   3.627   5.148   5.057  0.1418  0.8139  0.6521
  164SOL     MW  656   3.565   5.130   5.115 -0.1575 -0.1243  0.0634
  165SOL     OW  657   0.863   1.300   4.999 -0.1657  0.1113 -0.0165
  165SOL    HW1  658   0.936   1.240   4.986 -1.5568 -1.6082 -0.1978
  165SOL    HW2  659   0.811   1.261   5.070 -1.1878  1.0079 -0.2388
  165SOL     MW  660   0.866   1.287   5.007 -0.4905  0.0006 -0.0708
  166SOL     OW  661   5.157   1.936   5.460  0.1733 -0.1008 -0.5650
  166SOL    HW1  662   5.191   1.889   5.384 -0.3117 -1.2160 -0.1129
  166SOL    HW2  663   5.181   1.881   5.535 -3.0458 -1.2683 -0.2484
  166SOL     MW  664   5.165   1.922   5.460 -0.3252 -0.4080 -0.4615
  167SOL     OW  665   2.891   4.112   1.492  0.0237  0.2949  0.3170
  167SOL    HW1  666   2.867   4.183   1.550 -1.4749  0.2017 -0.1446
  167SOL    HW2  667   2.849   4.134   1.408 -0.2422 -0.9823  0.0926
  167SOL     MW  668   2.882   4.124   1.488 -0.2138  0.1105  0.2247
  168SOL     OW  669   3.864   0.853   4.696 -0.6426  0.0716 -0.2594
  168SOL    HW1  670   3.959   0.838   4.690 -0.3132  1.5643  0.7485
  168SOL    HW2  671   3.835   0.794   4.765 -0.3316  0.1300 -0.0785
  168SOL     MW  672   3.873   0.843   4.704 -0.5564  0.2804 -0.0994
  169SOL     OW  673   4.137   0.715   1.875 -0.1810  0.2034 -0.1485
  169SOL    HW1  674   4.220   0.754   1.849  0.7377 -1.2012  0.5439
  169SOL    HW2  675   4.148   0.622   1.857 -1.6880  0.0162 -0.2172
  169SOL     MW  676   4.149   0.708   1.869 -0.2602 -0.0108 -0.0646
  170SOL     OW  677   3.379   1.978   5.086 -0.0524  0.4506  0.2033
  170SOL    HW1  678   3.345   2.035   5.017  1.7348 -0.6109 -1.6425
  170SOL    HW2  679   3.344   1.891   5.065  1.0854 -0.0217  0.1915
  170SOL     MW  680   3.369   1.974   5.074  0.3413  0.2442 -0.0467
  171SOL     OW  681   0.375   4.539   4.958 -0.6083 -0.3570 -0.3075
  171SOL    HW1  682   0.352   4.446   4.953  0.6926 -0.6556 -1.6920
  171SOL    HW2  683   0.470   4.539   4.975 -0.8180  0.7528  1.0491
  171SOL     MW  684   0.385   4.527   4.959 -0.4615 -0.2478 -0.3113
  172SOL     OW  685   4.520   3.018   1.374  0.7639  0.3945  0.8480
  172SOL    HW1  686   4.560   2.933   1.393  1.5489  0.7723  0.9208
  172SOL    HW2  687   4.581   3.060   1.313 -0.3308  0.3322 -0.3472
  172SOL     MW  688   4.534   3.012   1.368  0.7222  0.4370  0.6969
  173SOL     OW  689   2.549   3.058   0.792  0.9203 -0.4484  0.0834
  173SOL    HW1  690   2.540   3.060   0.696 -0.3342 -1.1286  0.1667
  173SOL    HW2  691   2.543   3.150   0.818 -2.5084 -0.4146 -0.2599
  173SOL     MW  692   2.547   3.071   0.782  0.2900 -0.5354  0.0484
  174SOL     OW  693   2.047   2.626   0.936 -0.3550 -0.4259 -0.2052
  174SOL    HW1  694   2.006   2.671   0.863 -0.2961  1.8536  1.0623
  174SOL    HW2  695   2.140   2.649   0.929 -0.2801 -0.5568  0.3177
  174SOL     MW  696   2.054   2.635   0.925 -0.3370 -0.1367  0.0358
  175SOL     OW  697   5.278   0.040   3.894 -0.2538 -0.0666  0.1188
  175SOL    HW1  698   5.274  -0.052   3.921 -0.8961  0.0967  0.6258
  175SOL    HW2  699   5.190   0.058   3.862 -0.5514  0.7426  1.3137
  175SOL     MW  700   5.265   0.030   3.893 -0.3803  0.0643  0.3478
  176SOL     OW  701   0.188   1.235   2.612  0.0070  0.4208  0.0479
  176SOL    HW1  702   0.110   1.184   2.591  0.7860 -1.0242  0.5571
  176SOL    HW2  703   0.160   1.296   2.680 -1.0722  1.0877 -0.9502
  176SOL     MW  704   0.174   1.236   2.618 -0.0334  0.3161 -0.0179
  177SOL     OW  705   1.909   3.461   3.008 -0.3536  0.1357  0.3053
  177SOL    HW1  706   2.003   3.465   3.027 -0.4357  1.6508  0.5394
  177SOL    HW2  707   1.867   3.470   3.093 -0.6991  1.1677  0.0459
  177SOL     MW  708   1.916   3.463   3.022 -0.4111  0.4785  0.3019
  178SOL     OW  709   2.673   1.411   0.496  0.2751  0.4394  0.2093
  178SOL    HW1  710   2.644   1.338   0.549  0.4686 -0.4332 -0.8379
  178SOL    HW2  711   2.593   1.456   0.469  0.1405  0.4520  0.6383
  178SOL     MW  712   2.658   1.407   0.499  0.2830  0.3236  0.1261
  179SOL     OW  713   4.738   4.069   0.179  0.3164  0.5085 -0.4568
  179SOL    HW1  714   4.832   4.068   0.196  0.0245 -0.5932  1.4223
  179SOL    HW2  715   4.722   3.986   0.134  0.3534  1.1271 -1.6422
  179SOL     MW  716   4.749   4.058   0.176  0.2821  0.4435 -0.3635
  180SOL     OW  717   0.560   4.438   4.115 -0.8415 -0.0119 -0.0187
  180SOL    HW1  718   0.585   4.365   4.172 -0.8801 -1.8813 -2.2260
  180SOL    HW2  719   0.474   4.466   4.147 -1.2407 -1.5640  0.3507
  180SOL     MW  720   0.552   4.432   4.127 -0.9004 -0.4724 -0.2661
  181SOL     OW  721   2.059   1.676   0.745  0.1718 -0.5978  0.1229
  181SOL    HW1  722   2.126   1.727   0.791 -0.6621 -0.2611  1.0149
  181SOL    HW2  723   2.107   1.609   0.698  1.2088  0.2980 -0.1170
  181SOL     MW  724   2.074   1.674   0.745  0.1992 -0.4319  0.2107
  182SOL     OW  725   5.431   4.435   3.392  0.0431  0.2912  0.4903
  182SOL    HW1  726   5.346   4.410   3.356 -0.0012  1.9352 -0.6621
  182SOL    HW2  727   5.410   4.487   3.470 -0.0811  1.4054 -0.2565
  182SOL     MW  728   5.416   4.439   3.398  0.0204  0.6624  0.2347
  183SOL     OW  729   1.166   1.278   3.762 -0.3064  0.0615 -0.4853
  183SOL    HW1  730   1.241   1.219   3.753 -0.2676 -0.0663  0.5525
  183SOL    HW2  731   1.205   1.366   3.762 -0.1348 -0.0083  0.1435
  183SOL     MW  732   1.181   1.282   3.761 -0.2781  0.0349 -0.2610
  184SOL     OW  733   2.531   0.258   3.336 -0.2510 -0.5244  0.0446
  184SOL    HW1  734   2.626   0.250   3.330 -0.3932 -2.2255 -0.1676
  184SOL    HW2  735   2.497   0.173   3.310 -1.8119 -0.2351  1.0002
  184SOL     MW  736   2.540   0.246   3.332 -0.4802 -0.7144  0.1447
  185SOL     OW  737   0.665   2.744   1.153 -0.6160  0.0757 -0.0697
  185SOL    HW1  738   0.740   2.692   1.182 -0.3952  0.6565  0.4434
  185SOL    HW2  739   0.685   2.766   1.062 -0.1806  0.1876  0.0482
  185SOL     MW  740   0.678   2.740   1.145 -0.5277  0.1689  0.0152
  186SOL     OW  741   0.442   4.327   0.666  0.5506  0.2154 -0.1041
  186SOL    HW1  742   0.506   4.395   0.644 -0.0572  0.2871 -1.8338
  186SOL    HW2  743   0.457   4.259   0.601 -1.1680  0.2763 -0.6046
  186SOL     MW  744   0.453   4.327   0.654  0.2375  0.2332 -0.4042
  187SOL     OW  745   0.561   2.512   4.493 -0.2773  0.1478  0.1592
  187SOL    HW1  746   0.605   2.573   4.434  0.9081 -0.6827  0.1384
  187SOL    HW2  747   0.601   2.528   4.578  0.4461 -0.9431  0.0452
  187SOL     MW  748   0.572   2.522   4.496 -0.0204 -0.1108  0.1411
  188SOL     OW  749   4.876   4.200   4.573 -0.2831 -0.6123 -1.0197
  188SOL    HW1  750   4.813   4.192   4.501 -1.5326  0.3805 -0.0641
  188SOL    HW2  751   4.823   4.206   4.652  1.0108  0.2550 -0.1766
  188SOL     MW  752   4.861   4.200   4.574 -0.2771 -0.3620 -0.7776
  189SOL     OW  753   3.042   4.523   4.342 -0.0439  0.4741  0.4598
  189SOL    HW1  754   3.016   4.610   4.372 -0.3087  0.4963  0.1652
  189SOL    HW2  755   3.130   4.535   4.306 -0.9665  1.1082 -1.7418
  189SOL     MW  756   3.051   4.536   4.341 -0.2037  0.5624  0.1238
  190SOL     OW  757   3.934   0.986   0.159 -0.4835  0.2124 -0.0051
  190SOL    HW1  758   3.856   1.002   0.211 -2.2012 -0.1868 -2.3291
  190SOL    HW2  759   3.911   0.915   0.100  1.9936 -0.6318 -0.0944
  190SOL     MW  760   3.921   0.979   0.158 -0.3813  0.0451 -0.3299
  191SOL     OW  761   0.382   1.257   3.956 -0.5801 -0.2323 -0.3010
  191SOL    HW1  762   0.446   1.314   3.914 -0.0491  0.3113  1.1654
  191SOL    HW2  763   0.342   1.312   4.024 -2.6436 -0.5438 -1.1891
  191SOL     MW  764   0.385   1.272   3.960 -0.7863 -0.2011 -0.2232
  192SOL     OW  765   1.426   2.609   0.532 -0.1170  0.0368  0.2421
  192SOL    HW1  766   1.438   2.514   0.530 -1.3400 -0.1407 -2.0283
  192SOL    HW2  767   1.346   2.622   0.582  0.8758  0.0326  1.8935
  192SOL     MW  768   1.417   2.598   0.538 -0.1479  0.0124  0.1588
  193SOL     OW  769   2.292   4.858   3.139  0.3985 -0.7855  0.5029
  193SOL    HW1  770   2.222   4.920   3.158  0.8095  0.3222 -1.2830
  193SOL    HW2  771   2.250   4.772   3.144 -0.0991 -0.4638  3.3967
  193SOL     MW  772   2.277   4.855   3.142  0.3869 -0.5931  0.6520
  194SOL     OW  773   4.496   2.922   2.285  0.0133  0.1193 -0.6151
  194SOL    HW1  774   4.411   2.935   2.327  0.1086  0.1768 -0.4352
  194SOL    HW2  775   4.496   2.831   2.257  0.4022 -0.2690  0.5626
  194SOL     MW  776   4.485   2.912   2.287  0.0784  0.0748 -0.4324
  195SOL     OW  777   1.408   1.099   3.164  0.4375 -0.1365 -0.0172
  195SOL    HW1  778   1.415   1.182   3.117 -1.5842  0.7285  1.0972
  195SOL    HW2  779   1.466   1.109   3.240 -1.5718  1.2809  1.4276
  195SOL     MW  780   1.417   1.112   3.168 -0.1050  0.1706  0.3272
  196SOL     OW  781   3.775   2.558   5.113 -0.2619  0.2446  0.5992
  196SOL    HW1  782   3.780   2.466   5.085  0.9075  0.1469  1.1082
  196SOL    HW2  783   3.865   2.582   5.136 -0.6474  1.3463  1.0344
  196SOL     MW  784   3.788   2.549   5.112 -0.1564  0.3797  0.7262
  197SOL     OW  785   4.837   4.314   1.031  0.3419 -0.1066  0.0094
  197SOL    HW1  786   4.849   4.409   1.028  1.2497 -0.2396 -1.5177
  197SOL    HW2  787   4.866   4.288   1.119  1.2169  0.8919  0.0284
  197SOL     MW  788   4.843   4.323   1.043  0.5818  0.0099 -0.1935
  198SOL     OW  789   4.343   1.762   2.575 -0.1648 -0.0197  0.0026
  198SOL    HW1  790   4.413   1.767   2.641  1.6532 -0.5494 -1.7777
  198SOL    HW2  791   4.357   1.838   2.519  1.5701 -2.1373 -2.6921
  198SOL     MW  792   4.354   1.773   2.576  0.3134 -0.3760 -0.5997
  199SOL     OW  793   2.728   4.944   2.624 -0.2419  0.1848  0.3881
  199SOL    HW1  794   2.636   4.921   2.634 -0.2569  0.3128  0.5548
  199SOL    HW2  795   2.776   4.869   2.657 -0.2670 -0.5995 -1.2525
  199SOL     MW  796   2.722   4.931   2.630 -0.2473  0.0964  0.1897
  200SOL     OW  797   3.671   3.836   2.298  0.2636  0.4821 -0.2185
  200SOL    HW1  798   3.585   3.870   2.322  0.5221  0.7833  0.2854
  200SOL    HW2  799   3.731   3.873   2.363  0.4427 -1.5680  0.8774
  200SOL     MW  800   3.668   3.845   2.310  0.3225  0.2467 -0.0032
  201SOL     OW  801   2.328   4.387   0.985 -0.6289  0.2093  0.0294
  201SOL    HW1  802   2.390   4.314   0.981  1.0341  1.5473  0.2303
  201SOL    HW2  803   2.244   4.346   1.005  0.3858 -1.5736  0.8868
  201SOL     MW  804   2.325   4.372   0.987 -0.2685  0.1494  0.1718
  202SOL     OW  805   4.881   5.071   0.785 -0.5535 -0.0241 -0.1271
  202SOL    HW1  806   4.952   5.023   0.743  0.2609  1.6821 -0.7848
  202SOL    HW2  807   4.826   5.101   0.712 -1.1977 -0.1939  0.2828
  202SOL     MW  808   4.883   5.069   0.769 -0.5306  0.1827 -0.1605
  203SOL     OW  809   5.327   0.410   0.184 -0.3029 -0.4370  0.2119
  203SOL    HW1  810   5.367   0.394   0.099  0.2131 -1.0005  0.5519
  203SOL    HW2  811   5.375   0.354   0.245  0.6893  1.4396  1.2433
  203SOL     MW  812   5.339   0.400   0.181 -0.0999 -0.2603  0.3965
  204SOL     OW  813   5.364   3.179   3.196  0.0277  0.2671  0.8563
  204SOL    HW1  814   5.318   3.118   3.254 -1.8961 -0.1514 -0.9796
  204SOL    HW2  815   5.360   3.139   3.110 -0.0118  2.2903 -0.1561
  204SOL     MW  816   5.357   3.166   3.192 -0.2365  0.4831  0.4730
  205SOL     OW  817   1.574   1.007   2.150  0.0339 -0.1811 -0.3704
  205SOL    HW1  818   1.544   1.087   2.193  1.0664 -0.5470  1.1238
  205SOL    HW2  819   1.576   1.029   2.057  0.5830  1.6278  0.0240
  205SOL     MW  820   1.570   1.021   2.144  0.2467  0.0131 -0.1162
  206SOL     OW  821   3.550   0.819   0.269 -0.5386 -0.2486  0.0247
  206SOL    HW1  822   3.488   0.776   0.328  0.3880 -1.0859  0.4326
  206SOL    HW2  823   3.621   0.755   0.259 -0.4844  0.0397 -1.6928
  206SOL     MW  824   3.551   0.804   0.275 -0.4066 -0.3225 -0.1516
  207SOL     OW  825   3.675   3.341   4.097 -0.2080 -0.3215  0.0562
  207SOL    HW1  826   3.765   3.313   4.084  0.7475  1.6087  1.8483
  207SOL    HW2  827   3.659   3.405   4.028 -0.0480 -0.3347  0.0078
  207SOL     MW  828   3.685   3.346   4.086 -0.0579 -0.0635  0.2909
  208SOL     OW  829   3.166   1.313   4.555 -0.0093 -0.4256  0.2102
  208SOL    HW1  830   3.244   1.290   4.504 -0.8120  0.6512 -1.6142
  208SOL    HW2  831   3.200   1.338   4.641  1.5481 -1.0159 -0.1995
  208SOL     MW  832   3.181   1.314   4.559  0.0923 -0.3601 -0.0905
  209SOL     OW  833   0.927   5.088   0.397  0.0323 -0.7097  0.0797
  209SOL    HW1  834   0.857   5.086   0.331  0.1614 -1.4830 -0.0376
  209SOL    HW2  835   1.007   5.100   0.346 -0.1228  2.1151  0.3173
  209SOL     MW  836   0.928   5.089   0.381  0.0288 -0.4336  0.0959
  210SOL     OW  837   1.262   5.153   5.014 -0.0323 -0.1202 -0.0179
  210SOL    HW1  838   1.268   5.248   5.018  1.4925 -0.2289  1.8522
  210SOL    HW2  839   1.170   5.133   5.030 -0.2067  1.0385  0.4854
  210SOL     MW  840   1.251   5.163   5.017  0.1495  0.0211  0.3015
  211SOL     OW  841   5.506   3.209   2.017 -0.1765  0.2971  0.0675
  211SOL    HW1  842   5.449   3.154   2.071  2.0610 -1.1796  1.1241
  211SOL    HW2  843   5.510   3.163   1.933 -0.0880  0.0430  0.2061
  211SOL     MW  844   5.499   3.195   2.013  0.1365  0.0642  0.2284
  212SOL     OW  845   2.026   2.710   2.926  0.3821 -0.3039  0.0883
  212SOL    HW1  846   2.026   2.782   2.863  1.2739 -0.5887 -0.2388
  212SOL    HW2  847   2.042   2.753   3.010  0.8024 -0.1116 -0.0908
  212SOL     MW  848   2.028   2.726   2.929  0.5587 -0.3163  0.0202
  213SOL     OW  849   1.193   1.959   0.044  0.0127 -0.1932  0.0812
  213SOL    HW1  850   1.117   2.017   0.049  1.2757  1.4566  1.7574
  213SOL    HW2  851   1.177   1.892   0.111 -0.6671 -0.8084 -0.6782
  213SOL     MW  852   1.181   1.958   0.054  0.0912 -0.0540  0.2046
  214SOL     OW  853   4.228   0.796   2.504  0.0942  0.3019 -0.4747
  214SOL    HW1  854   4.160   0.850   2.464 -1.2166 -1.4449 -0.6840
  214SOL    HW2  855   4.196   0.777   2.592  1.2846  1.1227  0.1703
  214SOL     MW  856   4.214   0.801   2.510  0.0780  0.1773 -0.4160
  215SOL     OW  857   1.480   5.527   0.676 -0.4734  0.2185 -0.1586
  215SOL    HW1  858   1.448   5.437   0.670 -3.4291  1.2347 -1.8960
  215SOL    HW2  859   1.554   5.529   0.616  0.0144 -1.1842  0.3546
  215SOL     MW  860   1.485   5.515   0.667 -0.8055  0.1665 -0.3234
  216SOL     OW  861   2.799   1.578   0.669  0.4524 -0.4172 -0.2374
  216SOL    HW1  862   2.838   1.643   0.611  0.2713 -0.2236 -0.1465
  216SOL    HW2  863   2.744   1.524   0.612  1.1311 -0.9171 -0.4245
  216SOL     MW  864   2.797   1.580   0.654  0.5193 -0.4584 -0.2504
  217SOL     OW  865   2.835   0.599   1.922  0.1717  0.0554  0.4596
  217SOL    HW1  866   2.770   0.529   1.928  0.7308 -0.4574  0.6037
  217SOL    HW2  867   2.919   0.556   1.939  0.4073  0.9679  1.6900
  217SOL     MW  868   2.838   0.584   1.925  0.2786  0.1092  0.6445
  218SOL     OW  869   0.731   1.697   4.655 -0.8668 -0.1584  0.6472
  218SOL    HW1  870   0.755   1.728   4.742 -0.3019 -0.9555  0.7866
  218SOL    HW2  871   0.658   1.638   4.670 -0.9769 -0.0462  0.5485
  218SOL     MW  872   0.725   1.694   4.669 -0.8056 -0.2506  0.6527
  219SOL     OW  873   2.089   4.992   0.397  0.5814 -1.0158  0.1691
  219SOL    HW1  874   2.171   4.986   0.347  2.2714  2.3401  2.1361
  219SOL    HW2  875   2.056   5.079   0.378 -1.6808 -1.6853  0.7646
  219SOL     MW  876   2.096   5.003   0.387  0.5044 -0.6543  0.5140
  220SOL     OW  877   0.104   4.439   3.707 -0.2387 -0.0106 -0.5723
  220SOL    HW1  878   0.199   4.426   3.709 -0.3170 -0.5595 -0.3728
  220SOL    HW2  879   0.072   4.375   3.643 -0.6382 -0.8975  0.4941
  220SOL     MW  880   0.113   4.429   3.698 -0.3030 -0.2038 -0.4020
  221SOL     OW  881   0.385   1.033   4.104  0.8991  0.1934 -0.0436
  221SOL    HW1  882   0.437   1.063   4.178  0.7291 -0.2968  0.2813
  221SOL    HW2  883   0.374   1.111   4.049 -0.2194  0.9280  1.1722
  221SOL     MW  884   0.390   1.048   4.107  0.7257  0.2262  0.1637
  222SOL     OW  885   1.719   1.119   1.668  0.4543  0.5756 -0.2403
  222SOL    HW1  886   1.657   1.092   1.735 -0.4541  0.4401 -1.1101
  222SOL    HW2  887   1.668   1.175   1.610  0.7806 -0.5774 -1.6949
  222SOL     MW  888   1.704   1.123   1.669  0.3759  0.4022 -0.5531
  223SOL     OW  889   1.065   4.282   3.408  0.1324 -0.1251 -0.3501
  223SOL    HW1  890   1.030   4.299   3.321 -0.9144  0.8250  0.2335
  223SOL    HW2  891   1.103   4.365   3.435  1.5553 -0.7354 -0.3581
  223SOL     MW  892   1.066   4.295   3.400  0.1830 -0.0793 -0.2727
  224SOL     OW  893   0.250   4.083   4.562  0.0029  0.1753  0.8926
  224SOL    HW1  894   0.342   4.110   4.556  0.1567  0.2298  2.7426
  224SOL    HW2  895   0.201   4.157   4.526  0.6344  0.8384  1.3668
  224SOL     MW  896   0.256   4.097   4.557  0.1086  0.2718  1.2054
  225SOL     OW  897   2.923   1.883   3.784  0.3643 -0.0475 -0.0765
  225SOL    HW1  898   2.958   1.834   3.858  0.8160  0.4845  0.0742
  225SOL    HW2  899   2.830   1.894   3.805  0.1659 -1.2107 -0.3325
  225SOL     MW  900   2.915   1.878   3.797  0.3984 -0.1324 -0.0907
  226SOL     OW  901   0.060   2.449   3.101  0.2210  0.1125 -0.2705
  226SOL    HW1  902   0.002   2.447   3.025 -0.3817  3.3482 -0.0296
  226SOL    HW2  903   0.001   2.438   3.176  0.5913 -1.3054 -0.1583
  226SOL     MW  904   0.044   2.447   3.101  0.1897  0.3571 -0.2230
  227SOL     OW  905   0.238   2.787   4.516  0.1518 -0.2316  0.3688
  227SOL    HW1  906   0.225   2.736   4.436  0.7290  1.0619 -0.5841
  227SOL    HW2  907   0.195   2.871   4.498 -0.1503 -0.0925  1.6212
  227SOL     MW  908   0.230   2.791   4.503  0.1888 -0.0388  0.4091
  228SOL     OW  909   5.111   4.204   1.880 -0.1270  0.0144  0.7498
  228SOL    HW1  910   5.097   4.282   1.933 -1.8966 -1.1639  2.1386
  228SOL    HW2  911   5.128   4.135   1.944 -0.2393 -1.0576 -0.3480
  228SOL     MW  912   5.111   4.205   1.896 -0.3803 -0.2885  0.7890
  229SOL     OW  913   5.056   0.299   0.520 -0.6027 -1.0573 -0.3725
  229SOL    HW1  914   4.992   0.240   0.560  0.6452 -2.6276 -0.5918
  229SOL    HW2  915   5.015   0.327   0.439 -2.0309 -0.0072  0.6679
  229SOL     MW  916   5.042   0.295   0.514 -0.6270 -1.1273 -0.2620
  230SOL     OW  917   4.103   3.668   0.669 -0.5609 -0.0979  0.4192
  230SOL    HW1  918   4.060   3.623   0.596 -1.1847 -1.1556  1.3970
  230SOL    HW2  919   4.164   3.728   0.627 -0.3993 -1.1615 -0.9612
  230SOL     MW  920   4.105   3.670   0.653 -0.6231 -0.3834  0.3650
  231SOL     OW  921   3.475   3.219   1.051  0.3211  0.4850  0.0608
  231SOL    HW1  922   3.472   3.294   0.992  0.7777  0.8221  0.4564
  231SOL    HW2  923   3.461   3.256   1.138  0.8812  0.1525  0.2961
  231SOL     MW  924   3.473   3.234   1.055  0.4580  0.4856  0.1457
  232SOL     OW  925   4.991   4.927   4.581 -0.2350 -0.1133 -0.0684
  232SOL    HW1  926   4.937   4.984   4.527  0.5591  1.2711  0.5259
  232SOL    HW2  927   5.081   4.944   4.551  0.1852  0.4306  1.3929
  232SOL     MW  928   4.996   4.937   4.570 -0.0716  0.1462  0.2083
  233SOL     OW  929   2.070   5.233   3.841 -0.7366  0.1036  0.1017
  233SOL    HW1  930   2.052   5.184   3.760  0.3307  0.3414 -0.2908
  233SOL    HW2  931   2.165   5.228   3.851 -0.3278  3.5546 -0.9121
  233SOL     MW  932   2.080   5.226   3.832 -0.5379  0.6001 -0.0876
  234SOL     OW  933   5.449   1.129   2.590  0.5560 -0.3311  0.3050
  234SOL    HW1  934   5.387   1.202   2.579  0.5701 -0.0708  1.8546
  234SOL    HW2  935   5.461   1.095   2.501  0.1245  1.2021 -0.3669
  234SOL     MW  936   5.442   1.134   2.576  0.4998 -0.0898  0.4231
  235SOL     OW  937   5.041   2.187   1.523 -0.1690 -0.1811  0.3371
  235SOL    HW1  938   4.968   2.127   1.507  0.0419 -0.1558 -0.8253
  235SOL    HW2  939   5.110   2.157   1.463  0.3845  0.4573  0.6400
  235SOL     MW  940   5.041   2.175   1.513 -0.0661 -0.0918  0.2214
  236SOL     OW  941   0.382   4.096   5.463  0.0420 -0.0386 -0.5188
  236SOL    HW1  942   0.342   4.170   5.418 -0.6110  0.6065  1.0668
  236SOL    HW2  943   0.379   4.119   5.556  0.2005 -1.8796 -0.0154
  236SOL     MW  944   0.376   4.109   5.470 -0.0245 -0.1995 -0.2376
  237SOL     OW  945   2.111   2.217   5.097 -0.2294  0.0811 -0.2872
  237SOL    HW1  946   2.018   2.237   5.085 -0.4271 -0.2130  0.6741
  237SOL    HW2  947   2.155   2.299   5.077 -0.9284  1.1532  2.1920
  237SOL     MW  948   2.104   2.231   5.093 -0.3500  0.1858  0.1758
  238SOL     OW  949   5.269   0.537   5.290  0.1121 -0.2298  0.2626
  238SOL    HW1  950   5.314   0.621   5.295  1.3253 -0.8123 -0.6422
  238SOL    HW2  951   5.326   0.477   5.337  0.6232 -1.1076 -1.4349
  238SOL     MW  952   5.283   0.541   5.297  0.3442 -0.4263 -0.0876
  239SOL     OW  953   4.011   5.302   5.375  0.1254 -0.4411 -0.2016
  239SOL    HW1  954   4.058   5.376   5.337 -1.0701  1.2361  1.4562
  239SOL    HW2  955   4.080   5.237   5.392  1.6763  1.3665  0.8257
  239SOL     MW  956   4.027   5.303   5.372  0.1732  0.0279  0.1598
  240SOL     OW  957   0.603   3.702   4.888 -0.1690  0.0495  0.2443
  240SOL    HW1  958   0.657   3.735   4.816  0.7785 -0.9226  0.4844
  240SOL    HW2  959   0.583   3.612   4.863 -1.3929  0.2910  0.3361
  240SOL     MW  960   0.608   3.695   4.875 -0.2062 -0.0488  0.2890
  241SOL     OW  961   2.293  -0.001   3.981 -0.2357  0.3277 -0.0568
  241SOL    HW1  962   2.308   0.073   4.040 -0.5791 -0.8081  1.5313
  241SOL    HW2  963   2.367  -0.060   3.997 -1.3326 -0.9008  0.7332
  241SOL     MW  964   2.305   0.001   3.991 -0.4295  0.0095  0.2632
  242SOL     OW  965   2.460   0.711   1.310  0.2589  0.0659  0.9052
  242SOL    HW1  966   2.430   0.794   1.347 -0.5820  0.0911  0.1914
  242SOL    HW2  967   2.552   0.704   1.338 -0.0494  0.5742  2.1013
  242SOL     MW  968   2.469   0.721   1.319  0.1042  0.1377  0.9701
  243SOL     OW  969   0.265   1.698   2.249  0.3142  0.6401  0.1562
  243SOL    HW1  970   0.326   1.631   2.219 -0.5367 -0.8092  1.4584
  243SOL    HW2  971   0.319   1.760   2.298  0.9103 -0.0644  0.4200
  243SOL     MW  972   0.280   1.697   2.252  0.2799  0.3502  0.3669
  244SOL     OW  973   2.577   3.941   4.361  0.0358 -0.1284 -0.2984
  244SOL    HW1  974   2.511   3.998   4.399 -2.1122 -1.0305 -2.4286
  244SOL    HW2  975   2.586   3.869   4.423 -0.1702  0.5421  0.5203
  244SOL     MW  976   2.569   3.939   4.374 -0.2810 -0.1596 -0.4749
  245SOL     OW  977   0.991   1.193   2.115 -0.0172 -0.0286  0.3223
  245SOL    HW1  978   0.915   1.155   2.070  0.3217  0.3462 -0.5695
  245SOL    HW2  979   0.953   1.257   2.175 -0.3043  2.3210 -2.1902
  245SOL     MW  980   0.976   1.197   2.117 -0.0103  0.3380 -0.1359
  246SOL     OW  981   1.298   3.145   3.923  0.0134  0.4722 -0.2607
  246SOL    HW1  982   1.380   3.146   3.973  0.6784 -1.1042 -1.2402
  246SOL    HW2  983   1.317   3.199   3.846  0.0783  0.2367 -0.4095
  246SOL     MW  984   1.312   3.152   3.919  0.1116  0.2283 -0.4126
  247SOL     OW  985   1.572   0.147   0.900  0.3896  0.6709 -0.2124
  247SOL    HW1  986   1.504   0.141   0.967  1.1595  1.5030  0.6653
  247SOL    HW2  987   1.535   0.099   0.825 -0.4733 -0.3130  0.7946
  247SOL     MW  988   1.558   0.140   0.899  0.3771  0.6505  0.0413
  248SOL     OW  989   0.697   4.568   1.123  0.6467 -0.1037  0.4446
  248SOL    HW1  990   0.700   4.473   1.118 -1.5639 -0.3280  2.0468
  248SOL    HW2  991   0.750   4.590   1.199  0.9072 -0.0595  0.2532
  248SOL     MW  992   0.705   4.558   1.132  0.3842 -0.1280  0.6345
  249SOL     OW  993   3.867   1.109   1.363  0.2008 -0.4031  0.2779
  249SOL    HW1  994   3.844   1.073   1.449  1.8376 -1.9547  0.1198
  249SOL    HW2  995   3.924   1.183   1.383 -2.7852  1.9947  0.5875
  249SOL     MW  996   3.871   1.114   1.377  0.0192 -0.2892  0.2983
  250SOL     OW  997   0.317   1.754   4.500 -0.1506  0.1530 -0.4834
  250SOL    HW1  998   0.365   1.673   4.514 -1.4864 -0.7095 -0.7579
  250SOL    HW2  999   0.247   1.730   4.439 -0.3636  1.5904 -0.8428
  250SOL     MW 1000   0.314   1.740   4.493 -0.3590  0.2304 -0.5687
  251SOL     OW 1001   2.843   0.147   4.398  0.2820  0.4191 -0.2199
  251SOL    HW1 1002   2.850   0.201   4.476 -0.2704 -1.5768  1.2734
  251SOL    HW2 1003   2.749   0.142   4.381  0.3112 -0.2028 -0.2266
  251SOL     MW 1004   2.831   0.153   4.406  0.2116  0.0668 -0.0198
  252SOL     OW 1005   4.427   1.141   5.254 -0.3970 -0.5822  0.1570
  252SOL    HW1 1006   4.371   1.134   5.331 -0.2002  1.3079  0.5271
  252SOL    HW2 1007   4.485   1.215   5.273  0.0552 -0.4514 -1.5544
  252SOL     MW 1008   4.427   1.150   5.267 -0.3097 -0.3102 -0.0235
  253SOL     OW 1009   5.385   1.056   4.120 -0.2138  0.0190  0.2998
  253SOL    HW1 1010   5.403   1.028   4.030 -0.1140 -0.0776  0.3501
  253SOL    HW2 1011   5.307   1.006   4.145  0.8760 -1.4443  0.9508
  253SOL     MW 1012   5.377   1.046   4.111 -0.0537 -0.1909  0.3942
  254SOL     OW 1013   1.107   2.708   2.132  0.6567 -0.5048  0.0350
  254SOL    HW1 1014   1.171   2.719   2.062  0.0011 -0.8296 -0.6286
  254SOL    HW2 1015   1.117   2.786   2.187  1.9632 -0.7825  0.2339
  254SOL     MW 1016   1.117   2.720   2.130  0.7443 -0.5859 -0.0276
  255SOL     OW 1017   0.498   3.634   0.545 -0.5819 -0.1457 -0.2554
  255SOL    HW1 1018   0.481   3.620   0.638  2.5912 -0.0330  0.4413
  255SOL    HW2 1019   0.517   3.728   0.538 -1.7358  0.0427 -1.2330
  255SOL     MW 1020   0.498   3.645   0.557 -0.3102 -0.1052 -0.2932
  256SOL     OW 1021   3.192   4.218   3.205 -0.3124  0.2389 -0.2462
  256SOL    HW1 1022   3.240   4.152   3.155 -1.5108 -1.9937  1.3717
  256SOL    HW2 1023   3.103   4.185   3.209 -1.0128  2.1053  0.4561
  256SOL     MW 1024   3.187   4.205   3.199 -0.5680  0.1896  0.0661
  257SOL     OW 1025   2.732   3.524   4.106  0.2980 -0.9627  0.1474
  257SOL    HW1 1026   2.776   3.443   4.130 -0.0205 -0.8790  1.0346
  257SOL    HW2 1027   2.639   3.500   4.099  0.3746 -0.9814 -1.0076
  257SOL     MW 1028   2.725   3.510   4.108  0.2655 -0.9540  0.1114
  258SOL     OW 1029   2.590   2.719   4.988 -0.0976 -0.0770 -0.3846
  258SOL    HW1 1030   2.624   2.793   4.938  1.2315 -0.4147 -0.0279
  258SOL    HW2 1031   2.594   2.645   4.927 -0.4530 -0.0663 -0.4223
  258SOL     MW 1032   2.595   2.719   4.973  0.0334 -0.1210 -0.3417
  259SOL     OW 1033   2.089   2.730   3.444 -0.5432 -0.3925  0.0849
  259SOL    HW1 1034   2.035   2.793   3.492  0.4106  0.7181 -0.2642
  259SOL    HW2 1035   2.119   2.668   3.512 -1.2759 -0.3394  0.4694
  259SOL     MW 1036   2.085   2.730   3.460 -0.5135 -0.2359  0.0897
  260SOL     OW 1037   3.022   4.734   1.999  0.5188 -0.4370 -0.5784
  260SOL    HW1 1038   2.949   4.733   1.937 -0.4170 -0.8050  0.5102
  260SOL    HW2 1039   3.079   4.663   1.969 -1.1392 -2.2645  0.3530
  260SOL     MW 1040   3.020   4.724   1.986  0.1697 -0.7325 -0.3065
  261SOL     OW 1041   3.808   0.387   1.545 -0.0042 -0.3345  0.1493
  261SOL    HW1 1042   3.868   0.437   1.600 -0.3894  0.0785  0.1950
  261SOL    HW2 1043   3.863   0.353   1.474  0.3350 -0.1884  0.3425
  261SOL     MW 1044   3.823   0.389   1.543 -0.0104 -0.2592  0.1814
  262SOL     OW 1045   2.021   5.366   1.033 -0.0329  0.0188  0.6316
  262SOL    HW1 1046   1.956   5.435   1.046  0.2837  0.3590  0.4421
  262SOL    HW2 1047   2.094   5.410   0.990  1.4155  0.2357  3.1303
  262SOL     MW 1048   2.022   5.381   1.029  0.2046  0.0938  0.9423
  263SOL     OW 1049   4.209   0.926   0.794 -0.2224 -0.2194 -0.7660
  263SOL    HW1 1050   4.213   0.830   0.789 -0.3885 -0.2250 -0.7913
  263SOL    HW2 1051   4.211   0.945   0.888  2.8376 -0.1172 -0.7617
  263SOL     MW 1052   4.210   0.915   0.806  0.1671 -0.2064 -0.7688
  264SOL     OW 1053   2.242   4.012   1.178 -0.0063 -0.3930 -0.5354
  264SOL    HW1 1054   2.299   3.952   1.129 -0.1700 -1.3227  0.3984
  264SOL    HW2 1055   2.298   4.088   1.196 -0.0986  0.2432 -2.6198
  264SOL     MW 1056   2.258   4.014   1.174 -0.0407 -0.4325 -0.6902
  265SOL     OW 1057   5.033   1.556   3.483 -0.0433 -0.8669 -0.1558
  265SOL    HW1 1058   5.038   1.472   3.436 -0.5775 -1.9913  1.6879
  265SOL    HW2 1059   5.123   1.586   3.489  0.2584 -1.7875 -0.0139
  265SOL     MW 1060   5.046   1.549   3.477 -0.0746 -1.1421  0.1114
  266SOL     OW 1061   0.163   2.198   3.001  0.1654 -0.4789  0.5342
  266SOL    HW1 1062   0.194   2.234   2.918  0.6823 -1.6128  0.2070
  266SOL    HW2 1063   0.123   2.272   3.046 -0.9260 -0.0154 -1.1020
  266SOL     MW 1064   0.162   2.213   2.996  0.0881 -0.5691  0.2700
  267SOL     OW 1065   0.615   0.583   2.924  0.9763  0.4353 -0.2588
  267SOL    HW1 1066   0.532   0.606   2.964 -0.6023 -1.3055 -2.2969
  267SOL    HW2 1067   0.654   0.519   2.984  0.3321  0.4688  0.2053
  267SOL     MW 1068   0.609   0.577   2.937  0.6771  0.2055 -0.4706
  268SOL     OW 1069   1.381   1.616   4.013  0.1217  0.1191 -0.0073
  268SOL    HW1 1070   1.345   1.592   3.928  0.4926  2.9235 -1.0735
  268SOL    HW2 1071   1.419   1.703   3.999 -0.4056  0.9919  3.1776
  268SOL     MW 1072   1.381   1.625   4.000  0.1007  0.6139  0.2779
  269SOL     OW 1073   4.252   1.976   4.210 -0.0324  0.3243 -0.4865
  269SOL    HW1 1074   4.338   1.998   4.173 -0.6850  1.0255 -1.6242
  269SOL    HW2 1075   4.252   1.881   4.215 -0.3340  0.0674 -3.4395
  269SOL     MW 1076   4.264   1.966   4.206 -0.1608  0.3841 -1.0370
  270SOL     OW 1077   4.911   3.933   1.938  0.3090 -0.1046  0.1913
  270SOL    HW1 1078   4.880   3.843   1.945 -0.0349 -0.0864 -0.8886
  270SOL    HW2 1079   4.842   3.986   1.979  0.3127 -0.2921  0.4432
  270SOL     MW 1080   4.898   3.928   1.944  0.2632 -0.1274  0.0799
  271SOL     OW 1081   1.053   0.909   4.589 -0.0791 -0.5260  0.8679
  271SOL    HW1 1082   1.100   0.973   4.643 -0.3221  0.3542  0.0549
  271SOL    HW2 1083   1.078   0.824   4.626  2.5526 -0.1475  0.2000
  271SOL     MW 1084   1.063   0.906   4.601  0.2424 -0.3566  0.6686
  272SOL     OW 1085   4.020   3.054   1.919 -0.5705  0.0969 -0.1322
  272SOL    HW1 1086   3.942   3.040   1.973  0.3137 -0.2670  1.0758
  272SOL    HW2 1087   4.066   2.970   1.921 -0.9553 -0.2174 -2.2027
  272SOL     MW 1088   4.016   3.041   1.926 -0.5033  0.0056 -0.2483
  273SOL     OW 1089   5.032   1.820   2.204  0.0479  0.4314  0.6237
  273SOL    HW1 1090   4.964   1.779   2.258  0.1986 -0.9858 -0.2230
  273SOL    HW2 1091   5.114   1.781   2.234  0.2104  0.1989 -0.0961
  273SOL     MW 1092   5.034   1.809   2.215  0.0901  0.2094  0.4129
  274SOL     OW 1093   1.975   4.486   2.996  0.2113 -0.4779 -0.6595
  274SOL    HW1 1094   1.963   4.511   2.904 -0.6108 -1.1173 -0.7424
  274SOL    HW2 1095   1.888   4.459   3.025  0.3029  0.4283  0.5378
  274SOL     MW 1096   1.962   4.486   2.987  0.1130 -0.4420 -0.5095
  275SOL     OW 1097   2.599   3.310   3.370 -0.2318 -0.0330  0.0468
  275SOL    HW1 1098   2.566   3.277   3.454  1.2176 -0.5635  0.4435
  275SOL    HW2 1099   2.521   3.337   3.322 -1.1513 -0.4590  1.2551
  275SOL     MW 1100   2.584   3.309   3.375 -0.1605 -0.1617  0.2628
  276SOL     OW 1101   4.020   5.057   2.894  0.2984  0.5074 -0.7158
  276SOL    HW1 1102   3.964   5.099   2.959  0.5497 -0.3029  0.0424
  276SOL    HW2 1103   4.094   5.116   2.885 -0.4892  1.4160 -1.4676
  276SOL     MW 1104   4.022   5.071   2.901  0.2262  0.5206 -0.7149
  277SOL     OW 1105   5.404   0.374   2.806  0.3223 -0.4603  0.0786
  277SOL    HW1 1106   5.426   0.388   2.714  0.0107 -0.6419 -0.0204
  277SOL    HW2 1107   5.309   0.371   2.808  0.2934  0.3074  0.5148
  277SOL     MW 1108   5.394   0.376   2.794  0.2765 -0.3814  0.1239
  278SOL     OW 1109   5.452   3.276   2.778 -0.5049 -0.1624  0.7874
  278SOL    HW1 1110   5.416   3.237   2.699 -0.7649  0.2740  0.6854
  278SOL    HW2 1111   5.411   3.363   2.782  1.6916  1.0182 -0.2154
  278SOL     MW 1112   5.442   3.283   2.768 -0.2443  0.0552  0.6387
  279SOL     OW 1113   3.328   5.407   2.008 -0.5675  0.0142  0.4870
  279SOL    HW1 1114   3.346   5.342   1.939  2.0688  0.0312  1.0651
  279SOL    HW2 1115   3.244   5.446   1.982  0.0719 -0.3087 -2.4687
  279SOL     MW 1116   3.319   5.403   1.995 -0.1266 -0.0270  0.1670
  280SOL     OW 1117   0.885   0.149   0.782 -0.3349  0.5634  0.1996
  280SOL    HW1 1118   0.893   0.241   0.759  0.0878  0.2212 -1.0847
  280SOL    HW2 1119   0.815   0.146   0.847 -0.5981  1.7354 -0.0169
  280SOL     MW 1120   0.877   0.161   0.788 -0.3134  0.6751 -0.0024
  281SOL     OW 1121   4.790   0.106   2.327  0.1197  0.0356  0.7269
  281SOL    HW1 1122   4.774   0.073   2.239 -0.1189  0.3335  0.6552
  281SOL    HW2 1123   4.822   0.195   2.314  1.6656 -0.4734  0.8809
  281SOL     MW 1124   4.792   0.114   2.313  0.2956  0.0072  0.7380
  282SOL     OW 1125   5.008   5.281   0.921 -0.2996 -0.3525 -0.2699
  282SOL    HW1 1126   4.960   5.313   0.997 -2.1474  0.1157 -1.5670
  282SOL    HW2 1127   4.952   5.213   0.884  0.9478 -1.1444 -0.7747
  282SOL     MW 1128   4.994   5.276   0.926 -0.3804 -0.3961 -0.5124
  283SOL     OW 1129   3.285   2.556   4.900 -0.4308  0.5121  0.2566
  283SOL    HW1 1130   3.335   2.534   4.979  0.6546  2.2326  0.1093
  283SOL    HW2 1131   3.216   2.490   4.896 -0.0753 -0.0528  2.2428
  283SOL     MW 1132   3.283   2.544   4.910 -0.2369  0.6676  0.5041
  284SOL     OW 1133   3.595   0.192   2.149 -0.2487 -0.4444  0.0207
  284SOL    HW1 1134   3.514   0.175   2.100 -1.0921 -0.1993  1.2978
  284SOL    HW2 1135   3.654   0.230   2.084 -1.8378  1.2743 -0.4920
  284SOL     MW 1136   3.592   0.195   2.134 -0.5761 -0.1801  0.1236
  285SOL     OW 1137   1.053   4.397   0.212  0.1727  0.4916 -0.1588
  285SOL    HW1 1138   1.059   4.353   0.296 -1.7424 -0.1502 -0.3145
  285SOL    HW2 1139   1.089   4.484   0.228  1.4026 -0.1579  0.8546
  285SOL     MW 1140   1.059   4.403   0.225  0.0805  0.3178 -0.0433
  286SOL     OW 1141   0.528   2.142   4.569  0.1793  0.1022 -0.0510
  286SOL    HW1 1142   0.441   2.176   4.551  0.5070  1.5541  0.9847
  286SOL    HW2 1143   0.583   2.180   4.501  0.0916 -0.5160 -0.4794
  286SOL     MW 1144   0.524   2.152   4.558  0.2116  0.2144  0.0308
  287SOL     OW 1145   2.918   2.488   2.131  0.6112 -0.0377  0.8769
  287SOL    HW1 1146   2.916   2.395   2.153 -0.3781  0.1994  1.8976
  287SOL    HW2 1147   2.826   2.513   2.125  0.8558  1.0837  1.5603
  287SOL     MW 1148   2.905   2.479   2.133  0.5110  0.1452  1.1062
  288SOL     OW 1149   2.557   4.231   3.660  0.4484  0.6019 -0.4561
  288SOL    HW1 1150   2.465   4.233   3.686 -0.1771 -1.2473 -2.2685
  288SOL    HW2 1151   2.602   4.284   3.726 -1.8273  1.1413  0.7553
  288SOL     MW 1152   2.551   4.238   3.672  0.0580  0.4256 -0.5370
  289SOL     OW 1153   0.072   3.601   5.049  0.2847 -0.2935 -0.3699
  289SOL    HW1 1154   0.141   3.613   5.115 -0.6668 -1.0789  0.8084
  289SOL    HW2 1155   0.094   3.519   5.005 -1.2841 -2.0689  1.8892
  289SOL     MW 1156   0.084   3.592   5.052 -0.0545 -0.6382  0.0927
  290SOL     OW 1157   4.758   4.738   1.607  0.1210 -0.0931 -0.6251
  290SOL    HW1 1158   4.764   4.671   1.539 -0.0574  0.7525 -1.4968
  290SOL    HW2 1159   4.670   4.774   1.598 -0.0347 -0.2070  0.3009
  290SOL     MW 1160   4.747   4.734   1.597  0.0760  0.0054 -0.6178
  291SOL     OW 1161   1.405   4.634   4.800 -0.7435  0.0385  0.8022
  291SOL    HW1 1162   1.455   4.661   4.877 -0.9369  0.3768  0.8136
  291SOL    HW2 1163   1.342   4.705   4.787 -0.3171  0.2791 -0.0254
  291SOL     MW 1164   1.403   4.647   4.809 -0.7122  0.1164  0.6923
  292SOL     OW 1165   4.074   1.691   3.491  0.2876  0.0148  0.0078
  292SOL    HW1 1166   4.168   1.674   3.492  0.7056  2.0413  1.9849
  292SOL    HW2 1167   4.065   1.770   3.438 -0.3958 -0.4360 -0.5730
  292SOL     MW 1168   4.086   1.699   3.484  0.2519  0.2269  0.1957
  293SOL     OW 1169   2.353   4.471   2.539  0.3475 -0.1429  0.3282
  293SOL    HW1 1170   2.432   4.438   2.581  0.9331 -0.3756 -0.9185
  293SOL    HW2 1171   2.319   4.396   2.490 -1.5631 -0.5342  2.0853
  293SOL     MW 1172   2.359   4.456   2.538  0.1692 -0.2269  0.3969
  294SOL     OW 1173   0.421   0.619   2.543  0.5033  0.9439  0.2436
  294SOL    HW1 1174   0.332   0.622   2.508  0.0360 -1.9250  0.9354
  294SOL    HW2 1175   0.423   0.689   2.609 -1.1300  1.2460  0.0124
  294SOL     MW 1176   0.409   0.629   2.547  0.2206  0.5985  0.3056
  295SOL     OW 1177   0.886   1.357   0.155  0.4332 -0.0465 -0.3178
  295SOL    HW1 1178   0.949   1.292   0.123  0.1330 -0.9930  0.9451
  295SOL    HW2 1179   0.802   1.312   0.152 -0.1458  1.0547 -1.5438
  295SOL     MW 1180   0.883   1.342   0.150  0.3149 -0.0256 -0.3128
  296SOL     OW 1181   2.638   3.266   2.464 -0.4081  0.3558 -0.1259
  296SOL    HW1 1182   2.626   3.227   2.551  0.0489 -0.5562 -0.4588
  296SOL    HW2 1183   2.711   3.217   2.426  1.2360  2.5352  0.0113
  296SOL     MW 1184   2.646   3.254   2.471 -0.1253  0.5264 -0.1522
  297SOL     OW 1185   4.385   0.876   1.869  0.1774  0.3674 -0.7241
  297SOL    HW1 1186   4.454   0.874   1.935  0.9039 -1.7945 -1.4296
  297SOL    HW2 1187   4.347   0.963   1.875  1.8093  1.0231  0.8866
  297SOL     MW 1188   4.389   0.887   1.878  0.4948  0.1647 -0.6023
  298SOL     OW 1189   2.166   2.922   1.155 -0.0468  0.2386  0.4463
  298SOL    HW1 1190   2.218   2.911   1.075  0.2258  0.1949  0.6270
  298SOL    HW2 1191   2.075   2.920   1.125 -0.0276 -1.7323  0.3616
  298SOL     MW 1192   2.161   2.920   1.140 -0.0075 -0.0325  0.4592
  299SOL     OW 1193   1.376   4.995   2.948  0.1139  0.3112  0.1648
  299SOL    HW1 1194   1.282   4.983   2.960  0.2118  0.2981  1.0433
  299SOL    HW2 1195   1.391   4.985   2.854 -0.9408  1.5577 -0.1662
  299SOL     MW 1196   1.365   4.992   2.937 -0.0149  0.4772  0.2385
  300SOL     OW 1197   0.551   1.719   2.493  0.0666  0.2613  0.0505
  300SOL    HW1 1198   0.590   1.746   2.577  1.4162 -1.2300 -0.0431
  300SOL    HW2 1199   0.625   1.716   2.433 -0.4167 -1.2474 -0.5107
  300SOL     MW 1200   0.566   1.722   2.496  0.1832 -0.1425 -0.0377
  301SOL     OW 1201   2.365   0.342   0.081  0.2229  0.2421  0.1595
  301SOL    HW1 1202   2.337   0.381   0.163 -0.3809 -0.1414  0.1361
  301SOL    HW2 1203   2.457   0.369   0.072  0.3662  0.0754  1.0724
  301SOL     MW 1204   2.374   0.351   0.091  0.1609  0.1680  0.2792
  302SOL     OW 1205   1.857   0.873   0.039 -0.2644 -0.0945 -0.0675
  302SOL    HW1 1206   1.868   0.940   0.106  1.5048 -0.0224 -0.3926
  302SOL    HW2 1207   1.915   0.801   0.065 -1.3492 -1.0789 -0.2746
  302SOL     MW 1208   1.866   0.872   0.051 -0.1723 -0.2173 -0.1392
  303SOL     OW 1209   1.119   1.770   3.771  0.3130  0.0530 -0.4651
  303SOL    HW1 1210   1.125   1.831   3.845  0.6940 -2.0499  1.3465
  303SOL    HW2 1211   1.037   1.723   3.785  0.5392 -0.5803 -1.2168
  303SOL     MW 1212   1.109   1.772   3.783  0.3947 -0.3153 -0.3224
  304SOL     OW 1213   1.115   3.629   4.232 -0.1809 -0.5830  0.4829
  304SOL    HW1 1214   1.055   3.611   4.303 -0.8516  1.3598  0.4636
  304SOL    HW2 1215   1.142   3.720   4.245  1.3655 -0.8438 -0.5322
  304SOL     MW 1216   1.111   3.639   4.243 -0.0630 -0.3566  0.3437
  305SOL     OW 1217   1.466   3.417   1.715 -0.4394  0.1044 -0.1871
  305SOL    HW1 1218   1.407   3.415   1.640 -0.5342 -0.8425 -0.1024
  305SOL    HW2 1219   1.463   3.328   1.750 -0.9869  0.6998  1.3996
  305SOL     MW 1220   1.458   3.405   1.710 -0.5258  0.0571  0.0378
  306SOL     OW 1221   2.907   3.985   3.510  0.4920 -0.8084 -0.4614
  306SOL    HW1 1222   2.961   4.005   3.587  0.0389  0.1175 -0.3784
  306SOL    HW2 1223   2.817   3.989   3.542  0.3080 -0.5801 -1.0045
  306SOL     MW 1224   2.902   3.988   3.525  0.4063 -0.6531 -0.5233
  307SOL     OW 1225   0.252   0.218   1.411  0.3783 -0.0391  0.0924
  307SOL    HW1 1226   0.256   0.288   1.477  1.0364 -0.1119  0.1312
  307SOL    HW2 1227   0.318   0.155   1.439 -0.5911 -0.9505  0.3584
  307SOL     MW 1228   0.261   0.219   1.424  0.3364 -0.1716  0.1334
  308SOL     OW 1229   5.473   3.273   5.288  0.0038  0.3218  0.3457
  308SOL    HW1 1230   5.559   3.298   5.323  0.5154 -0.0342 -0.6213
  308SOL    HW2 1231   5.442   3.352   5.244  0.4400  0.0737 -0.4354
  308SOL     MW 1232   5.481   3.287   5.287  0.1314  0.2405  0.1104
  309SOL     OW 1233   1.602   5.047   3.909 -0.5412  0.6321 -0.0186
  309SOL    HW1 1234   1.621   4.984   3.839 -1.3330  0.1318  0.1988
  309SOL    HW2 1235   1.514   5.079   3.889 -0.3109  1.3615  0.1081
  309SOL     MW 1236   1.592   5.043   3.897 -0.6168  0.6630  0.0277
  310SOL     OW 1237   2.123   2.115   3.302 -0.4246  0.3275  0.3475
  310SOL    HW1 1238   2.134   2.210   3.304 -0.9593  0.5139 -2.4274
  310SOL    HW2 1239   2.121   2.093   3.209  0.0913 -2.4705  0.9262
  310SOL     MW 1240   2.124   2.125   3.290 -0.4272 -0.0240  0.0519
  311SOL     OW 1241   4.297   3.656   4.728  0.3430 -0.2244 -0.3300
  311SOL    HW1 1242   4.249   3.573   4.740  0.2748  0.0397  1.4700
  311SOL    HW2 1243   4.325   3.680   4.816  1.8402  0.8140 -1.0632
  311SOL     MW 1244   4.294   3.648   4.742  0.5353 -0.0491 -0.1865
  312SOL     OW 1245   5.419   4.972   5.116 -0.7148  0.2001 -0.1402
  312SOL    HW1 1246   5.366   4.998   5.191 -0.8336  0.6602 -0.3828
  312SOL    HW2 1247   5.506   4.956   5.152 -1.2072 -1.4288  0.4174
  312SOL     MW 1248   5.424   4.973   5.131 -0.7971  0.0428 -0.0978
  313SOL     OW 1249   5.310   4.745   4.037 -0.6541  0.0314  0.3282
  313SOL    HW1 1250   5.335   4.694   3.960 -2.5209 -0.9226  0.3081
  313SOL    HW2 1251   5.312   4.682   4.109 -2.0942  0.1268  0.4696
  313SOL     MW 1252   5.314   4.730   4.037 -1.0991 -0.0842  0.3445
  314SOL     OW 1253   3.745   4.929   5.435  0.3404 -0.1851 -0.5089
  314SOL    HW1 1254   3.773   5.018   5.457 -0.0025  0.2619 -1.7789
  314SOL    HW2 1255   3.827   4.881   5.423  0.5572 -0.5092  1.7606
  314SOL     MW 1256   3.760   4.935   5.437  0.3234 -0.1685 -0.3744
  315SOL     OW 1257   0.120   3.576   3.144 -0.0761 -0.0869  0.4159
  315SOL    HW1 1258   0.211   3.591   3.169 -0.4137  0.4729  1.3859
  315SOL    HW2 1259   0.071   3.641   3.194 -1.0009 -0.3141 -0.1719
  315SOL     MW 1260   0.126   3.587   3.154 -0.2460 -0.0422  0.4674
  316SOL     OW 1261   4.902   1.573   1.322 -0.1122  0.7248  0.0918
  316SOL    HW1 1262   4.855   1.541   1.245  1.9092 -1.8839 -0.1861
  316SOL    HW2 1263   4.833   1.610   1.378 -2.0130  0.0165 -1.6604
  316SOL     MW 1264   4.886   1.574   1.319 -0.0960  0.2784 -0.1814
  317SOL     OW 1265   1.250   3.206   0.244  0.2212  0.5527  0.2539
  317SOL    HW1 1266   1.253   3.111   0.229 -0.2045  0.7918 -1.6192
  317SOL    HW2 1267   1.338   3.227   0.277 -0.0532 -0.6313  1.8686
  317SOL     MW 1268   1.262   3.196   0.246  0.1270  0.4255  0.2191
  318SOL     OW 1269   1.231   2.095   3.192  0.2245 -0.5978  0.1793
  318SOL    HW1 1270   1.256   2.100   3.100 -1.7468  0.3253 -0.3405
  318SOL    HW2 1271   1.310   2.122   3.239  1.0812 -0.4897 -1.2403
  318SOL     MW 1272   1.245   2.099   3.186  0.0745 -0.4590 -0.0817
  319SOL     OW 1273   4.276   2.666   1.210  0.5179 -0.7923 -0.4972
  319SOL    HW1 1274   4.334   2.669   1.134  3.5217 -0.7679  1.6311
  319SOL    HW2 1275   4.282   2.753   1.249 -2.4943 -0.1723 -1.1255
  319SOL     MW 1276   4.284   2.678   1.205  0.5168 -0.7055 -0.2953
  320SOL     OW 1277   0.026   3.410   1.146  0.0960  0.0810  0.0076
  320SOL    HW1 1278   0.082   3.401   1.070  0.4025 -1.4105  0.3777
  320SOL    HW2 1279  -0.027   3.331   1.147 -1.4864  1.0842  0.1203
  320SOL     MW 1280   0.026   3.398   1.136 -0.0757  0.0152  0.0726
  321SOL     OW 1281   3.697   0.830   2.634  0.7503  0.7946  0.1639
  321SOL    HW1 1282   3.770   0.797   2.582 -0.3915  1.3143 -1.8854
  321SOL    HW2 1283   3.685   0.920   2.603  0.0886  1.1696  1.4452
  321SOL     MW 1284   3.705   0.838   2.623  0.5076  0.9150  0.0605
  322SOL     OW 1285   0.938  -0.008   2.898  0.2265  0.5081  0.3785
  322SOL    HW1 1286   0.993   0.066   2.924  0.4043 -0.4708  3.1204
  322SOL    HW2 1287   0.876  -0.018   2.970 -0.9864 -0.9124 -0.7945
  322SOL     MW 1288   0.937   0.001   2.911  0.0872  0.1852  0.5896
  323SOL     OW 1289   4.240   3.602   0.907  0.5509  0.5122  0.6002
  323SOL    HW1 1290   4.195   3.625   0.826 -0.2314  0.2724  0.9621
  323SOL    HW2 1291   4.173   3.604   0.974  0.9040 -0.6253  1.0214
  323SOL     MW 1292   4.225   3.605   0.905  0.4932  0.3268  0.7056
  324SOL     OW 1293   4.011   0.072   1.861  0.0505 -0.0288 -0.0325
  324SOL    HW1 1294   4.029   0.122   1.941  1.1179 -1.4456  0.6510
  324SOL    HW2 1295   3.952   0.128   1.811 -0.6171  0.9230  1.7271
  324SOL     MW 1296   4.005   0.086   1.865  0.1043 -0.0914  0.2963
  325SOL     OW 1297   1.780   1.502   1.690  0.0019 -0.6275 -0.1339
  325SOL    HW1 1298   1.859   1.527   1.644  0.5018 -1.8460  0.0202
  325SOL    HW2 1299   1.715   1.568   1.665  0.5003 -0.7660 -1.8776
  325SOL     MW 1300   1.782   1.514   1.681  0.1363 -0.8101 -0.3478
  326SOL     OW 1301   4.689   3.899   3.471  0.1528  0.0179  0.1008
  326SOL    HW1 1302   4.719   3.962   3.405 -1.2155 -1.3895 -1.9971
  326SOL    HW2 1303   4.769   3.855   3.499  1.0443  2.1074  1.0885
  326SOL     MW 1304   4.704   3.902   3.466  0.0886  0.1097 -0.0486
  327SOL     OW 1305   5.049   3.221   1.060 -0.3895  0.1271 -0.1137
  327SOL    HW1 1306   5.013   3.291   1.115  0.6350  3.2153 -3.0487
  327SOL    HW2 1307   5.008   3.235   0.974  3.5027  0.3747 -2.1369
  327SOL     MW 1308   5.039   3.232   1.056  0.2722  0.5760 -0.7810
  328SOL     OW 1309   0.384   1.250   1.662  0.2098  0.9561  0.5087
  328SOL    HW1 1310   0.387   1.343   1.683  1.2140  0.7905  1.1828
  328SOL    HW2 1311   0.303   1.218   1.702  0.2199  1.4028  0.8859
  328SOL     MW 1312   0.374   1.258   1.670  0.3463  0.9939  0.6502
  329SOL     OW 1313   0.262   3.100   2.549  0.3108 -0.3468  0.2234
  329SOL    HW1 1314   0.234   3.178   2.501 -0.1741 -0.4723  0.2926
  329SOL    HW2 1315   0.181   3.050   2.562  0.4804 -0.4349  0.9523
  329SOL     MW 1316   0.247   3.104   2.544  0.2683 -0.3756  0.3308
  330SOL     OW 1317   4.415   1.085   0.152  0.3926  0.3340 -0.2329
  330SOL    HW1 1318   4.466   1.154   0.195 -1.1039  0.7809  0.9141
  330SOL    HW2 1319   4.375   1.037   0.224 -0.9937  0.1630 -1.0762
  330SOL     MW 1320   4.416   1.088   0.167  0.0046  0.3711 -0.1920
  331SOL     OW 1321   3.858   2.207   5.358  0.5252  0.3102 -0.3181
  331SOL    HW1 1322   3.942   2.182   5.321  0.8164  0.5678  0.1662
  331SOL    HW2 1323   3.794   2.186   5.289  1.0643  0.8530 -0.9933
  331SOL     MW 1324   3.860   2.201   5.344  0.6369  0.4180 -0.3438
  332SOL     OW 1325   1.298   2.659   4.472  0.3901 -0.1686 -0.4633
  332SOL    HW1 1326   1.234   2.725   4.446  0.1897 -0.5321 -0.9102
  332SOL    HW2 1327   1.338   2.694   4.551  0.6020  0.6980 -0.9448
  332SOL     MW 1328   1.295   2.672   4.479  0.3916 -0.1009 -0.5882
  333SOL     OW 1329   2.028   0.761   1.979  0.3118  0.5533 -0.1530
  333SOL    HW1 1330   2.105   0.714   2.010  0.1204  1.2689  1.5238
  333SOL    HW2 1331   1.956   0.699   1.994  0.4033  0.3193 -0.6472
  333SOL     MW 1332   2.029   0.746   1.986  0.2983  0.6181  0.0061
  334SOL     OW 1333   0.860   3.789   2.972 -0.1012  0.1168 -0.1826
  334SOL    HW1 1334   0.859   3.835   3.056 -0.0644  0.3452 -0.3068
  334SOL    HW2 1335   0.834   3.855   2.908 -0.4024 -0.1275 -0.3170
  334SOL     MW 1336   0.856   3.804   2.975 -0.1368  0.1147 -0.2174
  335SOL     OW 1337   0.578   1.591   2.098  0.2072 -0.0120 -0.6980
  335SOL    HW1 1338   0.585   1.654   2.025  1.3588 -0.2642 -0.8268
  335SOL    HW2 1339   0.567   1.506   2.055  3.2609 -0.4985 -0.7293
  335SOL     MW 1340   0.578   1.588   2.082  0.7731 -0.1114 -0.7196
  336SOL     OW 1341   0.115   0.804   3.363 -0.0230  0.2904  0.0569
  336SOL    HW1 1342   0.110   0.879   3.304  0.2026  0.4386  0.2251
  336SOL    HW2 1343   0.199   0.814   3.408 -0.2165  0.2052  0.4401
  336SOL     MW 1344   0.125   0.815   3.361 -0.0187  0.2989  0.1311
  337SOL     OW 1345   5.358   2.748   1.187  0.2411 -0.3293  0.0750
  337SOL    HW1 1346   5.282   2.692   1.206  0.4960 -1.3094 -1.6141
  337SOL    HW2 1347   5.333   2.795   1.107  0.9143  0.2966  0.2288
  337SOL     MW 1348   5.344   2.747   1.179  0.3660 -0.3769 -0.1316
  338SOL     OW 1349   2.896   3.377   4.504 -0.4529  0.6363  0.0448
  338SOL    HW1 1350   2.954   3.371   4.428 -1.4478 -1.4308 -0.6323
  338SOL    HW2 1351   2.815   3.335   4.475 -1.5551  1.5551  1.6476
  338SOL     MW 1352   2.893   3.371   4.490 -0.7351  0.4817  0.1694
  339SOL     OW 1353   4.256   3.938   2.813  0.0801  0.0122 -0.4741
  339SOL    HW1 1354   4.289   4.028   2.815  2.9068 -0.9174  0.0341
  339SOL    HW2 1355   4.188   3.935   2.880  1.8684  1.1784  1.5327
  339SOL     MW 1356   4.252   3.950   2.822  0.7011  0.0440 -0.1356
  340SOL     OW 1357   3.657   1.304   2.084  0.3168 -0.1960  0.5390
  340SOL    HW1 1358   3.564   1.320   2.100  0.5104  0.7913  0.7421
  340SOL    HW2 1359   3.686   1.256   2.162  0.6943  2.4326  2.1272
  340SOL     MW 1360   3.649   1.299   2.097  0.3937  0.2906  0.7801
  341SOL     OW 1361   4.817   4.834   0.442 -0.8284 -0.3350 -0.0882
  341SOL    HW1 1362   4.895   4.863   0.489 -1.0453  0.8012 -0.3856
  341SOL    HW2 1363   4.807   4.898   0.372 -2.3598 -0.0987  0.3078
  341SOL     MW 1364   4.826   4.847   0.439 -1.0637 -0.1503 -0.0749
  342SOL     OW 1365   0.016   1.478   4.827  0.5562 -0.2371 -0.2191
  342SOL    HW1 1366   0.081   1.535   4.868  0.9345 -0.5309 -0.4025
  342SOL    HW2 1367  -0.051   1.466   4.894  1.5371 -1.3285  0.6037
  342SOL     MW 1368   0.016   1.484   4.842  0.7391 -0.4235 -0.1330
  343SOL     OW 1369   3.134   0.504   1.023 -0.1480 -0.3503 -0.1968
  343SOL    HW1 1370   3.168   0.419   1.052 -0.9184 -0.8552 -0.7264
  343SOL    HW2 1371   3.197   0.568   1.057  1.3196 -1.2302 -1.1282
  343SOL     MW 1372   3.147   0.501   1.032 -0.0542 -0.5367 -0.3934
  344SOL     OW 1373   1.618   0.983   2.535 -0.3761  0.1471  0.2426
  344SOL    HW1 1374   1.622   1.046   2.607  0.3374  0.4008 -0.0014
  344SOL    HW2 1375   1.693   1.006   2.480 -0.9319 -0.0169 -0.6023
  344SOL     MW 1376   1.629   0.994   2.537 -0.3548  0.1592  0.0961
  345SOL     OW 1377   0.127   4.910   5.455 -0.7194 -0.4798 -0.0752
  345SOL    HW1 1378   0.135   4.938   5.364 -1.7766  0.1155  0.0003
  345SOL    HW2 1379   0.165   4.982   5.506  0.5227 -1.1223 -0.0584
  345SOL     MW 1380   0.133   4.924   5.450 -0.6946 -0.4862 -0.0628
  346SOL     OW 1381   2.287   4.246   3.737  0.4338  0.2799  0.0199
  346SOL    HW1 1382   2.209   4.192   3.725  1.0745 -1.0063  1.3552
  346SOL    HW2 1383   2.253   4.335   3.748 -1.0374 -0.4685  2.3279
  346SOL     MW 1384   2.272   4.251   3.737  0.3220  0.0061  0.5102
  347SOL     OW 1385   0.970   4.110   4.999  0.5947 -0.6437  0.1960
  347SOL    HW1 1386   0.919   4.067   5.067  0.8947 -0.6760  0.4010
  347SOL    HW2 1387   1.003   4.190   5.040 -0.0996 -0.1223 -0.2300
  347SOL     MW 1388   0.968   4.115   5.014  0.5416 -0.5779  0.1662
  348SOL     OW 1389   1.654   0.942   4.911 -0.6631  0.1806 -0.0316
  348SOL    HW1 1390   1.734   0.965   4.864 -1.3589  0.5595 -1.0385
  348SOL    HW2 1391   1.643   1.012   4.976 -0.6038  0.5385 -0.4069
  348SOL     MW 1392   1.663   0.954   4.914 -0.7487  0.2797 -0.2177
  349SOL     OW 1393   3.554   5.239   5.374 -0.1842  0.2766  0.1882
  349SOL    HW1 1394   3.637   5.199   5.401 -1.0133 -0.4648  1.7190
  349SOL    HW2 1395   3.505   5.251   5.455 -0.4761  3.3741 -0.3246
  349SOL     MW 1396   3.559   5.235   5.388 -0.3351  0.5937  0.3252
  350SOL     OW 1397   4.592   2.409   1.237  0.0023  0.0372  0.3614
  350SOL    HW1 1398   4.637   2.490   1.215  1.5968 -0.5581  1.2973
  350SOL    HW2 1399   4.602   2.354   1.160 -1.4639  0.8262 -0.4522
  350SOL     MW 1400   4.599   2.413   1.224  0.0196  0.0633  0.3779
  351SOL     OW 1401   3.885   0.359   3.507 -0.9068 -0.0468  0.0231
  351SOL    HW1 1402   3.977   0.358   3.534 -0.2365 -0.8605 -2.1018
  351SOL    HW2 1403   3.839   0.396   3.582  1.1503  0.4304  1.1377
  351SOL     MW 1404   3.892   0.364   3.520 -0.5398 -0.0920 -0.1129
  352SOL     OW 1405   2.392   5.206   4.826 -0.2105 -0.3988  0.1660
  352SOL    HW1 1406   2.327   5.212   4.757  0.8862 -1.0970 -0.9742
  352SOL    HW2 1407   2.366   5.272   4.890 -0.0894  1.7576 -1.8926
  352SOL     MW 1408   2.380   5.216   4.826 -0.0466 -0.2026 -0.2645
  353SOL     OW 1409   5.249   4.546   4.922 -0.5506 -0.7968 -0.0491
  353SOL    HW1 1410   5.301   4.627   4.925 -0.8272 -0.6379  0.8068
  353SOL    HW2 1411   5.161   4.573   4.948 -0.3376 -1.5926  1.6334
  353SOL     MW 1412   5.244   4.561   4.926 -0.5592 -0.8825  0.2925
  354SOL     OW 1413   2.640   2.254   2.358  0.1662 -0.0436  0.1907
  354SOL    HW1 1414   2.580   2.295   2.421 -0.6141  0.1222 -0.6265
  354SOL    HW2 1415   2.727   2.277   2.389 -0.2259  1.9496 -0.0085
  354SOL     MW 1416   2.643   2.263   2.371  0.0085  0.2469  0.0539
  355SOL     OW 1417   2.026   0.987   2.892 -0.3441 -0.0047  0.0556
  355SOL    HW1 1418   2.092   0.990   2.961 -2.8946  1.8467  2.7074
  355SOL    HW2 1419   2.020   0.895   2.868  1.1503 -0.6228  1.8558
  355SOL     MW 1420   2.034   0.975   2.898 -0.4862  0.1613  0.6547
  356SOL     OW 1421   1.320   5.033   1.359  0.4579 -0.4807  0.2883
  356SOL    HW1 1422   1.269   4.953   1.340 -0.4666  0.3845 -1.0225
  356SOL    HW2 1423   1.263   5.083   1.417 -0.1347  0.3789 -0.9858
  356SOL     MW 1424   1.305   5.029   1.364  0.2537 -0.2486 -0.0596
  357SOL     OW 1425   3.980   3.705   4.292  0.4077  0.5564 -0.0276
  357SOL    HW1 1426   4.038   3.709   4.216  0.1696  0.7932 -0.1965
  357SOL    HW2 1427   3.894   3.728   4.258 -0.2833 -2.0108 -0.2735
  357SOL     MW 1428   3.976   3.708   4.277  0.2827  0.2428 -0.0834
  358SOL     OW 1429   1.931   1.360   3.845  0.3436 -0.4254  0.0045
  358SOL    HW1 1430   1.938   1.355   3.940 -1.5924  0.4016  0.2395
  358SOL    HW2 1431   1.854   1.307   3.825  0.4254 -0.1556 -1.0539
  358SOL     MW 1432   1.921   1.352   3.855  0.0941 -0.2778 -0.1063
  359SOL     OW 1433   4.181   0.146   3.657 -0.0074  0.5181 -0.4844
  359SOL    HW1 1434   4.187   0.155   3.562 -0.6395  1.0824 -0.4775
  359SOL    HW2 1435   4.164   0.235   3.688  0.5862  0.4040  0.1908
  359SOL     MW 1436   4.180   0.159   3.649 -0.0126  0.5787 -0.3926
  360SOL     OW 1437   2.522   0.734   3.942 -0.1542  0.3853  0.0307
  360SOL    HW1 1438   2.579   0.693   4.008  0.0955 -0.2373 -0.5502
  360SOL    HW2 1439   2.580   0.793   3.894 -0.4238  1.1319  0.6077
  360SOL     MW 1440   2.538   0.736   3.944 -0.1569  0.4020  0.0302
  361SOL     OW 1441   2.581   5.139   2.945 -0.2786  0.0989 -0.0922
  361SOL    HW1 1442   2.641   5.116   3.016 -1.5753 -0.3879  0.8983
  361SOL    HW2 1443   2.529   5.060   2.931 -0.1049  0.2197 -1.5505
  361SOL     MW 1444   2.582   5.125   2.953 -0.4297  0.0496 -0.1551
  362SOL     OW 1445   1.092   2.779   4.197 -0.3592 -0.4934  0.2996
  362SOL    HW1 1446   1.038   2.798   4.120 -0.2134 -1.9999 -0.2241
  362SOL    HW2 1447   1.182   2.782   4.164 -0.3112 -1.4939  0.3004
  362SOL     MW 1448   1.097   2.782   4.182 -0.3331 -0.8308  0.2292
  363SOL     OW 1449   4.559   1.725   1.082  0.1714 -0.1568 -0.1792
  363SOL    HW1 1450   4.552   1.693   1.171 -0.3489 -0.0468 -0.1764
  363SOL    HW2 1451   4.472   1.758   1.061 -0.0766 -1.3785 -1.1879
  363SOL     MW 1452   4.547   1.725   1.091  0.0680 -0.3064 -0.3146
  364SOL     OW 1453   0.846   4.487   3.669  1.4249 -0.1785 -0.3045
  364SOL    HW1 1454   0.769   4.442   3.633  0.6499  1.9545 -1.5423
  364SOL    HW2 1455   0.822   4.507   3.759 -0.4648  2.2814 -1.2355
  364SOL     MW 1456   0.832   4.484   3.676  1.0663  0.4396 -0.5964
  365SOL     OW 1457   4.971   0.914   5.323 -0.0436  0.1881 -0.0237
  365SOL    HW1 1458   4.932   0.831   5.349 -0.6814  0.1455 -1.0539
  365SOL    HW2 1459   5.043   0.927   5.384  1.1125 -1.9264 -0.8247
  365SOL     MW 1460   4.976   0.905   5.334  0.0262 -0.1022 -0.2701
  366SOL     OW 1461   1.743   5.501   4.840  0.2142  0.0058  0.2206
  366SOL    HW1 1462   1.679   5.484   4.772 -1.2641  2.1764  0.9594
  366SOL    HW2 1463   1.747   5.419   4.890 -3.6369  0.3262  1.3912
  366SOL     MW 1464   1.735   5.488   4.838 -0.5031  0.3411  0.4776
  367SOL     OW 1465   1.624   1.716   0.414 -0.0338 -0.2768 -0.1193
  367SOL    HW1 1466   1.651   1.749   0.500 -0.6038  1.8538 -0.7038
  367SOL    HW2 1467   1.664   1.630   0.408  0.7514 -0.1085  1.9179
  367SOL     MW 1468   1.633   1.709   0.425 -0.0048  0.0326  0.0762
  368SOL     OW 1469   3.260   3.271   4.634 -0.0128 -0.3483 -0.1301
  368SOL    HW1 1470   3.290   3.273   4.725 -2.5321  2.4921  0.8122
  368SOL    HW2 1471   3.182   3.216   4.635 -1.2610  1.3372 -0.0250
  368SOL     MW 1472   3.254   3.264   4.646 -0.5198  0.2608  0.0108
  369SOL     OW 1473   5.374   3.730   0.324 -0.3046  0.2800  0.0447
  369SOL    HW1 1474   5.378   3.672   0.248 -1.0737  1.0592 -0.6195
  369SOL    HW2 1475   5.337   3.811   0.289 -0.5193  0.7038  1.2298
  369SOL     MW 1476   5.369   3.733   0.309 -0.4370  0.4419  0.1148
  370SOL     OW 1477   4.695   3.921   5.331  0.1498  0.7393  0.3779
  370SOL    HW1 1478   4.686   3.876   5.247 -1.2787  1.0168  0.3595
  370SOL    HW2 1479   4.644   4.001   5.322  1.5540  1.7356  0.8775
  370SOL     MW 1480   4.687   3.925   5.319  0.1465  0.9107  0.4426
  371SOL     OW 1481   4.611   1.750   2.193  1.1785  0.2041  0.7842
  371SOL    HW1 1482   4.653   1.766   2.109  1.3656 -0.7219  0.6904
  371SOL    HW2 1483   4.578   1.836   2.220  0.2648  0.3582 -0.6897
  371SOL     MW 1484   4.612   1.764   2.185  1.0807  0.1002  0.5732
  372SOL     OW 1485   4.811   2.684   0.516 -0.0081  0.0784  0.3120
  372SOL    HW1 1486   4.808   2.757   0.454  2.0279 -0.5545 -0.5960
  372SOL    HW2 1487   4.776   2.609   0.467  1.2594 -0.3370 -0.0029
  372SOL     MW 1488   4.806   2.684   0.501  0.4365 -0.0626  0.1474
  373SOL     OW 1489   3.405   4.904   4.802 -0.0233 -0.1598 -0.2122
  373SOL    HW1 1490   3.348   4.894   4.726 -0.1902  0.4459 -0.1746
  373SOL    HW2 1491   3.398   4.820   4.849  0.0328 -0.5098 -0.8256
  373SOL     MW 1492   3.397   4.891   4.798 -0.0382 -0.1254 -0.2897
  374SOL     OW 1493   4.801   3.935   4.327  0.2073  0.2371  0.2164
  374SOL    HW1 1494   4.882   3.892   4.354 -1.2287 -0.6391  3.6482
  374SOL    HW2 1495   4.751   3.866   4.282 -0.0522 -0.3054  1.2975
  374SOL     MW 1496   4.805   3.920   4.325 -0.0208  0.0461  0.8238
  375SOL     OW 1497   4.641   1.747   5.158  0.5581  0.0114  0.0575
  375SOL    HW1 1498   4.575   1.679   5.170 -0.4282  1.1990  1.9093
  375SOL    HW2 1499   4.660   1.746   5.064 -2.6980  0.1149 -0.7451
  375SOL     MW 1500   4.634   1.738   5.147 -0.0128  0.1852  0.1987
  376SOL     OW 1501   1.473   5.366   1.280 -0.1674  0.0591 -0.1410
  376SOL    HW1 1502   1.559   5.359   1.238 -0.4809  0.9326 -0.9570
  376SOL    HW2 1503   1.418   5.305   1.231 -0.2731  0.3056 -0.3336
  376SOL     MW 1504   1.477   5.357   1.267 -0.2238  0.2098 -0.2768
  377SOL     OW 1505   1.611   4.425   1.859  0.0442  0.0048 -0.2397
  377SOL    HW1 1506   1.587   4.341   1.898 -1.7707  0.1330 -0.9725
  377SOL    HW2 1507   1.685   4.456   1.911 -0.0015 -1.5002  0.7674
  377SOL     MW 1508   1.617   4.418   1.871 -0.2062 -0.1805 -0.2028
  378SOL     OW 1509   0.096   5.294   3.082  0.3067 -0.1730 -0.5296
  378SOL    HW1 1510   0.053   5.363   3.032 -1.1015 -0.2984  0.4466
  378SOL    HW2 1511   0.139   5.340   3.154 -1.6305 -0.3386  0.8158
  378SOL     MW 1512   0.096   5.310   3.085 -0.1435 -0.2121 -0.2172
  379SOL     OW 1513   2.399   4.302   5.412  0.3426  0.5884  0.2028
  379SOL    HW1 1514   2.445   4.218   5.422  0.0740  0.4365  0.1571
  379SOL    HW2 1515   2.379   4.307   5.319  0.1964  0.6196  0.2363
  379SOL     MW 1516   2.403   4.291   5.401  0.2867  0.5721  0.2012
  380SOL     OW 1517   0.496   1.596   0.770 -0.0107  0.0421  0.1394
  380SOL    HW1 1518   0.530   1.521   0.721 -0.3947 -0.3338  0.4407
  380SOL    HW2 1519   0.568   1.623   0.826 -0.3135 -0.9985  1.0655
  380SOL     MW 1520   0.510   1.589   0.771 -0.1031 -0.1485  0.3045
  381SOL     OW 1521   4.130   3.636   3.364  0.0784  0.4170  0.3477
  381SOL    HW1 1522   4.192   3.663   3.295  0.2557 -0.3073  0.2129
  381SOL    HW2 1523   4.184   3.630   3.443  0.6234 -1.9626 -0.1133
  381SOL     MW 1524   4.146   3.639   3.365  0.1756 -0.0007  0.2675
  382SOL     OW 1525   5.055   0.954   1.732 -0.3635 -0.2936  0.0604
  382SOL    HW1 1526   5.091   1.042   1.747 -1.2348  0.0392  0.2561
  382SOL    HW2 1527   5.096   0.925   1.651  0.8634 -0.2152  0.6315
  382SOL     MW 1528   5.065   0.962   1.723 -0.3156 -0.2383  0.1636
  383SOL     OW 1529   0.892   4.693   4.139  0.1620 -0.5238 -0.6394
  383SOL    HW1 1530   0.814   4.697   4.194 -1.7054 -0.8211 -3.0510
  383SOL    HW2 1531   0.959   4.741   4.187 -1.0851 -1.3483  2.1264
  383SOL     MW 1532   0.891   4.700   4.153 -0.2572 -0.6748 -0.5917
  384SOL     OW 1533   1.435   3.788   1.350 -0.3624  0.4319  0.2416
  384SOL    HW1 1534   1.350   3.789   1.306  0.2772 -0.0626 -1.0557
  384SOL    HW2 1535   1.489   3.848   1.300  0.5423 -0.5408 -0.0002
  384SOL     MW 1536   1.431   3.796   1.337 -0.1545  0.2344  0.0345
  385SOL     OW 1537   3.255   2.749   3.695 -0.0481  0.2369 -0.1921
  385SOL    HW1 1538   3.304   2.788   3.768  3.6480  0.1765 -2.3795
  385SOL    HW2 1539   3.268   2.655   3.705  0.4646  0.2279 -0.8753
  385SOL     MW 1540   3.263   2.742   3.706  0.5183  0.2275 -0.5785
  386SOL     OW 1541   4.310   4.497   5.456  0.2693 -0.1136  0.2357
  386SOL    HW1 1542   4.293   4.580   5.501 -0.7487  0.0585 -0.4233
  386SOL    HW2 1543   4.297   4.430   5.523  2.5479  0.2923  1.1634
  386SOL     MW 1544   4.306   4.500   5.471  0.4389 -0.0358  0.2718
  387SOL     OW 1545   2.288   5.191   1.235 -0.7175 -0.4065 -0.2640
  387SOL    HW1 1546   2.205   5.186   1.283 -0.5683  0.9361  0.1797
  387SOL    HW2 1547   2.338   5.115   1.265 -1.2399 -0.4500  0.5320
  387SOL     MW 1548   2.283   5.180   1.245 -0.7677 -0.2317 -0.0972
  388SOL     OW 1549   5.130   0.019   1.450 -0.0249  0.2429  0.1118
  388SOL    HW1 1550   5.130   0.115   1.455  3.1844  0.3951 -0.3223
  388SOL    HW2 1551   5.168  -0.001   1.365 -0.1505 -1.4175  0.4110
  388SOL     MW 1552   5.136   0.029   1.440  0.3901  0.0399  0.0936
  389SOL     OW 1553   4.820   3.559   5.502  0.1110 -0.5067  0.0484
  389SOL    HW1 1554   4.775   3.541   5.420 -2.3429  0.2077  1.1402
  389SOL    HW2 1555   4.851   3.474   5.532 -1.0993 -1.1465 -0.4571
  389SOL     MW 1556   4.818   3.545   5.495 -0.3821 -0.4967  0.1273
  390SOL     OW 1557   3.305   0.442   4.030  0.4825  0.7019 -0.3551
  390SOL    HW1 1558   3.304   0.510   3.962 -0.3746 -0.3089 -1.4044
  390SOL    HW2 1559   3.373   0.381   4.002 -0.4229 -0.1458 -0.7823
  390SOL     MW 1560   3.314   0.443   4.017  0.2453  0.4518 -0.5538
  391SOL     OW 1561   5.372   4.500   2.397 -0.5395 -0.3901 -0.3781
  391SOL    HW1 1562   5.327   4.582   2.375  0.0744  0.1145  0.2054
  391SOL    HW2 1563   5.390   4.460   2.312 -0.9479  0.0255 -0.6671
  391SOL     MW 1564   5.369   4.506   2.382 -0.5119 -0.2662 -0.3385
  392SOL     OW 1565   3.193   3.403   0.679 -0.4757  0.1484 -0.2633
  392SOL    HW1 1566   3.138   3.482   0.678 -1.2932 -0.4171 -1.2745
  392SOL    HW2 1567   3.146   3.341   0.734 -0.7894 -0.2914 -1.0216
  392SOL     MW 1568   3.179   3.406   0.686 -0.6279  0.0131 -0.5015
  393SOL     OW 1569   4.846   4.390   4.192 -0.2380 -0.3517  0.0490
  393SOL    HW1 1570   4.898   4.313   4.215 -0.3137 -1.3622 -2.7620
  393SOL    HW2 1571   4.758   4.355   4.177 -0.6604  0.5670  0.3528
  393SOL     MW 1572   4.841   4.375   4.193 -0.3050 -0.3640 -0.2884
  394SOL     OW 1573   3.568   1.121   5.415  0.0801 -0.3180 -0.1123
  394SOL    HW1 1574   3.541   1.045   5.467 -0.2711 -0.2935 -0.2553
  394SOL    HW2 1575   3.487   1.154   5.377  0.3839 -0.5581 -0.9761
  394SOL     MW 1576   3.553   1.115   5.417  0.0737 -0.3470 -0.2478
  395SOL     OW 1577   1.005   0.461   3.890 -0.4529 -0.0764  0.0366
  395SOL    HW1 1578   0.929   0.417   3.927  0.3392 -1.2475  0.3548
  395SOL    HW2 1579   0.996   0.448   3.795 -0.1015 -1.1866  0.1420
  395SOL     MW 1580   0.994   0.453   3.882 -0.2990 -0.3834  0.0936
  396SOL     OW 1581   5.221   4.570   4.630 -0.9973  0.5139  0.2947
  396SOL    HW1 1582   5.149   4.519   4.593 -0.5460  1.9045 -2.8074
  396SOL    HW2 1583   5.206   4.567   4.725 -2.3794 -3.1596  0.1292
  396SOL     MW 1584   5.209   4.562   4.638 -1.1226  0.2067 -0.1451
  397SOL     OW 1585   1.873   4.902   2.696  0.2488  0.1847  0.5449
  397SOL    HW1 1586   1.847   4.993   2.681  1.7898  0.6501  0.4519
  397SOL    HW2 1587   1.855   4.886   2.788  0.9913  0.9760  0.8461
  397SOL     MW 1588   1.867   4.912   2.706  0.5561  0.3539  0.5729
  398SOL     OW 1589   4.447   3.298   0.281  0.1766  0.0969 -0.3109
  398SOL    HW1 1590   4.533   3.341   0.286  0.0958  0.6994 -2.6282
  398SOL    HW2 1591   4.392   3.346   0.343  1.1958  0.5093  0.3001
  398SOL     MW 1592   4.452   3.311   0.290  0.3029  0.2335 -0.5405
  399SOL     OW 1593   2.663   1.408   5.089  0.4905 -0.4953  0.3602
  399SOL    HW1 1594   2.690   1.472   5.155 -0.2234  0.9280 -0.6751
  399SOL    HW2 1595   2.668   1.456   5.006  0.5688 -1.9949 -0.5269
  399SOL     MW 1596   2.667   1.423   5.087  0.4050 -0.5056  0.1015
  400SOL     OW 1597   2.379   2.024   3.617  0.2792 -0.0640  0.4368
  400SOL    HW1 1598   2.453   1.966   3.638  1.3822  0.5044 -1.5606
  400SOL    HW2 1599   2.374   2.021   3.521 -0.2400  2.4115  0.3380
  400SOL     MW 1600   2.389   2.016   3.607  0.3578  0.3457  0.1547
  401SOL     OW 1601   1.922   4.001   2.624  0.1889  0.3956  0.0505
  401SOL    HW1 1602   1.835   3.984   2.589  0.6733 -0.7971 -0.5999
  401SOL    HW2 1603   1.982   3.949   2.570  1.3060  1.1139  0.5421
  401SOL     MW 1604   1.919   3.992   2.612  0.4044  0.3318  0.0291
  402SOL     OW 1605   1.093   4.580   3.379 -0.0497  0.5848  0.2878
  402SOL    HW1 1606   1.084   4.671   3.406  0.5954  1.0843 -1.0753
  402SOL    HW2 1607   1.027   4.569   3.311  0.2763  0.2185  0.0263
  402SOL     MW 1608   1.083   4.591   3.373  0.0810  0.6027  0.0692
  403SOL     OW 1609   1.346   0.668   2.677  0.2321  0.1026 -0.0751
  403SOL    HW1 1610   1.348   0.578   2.643  1.5181  0.5457 -1.2583
  403SOL    HW2 1611   1.358   0.723   2.599 -1.0229  1.3408  0.5622
  403SOL     MW 1612   1.348   0.663   2.662  0.2363  0.3289 -0.1485
  404SOL     OW 1613   4.735   1.908   1.199  0.0173  0.1016  0.4455
  404SOL    HW1 1614   4.685   1.835   1.162 -1.4919  1.0641  0.5309
  404SOL    HW2 1615   4.787   1.941   1.125 -0.0579 -0.4129  0.1557
  404SOL     MW 1616   4.735   1.902   1.184 -0.1959  0.1619  0.4180
  405SOL     OW 1617   1.932   2.020   3.999  0.8240  0.2651  0.5530
  405SOL    HW1 1618   1.951   2.076   3.923 -1.7592 -1.0296 -1.1859
  405SOL    HW2 1619   1.837   2.022   4.007  0.8897 -1.3743  2.4108
  405SOL     MW 1620   1.922   2.028   3.990  0.4852 -0.1298  0.5690
  406SOL     OW 1621   2.051   3.964   3.480  0.0884  0.7036 -0.2519
  406SOL    HW1 1622   2.068   4.035   3.418 -1.3977 -0.0470 -1.5711
  406SOL    HW2 1623   2.034   3.888   3.426  0.9694 -0.5274  1.1388
  406SOL     MW 1624   2.051   3.964   3.465  0.0070  0.4369 -0.2423
  407SOL     OW 1625   3.391   2.424   3.424  0.1071 -0.0225  0.3261
  407SOL    HW1 1626   3.392   2.458   3.514 -2.7656  0.7920  0.1492
  407SOL    HW2 1627   3.360   2.497   3.371  1.1587 -0.6841 -1.2715
  407SOL     MW 1628   3.387   2.439   3.429 -0.1380 -0.0019  0.0873
  408SOL     OW 1629   3.810   2.165   1.066  0.0496  0.2039 -0.0931
  408SOL    HW1 1630   3.770   2.103   1.126  0.7053  0.8643  1.0633
  408SOL    HW2 1631   3.845   2.111   0.996 -1.3868 -0.5217 -0.2994
  408SOL     MW 1632   3.809   2.150   1.065 -0.0554  0.1952  0.0347
  409SOL     OW 1633   5.147   5.076   2.315 -0.0833 -0.0050 -0.3543
  409SOL    HW1 1634   5.136   5.169   2.296 -1.4783 -0.0634  0.0135
  409SOL    HW2 1635   5.237   5.056   2.289  1.1027  1.9821  1.8139
  409SOL     MW 1636   5.158   5.086   2.309 -0.1115  0.2546 -0.0130
  410SOL     OW 1637   3.892   1.744   1.612  0.3543  0.1893 -0.5735
  410SOL    HW1 1638   3.938   1.698   1.682  0.9292 -0.1607 -1.1758
  410SOL    HW2 1639   3.912   1.694   1.533 -0.0875  0.7243 -1.0309
  410SOL     MW 1640   3.901   1.731   1.611  0.3722  0.2142 -0.7161
  411SOL     OW 1641   2.641   4.742   0.631 -0.8530  0.4874 -0.7042
  411SOL    HW1 1642   2.640   4.791   0.713  0.7664 -3.3642  1.9116
  411SOL    HW2 1643   2.550   4.714   0.619 -1.1740  1.3947 -0.4751
  411SOL     MW 1644   2.629   4.745   0.640 -0.6783  0.0911 -0.3214
  412SOL     OW 1645   1.419   2.217   3.335 -0.8173  0.0898 -0.4688
  412SOL    HW1 1646   1.351   2.267   3.379 -1.0425 -0.1164 -0.5833
  412SOL    HW2 1647   1.467   2.282   3.284 -0.6551  0.3026 -0.0454
  412SOL     MW 1648   1.417   2.232   3.334 -0.8258  0.0907 -0.4272
  413SOL     OW 1649   1.296   3.495   4.760 -0.0193 -0.0432 -0.4688
  413SOL    HW1 1650   1.202   3.496   4.741 -0.0694  1.0638 -0.2343
  413SOL    HW2 1651   1.332   3.426   4.704 -1.4554 -2.8380  1.8098
  413SOL     MW 1652   1.288   3.486   4.750 -0.2193 -0.2703 -0.1306
  414SOL     OW 1653   5.189   0.276   1.756  0.0437  0.4829 -0.6231
  414SOL    HW1 1654   5.150   0.344   1.811  0.2540  0.1283 -0.0227
  414SOL    HW2 1655   5.280   0.303   1.744 -0.3704  1.3150 -2.0319
  414SOL     MW 1656   5.196   0.289   1.762  0.0163  0.5472 -0.7319
  415SOL     OW 1657   0.428   3.125   1.186  0.2498  0.0001  0.4749
  415SOL    HW1 1658   0.509   3.167   1.159  0.1348  0.4674  0.8527
  415SOL    HW2 1659   0.455   3.061   1.252  0.2065  0.8401  1.3256
  415SOL     MW 1660   0.443   3.122   1.191  0.2285  0.1760  0.6402
  416SOL     OW 1661   0.882   2.941   0.842 -0.0091 -0.3051 -0.6712
  416SOL    HW1 1662   0.795   2.903   0.858 -0.6842  0.9149 -1.2449
  416SOL    HW2 1663   0.939   2.900   0.907 -1.3256 -0.0880  0.6683
  416SOL     MW 1664   0.878   2.930   0.853 -0.2771 -0.1117 -0.5681
  417SOL     OW 1665   1.109   0.652   1.669 -0.0300  0.4640 -0.5258
  417SOL    HW1 1666   1.140   0.570   1.707 -0.7931  0.1591 -0.5436
  417SOL    HW2 1667   1.098   0.711   1.744  0.5773  0.5788 -0.5199
  417SOL     MW 1668   1.112   0.649   1.684 -0.0509  0.4384 -0.5274
  418SOL     OW 1669   3.261   4.337   5.080 -0.2160 -0.3319  0.1135
  418SOL    HW1 1670   3.300   4.306   5.162 -2.1383 -0.7545  0.9107
  418SOL    HW2 1671   3.174   4.367   5.105  0.0009  1.7522 -1.3931
  418SOL     MW 1672   3.255   4.337   5.094 -0.4456 -0.1083  0.0180
  419SOL     OW 1673   3.037   2.781   1.521  0.0802  0.0597 -0.4996
  419SOL    HW1 1674   3.028   2.717   1.450 -2.6228  1.4418 -1.5389
  419SOL    HW2 1675   3.011   2.864   1.482  1.2496  1.3985  1.4138
  419SOL     MW 1676   3.032   2.783   1.506 -0.1262  0.4259 -0.3820
  420SOL     OW 1677   2.707   2.255   1.354  0.2330 -0.0525  0.2683
  420SOL    HW1 1678   2.754   2.291   1.428  0.3815 -1.8062  1.0536
  420SOL    HW2 1679   2.731   2.312   1.281  2.3923 -0.0051  0.9427
  420SOL     MW 1680   2.716   2.268   1.354  0.5436 -0.2822  0.4647
  421SOL     OW 1681   2.809   2.667   1.871  0.0387  0.3524 -0.0581
  421SOL    HW1 1682   2.787   2.703   1.785 -0.5810  0.1008 -0.0070
  421SOL    HW2 1683   2.903   2.683   1.880  0.6617 -1.8856 -1.8515
  421SOL     MW 1684   2.818   2.674   1.861  0.0391  0.0173 -0.2926
  422SOL     OW 1685   1.903   0.069   5.253  0.0808  0.3617 -0.5734
  422SOL    HW1 1686   1.997   0.067   5.237  0.5490  0.6329  1.8076
  422SOL    HW2 1687   1.890   0.143   5.313 -1.8858  1.3013 -2.0370
  422SOL     MW 1688   1.914   0.079   5.259 -0.1208  0.5247 -0.4500
  423SOL     OW 1689   0.168   2.816   5.520  0.6670  0.1843  0.2547
  423SOL    HW1 1690   0.204   2.828   5.432  1.7106 -0.2468  0.6092
  423SOL    HW2 1691   0.073   2.812   5.507  0.8519 -0.7086 -0.9509
  423SOL     MW 1692   0.160   2.817   5.506  0.8324  0.0061  0.1401
  424SOL     OW 1693   0.244   4.972   4.437  0.4179 -0.5767 -0.4345
  424SOL    HW1 1694   0.339   4.981   4.436  0.5552 -1.6670  0.2043
  424SOL    HW2 1695   0.229   4.877   4.431 -0.6544 -0.3742 -1.2793
  424SOL     MW 1696   0.255   4.960   4.436  0.2920 -0.6962 -0.4622
  425SOL     OW 1697   1.623   1.765   3.754 -0.1046  0.2865 -0.0212
  425SOL    HW1 1698   1.558   1.817   3.801 -0.6333  0.4590 -0.9144
  425SOL    HW2 1699   1.673   1.830   3.704  0.1149  0.0612 -0.0939
  425SOL     MW 1700   1.621   1.781   3.754 -0.1462  0.2794 -0.1512
  426SOL     OW 1701   0.936   2.894   2.321  0.2253 -0.0175 -0.0112
  426SOL    HW1 1702   0.863   2.878   2.261  0.1469 -1.0567  0.3342
  426SOL    HW2 1703   0.908   2.969   2.374  0.2593  0.8535 -1.1818
  426SOL     MW 1704   0.922   2.902   2.320  0.2193 -0.0402 -0.1223
  427SOL     OW 1705   3.761   3.669   4.560  0.7307 -0.3748  0.2646
  427SOL    HW1 1706   3.823   3.738   4.539 -0.8677  0.6883 -1.2713
  427SOL    HW2 1707   3.812   3.588   4.554  2.7488  0.6042  2.5310
  427SOL     MW 1708   3.776   3.667   4.556  0.7872 -0.1000  0.3629
  428SOL     OW 1709   2.088   4.896   2.895 -0.6363  0.3040  0.2426
  428SOL    HW1 1710   2.048   4.889   2.808 -1.0252  0.5226  0.3967
  428SOL    HW2 1711   2.136   4.814   2.907 -2.2915 -0.6530  0.6582
  428SOL     MW 1712   2.089   4.884   2.885 -0.9114  0.2047  0.3192
  429SOL     OW 1713   0.090   5.054   4.226 -0.1770 -0.4026 -0.8172
  429SOL    HW1 1714   0.137   5.077   4.145 -0.5772 -0.9205 -1.2047
  429SOL    HW2 1715   0.158   5.024   4.286  0.1939  0.5271 -0.7589
  429SOL     MW 1716   0.106   5.053   4.223 -0.1809 -0.3472 -0.8615
  430SOL     OW 1717   3.557   5.086   1.072 -0.2172  0.2286  0.3592
  430SOL    HW1 1718   3.573   5.179   1.089 -0.9320  0.5388 -0.5581
  430SOL    HW2 1719   3.470   5.069   1.109  0.5803 -0.5019  1.9788
  430SOL     MW 1720   3.547   5.096   1.079 -0.2061  0.1721  0.4537
  431SOL     OW 1721   0.880   4.202   1.470  0.4910  0.0134 -0.0295
  431SOL    HW1 1722   0.910   4.214   1.560  0.0322 -0.5607  0.2059
  431SOL    HW2 1723   0.806   4.142   1.477 -0.6114  1.2626 -0.6140
  431SOL     MW 1724   0.874   4.196   1.483  0.2809  0.1042 -0.0764
  432SOL     OW 1725   0.088   4.026   4.321 -0.1333 -0.0601 -0.5809
  432SOL    HW1 1726   0.172   4.002   4.282 -0.1198 -2.7476  0.8568
  432SOL    HW2 1727   0.105   4.108   4.366  1.9859 -0.8858  0.2630
  432SOL     MW 1728   0.101   4.034   4.321  0.1537 -0.5329 -0.2738
  433SOL     OW 1729   1.958   2.356   2.259  0.2646  0.1520  0.3642
  433SOL    HW1 1730   2.052   2.353   2.278  0.1654  0.5705  0.9831
  433SOL    HW2 1731   1.937   2.450   2.259 -0.1193  0.0669  0.0664
  433SOL     MW 1732   1.968   2.368   2.262  0.1996  0.1969  0.4074
  434SOL     OW 1733   4.333   0.026   5.021  0.0521 -0.6580 -0.2733
  434SOL    HW1 1734   4.371  -0.017   4.944  1.8032 -1.3782  0.9140
  434SOL    HW2 1735   4.385   0.106   5.031  0.9424 -1.3533  1.0252
  434SOL     MW 1736   4.345   0.031   5.012  0.4076 -0.8485  0.0613
  435SOL     OW 1737   0.246   0.565   3.227 -0.3359  0.1721  0.1400
  435SOL    HW1 1738   0.201   0.621   3.290 -0.3912  0.5388 -0.2220
  435SOL    HW2 1739   0.179   0.502   3.199 -0.5425  0.5252 -0.1695
  435SOL     MW 1740   0.231   0.564   3.232 -0.3712  0.2690  0.0497
  436SOL     OW 1741   1.919   1.178   0.692 -0.1031  0.0711 -0.2303
  436SOL    HW1 1742   1.840   1.125   0.705  0.1565  0.1164  1.9324
  436SOL    HW2 1743   1.970   1.165   0.772  1.7384  0.6568 -1.2483
  436SOL     MW 1744   1.915   1.169   0.704  0.1797  0.1560 -0.0763
  437SOL     OW 1745   2.275   4.513   1.745 -0.0584 -0.3327 -0.2784
  437SOL    HW1 1746   2.333   4.449   1.786  0.1366 -1.5166 -2.2762
  437SOL    HW2 1747   2.193   4.465   1.731 -0.7455  0.6135  0.3565
  437SOL     MW 1748   2.272   4.498   1.749 -0.1246 -0.3647 -0.4618
  438SOL     OW 1749   2.895   3.432   4.866 -0.5661  0.1966  1.0944
  438SOL    HW1 1750   2.802   3.437   4.847 -0.5231 -1.4226  0.3049
  438SOL    HW2 1751   2.937   3.479   4.793 -0.7276  0.0913  0.9321
  438SOL     MW 1752   2.888   3.439   4.853 -0.5820 -0.0355  0.9663
  439SOL     OW 1753   5.219   2.986   3.315  0.0155 -0.7545 -0.4729
  439SOL    HW1 1754   5.124   2.994   3.307 -0.3226 -3.3791 -0.0331
  439SOL    HW2 1755   5.237   3.005   3.407  0.0792  0.6883 -0.7623
  439SOL     MW 1756   5.209   2.990   3.326 -0.0214 -0.9136 -0.4526
  440SOL     OW 1757   1.375   4.634   0.437  0.2002  0.3396  0.0705
  440SOL    HW1 1758   1.404   4.555   0.482 -1.0694  0.0881  0.4912
  440SOL    HW2 1759   1.303   4.667   0.491  0.6139  1.7152 -0.1697
  440SOL     MW 1760   1.369   4.628   0.451  0.0850  0.4909  0.0948
  441SOL     OW 1761   4.215   2.972   2.385  0.0672  0.4468 -1.0536
  441SOL    HW1 1762   4.129   2.940   2.413  0.8676 -0.1348  0.9117
  441SOL    HW2 1763   4.195   3.034   2.315 -1.8647 -0.5717 -1.4827
  441SOL     MW 1764   4.200   2.976   2.380 -0.0851  0.2315 -0.8469
  442SOL     OW 1765   1.226   3.981   4.574  0.6493  0.8442  0.3217
  442SOL    HW1 1766   1.145   3.947   4.610  0.8947  1.5002  1.5537
  442SOL    HW2 1767   1.294   3.922   4.607  0.6139 -0.3213 -1.5453
  442SOL     MW 1768   1.225   3.968   4.583  0.6776  0.7756  0.2362
  443SOL     OW 1769   3.350   3.305   1.606 -0.0209 -0.5364 -0.6588
  443SOL    HW1 1770   3.401   3.297   1.686  1.1247 -1.5086 -1.4647
  443SOL    HW2 1771   3.261   3.323   1.637  0.2274 -1.7039  0.8673
  443SOL     MW 1772   3.345   3.307   1.621  0.1667 -0.8244 -0.5618
  444SOL     OW 1773   0.098   5.242   1.862 -0.1056 -0.1735 -0.0039
  444SOL    HW1 1774   0.147   5.160   1.863 -1.8653 -1.3528  2.9792
  444SOL    HW2 1775   0.026   5.227   1.801 -0.4159 -0.9242  0.5249
  444SOL     MW 1776   0.095   5.229   1.854 -0.3842 -0.4332  0.4687
  445SOL     OW 1777   3.072   1.365   2.160  0.1264 -0.0729 -0.0939
  445SOL    HW1 1778   3.024   1.290   2.127 -0.7596 -0.1324  1.2276
  445SOL    HW2 1779   3.105   1.337   2.245  2.1971  0.1136 -0.7869
  445SOL     MW 1780   3.070   1.351   2.167  0.2858 -0.0558 -0.0093
  446SOL     OW 1781   3.888   2.011   0.857  0.0481  0.2932  0.4093
  446SOL    HW1 1782   3.878   2.067   0.780 -0.6329  1.6073  1.4167
  446SOL    HW2 1783   3.884   1.922   0.822 -0.9045  0.8498 -1.0004
  446SOL     MW 1784   3.886   2.007   0.842 -0.1718  0.5450  0.3551
  447SOL     OW 1785   2.597   2.534   0.923  0.4368  0.1530  0.3926
  447SOL    HW1 1786   2.638   2.468   0.979  1.2571  0.7331  0.4834
  447SOL    HW2 1787   2.576   2.487   0.842 -0.1997 -0.5375  0.9456
  447SOL     MW 1788   2.600   2.519   0.919  0.4615  0.1381  0.4793
  448SOL     OW 1789   0.428   5.175   3.253 -0.8318  0.2850  0.0277
  448SOL    HW1 1790   0.443   5.214   3.166 -0.7841  0.3588  0.0686
  448SOL    HW2 1791   0.482   5.096   3.253 -0.1058  0.7728  0.3296
  448SOL     MW 1792   0.438   5.170   3.241 -0.7277  0.3606  0.0738
  449SOL     OW 1793   1.208   4.831   2.562 -0.0157 -0.0919  0.3386
  449SOL    HW1 1794   1.200   4.779   2.642  2.0478  0.3039  0.8562
  449SOL    HW2 1795   1.118   4.843   2.532 -0.7341 -1.4395  1.8198
  449SOL     MW 1796   1.195   4.826   2.569  0.1653 -0.2200  0.6076
  450SOL     OW 1797   5.078   2.427   1.009 -0.0845  0.4041 -0.3033
  450SOL    HW1 1798   5.073   2.503   1.067 -1.2770 -0.6381  1.0469
  450SOL    HW2 1799   5.139   2.453   0.940  1.0688  1.8647  1.1785
  450SOL     MW 1800   5.086   2.440   1.008 -0.0898  0.4604  0.0779
  451SOL     OW 1801   2.773   3.540   2.668 -0.2917  0.1694 -0.2038
  451SOL    HW1 1802   2.765   3.540   2.763  1.3489 -1.2497 -0.0186
  451SOL    HW2 1803   2.685   3.561   2.636 -0.4378  2.7488  1.6080
  451SOL     MW 1804   2.760   3.543   2.676 -0.0905  0.3255  0.0650
  452SOL     OW 1805   4.588   3.785   2.186 -0.3974 -0.0095 -0.1232
  452SOL    HW1 1806   4.603   3.771   2.279  2.0931 -0.1140 -0.4693
  452SOL    HW2 1807   4.516   3.726   2.164 -1.3627  0.3712  1.7851
  452SOL     MW 1808   4.580   3.775   2.195 -0.1921  0.0277  0.0871
  453SOL     OW 1809   4.962   4.215   5.391  0.0202 -0.3576  0.3046
  453SOL    HW1 1810   5.009   4.242   5.312 -0.0450 -0.8718  0.0854
  453SOL    HW2 1811   4.994   4.127   5.409 -1.4598 -1.0568 -0.3285
  453SOL     MW 1812   4.973   4.207   5.383 -0.1877 -0.5209  0.1899
  454SOL     OW 1813   5.312   3.873   4.651  0.2378  0.1098  0.0941
  454SOL    HW1 1814   5.325   3.801   4.714 -0.2247 -0.8644 -0.8856
  454SOL    HW2 1815   5.228   3.911   4.676 -0.4522 -0.9389 -0.5265
  454SOL     MW 1816   5.303   3.868   4.663  0.0827 -0.1624 -0.1213
  455SOL     OW 1817   1.883   2.345   4.509 -0.1279 -0.1351  0.0971
  455SOL    HW1 1818   1.824   2.279   4.547  0.6504 -0.5852  0.5472
  455SOL    HW2 1819   1.971   2.315   4.533  0.2158  1.4374  0.9363
  455SOL     MW 1820   1.887   2.332   4.517  0.0231  0.0160  0.2706
  456SOL     OW 1821   3.882   3.015   2.205 -0.3272  0.0066  0.1363
  456SOL    HW1 1822   3.896   2.977   2.292  2.1685  1.0259  0.2630
  456SOL    HW2 1823   3.850   3.103   2.222  1.1799  0.5836  0.0917
  456SOL     MW 1824   3.880   3.021   2.219  0.2115  0.2214  0.1474
  457SOL     OW 1825   2.448   3.354   4.342  0.0514  0.1213 -0.2292
  457SOL    HW1 1826   2.430   3.426   4.401 -1.0673  1.8080 -2.4699
  457SOL    HW2 1827   2.362   3.325   4.312  0.5692 -0.7596 -0.9300
  457SOL     MW 1828   2.434   3.360   4.346 -0.0295  0.2297 -0.6250
  458SOL     OW 1829   2.597   1.066   2.655  0.1274 -0.1241 -0.6791
  458SOL    HW1 1830   2.665   1.008   2.621  0.8750 -1.9410  3.3092
  458SOL    HW2 1831   2.516   1.015   2.646 -0.2720  0.7756 -2.6018
  458SOL     MW 1832   2.595   1.051   2.649  0.1743 -0.2475 -0.4011
  459SOL     OW 1833   3.873   1.074   2.945  0.9555 -0.0806  0.0661
  459SOL    HW1 1834   3.783   1.042   2.953  1.2322 -1.2066 -0.9586
  459SOL    HW2 1835   3.880   1.101   2.854  1.5130  0.4769  0.2733
  459SOL     MW 1836   3.862   1.073   2.934  1.0677 -0.1571 -0.0439
  460SOL     OW 1837   3.471   4.542   4.512 -0.1216  0.3109  0.1097
  460SOL    HW1 1838   3.393   4.512   4.559 -0.4527 -0.2030 -0.7365
  460SOL    HW2 1839   3.443   4.545   4.421  0.3658  1.7399 -0.0047
  460SOL     MW 1840   3.457   4.538   4.506 -0.1006  0.4341 -0.0196
  461SOL     OW 1841   1.915   4.800   3.193  0.6302  0.2845 -0.2553
  461SOL    HW1 1842   1.951   4.865   3.254  1.1828 -0.8451  0.6479
  461SOL    HW2 1843   1.985   4.735   3.183 -0.3608 -0.8188 -0.1786
  461SOL     MW 1844   1.929   4.800   3.200  0.5712 -0.0160 -0.1234
  462SOL     OW 1845   2.712   0.421   1.137 -0.1339 -0.3451 -0.2908
  462SOL    HW1 1846   2.648   0.405   1.207 -0.9668  1.1138 -0.6855
  462SOL    HW2 1847   2.660   0.422   1.057  0.6487 -0.8132 -0.8264
  462SOL     MW 1848   2.696   0.419   1.136 -0.1407 -0.2117 -0.4160
  463SOL     OW 1849   0.091   0.636   5.252 -0.0823  0.3765 -0.4491
  463SOL    HW1 1850   0.096   0.692   5.330  0.5747 -0.2955  0.0082
  463SOL    HW2 1851   0.183   0.620   5.229 -0.1896 -1.9230  0.4724
  463SOL     MW 1852   0.104   0.642   5.259 -0.0083 -0.0234 -0.2636
  464SOL     OW 1853   2.605   5.264   4.501 -0.2953  0.5212 -0.0405
  464SOL    HW1 1854   2.573   5.314   4.576  1.5574 -1.0127  1.9073
  464SOL    HW2 1855   2.700   5.275   4.504  0.1181 -2.3852 -0.0044
  464SOL     MW 1856   2.614   5.272   4.512  0.0097 -0.0763  0.2265
  465SOL     OW 1857   0.333   1.481   5.156 -0.0419 -0.3186 -0.3289
  465SOL    HW1 1858   0.281   1.543   5.105  1.3412  0.5377 -0.7608
  465SOL    HW2 1859   0.421   1.518   5.156  0.3657 -1.1719  1.2621
  465SOL     MW 1860   0.338   1.495   5.149  0.1991 -0.3182 -0.1729
  466SOL     OW 1861   1.398   3.497   1.099 -0.1635 -0.2642 -0.0499
  466SOL    HW1 1862   1.397   3.401   1.103  0.0834 -0.2619  0.1114
  466SOL    HW2 1863   1.466   3.523   1.162 -0.1722  0.0137 -0.1525
  466SOL     MW 1864   1.407   3.488   1.108 -0.1315 -0.2265 -0.0420
  467SOL     OW 1865   2.503   4.181   0.909 -0.6062 -0.2765  0.1387
  467SOL    HW1 1866   2.587   4.167   0.953 -0.0579  1.9660 -0.0550
  467SOL    HW2 1867   2.487   4.101   0.861  2.1254 -0.2785 -0.9240
  467SOL     MW 1868   2.512   4.169   0.909 -0.1648  0.0251 -0.0304
  468SOL     OW 1869   1.082   2.304   1.250 -0.0092  0.4887 -0.3865
  468SOL    HW1 1870   1.002   2.269   1.211  1.4115 -2.7512 -0.7351
  468SOL    HW2 1871   1.117   2.364   1.184 -1.4516  0.9145 -0.7911
  468SOL     MW 1872   1.076   2.307   1.236 -0.0121  0.1100 -0.4879
  469SOL     OW 1873   3.223   0.668   2.958 -0.4056 -0.2362  0.5847
  469SOL    HW1 1874   3.274   0.614   3.019  1.1847  1.0472  0.4695
  469SOL    HW2 1875   3.144   0.691   3.006 -0.4419 -1.4383  1.1514
  469SOL     MW 1876   3.219   0.664   2.973 -0.1964 -0.2252  0.6455
  470SOL     OW 1877   5.250   3.378   1.413  0.3253  0.4902  0.1380
  470SOL    HW1 1878   5.319   3.441   1.436  1.0534 -0.7337  1.3941
  470SOL    HW2 1879   5.177   3.401   1.470 -0.5954  2.1313 -1.5582
  470SOL     MW 1880   5.250   3.390   1.423  0.2994  0.5464  0.0787
  471SOL     OW 1881   1.325   4.528   5.380 -0.4031  1.3845 -0.2988
  471SOL    HW1 1882   1.299   4.478   5.457  0.6818  1.4482  0.1220
  471SOL    HW2 1883   1.293   4.617   5.397  1.9079  2.0084  1.2398
  471SOL     MW 1884   1.317   4.533   5.393  0.0539  1.4770 -0.0351
  472SOL     OW 1885   0.066   2.349   2.074  0.3588  0.4685 -0.4692
  472SOL    HW1 1886   0.082   2.396   1.992  1.5228  0.5777 -0.2058
  472SOL    HW2 1887  -0.023   2.372   2.098  0.8028  2.3699 -0.4898
  472SOL     MW 1888   0.056   2.359   2.066  0.5752  0.7391 -0.4365
  473SOL     OW 1889   1.100   1.985   3.959  0.3243  0.1151 -0.1044
  473SOL    HW1 1890   1.006   1.998   3.970  0.3215 -0.3016  0.3531
  473SOL    HW2 1891   1.129   1.942   4.039  0.8238 -0.2015 -0.4488
  473SOL     MW 1892   1.091   1.981   3.971  0.3911  0.0164 -0.0892
  474SOL     OW 1893   1.209   1.104   2.279  0.2235  0.4464 -0.4818
  474SOL    HW1 1894   1.140   1.120   2.215  0.6113 -0.8084 -1.2586
  474SOL    HW2 1895   1.174   1.035   2.335  0.5773  0.2632 -0.4784
  474SOL     MW 1896   1.195   1.097   2.278  0.3233  0.2529 -0.5859
  475SOL     OW 1897   4.485   2.646   3.293 -0.1219  0.1175 -0.2471
  475SOL    HW1 1898   4.404   2.622   3.338 -1.1395  1.5158 -1.2453
  475SOL    HW2 1899   4.461   2.649   3.201  1.5337 -1.1641 -0.7701
  475SOL     MW 1900   4.471   2.643   3.287 -0.0360  0.1332 -0.4519
  476SOL     OW 1901   4.175   2.327   4.494  0.3947  0.0788 -0.0869
  476SOL    HW1 1902   4.221   2.245   4.478  0.8223  0.3915 -0.4642
  476SOL    HW2 1903   4.094   2.319   4.444  1.1124  0.4987 -1.3467
  476SOL     MW 1904   4.170   2.315   4.485  0.5488  0.1774 -0.3072
  477SOL     OW 1905   4.816   1.451   1.090 -0.1432 -1.0794  0.2710
  477SOL    HW1 1906   4.751   1.465   1.022  0.2176 -1.3149 -0.1320
  477SOL    HW2 1907   4.798   1.363   1.124  0.1316 -1.2530 -0.0292
  477SOL     MW 1908   4.805   1.441   1.086 -0.0576 -1.1344  0.1764
  478SOL     OW 1909   2.386   1.400   0.210  0.4241  0.2191  0.4587
  478SOL    HW1 1910   2.453   1.416   0.144  2.1746  0.0496  2.0995
  478SOL    HW2 1911   2.307   1.440   0.175  1.3184  0.2587 -1.6419
  478SOL     MW 1912   2.385   1.408   0.197  0.7801  0.2016  0.3969
  479SOL     OW 1913   2.554   1.539   4.424  0.3242 -0.0080 -0.1966
  479SOL    HW1 1914   2.488   1.520   4.491 -0.0565  1.0074 -0.2560
  479SOL    HW2 1915   2.511   1.600   4.364  0.4449 -1.4121 -1.7690
  479SOL     MW 1916   2.539   1.545   4.425  0.2892 -0.0603 -0.4162
  480SOL     OW 1917   1.613   1.975   2.528 -0.5845 -0.0152  0.2009
  480SOL    HW1 1918   1.602   2.005   2.438  1.3472 -1.0467 -0.4518
  480SOL    HW2 1919   1.535   1.922   2.546 -0.5475 -0.6113 -1.2529
  480SOL     MW 1920   1.601   1.972   2.518 -0.3196 -0.2342 -0.0826
  481SOL     OW 1921   1.044   4.665   4.736 -0.2137  0.1072  0.4762
  481SOL    HW1 1922   0.975   4.679   4.801  0.4080  1.1278  0.9368
  481SOL    HW2 1923   1.100   4.741   4.744 -0.1267  0.2720 -1.2801
  481SOL     MW 1924   1.042   4.677   4.746 -0.1183  0.2667  0.3018
  482SOL     OW 1925   3.256   4.125  -0.001 -0.0084  0.3742 -0.3129
  482SOL    HW1 1926   3.264   4.118   0.094  1.9851  0.6453 -0.4290
  482SOL    HW2 1927   3.229   4.216  -0.016 -1.1253  0.1111  0.0060
  482SOL     MW 1928   3.253   4.137   0.010  0.1096  0.3752 -0.2856
  483SOL     OW 1929   2.229   2.564   2.813  0.0077  0.6919 -0.1182
  483SOL    HW1 1930   2.307   2.618   2.813  0.7121 -0.2734 -1.1468
  483SOL    HW2 1931   2.156   2.626   2.824  0.8557  1.6789  0.0463
  483SOL     MW 1932   2.229   2.580   2.815  0.2166  0.6948 -0.2345
  484SOL     OW 1933   3.044   2.582   4.247  0.1518 -0.0079 -0.4175
  484SOL    HW1 1934   3.048   2.557   4.339  0.6538 -0.1480 -0.4752
  484SOL    HW2 1935   3.135   2.576   4.216 -0.0242 -0.0520 -0.9414
  484SOL     MW 1936   3.057   2.577   4.255  0.1957 -0.0327 -0.4958
  485SOL     OW 1937   2.145   0.407   1.975  0.1266 -0.0336  0.3833
  485SOL    HW1 1938   2.137   0.320   1.937  0.0431  0.3651 -0.5411
  485SOL    HW2 1939   2.178   0.462   1.904 -0.9786  0.9432  0.5868
  485SOL     MW 1940   2.148   0.403   1.961 -0.0334  0.1515  0.2863
  486SOL     OW 1941   3.712   2.842   2.409  0.0666 -0.3163  0.4441
  486SOL    HW1 1942   3.654   2.797   2.470  0.4175 -0.8065  0.4304
  486SOL    HW2 1943   3.659   2.856   2.331 -0.4537  0.5236  0.9411
  486SOL     MW 1944   3.697   2.838   2.407  0.0438 -0.2692  0.5091
  487SOL     OW 1945   5.003   4.441   4.535  0.2970 -0.4234  0.4194
  487SOL    HW1 1946   4.933   4.502   4.560  0.6242  0.5106 -0.8169
  487SOL    HW2 1947   4.963   4.355   4.543 -1.5957  0.1370 -1.8090
  487SOL     MW 1948   4.988   4.438   4.539  0.0863 -0.2223 -0.0469
  488SOL     OW 1949   4.974   2.017   3.835 -0.2664 -0.1320 -0.3002
  488SOL    HW1 1950   4.936   1.937   3.870  0.5166 -0.5207 -0.3358
  488SOL    HW2 1951   4.961   2.010   3.740 -2.4742  0.9643 -0.1547
  488SOL     MW 1952   4.967   2.005   3.827 -0.4581 -0.0368 -0.2854
  489SOL     OW 1953   3.797   5.383   3.575 -0.3190 -0.4327 -0.2193
  489SOL    HW1 1954   3.786   5.309   3.635 -0.1899 -0.1323  0.1804
  489SOL    HW2 1955   3.890   5.406   3.583 -0.3174 -0.3501 -0.4857
  489SOL     MW 1956   3.808   5.376   3.584 -0.3014 -0.3812 -0.2014
  490SOL     OW 1957   2.364   4.995   0.290 -0.1454  0.2328 -0.1039
  490SOL    HW1 1958   2.347   4.918   0.236 -1.4056  0.3895  0.0269
  490SOL    HW2 1959   2.425   4.965   0.357 -1.8745 -1.1352  0.9371
  490SOL     MW 1960   2.370   4.981   0.292 -0.5477  0.0698  0.0538
  491SOL     OW 1961   4.033   2.529   1.213 -0.4613  0.0464 -0.2396
  491SOL    HW1 1962   4.114   2.580   1.204 -0.3683  0.4022  2.0812
  491SOL    HW2 1963   4.059   2.439   1.192  0.1576  0.4033 -1.0493
  491SOL     MW 1964   4.048   2.524   1.209 -0.3655  0.1423 -0.0363
  492SOL     OW 1965   0.298   2.972   3.690 -0.2141  0.2032  0.2896
  492SOL    HW1 1966   0.328   2.911   3.623 -0.0840 -0.1860  0.6956
  492SOL    HW2 1967   0.206   2.988   3.668 -0.2742 -0.2038  0.2233
  492SOL     MW 1968   0.290   2.966   3.678 -0.2047  0.0960  0.3353
  493SOL     OW 1969   1.917   3.079   2.786  0.8592 -0.7430  0.1358
  493SOL    HW1 1970   1.833   3.036   2.805  0.8858 -0.1946  1.6203
  493SOL    HW2 1971   1.893   3.155   2.733  0.3935 -0.4815  0.7100
  493SOL     MW 1972   1.902   3.083   2.782  0.8001 -0.6340  0.4128
  494SOL     OW 1973   0.460   4.954   0.250 -0.5628 -0.6467  1.0381
  494SOL    HW1 1974   0.545   4.967   0.208 -0.9131 -1.1335  0.1534
  494SOL    HW2 1975   0.425   5.042   0.261 -0.4538 -0.5106  0.3279
  494SOL     MW 1976   0.467   4.967   0.246 -0.5952 -0.6939  0.8235
  495SOL     OW 1977   2.777   5.200   0.139 -0.2017  0.2517  0.2480
  495SOL    HW1 1978   2.750   5.120   0.184  0.6843  0.3649  1.0116
  495SOL    HW2 1979   2.792   5.172   0.049 -1.0362 -0.1911  0.2370
  495SOL     MW 1980   2.776   5.186   0.133 -0.1947  0.2074  0.3493
  496SOL     OW 1981   4.519   2.242   2.839  0.0107 -0.2547  0.2943
  496SOL    HW1 1982   4.574   2.316   2.865 -0.8613  0.3857  0.3581
  496SOL    HW2 1983   4.505   2.193   2.920 -2.2888  1.4643  1.0727
  496SOL     MW 1984   4.524   2.245   2.854 -0.4161  0.0628  0.4077
  497SOL     OW 1985   2.450   1.156   1.845 -0.3123  0.3725  0.2458
  497SOL    HW1 1986   2.527   1.157   1.903  1.0984  2.0482 -1.5026
  497SOL    HW2 1987   2.426   1.248   1.837 -1.6593 -0.0189 -0.3652
  497SOL     MW 1988   2.457   1.169   1.852 -0.3038  0.5453 -0.0717
  498SOL     OW 1989   1.446   1.185   4.732 -0.2774 -0.5379  0.0904
  498SOL    HW1 1990   1.383   1.129   4.776  0.4924 -1.5275 -0.0452
  498SOL    HW2 1991   1.396   1.227   4.661 -1.3574  0.5459  1.4239
  498SOL     MW 1992   1.431   1.183   4.728 -0.3191 -0.5253  0.2516
  499SOL     OW 1993   4.554   4.388   3.534 -0.0651  0.7507  0.1642
  499SOL    HW1 1994   4.534   4.379   3.441  1.0048  1.0113 -0.1023
  499SOL    HW2 1995   4.468   4.397   3.577 -0.5610  0.6251 -0.7871
  499SOL     MW 1996   4.539   4.388   3.528  0.0122  0.7689  0.0003
  500SOL     OW 1997   1.121   4.445   3.651  0.1163 -0.3932  0.2043
  500SOL    HW1 1998   1.145   4.476   3.738  0.2167 -0.7976  0.3195
  500SOL    HW2 1999   1.026   4.459   3.646 -0.0312 -1.1768  0.7049
  500SOL     MW 2000   1.112   4.451   3.662  0.1100 -0.5531  0.2872
  501SOL     OW 2001   4.914   5.494   4.140 -0.4172  0.4186  0.6453
  501SOL    HW1 2002   4.980   5.443   4.186  0.5158  1.3762  0.4071
  501SOL    HW2 2003   4.896   5.445   4.060 -0.9841 -0.5155  1.3276
  501SOL     MW 2004   4.920   5.480   4.135 -0.3679  0.4217  0.7051
  502SOL     OW 2005   1.634   4.908   0.840 -0.1339 -0.3411  0.4740
  502SOL    HW1 2006   1.596   4.834   0.886 -2.2718  0.1671 -0.3128
  502SOL    HW2 2007   1.644   4.877   0.750 -2.2617  0.6127 -0.1694
  502SOL     MW 2008   1.630   4.894   0.834 -0.7080 -0.1443  0.2815
  503SOL     OW 2009   0.468   2.585   1.858 -0.0063 -0.0476 -0.1617
  503SOL    HW1 2010   0.476   2.621   1.946 -0.8685 -0.3778  0.0552
  503SOL    HW2 2011   0.522   2.644   1.804  1.0461 -0.2165  0.6650
  503SOL     MW 2012   0.476   2.598   1.862  0.0193 -0.1148 -0.0213
  504SOL     OW 2013   5.128   4.665   3.171  0.2702 -0.0454 -0.3239
  504SOL    HW1 2014   5.154   4.756   3.158 -0.4716  0.2722  0.3266
  504SOL    HW2 2015   5.210   4.616   3.169  0.7882  0.7699  0.3821
  504SOL     MW 2016   5.142   4.670   3.169  0.2401  0.1071 -0.1413
  505SOL     OW 2017   4.701   1.081   2.812  0.1462 -0.1352  0.3371
  505SOL    HW1 2018   4.735   1.045   2.730 -1.5696 -0.8433 -0.1210
  505SOL    HW2 2019   4.639   1.014   2.843  0.6544  0.1881  2.1485
  505SOL     MW 2020   4.697   1.067   2.805 -0.0163 -0.1870  0.5192
  506SOL     OW 2021   3.970   0.538   0.353 -0.9938 -0.3171 -0.0967
  506SOL    HW1 2022   4.015   0.607   0.304 -2.6406  1.4569  0.7306
  506SOL    HW2 2023   3.962   0.573   0.442 -0.6841 -2.1905  0.7177
  506SOL     MW 2024   3.975   0.552   0.358 -1.1738 -0.3305  0.1243
  507SOL     OW 2025   4.831   5.422   1.762 -0.0839 -0.5816  0.2995
  507SOL    HW1 2026   4.872   5.503   1.732  1.3221 -0.5260  2.1610
  507SOL    HW2 2027   4.829   5.366   1.685 -1.3300  1.2701 -1.1104
  507SOL     MW 2028   4.836   5.426   1.748 -0.0624 -0.3249  0.3603
  508SOL     OW 2029   2.810   1.255   4.326  0.1660 -0.2895 -0.0855
  508SOL    HW1 2030   2.813   1.168   4.285  2.3135 -1.2313  1.8322
  508SOL    HW2 2031   2.889   1.299   4.294 -1.0701  1.1745 -1.3081
  508SOL     MW 2032   2.821   1.249   4.316  0.2886 -0.2192  0.0080
  509SOL     OW 2033   5.447   2.325   0.998 -0.1600 -0.1619 -0.7228
  509SOL    HW1 2034   5.449   2.414   1.032  1.2022 -0.2060 -0.6381
  509SOL    HW2 2035   5.373   2.284   1.042 -0.9541  0.9866 -0.9465
  509SOL     MW 2036   5.438   2.331   1.008 -0.0836 -0.0133 -0.7415
  510SOL     OW 2037   2.242   3.551   2.819  0.5566 -0.9765 -0.3310
  510SOL    HW1 2038   2.267   3.473   2.768  2.7514 -0.8897  0.4902
  510SOL    HW2 2039   2.230   3.518   2.908 -1.7693 -0.8749 -0.5534
  510SOL     MW 2040   2.244   3.536   2.824  0.5389 -0.9512 -0.2504
  511SOL     OW 2041   2.380   3.122   3.041 -0.5304  0.0739  0.4962
  511SOL    HW1 2042   2.294   3.131   3.000 -1.4739  1.7259  2.6243
  511SOL    HW2 2043   2.381   3.033   3.077 -1.2671 -0.0314  0.2625
  511SOL     MW 2044   2.368   3.111   3.041 -0.7565  0.2820  0.7512
  512SOL     OW 2045   5.433   3.537   0.800 -0.0682 -0.1593 -0.1202
  512SOL    HW1 2046   5.511   3.494   0.766  1.6056  1.3980  1.4924
  512SOL    HW2 2047   5.389   3.573   0.723  0.4286 -1.5814 -1.1094
  512SOL     MW 2048   5.437   3.536   0.785  0.2239 -0.1411 -0.0363
  513SOL     OW 2049   1.720   4.571   2.556 -0.5039  0.6330 -0.5046
  513SOL    HW1 2050   1.803   4.542   2.592 -0.3503 -0.9060 -2.0189
  513SOL    HW2 2051   1.716   4.534   2.468 -2.1857  1.8069 -0.9932
  513SOL     MW 2052   1.730   4.562   2.549 -0.7096  0.5839 -0.7741
  514SOL     OW 2053   5.137   2.658   0.286 -0.3662 -0.4336  0.1077
  514SOL    HW1 2054   5.110   2.581   0.335  0.2091 -0.8592 -0.2295
  514SOL    HW2 2055   5.230   2.643   0.267 -0.4827 -0.1117 -0.7780
  514SOL     MW 2056   5.146   2.646   0.290 -0.3045 -0.4476 -0.0568
  515SOL     OW 2057   3.319   0.710   1.090 -0.3771 -0.1557  0.5213
  515SOL    HW1 2058   3.400   0.664   1.111 -0.0843  0.2898  0.3891
  515SOL    HW2 2059   3.342   0.766   1.016 -1.1947 -1.1252 -0.4882
  515SOL     MW 2060   3.333   0.711   1.083 -0.4478 -0.2262  0.3677
  516SOL     OW 2061   3.105   4.863   3.723  0.2231 -0.5720 -0.0892
  516SOL    HW1 2062   3.058   4.780   3.716  0.8257 -0.8395 -1.1410
  516SOL    HW2 2063   3.081   4.911   3.644  0.2104  0.0859  0.3092
  516SOL     MW 2064   3.095   4.858   3.712  0.3025 -0.5195 -0.1771
  517SOL     OW 2065   1.455   1.990   4.463  0.1449  0.2569  0.1265
  517SOL    HW1 2066   1.367   2.013   4.434  0.5666  0.3119 -1.1672
  517SOL    HW2 2067   1.463   1.897   4.445  1.0452  0.6493 -1.7177
  517SOL     MW 2068   1.445   1.981   4.457  0.3228  0.3171 -0.2958
  518SOL     OW 2069   3.616   0.671   3.844  0.3229 -0.3686  0.2710
  518SOL    HW1 2070   3.528   0.650   3.877  0.2927  0.2740  0.6006
  518SOL    HW2 2071   3.638   0.596   3.788 -0.0280 -1.0046  0.9582
  518SOL     MW 2072   3.607   0.658   3.841  0.2716 -0.3677  0.4078
  519SOL     OW 2073   2.023   0.965   0.557  0.1300 -0.0695 -0.2042
  519SOL    HW1 2074   2.068   0.916   0.626 -0.8382 -2.3415 -1.0761
  519SOL    HW2 2075   1.999   1.048   0.598  3.4210  0.5191  0.8248
  519SOL     MW 2076   2.025   0.969   0.572  0.4426 -0.2960 -0.1830
  520SOL     OW 2077   5.306   4.911   3.696  0.1405 -0.3214  0.5381
  520SOL    HW1 2078   5.331   5.003   3.692  0.9169 -0.5454 -0.0239
  520SOL    HW2 2079   5.347   4.872   3.619 -1.0722 -0.9321  0.1763
  520SOL     MW 2080   5.315   4.918   3.685  0.0818 -0.4338  0.4138
  521SOL     OW 2081   3.410   3.364   4.843 -0.0460 -0.1725 -0.5266
  521SOL    HW1 2082   3.343   3.424   4.878 -0.3794 -0.3669 -0.8280
  521SOL    HW2 2083   3.442   3.317   4.920 -1.2783 -1.1036 -0.5472
  521SOL     MW 2084   3.405   3.366   4.858 -0.2567 -0.3240 -0.5699
  522SOL     OW 2085   1.358   3.046   1.313 -0.2365 -0.0806 -0.2934
  522SOL    HW1 2086   1.430   2.988   1.291 -0.6988 -0.7085 -0.1765
  522SOL    HW2 2087   1.378   3.079   1.401  0.3264  0.4135 -0.6045
  522SOL     MW 2088   1.370   3.043   1.322 -0.2230 -0.0986 -0.3195
  523SOL     OW 2089   1.574   4.499   3.751 -0.2400  0.7006  0.0402
  523SOL    HW1 2090   1.579   4.534   3.840  1.4583  2.2621 -0.5939
  523SOL    HW2 2091   1.516   4.560   3.705 -1.0014 -0.0249  0.0110
  523SOL     MW 2092   1.567   4.512   3.757 -0.1139  0.8131 -0.0491
  524SOL     OW 2093   1.430   1.367   5.275 -0.5864 -0.3565 -0.5045
  524SOL    HW1 2094   1.498   1.313   5.316 -0.1578  1.2368  0.9868
  524SOL    HW2 2095   1.469   1.395   5.192  1.5223  2.1741  1.1770
  524SOL     MW 2096   1.445   1.363   5.269 -0.2449  0.1985 -0.0775
  525SOL     OW 2097   4.960   2.749   3.188  0.4174  0.3535 -0.2703
  525SOL    HW1 2098   4.899   2.729   3.117  0.4684 -0.3487 -0.1228
  525SOL    HW2 2099   5.043   2.766   3.144  0.2028  0.9537 -0.4461
  525SOL     MW 2100   4.963   2.749   3.173  0.3954  0.3398 -0.2741
  526SOL     OW 2101   1.880   4.249   0.425  0.4344  0.0448 -0.0890
  526SOL    HW1 2102   1.921   4.197   0.355  1.1881  0.9362 -0.3268
  526SOL    HW2 2103   1.915   4.337   0.413 -0.0817  0.3979  0.9039
  526SOL     MW 2104   1.891   4.254   0.414  0.4664  0.2123  0.0126
  527SOL     OW 2105   0.043   3.694   3.890 -0.3962 -0.1432 -0.0843
  527SOL    HW1 2106   0.077   3.702   3.801 -1.3222 -1.6279 -0.6180
  527SOL    HW2 2107  -0.009   3.774   3.904  1.3407  1.0302 -0.1128
  527SOL     MW 2108   0.040   3.706   3.880 -0.2871 -0.1851 -0.1600
  528SOL     OW 2109   3.430   3.714   0.487 -0.7664  0.8045  0.3009
  528SOL    HW1 2110   3.450   3.767   0.410 -1.5911 -0.2147 -0.6360
  528SOL    HW2 2111   3.382   3.639   0.453  0.3360 -0.5472  1.5917
  528SOL     MW 2112   3.426   3.711   0.472 -0.7291  0.4854  0.3485
  529SOL     OW 2113   2.978   2.349   4.668  0.6585 -0.2021 -0.0315
  529SOL    HW1 2114   3.006   2.342   4.760  1.2973 -1.6041 -0.3131
  529SOL    HW2 2115   3.030   2.422   4.633 -0.6812  1.3526  1.0761
  529SOL     MW 2116   2.989   2.358   4.676  0.5642 -0.1815  0.0796
  530SOL     OW 2117   3.122   3.090   3.273 -0.4335  0.2220  0.0898
  530SOL    HW1 2118   3.052   3.037   3.234 -1.2859  0.2277  1.5433
  530SOL    HW2 2119   3.083   3.177   3.282 -0.1955  0.2604  0.7788
  530SOL     MW 2120   3.107   3.094   3.269 -0.5162  0.2280  0.3781
  531SOL     OW 2121   1.580   1.357   1.851 -0.2734 -0.6672 -0.2722
  531SOL    HW1 2122   1.504   1.410   1.825  0.0992 -0.1681 -0.3550
  531SOL    HW2 2123   1.653   1.393   1.800  0.2024 -0.5477  0.4839
  531SOL     MW 2124   1.579   1.369   1.841 -0.1592 -0.5840 -0.1816
  532SOL     OW 2125   0.334   3.334   5.041 -0.2616 -0.0992  0.1895
  532SOL    HW1 2126   0.320   3.414   5.091  0.8762  1.4423 -1.8595
  532SOL    HW2 2127   0.259   3.328   4.982  0.1214 -0.0279 -0.3121
  532SOL     MW 2128   0.322   3.344   5.040 -0.0569  0.1179 -0.1538
  533SOL     OW 2129   3.186   2.089   3.331  0.3819 -0.2160 -0.1113
  533SOL    HW1 2130   3.155   2.140   3.406 -0.6228 -1.0822  0.0863
  533SOL    HW2 2131   3.138   2.006   3.337  0.1273 -0.2310 -1.8194
  533SOL     MW 2132   3.175   2.085   3.342  0.2124 -0.3346 -0.3146
  534SOL     OW 2133   4.710   3.138   1.758 -0.1728 -0.1209  0.1452
  534SOL    HW1 2134   4.670   3.183   1.683 -0.2008  0.6627  0.6310
  534SOL    HW2 2135   4.651   3.064   1.774  0.6006 -1.1775 -1.5214
  534SOL     MW 2136   4.696   3.134   1.750 -0.0725 -0.1576 -0.0137
  535SOL     OW 2137   4.130   5.311   3.880  0.1975 -0.0007  0.2539
  535SOL    HW1 2138   4.124   5.392   3.931  0.5679 -0.4183  0.9744
  535SOL    HW2 2139   4.224   5.293   3.873  0.0987 -0.6768  0.5974
  535SOL     MW 2140   4.142   5.319   3.886  0.2341 -0.1479  0.3971
  536SOL     OW 2141   3.636   0.011   4.593 -0.3675  0.1477 -0.1128
  536SOL    HW1 2142   3.600  -0.010   4.507  0.9396  1.4856 -1.0404
  536SOL    HW2 2143   3.632   0.107   4.598 -0.4365  0.0989  1.3444
  536SOL     MW 2144   3.630   0.021   4.582 -0.2009  0.3212 -0.0415
  537SOL     OW 2145   4.541   4.067   2.170 -0.0287  0.3500 -0.1735
  537SOL    HW1 2146   4.445   4.072   2.169  0.0038  1.0084 -0.9738
  537SOL    HW2 2147   4.560   3.978   2.200 -0.8618  1.0333  2.7996
  537SOL     MW 2148   4.530   4.056   2.174 -0.1364  0.5306  0.1189
  538SOL     OW 2149   2.058   0.310   3.869 -0.2473 -0.0481 -0.1560
  538SOL    HW1 2150   2.102   0.376   3.817 -0.2759 -0.1391 -0.2970
  538SOL    HW2 2151   2.081   0.227   3.827  0.6678 -0.2164  0.6511
  538SOL     MW 2152   2.067   0.307   3.856 -0.1280 -0.0830 -0.0663
  539SOL     OW 2153   4.383   0.842   1.588  0.3660 -0.3361  0.3097
  539SOL    HW1 2154   4.474   0.858   1.561  0.5752 -1.4504  0.2955
  539SOL    HW2 2155   4.387   0.837   1.684  0.2959 -0.2436  0.3173
  539SOL     MW 2156   4.396   0.844   1.597  0.3848 -0.4736  0.3088
  540SOL     OW 2157   1.652   2.746   1.800 -0.2175 -0.5429 -0.0153
  540SOL    HW1 2158   1.682   2.675   1.857  0.5524 -0.1609  0.0655
  540SOL    HW2 2159   1.601   2.803   1.859 -1.2123 -1.2388 -0.1741
  540SOL     MW 2160   1.649   2.744   1.816 -0.2478 -0.5852 -0.0258
  541SOL     OW 2161   2.068   0.987   4.905 -0.2412 -0.2230 -0.2776
  541SOL    HW1 2162   1.985   1.011   4.863 -0.0200  0.1999 -0.4751
  541SOL    HW2 2163   2.056   1.014   4.996  0.0616  0.8095 -0.5290
  541SOL     MW 2164   2.055   0.994   4.912 -0.1707 -0.0271 -0.3380
  542SOL     OW 2165   4.842   0.265   1.270  0.1251 -0.4186 -0.0440
  542SOL    HW1 2166   4.844   0.298   1.359 -0.2448 -1.7765  0.4847
  542SOL    HW2 2167   4.908   0.317   1.223  2.4380 -1.6435  1.6980
  542SOL     MW 2168   4.851   0.277   1.275  0.3866 -0.7662  0.2616
  543SOL     OW 2169   3.237   4.112   4.916 -0.0380 -0.0184  0.3265
  543SOL    HW1 2170   3.266   4.174   4.982  0.5085 -0.8983  0.9377
  543SOL    HW2 2171   3.303   4.119   4.847 -0.9261  1.3278 -0.4313
  543SOL     MW 2172   3.250   4.121   4.915 -0.0840  0.0444  0.3067
  544SOL     OW 2173   2.811   4.028   0.071 -0.9258  0.1239  0.0381
  544SOL    HW1 2174   2.827   3.979  -0.009  0.0101  1.4260 -0.5880
  544SOL    HW2 2175   2.890   4.080   0.085 -1.2573  0.2763  1.5516
  544SOL     MW 2176   2.823   4.028   0.062 -0.8445  0.3197  0.1575
  545SOL     OW 2177   0.699   0.102   3.813  0.0649 -0.4974 -0.0720
  545SOL    HW1 2178   0.752   0.123   3.735  1.8976 -0.1397  1.2074
  545SOL    HW2 2179   0.721   0.171   3.876 -2.4373  0.0109  0.3463
  545SOL     MW 2180   0.709   0.114   3.811 -0.0252 -0.3808  0.1565
  546SOL     OW 2181   5.418   2.639   0.264 -0.3834  0.3522  0.0378
  546SOL    HW1 2182   5.457   2.707   0.319  0.0778  1.1685 -1.2250
  546SOL    HW2 2183   5.407   2.682   0.179 -0.1870 -1.1330 -0.7672
  546SOL     MW 2184   5.422   2.654   0.260 -0.2949  0.2622 -0.2405
  547SOL     OW 2185   3.215   0.887   1.289  0.4242  0.1525  0.0580
  547SOL    HW1 2186   3.251   0.830   1.221  0.3300 -1.8374  1.5706
  547SOL    HW2 2187   3.279   0.882   1.360 -0.1256  1.1078  0.6363
  547SOL     MW 2188   3.229   0.879   1.289  0.3375  0.0133  0.3394
  548SOL     OW 2189   5.413   0.338   1.340 -0.0937 -0.2190  0.1775
  548SOL    HW1 2190   5.459   0.254   1.342 -1.5469 -1.0851 -1.0589
  548SOL    HW2 2191   5.393   0.353   1.248  0.0144  1.4383  0.3906
  548SOL     MW 2192   5.416   0.329   1.328 -0.2748 -0.1125  0.0398
  549SOL     OW 2193   4.943   0.949   0.877 -0.2307  0.4337 -0.5282
  549SOL    HW1 2194   4.982   1.036   0.870  0.7580  0.0639  0.1086
  549SOL    HW2 2195   4.899   0.949   0.963  0.0253  0.2148 -0.3945
  549SOL     MW 2196   4.942   0.960   0.888 -0.0632  0.3545 -0.4245
  550SOL     OW 2197   2.799   4.328   2.636 -0.0865 -0.4100  0.4242
  550SOL    HW1 2198   2.793   4.405   2.580  2.0406 -1.0816 -0.8562
  550SOL    HW2 2199   2.874   4.345   2.692  0.5189 -1.5658  0.0149
  550SOL     MW 2200   2.808   4.341   2.636  0.2812 -0.6559  0.1968
  551SOL     OW 2201   1.979   2.821   1.702 -0.0665 -0.7321  0.1339
  551SOL    HW1 2202   1.962   2.758   1.632  3.0774 -1.9316  0.2464
  551SOL    HW2 2203   1.984   2.768   1.781  0.1157  0.0364  0.6467
  551SOL     MW 2204   1.978   2.805   1.703  0.3811 -0.7901  0.2180
  552SOL     OW 2205   2.700   2.283   0.153 -0.1660  0.2437  0.1928
  552SOL    HW1 2206   2.751   2.227   0.212 -0.0187 -0.0716 -0.2253
  552SOL    HW2 2207   2.615   2.239   0.145 -0.5804  0.8721  1.0431
  552SOL     MW 2208   2.696   2.269   0.160 -0.2020  0.2858  0.2510
  553SOL     OW 2209   4.456   3.024   3.854 -0.0153 -0.2208  0.0358
  553SOL    HW1 2210   4.364   3.046   3.841  0.0225  1.3104  1.9053
  553SOL    HW2 2211   4.457   2.966   3.930  0.5204 -0.8709 -0.4517
  553SOL     MW 2212   4.444   3.020   3.862  0.0618 -0.1022  0.2218
  554SOL     OW 2213   3.253   5.055   0.136 -0.0417  0.4399  0.4545
  554SOL    HW1 2214   3.296   5.139   0.118  0.2856  0.2794  0.4675
  554SOL    HW2 2215   3.196   5.072   0.211  1.3603  0.2331  1.6108
  554SOL     MW 2216   3.251   5.069   0.144  0.1910  0.3904  0.6118
  555SOL     OW 2217   4.893   5.427   0.511  0.1069 -0.2288  0.6526
  555SOL    HW1 2218   4.890   5.514   0.550  1.1405  0.9835 -1.7562
  555SOL    HW2 2219   4.866   5.441   0.420 -0.3213 -2.5487  0.3711
  555SOL     MW 2220   4.889   5.440   0.504  0.1884 -0.3779  0.2906
  556SOL     OW 2221   0.182   4.959   2.401  0.0926 -0.2235  0.2480
  556SOL    HW1 2222   0.236   5.011   2.342  0.6429 -1.4953 -0.3934
  556SOL    HW2 2223   0.198   4.998   2.487 -0.0703  1.1096 -0.2874
  556SOL     MW 2224   0.191   4.972   2.405  0.1447 -0.2152  0.0896
  557SOL     OW 2225   4.159   2.075   2.495 -0.1867  0.3645 -0.4269
  557SOL    HW1 2226   4.096   2.008   2.468  1.3006 -1.3952  0.2212
  557SOL    HW2 2227   4.126   2.106   2.579 -0.9558  0.5313 -0.7852
  557SOL     MW 2228   4.146   2.070   2.503 -0.0900  0.1501 -0.3879
  558SOL     OW 2229   3.161   3.129   3.579  0.1744  0.2327 -0.1465
  558SOL    HW1 2230   3.175   3.121   3.484 -1.3453  2.0979 -0.5848
  558SOL    HW2 2231   3.184   3.219   3.599  0.3486 -0.1021  1.2758
  558SOL     MW 2232   3.166   3.140   3.569 -0.0067  0.4387 -0.0141
  559SOL     OW 2233   5.146  -0.024   5.426 -0.2952  0.0710  0.4418
  559SOL    HW1 2234   5.092   0.052   5.404 -0.1333 -0.2454 -1.1603
  559SOL    HW2 2235   5.226   0.013   5.464 -0.4899  0.6666  0.2771
  559SOL     MW 2236   5.149  -0.009   5.428 -0.2996  0.1085  0.2040
  560SOL     OW 2237   0.088   4.673   2.128  0.1829  0.2523 -0.0256
  560SOL    HW1 2238   0.017   4.721   2.170 -0.1327  0.8456 -1.2081
  560SOL    HW2 2239   0.155   4.739   2.111 -1.0204  0.8191 -3.4178
  560SOL     MW 2240   0.087   4.688   2.131 -0.0215  0.4084 -0.6413
  561SOL     OW 2241   5.159   0.288   1.435 -0.0414 -0.7080 -0.6327
  561SOL    HW1 2242   5.117   0.372   1.453 -0.0016 -0.6163 -0.9614
  561SOL    HW2 2243   5.250   0.310   1.419 -0.0783 -0.7831 -0.9598
  561SOL     MW 2244   5.165   0.302   1.435 -0.0410 -0.7057 -0.7209
  562SOL     OW 2245   3.294   1.544   0.356  0.2611 -0.0528  0.2058
  562SOL    HW1 2246   3.235   1.583   0.420 -0.0198 -0.0394 -0.0589
  562SOL    HW2 2247   3.277   1.450   0.362 -0.9627  0.0646 -1.0040
  562SOL     MW 2248   3.284   1.537   0.366  0.0586 -0.0352  0.0074
  563SOL     OW 2249   4.101   3.280   2.365 -0.3170  0.3353 -0.0472
  563SOL    HW1 2250   4.135   3.250   2.280  1.0385  1.1483  0.1858
  563SOL    HW2 2251   4.179   3.302   2.416 -1.1572  0.9422  1.0139
  563SOL     MW 2252   4.116   3.279   2.360 -0.2476  0.5264  0.1270
  564SOL     OW 2253   4.226   2.801   0.584 -0.8500 -0.2389  0.0720
  564SOL    HW1 2254   4.321   2.799   0.596 -0.8038  0.6146 -0.0696
  564SOL    HW2 2255   4.193   2.849   0.659 -0.8873  1.9255 -1.2368
  564SOL     MW 2256   4.234   2.807   0.596 -0.8488  0.1673 -0.1232
  565SOL     OW 2257   3.021   1.933   4.674 -0.0368  0.2290 -0.5370
  565SOL    HW1 2258   3.114   1.945   4.651  0.2624 -0.9743 -0.0096
  565SOL    HW2 2259   3.017   1.952   4.768 -0.4279  0.7670 -0.6589
  565SOL     MW 2260   3.033   1.937   4.684 -0.0492  0.1394 -0.4825
  566SOL     OW 2261   1.184   0.356   0.680 -0.1274 -0.2379 -0.4521
  566SOL    HW1 2262   1.252   0.408   0.637  0.3454  0.0025  0.5504
  566SOL    HW2 2263   1.188   0.271   0.637  0.2745  0.0158 -0.9325
  566SOL     MW 2264   1.193   0.352   0.668 -0.0097 -0.1714 -0.3818
  567SOL     OW 2265   0.665   5.513   1.920 -0.3574  0.5201  0.3238
  567SOL    HW1 2266   0.658   5.439   1.860  1.9643  0.1603  0.4261
  567SOL    HW2 2267   0.648   5.476   2.007 -0.7381  0.4441  0.2206
  567SOL     MW 2268   0.662   5.498   1.924 -0.0962  0.4614  0.3237
  568SOL     OW 2269   5.497   0.319   4.194 -0.0964 -0.2218 -0.3442
  568SOL    HW1 2270   5.441   0.395   4.206  0.5723  0.2569 -0.2458
  568SOL    HW2 2271   5.439   0.252   4.158 -1.1239 -0.2831  1.3494
  568SOL     MW 2272   5.482   0.320   4.191 -0.1447 -0.1657 -0.1030
  569SOL     OW 2273   1.755   4.866   2.952 -0.2870  0.5261 -0.3527
  569SOL    HW1 2274   1.669   4.829   2.968 -1.1188  2.1407 -0.8222
  569SOL    HW2 2275   1.807   4.843   3.029 -1.4709  0.4450  0.4365
  569SOL     MW 2276   1.751   4.858   2.965 -0.5583  0.7325 -0.3097
  570SOL     OW 2277   0.435   4.162   2.915 -0.2508 -0.0640  0.3554
  570SOL    HW1 2278   0.352   4.116   2.912 -0.2931  0.0777 -1.3705
  570SOL    HW2 2279   0.464   4.167   2.824  1.9504 -0.6236  0.9537
  570SOL     MW 2280   0.428   4.157   2.902  0.0398 -0.1203  0.2036
  571SOL     OW 2281   3.219   3.012   4.903  0.0168  0.1936  0.5974
  571SOL    HW1 2282   3.157   3.083   4.920 -0.6911 -0.5095  1.0083
  571SOL    HW2 2283   3.236   2.974   4.989 -1.1647 -1.4017  0.1597
  571SOL     MW 2284   3.213   3.017   4.917 -0.2375 -0.1157  0.5938
  572SOL     OW 2285   4.045   3.968   3.805  0.8533 -0.1692  0.1619
  572SOL    HW1 2286   4.100   4.046   3.802  0.6371 -0.0600 -1.2919
  572SOL    HW2 2287   3.993   3.971   3.725 -0.3019 -0.9839  0.8440
  572SOL     MW 2288   4.046   3.979   3.794  0.6688 -0.2642  0.0581
  573SOL     OW 2289   1.889   4.910   4.776 -0.3901  0.4332 -0.0142
  573SOL    HW1 2290   1.830   4.925   4.702 -0.6966  0.5809  0.2590
  573SOL    HW2 2291   1.842   4.850   4.833 -0.3810  0.7421  0.3223
  573SOL     MW 2292   1.875   4.904   4.773 -0.4301  0.4946  0.0679
  574SOL     OW 2293   2.442   1.913   2.530  0.0669 -0.6520  0.3420
  574SOL    HW1 2294   2.475   1.948   2.448 -1.8072  0.8157  0.1283
  574SOL    HW2 2295   2.380   1.845   2.504  1.6550 -2.3042  0.6839
  574SOL     MW 2296   2.438   1.908   2.516  0.0284 -0.6768  0.3593
  575SOL     OW 2297   3.313   1.468   1.516  0.5817  0.3188  0.6892
  575SOL    HW1 2298   3.224   1.499   1.533  0.3202  0.0063 -0.0669
  575SOL    HW2 2299   3.351   1.534   1.457 -0.7129 -1.7637 -2.7285
  575SOL     MW 2300   3.306   1.481   1.510  0.3722 -0.0035  0.1275
  576SOL     OW 2301   4.170   0.765   2.795  0.4027 -0.5329 -0.2083
  576SOL    HW1 2302   4.076   0.760   2.811  0.5983 -0.2092  1.1067
  576SOL    HW2 2303   4.195   0.853   2.820  1.1198 -0.7136 -0.2485
  576SOL     MW 2304   4.161   0.776   2.800  0.5255 -0.5136 -0.0367
  577SOL     OW 2305   1.509   3.488   0.701 -0.5432  0.0995  0.0718
  577SOL    HW1 2306   1.551   3.515   0.783 -0.2146 -1.0561  0.3068
  577SOL    HW2 2307   1.437   3.549   0.690  0.4159  1.3287  0.3464
  577SOL     MW 2308   1.505   3.499   0.711 -0.3699  0.1094  0.1404
  578SOL     OW 2309   1.359   4.935   0.273  0.4134  0.1596  0.0541
  578SOL    HW1 2310   1.387   4.981   0.352 -0.2958 -0.5407  0.7236
  578SOL    HW2 2311   1.404   4.851   0.278 -0.3843 -0.2626  0.2127
  578SOL     MW 2312   1.369   4.930   0.284  0.2106  0.0086  0.1655
  579SOL     OW 2313   3.448   0.447   4.817 -0.1085 -0.3143 -0.2038
  579SOL    HW1 2314   3.378   0.436   4.752  0.4418 -0.7402 -0.7434
  579SOL    HW2 2315   3.492   0.528   4.790 -0.9302  0.4385  0.6637
  579SOL     MW 2316   3.444   0.456   4.804 -0.1450 -0.2703 -0.1597
  580SOL     OW 2317   4.602   1.346   5.307 -0.1142  0.1216  0.0351
  580SOL    HW1 2318   4.627   1.393   5.386  0.4656  3.3652 -1.8761
  580SOL    HW2 2319   4.685   1.330   5.261 -0.5856  0.3206 -0.9219
  580SOL     MW 2320   4.617   1.350   5.311 -0.0996  0.5849 -0.3509
  581SOL     OW 2321   2.792   4.688   3.211  0.0639 -0.3558 -0.1995
  581SOL    HW1 2322   2.774   4.757   3.275 -2.0021  0.4118 -1.4927
  581SOL    HW2 2323   2.855   4.727   3.150 -0.5725  0.1685 -0.5344
  581SOL     MW 2324   2.798   4.702   3.211 -0.2998 -0.1820 -0.4186
  582SOL     OW 2325   3.471   3.877   2.942 -0.8053  0.4571 -0.7105
  582SOL    HW1 2326   3.431   3.796   2.973  0.0482  0.1481 -0.3816
  582SOL    HW2 2327   3.554   3.850   2.904 -0.8998  1.0823 -1.3923
  582SOL     MW 2328   3.477   3.863   2.941 -0.7031  0.4997 -0.7580
  583SOL     OW 2329   3.860   3.695   3.017 -0.4991 -0.1732 -0.2709
  583SOL    HW1 2330   3.835   3.728   3.104  0.5558  1.8562 -0.6941
  583SOL    HW2 2331   3.875   3.602   3.031 -2.3230 -0.3130  1.2718
  583SOL     MW 2332   3.858   3.687   3.031 -0.6026  0.0811 -0.1203
  584SOL     OW 2333   0.232   4.200   1.148 -0.2651 -0.1197 -0.3821
  584SOL    HW1 2334   0.148   4.162   1.121 -1.3515  2.1098 -0.3560
  584SOL    HW2 2335   0.271   4.232   1.067 -0.7204  1.2178 -0.0988
  584SOL     MW 2336   0.226   4.199   1.134 -0.4726  0.3603 -0.3405
  585SOL     OW 2337   4.928   5.014   4.838 -0.0048 -0.0881  0.0849
  585SOL    HW1 2338   4.976   4.989   4.760  1.3446  1.1749  0.4573
  585SOL    HW2 2339   4.992   5.009   4.909 -0.5402  1.1093  0.6921
  585SOL     MW 2340   4.943   5.010   4.837  0.1047  0.2430  0.2168
  586SOL     OW 2341   5.464   1.996   3.306  0.6321 -0.2722 -0.3196
  586SOL    HW1 2342   5.532   2.063   3.316  0.7529 -0.3319 -0.6931
  586SOL    HW2 2343   5.399   2.037   3.249 -0.6522  0.5203  1.6527
  586SOL     MW 2344   5.465   2.011   3.299  0.4755 -0.1735 -0.1044
  587SOL     OW 2345   0.452   4.281   3.346  0.8901  0.3010  0.0466
  587SOL    HW1 2346   0.482   4.351   3.288  2.0700 -0.9099 -0.8685
  587SOL    HW2 2347   0.521   4.272   3.411  0.2540  0.6609  0.7857
  587SOL     MW 2348   0.465   4.289   3.347  0.9633  0.1865  0.0230
  588SOL     OW 2349   2.483   5.185   0.597  0.0473 -0.4535  0.4924
  588SOL    HW1 2350   2.392   5.169   0.623 -0.8264  1.6489 -1.0445
  588SOL    HW2 2351   2.509   5.106   0.551 -2.1572  0.0944 -1.8999
  588SOL     MW 2352   2.474   5.172   0.595 -0.3670 -0.0968 -0.0364
  589SOL     OW 2353   0.478   1.894   1.080 -0.0046  0.4469 -0.2315
  589SOL    HW1 2354   0.521   1.809   1.079  1.2142  1.0269  0.2696
  589SOL    HW2 2355   0.468   1.915   1.173 -1.1941  0.4359 -0.3372
  589SOL     MW 2356   0.483   1.886   1.093 -0.0007  0.5235 -0.1783
  590SOL     OW 2357   4.176   5.091   5.378  0.0092 -0.0773 -0.3007
  590SOL    HW1 2358   4.141   5.040   5.305 -3.2098  2.7187 -0.9611
  590SOL    HW2 2359   4.246   5.144   5.339  0.5337 -0.9255 -0.5411
  590SOL     MW 2360   4.181   5.091   5.363 -0.3534  0.1848 -0.4219
  591SOL     OW 2361   2.140   4.141   0.787  0.4431 -0.0698  0.6963
  591SOL    HW1 2362   2.050   4.158   0.758  0.6925  1.2336  0.6094
  591SOL    HW2 2363   2.137   4.153   0.882  1.0919  3.0592  0.4237
  591SOL     MW 2364   2.128   4.145   0.796  0.5640  0.5267  0.6479
  592SOL     OW 2365   0.891   3.505   0.147 -0.2870  0.1455  0.1469
  592SOL    HW1 2366   0.886   3.538   0.237  0.9826  0.9028 -0.0464
  592SOL    HW2 2367   0.895   3.410   0.157  1.0444  0.2696  0.9575
  592SOL     MW 2368   0.891   3.497   0.160  0.0631  0.2641  0.2299
  593SOL     OW 2369   0.346   4.402   2.969 -0.4032 -0.0753 -0.1791
  593SOL    HW1 2370   0.385   4.316   2.952  0.3010  0.0726  0.6445
  593SOL    HW2 2371   0.252   4.385   2.971 -0.2352 -1.0285  0.9731
  593SOL     MW 2372   0.339   4.388   2.967 -0.2858 -0.1837  0.0868
  594SOL     OW 2373   4.956   3.287   2.325 -0.2734 -0.1851 -0.0401
  594SOL    HW1 2374   4.868   3.260   2.352 -0.7787  1.2470 -0.1732
  594SOL    HW2 2375   4.941   3.344   2.250  0.9009 -1.3302 -1.2117
  594SOL     MW 2376   4.942   3.291   2.318 -0.1833 -0.1465 -0.2157
  595SOL     OW 2377   3.288   1.944   0.604 -0.4019  0.5030 -0.0692
  595SOL    HW1 2378   3.273   1.947   0.510  1.2274 -2.7599 -0.5805
  595SOL    HW2 2379   3.371   1.989   0.617  0.2141 -0.4796 -0.4917
  595SOL     MW 2380   3.297   1.950   0.593 -0.0997 -0.0684 -0.1948
  596SOL     OW 2381   4.613   5.408   1.054  0.1688 -0.2342 -0.1724
  596SOL    HW1 2382   4.583   5.385   0.966  1.1434  0.8246 -0.8087
  596SOL    HW2 2383   4.702   5.373   1.059  0.2223 -0.0431  0.2888
  596SOL     MW 2384   4.621   5.400   1.043  0.3071 -0.0660 -0.1959
  597SOL     OW 2385   4.880   5.361   2.118  0.2300 -0.5166 -0.0334
  597SOL    HW1 2386   4.845   5.433   2.066  1.2453 -0.5864 -0.8417
  597SOL    HW2 2387   4.804   5.321   2.158 -0.4147  0.5875 -0.1153
  597SOL     MW 2388   4.865   5.366   2.117  0.2798 -0.3774 -0.1532
  598SOL     OW 2389   2.842   2.943   5.278  0.0093 -0.2227 -0.5621
  598SOL    HW1 2390   2.908   2.885   5.240 -0.0900  0.1015 -1.2475
  598SOL    HW2 2391   2.761   2.892   5.275 -0.4535  0.4951 -2.7536
  598SOL     MW 2392   2.840   2.928   5.272 -0.0663 -0.0825 -0.9493
  599SOL     OW 2393   1.708   1.553   4.777  0.1980 -0.3695 -0.3802
  599SOL    HW1 2394   1.666   1.582   4.857  0.5900  0.2915 -0.4072
  599SOL    HW2 2395   1.685   1.460   4.769  0.4379 -0.5234  0.6686
  599SOL     MW 2396   1.699   1.545   4.786  0.2830 -0.3013 -0.2427
  600SOL     OW 2397   3.049   3.636   0.696  0.0366 -0.2468 -0.6045
  600SOL    HW1 2398   2.969   3.652   0.646 -0.3769  0.2942  0.2017
  600SOL    HW2 2399   3.018   3.624   0.786  0.8292 -0.4299 -0.3484
  600SOL     MW 2400   3.034   3.636   0.701  0.0876 -0.1986 -0.4615
  601SOL     OW 2401   2.257   2.238   1.310  0.4986 -0.3470  0.8012
  601SOL    HW1 2402   2.196   2.311   1.315  0.7491 -0.0441 -0.3370
  601SOL    HW2 2403   2.308   2.244   1.391  0.5680  0.7813  0.6933
  601SOL     MW 2404   2.256   2.249   1.322  0.5417 -0.1544  0.6335
  602SOL     OW 2405   2.264   1.776   2.847  0.2497 -0.1386  0.1065
  602SOL    HW1 2406   2.234   1.856   2.891 -0.6087  0.9160 -2.2629
  602SOL    HW2 2407   2.357   1.792   2.831  0.5451 -0.4851  1.3834
  602SOL     MW 2408   2.272   1.789   2.851  0.1739 -0.0433 -0.0405
  603SOL     OW 2409   5.432   5.208   5.468 -0.0886  0.1666 -0.4252
  603SOL    HW1 2410   5.416   5.122   5.429 -2.0038 -0.0814  0.7598
  603SOL    HW2 2411   5.397   5.270   5.405 -1.7920 -0.1532  0.1401
  603SOL     MW 2412   5.425   5.204   5.455 -0.5756  0.0902 -0.1897
  604SOL     OW 2413   4.820   1.040   1.867 -0.1473  0.1419  0.6801
  604SOL    HW1 2414   4.789   1.085   1.788 -1.5289 -1.4308  0.2596
  604SOL    HW2 2415   4.891   0.984   1.837 -0.6210 -0.3969  0.5254
  604SOL     MW 2416   4.825   1.038   1.852 -0.3970 -0.1423  0.6027
  605SOL     OW 2417   3.457   4.680   1.009  0.2418  0.2790  0.1762
  605SOL    HW1 2418   3.530   4.732   1.043  0.6199 -0.2203  0.1504
  605SOL    HW2 2419   3.489   4.590   1.013  0.3469  0.2144 -1.6523
  605SOL     MW 2420   3.471   4.675   1.014  0.3068  0.2031 -0.0733
  606SOL     OW 2421   4.313   1.784   0.921  0.4677 -0.4956  0.0189
  606SOL    HW1 2422   4.393   1.820   0.883 -0.0037 -0.8700 -1.3646
  606SOL    HW2 2423   4.299   1.702   0.874 -1.1979 -0.0288 -0.3575
  606SOL     MW 2424   4.322   1.778   0.910  0.1801 -0.4832 -0.2179
  607SOL     OW 2425   2.185   3.309   4.235  0.1512  0.4511 -0.1973
  607SOL    HW1 2426   2.136   3.287   4.314  2.8900  2.6324  2.3064
  607SOL    HW2 2427   2.213   3.224   4.200 -0.3818 -0.5510  1.6708
  607SOL     MW 2428   2.182   3.294   4.241  0.4481  0.6098  0.3910
  608SOL     OW 2429   3.794   1.052   5.275  0.0733  0.1945  0.5122
  608SOL    HW1 2430   3.789   1.110   5.199  0.8556  0.5459  0.7114
  608SOL    HW2 2431   3.715   1.070   5.325 -2.7411 -3.1112 -2.2902
  608SOL     MW 2432   3.783   1.062   5.272 -0.2001 -0.2031  0.1618
  609SOL     OW 2433   3.821   1.296   3.799 -0.5219 -0.4242  0.1690
  609SOL    HW1 2434   3.842   1.298   3.705 -0.7958 -2.1107  0.0463
  609SOL    HW2 2435   3.726   1.303   3.803 -0.3914  3.6289  0.5747
  609SOL     MW 2436   3.811   1.297   3.787 -0.5412 -0.1057  0.2071
  610SOL     OW 2437   1.865   2.796   5.211  0.0406 -0.1650 -0.2458
  610SOL    HW1 2438   1.901   2.857   5.147 -1.4083  0.4209 -0.5450
  610SOL    HW2 2439   1.842   2.719   5.160  1.0988 -0.6491 -0.0084
  610SOL     MW 2440   1.867   2.794   5.196 -0.0119 -0.1513 -0.2541
  611SOL     OW 2441   5.257   2.113   1.346 -0.6307 -0.3027 -0.4089
  611SOL    HW1 2442   5.351   2.131   1.349 -0.6232 -0.5355  1.5474
  611SOL    HW2 2443   5.233   2.131   1.255  1.3001 -0.2658 -0.9645
  611SOL     MW 2444   5.267   2.118   1.334 -0.3699 -0.3291 -0.2204
  612SOL     OW 2445   0.961   2.165   1.966  0.4638  0.1662 -0.4066
  612SOL    HW1 2446   0.916   2.146   1.884  1.5223  2.1442 -1.5033
  612SOL    HW2 2447   0.968   2.260   1.969  1.0837  0.1184  1.6603
  612SOL     MW 2448   0.956   2.175   1.955  0.6897  0.4260 -0.2760
  613SOL     OW 2449   3.300   2.055   1.919 -0.0700  0.0343 -0.0991
  613SOL    HW1 2450   3.388   2.087   1.939  0.2003  0.6653 -2.0547
  613SOL    HW2 2451   3.298   1.965   1.951  1.1773  0.1216  0.2446
  613SOL     MW 2452   3.311   2.047   1.926  0.1342  0.1310 -0.3160
  614SOL     OW 2453   4.372   2.163   1.045 -0.1970 -0.0370  0.3197
  614SOL    HW1 2454   4.329   2.138   1.127  1.3358 -0.3609  1.0496
  614SOL    HW2 2455   4.312   2.131   0.977 -1.2249 -0.2570  1.2901
  614SOL     MW 2456   4.358   2.155   1.047 -0.1290 -0.1102  0.5485
  615SOL     OW 2457   0.648   2.606   4.749  0.5087 -0.2852  0.1800
  615SOL    HW1 2458   0.561   2.637   4.771  1.1236  1.0522  0.7858
  615SOL    HW2 2459   0.695   2.603   4.832  2.1564  2.6297 -0.5153
  615SOL     MW 2460   0.643   2.610   4.763  0.8132  0.2871  0.1680
  616SOL     OW 2461   3.013   4.353   0.890  0.0379  0.2611  0.1348
  616SOL    HW1 2462   2.971   4.437   0.909 -0.8501  0.0486 -0.8116
  616SOL    HW2 2463   2.980   4.328   0.804  2.1415  0.0853 -0.6788
  616SOL     MW 2464   3.003   4.361   0.881  0.2015  0.2089 -0.1021
  617SOL     OW 2465   2.090   3.655   1.846 -0.2552 -0.0042 -0.2246
  617SOL    HW1 2466   2.004   3.664   1.886  0.4473  0.6002  1.2524
  617SOL    HW2 2467   2.147   3.627   1.918  0.9165  0.3375 -0.9882
  617SOL     MW 2468   2.086   3.653   1.861 -0.0030  0.1231 -0.1286
  618SOL     OW 2469   0.631   2.515   2.304  0.1077 -0.0757 -0.1937
  618SOL    HW1 2470   0.595   2.437   2.260 -1.9041 -0.2682  1.6599
  618SOL    HW2 2471   0.726   2.501   2.302 -0.1161 -1.7661 -1.3307
  618SOL     MW 2472   0.639   2.502   2.297 -0.1932 -0.3291 -0.0973
  619SOL     OW 2473   2.966   2.571   1.380  0.3486  0.2115 -0.5525
  619SOL    HW1 2474   3.000   2.517   1.310  2.1421  0.7997 -0.1748
  619SOL    HW2 2475   2.918   2.510   1.436  0.4699 -0.5805 -1.2914
  619SOL     MW 2476   2.964   2.555   1.378  0.6063  0.1841 -0.6011
  620SOL     OW 2477   4.104   0.470   2.881  0.3378 -0.1903 -0.1866
  620SOL    HW1 2478   4.042   0.457   2.952 -0.7443  2.1273 -0.6012
  620SOL    HW2 2479   4.089   0.560   2.852  3.0526  0.0648 -1.1425
  620SOL     MW 2480   4.094   0.480   2.887  0.5575  0.1560 -0.3710
  621SOL     OW 2481   2.715   3.292   1.601 -0.4240  0.2037  0.4328
  621SOL    HW1 2482   2.665   3.373   1.593 -0.5809 -0.0623 -1.7222
  621SOL    HW2 2483   2.799   3.312   1.559  0.2139 -0.2508  1.4470
  621SOL     MW 2484   2.720   3.306   1.594 -0.3592  0.1067  0.2793
  622SOL     OW 2485   3.899   1.737   2.651 -0.5401 -0.2572  0.0069
  622SOL    HW1 2486   3.899   1.642   2.655  0.8361 -0.3391 -1.0573
  622SOL    HW2 2487   3.955   1.765   2.723 -0.6110 -0.2724  0.0680
  622SOL     MW 2488   3.906   1.728   2.661 -0.3644 -0.2703 -0.1281
  623SOL     OW 2489   0.568   0.247   4.708  0.2690  0.0502 -0.2523
  623SOL    HW1 2490   0.533   0.159   4.725 -0.1759  0.2008 -0.3583
  623SOL    HW2 2491   0.538   0.299   4.784 -1.0343  0.5371 -1.0573
  623SOL     MW 2492   0.559   0.242   4.721  0.0337  0.1360 -0.3749
  624SOL     OW 2493   0.875   2.075   4.959 -0.3756  0.1581 -0.1104
  624SOL    HW1 2494   0.839   1.987   4.945 -2.3027  0.7027  0.9884
  624SOL    HW2 2495   0.870   2.117   4.873 -0.1390 -0.5607 -0.4828
  624SOL     MW 2496   0.870   2.068   4.945 -0.6031  0.1347 -0.0127
  625SOL     OW 2497   0.275   1.562   0.568 -0.2973 -0.3992 -0.0777
  625SOL    HW1 2498   0.181   1.579   0.559 -0.2059  0.7517  0.8554
  625SOL    HW2 2499   0.313   1.589   0.483 -0.6680  0.3136 -0.0245
  625SOL     MW 2500   0.268   1.568   0.555 -0.3349 -0.1484  0.0551
  626SOL     OW 2501   3.321   4.643   1.244 -0.3035  0.3638  0.1873
  626SOL    HW1 2502   3.370   4.654   1.163 -1.7140  0.9996 -0.6270
  626SOL    HW2 2503   3.254   4.578   1.223 -0.9747  0.8757  0.6861
  626SOL     MW 2504   3.319   4.636   1.231 -0.5836  0.5183  0.1448
  627SOL     OW 2505   1.130   1.911   2.553 -0.2573 -0.3291  0.2276
  627SOL    HW1 2506   1.034   1.910   2.549 -0.2584 -2.7435 -1.5414
  627SOL    HW2 2507   1.157   1.902   2.461  1.6977  0.6315  0.6643
  627SOL     MW 2508   1.121   1.910   2.540  0.0056 -0.5248  0.0483
  628SOL     OW 2509   1.885   2.484   2.915 -0.4809 -0.3890  0.4513
  628SOL    HW1 2510   1.946   2.557   2.925  0.1785 -1.0507  1.4172
  628SOL    HW2 2511   1.816   2.519   2.859  1.0559  0.2064 -1.1674
  628SOL     MW 2512   1.884   2.499   2.909 -0.1854 -0.3979  0.3634
  629SOL     OW 2513   1.243   1.087   1.825 -0.2395  0.0201 -0.0960
  629SOL    HW1 2514   1.195   1.162   1.859 -0.9601 -0.9263  1.0538
  629SOL    HW2 2515   1.221   1.085   1.732 -3.8115 -1.2435  0.5875
  629SOL     MW 2516   1.233   1.097   1.817 -0.8172 -0.2773  0.1507
  630SOL     OW 2517   4.115   2.182   2.755  0.0665  0.0956 -0.8084
  630SOL    HW1 2518   4.059   2.155   2.827  1.4339 -0.9731 -0.1028
  630SOL    HW2 2519   4.140   2.272   2.776  1.7405 -0.7121  0.9507
  630SOL     MW 2520   4.111   2.191   2.767  0.4758 -0.1569 -0.4767
  631SOL     OW 2521   1.700   5.147   0.195 -0.0050  0.1378  0.3152
  631SOL    HW1 2522   1.772   5.204   0.170 -0.9360  0.6566 -1.3170
  631SOL    HW2 2523   1.740   5.081   0.252  1.5600  0.9539  0.1951
  631SOL     MW 2524   1.715   5.146   0.199  0.0803  0.3175  0.0794
  632SOL     OW 2525   4.997   4.295   4.894 -0.3217 -0.1137  0.0338
  632SOL    HW1 2526   4.916   4.245   4.880 -1.1628  1.0756  0.4921
  632SOL    HW2 2527   4.967   4.378   4.931  1.2426 -0.3077  1.8872
  632SOL     MW 2528   4.982   4.299   4.897 -0.2243  0.0202  0.3449
  633SOL     OW 2529   5.385   2.898   1.421  0.1005  0.0944 -0.6350
  633SOL    HW1 2530   5.390   2.846   1.340 -0.2027  1.9650 -1.9337
  633SOL    HW2 2531   5.396   2.834   1.491 -0.9846 -1.8280 -2.0901
  633SOL     MW 2532   5.387   2.882   1.419 -0.0863  0.0875 -1.0056
  634SOL     OW 2533   3.535   2.220   4.717 -0.0504  0.0822  0.2947
  634SOL    HW1 2534   3.587   2.295   4.746  1.0245 -0.5897  0.1327
  634SOL    HW2 2535   3.572   2.196   4.632 -1.5024  0.4140 -0.4764
  634SOL     MW 2536   3.547   2.227   4.710 -0.1012  0.0364  0.1691
  635SOL     OW 2537   1.525   4.014   2.161 -0.0540  0.1174 -0.1622
  635SOL    HW1 2538   1.539   4.071   2.236 -0.3454 -0.4581  0.3395
  635SOL    HW2 2539   1.430   4.006   2.154 -0.0194 -1.6186  0.8128
  635SOL     MW 2540   1.515   4.020   2.170 -0.0886 -0.1937  0.0365
  636SOL     OW 2541   5.293   2.362   2.188  0.3229  0.0598 -0.3143
  636SOL    HW1 2542   5.248   2.293   2.140 -1.2166 -1.3289  2.8321
  636SOL    HW2 2543   5.237   2.439   2.179  0.0619 -0.1803 -0.7550
  636SOL     MW 2544   5.280   2.363   2.181  0.0806 -0.1594  0.0498
  637SOL     OW 2545   1.595   3.434   3.555 -0.5801 -0.6031  0.2956
  637SOL    HW1 2546   1.608   3.488   3.632 -2.4503 -0.9900  0.9449
  637SOL    HW2 2547   1.574   3.496   3.485 -2.3912 -0.3933  0.9603
  637SOL     MW 2548   1.594   3.449   3.556 -1.0755 -0.6269  0.4724
  638SOL     OW 2549   3.414   0.228   0.030 -0.4036  0.0668  0.3810
  638SOL    HW1 2550   3.419   0.273   0.115  0.9142 -1.5717  1.2171
  638SOL    HW2 2551   3.504   0.203   0.010 -0.7122  0.3152 -1.4746
  638SOL     MW 2552   3.427   0.231   0.039 -0.2678 -0.1203  0.2438
  639SOL     OW 2553   4.428   4.376   2.633 -0.1144  0.1287 -0.1772
  639SOL    HW1 2554   4.428   4.345   2.542 -3.1368 -0.7604  0.0091
  639SOL    HW2 2555   4.379   4.458   2.631 -0.6352 -0.1427  0.6955
  639SOL     MW 2556   4.421   4.383   2.620 -0.5912 -0.0275 -0.0347
  640SOL     OW 2557   4.534   0.262   3.111  0.0655 -0.1623 -0.1495
  640SOL    HW1 2558   4.506   0.194   3.172 -1.2437  0.0114 -0.5232
  640SOL    HW2 2559   4.615   0.228   3.072 -0.5396 -1.4905 -0.2883
  640SOL     MW 2560   4.541   0.249   3.114 -0.1921 -0.3177 -0.2185
  641SOL     OW 2561   3.006   0.542   1.571  0.1733 -0.3532 -0.0812
  641SOL    HW1 2562   3.058   0.512   1.496  0.6555 -0.2369  0.2035
  641SOL    HW2 2563   3.063   0.603   1.617 -0.2343 -0.1867  0.2132
  641SOL     MW 2564   3.021   0.547   1.567  0.1833 -0.3151 -0.0033
  642SOL     OW 2565   2.125   3.733   3.075  0.5672  0.2381 -0.0798
  642SOL    HW1 2566   2.052   3.745   3.014  0.5962 -0.9359 -0.3550
  642SOL    HW2 2567   2.182   3.808   3.059 -1.1321  1.8693  0.9831
  642SOL     MW 2568   2.122   3.745   3.065  0.3424  0.2996  0.0262
  643SOL     OW 2569   4.128   2.281   4.115  0.0501 -0.4676  0.4790
  643SOL    HW1 2570   4.092   2.194   4.098  0.5349 -0.8396  1.2947
  643SOL    HW2 2571   4.218   2.264   4.145  0.7740  0.4015 -1.0628
  643SOL     MW 2572   4.135   2.267   4.116  0.2128 -0.4007  0.3812
  644SOL     OW 2573   0.082   4.275   0.852 -0.7313 -0.6008  0.0730
  644SOL    HW1 2574   0.118   4.197   0.811  0.7750  0.5268 -0.8276
  644SOL    HW2 2575  -0.011   4.273   0.830  0.0894  0.5074 -4.5380
  644SOL     MW 2576   0.074   4.264   0.844 -0.4181 -0.2999 -0.6688
  645SOL     OW 2577   1.875   4.896   1.723  0.3791  0.3038 -0.2766
  645SOL    HW1 2578   1.779   4.890   1.723  0.3401  0.7911  0.5670
  645SOL    HW2 2579   1.905   4.811   1.755  0.1944  0.5296  0.5017
  645SOL     MW 2580   1.866   4.884   1.727  0.3490  0.3998 -0.0583
  646SOL     OW 2581   3.759   2.292   3.935 -0.0303  0.3519  0.3976
  646SOL    HW1 2582   3.691   2.332   3.881 -0.9354 -0.2748  1.0316
  646SOL    HW2 2583   3.754   2.199   3.913  0.8562  0.3443  0.2115
  646SOL     MW 2584   3.749   2.285   3.925 -0.0328  0.2665  0.4579
  647SOL     OW 2585   3.792   0.521   0.668 -0.2696  0.1291 -0.2466
  647SOL    HW1 2586   3.864   0.579   0.645 -0.0147  0.7219  1.8810
  647SOL    HW2 2587   3.832   0.435   0.676 -0.0662  0.2006 -0.4844
  647SOL     MW 2588   3.807   0.517   0.666 -0.2079  0.2185  0.0077
  648SOL     OW 2589   5.077   0.984   0.560  0.1937  0.5673  0.2335
  648SOL    HW1 2590   4.984   0.990   0.581  0.3262  0.8783  0.7384
  648SOL    HW2 2591   5.115   1.065   0.595  0.6602  0.4215  0.0705
  648SOL     MW 2592   5.069   0.996   0.568  0.2743  0.5895  0.2796
  649SOL     OW 2593   1.891   5.107   5.219  0.4189  0.3260 -0.0530
  649SOL    HW1 2594   1.804   5.069   5.209  0.5227  0.1762 -0.3950
  649SOL    HW2 2595   1.927   5.064   5.296  0.5776 -0.3577 -0.5006
  649SOL     MW 2596   1.884   5.096   5.228  0.4542  0.2138 -0.1593
  650SOL     OW 2597   5.429   4.693   0.259  0.8652 -0.1290 -0.1851
  650SOL    HW1 2598   5.423   4.723   0.169  0.3140  1.1941  0.2540
  650SOL    HW2 2599   5.407   4.600   0.255  1.3457 -0.2061 -1.4618
  650SOL     MW 2600   5.425   4.685   0.247  0.8557  0.0387 -0.2978
  651SOL     OW 2601   5.458   1.678   1.386  0.3429 -0.0801 -0.3184
  651SOL    HW1 2602   5.500   1.742   1.443  0.4872 -0.6987  0.2764
  651SOL    HW2 2603   5.530   1.627   1.349  0.1359 -1.7470  1.4135
  651SOL     MW 2604   5.473   1.680   1.389  0.3344 -0.3876 -0.0053
  652SOL     OW 2605   2.463   0.800   2.900  0.0811  0.2547  0.0583
  652SOL    HW1 2606   2.451   0.814   2.806 -3.5260  0.2678  0.4007
  652SOL    HW2 2607   2.463   0.705   2.910 -0.9928  0.2577  0.1578
  652SOL     MW 2608   2.462   0.789   2.889 -0.5488  0.2569  0.1177
  653SOL     OW 2609   3.451   1.102   5.012 -0.4683 -0.6581 -0.1211
  653SOL    HW1 2610   3.463   1.016   4.974  1.1187 -0.0158 -1.1615
  653SOL    HW2 2611   3.417   1.156   4.940 -0.4512 -0.1630  0.2355
  653SOL     MW 2612   3.448   1.098   4.997 -0.2524 -0.5051 -0.2131
  654SOL     OW 2613   2.168   3.113   3.410  0.2160 -0.4457  0.2612
  654SOL    HW1 2614   2.125   3.045   3.461 -1.5849 -0.0225 -0.6213
  654SOL    HW2 2615   2.149   3.194   3.457  1.0824 -0.3630  0.4940
  654SOL     MW 2616   2.160   3.115   3.423  0.0902 -0.3776  0.1737
  655SOL     OW 2617   2.312   4.454   1.313 -0.0315  0.1816 -0.2441
  655SOL    HW1 2618   2.336   4.494   1.397 -0.9466  1.9219 -0.7573
  655SOL    HW2 2619   2.335   4.521   1.248  0.2234 -0.9513 -1.3449
  655SOL     MW 2620   2.319   4.469   1.316 -0.1204  0.2633 -0.4613
  656SOL     OW 2621   2.424   0.523   2.887  0.4975 -0.0802  0.1588
  656SOL    HW1 2622   2.435   0.492   2.978 -0.2532 -2.1373 -0.3876
  656SOL    HW2 2623   2.511   0.512   2.848  1.1752  2.0708  0.9250
  656SOL     MW 2624   2.437   0.517   2.894  0.4877 -0.0676  0.1884
  657SOL     OW 2625   3.362   2.887   3.919 -0.7327 -0.0295 -0.0322
  657SOL    HW1 2626   3.413   2.968   3.926 -0.2555 -0.3795  0.7048
  657SOL    HW2 2627   3.272   2.914   3.937 -0.3259  0.0663  2.2710
  657SOL     MW 2628   3.357   2.902   3.923 -0.6137 -0.0637  0.3769
  658SOL     OW 2629   5.278   3.017   3.587  0.3912  0.7913 -0.2424
  658SOL    HW1 2630   5.220   2.975   3.651  2.2151 -2.6730 -0.6402
  658SOL    HW2 2631   5.330   3.078   3.639 -1.9097  2.2261  0.5161
  658SOL     MW 2632   5.277   3.019   3.603  0.3270  0.5182 -0.1938
  659SOL     OW 2633   4.340   3.192   3.093  0.0464 -0.1258 -0.4162
  659SOL    HW1 2634   4.371   3.198   3.003 -0.1037  0.9929 -0.4147
  659SOL    HW2 2635   4.420   3.190   3.145  0.1336 -0.0670 -0.5461
  659SOL     MW 2636   4.355   3.193   3.088  0.0379  0.0327 -0.4335
  660SOL     OW 2637   1.412   4.973   2.668  0.0091 -0.1267 -0.2919
  660SOL    HW1 2638   1.352   4.923   2.613  1.2582  1.8466 -3.7972
  660SOL    HW2 2639   1.493   4.921   2.669 -0.2404 -0.5126  0.3551
  660SOL     MW 2640   1.415   4.959   2.661  0.1436  0.0869 -0.6765
  661SOL     OW 2641   5.346   0.633   1.648 -0.1826 -0.1959 -0.1030
  661SOL    HW1 2642   5.409   0.634   1.576 -0.0166  1.7666  0.0075
  661SOL    HW2 2643   5.367   0.554   1.697  1.8184  0.0795 -0.4125
  661SOL     MW 2644   5.357   0.623   1.645  0.1090  0.1053 -0.1298
  662SOL     OW 2645   0.825   2.428   4.020  0.1230  0.7626 -0.1062
  662SOL    HW1 2646   0.860   2.461   4.103  1.2106  1.0203 -0.6539
  662SOL    HW2 2647   0.733   2.456   4.020  0.2399  1.1864  0.7799
  662SOL     MW 2648   0.817   2.436   4.031  0.2851  0.8543 -0.0607
  663SOL     OW 2649   1.414   0.493   0.556  0.3114  0.0306  0.2835
  663SOL    HW1 2650   1.455   0.550   0.491 -1.0046  1.4380  0.6310
  663SOL    HW2 2651   1.475   0.420   0.566  0.5142 -0.2922 -2.5805
  663SOL     MW 2652   1.428   0.491   0.549  0.1616  0.1766 -0.0551
  664SOL     OW 2653   4.456   3.569   1.202 -0.6814 -0.0567  0.2122
  664SOL    HW1 2654   4.484   3.554   1.112 -0.1146  0.0365  0.3654
  664SOL    HW2 2655   4.473   3.486   1.247  0.3166  0.3079  0.5371
  664SOL     MW 2656   4.462   3.556   1.196 -0.4708  0.0049  0.2766
  665SOL     OW 2657   1.985   4.160   1.899  0.0607 -0.3459  0.1442
  665SOL    HW1 2658   2.029   4.079   1.876 -0.5758 -0.3727 -1.0611
  665SOL    HW2 2659   2.019   4.224   1.836  1.4402  0.6357  1.8068
  665SOL     MW 2660   1.995   4.158   1.888  0.1607 -0.2174  0.2057
  666SOL     OW 2661   2.431   1.931   0.220  0.0005 -0.2440 -0.2141
  666SOL    HW1 2662   2.444   2.012   0.170  2.5592 -0.0094  0.6629
  666SOL    HW2 2663   2.354   1.948   0.274  1.2033  2.1883  0.9023
  666SOL     MW 2664   2.423   1.944   0.221  0.5067  0.1149  0.0542
  667SOL     OW 2665   2.565   2.390   1.713 -0.7797 -0.1758  0.0042
  667SOL    HW1 2666   2.547   2.334   1.637  1.1556  0.4204 -0.9564
  667SOL    HW2 2667   2.503   2.462   1.704 -1.8289 -1.0459  0.0540
  667SOL     MW 2668   2.554   2.392   1.701 -0.6605 -0.2127 -0.1184
  668SOL     OW 2669   0.169   1.142   1.772 -0.1154  0.4920  0.2283
  668SOL    HW1 2670   0.178   1.154   1.867 -0.5249 -1.2427  0.5177
  668SOL    HW2 2671   0.080   1.171   1.752 -0.4457 -0.2559  0.5859
  668SOL     MW 2672   0.159   1.147   1.782 -0.2150  0.1579  0.3154
  669SOL     OW 2673   4.873   1.555   5.024 -0.1499  0.4022  0.7223
  669SOL    HW1 2674   4.899   1.520   5.110 -0.1125 -0.1555  0.4880
  669SOL    HW2 2675   4.952   1.551   4.972 -0.2890  0.2898  0.5182
  669SOL     MW 2676   4.887   1.549   5.029 -0.1636  0.3120  0.6633
  670SOL     OW 2677   4.332   2.027   3.692  0.0063  0.1521 -0.1673
  670SOL    HW1 2678   4.367   2.079   3.765 -0.5866  0.1995  0.0976
  670SOL    HW2 2679   4.408   1.999   3.643  0.3620  0.9080 -0.0573
  670SOL     MW 2680   4.347   2.030   3.696 -0.0256  0.2602 -0.1169
  671SOL     OW 2681   5.432   0.560   0.717  0.1416 -0.0732 -0.3821
  671SOL    HW1 2682   5.447   0.564   0.811 -1.6920 -0.9708 -0.0100
  671SOL    HW2 2683   5.369   0.630   0.700 -0.3311 -0.5771 -0.7482
  671SOL     MW 2684   5.425   0.570   0.727 -0.1688 -0.2618 -0.3813
  672SOL     OW 2685   4.563   4.841   0.516 -0.3175 -0.0369  0.1815
  672SOL    HW1 2686   4.655   4.837   0.491 -0.9135 -1.0734 -2.1138
  672SOL    HW2 2687   4.560   4.801   0.603  1.6961  2.3942  1.5098
  672SOL     MW 2688   4.575   4.835   0.524 -0.1267  0.1508  0.0513
  673SOL     OW 2689   0.977   5.124   5.080 -0.5899  0.1110 -0.3226
  673SOL    HW1 2690   0.945   5.204   5.122 -2.0203 -1.7710  2.4710
  673SOL    HW2 2691   1.030   5.081   5.147  3.6875  0.4994 -3.0752
  673SOL     MW 2692   0.980   5.129   5.094 -0.2068 -0.0900 -0.3171
  674SOL     OW 2693   3.555   2.521   4.516 -0.0655 -0.1655 -0.0031
  674SOL    HW1 2694   3.544   2.546   4.608  0.2574 -0.3280  0.0823
  674SOL    HW2 2695   3.478   2.467   4.497 -0.8637  1.0216 -0.2413
  674SOL     MW 2696   3.543   2.517   4.526 -0.1295 -0.0276 -0.0237
  675SOL     OW 2697   4.591   0.711   0.684 -1.0987  0.2033  0.0279
  675SOL    HW1 2698   4.604   0.768   0.760 -0.1345 -1.4329  1.1329
  675SOL    HW2 2699   4.671   0.721   0.634  0.0515 -1.7886  1.3624
  675SOL     MW 2700   4.603   0.720   0.688 -0.8142 -0.2850  0.3562
  676SOL     OW 2701   4.259   2.916   0.353 -0.3464 -0.0510 -0.0771
  676SOL    HW1 2702   4.187   2.959   0.307 -0.8748 -0.1783  0.6275
  676SOL    HW2 2703   4.218   2.867   0.424  0.5007  0.6039  0.9008
  676SOL     MW 2704   4.244   2.915   0.356 -0.3035  0.0200  0.1494
  677SOL     OW 2705   1.333   2.404   4.372 -0.7870  0.1585 -0.0674
  677SOL    HW1 2706   1.336   2.490   4.413 -0.6177 -0.0122  0.2812
  677SOL    HW2 2707   1.374   2.345   4.435 -1.4171 -0.2774 -0.0505
  677SOL     MW 2708   1.339   2.408   4.386 -0.8490  0.0768 -0.0182
  678SOL     OW 2709   3.999   1.284   1.034  0.0172  0.2895 -0.2420
  678SOL    HW1 2710   3.976   1.373   1.063  1.7838  0.6244  0.2832
  678SOL    HW2 2711   4.025   1.295   0.943 -0.9021  0.0825 -0.5394
  678SOL     MW 2712   4.000   1.298   1.026  0.1312  0.3067 -0.2113
  679SOL     OW 2713   1.601   4.257   0.436 -0.3731 -0.3682 -0.2359
  679SOL    HW1 2714   1.696   4.246   0.441 -0.4950 -1.4589 -0.0907
  679SOL    HW2 2715   1.585   4.289   0.347  0.1215 -0.2586 -0.2874
  679SOL     MW 2716   1.612   4.260   0.425 -0.3229 -0.5002 -0.2233
  680SOL     OW 2717   3.385   1.793   5.429  0.5543 -0.4819 -0.2878
  680SOL    HW1 2718   3.385   1.889   5.425  0.2987 -0.5007 -0.9581
  680SOL    HW2 2719   3.303   1.768   5.386  1.1535 -1.0247 -1.1458
  680SOL     MW 2720   3.374   1.803   5.423  0.6005 -0.5575 -0.4935
  681SOL     OW 2721   4.845   3.294   1.954  0.3749  0.1161  0.7208
  681SOL    HW1 2722   4.795   3.244   1.889  0.1356 -1.5051  2.0713
  681SOL    HW2 2723   4.936   3.279   1.931  0.2823  0.8128 -0.1305
  681SOL     MW 2724   4.850   3.285   1.942  0.3303 -0.0083  0.7880
  682SOL     OW 2725   3.717   2.391   3.027 -0.2964  0.1606  0.5959
  682SOL    HW1 2726   3.693   2.399   3.119  0.0486 -0.3239  0.7279
  682SOL    HW2 2727   3.706   2.299   3.007 -1.7868  0.4910 -0.2528
  682SOL     MW 2728   3.712   2.380   3.037 -0.4506  0.1398  0.4995
  683SOL     OW 2729   3.080   1.550   4.476 -0.0954 -0.1967 -0.7171
  683SOL    HW1 2730   3.113   1.467   4.511  0.5332 -0.3589 -1.6506
  683SOL    HW2 2731   3.032   1.589   4.549  1.3603 -0.3933  0.4048
  683SOL     MW 2732   3.078   1.544   4.491  0.1851 -0.2450 -0.6918
  684SOL     OW 2733   0.727   4.344   2.093  0.1100  0.1520  0.2340
  684SOL    HW1 2734   0.804   4.351   2.036 -0.6146 -1.0421 -0.9408
  684SOL    HW2 2735   0.763   4.349   2.182  1.3617  1.1324 -0.2990
  684SOL     MW 2736   0.743   4.346   2.097  0.1810  0.1233  0.0042
  685SOL     OW 2737   2.843   0.184   1.134 -0.3106  0.2522 -0.4394
  685SOL    HW1 2738   2.786   0.137   1.194  0.9994 -0.1837  0.5277
  685SOL    HW2 2739   2.811   0.274   1.135 -1.1728 -0.0550 -0.1753
  685SOL     MW 2740   2.831   0.190   1.143 -0.2503  0.1522 -0.2737
  686SOL     OW 2741   1.683   4.056   3.386 -0.0587 -0.1420  0.1566
  686SOL    HW1 2742   1.679   3.977   3.331 -2.4491 -0.5822  0.8584
  686SOL    HW2 2743   1.713   4.024   3.471  0.4597 -0.0043  0.0321
  686SOL     MW 2744   1.687   4.041   3.390 -0.3106 -0.1827  0.2343
  687SOL     OW 2745   1.271   1.527   4.377 -0.1263 -0.2338  0.2312
  687SOL    HW1 2746   1.220   1.574   4.443 -0.7732 -2.3084  1.3160
  687SOL    HW2 2747   1.214   1.527   4.300 -1.2150 -1.2458  0.9780
  687SOL     MW 2748   1.256   1.533   4.375 -0.3598 -0.6492  0.4777
  688SOL     OW 2749   2.141   5.468   4.234  0.3099  0.5335 -0.1195
  688SOL    HW1 2750   2.191   5.478   4.153  1.2051 -0.6804  0.2510
  688SOL    HW2 2751   2.129   5.374   4.244 -1.4487  0.7524  0.2005
  688SOL     MW 2752   2.146   5.457   4.225  0.1937  0.3996 -0.0266
  689SOL     OW 2753   2.023   2.062   2.829 -0.0477  0.4276  0.1407
  689SOL    HW1 2754   2.051   2.054   2.738  0.8736 -1.7143  0.5540
  689SOL    HW2 2755   1.938   2.019   2.832  0.1737  0.0016  0.3902
  689SOL     MW 2756   2.015   2.055   2.817  0.1061  0.0820  0.2299
  690SOL     OW 2757   2.508   5.390   4.079 -0.1378 -0.9493 -0.0100
  690SOL    HW1 2758   2.522   5.443   4.157 -0.9939 -0.9664  0.1647
  690SOL    HW2 2759   2.541   5.444   4.007 -0.5648 -0.3730  0.2161
  690SOL     MW 2760   2.515   5.404   4.079 -0.3105 -0.8741  0.0439
  691SOL     OW 2761   5.119   4.611   1.783  0.5737 -0.0773 -0.0171
  691SOL    HW1 2762   5.157   4.609   1.695  1.5109  0.0134  0.3802
  691SOL    HW2 2763   5.025   4.617   1.767  0.8367  3.0204 -1.0295
  691SOL     MW 2764   5.111   4.612   1.769  0.7352  0.3518 -0.0999
  692SOL     OW 2765   3.747   0.995   0.356  0.4850 -0.3945 -0.2427
  692SOL    HW1 2766   3.734   1.088   0.335  2.2945 -0.3364 -1.3719
  692SOL    HW2 2767   3.662   0.955   0.344 -0.5723  1.2563  1.1622
  692SOL     MW 2768   3.734   1.002   0.352  0.5863 -0.1645 -0.2056
  693SOL     OW 2769   5.146   0.204   5.110  0.0647  0.1205 -0.2561
  693SOL    HW1 2770   5.217   0.268   5.109  0.8726 -0.7520 -1.5737
  693SOL    HW2 2771   5.087   0.233   5.040 -0.3868  0.2950  0.1907
  693SOL     MW 2772   5.148   0.217   5.100  0.1127  0.0266 -0.3733
  694SOL     OW 2773   2.110   4.249   1.041  0.1187 -0.0921 -0.0909
  694SOL    HW1 2774   2.032   4.295   1.072  0.3498  0.7298 -0.6595
  694SOL    HW2 2775   2.125   4.179   1.104 -1.9204 -1.2061 -0.7493
  694SOL     MW 2776   2.102   4.246   1.054 -0.1246 -0.1314 -0.2560
  695SOL     OW 2777   4.417   5.225   3.884  0.2356 -0.0268 -0.0458
  695SOL    HW1 2778   4.425   5.226   3.979  0.4513  0.5108 -0.0650
  695SOL    HW2 2779   4.450   5.139   3.858  1.3825  0.3004  0.2669
  695SOL     MW 2780   4.422   5.213   3.893  0.4190  0.0896 -0.0063
  696SOL     OW 2781   1.795   2.858   2.467  0.2638 -0.0492  0.2266
  696SOL    HW1 2782   1.728   2.925   2.477  0.0521 -0.4281  1.5227
  696SOL    HW2 2783   1.747   2.777   2.455  0.4674 -0.3380  1.2647
  696SOL     MW 2784   1.780   2.856   2.467  0.2627 -0.1391  0.5407
  697SOL     OW 2785   5.342   2.526   2.605 -0.2243  0.2962 -0.6896
  697SOL    HW1 2786   5.318   2.452   2.550  1.1627 -1.5985  1.0825
  697SOL    HW2 2787   5.291   2.600   2.571 -3.7814 -2.0207 -0.9161
  697SOL     MW 2788   5.332   2.526   2.593 -0.5164 -0.2706 -0.4816
  698SOL     OW 2789   3.040   3.314   1.692  0.2410  0.0804 -0.0895
  698SOL    HW1 2790   3.054   3.402   1.728 -2.1698  0.5883 -0.2562
  698SOL    HW2 2791   3.009   3.263   1.767  1.6006 -0.6821  0.0004
  698SOL     MW 2792   3.038   3.319   1.707  0.0995  0.0461 -0.0998
  699SOL     OW 2793   0.195   0.341   5.349  0.1360  0.2379 -0.1590
  699SOL    HW1 2794   0.217   0.248   5.338 -2.6484 -0.6373  0.9199
  699SOL    HW2 2795   0.157   0.367   5.265  1.0701  0.4804 -0.5182
  699SOL     MW 2796   0.193   0.332   5.336 -0.1130  0.1528 -0.0621
  700SOL     OW 2797   5.407   2.537   3.952  0.5487 -0.0721 -0.3291
  700SOL    HW1 2798   5.431   2.474   3.884  1.0553 -1.2072  0.8658
  700SOL    HW2 2799   5.443   2.500   4.032 -2.0041  0.0623  0.9532
  700SOL     MW 2800   5.415   2.524   3.953  0.2733 -0.2068  0.0043
  701SOL     OW 2801   1.276   3.624   0.648 -0.1614 -0.2879  0.4070
  701SOL    HW1 2802   1.283   3.708   0.602  0.1496 -0.2898  0.4525
  701SOL    HW2 2803   1.229   3.567   0.587 -2.8895  0.7088  1.4284
  701SOL     MW 2804   1.270   3.628   0.634 -0.4867 -0.1540  0.5506
  702SOL     OW 2805   1.450   2.973   0.514 -0.1612  0.2940 -0.0850
  702SOL    HW1 2806   1.357   2.950   0.508  0.0048 -0.5971  0.5998
  702SOL    HW2 2807   1.451   3.055   0.563 -0.6181  0.6589 -0.6621
  702SOL     MW 2808   1.437   2.981   0.520 -0.2004  0.2232 -0.0705
  703SOL     OW 2809   0.817   1.268   0.787 -0.0698 -0.5428 -0.1875
  703SOL    HW1 2810   0.884   1.299   0.849 -1.4486  0.3994  0.9126
  703SOL    HW2 2811   0.788   1.184   0.823 -1.2102  0.2273  0.7858
  703SOL     MW 2812   0.822   1.261   0.800 -0.4088 -0.3124  0.0915
  704SOL     OW 2813   4.951   1.163   2.080 -0.1248 -0.2899  0.2111
  704SOL    HW1 2814   4.891   1.144   2.152 -0.7414 -2.1605 -0.7413
  704SOL    HW2 2815   4.903   1.138   2.001  1.3342 -0.3617 -0.6875
  704SOL     MW 2816   4.937   1.157   2.079 -0.0115 -0.5513 -0.0380
  705SOL     OW 2817   0.808   5.450   1.589 -0.1821  0.1807  0.2435
  705SOL    HW1 2818   0.736   5.421   1.646  0.3534 -2.0346 -0.1358
  705SOL    HW2 2819   0.843   5.369   1.551  2.1519  1.2523 -0.0310
  705SOL     MW 2820   0.803   5.435   1.592  0.2041  0.0268  0.1555
  706SOL     OW 2821   1.279   3.193   2.525  0.5857  0.3226 -0.3954
  706SOL    HW1 2822   1.295   3.110   2.479  2.0679 -0.2748  1.0760
  706SOL    HW2 2823   1.366   3.219   2.557  0.1096  2.3631 -0.6644
  706SOL     MW 2824   1.293   3.185   2.523  0.7211  0.5168 -0.2336
  707SOL     OW 2825   4.483   2.055   2.196  0.1352  0.1959 -0.0339
  707SOL    HW1 2826   4.468   2.010   2.113 -0.5322  2.6810 -1.3652
  707SOL    HW2 2827   4.574   2.084   2.192  0.8260 -1.6225  1.1903
  707SOL     MW 2828   4.493   2.053   2.184  0.1383  0.2856 -0.0483
  708SOL     OW 2829   4.820   3.256   4.730  0.0771  0.4514 -0.2732
  708SOL    HW1 2830   4.850   3.218   4.647  0.9611  0.4783  0.0235
  708SOL    HW2 2831   4.845   3.348   4.725 -0.2322  0.5442 -0.1426
  708SOL     MW 2832   4.827   3.263   4.718  0.1544  0.4675 -0.2157
  709SOL     OW 2833   1.065   3.069   1.821 -0.1027  0.6560 -0.3087
  709SOL    HW1 2834   1.122   3.069   1.898 -0.9241  1.5244  0.3102
  709SOL    HW2 2835   1.118   3.026   1.753  0.9418  0.6188  0.4960
  709SOL     MW 2836   1.080   3.063   1.822 -0.0726  0.7679 -0.1171
  710SOL     OW 2837   0.171   1.304   0.589 -0.5330 -0.4085 -0.6041
  710SOL    HW1 2838   0.245   1.244   0.576  0.3502  0.5855 -0.2927
  710SOL    HW2 2839   0.208   1.391   0.577 -1.5792  0.1287 -0.0839
  710SOL     MW 2840   0.186   1.307   0.586 -0.5549 -0.2024 -0.4922
  711SOL     OW 2841   2.176   5.441   0.028 -0.3154  0.1882  0.3655
  711SOL    HW1 2842   2.230   5.369   0.062 -0.6422 -0.9913 -1.4491
  711SOL    HW2 2843   2.089   5.402   0.018 -0.2863  0.5336 -1.5010
  711SOL     MW 2844   2.172   5.426   0.032 -0.3555  0.0759 -0.1299
  712SOL     OW 2845   4.442   4.773   5.076  0.0312  0.5248  0.3286
  712SOL    HW1 2846   4.440   4.686   5.117 -1.3952  1.1657  1.7334
  712SOL    HW2 2847   4.481   4.758   4.990  0.0258 -1.4691  0.6230
  712SOL     MW 2848   4.447   4.759   5.070 -0.1615  0.3427  0.5573
  713SOL     OW 2849   2.052   2.316   4.088  0.5341  0.2378  0.2547
  713SOL    HW1 2850   2.117   2.266   4.137 -0.8977 -0.5348  1.4727
  713SOL    HW2 2851   1.972   2.308   4.140 -0.0251  2.9808 -0.0302
  713SOL     MW 2852   2.050   2.308   4.102  0.2661  0.5030  0.3803
  714SOL     OW 2853   2.558   5.142   0.879 -0.0132 -0.1474  0.0344
  714SOL    HW1 2854   2.467   5.144   0.906  0.5066  0.8816  1.8907
  714SOL    HW2 2855   2.557   5.166   0.787 -1.6354 -0.6847 -0.1160
  714SOL     MW 2856   2.546   5.145   0.871 -0.1616 -0.0812  0.2640
  715SOL     OW 2857   0.031   0.320   0.618  0.5705  0.0660 -0.2643
  715SOL    HW1 2858  -0.021   0.389   0.660  0.7652  0.3092 -0.4199
  715SOL    HW2 2859   0.042   0.350   0.528  0.9037 -0.0264 -0.2568
  715SOL     MW 2860   0.026   0.333   0.612  0.6415  0.0863 -0.2842
  716SOL     OW 2861   0.937   2.551   4.246  0.7939 -0.3781  0.0344
  716SOL    HW1 2862   0.973   2.502   4.320  1.3583 -0.8426 -0.5432
  716SOL    HW2 2863   1.001   2.619   4.228  0.2537  0.2751  0.5041
  716SOL     MW 2864   0.950   2.554   4.253  0.7971 -0.3527  0.0199
  717SOL     OW 2865   2.157   4.429   4.364  0.2996 -0.1101  0.1835
  717SOL    HW1 2866   2.120   4.517   4.365 -1.7136 -0.9126 -0.0430
  717SOL    HW2 2867   2.194   4.420   4.276  1.4030  0.8268  0.5254
  717SOL     MW 2868   2.157   4.440   4.352  0.1772 -0.0920  0.1990
  718SOL     OW 2869   5.442   2.872   2.817  0.2533  0.2001 -0.1741
  718SOL    HW1 2870   5.510   2.832   2.871 -0.4398  0.6839  1.1002
  718SOL    HW2 2871   5.488   2.906   2.740  1.4698  0.7192  0.7648
  718SOL     MW 2872   5.457   2.871   2.814  0.3237  0.3351  0.1237
  719SOL     OW 2873   0.708   2.254   5.110 -0.3788  0.3500  0.1869
  719SOL    HW1 2874   0.755   2.180   5.072  1.2713  0.5099  1.7780
  719SOL    HW2 2875   0.622   2.220   5.131 -0.1146 -0.7112 -0.3973
  719SOL     MW 2876   0.703   2.240   5.108 -0.1212  0.2287  0.3224
  720SOL     OW 2877   0.606   3.480   2.311  0.0629  0.2344 -0.3691
  720SOL    HW1 2878   0.626   3.387   2.318 -2.0136 -0.6327 -3.6170
  720SOL    HW2 2879   0.542   3.496   2.381  0.2709 -0.8218  0.0849
  720SOL     MW 2880   0.600   3.470   2.321 -0.1886 -0.0245 -0.7451
  721SOL     OW 2881   3.441   1.278   3.638 -0.2047 -0.4791 -0.0788
  721SOL    HW1 2882   3.482   1.280   3.725  1.3335 -0.7201 -0.7749
  721SOL    HW2 2883   3.378   1.206   3.644  1.9833 -2.5074 -0.0297
  721SOL     MW 2884   3.438   1.269   3.651  0.2968 -0.7845 -0.1658
  722SOL     OW 2885   2.871   2.471   3.357 -0.3015 -0.2261 -0.3574
  722SOL    HW1 2886   2.793   2.508   3.399  0.8693  1.2088  0.6447
  722SOL    HW2 2887   2.912   2.545   3.312  2.3180 -0.0642  2.0308
  722SOL     MW 2888   2.866   2.486   3.357  0.2086 -0.0112  0.0989
  723SOL     OW 2889   4.408   1.603   0.081 -0.2796  0.1979  0.5585
  723SOL    HW1 2890   4.341   1.542   0.111 -1.5935  0.6854 -1.2189
  723SOL    HW2 2891   4.359   1.674   0.040  1.3276  0.5401 -0.8623
  723SOL     MW 2892   4.392   1.604   0.080 -0.2401  0.3096  0.1281
  724SOL     OW 2893   0.850   3.158   0.340 -0.5114 -0.3850 -0.0326
  724SOL    HW1 2894   0.825   3.100   0.267 -1.1677  0.2355 -0.3064
  724SOL    HW2 2895   0.797   3.128   0.414 -0.6334 -0.3255 -0.0958
  724SOL     MW 2896   0.840   3.146   0.340 -0.6161 -0.2935 -0.0780
  725SOL     OW 2897   1.536   5.437   4.664 -0.2133  0.5040 -0.0177
  725SOL    HW1 2898   1.522   5.515   4.610 -3.2536 -0.4735 -0.8229
  725SOL    HW2 2899   1.540   5.365   4.601  1.0544 -0.1955  0.8201
  725SOL     MW 2900   1.535   5.438   4.648 -0.4518  0.2783 -0.0133
  726SOL     OW 2901   1.749   5.476   2.382  0.7300 -0.3206 -0.3186
  726SOL    HW1 2902   1.731   5.569   2.392  3.0576  0.3159 -1.3112
  726SOL    HW2 2903   1.764   5.443   2.470 -2.7291 -0.4578  0.3495
  726SOL     MW 2904   1.748   5.484   2.395  0.5777 -0.2534 -0.3623
  727SOL     OW 2905   5.003   4.186   0.760  0.3200 -0.0568 -0.2969
  727SOL    HW1 2906   4.995   4.277   0.788  0.2169  0.6956 -2.5973
  727SOL    HW2 2907   4.935   4.139   0.809 -0.4170  1.3051  0.0168
  727SOL     MW 2908   4.993   4.192   0.771  0.2069  0.2278 -0.5643
  728SOL     OW 2909   4.838   2.026   1.435 -0.1131  0.3118 -0.5172
  728SOL    HW1 2910   4.824   1.997   1.344 -2.0687  1.1100 -0.5233
  728SOL    HW2 2911   4.764   2.085   1.452 -0.0686 -0.2399  1.7739
  728SOL     MW 2912   4.826   2.030   1.425 -0.3703  0.3450 -0.2097
  729SOL     OW 2913   1.312   1.382   0.041  0.7274  0.0963 -0.2421
  729SOL    HW1 2914   1.292   1.462   0.090 -0.6842 -0.7979  0.7325
  729SOL    HW2 2915   1.366   1.411  -0.032  0.5386  1.8806  0.2792
  729SOL     MW 2916   1.317   1.397   0.038  0.5120  0.2161 -0.0408
  730SOL     OW 2917   4.505   5.279   0.847 -0.6343  0.4800  0.6096
  730SOL    HW1 2918   4.560   5.249   0.775 -1.8716 -0.1806 -0.0860
  730SOL    HW2 2919   4.429   5.318   0.805 -0.8008  1.2249  1.5577
  730SOL     MW 2920   4.502   5.280   0.832 -0.8233  0.4914  0.6436
  731SOL     OW 2921   1.239   4.865   4.772 -0.3603 -0.3340 -0.6188
  731SOL    HW1 2922   1.236   4.882   4.866  0.7055 -0.4648 -0.5491
  731SOL    HW2 2923   1.243   4.952   4.732  0.5178 -0.2944 -0.4699
  731SOL     MW 2924   1.239   4.879   4.779 -0.0987 -0.3463 -0.5894
  732SOL     OW 2925   2.924   2.677   2.822  0.1690  0.1504 -0.2949
  732SOL    HW1 2926   2.946   2.584   2.836  2.0879  0.4889 -0.7307
  732SOL    HW2 2927   2.896   2.681   2.731  3.3319  0.4321 -1.3955
  732SOL     MW 2928   2.923   2.665   2.812  0.8529  0.2339 -0.5016
  733SOL     OW 2929   0.565   0.406   2.714  0.5550 -0.2834  0.0195
  733SOL    HW1 2930   0.526   0.453   2.641 -0.8438 -2.1044 -0.4726
  733SOL    HW2 2931   0.578   0.473   2.781 -1.5580  0.7879 -0.5594
  733SOL     MW 2932   0.562   0.422   2.713  0.0823 -0.3843 -0.1246
  734SOL     OW 2933   2.397   2.089   1.828 -0.4140 -0.6245  0.2338
  734SOL    HW1 2934   2.343   2.017   1.861 -2.1194 -0.4628 -1.9639
  734SOL    HW2 2935   2.352   2.168   1.857  0.3409 -0.4336  0.9240
  734SOL     MW 2936   2.384   2.090   1.836 -0.5420 -0.5771  0.0309
  735SOL     OW 2937   5.097   4.161   1.598 -0.2519 -0.2014 -0.4265
  735SOL    HW1 2938   5.094   4.172   1.693 -0.0024  0.8344 -0.5294
  735SOL    HW2 2939   5.052   4.237   1.563  1.4293  0.5118 -1.1749
  735SOL     MW 2940   5.091   4.173   1.606  0.0079  0.0340 -0.5410
  736SOL     OW 2941   4.376   4.695   0.373  0.2657  0.0095 -0.3145
  736SOL    HW1 2942   4.399   4.602   0.379  0.4364 -0.0270 -1.3093
  736SOL    HW2 2943   4.443   4.740   0.423  1.1296 -0.2895 -1.1721
  736SOL     MW 2944   4.388   4.688   0.380  0.4049 -0.0357 -0.5638
  737SOL     OW 2945   1.977   4.278   4.516 -0.2348  0.1453  0.3962
  737SOL    HW1 2946   2.017   4.268   4.602  0.1364  1.4377  0.3900
  737SOL    HW2 2947   2.033   4.340   4.470 -0.3266 -0.6597 -0.8617
  737SOL     MW 2948   1.990   4.285   4.522 -0.1972  0.2109  0.2261
  738SOL     OW 2949   4.579   1.320   2.915  0.4343 -0.0456  0.7367
  738SOL    HW1 2950   4.603   1.381   2.846 -2.4455 -1.4588 -1.7709
  738SOL    HW2 2951   4.619   1.237   2.889 -0.2049 -0.4647  1.0415
  738SOL     MW 2952   4.588   1.317   2.902 -0.0393 -0.2922  0.4402
  739SOL     OW 2953   0.297   0.426   1.208 -0.1098 -0.3066  0.9495
  739SOL    HW1 2954   0.261   0.388   1.288 -0.8441  0.0326  0.7901
  739SOL    HW2 2955   0.391   0.406   1.212  0.0630  0.5993  2.4123
  739SOL     MW 2956   0.305   0.418   1.219 -0.1854 -0.1390  1.1249
  740SOL     OW 2957   1.261   1.540   3.734  0.0211 -0.0218 -0.7785
  740SOL    HW1 2958   1.333   1.565   3.676 -0.8481  0.2540 -1.7709
  740SOL    HW2 2959   1.201   1.616   3.732 -0.3590 -0.2993 -0.0859
  740SOL     MW 2960   1.262   1.554   3.726 -0.1471 -0.0220 -0.8189
  741SOL     OW 2961   0.228   3.714   3.670  0.1800  0.0157 -0.4185
  741SOL    HW1 2962   0.197   3.636   3.624 -1.7057 -1.0494  2.4145
  741SOL    HW2 2963   0.296   3.682   3.729 -0.7769  0.4039  0.9434
  741SOL     MW 2964   0.233   3.699   3.672 -0.2026 -0.0754  0.1461
  742SOL     OW 2965   2.892   4.611   0.663  0.3347  0.0217 -0.5941
  742SOL    HW1 2966   2.943   4.665   0.601  0.4906  1.2069  0.5337
  742SOL    HW2 2967   2.801   4.637   0.648  0.1079 -1.3851 -1.9180
  742SOL     MW 2968   2.887   4.622   0.652  0.3252 -0.0081 -0.6205
  743SOL     OW 2969   4.020   2.411   1.732 -0.4927  0.9311 -0.8949
  743SOL    HW1 2970   3.962   2.465   1.786  0.7191  1.1999  0.1889
  743SOL    HW2 2971   3.981   2.414   1.645 -2.8423  0.0220  0.0329
  743SOL     MW 2972   4.007   2.419   1.728 -0.6458  0.8449 -0.6241
  744SOL     OW 2973   2.368   0.255   4.527 -0.1629 -0.1668  0.1660
  744SOL    HW1 2974   2.345   0.168   4.492 -1.6190  0.7143 -1.2002
  744SOL    HW2 2975   2.292   0.310   4.507  1.6179  2.0094 -1.1711
  744SOL     MW 2976   2.355   0.250   4.519 -0.1192  0.2447 -0.1978
  745SOL     OW 2977   4.481   0.036   3.387  0.0763 -0.1083 -0.3300
  745SOL    HW1 2978   4.562  -0.002   3.353 -0.5146 -0.2692 -1.6029
  745SOL    HW2 2979   4.445  -0.032   3.445 -0.0190 -0.7570 -1.1269
  745SOL     MW 2980   4.487   0.022   3.391 -0.0161 -0.2172 -0.6085
  746SOL     OW 2981   5.378   3.831   1.656  0.3440  0.4830 -0.3039
  746SOL    HW1 2982   5.419   3.877   1.729  1.7803 -0.8468 -0.2120
  746SOL    HW2 2983   5.404   3.882   1.579 -1.5452  2.1439  0.0840
  746SOL     MW 2984   5.387   3.844   1.655  0.2830  0.5276 -0.2393
  747SOL     OW 2985   4.578   1.924   4.543  0.4400 -0.4382  0.1749
  747SOL    HW1 2986   4.501   1.979   4.529  0.2023 -1.3409 -2.8762
  747SOL    HW2 2987   4.547   1.835   4.525  1.5732 -1.1953  1.7744
  747SOL     MW 2988   4.563   1.920   4.539  0.5605 -0.6616 -0.0205
  748SOL     OW 2989   4.263   1.414   2.926  0.7553 -0.4002 -0.0299
  748SOL    HW1 2990   4.205   1.463   2.868 -0.3738 -1.8397 -0.1746
  748SOL    HW2 2991   4.329   1.377   2.867 -0.5517 -2.0974 -0.5159
  748SOL     MW 2992   4.264   1.416   2.910  0.4275 -0.8223 -0.1147
  749SOL     OW 2993   4.760   0.258   2.938 -0.5835 -0.3059  0.3330
  749SOL    HW1 2994   4.806   0.236   2.856 -2.1036 -1.0784 -0.3442
  749SOL    HW2 2995   4.776   0.352   2.949 -0.1685 -0.2357 -0.7230
  749SOL     MW 2996   4.768   0.268   2.928 -0.7322 -0.4004  0.0997
  750SOL     OW 2997   5.057   3.930   2.436  0.2144 -0.9218 -0.0621
  750SOL    HW1 2998   5.033   3.862   2.373  1.4829 -0.0622 -1.5345
  750SOL    HW2 2999   5.031   4.012   2.394  0.6497 -0.3464  0.7632
  750SOL     MW 3000   5.050   3.932   2.422  0.4437 -0.7287 -0.1492
  751SOL     OW 3001   4.282   0.352   4.623 -0.1428  0.2400  0.6413
  751SOL    HW1 3002   4.329   0.303   4.555  2.0258  1.4851  1.1546
  751SOL    HW2 3003   4.231   0.285   4.669  1.6442 -1.3574  0.4541
  751SOL     MW 3004   4.282   0.336   4.620  0.3895  0.1925  0.6852
  752SOL     OW 3005   3.455   0.440   1.592 -0.0385  0.1892 -0.0836
  752SOL    HW1 3006   3.386   0.373   1.585 -0.8245  0.9360  0.3382
  752SOL    HW2 3007   3.526   0.407   1.537 -0.5439 -0.8282 -0.1527
  752SOL     MW 3008   3.455   0.426   1.584 -0.2123  0.1528 -0.0361
  753SOL     OW 3009   3.159   5.189   0.354 -0.1923  0.3030  0.4997
  753SOL    HW1 3010   3.232   5.246   0.378 -1.1278  1.8573 -0.2487
  753SOL    HW2 3011   3.132   5.149   0.436  2.1692 -1.1805  0.6526
  753SOL     MW 3012   3.165   5.191   0.368 -0.0004  0.3125  0.4196
  754SOL     OW 3013   4.662   3.377   3.458 -0.9073 -0.1908 -0.2992
  754SOL    HW1 3014   4.712   3.353   3.536  1.1186  1.3584 -1.0326
  754SOL    HW2 3015   4.573   3.394   3.490  0.0500  1.1760  1.8320
  754SOL     MW 3016   4.657   3.376   3.473 -0.5058  0.2016 -0.1111
  755SOL     OW 3017   4.442   4.419   3.823 -0.1836  0.4533 -0.4083
  755SOL    HW1 3018   4.414   4.440   3.913 -1.8138  0.5318 -0.9011
  755SOL    HW2 3019   4.534   4.445   3.820  0.2051 -0.5324  1.5492
  755SOL     MW 3020   4.450   4.425   3.835 -0.3507  0.3312 -0.2112
  756SOL     OW 3021   3.980   4.126   4.817 -0.0166  0.5779  0.3879
  756SOL    HW1 3022   3.917   4.062   4.784  0.5314 -0.1573  0.7184
  756SOL    HW2 3023   3.953   4.209   4.778  0.1119 -0.1012 -1.2313
  756SOL     MW 3024   3.968   4.129   4.808  0.0744  0.3876  0.2145
  757SOL     OW 3025   3.683   4.842   4.750  0.4301 -0.0938  0.4660
  757SOL    HW1 3026   3.684   4.788   4.671  0.4212  2.1308 -1.1583
  757SOL    HW2 3027   3.590   4.856   4.768  0.4366  0.1823  0.2900
  757SOL     MW 3028   3.670   4.837   4.742  0.4298  0.2427  0.2237
  758SOL     OW 3029   0.545   0.778   4.452  0.3235 -0.4075  0.0250
  758SOL    HW1 3030   0.492   0.800   4.375  1.7410 -0.1645 -0.9037
  758SOL    HW2 3031   0.487   0.724   4.506 -0.7465 -0.4526 -1.1285
  758SOL     MW 3032   0.530   0.774   4.449  0.3703 -0.3809 -0.2552
  759SOL     OW 3033   0.439   1.076   3.492 -0.5080 -0.0288  0.0916
  759SOL    HW1 3034   0.512   1.044   3.544 -0.4785 -0.2819 -0.1060
  759SOL    HW2 3035   0.477   1.099   3.407 -0.4237  1.0652  0.4007
  759SOL     MW 3036   0.454   1.075   3.488 -0.4927  0.0844  0.1066
  760SOL     OW 3037   5.035   3.995   4.678 -0.0533  0.2074  0.3236
  760SOL    HW1 3038   4.970   3.938   4.718  0.8930  0.2358  2.0094
  760SOL    HW2 3039   4.988   4.076   4.659 -0.9919 -0.5054 -0.4714
  760SOL     MW 3040   5.020   3.998   4.681 -0.0522  0.1153  0.4435
  761SOL     OW 3041   4.452   0.839   4.263  0.2202  0.0593  0.0535
  761SOL    HW1 3042   4.383   0.891   4.222  1.2665 -0.0908 -2.0646
  761SOL    HW2 3043   4.447   0.754   4.220  2.7736  0.5860 -1.5129
  761SOL     MW 3044   4.442   0.835   4.252  0.7046  0.1099 -0.4423
  762SOL     OW 3045   2.155   3.401   0.749  0.3151  0.0480 -0.3156
  762SOL    HW1 3046   2.061   3.412   0.734  0.5743  1.3263 -1.1261
  762SOL    HW2 3047   2.179   3.326   0.695 -0.1471  0.0266 -0.4967
  762SOL     MW 3048   2.146   3.392   0.740  0.2878  0.2172 -0.4490
  763SOL     OW 3049   2.661   3.017   1.619 -0.1706  0.5949 -0.0269
  763SOL    HW1 3050   2.572   3.039   1.648 -0.1315 -0.4015  0.8991
  763SOL    HW2 3051   2.703   3.102   1.606 -1.3069  1.0905 -0.6716
  763SOL     MW 3052   2.655   3.031   1.621 -0.3182  0.5275  0.0110
  764SOL     OW 3053   5.375   0.332   2.489  0.1937  0.0481  0.2504
  764SOL    HW1 3054   5.460   0.373   2.500 -0.2211  0.8293  0.6430
  764SOL    HW2 3055   5.394   0.239   2.478  1.1574  0.3560 -0.8439
  764SOL     MW 3056   5.389   0.325   2.489  0.2676  0.1947  0.1560
  765SOL     OW 3057   0.323   0.616   3.676  0.2979 -0.1154 -0.7513
  765SOL    HW1 3058   0.378   0.636   3.752  1.0084  0.4246 -1.3846
  765SOL    HW2 3059   0.319   0.698   3.627 -0.9434 -0.1985 -0.8192
  765SOL     MW 3060   0.330   0.630   3.680  0.2265 -0.0539 -0.8457
  766SOL     OW 3061   4.729   3.324   0.295 -0.5598  0.4141  0.6056
  766SOL    HW1 3062   4.740   3.242   0.343 -2.0206 -0.3199 -0.2304
  766SOL    HW2 3063   4.794   3.383   0.332  1.7830 -1.6608  0.0313
  766SOL     MW 3064   4.739   3.321   0.306 -0.4411  0.0361  0.4158
  767SOL     OW 3065   4.044   1.701   2.229 -0.0004  0.1175  0.2083
  767SOL    HW1 3066   4.139   1.690   2.234  0.1614 -0.0531 -2.0292
  767SOL    HW2 3067   4.009   1.626   2.277  0.9940  0.0591  0.8772
  767SOL     MW 3068   4.052   1.689   2.236  0.1552  0.0867 -0.0028
  768SOL     OW 3069   5.368   0.166   2.095 -0.5696  0.7143  0.3538
  768SOL    HW1 3070   5.316   0.218   2.157  1.1832  2.6297  0.3306
  768SOL    HW2 3071   5.377   0.081   2.138 -2.3642  0.8341  1.0566
  768SOL     MW 3072   5.362   0.161   2.109 -0.5752  0.9882  0.4453
  769SOL     OW 3073   5.087   3.790   3.835  0.0855  0.3378  0.1008
  769SOL    HW1 3074   5.131   3.711   3.865 -0.8277 -0.9538 -1.7739
  769SOL    HW2 3075   5.065   3.837   3.916  0.3262 -1.4814  1.2943
  769SOL     MW 3076   5.090   3.786   3.850 -0.0050 -0.0808  0.0091
  770SOL     OW 3077   3.067   4.645   3.386  0.0215 -0.3410 -0.5118
  770SOL    HW1 3078   3.079   4.739   3.395  0.1429 -0.4543  0.6525
  770SOL    HW2 3079   3.080   4.628   3.293 -1.0517  0.9321 -0.9358
  770SOL     MW 3080   3.070   4.655   3.374 -0.1066 -0.1849 -0.4122
  771SOL     OW 3081   1.181   1.346   1.413 -0.0124 -0.0088  0.4487
  771SOL    HW1 3082   1.176   1.271   1.354  0.2368  0.0367  0.3672
  771SOL    HW2 3083   1.170   1.422   1.356  0.5758  0.0498  0.4075
  771SOL     MW 3084   1.179   1.346   1.397  0.1003  0.0052  0.4322
  772SOL     OW 3085   5.156   3.571   1.202  0.2487  0.1271 -0.5393
  772SOL    HW1 3086   5.180   3.526   1.283  1.3177 -0.1789 -1.0105
  772SOL    HW2 3087   5.075   3.527   1.173  1.1259 -1.3615 -0.8585
  772SOL     MW 3088   5.148   3.559   1.209  0.5106 -0.1144 -0.6457
  773SOL     OW 3089   2.649   5.393   2.570 -0.0708  0.4546 -0.1774
  773SOL    HW1 3090   2.701   5.456   2.620  0.6170 -1.6061  1.8713
  773SOL    HW2 3091   2.583   5.362   2.632  1.2176 -2.6820 -0.1934
  773SOL     MW 3092   2.647   5.397   2.585  0.1952 -0.2449  0.0962
  774SOL     OW 3093   4.533   4.025   1.860  0.5974  0.4520 -0.0369
  774SOL    HW1 3094   4.552   4.116   1.839  0.0206  0.6371  0.2112
  774SOL    HW2 3095   4.500   4.027   1.950 -0.3695  0.1393 -0.3659
  774SOL     MW 3096   4.531   4.038   1.869  0.3896  0.4348 -0.0478
  775SOL     OW 3097   1.434   0.292   4.237 -0.0327 -0.1518  0.3175
  775SOL    HW1 3098   1.390   0.243   4.168  1.5114  0.2917 -1.0348
  775SOL    HW2 3099   1.375   0.364   4.256 -0.7968 -0.6706 -0.0443
  775SOL     MW 3100   1.420   0.295   4.230  0.0722 -0.1619  0.0868
  776SOL     OW 3101   0.501   4.365   2.316 -0.1124  0.0845 -0.3393
  776SOL    HW1 3102   0.477   4.425   2.245  0.4081  1.2339  0.4077
  776SOL    HW2 3103   0.455   4.284   2.296  0.9608 -0.0308 -2.6137
  776SOL     MW 3104   0.492   4.362   2.304  0.1021  0.2237 -0.5449
  777SOL     OW 3105   1.753   2.764   0.170 -0.4918  0.1706 -0.0350
  777SOL    HW1 3106   1.805   2.691   0.204 -0.3773 -0.0975 -0.7768
  777SOL    HW2 3107   1.810   2.806   0.105 -0.6512  0.7662  0.2033
  777SOL     MW 3108   1.768   2.760   0.166 -0.4979  0.2147 -0.1028
  778SOL     OW 3109   0.694   4.298   1.108  0.0327  0.0327  0.3676
  778SOL    HW1 3110   0.689   4.246   1.188  0.5388  0.3876  0.6338
  778SOL    HW2 3111   0.603   4.304   1.077  0.1881 -4.2660 -1.7839
  778SOL     MW 3112   0.681   4.292   1.115  0.1217 -0.4981  0.1139
  779SOL     OW 3113   5.375   3.082   5.103  0.3154  0.3396  0.5404
  779SOL    HW1 3114   5.402   3.155   5.160  0.3484  0.9714 -0.2554
  779SOL    HW2 3115   5.436   3.012   5.124  0.1850  0.4764  1.4400
  779SOL     MW 3116   5.387   3.083   5.114  0.3023  0.4430  0.5544
  780SOL     OW 3117   1.876   1.068   1.388 -0.3828 -0.5777 -0.3275
  780SOL    HW1 3118   1.952   1.120   1.361  1.6122 -2.4450  1.3560
  780SOL    HW2 3119   1.804   1.132   1.391  1.9031  2.2077  1.6191
  780SOL     MW 3120   1.877   1.084   1.385  0.1933 -0.4541  0.1610
  781SOL     OW 3121   4.666   2.312   0.634  0.0302 -0.5844  0.2203
  781SOL    HW1 3122   4.604   2.241   0.622 -2.1211  1.3246 -0.6891
  781SOL    HW2 3123   4.622   2.372   0.695  0.4915  1.2994 -1.1932
  781SOL     MW 3124   4.652   2.311   0.641 -0.1973 -0.0739 -0.0923
  782SOL     OW 3125   0.418   0.978   0.333 -0.2799 -0.3728  0.1971
  782SOL    HW1 3126   0.423   1.059   0.383 -2.6299 -0.7786  1.1865
  782SOL    HW2 3127   0.510   0.955   0.315  0.4797  1.6033  1.3069
  782SOL     MW 3128   0.431   0.985   0.337 -0.4939 -0.1614  0.4796
  783SOL     OW 3129   2.033   5.492   2.870 -0.2506  0.4562  0.0055
  783SOL    HW1 3130   2.124   5.510   2.896 -0.1541  0.4844 -0.3513
  783SOL    HW2 3131   1.995   5.450   2.947  0.3726 -0.5550 -0.2196
  783SOL     MW 3132   2.040   5.489   2.884 -0.1537  0.3239 -0.0728
  784SOL     OW 3133   4.813   0.762   4.370  0.1907  0.2678  0.2112
  784SOL    HW1 3134   4.782   0.848   4.341  0.9341 -0.0344 -1.6484
  784SOL    HW2 3135   4.776   0.700   4.307  1.5134 -0.4981  0.1286
  784SOL     MW 3136   4.804   0.765   4.357  0.4688  0.1240 -0.0502
  785SOL     OW 3137   5.113   1.028   4.949 -0.0317  0.3630  0.2839
  785SOL    HW1 3138   5.115   0.951   5.006 -2.3370 -0.2552 -0.3474
  785SOL    HW2 3139   5.165   1.094   4.995  2.7312 -1.7625  0.4509
  785SOL     MW 3140   5.120   1.026   4.963  0.0299 -0.0062  0.2214
  786SOL     OW 3141   4.154   4.370   2.912 -0.2001  0.3369  0.7631
  786SOL    HW1 3142   4.203   4.453   2.914 -1.1483  0.9499 -0.2569
  786SOL    HW2 3143   4.220   4.304   2.892  0.5722  0.8448  1.5620
  786SOL     MW 3144   4.170   4.372   2.909 -0.2237  0.4877  0.7334
  787SOL     OW 3145   0.286   3.546   5.216 -0.6207 -0.0183  0.0512
  787SOL    HW1 3146   0.373   3.584   5.225  0.5802 -2.5138 -0.2246
  787SOL    HW2 3147   0.274   3.493   5.294 -1.3041 -0.8002 -0.5617
  787SOL     MW 3148   0.296   3.544   5.228 -0.5511 -0.4594 -0.0684
  788SOL     OW 3149   1.536   3.865   4.188  0.2999  0.6918  0.1681
  788SOL    HW1 3150   1.510   3.826   4.105  0.3065 -0.0512  0.5071
  788SOL    HW2 3151   1.510   3.801   4.254  1.1767  0.8266  0.6626
  788SOL     MW 3152   1.529   3.851   4.186  0.4188  0.6099  0.2803
  789SOL     OW 3153   0.527   2.824   2.663 -0.1501 -0.2597  0.1914
  789SOL    HW1 3154   0.584   2.775   2.722 -0.9606 -1.5130 -0.0283
  789SOL    HW2 3155   0.440   2.815   2.701 -0.2477  1.6613  0.5435
  789SOL     MW 3156   0.523   2.816   2.676 -0.2723 -0.1698  0.2092
  790SOL     OW 3157   3.350   0.463   5.411  0.3291  0.3032  0.3311
  790SOL    HW1 3158   3.377   0.377   5.443  1.7115  0.5575 -0.0945
  790SOL    HW2 3159   3.279   0.444   5.349  1.7355 -0.7126 -1.0595
  790SOL     MW 3160   3.344   0.449   5.407  0.7044  0.2007  0.0867
  791SOL     OW 3161   2.741   5.392   5.129 -0.3523  0.2109 -1.1286
  791SOL    HW1 3162   2.690   5.387   5.210 -0.5138 -1.0471 -1.2893
  791SOL    HW2 3163   2.800   5.316   5.132  0.8210  1.0781 -1.4204
  791SOL     MW 3164   2.742   5.381   5.140 -0.2161  0.1583 -1.1895
  792SOL     OW 3165   4.260   4.319   3.541  0.5240  0.5154  0.0008
  792SOL    HW1 3166   4.239   4.238   3.494 -0.5067 -1.2596  3.2344
  792SOL    HW2 3167   4.183   4.375   3.526  0.1693 -0.0418 -0.3387
  792SOL     MW 3168   4.246   4.315   3.533  0.3375  0.2016  0.3903
  793SOL     OW 3169   2.740   4.068   1.028 -0.1040  0.3175  0.0232
  793SOL    HW1 3170   2.732   4.008   1.102 -0.4864  0.4400  0.0803
  793SOL    HW2 3171   2.834   4.073   1.011 -0.0374  0.0808  0.3292
  793SOL     MW 3172   2.752   4.061   1.035 -0.1465  0.3022  0.0721
  794SOL     OW 3173   2.512   1.351   3.292 -0.2952 -0.1172  0.6128
  794SOL    HW1 3174   2.576   1.280   3.287  0.2905  0.4043  0.6786
  794SOL    HW2 3175   2.428   1.308   3.275  0.2065 -0.5674 -0.8787
  794SOL     MW 3176   2.509   1.335   3.289 -0.1489 -0.1076  0.4209
  795SOL     OW 3177   2.923   3.589   1.193  0.0516  0.5598 -0.1724
  795SOL    HW1 3178   2.975   3.669   1.188 -0.8559  1.1012 -1.2607
  795SOL    HW2 3179   2.983   3.524   1.228  1.1075  1.4577 -0.2634
  795SOL     MW 3180   2.938   3.591   1.197  0.0716  0.7535 -0.3311
  796SOL     OW 3181   1.243   2.937   1.674  0.0352 -0.6429  0.4569
  796SOL    HW1 3182   1.178   2.913   1.607 -0.6516 -1.7467  1.4910
  796SOL    HW2 3183   1.326   2.905   1.639 -0.4022 -1.7324  0.3669
  796SOL     MW 3184   1.246   2.930   1.660 -0.1161 -0.9381  0.5839
  797SOL     OW 3185   2.687   4.511   5.217 -0.4757 -0.4629  0.3375
  797SOL    HW1 3186   2.655   4.515   5.127 -0.7477 -3.0878  0.2458
  797SOL    HW2 3187   2.731   4.426   5.223  1.3423  0.5191  2.1291
  797SOL     MW 3188   2.689   4.500   5.206 -0.2677 -0.6840  0.5663
  798SOL     OW 3189   5.343   2.938   0.522 -0.6045  0.2023  0.0570
  798SOL    HW1 3190   5.268   2.926   0.463 -0.2631 -1.1962 -0.1181
  798SOL    HW2 3191   5.341   2.862   0.580 -0.1648  0.9022  1.0053
  798SOL     MW 3192   5.332   2.926   0.522 -0.4994  0.1083  0.1611
  799SOL     OW 3193   1.043   4.242   0.440  0.9852  0.0272  0.2875
  799SOL    HW1 3194   0.960   4.276   0.475  0.3830 -1.5243  0.4367
  799SOL    HW2 3195   1.104   4.248   0.513  0.9609  0.9903  0.2401
  799SOL     MW 3196   1.040   4.247   0.454  0.9009 -0.0520  0.3012
  800SOL     OW 3197   2.067   1.675   4.523  0.0066 -0.8349  0.0816
  800SOL    HW1 3198   2.033   1.638   4.441  0.1179 -0.1851 -0.2689
  800SOL    HW2 3199   1.991   1.714   4.564  0.1393 -0.2344 -0.2306
  800SOL     MW 3200   2.052   1.675   4.517  0.0394 -0.6666 -0.0076
  801SOL     OW 3201   4.312   4.611   0.891  0.9158 -0.1846 -0.0551
  801SOL    HW1 3202   4.284   4.546   0.826 -1.1538 -0.1442  0.7201
  801SOL    HW2 3203   4.337   4.559   0.967 -0.5627 -0.1442  0.4993
  801SOL     MW 3204   4.312   4.595   0.893  0.4383 -0.1737  0.1238
  802SOL     OW 3205   1.892   2.572   0.330 -0.5590  0.2643  0.1993
  802SOL    HW1 3206   1.985   2.560   0.311 -0.6304  1.2253 -0.8106
  802SOL    HW2 3207   1.864   2.487   0.366  0.7680  0.0678  0.8285
  802SOL     MW 3208   1.901   2.559   0.333 -0.3901  0.3672  0.1480
  803SOL     OW 3209   2.807   4.435   3.328  0.6171 -0.1122 -0.0540
  803SOL    HW1 3210   2.809   4.514   3.273 -1.1951  1.0888  1.4702
  803SOL    HW2 3211   2.875   4.450   3.394  2.3196 -1.2430 -1.4744
  803SOL     MW 3212   2.817   4.448   3.330  0.6023 -0.1028 -0.0400
  804SOL     OW 3213   2.739   0.703   3.472 -0.2015  0.6185 -0.5400
  804SOL    HW1 3214   2.763   0.680   3.562 -0.2132  1.5437 -0.2801
  804SOL    HW2 3215   2.781   0.637   3.418 -1.0946 -0.5987  0.2060
  804SOL     MW 3216   2.748   0.691   3.477 -0.3233  0.5792 -0.4047
  805SOL     OW 3217   1.486   3.835   2.772 -0.0597  0.6122  0.0905
  805SOL    HW1 3218   1.465   3.746   2.744 -0.7213  0.9393 -0.4913
  805SOL    HW2 3219   1.405   3.884   2.758  1.0168  1.9127 -2.1886
  805SOL     MW 3220   1.472   3.830   2.766 -0.0039  0.8312 -0.2945
  806SOL     OW 3221   5.391   4.447   2.090 -0.3621 -0.4166 -0.0851
  806SOL    HW1 3222   5.472   4.498   2.101 -0.2565 -0.6230  0.0984
  806SOL    HW2 3223   5.420   4.366   2.049 -0.1330 -1.4889  2.0947
  806SOL     MW 3224   5.406   4.443   2.086 -0.3171 -0.5887  0.2329
  807SOL     OW 3225   3.452   2.727   5.466  0.2116 -0.6809 -0.2084
  807SOL    HW1 3226   3.531   2.740   5.518 -1.2876  1.7279  1.6438
  807SOL    HW2 3227   3.484   2.690   5.383  3.4894  1.8718 -0.2689
  807SOL     MW 3228   3.467   2.724   5.462  0.4509 -0.0132  0.0327
  808SOL     OW 3229   3.301   0.587   1.950  0.2624 -0.2212  0.4396
  808SOL    HW1 3230   3.305   0.662   2.010  1.1291  0.2597 -0.1903
  808SOL    HW2 3231   3.390   0.580   1.915 -0.3765 -0.0243 -1.3402
  808SOL     MW 3232   3.314   0.596   1.953  0.2930 -0.1300  0.1153
  809SOL     OW 3233   1.361   4.532   1.899 -0.5779 -0.0593 -0.0262
  809SOL    HW1 3234   1.454   4.509   1.889 -0.8147 -0.6618 -0.8701
  809SOL    HW2 3235   1.362   4.601   1.966  0.6259  1.0080 -1.0629
  809SOL     MW 3236   1.374   4.538   1.907 -0.4478  0.0033 -0.2793
  810SOL     OW 3237   5.168   1.101   2.774  0.1122 -0.0302  0.2600
  810SOL    HW1 3238   5.192   1.025   2.722 -0.6595 -0.6010  0.7167
  810SOL    HW2 3239   5.152   1.170   2.709 -1.3721 -0.8795 -0.3363
  810SOL     MW 3240   5.169   1.100   2.758 -0.1914 -0.2213  0.2412
  811SOL     OW 3241   0.007   4.188   2.798  0.0842 -0.1644  0.1201
  811SOL    HW1 3242   0.031   4.252   2.731 -2.9549 -0.1820 -1.1456
  811SOL    HW2 3243   0.010   4.237   2.880 -0.9710  1.3025 -0.6746
  811SOL     MW 3244   0.011   4.203   2.800 -0.4668  0.0306 -0.1572
  812SOL     OW 3245   1.012   0.333   2.399  0.2378 -0.4978 -0.3605
  812SOL    HW1 3246   1.042   0.242   2.400  0.4416 -0.4317 -0.3522
  812SOL    HW2 3247   1.030   0.365   2.487 -0.2866 -0.5920 -0.2156
  812SOL     MW 3248   1.019   0.325   2.411  0.1946 -0.5016 -0.3399
  813SOL     OW 3249   0.041   4.222   3.561  0.7721 -0.0674 -0.7647
  813SOL    HW1 3250   0.066   4.253   3.473 -1.0238  1.0681 -0.9147
  813SOL    HW2 3251   0.122   4.187   3.597  1.5831 -0.4865 -2.8458
  813SOL     MW 3252   0.055   4.222   3.554  0.6396  0.0290 -1.0650
  814SOL     OW 3253   1.656   3.580   3.775  0.0059 -0.3181 -0.2829
  814SOL    HW1 3254   1.751   3.587   3.766  0.2243 -0.8189  1.3435
  814SOL    HW2 3255   1.642   3.552   3.865 -1.5707 -2.8224 -1.1868
  814SOL     MW 3256   1.667   3.577   3.786 -0.1769 -0.7225 -0.1856
  815SOL     OW 3257   3.770   0.080   0.794 -0.5679 -0.2530  0.4506
  815SOL    HW1 3258   3.742   0.126   0.873  2.3224 -0.5887  1.8122
  815SOL    HW2 3259   3.811   0.147   0.739 -1.8148 -0.1708 -0.4021
  815SOL     MW 3260   3.772   0.095   0.797 -0.3467 -0.2871  0.5191
  816SOL     OW 3261   5.438   1.991   4.015 -0.2645  0.6788  0.2881
  816SOL    HW1 3262   5.375   1.930   4.053 -1.0278  0.9447 -0.5205
  816SOL    HW2 3263   5.423   2.073   4.063 -2.2786  1.4510 -1.5214
  816SOL     MW 3264   5.428   1.994   4.027 -0.6383  0.8185 -0.0643
  817SOL     OW 3265   2.004   1.611   1.589 -0.4840  0.7777 -0.4182
  817SOL    HW1 3266   2.045   1.527   1.567  1.1823  1.4631 -0.1383
  817SOL    HW2 3267   2.031   1.670   1.518 -0.9037  1.2919 -0.1612
  817SOL     MW 3268   2.013   1.608   1.576 -0.3162  0.9391 -0.3460
  818SOL     OW 3269   0.117   4.702   3.921  0.3577  0.3237  0.0340
  818SOL    HW1 3270   0.104   4.785   3.876  1.0989 -0.1156 -1.0585
  818SOL    HW2 3271   0.127   4.725   4.013  4.3174  1.9261 -0.5733
  818SOL     MW 3272   0.117   4.716   3.927  0.9904  0.4802 -0.1948
  819SOL     OW 3273   3.571   5.228   2.511  0.0721  0.0554 -0.2426
  819SOL    HW1 3274   3.552   5.151   2.458 -0.4591 -0.9199  1.2733
  819SOL    HW2 3275   3.505   5.225   2.581  1.6170  0.4262  1.3062
  819SOL     MW 3276   3.559   5.217   2.514  0.2085 -0.0259  0.1699
  820SOL     OW 3277   4.488   0.131   5.417 -0.3695  0.6266  0.6388
  820SOL    HW1 3278   4.408   0.153   5.370  0.4559 -1.2881 -1.9645
  820SOL    HW2 3279   4.528   0.215   5.438 -2.1508  1.5939  0.3195
  820SOL     MW 3280   4.483   0.145   5.414 -0.4982  0.4991  0.2455
  821SOL     OW 3281   5.134   2.948   0.345  0.1940 -0.0239  0.0116
  821SOL    HW1 3282   5.132   2.858   0.310 -1.8169  0.4214 -1.2339
  821SOL    HW2 3283   5.125   3.003   0.267 -0.4515  1.1681  0.9061
  821SOL     MW 3284   5.132   2.943   0.330 -0.1635  0.1964 -0.0356
  822SOL     OW 3285   3.975   3.575   3.719  0.3713 -0.1591  0.6766
  822SOL    HW1 3286   4.025   3.505   3.761  0.6536 -0.1765  0.3234
  822SOL    HW2 3287   3.943   3.629   3.791 -1.5370 -1.7507  1.0987
  822SOL     MW 3288   3.977   3.573   3.734  0.1524 -0.3756  0.6859
  823SOL     OW 3289   4.044   3.934   3.001 -0.3511 -0.3332  0.4209
  823SOL    HW1 3290   4.014   3.845   3.017 -1.3624  0.1976  1.6190
  823SOL    HW2 3291   4.008   3.985   3.073  1.5011  0.7805  0.6145
  823SOL     MW 3292   4.035   3.929   3.013 -0.2379 -0.1119  0.6082
  824SOL     OW 3293   2.770   0.590   0.702  0.7237  0.3230  0.0094
  824SOL    HW1 3294   2.827   0.523   0.663 -0.7478  0.6678 -3.0594
  824SOL    HW2 3295   2.831   0.656   0.736  2.1626 -1.5567  1.3233
  824SOL     MW 3296   2.786   0.590   0.701  0.7193  0.1165 -0.2268
  825SOL     OW 3297   3.752   4.428   2.172  0.3895  0.2458  0.0246
  825SOL    HW1 3298   3.697   4.438   2.249  0.6298 -0.4913  0.3019
  825SOL    HW2 3299   3.838   4.460   2.198  0.3624  0.4068 -0.0789
  825SOL     MW 3300   3.756   4.434   2.186  0.4182  0.1683  0.0480
  826SOL     OW 3301   0.581   4.630   4.574 -0.0769 -0.0603 -0.5025
  826SOL    HW1 3302   0.638   4.565   4.614  0.7614  0.9779  0.0307
  826SOL    HW2 3303   0.493   4.594   4.583  0.1597 -0.2095  1.5917
  826SOL     MW 3304   0.577   4.617   4.580  0.0678  0.0594 -0.1489
  827SOL     OW 3305   0.087   3.000   0.673 -0.1293 -0.1263  0.0533
  827SOL    HW1 3306   0.171   2.976   0.634 -0.1943 -1.4449  0.6844
  827SOL    HW2 3307   0.056   2.920   0.715 -1.5585  0.4259  0.1084
  827SOL     MW 3308   0.094   2.986   0.673 -0.3304 -0.2294  0.1456
  828SOL     OW 3309   5.419   5.034   3.356  0.2006 -0.4653 -0.1958
  828SOL    HW1 3310   5.498   5.066   3.401 -0.5502 -0.9539  1.5582
  828SOL    HW2 3311   5.384   5.111   3.312  0.8737  0.0850  0.1953
  828SOL     MW 3312   5.425   5.049   3.356  0.1901 -0.4570  0.0929
  829SOL     OW 3313   0.281   3.093   4.091 -0.3589  0.4950 -0.3695
  829SOL    HW1 3314   0.258   3.015   4.041  0.2142  0.6915 -0.9531
  829SOL    HW2 3315   0.332   3.059   4.165  1.0178  0.4096 -1.3281
  829SOL     MW 3316   0.285   3.078   4.094 -0.0965  0.5099 -0.5771
  830SOL     OW 3317   3.363   4.280   3.407 -0.1439  0.8533 -0.0088
  830SOL    HW1 3318   3.302   4.270   3.335  0.3679  2.5557 -0.7276
  830SOL    HW2 3319   3.437   4.223   3.384  0.0920  1.5165 -0.9378
  830SOL     MW 3320   3.365   4.271   3.394 -0.0433  1.1717 -0.2306
  831SOL     OW 3321   3.901   2.787   3.567 -0.3050  0.5848 -0.0144
  831SOL    HW1 3322   3.861   2.844   3.502 -0.1629  0.7321  0.0256
  831SOL    HW2 3323   3.829   2.733   3.600 -0.4137  0.6462 -0.1514
  831SOL     MW 3324   3.886   2.787   3.563 -0.3005  0.6129 -0.0274
  832SOL     OW 3325   3.865   3.927   1.265  0.2192 -0.3354  0.2507
  832SOL    HW1 3326   3.912   3.971   1.193 -1.6556  0.9199 -0.2815
  832SOL    HW2 3327   3.923   3.939   1.341  0.8875  0.9833 -0.4148
  832SOL     MW 3328   3.879   3.935   1.266  0.0568  0.0110  0.0895
  833SOL     OW 3329   1.206   2.241   3.907 -0.0308  0.1178 -0.1167
  833SOL    HW1 3330   1.223   2.259   4.000  0.9348  1.5971 -0.5418
  833SOL    HW2 3331   1.158   2.158   3.907  2.8800 -1.7304  1.5137
  833SOL     MW 3332   1.202   2.233   3.919  0.4909  0.0681  0.0455
  834SOL     OW 3333   4.393   3.784   3.755  0.2613 -0.1237 -0.5841
  834SOL    HW1 3334   4.477   3.740   3.766  0.2760  0.2470  0.9836
  834SOL    HW2 3335   4.414   3.862   3.703  0.8348 -0.1892 -0.4624
  834SOL     MW 3336   4.407   3.789   3.750  0.3405 -0.0827 -0.3567
  835SOL     OW 3337   5.152   4.670   2.334 -0.2868  0.8866 -0.1156
  835SOL    HW1 3338   5.069   4.652   2.289  0.0373  0.8884 -0.7327
  835SOL    HW2 3339   5.212   4.694   2.263  0.9474 -1.5584 -0.0104
  835SOL     MW 3340   5.149   4.671   2.318 -0.0771  0.5578 -0.1845
  836SOL     OW 3341   2.999   3.189   0.218 -0.5137  0.0882 -0.2619
  836SOL    HW1 3342   3.017   3.275   0.179  0.6979  0.7278  1.6124
  836SOL    HW2 3343   2.968   3.136   0.144  2.1660  1.0726 -2.2699
  836SOL     MW 3344   2.997   3.194   0.203  0.0100  0.3068 -0.2799
  837SOL     OW 3345   2.454   2.569   3.669 -0.2517  0.4686 -0.5355
  837SOL    HW1 3346   2.444   2.607   3.757 -0.4669 -0.7370 -0.0269
  837SOL    HW2 3347   2.366   2.544   3.643  0.2301 -2.8606  0.6296
  837SOL     MW 3348   2.441   2.571   3.677 -0.2159 -0.1417 -0.3103
  838SOL     OW 3349   5.447   1.925   2.350  0.0503 -0.0163 -0.3982
  838SOL    HW1 3350   5.389   1.960   2.417 -0.3639 -0.5423 -0.4676
  838SOL    HW2 3351   5.535   1.928   2.389  0.1693  1.8967 -0.7390
  838SOL     MW 3352   5.451   1.930   2.364  0.0106  0.1703 -0.4534
  839SOL     OW 3353   2.698   5.166   4.065 -0.4262 -0.0366 -0.4424
  839SOL    HW1 3354   2.618   5.198   4.107 -0.6930 -1.3852  0.1233
  839SOL    HW2 3355   2.766   5.225   4.097 -1.1520  1.0418 -0.8137
  839SOL     MW 3356   2.696   5.178   4.075 -0.5598 -0.0730 -0.4162
  840SOL     OW 3357   4.427   2.559   4.260  0.9313  0.2700 -0.1438
  840SOL    HW1 3358   4.371   2.575   4.336  0.5029 -2.5616  0.2568
  840SOL    HW2 3359   4.375   2.590   4.185 -0.7396 -1.1888  0.3354
  840SOL     MW 3360   4.412   2.565   4.260  0.6488 -0.3074 -0.0254
  841SOL     OW 3361   1.813   1.948   2.933  0.4231 -0.1434 -0.3953
  841SOL    HW1 3362   1.877   1.902   2.988  1.0617  0.5338 -0.5539
  841SOL    HW2 3363   1.776   1.880   2.876  0.3935 -0.6896  0.2643
  841SOL     MW 3364   1.816   1.933   2.933  0.5050 -0.1257 -0.3279
  842SOL     OW 3365   4.245   0.957   1.066  0.0434 -0.4566  0.0339
  842SOL    HW1 3366   4.180   0.927   1.130  0.7659 -0.6803  0.6711
  842SOL    HW2 3367   4.276   1.041   1.101 -0.9121  0.3573 -0.9950
  842SOL     MW 3368   4.240   0.965   1.080  0.0120 -0.3771 -0.0188
  843SOL     OW 3369   2.824   2.291   3.134 -0.5566 -0.0255 -0.3115
  843SOL    HW1 3370   2.840   2.352   3.206 -1.0937 -0.0470 -0.1706
  843SOL    HW2 3371   2.891   2.224   3.144  0.3553  0.8002 -0.7615
  843SOL     MW 3372   2.835   2.291   3.145 -0.5061  0.0827 -0.3531
  844SOL     OW 3373   2.891   1.214   2.760  0.4191  0.2199  0.5185
  844SOL    HW1 3374   2.886   1.292   2.705  2.2819 -0.1622 -0.2723
  844SOL    HW2 3375   2.878   1.247   2.849  1.1675  1.4403  0.1985
  844SOL     MW 3376   2.888   1.229   2.765  0.7705  0.3327  0.3690
  845SOL     OW 3377   5.363   4.556   3.847  0.1078 -0.6504  0.4997
  845SOL    HW1 3378   5.458   4.544   3.843  0.4147  1.4747  0.1666
  845SOL    HW2 3379   5.335   4.553   3.755  0.2690  1.2232  0.3443
  845SOL     MW 3380   5.372   4.554   3.834  0.1708 -0.1122  0.4340
  846SOL     OW 3381   0.453   2.702   5.490 -0.2339  0.8058 -0.1075
  846SOL    HW1 3382   0.384   2.674   5.551 -0.9300  1.8338 -0.3927
  846SOL    HW2 3383   0.439   2.649   5.412  1.1994 -1.1392  0.8911
  846SOL     MW 3384   0.441   2.691   5.488 -0.1347  0.6824 -0.0115
  847SOL     OW 3385   2.433   2.725   2.891 -0.0117 -0.1086 -0.3010
  847SOL    HW1 3386   2.460   2.783   2.819  0.6299 -1.5426 -1.2600
  847SOL    HW2 3387   2.514   2.682   2.918 -0.4987 -0.6612  0.3050
  847SOL     MW 3388   2.448   2.727   2.885  0.0091 -0.3759 -0.3485
  848SOL     OW 3389   0.413   1.284   2.260 -0.4194 -0.2782  0.3486
  848SOL    HW1 3390   0.428   1.332   2.342  0.0383  0.6038 -0.2391
  848SOL    HW2 3391   0.497   1.288   2.214 -0.6022 -0.9814 -0.0615
  848SOL     MW 3392   0.426   1.291   2.265 -0.3824 -0.2541  0.2143
  849SOL     OW 3393   2.910   2.839   4.130  0.0603  0.1978  0.5351
  849SOL    HW1 3394   2.937   2.862   4.041 -0.1902  1.1176  0.6942
  849SOL    HW2 3395   2.883   2.747   4.123 -2.4283  0.9483 -0.9278
  849SOL     MW 3396   2.910   2.830   4.117 -0.3083  0.4226  0.3596
  850SOL     OW 3397   2.416   0.859   2.628  0.1092 -0.0916 -0.3574
  850SOL    HW1 3398   2.470   0.797   2.579  1.2721  0.7591 -0.1942
  850SOL    HW2 3399   2.327   0.825   2.620  0.5385 -1.0281 -1.4153
  850SOL     MW 3400   2.412   0.846   2.620  0.3235 -0.1031 -0.4778
  851SOL     OW 3401   0.868   4.361   2.618 -0.1269  0.2024 -0.0211
  851SOL    HW1 3402   0.842   4.361   2.526  0.3828 -0.7423 -0.1810
  851SOL    HW2 3403   0.869   4.268   2.642  2.8975  0.1363 -0.0141
  851SOL     MW 3404   0.865   4.348   2.609  0.3487  0.0664 -0.0417
  852SOL     OW 3405   0.365   3.030   0.065  0.1396 -0.1796 -0.6867
  852SOL    HW1 3406   0.412   3.011   0.146  1.5022 -1.1488 -1.6728
  852SOL    HW2 3407   0.326   2.946   0.040 -1.5722  0.4402 -0.2778
  852SOL     MW 3408   0.366   3.016   0.072  0.0926 -0.2266 -0.7644
  853SOL     OW 3409   1.299   2.680   2.526  0.1110  0.0852 -0.0018
  853SOL    HW1 3410   1.319   2.611   2.590  0.5017 -1.9598 -2.2130
  853SOL    HW2 3411   1.206   2.668   2.506  0.0008  0.6968  0.1167
  853SOL     MW 3412   1.289   2.669   2.532  0.1487 -0.1077 -0.2834
  854SOL     OW 3413   2.324   4.975   4.961 -0.8795  0.5938 -0.3485
  854SOL    HW1 3414   2.361   5.052   4.917 -0.0094  0.7095  0.5385
  854SOL    HW2 3415   2.240   5.006   4.997 -1.3356  0.6449 -1.4349
  854SOL     MW 3416   2.317   4.990   4.960 -0.8238  0.6162 -0.3754
  855SOL     OW 3417   4.963   0.590   4.985  0.2477 -0.2092 -0.3272
  855SOL    HW1 3418   4.966   0.496   5.003 -0.2538  0.1445  1.8706
  855SOL    HW2 3419   5.006   0.630   5.060  0.0645  1.3514 -1.0154
  855SOL     MW 3420   4.969   0.582   4.998  0.1555  0.0484 -0.1240
  856SOL     OW 3421   2.163   0.682   1.079  0.3604 -0.1628 -0.4401
  856SOL    HW1 3422   2.179   0.768   1.119  1.9207 -0.7291  0.2291
  856SOL    HW2 3423   2.125   0.630   1.150 -1.7219  0.2776 -1.1738
  856SOL     MW 3424   2.160   0.687   1.094  0.2901 -0.1797 -0.4488
  857SOL     OW 3425   2.574   4.960   0.482 -0.0140 -0.2637 -0.5889
  857SOL    HW1 3426   2.591   4.879   0.531  0.8425  1.3799  2.0390
  857SOL    HW2 3427   2.650   4.970   0.426  0.4827 -0.6648 -0.0018
  857SOL     MW 3428   2.586   4.950   0.481  0.1681 -0.0965 -0.1562
  858SOL     OW 3429   5.048   5.214   5.199 -0.3571 -0.0633  0.0957
  858SOL    HW1 3430   4.975   5.266   5.165 -0.2309 -0.4124 -0.7380
  858SOL    HW2 3431   5.108   5.279   5.236 -0.6924  0.3008  0.0117
  858SOL     MW 3432   5.047   5.230   5.199 -0.3853 -0.0613 -0.0278
  859SOL     OW 3433   0.075   3.792   0.762 -0.3150 -0.1584  0.2113
  859SOL    HW1 3434   0.052   3.803   0.670  0.8016  0.6853  0.0035
  859SOL    HW2 3435   0.068   3.698   0.778  1.0935 -0.5347 -1.1975
  859SOL     MW 3436   0.071   3.781   0.752  0.0248 -0.0955 -0.0063
  860SOL     OW 3437   4.354   3.289   0.031  0.1311  0.9175 -0.4678
  860SOL    HW1 3438   4.408   3.225  -0.015 -1.7943 -1.9902  1.0047
  860SOL    HW2 3439   4.404   3.311   0.110 -0.2737 -0.9434  0.3631
  860SOL     MW 3440   4.368   3.283   0.036 -0.1825  0.2757 -0.1578
  861SOL     OW 3441   3.014   2.248   2.259 -0.4915  0.3840  0.2794
  861SOL    HW1 3442   2.997   2.166   2.305  1.1531  1.0668  2.3010
  861SOL    HW2 3443   3.048   2.222   2.174 -1.1464 -1.0058  0.4218
  861SOL     MW 3444   3.017   2.234   2.254 -0.3583  0.2889  0.5706
  862SOL     OW 3445   2.061   0.718   1.690 -0.1698 -0.2569 -0.3352
  862SOL    HW1 3446   2.024   0.734   1.776  2.1424  1.2864  0.4910
  862SOL    HW2 3447   2.058   0.804   1.646 -0.2169 -0.7443 -1.3124
  862SOL     MW 3448   2.056   0.732   1.695  0.1351 -0.1148 -0.3555
  863SOL     OW 3449   2.240   3.673   5.195  0.2063 -0.1737 -0.0866
  863SOL    HW1 3450   2.246   3.705   5.105 -2.7024  0.0915 -0.2715
  863SOL    HW2 3451   2.186   3.738   5.240 -0.9131 -1.8357  1.0650
  863SOL     MW 3452   2.234   3.686   5.189 -0.3358 -0.3617  0.0435
  864SOL     OW 3453   4.001   5.418   0.623 -0.1099  0.3490  1.2483
  864SOL    HW1 3454   4.063   5.422   0.550 -0.0099 -0.7893  1.2609
  864SOL    HW2 3455   4.003   5.507   0.660 -1.1711  1.3587 -0.9305
  864SOL     MW 3456   4.010   5.431   0.618 -0.2393  0.3317  0.9568
  865SOL     OW 3457   5.123   1.609   3.901 -0.1626 -0.2111 -0.4591
  865SOL    HW1 3458   5.181   1.580   3.830 -2.1409  1.7741 -3.1019
  865SOL    HW2 3459   5.175   1.673   3.950  1.0902 -1.2870 -0.3160
  865SOL     MW 3460   5.138   1.614   3.898 -0.2602 -0.0888 -0.7955
  866SOL     OW 3461   3.719   4.781   3.910  0.3931  0.2766  0.4820
  866SOL    HW1 3462   3.763   4.751   3.990  1.4038 -0.3846 -0.3038
  866SOL    HW2 3463   3.695   4.701   3.864  0.0019  0.6563  0.0139
  866SOL     MW 3464   3.721   4.766   3.915  0.4765  0.2388  0.3132
  867SOL     OW 3465   4.733   4.422   1.976 -0.4611 -0.2271  0.2607
  867SOL    HW1 3466   4.784   4.491   1.933 -0.2055 -0.9837 -0.7003
  867SOL    HW2 3467   4.660   4.468   2.018  0.6411  0.8040  1.1218
  867SOL     MW 3468   4.730   4.437   1.976 -0.2784 -0.1902  0.2472
  868SOL     OW 3469   3.276   3.167   5.288  0.2354 -0.2963 -0.6950
  868SOL    HW1 3470   3.295   3.154   5.381  0.0552 -3.2341 -0.9976
  868SOL    HW2 3471   3.189   3.207   5.287  0.3509  0.0370  0.3704
  868SOL     MW 3472   3.267   3.171   5.301  0.2267 -0.6468 -0.5923
  869SOL     OW 3473   3.182   0.503   1.367 -0.4408  0.4544  0.6314
  869SOL    HW1 3474   3.122   0.530   1.298  1.9725 -1.1325 -2.3262
  869SOL    HW2 3475   3.225   0.585   1.395 -2.4941  1.3244  1.4640
  869SOL     MW 3476   3.180   0.518   1.361 -0.3924  0.3579  0.3454
  870SOL     OW 3477   2.748   1.202   3.247  0.2966  0.0722  0.8187
  870SOL    HW1 3478   2.711   1.119   3.276 -0.1635 -0.3584 -0.8693
  870SOL    HW2 3479   2.781   1.243   3.326 -0.6586 -1.1236  1.8735
  870SOL     MW 3480   2.748   1.196   3.261  0.1061 -0.1467  0.7334
  871SOL     OW 3481   0.490   3.260   1.967 -0.1389 -0.4427  0.7148
  871SOL    HW1 3482   0.471   3.283   1.876  0.7646  0.9654  0.8376
  871SOL    HW2 3483   0.409   3.220   2.000 -0.7421 -0.2376 -0.4732
  871SOL     MW 3484   0.477   3.258   1.959 -0.0985 -0.2256  0.5715
  872SOL     OW 3485   3.921   3.745   3.914 -0.3612  0.8057 -0.3365
  872SOL    HW1 3486   3.931   3.828   3.867  1.2867  0.6496 -0.3449
  872SOL    HW2 3487   4.002   3.737   3.964  0.8444 -2.0705 -2.4655
  872SOL     MW 3488   3.934   3.755   3.914  0.0228  0.3976 -0.6242
  873SOL     OW 3489   2.084   0.519   1.299 -0.1529  0.0595  0.2464
  873SOL    HW1 3490   2.041   0.538   1.382 -0.0162  1.5415  0.0018
  873SOL    HW2 3491   2.013   0.495   1.239 -0.3826  0.1593  0.4789
  873SOL     MW 3492   2.069   0.518   1.302 -0.1654  0.2724  0.2448
  874SOL     OW 3493   0.866   3.462   2.720 -0.5159  0.0039 -0.1800
  874SOL    HW1 3494   0.841   3.374   2.693 -0.6094 -0.1734  0.4787
  874SOL    HW2 3495   0.833   3.518   2.650 -2.2581 -0.2780  0.3446
  874SOL     MW 3496   0.858   3.458   2.707 -0.7630 -0.0579 -0.0208
  875SOL     OW 3497   3.165   4.487   3.094  0.0130  0.3152 -0.6552
  875SOL    HW1 3498   3.260   4.501   3.097 -0.0423  0.5308  1.2681
  875SOL    HW2 3499   3.152   4.400   3.131 -0.6671  1.3586  1.8189
  875SOL     MW 3500   3.176   4.477   3.100 -0.0860  0.4846 -0.0634
  876SOL     OW 3501   0.727   4.989   0.196 -0.2758 -0.4733  0.0988
  876SOL    HW1 3502   0.743   4.894   0.202 -0.9379 -0.6384 -0.6251
  876SOL    HW2 3503   0.774   5.016   0.117 -2.1322 -0.6744 -1.1398
  876SOL     MW 3504   0.736   4.979   0.186 -0.6148 -0.5226 -0.1653
  877SOL     OW 3505   4.171   4.857   0.929 -0.2846  0.3986  0.0407
  877SOL    HW1 3506   4.159   4.865   0.834  1.3855  0.4811 -0.2005
  877SOL    HW2 3507   4.224   4.778   0.939  1.3284  1.5105  0.7143
  877SOL     MW 3508   4.176   4.847   0.917  0.1572  0.5594  0.0989
  878SOL     OW 3509   4.801   3.831   0.435 -0.0483 -0.7600 -0.2698
  878SOL    HW1 3510   4.809   3.736   0.430  0.8746 -0.6396 -1.5272
  878SOL    HW2 3511   4.707   3.848   0.429 -0.5409 -1.6816  2.8155
  878SOL     MW 3512   4.790   3.820   0.434  0.0096 -0.8678 -0.0238
  879SOL     OW 3513   3.218   3.526   4.136  0.8404 -0.3790 -0.4362
  879SOL    HW1 3514   3.311   3.534   4.157  1.3363  1.1769 -2.7616
  879SOL    HW2 3515   3.179   3.609   4.164  0.2485 -0.8309  0.0966
  879SOL     MW 3516   3.225   3.539   4.142  0.8275 -0.2304 -0.6774
  880SOL     OW 3517   2.687   1.584   3.332 -0.5153 -0.1325  0.3233
  880SOL    HW1 3518   2.631   1.507   3.319 -1.2328  0.7101 -2.2486
  880SOL    HW2 3519   2.626   1.653   3.359 -0.6973  0.6218 -1.8388
  880SOL     MW 3520   2.671   1.583   3.334 -0.6364  0.0824 -0.3138
  881SOL     OW 3521   4.614   3.807   2.456 -0.1298 -0.5654  0.3102
  881SOL    HW1 3522   4.527   3.821   2.494 -0.2685 -1.2251  0.2402
  881SOL    HW2 3523   4.672   3.865   2.507 -0.5726 -0.2823  0.4943
  881SOL     MW 3524   4.610   3.817   2.468 -0.2081 -0.6161  0.3256
  882SOL     OW 3525   5.134   1.866   0.427 -0.6598 -0.1104  0.4620
  882SOL    HW1 3526   5.054   1.904   0.390 -0.5351  0.0995  0.4086
  882SOL    HW2 3527   5.179   1.939   0.468  0.7827  0.3162 -1.7312
  882SOL     MW 3528   5.129   1.881   0.427 -0.4489 -0.0247  0.1596
  883SOL     OW 3529   1.527   2.425   3.184 -0.0042 -0.2352 -0.4553
  883SOL    HW1 3530   1.545   2.510   3.222  0.8695 -0.6225  0.0171
  883SOL    HW2 3531   1.527   2.440   3.089  0.0115  0.3083 -0.3692
  883SOL     MW 3532   1.529   2.438   3.176  0.1155 -0.2142 -0.3802
  884SOL     OW 3533   2.135   0.392   4.117  0.2834 -0.7559 -0.1278
  884SOL    HW1 3534   2.170   0.477   4.089 -1.0701  0.2380  1.0854
  884SOL    HW2 3535   2.091   0.359   4.039 -0.0329  0.1238 -0.3376
  884SOL     MW 3536   2.134   0.399   4.102  0.0587 -0.5037  0.0073
  885SOL     OW 3537   2.769   2.762   1.606  0.1313 -0.1415 -0.2599
  885SOL    HW1 3538   2.736   2.852   1.599 -0.6892 -0.5647 -2.8929
  885SOL    HW2 3539   2.861   2.769   1.579  1.0461  0.3037  2.5945
  885SOL     MW 3540   2.777   2.775   1.602  0.1440 -0.1385 -0.2301
  886SOL     OW 3541   4.265   3.253   1.135 -0.0058 -0.3528  0.5851
  886SOL    HW1 3542   4.207   3.287   1.204 -0.3770 -2.6205  1.4776
  886SOL    HW2 3543   4.220   3.274   1.053 -0.4386  0.8196  1.1003
  886SOL     MW 3544   4.251   3.260   1.134 -0.1140 -0.5002  0.7745
  887SOL     OW 3545   2.255   3.161   0.644  0.3121  0.0827  0.0713
  887SOL    HW1 3546   2.179   3.163   0.586 -0.1691 -1.0470  0.6272
  887SOL    HW2 3547   2.329   3.139   0.588 -0.0092 -0.1973 -0.2421
  887SOL     MW 3548   2.255   3.159   0.629  0.2041 -0.1070  0.1039
  888SOL     OW 3549   3.595   2.768   3.358 -0.0444  0.3043  0.0933
  888SOL    HW1 3550   3.554   2.762   3.271  1.2931 -0.5259 -0.5135
  888SOL    HW2 3551   3.674   2.819   3.343 -0.3312  1.0510  1.0573
  888SOL     MW 3552   3.600   2.774   3.344  0.0970  0.2930  0.1414
  889SOL     OW 3553   5.116   5.344   2.265 -0.0726  0.1645 -0.0275
  889SOL    HW1 3554   5.093   5.415   2.326  1.4935  0.6549  0.0485
  889SOL    HW2 3555   5.040   5.335   2.208 -1.2627  0.2263  1.5115
  889SOL     MW 3556   5.103   5.353   2.265 -0.0220  0.2388  0.1899
  890SOL     OW 3557   0.666   0.326   5.195  0.2508  0.4793  0.3967
  890SOL    HW1 3558   0.632   0.334   5.106  2.3917 -1.4198 -0.6947
  890SOL    HW2 3559   0.718   0.405   5.207 -1.1452  1.4135  0.5383
  890SOL     MW 3560   0.668   0.338   5.184  0.3511  0.3495  0.2689
  891SOL     OW 3561   0.400   1.075   5.347  0.3777 -0.1696 -0.1655
  891SOL    HW1 3562   0.438   1.002   5.298 -0.2165  0.6417 -1.9233
  891SOL    HW2 3563   0.475   1.124   5.379  0.8985  0.7229 -2.5402
  891SOL     MW 3564   0.415   1.071   5.344  0.3678  0.0597 -0.7217
  892SOL     OW 3565   3.515   0.894   1.370 -0.4329 -0.0576  0.3774
  892SOL    HW1 3566   3.502   0.966   1.431  0.7284 -0.2974  0.9445
  892SOL    HW2 3567   3.502   0.815   1.423  2.7636 -0.3285  0.9860
  892SOL     MW 3568   3.511   0.893   1.385  0.1536 -0.1264  0.5356
  893SOL     OW 3569   3.397   1.858   1.598 -0.8082  0.2396 -0.1552
  893SOL    HW1 3570   3.348   1.932   1.631  0.3118  1.2027 -0.5883
  893SOL    HW2 3571   3.486   1.891   1.584 -0.3794 -1.0606 -0.7463
  893SOL     MW 3572   3.402   1.872   1.600 -0.5998  0.1942 -0.2930
  894SOL     OW 3573   2.843   3.031   0.031 -0.3119  0.3433 -0.4094
  894SOL    HW1 3574   2.784   3.106   0.033  0.6036  1.1061 -0.8972
  894SOL    HW2 3575   2.836   2.998  -0.058 -1.0121 -0.4105 -0.0820
  894SOL     MW 3576   2.834   3.037   0.020 -0.2830  0.3445 -0.4310
  895SOL     OW 3577   1.011   0.329   0.071 -0.0920 -0.0593  0.7150
  895SOL    HW1 3578   0.962   0.281   0.138 -0.5648 -0.1240  0.3257
  895SOL    HW2 3579   1.021   0.267  -0.001 -3.3953  1.2500 -1.1186
  895SOL     MW 3580   1.005   0.315   0.071 -0.6002  0.1082  0.4158
  896SOL     OW 3581   5.106   2.566   3.933  0.1545  0.6217  0.2344
  896SOL    HW1 3582   5.089   2.640   3.991  0.6304  0.5024  0.5324
  896SOL    HW2 3583   5.202   2.558   3.933  0.0816 -0.3134  0.6098
  896SOL     MW 3584   5.117   2.575   3.941  0.2088  0.4798  0.3251
  897SOL     OW 3585   3.716   0.576   0.262 -0.1360  0.5488  0.1370
  897SOL    HW1 3586   3.724   0.589   0.168  0.2308  0.7213  0.1873
  897SOL    HW2 3587   3.806   0.584   0.295 -0.0168 -1.0858  0.3094
  897SOL     MW 3588   3.729   0.579   0.254 -0.0706  0.3520  0.1670
  898SOL     OW 3589   4.834   0.625   0.329 -0.0347 -0.6875  0.3065
  898SOL    HW1 3590   4.852   0.664   0.415 -0.7256  1.2870 -0.3903
  898SOL    HW2 3591   4.887   0.675   0.268  2.3606 -3.6244 -0.2713
  898SOL     MW 3592   4.843   0.637   0.333  0.1947 -0.8170  0.1350
  899SOL     OW 3593   2.951   3.102   2.792 -0.4505 -0.1381 -0.5734
  899SOL    HW1 3594   2.999   3.167   2.742 -0.2892  0.5421  0.4275
  899SOL    HW2 3595   2.897   3.056   2.728  0.6106 -0.0793 -1.5297
  899SOL     MW 3596   2.950   3.104   2.777 -0.2860 -0.0387 -0.5674
  900SOL     OW 3597   2.752   1.600   1.281 -0.3111 -0.0263 -0.0822
  900SOL    HW1 3598   2.818   1.615   1.349 -0.0843  1.1059 -0.5220
  900SOL    HW2 3599   2.697   1.530   1.316 -0.1883  0.5155  1.2807
  900SOL     MW 3600   2.754   1.593   1.295 -0.2640  0.1990  0.0421
  901SOL     OW 3601   2.699   4.604   4.218  0.1608  0.1328 -0.5392
  901SOL    HW1 3602   2.679   4.559   4.300  1.7506  0.7362  0.2318
  901SOL    HW2 3603   2.747   4.683   4.246  0.1766  0.6722 -2.0253
  901SOL     MW 3604   2.703   4.609   4.233  0.3769  0.2866 -0.6354
  902SOL     OW 3605   0.686   4.533   0.667  0.2318  0.4891 -0.0280
  902SOL    HW1 3606   0.701   4.607   0.608  2.3574  0.6102  0.5752
  902SOL    HW2 3607   0.720   4.563   0.752  1.5603 -1.2952  0.1208
  902SOL     MW 3608   0.693   4.547   0.671  0.6967  0.2653  0.0732
  903SOL     OW 3609   4.685   2.784   1.441  0.1484 -0.1001 -0.0038
  903SOL    HW1 3610   4.754   2.848   1.458  1.3309 -0.3717 -3.1213
  903SOL    HW2 3611   4.714   2.705   1.486  1.1579  0.2047 -0.0984
  903SOL     MW 3612   4.698   2.782   1.450  0.4434 -0.0956 -0.4361
  904SOL     OW 3613   1.758   1.815   2.690  0.1049  0.0132  0.3000
  904SOL    HW1 3614   1.711   1.861   2.620  0.7147 -0.7236 -0.6153
  904SOL    HW2 3615   1.709   1.733   2.702  0.7538 -0.4483 -0.1784
  904SOL     MW 3616   1.745   1.810   2.682  0.2743 -0.1481  0.1124
  905SOL     OW 3617   1.855   1.031   3.581 -0.0497  0.1297  0.4369
  905SOL    HW1 3618   1.839   1.022   3.675  0.9360  0.6481  0.6593
  905SOL    HW2 3619   1.829   1.121   3.561 -0.9180 -0.1945  0.0666
  905SOL     MW 3620   1.849   1.042   3.591 -0.0339  0.1558  0.4170
  906SOL     OW 3621   0.850   4.736   4.923  0.7117  0.1579 -0.2586
  906SOL    HW1 3622   0.820   4.821   4.955  0.7250 -0.1477  0.5669
  906SOL    HW2 3623   0.906   4.703   4.992  0.3577 -0.7213 -0.3874
  906SOL     MW 3624   0.854   4.743   4.936  0.6658 -0.0016 -0.1649
  907SOL     OW 3625   3.499   2.448   2.494  0.0728  0.4510  0.1373
  907SOL    HW1 3626   3.588   2.478   2.479  0.1244  0.7977  1.0487
  907SOL    HW2 3627   3.495   2.431   2.588 -1.4664  2.7229  0.5567
  907SOL     MW 3628   3.510   2.450   2.505 -0.1274  0.8034  0.3164
  908SOL     OW 3629   3.775   3.955   4.727  0.1995 -0.5779 -0.0814
  908SOL    HW1 3630   3.793   3.952   4.633  2.5700  1.7806  0.1924
  908SOL    HW2 3631   3.800   3.867   4.758 -1.6113 -1.7555 -1.7134
  908SOL     MW 3632   3.781   3.943   4.719  0.2748 -0.4190 -0.2642
  909SOL     OW 3633   4.890   3.279   0.082 -0.0322 -0.0137  0.0858
  909SOL    HW1 3634   4.827   3.287   0.153  0.6063 -0.5799  0.7293
  909SOL    HW2 3635   4.847   3.223   0.018 -1.5167  2.2602 -1.0450
  909SOL     MW 3636   4.875   3.272   0.083 -0.1461  0.2161  0.0202
  910SOL     OW 3637   2.723   3.025   4.198 -0.3461 -0.2662  0.4314
  910SOL    HW1 3638   2.795   2.963   4.196 -0.3233 -0.2123 -1.1862
  910SOL    HW2 3639   2.763   3.110   4.178 -0.7302 -0.0876  0.4091
  910SOL     MW 3640   2.738   3.028   4.195 -0.3947 -0.2349  0.2107
  911SOL     OW 3641   1.963   2.958   3.556  0.4676 -0.6169 -0.1608
  911SOL    HW1 3642   1.998   2.978   3.643 -0.1272  0.4875 -0.1510
  911SOL    HW2 3643   1.880   3.006   3.552 -0.0148 -1.4759 -0.9660
  911SOL     MW 3644   1.956   2.967   3.567  0.3226 -0.5839 -0.2678
  912SOL     OW 3645   5.375   0.113   3.546  0.5380 -0.3197  0.4928
  912SOL    HW1 3646   5.452   0.122   3.602  0.1523 -0.1997  1.0092
  912SOL    HW2 3647   5.410   0.083   3.462  1.1411 -0.3151  0.7377
  912SOL     MW 3648   5.391   0.110   3.542  0.5672 -0.3029  0.5952
  913SOL     OW 3649   2.098   1.789   1.400  0.1448 -0.6774  0.1417
  913SOL    HW1 3650   2.086   1.884   1.393  0.9147 -0.6465 -0.9671
  913SOL    HW2 3651   2.192   1.778   1.415  0.2893 -1.3019 -1.0702
  913SOL     MW 3652   2.109   1.801   1.401  0.2679 -0.7573 -0.1706
  914SOL     OW 3653   1.730   0.622   4.316 -0.2558 -0.4145  0.2862
  914SOL    HW1 3654   1.734   0.639   4.410 -1.6498  1.0377  0.1299
  914SOL    HW2 3655   1.822   0.614   4.290  0.1294 -1.8826  1.9119
  914SOL     MW 3656   1.743   0.623   4.325 -0.3916 -0.4166  0.4840
  915SOL     OW 3657   0.468   3.643   0.050 -0.0235 -0.4398 -0.5476
  915SOL    HW1 3658   0.400   3.710   0.039 -1.4009 -1.5427  0.9170
  915SOL    HW2 3659   0.497   3.623  -0.040  0.4830  2.1029 -1.0338
  915SOL     MW 3660   0.463   3.650   0.036 -0.1407 -0.2461 -0.4160
  916SOL     OW 3661   4.668   1.729   1.910 -0.2393  0.2212  0.3537
  916SOL    HW1 3662   4.590   1.731   1.856  0.7755 -0.7581 -1.2239
  916SOL    HW2 3663   4.720   1.805   1.882  0.1884 -0.1584  0.1026
  916SOL     MW 3664   4.665   1.739   1.899 -0.0451  0.0383  0.1076
  917SOL     OW 3665   1.144   3.889   4.319 -0.1365  0.2025 -0.3017
  917SOL    HW1 3666   1.183   3.917   4.402  0.8080  1.4411 -1.1214
  917SOL    HW2 3667   1.050   3.902   4.331 -0.0159  0.3269  0.5889
  917SOL     MW 3668   1.137   3.895   4.332  0.0068  0.3859 -0.2921
  918SOL     OW 3669   1.500   2.907   1.965  0.3426 -0.4013 -0.3546
  918SOL    HW1 3670   1.538   2.878   2.047  0.2200 -1.7674 -0.7558
  918SOL    HW2 3671   1.521   3.000   1.960  4.0313 -1.1010 -0.7497
  918SOL     MW 3672   1.508   2.916   1.975  0.8225 -0.6793 -0.4618
  919SOL     OW 3673   2.093   3.565   1.593 -0.3064 -0.1420  0.1450
  919SOL    HW1 3674   2.104   3.596   1.683  2.1836  1.3664 -0.5727
  919SOL    HW2 3675   2.051   3.637   1.547  1.9928  0.7436 -0.6894
  919SOL     MW 3676   2.089   3.579   1.599  0.3381  0.1802 -0.0639
  920SOL     OW 3677   1.925   3.250   5.031  0.3016  0.0097  0.4675
  920SOL    HW1 3678   1.930   3.154   5.028  1.5346  0.0147  1.3606
  920SOL    HW2 3679   1.901   3.270   5.121  0.6832  0.5474  0.4564
  920SOL     MW 3680   1.922   3.240   5.043  0.5189  0.0827  0.5862
  921SOL     OW 3681   5.473   1.855   0.209 -0.3184  0.1633  0.3847
  921SOL    HW1 3682   5.495   1.860   0.302 -0.4642  0.2198  0.4170
  921SOL    HW2 3683   5.556   1.836   0.165 -0.4413 -0.9401  0.6193
  921SOL     MW 3684   5.487   1.853   0.215 -0.3546  0.0224  0.4206
  922SOL     OW 3685   3.353   0.679   1.486 -0.4162 -0.4541 -0.4265
  922SOL    HW1 3686   3.305   0.702   1.565 -0.1047  0.7936 -0.5779
  922SOL    HW2 3687   3.416   0.613   1.514 -0.4445 -0.1688  0.3242
  922SOL     MW 3688   3.355   0.673   1.500 -0.3781 -0.2478 -0.3458
  923SOL     OW 3689   3.440   4.534   3.103 -0.8175  0.3772  0.0983
  923SOL    HW1 3690   3.479   4.616   3.074  1.7676 -0.4718  0.8922
  923SOL    HW2 3691   3.453   4.534   3.198  2.1941 -2.2072 -0.1310
  923SOL     MW 3692   3.447   4.545   3.112 -0.0643 -0.0849  0.1743
  924SOL     OW 3693   0.071   3.675   1.270  0.2665  0.6127 -0.2189
  924SOL    HW1 3694   0.043   3.713   1.187 -0.8085  0.0167 -0.1528
  924SOL    HW2 3695   0.066   3.580   1.255 -1.4087  0.4662  0.9590
  924SOL     MW 3696   0.066   3.667   1.257 -0.1036  0.5128 -0.0515
  925SOL     OW 3697   3.891   2.431   1.492 -0.2817  0.0074  0.1084
  925SOL    HW1 3698   3.799   2.455   1.508 -0.2133  0.0085  0.5151
  925SOL    HW2 3699   3.910   2.466   1.405 -1.0127 -1.0288 -0.4747
  925SOL     MW 3700   3.881   2.439   1.483 -0.3709 -0.1319  0.0846
  926SOL     OW 3701   0.713   5.053   2.007  0.0314 -0.2212 -0.1888
  926SOL    HW1 3702   0.768   5.061   2.086  0.3348 -0.6766 -0.3483
  926SOL    HW2 3703   0.653   5.127   2.013  1.5612  1.1268 -0.7188
  926SOL     MW 3704   0.713   5.064   2.019  0.2781 -0.1010 -0.2816
  927SOL     OW 3705   3.738   3.506   4.969  0.8254 -0.2570  0.3900
  927SOL    HW1 3706   3.716   3.426   4.921 -0.2834  0.3819 -0.2105
  927SOL    HW2 3707   3.667   3.567   4.948  1.3896  0.7244  1.2306
  927SOL     MW 3708   3.725   3.503   4.960  0.7521 -0.0390  0.4223
  928SOL     OW 3709   3.115   3.057   3.845 -0.2355 -0.4158 -0.0975
  928SOL    HW1 3710   3.124   3.142   3.887  1.8348 -0.1276 -1.0007
  928SOL    HW2 3711   3.138   3.073   3.753  1.7684 -2.1703  0.0129
  928SOL     MW 3712   3.119   3.070   3.838  0.3128 -0.6131 -0.2042
  929SOL     OW 3713   4.767   5.312   0.015 -0.0689  0.4645 -0.4403
  929SOL    HW1 3714   4.695   5.258   0.046  0.1822  0.8355  0.8673
  929SOL    HW2 3715   4.826   5.251  -0.029 -0.6999  0.0006 -0.6523
  929SOL     MW 3716   4.765   5.297   0.013 -0.1200  0.4520 -0.2929
  930SOL     OW 3717   2.678   3.295   1.282  0.0128  0.0233  0.3414
  930SOL    HW1 3718   2.736   3.241   1.229  1.8778  1.6093  0.6276
  930SOL    HW2 3719   2.728   3.313   1.362 -1.3483  0.5253  1.1172
  930SOL     MW 3720   2.692   3.290   1.285  0.0806  0.3043  0.4843
  931SOL     OW 3721   3.246   0.042   4.717 -0.9339 -0.3346  0.2572
  931SOL    HW1 3722   3.295   0.054   4.635 -2.0559 -2.5278 -0.8182
  931SOL    HW2 3723   3.186   0.116   4.721 -0.6578 -0.0478 -0.7612
  931SOL     MW 3724   3.245   0.053   4.707 -1.0477 -0.5911 -0.0246
  932SOL     OW 3725   0.630   3.736   1.952 -1.0763 -0.4511 -0.3911
  932SOL    HW1 3726   0.597   3.663   2.003 -1.0132  0.9636  1.8168
  932SOL    HW2 3727   0.722   3.745   1.978 -0.6257 -0.5220 -1.8357
  932SOL     MW 3728   0.638   3.728   1.962 -1.0072 -0.2703 -0.2884
  933SOL     OW 3729   5.063   0.725   3.289 -0.2841 -0.6637 -0.1655
  933SOL    HW1 3730   4.996   0.658   3.274 -0.5777 -0.0547 -1.7970
  933SOL    HW2 3731   5.026   0.805   3.251  0.8163 -0.0089  0.1110
  933SOL     MW 3732   5.049   0.726   3.282 -0.1755 -0.4936 -0.3478
  934SOL     OW 3733   5.019   4.611   0.134 -0.2925 -0.2965 -0.4282
  934SOL    HW1 3734   4.949   4.595   0.197 -0.6337  1.8999 -0.1823
  934SOL    HW2 3735   5.100   4.603   0.185 -0.4511 -0.7922 -0.2494
  934SOL     MW 3736   5.020   4.608   0.149 -0.3597 -0.0676 -0.3711
  935SOL     OW 3737   3.789   4.701   4.980  0.3725 -0.4981  0.0723
  935SOL    HW1 3738   3.761   4.764   4.913 -0.0617 -0.9085 -0.1392
  935SOL    HW2 3739   3.757   4.737   5.062 -0.8609 -0.9932 -0.1746
  935SOL     MW 3740   3.781   4.714   4.982  0.1481 -0.6200  0.0106
  936SOL     OW 3741   4.470   2.325   0.099  0.5583 -0.0524  0.2786
  936SOL    HW1 3742   4.449   2.233   0.109  1.7193 -0.5032 -1.1036
  936SOL    HW2 3743   4.544   2.327   0.038 -0.7285  1.8995 -1.3642
  936SOL     MW 3744   4.478   2.313   0.092  0.5414  0.1496 -0.1285
  937SOL     OW 3745   4.144   0.095   2.925  0.3954 -0.2423  0.4938
  937SOL    HW1 3746   4.049   0.083   2.925  0.2416  0.8547  0.7407
  937SOL    HW2 3747   4.160   0.165   2.861  1.2721 -1.8716 -1.1635
  937SOL     MW 3748   4.134   0.103   2.917  0.4927 -0.3139  0.3040
  938SOL     OW 3749   3.613   1.113   3.488  0.3904  0.1027  0.0093
  938SOL    HW1 3750   3.610   1.029   3.535  0.3510 -0.0088 -0.1931
  938SOL    HW2 3751   3.572   1.175   3.549  2.7469  0.5289  1.2785
  938SOL     MW 3752   3.607   1.110   3.503  0.7022  0.1450  0.1529
  939SOL     OW 3753   3.069   4.001   4.475 -0.3686 -0.0269 -0.1939
  939SOL    HW1 3754   3.157   3.976   4.504  0.1387  1.5608 -0.3022
  939SOL    HW2 3755   3.011   3.965   4.543  0.5929  1.3635  1.4435
  939SOL     MW 3756   3.073   3.993   4.488 -0.1709  0.3739  0.0119
  940SOL     OW 3757   4.953   2.759   3.654  0.4640 -0.1498  0.0232
  940SOL    HW1 3758   5.002   2.705   3.592  0.9375  1.3359 -0.9826
  940SOL    HW2 3759   5.020   2.797   3.710  0.6058  2.0723 -1.5017
  940SOL     MW 3760   4.969   2.757   3.653  0.5468  0.3492 -0.3174
  941SOL     OW 3761   0.660   0.552   1.618  0.8537  0.0298  0.0229
  941SOL    HW1 3762   0.624   0.573   1.704 -0.7401  2.0287 -1.0592
  941SOL    HW2 3763   0.723   0.621   1.599 -0.7238  1.1430 -1.4599
  941SOL     MW 3764   0.663   0.564   1.627  0.4269  0.4487 -0.3223
  942SOL     OW 3765   4.517   2.866   3.636 -0.3702  0.8469  0.2777
  942SOL    HW1 3766   4.458   2.790   3.633 -0.2705  0.7969 -1.7001
  942SOL    HW2 3767   4.507   2.900   3.725 -0.8261 -1.1535  1.0550
  942SOL     MW 3768   4.507   2.860   3.648 -0.4182  0.5709  0.1161
  943SOL     OW 3769   1.145   5.013   5.257  0.2660  0.0438 -0.0956
  943SOL    HW1 3770   1.099   4.968   5.328 -1.9314  0.3925 -1.2116
  943SOL    HW2 3771   1.145   5.105   5.283  1.2729 -0.0608  0.3478
  943SOL     MW 3772   1.139   5.019   5.270  0.1058  0.0766 -0.1861
  944SOL     OW 3773   0.949   2.636   0.077  0.2143  0.8211 -0.5843
  944SOL    HW1 3774   0.944   2.729   0.097 -0.9760  0.5640  0.4072
  944SOL    HW2 3775   1.018   2.630   0.010  2.1093  2.0858  1.1437
  944SOL     MW 3776   0.957   2.648   0.070  0.3092  0.9567 -0.2183
  945SOL     OW 3777   0.488   1.978   1.972  0.5054  0.3600  0.2454
  945SOL    HW1 3778   0.448   2.050   1.924 -0.4911  1.5279  2.6513
  945SOL    HW2 3779   0.414   1.924   2.001  1.1438 -0.8384 -0.2875
  945SOL     MW 3780   0.473   1.981   1.969  0.4572  0.3559  0.4975
  946SOL     OW 3781   0.538   2.921   0.675 -0.5282  0.4474 -0.2024
  946SOL    HW1 3782   0.520   3.014   0.692 -1.6786 -0.1172  2.0347
  946SOL    HW2 3783   0.457   2.888   0.634 -0.8139  0.0606  0.6583
  946SOL     MW 3784   0.524   2.929   0.671 -0.7215  0.3194  0.2145
  947SOL     OW 3785   2.239   2.296   1.909  0.0144 -0.1550  0.5211
  947SOL    HW1 3786   2.186   2.350   1.851 -0.8528 -0.8418  0.6523
  947SOL    HW2 3787   2.295   2.358   1.956  0.4923  0.4335 -0.7886
  947SOL     MW 3788   2.240   2.312   1.908 -0.0380 -0.1682  0.3625
  948SOL     OW 3789   4.624   0.287   0.712 -0.0896  0.0004 -0.4790
  948SOL    HW1 3790   4.681   0.363   0.711  0.8273 -0.6535 -2.0859
  948SOL    HW2 3791   4.624   0.259   0.803  1.8361  0.2955 -0.3306
  948SOL     MW 3792   4.632   0.293   0.724  0.2930 -0.0479 -0.6753
  949SOL     OW 3793   4.162   1.977   4.901  0.6852  0.3800  0.0328
  949SOL    HW1 3794   4.169   1.882   4.915  0.2440  0.4603  0.8270
  949SOL    HW2 3795   4.253   2.006   4.894  0.8152 -0.1646 -0.6942
  949SOL     MW 3796   4.175   1.968   4.902  0.6433  0.3175  0.0418
  950SOL     OW 3797   1.129   3.714   1.551 -0.7389  0.2880  0.4175
  950SOL    HW1 3798   1.164   3.748   1.468 -0.4877 -1.3638 -0.2007
  950SOL    HW2 3799   1.158   3.777   1.617  1.5052  0.2007 -0.3872
  950SOL     MW 3800   1.138   3.727   1.548 -0.4031  0.0539  0.2260
  951SOL     OW 3801   1.794   4.434   4.971  0.3680 -0.2337 -0.6423
  951SOL    HW1 3802   1.741   4.396   4.901 -2.1634  0.6116  0.6796
  951SOL    HW2 3803   1.757   4.399   5.051  1.0739  1.2889  0.4148
  951SOL     MW 3804   1.782   4.424   4.972  0.1224  0.0850 -0.3221
  952SOL     OW 3805   4.660   3.077   4.385 -0.6219  0.3210 -0.0614
  952SOL    HW1 3806   4.642   3.022   4.461  0.1564 -1.1597 -0.9016
  952SOL    HW2 3807   4.574   3.114   4.361 -1.1243 -0.3614  0.6511
  952SOL     MW 3808   4.646   3.075   4.392 -0.5848  0.0299 -0.0786
  953SOL     OW 3809   3.397   3.153   2.304 -0.0724 -0.1791  0.4271
  953SOL    HW1 3810   3.313   3.110   2.318 -0.0227  0.0671  1.5724
  953SOL    HW2 3811   3.430   3.172   2.392  1.0356  0.0163 -0.0058
  953SOL     MW 3812   3.390   3.150   2.317  0.0834 -0.1196  0.5230
  954SOL     OW 3813   0.447   4.702   1.882  0.2156 -0.2761  0.2561
  954SOL    HW1 3814   0.481   4.614   1.871 -3.6829 -1.9071 -0.3241
  954SOL    HW2 3815   0.480   4.751   1.807  1.3717 -1.6044 -0.1325
  954SOL     MW 3816   0.456   4.697   1.871 -0.1535 -0.6744  0.1257
  955SOL     OW 3817   0.282   0.883   4.311  0.2587 -0.7109 -0.5778
  955SOL    HW1 3818   0.304   0.910   4.222  0.4743 -0.9802 -0.6062
  955SOL    HW2 3819   0.208   0.824   4.300 -0.3871  0.0578 -0.4947
  955SOL     MW 3820   0.275   0.879   4.298  0.2008 -0.6437 -0.5704
  956SOL     OW 3821   1.421   3.229   5.461  0.2887  0.0655  0.5653
  956SOL    HW1 3822   1.351   3.284   5.495  1.3440  1.9174 -0.1159
  956SOL    HW2 3823   1.413   3.235   5.366  0.5253 -0.8676  0.4708
  956SOL     MW 3824   1.411   3.237   5.453  0.4626  0.1892  0.4609
  957SOL     OW 3825   0.104   1.484   3.293 -0.0438  0.0621 -0.0610
  957SOL    HW1 3826   0.064   1.570   3.278 -2.9468 -1.3399 -1.1011
  957SOL    HW2 3827   0.186   1.503   3.338  0.5897  3.5069 -2.3161
  957SOL     MW 3828   0.110   1.498   3.297 -0.3492  0.3370 -0.5045
  958SOL     OW 3829   4.721   1.107   2.237 -0.5009  0.4238 -0.7406
  958SOL    HW1 3830   4.705   1.106   2.331 -0.1149  0.9180 -0.6687
  958SOL    HW2 3831   4.665   1.177   2.204 -1.4826 -0.4755 -1.0397
  958SOL     MW 3832   4.711   1.116   2.245 -0.5811  0.3693 -0.7712
  959SOL     OW 3833   3.528   1.337   3.315 -0.2223 -0.1810  0.6456
  959SOL    HW1 3834   3.575   1.308   3.393 -1.5001 -0.9770  1.1547
  959SOL    HW2 3835   3.590   1.322   3.243  0.3683 -1.0351  1.3068
  959SOL     MW 3836   3.543   1.331   3.316 -0.3148 -0.4031  0.8031
  960SOL     OW 3837   0.507   5.001   4.359  0.4146 -0.3881 -0.4362
  960SOL    HW1 3838   0.564   4.946   4.412  1.4992  0.1042 -1.0412
  960SOL    HW2 3839   0.475   4.943   4.290  2.4786 -0.0564 -1.7565
  960SOL     MW 3840   0.510   4.986   4.357  0.8384 -0.2772 -0.6953
  961SOL     OW 3841   4.647   3.924   2.798 -0.2814 -0.3698 -0.4431
  961SOL    HW1 3842   4.644   4.006   2.847  0.4275 -0.5293 -0.1214
  961SOL    HW2 3843   4.677   3.949   2.711 -2.3726  0.0357 -1.0892
  961SOL     MW 3844   4.651   3.938   2.793 -0.4675 -0.3367 -0.4868
  962SOL     OW 3845   2.667   4.886   0.863  0.4729 -0.1299  0.1466
  962SOL    HW1 3846   2.618   4.967   0.869 -0.9511 -0.7418 -1.8044
  962SOL    HW2 3847   2.644   4.837   0.942 -0.0349  0.6520  0.4888
  962SOL     MW 3848   2.657   4.890   0.874  0.2129 -0.1070 -0.0699
  963SOL     OW 3849   4.354   0.697   3.834 -0.1104  0.2339 -0.1101
  963SOL    HW1 3850   4.439   0.738   3.817  0.8737 -1.2003  1.0788
  963SOL    HW2 3851   4.303   0.716   3.755  1.6501  0.3013 -1.3167
  963SOL     MW 3852   4.359   0.705   3.821  0.2590  0.0500 -0.1125
  964SOL     OW 3853   3.281   1.983   4.640  0.6161 -0.1997 -0.4322
  964SOL    HW1 3854   3.372   1.954   4.634  0.3679 -1.0781 -0.1410
  964SOL    HW2 3855   3.271   2.046   4.569  1.2255 -0.7332 -1.0007
  964SOL     MW 3856   3.292   1.987   4.630  0.6647 -0.3897 -0.4696
  965SOL     OW 3857   4.863   2.369   2.668 -0.1485  0.1074 -0.1526
  965SOL    HW1 3858   4.904   2.441   2.716 -0.3854 -0.1066  0.3840
  965SOL    HW2 3859   4.783   2.406   2.631  0.0583  0.2868 -0.4156
  965SOL     MW 3860   4.858   2.384   2.670 -0.1526  0.1028 -0.1157
  966SOL     OW 3861   4.230   1.431   0.188  0.4028 -0.8960 -0.3767
  966SOL    HW1 3862   4.184   1.376   0.125  1.9884 -0.8269 -1.6826
  966SOL    HW2 3863   4.254   1.372   0.259 -1.5315 -0.9461  0.2752
  966SOL     MW 3864   4.227   1.416   0.189  0.3559 -0.8934 -0.4647
  967SOL     OW 3865   5.451   3.764   2.298  0.1963  0.0608  0.2267
  967SOL    HW1 3866   5.443   3.765   2.202 -0.4577 -2.1360  0.2015
  967SOL    HW2 3867   5.543   3.744   2.314  0.3666  0.6981  0.0788
  967SOL     MW 3868   5.463   3.761   2.287  0.1312 -0.1491  0.2034
  968SOL     OW 3869   2.574   2.742   0.602  0.2933  0.2610 -0.2241
  968SOL    HW1 3870   2.609   2.793   0.529 -1.5563  1.0439 -0.6235
  968SOL    HW2 3871   2.628   2.766   0.677  2.3138 -0.6494 -1.3010
  968SOL     MW 3872   2.586   2.752   0.602  0.3163  0.2438 -0.4227
  969SOL     OW 3873   5.419   3.436   2.384 -0.1322  0.5422  0.0906
  969SOL    HW1 3874   5.350   3.503   2.388 -1.1729 -0.2865 -2.1832
  969SOL    HW2 3875   5.460   3.450   2.299  0.4467 -0.9362  0.1047
  969SOL     MW 3876   5.415   3.447   2.373 -0.1944  0.2317 -0.2135
  970SOL     OW 3877   3.006   0.244   0.760  0.2675 -0.5311 -0.2361
  970SOL    HW1 3878   3.054   0.187   0.700  0.8414  0.0889 -0.3850
  970SOL    HW2 3879   3.073   0.275   0.822  0.3312  1.2138 -1.0925
  970SOL     MW 3880   3.022   0.241   0.760  0.3533 -0.2128 -0.3714
  971SOL     OW 3881   2.876   2.011   1.911  0.4526  0.4237  0.1170
  971SOL    HW1 3882   2.804   2.073   1.902 -1.1525 -1.3205  0.4237
  971SOL    HW2 3883   2.848   1.951   1.979  2.0540 -0.5296 -0.0109
  971SOL     MW 3884   2.863   2.011   1.919  0.4521  0.0607  0.1411
  972SOL     OW 3885   1.266   2.277   2.247  0.2182  0.6013  0.7417
  972SOL    HW1 3886   1.283   2.370   2.257  0.9667  0.5061  0.4075
  972SOL    HW2 3887   1.198   2.258   2.312  0.0562  1.3732  0.8068
  972SOL     MW 3888   1.259   2.287   2.257  0.2972  0.6924  0.7055
  973SOL     OW 3889   1.828   0.373   2.743 -0.0220  0.2583 -0.0491
  973SOL    HW1 3890   1.798   0.457   2.709 -0.6281  0.4290  0.8712
  973SOL    HW2 3891   1.835   0.386   2.838  0.1298 -0.6524  0.0779
  973SOL     MW 3892   1.825   0.386   2.751 -0.0831  0.1587  0.0919
  974SOL     OW 3893   1.456   5.099   0.470 -0.4038  0.4187  0.0253
  974SOL    HW1 3894   1.469   5.175   0.413  1.1397  1.1084  1.2216
  974SOL    HW2 3895   1.535   5.095   0.524 -0.6665 -1.7532  0.3624
  974SOL     MW 3896   1.468   5.109   0.470 -0.2314  0.2192  0.2317
  975SOL     OW 3897   1.938   1.775   0.264 -0.3929 -0.2916  0.2425
  975SOL    HW1 3898   1.902   1.857   0.231 -0.7342 -0.6060 -0.1868
  975SOL    HW2 3899   1.883   1.707   0.224  0.9573 -0.8078 -0.8110
  975SOL     MW 3900   1.926   1.777   0.254 -0.2571 -0.4034  0.0429
  976SOL     OW 3901   0.721   2.695   5.420  0.0138  0.5228  0.5425
  976SOL    HW1 3902   0.645   2.705   5.478 -1.0788 -1.5981 -0.3976
  976SOL    HW2 3903   0.791   2.665   5.478 -0.1597  1.4427  1.2497
  976SOL     MW 3904   0.720   2.692   5.436 -0.1566  0.3612  0.5111
  977SOL     OW 3905   4.168   1.594   2.727  0.0938  0.1512  0.3243
  977SOL    HW1 3906   4.159   1.675   2.777 -0.1927  0.2359  0.1361
  977SOL    HW2 3907   4.219   1.618   2.650  0.0702  0.1366  0.3041
  977SOL     MW 3908   4.174   1.608   2.723  0.0521  0.1606  0.2963
  978SOL     OW 3909   2.243   3.260   2.684 -0.0691  0.2044  0.0268
  978SOL    HW1 3910   2.179   3.241   2.615  0.4644  2.0668 -1.0439
  978SOL    HW2 3911   2.203   3.225   2.764 -0.9612 -1.5153 -1.1011
  978SOL     MW 3912   2.229   3.253   2.686 -0.1174  0.2236 -0.2691
  979SOL     OW 3913   3.974   1.699   4.896  0.1378 -0.3176  0.0364
  979SOL    HW1 3914   3.994   1.617   4.851 -0.4724  1.0317 -2.9530
  979SOL    HW2 3915   3.894   1.680   4.945 -0.0519 -1.5100 -0.6800
  979SOL     MW 3916   3.966   1.685   4.896  0.0301 -0.2965 -0.4623
  980SOL     OW 3917   3.219   0.527   2.719 -0.0566  0.2457 -0.2150
  980SOL    HW1 3918   3.242   0.597   2.657 -1.3902  0.4342 -0.5256
  980SOL    HW2 3919   3.216   0.571   2.804 -0.7854  0.5512 -0.3944
  980SOL     MW 3920   3.222   0.542   2.722 -0.3342  0.3122 -0.2809
  981SOL     OW 3921   4.015   3.467   4.907  0.1035  0.5332 -0.2757
  981SOL    HW1 3922   3.927   3.504   4.910  0.8580  2.4236  1.2997
  981SOL    HW2 3923   4.002   3.372   4.912 -1.8529  0.8114  2.2212
  981SOL     MW 3924   4.002   3.459   4.908 -0.0583  0.8250  0.2723
  982SOL     OW 3925   2.344   2.814   5.118 -0.0184 -0.2027 -0.3297
  982SOL    HW1 3926   2.408   2.765   5.066  0.5134  0.9875 -0.8462
  982SOL    HW2 3927   2.261   2.771   5.100  0.4284 -0.9236 -0.7445
  982SOL     MW 3928   2.342   2.801   5.109  0.1133 -0.1395 -0.4550
  983SOL     OW 3929   0.867   0.753   0.811  0.4289 -0.5352  0.0848
  983SOL    HW1 3930   0.960   0.745   0.832  0.7162 -2.3427 -1.5770
  983SOL    HW2 3931   0.823   0.693   0.872  0.6350 -1.4740 -0.6726
  983SOL     MW 3932   0.873   0.744   0.822  0.4953 -0.9048 -0.2408
  984SOL     OW 3933   4.590   1.467   3.148  0.7929  0.2178 -0.4386
  984SOL    HW1 3934   4.567   1.427   3.232 -0.4156 -0.9806 -1.2847
  984SOL    HW2 3935   4.593   1.394   3.087 -1.9238  1.3604 -2.1585
  984SOL     MW 3936   4.587   1.452   3.151  0.2647  0.2103 -0.7839
  985SOL     OW 3937   4.316   5.229   2.420 -0.2686  0.1416  0.4800
  985SOL    HW1 3938   4.331   5.277   2.338 -1.6566 -2.4964 -1.4489
  985SOL    HW2 3939   4.234   5.265   2.454  0.1088  0.9766  0.5376
  985SOL     MW 3940   4.307   5.240   2.414 -0.4046 -0.1011  0.2281
  986SOL     OW 3941   2.354   1.430   4.117  0.0927 -0.4224  0.4057
  986SOL    HW1 3942   2.369   1.462   4.028  0.6368 -1.9487 -0.0776
  986SOL    HW2 3943   2.440   1.401   4.147 -0.4058 -1.6751  0.6967
  986SOL     MW 3944   2.367   1.430   4.109  0.0988 -0.7964  0.3798
  987SOL     OW 3945   0.322   1.661   4.133  0.3315 -0.4174 -0.5051
  987SOL    HW1 3946   0.272   1.734   4.167 -0.8315 -1.5313  0.2835
  987SOL    HW2 3947   0.389   1.701   4.077 -0.5915  1.1912 -0.5092
  987SOL     MW 3948   0.325   1.676   4.130  0.0507 -0.3508 -0.3995
  988SOL     OW 3949   1.983   4.627   0.622 -0.2781 -0.4484 -0.3079
  988SOL    HW1 3950   1.949   4.562   0.685 -0.2213 -0.9612 -0.8015
  988SOL    HW2 3951   2.070   4.649   0.655  0.5320 -2.1135 -1.1892
  988SOL     MW 3952   1.990   4.621   0.635 -0.1614 -0.7415 -0.4929
  989SOL     OW 3953   2.057   3.832   2.238  0.1116  0.4756 -0.2560
  989SOL    HW1 3954   2.124   3.888   2.200  0.2180  0.9902  0.6556
  989SOL    HW2 3955   2.078   3.828   2.331  0.3059 -1.3821 -0.3387
  989SOL     MW 3956   2.069   3.839   2.245  0.1521  0.2948 -0.1445
  990SOL     OW 3957   3.900   4.677   1.427  0.0405 -0.3272  0.0625
  990SOL    HW1 3958   3.930   4.759   1.468  1.4616 -0.7387 -0.1076
  990SOL    HW2 3959   3.836   4.642   1.489  1.0726 -0.2061  1.2596
  990SOL     MW 3960   3.896   4.684   1.441  0.3707 -0.3663  0.2007
  991SOL     OW 3961   0.304   0.164   1.840 -0.0108  0.0352 -0.1703
  991SOL    HW1 3962   0.316   0.256   1.815 -0.7065  0.3331  0.5496
  991SOL    HW2 3963   0.210   0.157   1.860  0.0796 -0.7817 -0.0089
  991SOL     MW 3964   0.293   0.176   1.839 -0.0922 -0.0346 -0.0517
  992SOL     OW 3965   2.146   0.064   3.755  0.2674 -0.0876  0.3304
  992SOL    HW1 3966   2.165   0.011   3.832 -0.0892 -2.5815 -1.1659
  992SOL    HW2 3967   2.229   0.068   3.707 -0.3636 -2.0784 -1.0800
  992SOL     MW 3968   2.160   0.057   3.759  0.1345 -0.6912 -0.0608
  993SOL     OW 3969   1.365   1.287   2.539 -0.1051  0.0149 -0.6624
  993SOL    HW1 3970   1.409   1.265   2.458  1.1992  0.5299 -0.1176
  993SOL    HW2 3971   1.276   1.254   2.528 -0.1439  0.6366 -2.5435
  993SOL     MW 3972   1.359   1.280   2.527  0.0652  0.1679 -0.8423
  994SOL     OW 3973   4.992   4.119   0.491  0.1063 -0.1584 -0.5135
  994SOL    HW1 3974   5.006   4.151   0.580 -1.1273  0.0466 -0.3826
  994SOL    HW2 3975   4.898   4.130   0.475  0.3824  0.3503 -2.0456
  994SOL     MW 3976   4.981   4.125   0.501 -0.0225 -0.0624 -0.7021
  995SOL     OW 3977   1.918   3.499   2.477 -0.3499  0.1160  0.1139
  995SOL    HW1 3978   1.960   3.499   2.391  1.0566  0.2310  0.7761
  995SOL    HW2 3979   1.846   3.562   2.468 -1.0585 -0.8418 -1.3422
  995SOL     MW 3980   1.914   3.507   2.464 -0.2560  0.0026  0.0070
  996SOL     OW 3981   1.493   4.538   4.271  0.0658 -0.0102  0.2503
  996SOL    HW1 3982   1.521   4.583   4.351  0.0887  0.1689  0.1429
  996SOL    HW2 3983   1.481   4.447   4.297 -5.1170  0.8210  1.8520
  996SOL     MW 3984   1.495   4.532   4.285 -0.6286  0.1258  0.4514
  997SOL     OW 3985   4.084   1.821   2.863 -0.6145  0.1801  0.2299
  997SOL    HW1 3986   4.020   1.775   2.916 -0.7933 -1.2218 -1.1494
  997SOL    HW2 3987   4.077   1.913   2.891 -2.3263 -0.1407  0.9697
  997SOL     MW 3988   4.075   1.827   2.874 -0.8689 -0.0517  0.1438
  998SOL     OW 3989   1.016   3.992   1.044  0.2007  0.2648  0.2743
  998SOL    HW1 3990   0.969   4.061   0.996  2.5011  2.2128  0.6444
  998SOL    HW2 3991   0.947   3.949   1.096 -1.4979  1.5776 -0.7673
  998SOL     MW 3992   1.000   3.996   1.045  0.2817  0.7036  0.1839
  999SOL     OW 3993   2.761   0.810   5.325 -0.1547 -0.3496  0.0555
  999SOL    HW1 3994   2.798   0.727   5.297  2.9763  1.0220 -0.3554
  999SOL    HW2 3995   2.775   0.869   5.250 -1.9743  0.6507  0.4481
  999SOL     MW 3996   2.768   0.807   5.311  0.0218 -0.0304  0.0530
 1000SOL     OW 3997   2.823   4.026   3.909  0.0291  0.1776  0.1029
 1000SOL    HW1 3998   2.772   4.004   3.830  1.8197  1.4281 -1.4865
 1000SOL    HW2 3999   2.762   4.011   3.981 -1.2655 -2.3441 -1.3748
 1000SOL     MW 4000   2.808   4.021   3.908  0.0958  0.0066 -0.3099
 1001SOL     OW 4001   2.869   1.273   4.581 -0.7456 -0.4540 -0.1692
 1001SOL    HW1 4002   2.963   1.275   4.567 -0.7230  0.0094  0.0228
 1001SOL    HW2 4003   2.832   1.279   4.493 -0.5930  0.5859 -0.1839
 1001SOL     MW 4004   2.876   1.274   4.567 -0.7220 -0.2517 -0.1453
 1002SOL     OW 4005   1.524   4.260   4.406  0.4543 -0.4007  0.3174
 1002SOL    HW1 4006   1.584   4.309   4.462 -1.4793  2.2049  0.2849
 1002SOL    HW2 4007   1.461   4.221   4.467  0.5585 -0.8143  0.1671
 1002SOL     MW 4008   1.524   4.261   4.422  0.2081 -0.1057  0.2928
 1003SOL     OW 4009   4.275   2.225   2.160 -0.3826 -0.0059 -0.3331
 1003SOL    HW1 4010   4.311   2.305   2.122 -0.7684  1.5119  2.2197
 1003SOL    HW2 4011   4.349   2.165   2.165  0.5097  1.0806 -0.1370
 1003SOL     MW 4012   4.290   2.228   2.156 -0.3144  0.3446  0.0369
 1004SOL     OW 4013   0.589   2.460   0.984  0.5464  0.1446 -0.2427
 1004SOL    HW1 4014   0.582   2.449   1.079 -0.0226 -0.5719 -0.3553
 1004SOL    HW2 4015   0.662   2.404   0.959  0.5579  0.1664 -0.2578
 1004SOL     MW 4016   0.598   2.451   0.993  0.4714  0.0511 -0.2599
 1005SOL     OW 4017   2.978   1.383   0.753 -0.0828 -0.0380 -0.3033
 1005SOL    HW1 4018   2.911   1.449   0.735 -1.1541 -1.1919 -0.6683
 1005SOL    HW2 4019   2.974   1.323   0.679  0.3244 -0.9488  0.3884
 1005SOL     MW 4020   2.969   1.384   0.741 -0.1722 -0.3159 -0.2593
 1006SOL     OW 4021   5.390   0.883   3.485  0.1245 -0.6082 -0.0784
 1006SOL    HW1 4022   5.466   0.864   3.429  1.3155  0.5865  1.0648
 1006SOL    HW2 4023   5.395   0.818   3.554 -0.5124 -1.1755 -0.5553
 1006SOL     MW 4024   5.401   0.872   3.486  0.1991 -0.5238  0.0113
 1007SOL     OW 4025   0.220   5.428   0.863 -0.2689  0.3133 -0.3294
 1007SOL    HW1 4026   0.292   5.410   0.801 -0.0201 -0.5943  0.2108
 1007SOL    HW2 4027   0.145   5.447   0.807  0.4274  1.4779 -0.9066
 1007SOL     MW 4028   0.220   5.428   0.847 -0.1417  0.3479 -0.3344
 1008SOL     OW 4029   4.358   1.236   4.848  0.4461  0.3528 -0.0097
 1008SOL    HW1 4030   4.284   1.177   4.854  0.0545  0.7390 -0.8160
 1008SOL    HW2 4031   4.419   1.206   4.915  1.1089 -2.1659 -1.5913
 1008SOL     MW 4032   4.356   1.224   4.858  0.4826  0.0658 -0.3311
 1009SOL     OW 4033   1.784   5.340   5.315 -0.6203  0.4605  0.2033
 1009SOL    HW1 4034   1.826   5.423   5.291 -1.2053  0.5780 -0.4452
 1009SOL    HW2 4035   1.838   5.273   5.273 -0.1615  0.5117  0.7061
 1009SOL     MW 4036   1.797   5.342   5.306 -0.6373  0.4832  0.1837
 1010SOL     OW 4037   3.168   0.710   5.138  0.1247  0.3545  0.4080
 1010SOL    HW1 4038   3.191   0.758   5.217  1.7775  0.7046 -0.2515
 1010SOL    HW2 4039   3.192   0.619   5.157  0.1635  0.3738  0.4511
 1010SOL     MW 4040   3.174   0.704   5.151  0.3524  0.4042  0.3250
 1011SOL     OW 4041   1.155   3.211   4.141 -0.7549  0.6994 -0.0304
 1011SOL    HW1 4042   1.203   3.185   4.062 -0.5533  1.2948 -0.1104
 1011SOL    HW2 4043   1.222   3.247   4.199 -0.9077  0.2942  0.4051
 1011SOL     MW 4044   1.170   3.213   4.138 -0.7483  0.7250  0.0175
 1012SOL     OW 4045   3.824   4.925   0.667 -0.6271  0.0316  0.1508
 1012SOL    HW1 4046   3.778   4.917   0.583 -0.7301 -0.2664  0.2358
 1012SOL    HW2 4047   3.870   5.009   0.661 -1.2843  0.3879  0.1225
 1012SOL     MW 4048   3.824   4.935   0.655 -0.7294  0.0394  0.1584
 1013SOL     OW 4049   3.072   0.915   2.202 -0.2987  0.1476 -0.2602
 1013SOL    HW1 4050   3.152   0.882   2.161 -0.3749 -1.5568  0.8609
 1013SOL    HW2 4051   3.102   0.956   2.283 -0.5519 -0.8069  0.3378
 1013SOL     MW 4052   3.086   0.916   2.207 -0.3430 -0.2102 -0.0289
 1014SOL     OW 4053   5.157   2.503   4.287  0.4516  0.0718 -0.0119
 1014SOL    HW1 4054   5.087   2.479   4.226  0.8155  0.9683 -0.8204
 1014SOL    HW2 4055   5.174   2.424   4.336 -1.5484 -0.0158  0.6445
 1014SOL     MW 4056   5.150   2.489   4.285  0.2314  0.1806 -0.0323
 1015SOL     OW 4057   0.405   1.014   4.751 -0.8357  0.5172  0.1494
 1015SOL    HW1 4058   0.388   1.105   4.729 -1.3332  0.0141 -1.7875
 1015SOL    HW2 4059   0.478   0.989   4.694 -0.2015 -0.1003  1.2020
 1015SOL     MW 4060   0.413   1.023   4.740 -0.8173  0.3664  0.0304
 1016SOL     OW 4061   3.863   3.555   3.437 -0.4082  0.2931 -0.2255
 1016SOL    HW1 4062   3.934   3.601   3.393  1.6208 -1.4139  1.0812
 1016SOL    HW2 4063   3.889   3.553   3.529 -1.8700 -0.8812  0.1963
 1016SOL     MW 4064   3.876   3.561   3.443 -0.3319 -0.0946  0.0071
 1017SOL     OW 4065   5.473   4.448   4.808 -0.0286  0.2721 -0.1191
 1017SOL    HW1 4066   5.389   4.457   4.853  0.2504  0.7915  0.3065
 1017SOL    HW2 4067   5.527   4.398   4.868 -0.1784 -0.4763 -0.5975
 1017SOL     MW 4068   5.469   4.443   4.822 -0.0113  0.2413 -0.1262
 1018SOL     OW 4069   1.931   3.662   3.775  0.1426 -0.2088 -0.2317
 1018SOL    HW1 4070   1.928   3.754   3.804  0.8721  0.3396 -1.8208
 1018SOL    HW2 4071   2.000   3.659   3.710 -0.7797 -1.6047 -1.2057
 1018SOL     MW 4072   1.940   3.674   3.770  0.1166 -0.3229 -0.5766
 1019SOL     OW 4073   3.796   3.781   3.288 -0.1994  0.8573  0.0935
 1019SOL    HW1 4074   3.711   3.822   3.273 -0.5042  1.0426  2.1068
 1019SOL    HW2 4075   3.778   3.709   3.349  0.8310 -0.2554 -0.8668
 1019SOL     MW 4076   3.782   3.777   3.294 -0.1017  0.7325  0.2352
 1020SOL     OW 4077   0.637   5.311   3.875  0.0984 -0.1011  0.5542
 1020SOL    HW1 4078   0.592   5.303   3.790  4.8838 -0.6193 -2.2707
 1020SOL    HW2 4079   0.668   5.402   3.876 -0.8993  0.2555  2.4331
 1020SOL     MW 4080   0.635   5.322   3.864  0.6082 -0.1229  0.4269
 1021SOL     OW 4081   1.253   3.651   0.925 -0.3651  0.8156 -0.7458
 1021SOL    HW1 4082   1.272   3.603   0.845 -1.0833 -0.9329  0.0868
 1021SOL    HW2 4083   1.292   3.598   0.995 -1.2319  1.4065  0.2110
 1021SOL     MW 4084   1.261   3.638   0.923 -0.5784  0.6598 -0.5050
 1022SOL     OW 4085   2.465   2.919   4.359 -0.0077  0.1038  0.2810
 1022SOL    HW1 4086   2.392   2.876   4.403  0.9752 -1.3401  0.5535
 1022SOL    HW2 4087   2.532   2.929   4.426  0.7776 -0.3585 -0.4089
 1022SOL     MW 4088   2.464   2.915   4.374  0.2302 -0.1527  0.2248
 1023SOL     OW 4089   0.036   1.058   5.058  0.2262 -0.0827 -0.1531
 1023SOL    HW1 4090   0.007   1.091   4.973  0.8075 -0.3835 -0.4677
 1023SOL    HW2 4091   0.126   1.089   5.067  0.3751 -0.5692  0.0768
 1023SOL     MW 4092   0.044   1.067   5.048  0.3245 -0.1886 -0.1645
 1024SOL     OW 4093   1.904   2.565   0.692 -0.5204 -0.0485  0.4776
 1024SOL    HW1 4094   1.904   2.647   0.643  1.0459 -0.5047 -0.3729
 1024SOL    HW2 4095   1.812   2.549   0.714 -0.8221  2.0410  0.8931
 1024SOL     MW 4096   1.892   2.574   0.688 -0.3502  0.1713  0.4191
 1025SOL     OW 4097   1.208   2.458   3.726 -0.4304 -0.3112 -0.2926
 1025SOL    HW1 4098   1.207   2.385   3.789 -0.6322 -0.7640 -0.8150
 1025SOL    HW2 4099   1.231   2.418   3.643  0.6372  0.4175 -0.3665
 1025SOL     MW 4100   1.211   2.443   3.723 -0.3139 -0.2740 -0.3729
 1026SOL     OW 4101   4.105   4.441   0.448 -0.1536 -0.2362 -0.0405
 1026SOL    HW1 4102   4.150   4.442   0.533  0.5089  2.4943 -0.3391
 1026SOL    HW2 4103   4.012   4.437   0.470  0.0336 -0.1703  0.7886
 1026SOL     MW 4104   4.098   4.440   0.463 -0.0393  0.1401  0.0309
 1027SOL     OW 4105   5.186   2.537   1.643  0.3697  0.0324  0.2126
 1027SOL    HW1 4106   5.118   2.507   1.582  0.6229  0.5813 -0.3511
 1027SOL    HW2 4107   5.137   2.567   1.720 -0.2434  2.4063 -0.9829
 1027SOL     MW 4108   5.170   2.537   1.645  0.3213  0.4258 -0.0242
 1028SOL     OW 4109   0.156   4.752   3.089 -0.4483 -0.0888  0.2513
 1028SOL    HW1 4110   0.190   4.685   3.148  0.1454  0.2704  0.3153
 1028SOL    HW2 4111   0.194   4.834   3.120  0.1252  0.0654 -0.8105
 1028SOL     MW 4112   0.165   4.754   3.101 -0.2912 -0.0197  0.1171
 1029SOL     OW 4113   3.827   5.374   1.977  0.6862  0.4446  0.0912
 1029SOL    HW1 4114   3.900   5.323   2.011  0.1377  0.6280  1.6107
 1029SOL    HW2 4115   3.867   5.449   1.934  1.4275 -0.2518 -0.4541
 1029SOL     MW 4116   3.842   5.377   1.976  0.7121  0.3756  0.2223
 1030SOL     OW 4117   0.168   4.384   1.346  0.0128 -0.0018  0.6980
 1030SOL    HW1 4118   0.199   4.316   1.286 -0.7260 -1.5615  2.0237
 1030SOL    HW2 4119   0.235   4.391   1.413 -0.6010 -0.5351  1.3887
 1030SOL     MW 4120   0.181   4.376   1.347 -0.1693 -0.2834  0.9694
 1031SOL     OW 4121   2.717   5.372   2.310 -0.0032 -0.0381 -0.1333
 1031SOL    HW1 4122   2.805   5.404   2.290  0.3457 -1.3505 -0.8175
 1031SOL    HW2 4123   2.709   5.379   2.405  0.9029 -0.0282 -0.0536
 1031SOL     MW 4124   2.728   5.377   2.320  0.1657 -0.2134 -0.2147
 1032SOL     OW 4125   2.774   2.261   3.927  0.3207  0.1276  0.0126
 1032SOL    HW1 4126   2.680   2.271   3.943  0.3363  0.9865 -0.3636
 1032SOL    HW2 4127   2.786   2.287   3.836  0.9858  0.4355  0.1817
 1032SOL     MW 4128   2.763   2.266   3.917  0.4123  0.2846 -0.0153
 1033SOL     OW 4129   2.945   0.809   1.353  0.1907 -0.0961 -0.1460
 1033SOL    HW1 4130   2.940   0.725   1.307  0.2890 -0.2206  0.0678
 1033SOL    HW2 4131   3.029   0.846   1.326  1.2442 -1.1257  1.5370
 1033SOL     MW 4132   2.956   0.802   1.343  0.3457 -0.2514  0.1093
 1034SOL     OW 4133   2.174   2.558   0.253 -0.2368  0.1109 -0.6105
 1034SOL    HW1 4134   2.229   2.635   0.269 -1.1891  1.0438 -1.6632
 1034SOL    HW2 4135   2.233   2.483   0.265  0.7265  0.9937  0.3522
 1034SOL     MW 4136   2.189   2.558   0.257 -0.2353  0.3553 -0.6226
 1035SOL     OW 4137   4.115   1.943   3.825  0.0587  0.2067  0.4674
 1035SOL    HW1 4138   4.192   1.977   3.778  0.5749 -0.0893  1.0742
 1035SOL    HW2 4139   4.141   1.856   3.854 -0.5409  0.0721  0.6138
 1035SOL     MW 4140   4.129   1.936   3.823  0.0474  0.1487  0.5687
 1036SOL     OW 4141   0.534   0.826   0.024 -0.2754  0.5105 -0.1409
 1036SOL    HW1 4142   0.499   0.737   0.030 -0.4213  0.4087 -2.0675
 1036SOL    HW2 4143   0.462   0.879  -0.010  0.5436  0.8467 -1.4286
 1036SOL     MW 4144   0.520   0.821   0.020 -0.1848  0.5421 -0.5735
 1037SOL     OW 4145   2.430   1.964   3.991 -0.5479  0.0103  0.0767
 1037SOL    HW1 4146   2.519   1.953   3.959 -0.6988 -1.7706  0.1881
 1037SOL    HW2 4147   2.439   2.015   4.071  0.2230  0.9620 -0.5884
 1037SOL     MW 4148   2.443   1.970   3.998 -0.4645 -0.1013  0.0022
 1038SOL     OW 4149   4.224   1.479   3.846  0.3765 -0.5860  0.0769
 1038SOL    HW1 4150   4.316   1.495   3.822 -0.0043  0.1571 -0.9365
 1038SOL    HW2 4151   4.191   1.422   3.778 -0.5974  1.1967 -1.0015
 1038SOL     MW 4152   4.232   1.474   3.834  0.1942 -0.2460 -0.2046
 1039SOL     OW 4153   1.221   2.494   1.804  0.2117 -0.1299 -0.2620
 1039SOL    HW1 4154   1.249   2.577   1.843  0.3871 -0.1618 -0.3178
 1039SOL    HW2 4155   1.282   2.429   1.841  0.0239 -0.2451 -0.1559
 1039SOL     MW 4156   1.233   2.497   1.814  0.2101 -0.1497 -0.2552
 1040SOL     OW 4157   2.610   3.929   4.795 -0.0452  0.7424 -0.2998
 1040SOL    HW1 4158   2.653   4.013   4.778 -1.8508  1.5595 -1.1218
 1040SOL    HW2 4159   2.542   3.950   4.859  0.0084 -0.2720  0.1077
 1040SOL     MW 4160   2.606   3.944   4.801 -0.2810  0.7158 -0.3556
 1041SOL     OW 4161   0.549   0.638   1.861  0.4906  0.3513 -0.2611
 1041SOL    HW1 4162   0.624   0.609   1.914 -0.9532 -0.2086  1.5706
 1041SOL    HW2 4163   0.570   0.728   1.838  2.2145 -0.1189 -0.7444
 1041SOL     MW 4164   0.562   0.646   1.865  0.5283  0.2127 -0.0797
 1042SOL     OW 4165   3.757   3.021   5.251  0.7991  0.1837  0.0908
 1042SOL    HW1 4166   3.709   3.058   5.325 -0.0176 -2.5319  1.0555
 1042SOL    HW2 4167   3.689   2.986   5.193  1.5064 -0.9437 -0.0931
 1042SOL     MW 4168   3.741   3.021   5.253  0.7844 -0.3335  0.1958
 1043SOL     OW 4169   2.926   4.575   4.651  0.2747 -0.2003 -0.9461
 1043SOL    HW1 4170   2.972   4.582   4.734 -0.0221  2.2289 -0.9072
 1043SOL    HW2 4171   2.845   4.529   4.672 -0.2772  1.2757  0.3902
 1043SOL     MW 4172   2.921   4.570   4.665  0.1605  0.3253 -0.7610
 1044SOL     OW 4173   4.090   2.069   0.216  0.3025 -0.1285  0.2094
 1044SOL    HW1 4174   4.076   2.084   0.310  1.1925  0.5634  0.2397
 1044SOL    HW2 4175   4.071   1.976   0.204  0.5925 -0.3216  1.1588
 1044SOL     MW 4176   4.086   2.059   0.227  0.4613 -0.0614  0.3413
 1045SOL     OW 4177   5.301   2.232   0.296 -0.3781 -0.1117 -0.0496
 1045SOL    HW1 4178   5.381   2.283   0.291  0.2099 -0.9269  0.7858
 1045SOL    HW2 4179   5.275   2.219   0.204  0.9369 -0.5962 -0.3751
 1045SOL     MW 4180   5.308   2.237   0.283 -0.1220 -0.2866  0.0191
 1046SOL     OW 4181   1.270   2.615   1.269  0.3361 -0.2312  0.3375
 1046SOL    HW1 4182   1.220   2.697   1.268  1.8508  0.7351  0.5265
 1046SOL    HW2 4183   1.278   2.594   1.362  2.3637  1.0110  0.5192
 1046SOL     MW 4184   1.265   2.623   1.281  0.8128  0.0660  0.3874
 1047SOL     OW 4185   3.198   0.305   3.630  0.2458  0.0333  0.0394
 1047SOL    HW1 4186   3.177   0.355   3.551 -0.3836  1.4471  1.0565
 1047SOL    HW2 4187   3.293   0.302   3.633  0.2735 -0.4573 -1.0180
 1047SOL     MW 4188   3.208   0.311   3.620  0.1648  0.1575  0.0340
 1048SOL     OW 4189   0.953   3.264   3.897  0.0291 -0.5431 -0.0109
 1048SOL    HW1 4190   0.950   3.352   3.935 -3.6949 -0.6347  0.2963
 1048SOL    HW2 4191   0.993   3.210   3.966 -0.5285  0.4177  1.1079
 1048SOL     MW 4192   0.958   3.269   3.912 -0.5471 -0.4261  0.1810
 1049SOL     OW 4193   3.512   4.029   4.233 -0.5962  0.1251  0.2108
 1049SOL    HW1 4194   3.464   4.112   4.242  1.0245  1.2189 -0.8122
 1049SOL    HW2 4195   3.600   4.049   4.265 -0.8457 -1.9582  2.4518
 1049SOL     MW 4196   3.517   4.043   4.238 -0.4117 -0.0081  0.3747
 1050SOL     OW 4197   3.930   2.076   5.012  0.4427 -0.1421 -0.4828
 1050SOL    HW1 4198   3.906   2.007   5.073  1.6234 -1.6515 -1.6416
 1050SOL    HW2 4199   4.002   2.038   4.960 -0.0852  1.2890 -2.3595
 1050SOL     MW 4200   3.937   2.062   5.013  0.5305 -0.1526 -0.8913
 1051SOL     OW 4201   3.727   3.056   0.771 -0.2860  0.6978  0.6443
 1051SOL    HW1 4202   3.672   3.018   0.840  0.3883 -0.4895  0.5554
 1051SOL    HW2 4203   3.801   3.095   0.819  0.0417  0.1145  0.6274
 1051SOL     MW 4204   3.730   3.056   0.787 -0.1512  0.4595  0.6300
 1052SOL     OW 4205   1.172   0.416   0.956 -0.0520 -0.1300  0.2413
 1052SOL    HW1 4206   1.135   0.336   0.993 -0.0400  0.1867  0.9521
 1052SOL    HW2 4207   1.202   0.391   0.868  0.8821 -1.1546  0.8339
 1052SOL     MW 4208   1.171   0.402   0.949  0.0754 -0.2253  0.4167
 1053SOL     OW 4209   3.312   4.735   2.687  0.1038 -0.2020 -0.0620
 1053SOL    HW1 4210   3.310   4.730   2.592  0.6459 -0.5195 -0.0626
 1053SOL    HW2 4211   3.398   4.771   2.708  0.3436 -0.9802  0.3367
 1053SOL     MW 4212   3.323   4.739   2.677  0.2090 -0.3495 -0.0084
 1054SOL     OW 4213   5.113   5.010   2.045  0.8826 -0.1466  0.5093
 1054SOL    HW1 4214   5.121   5.100   2.015 -0.7639 -0.4604 -1.0184
 1054SOL    HW2 4215   5.106   5.018   2.140 -0.3230  1.4631  0.3450
 1054SOL     MW 4216   5.113   5.023   2.054  0.4988  0.0278  0.2816
 1055SOL     OW 4217   4.352   3.684   3.178 -0.1362  0.0337 -0.5639
 1055SOL    HW1 4218   4.396   3.720   3.101 -1.4528 -0.0554 -1.4008
 1055SOL    HW2 4219   4.419   3.682   3.245  0.2815  3.2175 -0.7167
 1055SOL     MW 4220   4.367   3.689   3.176 -0.2571  0.4502 -0.6971
 1056SOL     OW 4221   3.426   5.226   3.030  0.3636  0.3265  0.3711
 1056SOL    HW1 4222   3.332   5.218   3.046  0.0809  2.2919  0.0226
 1056SOL    HW2 4223   3.448   5.315   3.060  1.9978  0.0924 -0.0260
 1056SOL     MW 4224   3.416   5.237   3.036  0.5455  0.5595  0.2708
 1057SOL     OW 4225   2.006   4.736   0.024  0.3582 -0.5820  0.2827
 1057SOL    HW1 4226   2.091   4.758   0.061  0.8704  0.2368 -1.3138
 1057SOL    HW2 4227   2.024   4.663  -0.036  0.2237  0.4785 -1.1030
 1057SOL     MW 4228   2.020   4.729   0.021  0.4090 -0.3291 -0.1186
 1058SOL     OW 4229   0.255   2.867   1.269  0.5493 -0.3324 -0.3365
 1058SOL    HW1 4230   0.259   2.772   1.261  1.8093 -0.4540  1.2290
 1058SOL    HW2 4231   0.262   2.899   1.179 -0.6222 -1.7009 -0.9615
 1058SOL     MW 4232   0.256   2.859   1.256  0.5612 -0.5329 -0.2100
 1059SOL     OW 4233   0.391   2.100   5.181 -0.1004  0.0902  0.2086
 1059SOL    HW1 4234   0.372   2.010   5.208  0.8790 -0.4344 -0.7470
 1059SOL    HW2 4235   0.313   2.128   5.134  0.4507 -1.1578 -1.5787
 1059SOL     MW 4236   0.378   2.092   5.179  0.1055 -0.1484 -0.1605
 1060SOL     OW 4237   5.006   2.603   2.787  0.4618 -0.7108  0.1322
 1060SOL    HW1 4238   5.062   2.583   2.862 -0.8342 -0.1377  1.3125
 1060SOL    HW2 4239   5.056   2.668   2.737  0.7122  0.0928  1.3648
 1060SOL     MW 4240   5.020   2.609   2.790  0.3211 -0.5255  0.4569
 1061SOL     OW 4241   4.121   3.326   3.344  0.3322 -0.8053  0.2623
 1061SOL    HW1 4242   4.076   3.384   3.406 -0.0940 -1.2764  0.4000
 1061SOL    HW2 4243   4.153   3.385   3.275 -1.1124 -0.5422 -0.2052
 1061SOL     MW 4244   4.120   3.342   3.343  0.0804 -0.8333  0.2179
 1062SOL     OW 4245   3.418   0.429   4.449 -0.4351 -0.7656 -0.6437
 1062SOL    HW1 4246   3.494   0.397   4.497 -0.9622 -2.2038 -0.7065
 1062SOL    HW2 4247   3.356   0.456   4.517  0.1857  0.5703 -0.5957
 1062SOL     MW 4248   3.420   0.428   4.465 -0.4225 -0.7794 -0.6457
 1063SOL     OW 4249   4.057   1.351   0.778  0.0253 -0.5173 -0.0776
 1063SOL    HW1 4250   4.130   1.413   0.777 -0.0947 -0.3803 -0.3074
 1063SOL    HW2 4251   3.992   1.389   0.719 -0.3352 -0.5161  0.3128
 1063SOL     MW 4252   4.058   1.364   0.770 -0.0394 -0.4987 -0.0560
 1064SOL     OW 4253   4.399   3.349   4.196  0.0525 -0.2238 -0.4058
 1064SOL    HW1 4254   4.359   3.392   4.272 -3.4351  0.0321 -2.1805
 1064SOL    HW2 4255   4.405   3.257   4.221 -0.8270 -0.1103  0.2784
 1064SOL     MW 4256   4.395   3.343   4.210 -0.5352 -0.1741 -0.5525
 1065SOL     OW 4257   0.702   1.180   4.007  0.8991 -0.4607 -0.1007
 1065SOL    HW1 4258   0.776   1.241   4.009  2.1298 -1.8893 -0.3208
 1065SOL    HW2 4259   0.670   1.178   4.097 -0.1784  1.6409 -0.3679
 1065SOL     MW 4260   0.707   1.188   4.019  0.9197 -0.3702 -0.1663
 1066SOL     OW 4261   1.985   3.619   0.006 -0.2137  0.5777 -0.0274
 1066SOL    HW1 4262   1.918   3.576   0.059 -0.6004 -0.3196 -1.1927
 1066SOL    HW2 4263   2.030   3.678   0.066 -1.7133  0.8190  0.9035
 1066SOL     MW 4264   1.982   3.621   0.021 -0.4676  0.4894 -0.0590
 1067SOL     OW 4265   1.257   5.171   3.585  0.2565  0.0854 -0.6017
 1067SOL    HW1 4266   1.181   5.229   3.576  0.2280  0.1758  0.1465
 1067SOL    HW2 4267   1.270   5.163   3.680 -0.4923 -2.1147 -0.6421
 1067SOL     MW 4268   1.249   5.178   3.597  0.1519 -0.1985 -0.5064
 1068SOL     OW 4269   5.414   2.707   1.635  0.5654  0.3294  0.5492
 1068SOL    HW1 4270   5.345   2.640   1.628  0.0886  0.8612  0.1038
 1068SOL    HW2 4271   5.496   2.657   1.627  0.2159 -0.2010  0.1731
 1068SOL     MW 4272   5.416   2.691   1.633  0.4542  0.3296  0.4387
 1069SOL     OW 4273   0.635   4.326   3.570 -0.2676  0.3482  0.2115
 1069SOL    HW1 4274   0.585   4.296   3.646 -0.6909 -0.3305 -0.3184
 1069SOL    HW2 4275   0.716   4.274   3.572  0.4889  1.5114  1.1206
 1069SOL     MW 4276   0.639   4.315   3.581 -0.2228  0.4134  0.2625
 1070SOL     OW 4277   0.775   3.027   1.790 -0.0925  0.0941 -0.4373
 1070SOL    HW1 4278   0.758   3.107   1.740 -0.4848  1.5262  1.8442
 1070SOL    HW2 4279   0.868   3.030   1.810  0.3500 -1.1385 -2.0326
 1070SOL     MW 4280   0.785   3.038   1.786 -0.0857  0.1209 -0.3449
 1071SOL     OW 4281   3.360   0.153   3.279 -0.3034  0.3435  0.1921
 1071SOL    HW1 4282   3.306   0.217   3.234  0.0211  0.5617  0.1129
 1071SOL    HW2 4283   3.299   0.107   3.338 -0.5639  0.6160  0.1350
 1071SOL     MW 4284   3.345   0.155   3.281 -0.2948  0.4095  0.1738
 1072SOL     OW 4285   5.154   1.066   2.384 -0.6322  0.2379  0.4404
 1072SOL    HW1 4286   5.141   1.000   2.452  0.0320  0.3442  0.6781
 1072SOL    HW2 4287   5.146   1.017   2.302  0.1445 -0.2100  0.6203
 1072SOL     MW 4288   5.151   1.050   2.382 -0.4383  0.1919  0.4966
 1073SOL     OW 4289   4.096   4.034   5.340 -0.3269 -0.6307 -0.3233
 1073SOL    HW1 4290   4.089   4.121   5.301 -1.1305 -0.1261  0.8990
 1073SOL    HW2 4291   4.018   4.025   5.394  0.6764 -1.3597  1.0634
 1073SOL     MW 4292   4.084   4.044   5.342 -0.3000 -0.6609  0.0279
 1074SOL     OW 4293   0.615   1.397   0.628  0.1270  0.1332  0.2900
 1074SOL    HW1 4294   0.689   1.369   0.681  1.9259 -1.1045 -2.6359
 1074SOL    HW2 4295   0.652   1.458   0.565 -1.3283 -0.5415 -1.2962
 1074SOL     MW 4296   0.630   1.401   0.627  0.1732 -0.1242 -0.3172
 1075SOL     OW 4297   1.145   0.285   4.905 -0.2003 -0.0928  0.4624
 1075SOL    HW1 4298   1.210   0.346   4.940 -0.5488  0.7320 -0.3057
 1075SOL    HW2 4299   1.061   0.323   4.930 -0.4477  0.3071 -0.8930
 1075SOL     MW 4300   1.143   0.298   4.913 -0.2805  0.0720  0.1766
 1076SOL     OW 4301   2.134   0.547   3.707 -0.4534 -0.1756 -0.2590
 1076SOL    HW1 4302   2.214   0.599   3.711 -0.1781 -0.4988 -1.4264
 1076SOL    HW2 4303   2.138   0.501   3.623 -2.3720  0.6488 -0.8706
 1076SOL     MW 4304   2.145   0.548   3.696 -0.6746 -0.1082 -0.4984
 1077SOL     OW 4305   2.604   1.399   0.910  0.3423 -0.4946  0.2471
 1077SOL    HW1 4306   2.615   1.350   0.991  1.9533  1.4906  1.3480
 1077SOL    HW2 4307   2.549   1.474   0.934 -2.1123 -1.6510 -1.3913
 1077SOL     MW 4308   2.598   1.403   0.924  0.2288 -0.3831  0.1747
 1078SOL     OW 4309   4.244   5.415   2.216  0.1945  0.3188  0.2621
 1078SOL    HW1 4310   4.315   5.389   2.157  0.5205  0.4904  0.5750
 1078SOL    HW2 4311   4.258   5.508   2.231  0.7477  0.0639  1.4553
 1078SOL     MW 4312   4.255   5.424   2.210  0.3128  0.3076  0.4648
 1079SOL     OW 4313   2.437   5.393   1.632 -0.2624  0.6030  0.1834
 1079SOL    HW1 4314   2.375   5.418   1.563  0.2240  1.9412  0.1842
 1079SOL    HW2 4315   2.487   5.473   1.648  1.5322 -0.4471  0.1086
 1079SOL     MW 4316   2.436   5.407   1.625  0.0446  0.6418  0.1735
 1080SOL     OW 4317   0.619   0.760   1.229 -0.0530  0.4800 -0.6098
 1080SOL    HW1 4318   0.547   0.819   1.206 -0.2892 -0.0198 -1.1622
 1080SOL    HW2 4319   0.579   0.698   1.291  0.0452  0.5382 -0.4882
 1080SOL     MW 4320   0.604   0.760   1.234 -0.0716  0.4206 -0.6678
 1081SOL     OW 4321   2.867   3.350   3.877 -0.1199 -0.3248 -0.4409
 1081SOL    HW1 4322   2.834   3.440   3.870  2.9786  0.9378 -0.4239
 1081SOL    HW2 4323   2.881   3.322   3.787  1.0707  0.1437 -0.4224
 1081SOL     MW 4324   2.864   3.359   3.864  0.4574 -0.0918 -0.4361
 1082SOL     OW 4325   2.114   5.246   1.924  0.2504  0.1987  0.1872
 1082SOL    HW1 4326   2.041   5.188   1.901  0.2623 -0.1498  0.9838
 1082SOL    HW2 4327   2.075   5.334   1.922  0.2321  0.1818 -1.0148
 1082SOL     MW 4328   2.099   5.250   1.921  0.2495  0.1495  0.1327
 1083SOL     OW 4329   2.714   0.142   0.124 -0.2459 -0.3069 -0.5948
 1083SOL    HW1 4330   2.724   0.207   0.194 -1.1213  0.4284 -1.1400
 1083SOL    HW2 4331   2.658   0.185   0.060  1.2498 -0.6268 -2.1767
 1083SOL     MW 4332   2.708   0.157   0.125 -0.1624 -0.2510 -0.8811
 1084SOL     OW 4333   3.773   4.825   1.754  0.1041  0.0470  0.1568
 1084SOL    HW1 4334   3.787   4.746   1.701 -1.8688  0.2275 -0.7236
 1084SOL    HW2 4335   3.790   4.797   1.844  0.2218 -1.1716 -0.2215
 1084SOL     MW 4336   3.777   4.810   1.759 -0.1456 -0.0927 -0.0126
 1085SOL     OW 4337   5.210   2.912   1.926  0.0669  0.4057 -0.4201
 1085SOL    HW1 4338   5.176   2.941   1.841 -2.0290  1.1499  0.6118
 1085SOL    HW2 4339   5.293   2.868   1.904 -0.9085 -0.3840 -2.9463
 1085SOL     MW 4340   5.217   2.910   1.911 -0.3464  0.3996 -0.6212
 1086SOL     OW 4341   3.231   4.776   0.818  0.4427  0.7131  0.5959
 1086SOL    HW1 4342   3.308   4.755   0.871  1.3350  2.2909 -0.0483
 1086SOL    HW2 4343   3.260   4.841   0.756 -0.7396 -0.6345 -1.5080
 1086SOL     MW 4344   3.245   4.782   0.817  0.4036  0.7441  0.2261
 1087SOL     OW 4345   0.690   3.104   2.045 -0.0888  0.1721  0.4750
 1087SOL    HW1 4346   0.739   3.090   1.964  0.6619  0.6423  0.8359
 1087SOL    HW2 4347   0.620   3.165   2.022  1.1965  1.7336  0.5492
 1087SOL     MW 4348   0.687   3.110   2.031  0.1852  0.4456  0.5336
 1088SOL     OW 4349   2.969   2.055   1.228  0.0274  0.0727  0.9150
 1088SOL    HW1 4350   2.888   2.036   1.180  0.5293 -0.0291  0.0757
 1088SOL    HW2 4351   3.037   2.008   1.179  0.6247  0.3177  1.4910
 1088SOL     MW 4352   2.968   2.046   1.215  0.1753  0.0920  0.8795
 1089SOL     OW 4353   2.004   3.341   4.034 -0.3407  0.1433 -0.4118
 1089SOL    HW1 4354   2.075   3.332   4.097  0.5969  0.7402 -1.3492
 1089SOL    HW2 4355   1.986   3.435   4.032 -0.6661  0.0757 -0.7188
 1089SOL     MW 4356   2.011   3.353   4.042 -0.2583  0.2146 -0.5793
 1090SOL     OW 4357   3.152   3.956   2.191  0.4662  0.3935  0.5245
 1090SOL    HW1 4358   3.120   4.046   2.188 -0.9325 -0.0919  0.2389
 1090SOL    HW2 4359   3.132   3.927   2.280 -0.5176 -0.1151  0.1550
 1090SOL     MW 4360   3.145   3.964   2.203  0.1456  0.2598  0.4364
 1091SOL     OW 4361   0.022   1.585   2.404  0.2644 -0.1596  0.0712
 1091SOL    HW1 4362   0.070   1.505   2.424  1.4849  0.5546  0.0957
 1091SOL    HW2 4363   0.084   1.639   2.355 -0.2066  1.1569  0.8525
 1091SOL     MW 4364   0.037   1.582   2.400  0.3653  0.1137  0.1796
 1092SOL     OW 4365   1.489   2.871   1.575 -0.3723 -0.5017  0.1416
 1092SOL    HW1 4366   1.547   2.824   1.636  1.0365  0.9683  0.0063
 1092SOL    HW2 4367   1.511   2.836   1.489  0.3756  0.0859  0.0859
 1092SOL     MW 4368   1.500   2.860   1.572 -0.0821 -0.2248  0.1159
 1093SOL     OW 4369   4.269   1.285   0.428  0.0367  0.4610 -0.9385
 1093SOL    HW1 4370   4.197   1.256   0.484  0.4668 -0.1838 -0.7108
 1093SOL    HW2 4371   4.344   1.233   0.456  0.6489  1.2668 -1.0292
 1093SOL     MW 4372   4.270   1.274   0.439  0.1770  0.4827 -0.9201
 1094SOL     OW 4373   1.183   2.055   1.178  0.0054 -0.1585  0.1981
 1094SOL    HW1 4374   1.127   1.999   1.232 -0.3293 -0.1715 -0.1582
 1094SOL    HW2 4375   1.171   2.143   1.213  0.1015 -0.2261  0.4013
 1094SOL     MW 4376   1.174   2.060   1.190 -0.0267 -0.1693  0.1775
 1095SOL     OW 4377   2.724   4.400   2.153  0.4781  0.0430 -0.0820
 1095SOL    HW1 4378   2.665   4.328   2.177 -0.7869  0.8068 -0.7753
 1095SOL    HW2 4379   2.672   4.455   2.094  2.3786 -0.0613 -1.9816
 1095SOL     MW 4380   2.709   4.398   2.148  0.5636  0.1317 -0.4310
 1096SOL     OW 4381   0.407   2.634   1.225  0.2600  0.1574 -0.5703
 1096SOL    HW1 4382   0.361   2.604   1.147 -0.3711  1.4167 -0.7043
 1096SOL    HW2 4383   0.485   2.678   1.191  0.8016 -0.6315 -0.4018
 1096SOL     MW 4384   0.412   2.636   1.210  0.2480  0.2207 -0.5656
 1097SOL     OW 4385   1.349   0.212   0.301  0.2742 -0.6595  0.7025
 1097SOL    HW1 4386   1.426   0.253   0.341  0.0509  0.4570  0.0446
 1097SOL    HW2 4387   1.386   0.146   0.242  0.7099 -0.4471  0.7329
 1097SOL     MW 4388   1.364   0.209   0.298  0.3028 -0.4807  0.6180
 1098SOL     OW 4389   2.065   4.789   4.126  0.7769  0.7538  0.0000
 1098SOL    HW1 4390   2.055   4.711   4.072  0.2993  0.0200  1.1107
 1098SOL    HW2 4391   2.013   4.856   4.081 -2.6501 -0.7849  1.3382
 1098SOL     MW 4392   2.057   4.788   4.113  0.2514  0.4479  0.3296
 1099SOL     OW 4393   5.106   0.803   5.119  0.8488  0.5197 -0.7301
 1099SOL    HW1 4394   5.196   0.811   5.153  1.1078  0.4414 -1.3834
 1099SOL    HW2 4395   5.053   0.855   5.179  0.9979 -1.1603  0.9459
 1099SOL     MW 4396   5.111   0.811   5.132  0.9037  0.2831 -0.5924
 1100SOL     OW 4397   3.741   2.916   2.761  0.2466 -0.2549 -0.0424
 1100SOL    HW1 4398   3.719   2.985   2.825  1.8539 -1.5153  2.0156
 1100SOL    HW2 4399   3.664   2.860   2.759 -0.1860  0.3261  0.0822
 1100SOL     MW 4400   3.728   2.918   2.770  0.4047 -0.3463  0.2513
 1101SOL     OW 4401   3.002   4.270   0.414 -0.4962  0.1307  0.8079
 1101SOL    HW1 4402   2.925   4.310   0.375 -0.0631  0.6956  0.5084
 1101SOL    HW2 4403   3.076   4.310   0.368  0.0623  1.2325  2.5584
 1101SOL     MW 4404   3.002   4.281   0.403 -0.3628  0.3550  1.0032
 1102SOL     OW 4405   5.105   2.863   0.715 -0.3886  0.4099  0.2960
 1102SOL    HW1 4406   5.067   2.944   0.681  0.9055  1.1934  0.6250
 1102SOL    HW2 4407   5.031   2.815   0.753 -1.2696  1.1500 -0.4470
 1102SOL     MW 4408   5.090   2.867   0.715 -0.3330  0.6149  0.2403
 1103SOL     OW 4409   2.636   1.586   4.878  0.1020 -0.2865 -0.4225
 1103SOL    HW1 4410   2.666   1.672   4.906 -0.3767 -0.0068 -0.7609
 1103SOL    HW2 4411   2.699   1.558   4.812  0.9566 -0.7356  0.5548
 1103SOL     MW 4412   2.649   1.594   4.873  0.1526 -0.3093 -0.3365
 1104SOL     OW 4413   1.881   4.433   0.792 -0.0098  0.7558  0.0761
 1104SOL    HW1 4414   1.917   4.474   0.871 -1.2138  1.8493  0.0973
 1104SOL    HW2 4415   1.791   4.465   0.788  0.3162  1.5233 -2.2909
 1104SOL     MW 4416   1.873   4.443   0.802 -0.1280  1.0063 -0.2396
 1105SOL     OW 4417   1.211   1.538   0.386  0.0612  0.3136  0.2889
 1105SOL    HW1 4418   1.119   1.512   0.378 -0.2910  1.0244  1.5994
 1105SOL    HW2 4419   1.239   1.557   0.297 -0.4232 -1.9304 -0.3968
 1105SOL     MW 4420   1.202   1.537   0.373 -0.0514  0.1073  0.3730
 1106SOL     OW 4421   1.947   1.054   5.135  0.5623  0.2019 -0.3448
 1106SOL    HW1 4422   1.858   1.079   5.110  1.1013  0.6395 -1.9627
 1106SOL    HW2 4423   1.935   0.981   5.195 -0.9170  1.1971  0.6298
 1106SOL     MW 4424   1.934   1.047   5.140  0.4358  0.3947 -0.4313
 1107SOL     OW 4425   2.017   1.996   4.250  0.2563 -0.0441  0.4113
 1107SOL    HW1 4426   1.982   2.027   4.166  1.0753  2.2944  0.8755
 1107SOL    HW2 4427   1.940   1.985   4.305 -0.2713 -1.3751 -0.5220
 1107SOL     MW 4428   2.002   1.999   4.246  0.2955  0.0915  0.3481
 1108SOL     OW 4429   4.114   4.759   0.447  0.0850 -0.0265  0.6598
 1108SOL    HW1 4430   4.204   4.735   0.424  0.3682  2.0017 -0.5884
 1108SOL    HW2 4431   4.066   4.676   0.445  2.0393 -1.2962  2.2057
 1108SOL     MW 4432   4.120   4.744   0.444  0.3861  0.0756  0.6998
 1109SOL     OW 4433   1.073   0.665   3.043 -0.0159  0.2250 -0.4209
 1109SOL    HW1 4434   1.131   0.669   3.119 -2.2110 -0.0626  1.4024
 1109SOL    HW2 4435   1.048   0.573   3.037  1.4766 -0.0975 -2.6649
 1109SOL     MW 4436   1.077   0.653   3.052 -0.1105  0.1429 -0.4775
 1110SOL     OW 4437   4.910   1.388   2.962 -0.1316 -0.4713  0.3824
 1110SOL    HW1 4438   4.849   1.316   2.974 -0.3707 -0.7029 -1.8679
 1110SOL    HW2 4439   4.910   1.405   2.868  0.1651  2.2477  0.7790
 1110SOL     MW 4440   4.902   1.381   2.951 -0.1238 -0.1366  0.1329
 1111SOL     OW 4441   3.071   0.444   1.955 -0.0406  0.0035 -0.2466
 1111SOL    HW1 4442   3.147   0.503   1.949 -0.7456  0.8437 -1.4302
 1111SOL    HW2 4443   3.073   0.394   1.873 -0.0844 -0.8427  0.2577
 1111SOL     MW 4444   3.082   0.445   1.943 -0.1413  0.0027 -0.3380
 1112SOL     OW 4445   3.362   0.486   5.085  0.7330  0.3348 -0.2145
 1112SOL    HW1 4446   3.392   0.494   4.995  3.0006 -0.3750  0.4202
 1112SOL    HW2 4447   3.331   0.395   5.091 -0.6861  0.7700 -0.5966
 1112SOL     MW 4448   3.362   0.475   5.074  0.8472  0.2979 -0.1805
 1113SOL     OW 4449   0.113   4.019   3.196 -0.2964  0.6373 -0.0096
 1113SOL    HW1 4450   0.166   3.941   3.215  0.0107  0.7270 -0.4860
 1113SOL    HW2 4451   0.030   3.984   3.164 -0.5262  0.4948  0.7235
 1113SOL     MW 4452   0.109   4.004   3.194 -0.2860  0.6302  0.0250
 1114SOL     OW 4453   4.021   2.497   4.250 -0.1940  0.2375 -0.5450
 1114SOL    HW1 4454   3.932   2.476   4.280  0.5048 -0.4227  1.2644
 1114SOL    HW2 4455   4.055   2.413   4.216 -0.0228  0.3041 -0.5404
 1114SOL     MW 4456   4.014   2.483   4.250 -0.0769  0.1576 -0.3009
 1115SOL     OW 4457   0.631   0.048   0.616 -0.1264  0.8317  0.2376
 1115SOL    HW1 4458   0.670   0.111   0.556 -0.1114  0.6098  0.0140
 1115SOL    HW2 4459   0.705   0.010   0.663  0.1061 -0.8504 -1.4052
 1115SOL     MW 4460   0.646   0.051   0.614 -0.0931  0.5754 -0.0136
 1116SOL     OW 4461   4.961   4.352   3.940  0.2156 -0.3509 -0.4618
 1116SOL    HW1 4462   4.924   4.372   4.026  0.7675  0.9604 -0.5095
 1116SOL    HW2 4463   5.055   4.349   3.954  0.5711  2.6184 -1.4568
 1116SOL     MW 4464   4.968   4.354   3.954  0.3377  0.2252 -0.6021
 1117SOL     OW 4465   3.028   2.697   3.314 -0.3045 -1.1624  0.0040
 1117SOL    HW1 4466   3.030   2.717   3.408  0.8792  0.1413 -0.2586
 1117SOL    HW2 4467   3.010   2.781   3.273  0.0396 -1.5584 -0.9734
 1117SOL     MW 4468   3.026   2.711   3.321 -0.0989 -1.0402 -0.1629
 1118SOL     OW 4469   0.866   2.723   1.644 -0.1095  0.0029 -0.0579
 1118SOL    HW1 4470   0.875   2.714   1.739  1.4667  0.2627 -0.1539
 1118SOL    HW2 4471   0.889   2.637   1.609  1.9010  0.5745 -0.2953
 1118SOL     MW 4472   0.871   2.710   1.652  0.3732  0.1148 -0.1028
 1119SOL     OW 4473   3.951   3.233   5.345  0.3195 -0.0060  0.5196
 1119SOL    HW1 4474   3.884   3.171   5.317 -0.3629  0.5308  0.9005
 1119SOL    HW2 4475   3.912   3.319   5.327  2.0331  0.3605 -1.9021
 1119SOL     MW 4476   3.937   3.237   5.339  0.4583  0.1156  0.2450
 1120SOL     OW 4477   3.537   1.326   3.880 -0.2794  0.1110  0.0207
 1120SOL    HW1 4478   3.561   1.411   3.915  0.4324  0.3722 -1.0526
 1120SOL    HW2 4479   3.573   1.263   3.943 -1.6556  0.5804  1.3319
 1120SOL     MW 4480   3.545   1.329   3.893 -0.3688  0.2093  0.0528
 1121SOL     OW 4481   0.440   5.007   2.225 -0.1274  0.4885 -0.1656
 1121SOL    HW1 4482   0.454   5.101   2.212  2.0806  0.1923 -0.3366
 1121SOL    HW2 4483   0.476   4.990   2.312 -0.9473 -0.1351  0.0610
 1121SOL     MW 4484   0.447   5.018   2.235  0.0594  0.3647 -0.1581
 1122SOL     OW 4485   1.624   3.310   1.443 -0.5048 -0.4785  0.1180
 1122SOL    HW1 4486   1.705   3.342   1.483 -0.7043  1.1422 -0.6669
 1122SOL    HW2 4487   1.567   3.288   1.516 -0.7492  2.1036  0.8000
 1122SOL     MW 4488   1.628   3.312   1.458 -0.5645  0.0871  0.1042
 1123SOL     OW 4489   2.387   2.453   2.097 -0.4590  0.0689  0.4508
 1123SOL    HW1 4490   2.469   2.405   2.103 -0.6017 -0.4006 -0.9480
 1123SOL    HW2 4491   2.410   2.531   2.046 -0.7985  0.1394  0.4082
 1123SOL     MW 4492   2.401   2.457   2.091 -0.5239  0.0152  0.2568
 1124SOL     OW 4493   0.389   5.339   3.984 -0.1134 -0.1571 -0.1239
 1124SOL    HW1 4494   0.366   5.421   3.941  1.4087  0.2297 -0.2576
 1124SOL    HW2 4495   0.481   5.325   3.962  0.3317 -0.6546  1.8788
 1124SOL     MW 4496   0.398   5.348   3.975  0.1514 -0.1720  0.1276
 1125SOL     OW 4497   2.751   2.757   0.792  0.1356  0.4313 -0.1422
 1125SOL    HW1 4498   2.758   2.840   0.838  0.5050  0.4512 -0.2320
 1125SOL    HW2 4499   2.707   2.698   0.854 -3.5961  1.6492 -1.3121
 1125SOL     MW 4500   2.746   2.760   0.806 -0.3169  0.5979 -0.3117
 1126SOL     OW 4501   2.145   1.315   4.219 -0.5446 -0.7291  0.0891
 1126SOL    HW1 4502   2.172   1.279   4.303 -0.5711 -0.7093  0.1063
 1126SOL    HW2 4503   2.221   1.366   4.189 -0.5619 -0.6750  0.1361
 1126SOL     MW 4504   2.159   1.317   4.226 -0.5505 -0.7192  0.0978
 1127SOL     OW 4505   1.021   1.107   3.051  0.0156  0.0402  0.1127
 1127SOL    HW1 4506   0.986   1.178   3.105  2.0944  0.4349  1.0697
 1127SOL    HW2 4507   1.074   1.055   3.112  3.7114  1.3475 -1.6748
 1127SOL     MW 4508   1.024   1.110   3.067  0.7927  0.2692  0.0010
 1128SOL     OW 4509   5.427   4.101   4.132  0.1233 -0.2828 -0.1729
 1128SOL    HW1 4510   5.451   4.191   4.110  0.4770 -0.1438  0.7434
 1128SOL    HW2 4511   5.501   4.069   4.183 -0.3788 -0.8136  0.2278
 1128SOL     MW 4512   5.441   4.109   4.136  0.1033 -0.3355  0.0043
 1129SOL     OW 4513   4.074   3.848   1.978  0.0647  0.0879  0.9427
 1129SOL    HW1 4514   3.991   3.888   2.006  0.4980  1.7222  0.0288
 1129SOL    HW2 4515   4.124   3.920   1.941  1.8038 -0.9339  1.2050
 1129SOL     MW 4516   4.069   3.863   1.977  0.3571  0.1704  0.8550
 1130SOL     OW 4517   1.883   4.077   2.909  0.1239 -0.1352 -0.0671
 1130SOL    HW1 4518   1.912   4.034   2.829  1.8770  1.9424 -0.6638
 1130SOL    HW2 4519   1.822   4.015   2.950 -0.6901 -1.3386 -2.8799
 1130SOL     MW 4520   1.879   4.063   2.904  0.2503 -0.0175 -0.5259
 1131SOL     OW 4521   4.586   5.203   2.509 -0.0680 -0.4162  0.3830
 1131SOL    HW1 4522   4.613   5.241   2.592 -1.1776 -0.6971  0.8814
 1131SOL    HW2 4523   4.494   5.227   2.500  0.2701  0.4392 -1.2368
 1131SOL     MW 4524   4.577   5.212   2.519 -0.1719 -0.3389  0.2321
 1132SOL     OW 4525   1.540   5.240   4.471 -0.8509 -0.0609  0.1046
 1132SOL    HW1 4526   1.625   5.237   4.425 -1.4938  0.4340 -1.1747
 1132SOL    HW2 4527   1.479   5.272   4.405 -1.9361  0.1483  1.1839
 1132SOL     MW 4528   1.543   5.244   4.456 -1.0835  0.0338  0.0777
 1133SOL     OW 4529   4.210   1.709   4.189  0.6633  0.4518  0.3869
 1133SOL    HW1 4530   4.120   1.695   4.218  0.7946  0.4488  0.8022
 1133SOL    HW2 4531   4.212   1.678   4.098  0.4573 -0.3447  0.6488
 1133SOL     MW 4532   4.198   1.703   4.181  0.6533  0.3442  0.4780
 1134SOL     OW 4533  -0.010   0.224   4.808 -0.4368  0.6279  0.0358
 1134SOL    HW1 4534  -0.037   0.316   4.806 -1.4912  0.3559 -2.7064
 1134SOL    HW2 4535   0.072   0.222   4.759 -0.8873  0.0354 -0.7292
 1134SOL     MW 4536  -0.003   0.236   4.801 -0.6393  0.5116 -0.4362
 1135SOL     OW 4537   1.194   4.178   2.526  0.2258 -0.1808 -0.4390
 1135SOL    HW1 4538   1.187   4.256   2.582 -1.0082 -0.9351  0.5124
 1135SOL    HW2 4539   1.108   4.171   2.485  0.9105 -0.0226 -1.9580
 1135SOL     MW 4540   1.182   4.188   2.528  0.1519 -0.2610 -0.5154
 1136SOL     OW 4541   3.627   4.836   1.191  0.1763  0.4338  0.0129
 1136SOL    HW1 4542   3.718   4.807   1.187  0.3148  0.9568 -0.9590
 1136SOL    HW2 4543   3.629   4.925   1.156 -0.6386  0.6347  0.4495
 1136SOL     MW 4544   3.640   4.844   1.186  0.0853  0.5312 -0.0591
 1137SOL     OW 4545   4.690   2.696   5.417  0.8158 -0.4528 -0.1965
 1137SOL    HW1 4546   4.742   2.650   5.351  0.2228  0.4982 -1.3597
 1137SOL    HW2 4547   4.602   2.699   5.380  0.2013 -0.8979  1.1676
 1137SOL     MW 4548   4.685   2.690   5.403  0.6533 -0.3847 -0.1695
 1138SOL     OW 4549   0.275   4.138   3.626 -0.2945 -0.6278  0.6568
 1138SOL    HW1 4550   0.296   4.116   3.716 -0.8807 -1.3691  0.6185
 1138SOL    HW2 4551   0.309   4.065   3.574  0.9366  0.2572  0.1628
 1138SOL     MW 4552   0.282   4.125   3.631 -0.2077 -0.6085  0.5852
 1139SOL     OW 4553   0.097   1.032   3.218 -0.5578  0.2686 -0.2761
 1139SOL    HW1 4554   0.028   1.012   3.155  0.2019 -1.9399 -0.5014
 1139SOL    HW2 4555   0.178   1.031   3.167 -0.1206  0.3858  0.3954
 1139SOL     MW 4556   0.099   1.029   3.203 -0.3967 -0.0129 -0.2160
 1140SOL     OW 4557   4.199   1.891   4.620  0.1501  0.4070  0.0977
 1140SOL    HW1 4558   4.201   1.930   4.707  0.0465  2.2019 -0.6683
 1140SOL    HW2 4559   4.126   1.829   4.623  0.3687  0.1909  1.3816
 1140SOL     MW 4560   4.189   1.888   4.632  0.1656  0.6195  0.1674
 1141SOL     OW 4561   3.480   0.271   1.177 -0.1003  0.1952 -0.0453
 1141SOL    HW1 4562   3.385   0.264   1.167 -0.0168 -0.9891 -0.0922
 1141SOL    HW2 4563   3.498   0.234   1.263  0.3220  0.4467 -0.0204
 1141SOL     MW 4564   3.470   0.265   1.187 -0.0322  0.0697 -0.0483
 1142SOL     OW 4565   0.696   2.091   3.720  0.1046  0.0150  0.1034
 1142SOL    HW1 4566   0.606   2.090   3.752 -0.1090 -0.1267 -0.4852
 1142SOL    HW2 4567   0.696   2.030   3.646  0.6238  0.1951 -0.0512
 1142SOL     MW 4568   0.684   2.083   3.714  0.1457  0.0202  0.0034
 1143SOL     OW 4569   0.250   1.808   0.111 -0.3986 -0.0205 -0.0920
 1143SOL    HW1 4570   0.261   1.904   0.109  0.4716 -0.1078  0.0978
 1143SOL    HW2 4571   0.301   1.780   0.187  1.8076 -0.9156 -1.8039
 1143SOL     MW 4572   0.258   1.817   0.121  0.0154 -0.1527 -0.2968
 1144SOL     OW 4573   2.000   3.252   1.950 -0.5536 -0.4727 -0.2375
 1144SOL    HW1 4574   1.962   3.249   2.038 -1.9953 -1.0011 -0.8403
 1144SOL    HW2 4575   1.933   3.294   1.896 -1.0952 -2.9781 -1.6827
 1144SOL     MW 4576   1.986   3.257   1.954 -0.8205 -0.8810 -0.5131
 1145SOL     OW 4577   4.303   3.929   5.199  0.5486  0.0137 -0.0627
 1145SOL    HW1 4578   4.231   3.970   5.246  0.2363  0.3862 -0.8402
 1145SOL    HW2 4579   4.272   3.922   5.109  0.5901 -1.9488  0.0407
 1145SOL     MW 4580   4.289   3.934   5.193  0.5121 -0.2003 -0.1534
 1146SOL     OW 4581   2.329   1.223   0.656  0.0773  0.4040 -0.1684
 1146SOL    HW1 4582   2.424   1.233   0.660  0.0361  0.3651  2.7679
 1146SOL    HW2 4583   2.315   1.156   0.589  2.1615 -0.1044 -0.1583
 1146SOL     MW 4584   2.340   1.216   0.648  0.3523  0.3303  0.2281
 1147SOL     OW 4585   2.799   1.849   2.120  0.5039 -0.2821  0.2336
 1147SOL    HW1 4586   2.741   1.778   2.091 -0.4261  0.4059  0.3815
 1147SOL    HW2 4587   2.745   1.902   2.178  0.9238  1.0400 -0.5530
 1147SOL     MW 4588   2.784   1.847   2.124  0.4353 -0.0116  0.1477
 1148SOL     OW 4589   3.392   3.874   2.371 -0.0533 -0.6821 -0.2646
 1148SOL    HW1 4590   3.391   3.900   2.463 -0.2773 -0.6429 -0.2762
 1148SOL    HW2 4591   3.414   3.781   2.373 -0.1876 -0.7122 -0.1624
 1148SOL     MW 4592   3.395   3.865   2.383 -0.1016 -0.6809 -0.2524
 1149SOL     OW 4593   0.252   3.299   2.363 -0.3219  0.2341  0.0992
 1149SOL    HW1 4594   0.256   3.226   2.301  2.8383  0.6557 -0.3480
 1149SOL    HW2 4595   0.189   3.360   2.323 -2.7095 -1.9258  0.2772
 1149SOL     MW 4596   0.244   3.298   2.349 -0.2179  0.0002  0.0629
 1150SOL     OW 4597   1.286   3.667   0.018  0.5426  0.3993 -0.3981
 1150SOL    HW1 4598   1.277   3.576   0.047  0.0974  0.6375  0.2153
 1150SOL    HW2 4599   1.323   3.713   0.093 -1.6223  1.2361  0.2409
 1150SOL     MW 4600   1.290   3.661   0.032  0.1913  0.5440 -0.2296
 1151SOL     OW 4601   3.822   3.632   2.674  0.2559 -0.9755  0.6333
 1151SOL    HW1 4602   3.912   3.663   2.683 -0.1030  0.2135  0.3062
 1151SOL    HW2 4603   3.802   3.642   2.581 -0.5464 -0.2419  0.8688
 1151SOL     MW 4604   3.831   3.638   2.663  0.0996 -0.7168  0.6210
 1152SOL     OW 4605   2.224   3.419   1.976 -0.3897 -0.6066 -0.2032
 1152SOL    HW1 4606   2.147   3.364   1.987  0.3260 -1.2211  2.3218
 1152SOL    HW2 4607   2.253   3.439   2.065  1.5121  0.8402 -1.0669
 1152SOL     MW 4608   2.218   3.415   1.989 -0.0374 -0.4946  0.0203
 1153SOL     OW 4609   3.068   2.212   1.991 -0.0154  0.0504  0.5286
 1153SOL    HW1 4610   3.023   2.136   1.953  1.7319  0.1129 -1.9058
 1153SOL    HW2 4611   3.158   2.183   2.003  0.7805  1.7656 -0.8045
 1153SOL     MW 4612   3.074   2.197   1.987  0.3269  0.2897  0.0216
 1154SOL     OW 4613   5.519   2.060   0.031  0.7130 -0.0120  0.0860
 1154SOL    HW1 4614   5.512   1.983   0.088  0.8217 -2.5727 -3.0527
 1154SOL    HW2 4615   5.438   2.108   0.045 -0.4215 -1.9454  0.5287
 1154SOL     MW 4616   5.507   2.056   0.041  0.5750 -0.6168 -0.2768
 1155SOL     OW 4617   3.971   2.283   3.611  0.1943 -0.3967 -0.0418
 1155SOL    HW1 4618   3.982   2.285   3.706 -0.0121  1.2387 -0.0200
 1155SOL    HW2 4619   3.895   2.339   3.594  0.3954 -0.4367 -1.1824
 1155SOL     MW 4620   3.962   2.291   3.621  0.1936 -0.1820 -0.1923
 1156SOL     OW 4621   5.131   5.019   5.006 -0.2287  0.0940  0.1607
 1156SOL    HW1 4622   5.135   4.934   5.048 -2.7663 -0.6078 -0.8085
 1156SOL    HW2 4623   5.116   5.081   5.078  0.4957 -0.4206  0.7583
 1156SOL     MW 4624   5.129   5.016   5.021 -0.4727 -0.0697  0.1107
 1157SOL     OW 4625   5.257   3.860   5.032 -0.2702 -0.0792  0.1091
 1157SOL    HW1 4626   5.273   3.788   4.971 -0.0490 -0.0190  0.0974
 1157SOL    HW2 4627   5.191   3.825   5.093  0.4289 -0.5731  0.5933
 1157SOL     MW 4628   5.250   3.846   5.032 -0.1464 -0.1375  0.1727
 1158SOL     OW 4629   0.461   2.422   1.611  0.1134 -0.8209 -0.3073
 1158SOL    HW1 4630   0.435   2.502   1.565  0.0459 -0.6105  0.0904
 1158SOL    HW2 4631   0.470   2.449   1.702  0.7903 -1.1088 -0.2857
 1158SOL     MW 4632   0.459   2.436   1.617  0.1954 -0.8313 -0.2509
 1159SOL     OW 4633   1.321   2.234   4.164  0.1501  0.1541 -0.3533
 1159SOL    HW1 4634   1.271   2.159   4.197 -0.1038 -0.2196 -1.5282
 1159SOL    HW2 4635   1.323   2.295   4.237  0.3234 -0.9709  0.6259
 1159SOL     MW 4636   1.314   2.232   4.179  0.1392 -0.0476 -0.3797
 1160SOL     OW 4637   0.429   4.423   2.603 -0.0360 -0.8461 -0.1484
 1160SOL    HW1 4638   0.436   4.335   2.641  1.8929 -1.1040 -0.9887
 1160SOL    HW2 4639   0.443   4.409   2.509 -1.9199  0.1146 -0.6135
 1160SOL     MW 4640   0.432   4.409   2.595 -0.0299 -0.7515 -0.3241
 1161SOL     OW 4641   5.248   3.945   2.618  0.2282  0.1636 -0.7336
 1161SOL    HW1 4642   5.248   4.040   2.630  2.2601  0.0957  0.2480
 1161SOL    HW2 4643   5.177   3.928   2.557 -2.5286  1.9314  1.7279
 1161SOL     MW 4644   5.239   3.955   2.612  0.1306  0.3924 -0.2703
 1162SOL     OW 4645   4.153   1.026   3.942 -0.3447  0.0519  0.0182
 1162SOL    HW1 4646   4.107   1.109   3.959  0.7219  0.9946 -1.4612
 1162SOL    HW2 4647   4.094   0.959   3.977 -1.1883  1.4218  1.3766
 1162SOL     MW 4648   4.139   1.028   3.949 -0.3147  0.3631  0.0019
 1163SOL     OW 4649   4.373   0.011   0.118  0.4972 -0.6150  0.1182
 1163SOL    HW1 4650   4.431   0.031   0.192 -0.1333  3.9049 -0.2919
 1163SOL    HW2 4651   4.414   0.056   0.044 -2.6636  1.6695 -0.4423
 1163SOL     MW 4652   4.387   0.020   0.118 -0.0130  0.3008 -0.0124
 1164SOL     OW 4653   3.908   1.826   3.674 -0.2635  0.0525  0.2496
 1164SOL    HW1 4654   3.956   1.782   3.603  1.4745  1.3260  0.5643
 1164SOL    HW2 4655   3.976   1.854   3.735 -1.6424 -0.1154  1.9405
 1164SOL     MW 4656   3.924   1.824   3.672 -0.2152  0.2013  0.5195
 1165SOL     OW 4657   5.248   4.947   4.487 -0.4581 -0.1037  0.1635
 1165SOL    HW1 4658   5.277   4.860   4.459 -0.3158 -0.3653  1.0962
 1165SOL    HW2 4659   5.307   4.970   4.559  0.0814  1.1541 -0.6369
 1165SOL     MW 4660   5.260   4.939   4.493 -0.3663  0.0304  0.1813
 1166SOL     OW 4661   4.017   3.648   1.807  0.4209 -0.2423 -0.0501
 1166SOL    HW1 4662   3.925   3.652   1.779  0.4408  2.1755  0.0689
 1166SOL    HW2 4663   4.031   3.730   1.854  2.1277 -1.4449  1.6606
 1166SOL     MW 4664   4.006   3.659   1.809  0.6533 -0.0787  0.1962
 1167SOL     OW 4665   1.953   0.481   1.544 -0.3679  0.1398  0.2895
 1167SOL    HW1 4666   2.000   0.536   1.606 -0.7026  1.2151 -0.3908
 1167SOL    HW2 4667   1.896   0.426   1.598 -1.8347  2.1554  0.8974
 1167SOL     MW 4668   1.952   0.481   1.560 -0.6103  0.5558  0.2798
 1168SOL     OW 4669   1.369   1.886   4.711 -0.2726 -0.3948 -0.1030
 1168SOL    HW1 4670   1.405   1.930   4.634  2.1584 -2.1597 -0.1262
 1168SOL    HW2 4671   1.404   1.797   4.706  0.7893 -0.3749  3.4532
 1168SOL     MW 4672   1.379   1.880   4.700  0.1975 -0.6297  0.3725
 1169SOL     OW 4673   5.274   3.737   4.206 -0.4639  0.3098  0.4101
 1169SOL    HW1 4674   5.266   3.642   4.209 -0.2567  0.3090  2.3383
 1169SOL    HW2 4675   5.341   3.757   4.272  0.2443  1.7264 -0.6853
 1169SOL     MW 4676   5.282   3.727   4.216 -0.3407  0.5003  0.5222
 1170SOL     OW 4677   4.964   3.013   1.225 -0.6808 -0.0567 -0.2784
 1170SOL    HW1 4678   4.995   3.078   1.163 -0.1815  0.2691  0.3027
 1170SOL    HW2 4679   4.951   2.934   1.172  0.7319 -0.0833 -0.6256
 1170SOL     MW 4680   4.966   3.011   1.210 -0.4235 -0.0165 -0.2469
 1171SOL     OW 4681   4.764   1.349   3.964 -0.0928  0.0998  0.7787
 1171SOL    HW1 4682   4.760   1.324   3.871 -0.4902 -3.1168  1.5307
 1171SOL    HW2 4683   4.858   1.347   3.985 -0.0890 -0.4737  0.7253
 1171SOL     MW 4684   4.776   1.345   3.954 -0.1458 -0.4103  0.8727
 1172SOL     OW 4685   5.320   0.696   2.560  0.6176 -0.5072  0.1769
 1172SOL    HW1 4686   5.389   0.634   2.585  1.0561 -0.0536  0.1260
 1172SOL    HW2 4687   5.340   0.775   2.610 -0.4844 -0.7056  0.9596
 1172SOL     MW 4688   5.332   0.698   2.570  0.5283 -0.4729  0.2754
 1173SOL     OW 4689   1.519   2.816   1.315 -0.2489  0.7598  0.8252
 1173SOL    HW1 4690   1.579   2.763   1.262  0.2461  0.6223  1.5155
 1173SOL    HW2 4691   1.433   2.778   1.298  0.0245  0.1310  0.8197
 1173SOL     MW 4692   1.516   2.804   1.306 -0.1455  0.6567  0.9174
 1174SOL     OW 4693   0.568   5.170   5.381 -0.0462 -0.0720 -0.1066
 1174SOL    HW1 4694   0.493   5.221   5.411 -0.2250 -0.3271 -0.1108
 1174SOL    HW2 4695   0.573   5.187   5.287 -0.6067 -0.6905 -0.2587
 1174SOL     MW 4696   0.558   5.179   5.372 -0.1457 -0.1895 -0.1276
 1175SOL     OW 4697   4.734   0.198   4.761  0.6973  0.5943 -0.3311
 1175SOL    HW1 4698   4.738   0.130   4.829 -0.2260 -0.5557 -1.3730
 1175SOL    HW2 4699   4.809   0.178   4.704  1.2996  1.3804  0.1677
 1175SOL     MW 4700   4.745   0.186   4.763  0.6541  0.5453 -0.4042
 1176SOL     OW 4701   2.261   2.589   2.527  0.0121 -0.1720  0.0382
 1176SOL    HW1 4702   2.235   2.588   2.620 -3.7671 -0.2469 -0.8421
 1176SOL    HW2 4703   2.196   2.646   2.485 -0.6750 -2.9315 -3.0628
 1176SOL     MW 4704   2.249   2.596   2.534 -0.5890 -0.5535 -0.4976
 1177SOL     OW 4705   1.887   1.290   4.135 -0.0658 -0.0413  0.0267
 1177SOL    HW1 4706   1.843   1.356   4.188  0.0294 -1.1085  1.4677
 1177SOL    HW2 4707   1.980   1.302   4.154 -0.0022 -0.2096 -0.1679
 1177SOL     MW 4708   1.894   1.301   4.145 -0.0444 -0.2076  0.1945
 1178SOL     OW 4709   0.845   1.379   2.259 -0.0623  0.0785 -0.6447
 1178SOL    HW1 4710   0.851   1.475   2.258 -1.6537  0.2067 -0.5949
 1178SOL    HW2 4711   0.844   1.357   2.352 -1.4213  0.1817 -0.6089
 1178SOL     MW 4712   0.846   1.389   2.272 -0.4594  0.1097 -0.6332
 1179SOL     OW 4713   3.758   0.460   1.010 -0.0617  0.1525  0.0229
 1179SOL    HW1 4714   3.731   0.369   1.017  0.2871 -0.0768 -1.2941
 1179SOL    HW2 4715   3.691   0.509   1.058 -0.9982 -0.6819 -0.3847
 1179SOL     MW 4716   3.745   0.454   1.017 -0.1408  0.0094 -0.2092
 1180SOL     OW 4717   3.598   1.841   0.487 -0.1507  0.0451 -0.4452
 1180SOL    HW1 4718   3.661   1.855   0.417  1.3811 -1.0935  0.6283
 1180SOL    HW2 4719   3.603   1.921   0.540  0.5665 -0.1298 -0.2439
 1180SOL     MW 4720   3.607   1.854   0.485  0.1520 -0.1317 -0.2737
 1181SOL     OW 4721   2.238   1.771   0.917  0.0082  0.3063  0.2268
 1181SOL    HW1 4722   2.313   1.716   0.943 -1.1649 -1.2456  0.4869
 1181SOL    HW2 4723   2.275   1.858   0.907  1.8034 -0.3565  0.6338
 1181SOL     MW 4724   2.253   1.775   0.919  0.0919  0.0082  0.3166
 1182SOL     OW 4725   1.051   4.028   0.713 -0.5312 -0.0178  0.1198
 1182SOL    HW1 4726   1.100   3.972   0.773 -0.8107 -0.5251 -0.1196
 1182SOL    HW2 4727   0.984   3.971   0.676 -1.0845  0.5875  0.1829
 1182SOL     MW 4728   1.049   4.012   0.716 -0.6433 -0.0046  0.0960
 1183SOL     OW 4729   4.753   0.788   1.323  0.6082 -0.1063  0.5333
 1183SOL    HW1 4730   4.687   0.722   1.300  0.3375  0.1669  0.5240
 1183SOL    HW2 4731   4.836   0.742   1.313  0.4139 -0.5086  0.7210
 1183SOL     MW 4732   4.755   0.773   1.319  0.5456 -0.1236  0.5573
 1184SOL     OW 4733   3.584   1.800   2.234 -0.5614 -0.5636 -0.0441
 1184SOL    HW1 4734   3.579   1.871   2.298 -0.5319 -1.0068  0.4603
 1184SOL    HW2 4735   3.500   1.803   2.189 -1.1150 -1.0817  0.9257
 1184SOL     MW 4736   3.572   1.810   2.237 -0.6319 -0.6930  0.1543
 1185SOL     OW 4737   3.262   1.205   1.597  0.6033  0.1591  0.3066
 1185SOL    HW1 4738   3.337   1.153   1.625  1.6811  0.1842 -2.2451
 1185SOL    HW2 4739   3.298   1.294   1.586 -0.0267  0.3736 -0.0466
 1185SOL     MW 4740   3.277   1.210   1.599  0.6635  0.1913 -0.0843
 1186SOL     OW 4741   5.116   1.172   3.836  0.1549 -0.4652  0.0783
 1186SOL    HW1 4742   5.191   1.202   3.785 -0.1763 -2.4195 -1.6567
 1186SOL    HW2 4743   5.140   1.084   3.865 -1.8213 -1.5592 -1.4079
 1186SOL     MW 4744   5.129   1.164   3.833 -0.1557 -0.8755 -0.3552
 1187SOL     OW 4745   4.032   4.551   4.286  0.2407  0.0395 -0.1289
 1187SOL    HW1 4746   4.080   4.595   4.216 -0.6504 -1.0536 -1.4891
 1187SOL    HW2 4747   4.069   4.463   4.289 -0.2995 -0.1863  0.1935
 1187SOL     MW 4748   4.043   4.545   4.277  0.0481 -0.1380 -0.2685
 1188SOL     OW 4749   2.683   2.050   4.834  0.2207  0.7028  0.4719
 1188SOL    HW1 4750   2.773   2.082   4.833 -0.3151  2.3239 -1.2277
 1188SOL    HW2 4751   2.632   2.122   4.868 -0.5621  0.1897  0.4147
 1188SOL     MW 4752   2.688   2.064   4.838  0.0432  0.8519  0.2355
 1189SOL     OW 4753   0.209   0.897   1.029 -0.9263 -0.3392  0.0246
 1189SOL    HW1 4754   0.194   0.901   0.935  0.0369  0.4067 -0.1099
 1189SOL    HW2 4755   0.241   0.808   1.045 -1.9344 -0.7588 -0.2058
 1189SOL     MW 4756   0.211   0.885   1.019 -0.9323 -0.2953 -0.0245
 1190SOL     OW 4757   0.501   3.802   2.811  0.3069 -0.2222  0.2268
 1190SOL    HW1 4758   0.524   3.722   2.858  0.9543 -0.7830 -0.9836
 1190SOL    HW2 4759   0.408   3.792   2.791 -0.0484  0.1679  1.6306
 1190SOL     MW 4760   0.492   3.790   2.815  0.3462 -0.2452  0.2528
 1191SOL     OW 4761   2.199   5.117   0.638 -0.1434  0.3311 -0.3231
 1191SOL    HW1 4762   2.136   5.157   0.696  1.6036  0.8680  1.3064
 1191SOL    HW2 4763   2.151   5.101   0.557 -2.1792  1.1893  0.6579
 1191SOL     MW 4764   2.184   5.120   0.635 -0.1823  0.5189  0.0282
 1192SOL     OW 4765   2.999   4.844   1.671 -0.4396 -0.2734  0.3903
 1192SOL    HW1 4766   3.082   4.862   1.715 -0.2396  0.3566 -0.2221
 1192SOL    HW2 4767   2.933   4.883   1.728 -0.2225  0.1320  0.3677
 1192SOL     MW 4768   3.001   4.852   1.685 -0.3834 -0.1341  0.3049
 1193SOL     OW 4769   0.492   4.270   1.651  0.6974 -0.1128  0.2277
 1193SOL    HW1 4770   0.531   4.325   1.719  0.4562  1.2095 -0.6630
 1193SOL    HW2 4771   0.447   4.332   1.594 -0.5333 -1.3617 -0.2020
 1193SOL     MW 4772   0.491   4.286   1.653  0.4993 -0.1029  0.0500
 1194SOL     OW 4773   3.739   3.275   1.075  0.0194  0.3543  0.4824
 1194SOL    HW1 4774   3.651   3.237   1.073  0.4899 -0.7580  0.2896
 1194SOL    HW2 4775   3.798   3.200   1.067  0.9657  1.2177 -1.3088
 1194SOL     MW 4776   3.735   3.260   1.073  0.2101  0.3208  0.2154
 1195SOL     OW 4777   2.344   2.025   2.148  0.3200  0.3348  0.3688
 1195SOL    HW1 4778   2.430   2.012   2.188  0.6802  0.8809 -0.2071
 1195SOL    HW2 4779   2.332   1.947   2.093  1.2499  1.0713 -0.9313
 1195SOL     MW 4780   2.354   2.013   2.146  0.4936  0.5074  0.1163
 1196SOL     OW 4781   3.921   2.157   1.802 -0.0318  0.6023 -0.4930
 1196SOL    HW1 4782   3.967   2.148   1.885 -0.1622 -0.6625 -0.5490
 1196SOL    HW2 4783   3.948   2.244   1.770  1.6166  0.2714 -0.1072
 1196SOL     MW 4784   3.931   2.168   1.809  0.1725  0.3875 -0.4486
 1197SOL     OW 4785   4.762   3.993   1.692  0.0919 -0.6477  0.1402
 1197SOL    HW1 4786   4.686   4.008   1.748 -0.6809 -1.5889 -0.6145
 1197SOL    HW2 4787   4.834   3.977   1.753 -0.2066  0.6946  0.8691
 1197SOL     MW 4788   4.762   3.993   1.708 -0.0523 -0.5937  0.1367
 1198SOL     OW 4789   1.996   3.510   4.899  0.2030 -0.3331 -0.2388
 1198SOL    HW1 4790   1.942   3.550   4.968 -0.8542 -1.3895 -0.4288
 1198SOL    HW2 4791   2.056   3.452   4.946  1.7113  1.3360  0.0349
 1198SOL     MW 4792   1.997   3.508   4.915  0.2637 -0.2507 -0.2275
 1199SOL     OW 4793   4.434   5.211   4.155 -0.3265 -0.0051 -0.5232
 1199SOL    HW1 4794   4.517   5.226   4.199  0.0272 -0.5043 -1.0095
 1199SOL    HW2 4795   4.377   5.280   4.187 -0.1043 -0.3954  0.7729
 1199SOL     MW 4796   4.437   5.222   4.165 -0.2490 -0.1248 -0.4142
 1200SOL     OW 4797   4.713   3.866   4.587 -0.1287  0.1697  0.6871
 1200SOL    HW1 4798   4.719   3.862   4.491 -0.7206  1.5450  0.5737
 1200SOL    HW2 4799   4.623   3.840   4.606  0.2510 -1.0182  0.9602
 1200SOL     MW 4800   4.702   3.862   4.576 -0.1573  0.1949  0.7086
 1201SOL     OW 4801   1.680   1.246   3.852  0.0631 -0.3237 -0.7424
 1201SOL    HW1 4802   1.662   1.336   3.877  1.9986  0.2086 -1.1123
 1201SOL    HW2 4803   1.668   1.244   3.757 -0.8927 -0.7099 -0.6249
 1201SOL     MW 4804   1.676   1.258   3.842  0.1949 -0.3040 -0.7764
 1202SOL     OW 4805   2.238   0.905   0.126  0.0748  0.4711 -0.0167
 1202SOL    HW1 4806   2.288   0.981   0.157 -0.0121  0.2032  0.8120
 1202SOL    HW2 4807   2.209   0.930   0.039 -2.4118  2.6151  1.2667
 1202SOL     MW 4808   2.241   0.919   0.119 -0.2716  0.7236  0.2675
 1203SOL     OW 4809   0.317   4.564   4.246  0.1012 -0.0364  0.5805
 1203SOL    HW1 4810   0.296   4.655   4.227  0.5962  0.2121  1.1737
 1203SOL    HW2 4811   0.233   4.519   4.246  0.0191 -0.0936 -2.1691
 1203SOL     MW 4812   0.303   4.570   4.243  0.1568 -0.0107  0.2903
 1204SOL     OW 4813   0.968   1.050   4.181  0.2482  0.8348 -0.2097
 1204SOL    HW1 4814   0.908   1.025   4.110 -0.6471  2.0148  0.1105
 1204SOL    HW2 4815   1.054   1.057   4.138  0.1477 -0.6058 -0.7244
 1204SOL     MW 4816   0.972   1.047   4.165  0.1142  0.7997 -0.2359
 1205SOL     OW 4817   3.602   4.799   2.777 -0.0794  0.1056  0.3558
 1205SOL    HW1 4818   3.667   4.744   2.819  0.4724  0.4546 -0.0288
 1205SOL    HW2 4819   3.536   4.816   2.845  0.0946 -0.4632  0.6659
 1205SOL     MW 4820   3.602   4.794   2.791  0.0183  0.0760  0.3458
 1206SOL     OW 4821   2.627   0.445   0.063  0.2016 -0.3410 -0.1694
 1206SOL    HW1 4822   2.678   0.489   0.132  1.3466  0.8113 -1.6731
 1206SOL    HW2 4823   2.612   0.514  -0.002 -2.1763 -1.0086 -0.3897
 1206SOL     MW 4824   2.632   0.460   0.064  0.0357 -0.2757 -0.4014
 1207SOL     OW 4825   2.543   5.396   4.721 -0.1186  0.0345  0.3859
 1207SOL    HW1 4826   2.495   5.327   4.766  0.7733 -1.1166 -0.3742
 1207SOL    HW2 4827   2.633   5.388   4.754  0.2157  0.1481 -0.4722
 1207SOL     MW 4828   2.549   5.386   4.732  0.0464 -0.1051  0.1681
 1208SOL     OW 4829   4.759   4.089   3.280  0.5197  0.0426 -0.3046
 1208SOL    HW1 4830   4.794   4.015   3.229 -0.5107 -1.1300  0.6198
 1208SOL    HW2 4831   4.831   4.116   3.337 -0.4187 -3.7883  3.1988
 1208SOL     MW 4832   4.773   4.083   3.281  0.2547 -0.6308  0.2913
 1209SOL     OW 4833   1.956   3.042   2.350  0.2496 -0.3952  0.3679
 1209SOL    HW1 4834   1.892   3.035   2.420 -2.1666  0.9250 -1.5516
 1209SOL    HW2 4835   1.921   2.987   2.280  1.3376  0.2035 -0.6938
 1209SOL     MW 4836   1.943   3.034   2.350  0.0708 -0.1369 -0.0333
 1210SOL     OW 4837   1.260   1.366   1.028  0.0464 -0.0242 -0.3204
 1210SOL    HW1 4838   1.309   1.445   1.052 -0.9123  0.6408 -0.5044
 1210SOL    HW2 4839   1.241   1.324   1.112  0.0096  0.2737 -0.1791
 1210SOL     MW 4840   1.264   1.371   1.043 -0.0876  0.1054 -0.3261
 1211SOL     OW 4841   1.266   5.194   4.185 -0.3455 -0.0605  0.0598
 1211SOL    HW1 4842   1.223   5.196   4.271  0.3542  0.9085  0.3986
 1211SOL    HW2 4843   1.197   5.217   4.123 -1.3910 -2.7255  0.0897
 1211SOL     MW 4844   1.251   5.197   4.188 -0.3920 -0.2887  0.1094
 1212SOL     OW 4845   1.853   1.557   2.197  0.3004 -0.3378  0.3111
 1212SOL    HW1 4846   1.783   1.621   2.215  0.5930 -0.1161  0.6919
 1212SOL    HW2 4847   1.857   1.552   2.102  1.0978  1.1582  0.2248
 1212SOL     MW 4848   1.844   1.565   2.187  0.4471 -0.1067  0.3507
 1213SOL     OW 4849   3.808   4.569   3.134  0.2604 -0.5045 -0.3625
 1213SOL    HW1 4850   3.873   4.549   3.201  1.0787  0.3965 -0.8557
 1213SOL    HW2 4851   3.745   4.626   3.178  0.5910 -0.2236 -0.2443
 1213SOL     MW 4852   3.809   4.574   3.149  0.4150 -0.3455 -0.4130
 1214SOL     OW 4853   0.829   1.924   2.531 -0.0881  0.5417  0.1315
 1214SOL    HW1 4854   0.826   2.016   2.557 -0.1289  0.4468  0.4606
 1214SOL    HW2 4855   0.744   1.889   2.558  0.1025  0.2979  0.4116
 1214SOL     MW 4856   0.817   1.932   2.538 -0.0680  0.4961  0.2134
 1215SOL     OW 4857   3.446   2.375   0.102 -0.1427  0.3024 -0.6010
 1215SOL    HW1 4858   3.506   2.415   0.040  0.3583 -0.6059 -0.7179
 1215SOL    HW2 4859   3.380   2.442   0.120  1.0136  1.3769 -0.3113
 1215SOL     MW 4860   3.445   2.389   0.096  0.0803  0.3247 -0.5777
 1216SOL     OW 4861   2.356   4.899   2.035  0.1182 -0.1510 -0.4866
 1216SOL    HW1 4862   2.404   4.833   2.085 -0.4725  1.0793  1.8584
 1216SOL    HW2 4863   2.405   4.908   1.954  2.2140 -0.9771  0.6191
 1216SOL     MW 4864   2.369   4.891   2.031  0.3208 -0.0966 -0.0222
 1217SOL     OW 4865   0.734   0.598   4.589  0.3323  0.1457 -0.1226
 1217SOL    HW1 4866   0.695   0.542   4.522  0.4696 -1.2085  0.8874
 1217SOL    HW2 4867   0.741   0.684   4.547 -0.8436 -0.3257 -1.3672
 1217SOL     MW 4868   0.729   0.602   4.574  0.1925 -0.1000 -0.1542
 1218SOL     OW 4869   2.466   4.817   2.607  0.3779  0.0275 -0.3416
 1218SOL    HW1 4870   2.481   4.778   2.520 -1.1138  0.1208 -0.6769
 1218SOL    HW2 4871   2.419   4.899   2.589  2.0821  1.2385  0.4492
 1218SOL     MW 4872   2.462   4.823   2.593  0.4065  0.2030 -0.2803
 1219SOL     OW 4873   0.393   2.023   3.544 -0.5615 -0.1949  0.3964
 1219SOL    HW1 4874   0.404   2.061   3.631  0.1302 -1.3328  0.8290
 1219SOL    HW2 4875   0.329   1.953   3.556  1.6326 -2.2976  0.6635
 1219SOL     MW 4876   0.386   2.019   3.557 -0.1731 -0.6310  0.4906
 1220SOL     OW 4877   4.295   3.937   4.167  1.1559 -0.2298  0.1785
 1220SOL    HW1 4878   4.353   3.889   4.226  0.7922 -2.7216 -1.3504
 1220SOL    HW2 4879   4.345   3.943   4.085  0.2051 -0.2192 -0.4136
 1220SOL     MW 4880   4.310   3.931   4.164  0.9790 -0.5637 -0.1069
 1221SOL     OW 4881   1.333   4.679   2.349 -0.1405  0.0537 -0.1535
 1221SOL    HW1 4882   1.425   4.702   2.367  0.2168 -1.2950 -0.1644
 1221SOL    HW2 4883   1.284   4.722   2.419  0.4779  0.9090 -0.2275
 1221SOL     MW 4884   1.339   4.688   2.361 -0.0092 -0.0127 -0.1649
 1222SOL     OW 4885   3.832   1.159   4.644 -0.2337  0.2744  0.5422
 1222SOL    HW1 4886   3.737   1.165   4.657 -0.4308 -0.7043 -0.3172
 1222SOL    HW2 4887   3.852   1.066   4.656  0.3586  0.2010 -0.8387
 1222SOL     MW 4888   3.822   1.147   4.648 -0.1805  0.1328  0.2407
 1223SOL     OW 4889   3.852   1.038   1.095  0.0999  0.6082 -0.2439
 1223SOL    HW1 4890   3.880   1.118   1.050 -1.3436  1.5621  0.4784
 1223SOL    HW2 4891   3.860   1.059   1.188 -0.0990 -0.1788 -0.0451
 1223SOL     MW 4892   3.857   1.051   1.102 -0.1212  0.6307 -0.1200
 1224SOL     OW 4893   4.819   5.424   5.121  0.1401 -0.5200 -0.0370
 1224SOL    HW1 4894   4.738   5.399   5.166  0.4824  0.2893  1.0782
 1224SOL    HW2 4895   4.860   5.488   5.179  0.2599  1.1424 -1.8609
 1224SOL     MW 4896   4.814   5.429   5.135  0.2023 -0.1874 -0.1323
 1225SOL     OW 4897   2.990   0.055   0.049 -0.2902 -0.1190  0.4374
 1225SOL    HW1 4898   2.896   0.052   0.027 -0.0190 -2.3871 -0.7171
 1225SOL    HW2 4899   2.997   0.004   0.129  0.0023 -0.2343  0.3373
 1225SOL     MW 4900   2.978   0.048   0.057 -0.2143 -0.4398  0.2685
 1226SOL     OW 4901   2.861   5.342   4.449  0.4533  0.3302  0.1565
 1226SOL    HW1 4902   2.927   5.312   4.511  0.3988  1.2310  0.6782
 1226SOL    HW2 4903   2.874   5.437   4.445 -1.2753  0.6410  0.8419
 1226SOL     MW 4904   2.871   5.351   4.457  0.2133  0.4932  0.3190
 1227SOL     OW 4905   3.369   0.568   2.374  0.2164 -0.3434  0.5543
 1227SOL    HW1 4906   3.437   0.501   2.374  0.3171 -0.2655 -0.4941
 1227SOL    HW2 4907   3.293   0.526   2.333  0.2020  0.0948  0.1110
 1227SOL     MW 4908   3.368   0.553   2.368  0.2280 -0.2739  0.3536
 1228SOL     OW 4909   1.518   4.686   0.208 -0.5634 -0.0853  0.4284
 1228SOL    HW1 4910   1.612   4.696   0.223 -0.1994 -0.9396 -1.0393
 1228SOL    HW2 4911   1.482   4.663   0.293  0.4441  0.8739  1.1492
 1228SOL     MW 4912   1.525   4.685   0.221 -0.3788 -0.0712  0.3279
 1229SOL     OW 4913   4.554   2.452   4.540 -0.2163 -0.0311  1.1169
 1229SOL    HW1 4914   4.519   2.417   4.459  2.2527  1.6523 -0.8267
 1229SOL    HW2 4915   4.613   2.384   4.572 -0.3003 -0.2258  0.8613
 1229SOL     MW 4916   4.557   2.438   4.534  0.1047  0.1693  0.8209
 1230SOL     OW 4917   0.204   3.607   1.993 -0.4416  0.5244  0.4232
 1230SOL    HW1 4918   0.187   3.698   2.016 -0.8544  0.3971  0.6246
 1230SOL    HW2 4919   0.297   3.594   2.014 -0.3353  0.9445  0.2273
 1230SOL     MW 4920   0.214   3.617   1.999 -0.4828  0.5638  0.4239
 1231SOL     OW 4921   0.594   3.898   3.773  0.2899 -0.1242  0.0936
 1231SOL    HW1 4922   0.586   3.855   3.688  0.5308  0.3371 -0.1620
 1231SOL    HW2 4923   0.654   3.842   3.823 -1.1386 -1.3037  0.5518
 1231SOL     MW 4924   0.601   3.885   3.769  0.1301 -0.2209  0.1209
 1232SOL     OW 4925   3.125   1.753   5.310  0.2331 -0.1592 -0.7897
 1232SOL    HW1 4926   3.106   1.688   5.242  1.5206 -1.9390  0.4563
 1232SOL    HW2 4927   3.060   1.735   5.378  0.4123  0.0718 -0.5575
 1232SOL     MW 4928   3.114   1.742   5.310  0.4305 -0.3676 -0.5907
 1233SOL     OW 4929   1.255   4.555   1.319 -0.1308  0.4208  0.4263
 1233SOL    HW1 4930   1.340   4.565   1.363 -0.1924 -1.2208  1.0176
 1233SOL    HW2 4931   1.229   4.644   1.297  2.0809  0.9284 -0.4400
 1233SOL     MW 4932   1.263   4.568   1.322  0.1586  0.2682  0.3893
 1234SOL     OW 4933   4.410   1.326   0.911  0.0192  0.2594 -0.1899
 1234SOL    HW1 4934   4.493   1.373   0.902 -0.1251  0.6755  0.5606
 1234SOL    HW2 4935   4.426   1.241   0.870  0.8443  0.2955  0.0426
 1234SOL     MW 4936   4.424   1.321   0.904  0.1108  0.3203 -0.0576
 1235SOL     OW 4937   4.804   3.125   4.151 -0.6687 -0.2514 -0.1952
 1235SOL    HW1 4938   4.754   3.086   4.222 -1.5893 -0.2010 -0.7989
 1235SOL    HW2 4939   4.765   3.212   4.139 -0.7990 -0.4156 -1.0279
 1235SOL     MW 4940   4.792   3.132   4.159 -0.8101 -0.2667 -0.3885
 1236SOL     OW 4941   3.208   1.786   2.632  0.1894 -0.4334 -0.0320
 1236SOL    HW1 4942   3.170   1.855   2.686  0.4773 -0.1251 -0.2151
 1236SOL    HW2 4943   3.199   1.707   2.684 -0.6554 -0.3622 -0.0485
 1236SOL     MW 4944   3.202   1.785   2.646  0.1145 -0.3823 -0.0589
 1237SOL     OW 4945   2.126   3.258   2.453 -0.1157 -0.1005 -0.5531
 1237SOL    HW1 4946   2.074   3.213   2.387  0.8126  0.2890 -1.5726
 1237SOL    HW2 4947   2.205   3.287   2.407  0.4311  0.4266  0.6553
 1237SOL     MW 4948   2.130   3.256   2.438  0.0828  0.0228 -0.5277
 1238SOL     OW 4949   5.335   1.915   1.660  0.0883 -0.0654 -0.8522
 1238SOL    HW1 4950   5.342   1.838   1.716 -0.4548  1.3149  1.2529
 1238SOL    HW2 4951   5.270   1.891   1.593 -0.9750 -1.0457  0.4803
 1238SOL     MW 4952   5.327   1.901   1.658 -0.1279 -0.0115 -0.3896
 1239SOL     OW 4953   4.591   3.773   4.230  0.2247  0.2510 -0.0921
 1239SOL    HW1 4954   4.507   3.755   4.273  0.0006 -1.4151 -1.1415
 1239SOL    HW2 4955   4.566   3.813   4.146  0.5505  0.9184  0.1201
 1239SOL     MW 4956   4.576   3.776   4.224  0.2384  0.1166 -0.2048
 1240SOL     OW 4957   0.657   4.265   4.318  0.7058  0.4561  0.4599
 1240SOL    HW1 4958   0.738   4.238   4.360  0.2609 -0.6009  0.6754
 1240SOL    HW2 4959   0.591   4.263   4.387  0.0991 -0.6773 -0.1083
 1240SOL     MW 4960   0.659   4.261   4.333  0.5643  0.1613  0.4124
 1241SOL     OW 4961   2.797   3.954   0.604 -0.2777 -0.2979 -0.1158
 1241SOL    HW1 4962   2.871   3.978   0.549 -0.4006 -0.1798 -0.2332
 1241SOL    HW2 4963   2.737   4.029   0.596 -1.8864 -1.6874 -2.6316
 1241SOL     MW 4964   2.799   3.967   0.595 -0.5107 -0.4690 -0.4702
 1242SOL     OW 4965   3.334   5.310   3.529 -0.4401  0.5451 -0.3521
 1242SOL    HW1 4966   3.377   5.242   3.581 -3.2276 -1.6225 -0.6433
 1242SOL    HW2 4967   3.404   5.347   3.475  1.7473  0.0516  1.9769
 1242SOL     MW 4968   3.349   5.306   3.529 -0.5208  0.1870 -0.0778
 1243SOL     OW 4969   4.546   0.403   4.785 -0.4871 -0.8242  0.1313
 1243SOL    HW1 4970   4.464   0.371   4.747 -1.2069 -2.9542  3.0868
 1243SOL    HW2 4971   4.613   0.343   4.753 -0.4115 -0.2909 -0.7251
 1243SOL     MW 4972   4.544   0.391   4.776 -0.5738 -1.0391  0.4138
 1244SOL     OW 4973   2.935   3.308   1.439 -0.0967  0.2495  0.0601
 1244SOL    HW1 4974   2.926   3.217   1.411  1.4488  0.4606 -1.2809
 1244SOL    HW2 4975   2.984   3.303   1.521  0.4048 -0.1360 -0.2511
 1244SOL     MW 4976   2.941   3.295   1.446  0.1788  0.2261 -0.1623
 1245SOL     OW 4977   1.955   5.129   3.584  0.2946 -0.3684  0.2919
 1245SOL    HW1 4978   1.866   5.101   3.562 -0.1287 -0.9519  2.4761
 1245SOL    HW2 4979   1.956   5.223   3.569 -0.7704 -0.3235  0.4478
 1245SOL     MW 4980   1.943   5.138   3.579  0.0943 -0.4409  0.6069
 1246SOL     OW 4981   4.042   3.893   3.378 -0.0564  0.0319  0.3133
 1246SOL    HW1 4982   4.085   3.807   3.377 -0.1546 -0.0272  0.8437
 1246SOL    HW2 4983   3.957   3.878   3.337  1.2237  0.6049 -2.8432
 1246SOL     MW 4984   4.037   3.879   3.372  0.1027  0.1010 -0.0401
 1247SOL     OW 4985   0.694   3.170   0.064 -0.3953  0.3543 -0.2463
 1247SOL    HW1 4986   0.655   3.257   0.055 -2.2172 -0.0369  2.5362
 1247SOL    HW2 4987   0.662   3.121  -0.012 -1.9195  1.2796 -0.2427
 1247SOL     MW 4988   0.685   3.175   0.053 -0.8456  0.4262  0.1287
 1248SOL     OW 4989   0.656   4.890   4.572 -0.4556  0.4000  0.1777
 1248SOL    HW1 4990   0.617   4.804   4.588  2.2554 -0.8283  0.6578
 1248SOL    HW2 4991   0.749   4.873   4.564 -0.0039  3.1120 -1.4232
 1248SOL     MW 4992   0.663   4.876   4.573 -0.0300  0.5997  0.0269
 1249SOL     OW 4993   2.030   0.373   0.477  0.1145 -0.2313 -0.0060
 1249SOL    HW1 4994   2.008   0.280   0.475  1.1865 -0.4874 -1.7175
 1249SOL    HW2 4995   2.062   0.388   0.566  0.0799 -1.5382  0.2435
 1249SOL     MW 4996   2.031   0.362   0.489  0.2541 -0.4417 -0.2027
 1250SOL     OW 4997   4.510   1.998   4.111  0.2679  0.0929 -0.1219
 1250SOL    HW1 4998   4.587   2.049   4.136 -0.7216  0.6196  2.0966
 1250SOL    HW2 4999   4.533   1.908   4.131 -0.5309  0.4877  3.2907
 1250SOL     MW 5000   4.523   1.993   4.117  0.0273  0.2169  0.6359
 1251SOL     OW 5001   0.066   1.341   0.864  0.2839  0.7921 -0.2005
 1251SOL    HW1 5002   0.056   1.313   0.773 -0.3112 -0.1491  0.1474
 1251SOL    HW2 5003   0.161   1.346   0.877  0.3773  0.5165 -0.7460
 1251SOL     MW 5004   0.078   1.338   0.853  0.2164  0.6283 -0.2271
 1252SOL     OW 5005   1.225   2.012   1.877 -0.3896 -0.0614  0.0773
 1252SOL    HW1 5006   1.249   2.090   1.827  2.0546  0.0959  1.3665
 1252SOL    HW2 5007   1.133   2.025   1.899 -0.3698  1.8402 -0.8172
 1252SOL     MW 5008   1.216   2.024   1.873 -0.0580  0.2157  0.1304
 1253SOL     OW 5009   5.236   1.197   5.145 -0.1519  0.1218  0.2478
 1253SOL    HW1 5010   5.314   1.166   5.191  0.4552  1.2305 -0.0068
 1253SOL    HW2 5011   5.266   1.272   5.093 -1.0892 -0.3044 -0.9685
 1253SOL     MW 5012   5.250   1.203   5.144 -0.1963  0.2137  0.0499
 1254SOL     OW 5013   1.797   4.127   1.240  0.3256 -0.0592  0.2820
 1254SOL    HW1 5014   1.816   4.130   1.334  0.1303 -1.4299  0.3848
 1254SOL    HW2 5015   1.709   4.089   1.235  0.5540 -0.5139 -0.4725
 1254SOL     MW 5016   1.787   4.122   1.252  0.3301 -0.3049  0.1943
 1255SOL     OW 5017   5.318   3.094   2.940 -0.5301  0.2481  0.4231
 1255SOL    HW1 5018   5.344   3.012   2.897  1.1961  1.2871 -0.6533
 1255SOL    HW2 5019   5.356   3.163   2.885 -1.1480  1.7483  1.7916
 1255SOL     MW 5020   5.327   3.092   2.927 -0.3810  0.5898  0.4624
 1256SOL     OW 5021   2.828   0.800   1.062  0.2018  0.4046 -0.1561
 1256SOL    HW1 5022   2.853   0.712   1.089  2.6819  0.9354 -0.4522
 1256SOL    HW2 5023   2.732   0.798   1.058  0.1604 -2.0635  0.4652
 1256SOL     MW 5024   2.818   0.788   1.065  0.5300  0.1439 -0.1123
 1257SOL     OW 5025   0.513   3.129   3.797 -0.7370  0.0276 -0.0809
 1257SOL    HW1 5026   0.454   3.073   3.747 -2.0259  1.2514  0.0354
 1257SOL    HW2 5027   0.565   3.174   3.731 -1.6577  0.7939 -0.3034
 1257SOL     MW 5028   0.512   3.127   3.781 -1.0344  0.2954 -0.0952
 1258SOL     OW 5029   2.386   0.029   0.689 -0.0922 -0.2031  0.2782
 1258SOL    HW1 5030   2.460   0.083   0.715 -0.2309  0.0602  0.1358
 1258SOL    HW2 5031   2.399   0.014   0.596 -0.1362 -0.2862  0.2855
 1258SOL     MW 5032   2.398   0.034   0.680 -0.1168 -0.1789  0.2600
 1259SOL     OW 5033   2.450   0.083   2.058 -0.0753 -0.3866 -0.0156
 1259SOL    HW1 5034   2.381   0.082   1.992 -0.6236 -0.4415  0.5508
 1259SOL    HW2 5035   2.448  -0.005   2.096  1.1081 -0.7769 -0.8061
 1259SOL     MW 5036   2.440   0.071   2.055  0.0102 -0.4465 -0.0458
 1260SOL     OW 5037   5.294   1.144   3.459  0.0780  0.4776 -0.5259
 1260SOL    HW1 5038   5.377   1.178   3.425  0.0090  1.9787  0.7019
 1260SOL    HW2 5039   5.309   1.050   3.467  1.8269  0.7570  0.0323
 1260SOL     MW 5040   5.308   1.136   3.455  0.3041  0.7172 -0.2855
 1261SOL     OW 5041   2.679   3.205   4.423 -0.0628 -0.1045  0.0525
 1261SOL    HW1 5042   2.690   3.131   4.363  1.3550 -0.2226  0.4194
 1261SOL    HW2 5043   2.594   3.242   4.399 -0.4735 -1.3976 -0.6297
 1261SOL     MW 5044   2.669   3.200   4.412  0.0727 -0.2944  0.0101
 1262SOL     OW 5045   3.088   2.557   4.531 -0.0808 -0.7486  0.5293
 1262SOL    HW1 5046   3.176   2.521   4.541 -0.5709 -1.3371  3.4292
 1262SOL    HW2 5047   3.088   2.637   4.583 -0.8213  0.1470 -0.7831
 1262SOL     MW 5048   3.099   2.563   4.539 -0.2464 -0.7072  0.7429
 1263SOL     OW 5049   3.487   5.473   3.120  0.8582  0.4012  0.6406
 1263SOL    HW1 5050   3.565   5.518   3.086 -0.4219  2.1232 -0.2290
 1263SOL    HW2 5051   3.436   5.543   3.160 -1.3096 -0.2256 -0.8728
 1263SOL     MW 5052   3.491   5.489   3.121  0.3942  0.5486  0.3199
 1264SOL     OW 5053   5.111   0.894   2.611 -0.2758  0.7829  0.3191
 1264SOL    HW1 5054   5.112   0.809   2.656  2.2490  1.4147  1.6162
 1264SOL    HW2 5055   5.022   0.927   2.625 -1.3273 -1.5888 -0.2161
 1264SOL     MW 5056   5.099   0.887   2.619 -0.0775  0.5488  0.4216
 1265SOL     OW 5057   0.776   0.975   4.411 -0.2458  0.1825  0.0721
 1265SOL    HW1 5058   0.861   0.934   4.393 -0.2821  0.4784 -0.8444
 1265SOL    HW2 5059   0.716   0.901   4.421 -0.4415 -0.0546 -2.2375
 1265SOL     MW 5060   0.780   0.960   4.410 -0.2770  0.1904 -0.3621
 1266SOL     OW 5061   3.574   2.285   0.350 -0.1873  0.1306  0.1582
 1266SOL    HW1 5062   3.644   2.351   0.354 -0.5187  0.4778  0.3379
 1266SOL    HW2 5063   3.526   2.307   0.270 -0.5722  0.3930  0.4569
 1266SOL     MW 5064   3.577   2.297   0.339 -0.2837  0.2126  0.2226
 1267SOL     OW 5065   4.322   4.928   2.417  0.3347 -0.2126 -0.1558
 1267SOL    HW1 5066   4.258   4.912   2.486 -0.3820  0.0056 -0.7473
 1267SOL    HW2 5067   4.329   5.023   2.413 -0.4118 -0.1832 -1.0629
 1267SOL     MW 5068   4.314   4.939   2.426  0.1378 -0.1792 -0.3575
 1268SOL     OW 5069   3.216   5.305   4.813 -0.0500 -0.0765  0.1118
 1268SOL    HW1 5070   3.215   5.392   4.772 -0.1880 -0.5390 -0.9017
 1268SOL    HW2 5071   3.306   5.275   4.804 -0.1316 -0.2730 -0.0503
 1268SOL     MW 5072   3.228   5.313   4.806 -0.0795 -0.1652 -0.0465
 1269SOL     OW 5073   1.011   1.467   4.207 -0.8155 -0.0208 -0.2333
 1269SOL    HW1 5074   1.009   1.426   4.120  0.2769  0.4275 -0.4845
 1269SOL    HW2 5075   0.994   1.395   4.267  0.6140 -0.7752 -0.6981
 1269SOL     MW 5076   1.008   1.452   4.203 -0.4761 -0.0620 -0.3297
 1270SOL     OW 5077   5.028   0.452   3.538  0.4155 -0.3030 -0.6370
 1270SOL    HW1 5078   5.059   0.361   3.543 -0.0577 -0.3960  1.3118
 1270SOL    HW2 5079   5.100   0.499   3.497  1.4509 -1.2418  0.0347
 1270SOL     MW 5080   5.042   0.446   3.533  0.4912 -0.4418 -0.2844
 1271SOL     OW 5081   2.227   1.776   3.227  0.4019  0.2908 -0.1551
 1271SOL    HW1 5082   2.221   1.832   3.304  0.6751 -1.2386  1.0327
 1271SOL    HW2 5083   2.298   1.814   3.174 -0.1119  1.6315  0.1016
 1271SOL     MW 5084   2.236   1.789   3.230  0.3695  0.2654  0.0393
 1272SOL     OW 5085   1.594   1.065   3.376 -0.2231 -0.4160  0.1893
 1272SOL    HW1 5086   1.585   0.980   3.419 -1.1814  0.2675  1.4051
 1272SOL    HW2 5087   1.623   1.124   3.445 -1.3588  0.6215 -0.1951
 1272SOL     MW 5088   1.597   1.062   3.391 -0.5049 -0.1844  0.3012
 1273SOL     OW 5089   1.438   3.852   4.931 -0.1618  0.5351 -0.8235
 1273SOL    HW1 5090   1.356   3.879   4.971 -1.0891 -1.9628 -0.8407
 1273SOL    HW2 5091   1.470   3.781   4.988  0.7688 -0.0957 -2.0732
 1273SOL     MW 5092   1.431   3.846   4.944 -0.1613  0.1141 -0.9940
 1274SOL     OW 5093   2.376   4.524   4.493  0.5439 -0.2181 -0.0667
 1274SOL    HW1 5094   2.306   4.466   4.464  0.6811  0.2440 -1.3812
 1274SOL    HW2 5095   2.456   4.484   4.459  0.9065 -0.5254  1.0789
 1274SOL     MW 5096   2.378   4.511   4.485  0.6112 -0.1972 -0.0894
 1275SOL     OW 5097   3.577   2.207   3.692  0.4774  0.6983 -0.0519
 1275SOL    HW1 5098   3.515   2.134   3.705 -0.4834  1.7463  1.5248
 1275SOL    HW2 5099   3.658   2.164   3.663 -0.0822 -1.0097  0.7502
 1275SOL     MW 5100   3.580   2.191   3.690  0.2728  0.6094  0.2682
 1276SOL     OW 5101   3.191   0.860   0.240 -0.1730 -0.0709  0.0336
 1276SOL    HW1 5102   3.212   0.775   0.200  0.2816  0.2533 -0.4286
 1276SOL    HW2 5103   3.119   0.895   0.189  1.1020  0.8296 -1.2238
 1276SOL     MW 5104   3.184   0.853   0.228  0.0597  0.0939 -0.1978
 1277SOL     OW 5105   2.903   2.006   5.360 -0.4197 -0.0064  0.4490
 1277SOL    HW1 5106   2.976   2.011   5.298 -0.4274  0.7515  0.4967
 1277SOL    HW2 5107   2.845   1.939   5.324 -1.3915  1.7355 -1.4297
 1277SOL     MW 5108   2.905   1.998   5.347 -0.5515  0.3300  0.2025
 1278SOL     OW 5109   4.579   1.320   2.093  0.0807 -0.2242 -0.2184
 1278SOL    HW1 5110   4.539   1.390   2.144  0.0030 -0.6159  0.2690
 1278SOL    HW2 5111   4.630   1.365   2.026  0.5523  0.3076  0.4833
 1278SOL     MW 5112   4.581   1.335   2.091  0.1337 -0.2054 -0.0584
 1279SOL     OW 5113   0.868   1.840   3.131 -0.4399  0.0329 -0.1271
 1279SOL    HW1 5114   0.787   1.799   3.102 -0.5074  1.0477 -1.4747
 1279SOL    HW2 5115   0.840   1.916   3.183 -0.3882  0.8425 -1.2543
 1279SOL     MW 5116   0.853   1.845   3.134 -0.4420  0.2785 -0.4601
 1280SOL     OW 5117   2.234   2.451   5.065  0.3918 -0.2281  0.1076
 1280SOL    HW1 5118   2.201   2.536   5.039 -0.3805 -0.4555  0.3199
 1280SOL    HW2 5119   2.297   2.427   4.996  0.1992  0.2600 -0.2372
 1280SOL     MW 5120   2.238   2.459   5.052  0.2619 -0.1930  0.0898
 1281SOL     OW 5121   0.051   4.639   5.095 -0.2236  0.0306 -0.1489
 1281SOL    HW1 5122   0.139   4.676   5.099  0.5833 -1.4558 -2.2547
 1281SOL    HW2 5123   0.006   4.690   5.028 -0.7369  0.2645  0.3590
 1281SOL     MW 5124   0.057   4.651   5.087 -0.1841 -0.1379 -0.3639
 1282SOL     OW 5125   2.948   5.220   3.530 -0.4667  0.3850  0.1659
 1282SOL    HW1 5126   3.017   5.241   3.594 -0.4464 -0.1149  0.3160
 1282SOL    HW2 5127   2.894   5.154   3.574 -1.3864  1.1870  0.2682
 1282SOL     MW 5128   2.950   5.214   3.545 -0.5877  0.4257  0.1999
 1283SOL     OW 5129   3.290   3.929   3.624  0.4104 -0.0081  0.0033
 1283SOL    HW1 5130   3.273   3.846   3.670  1.9280  0.3991  1.3902
 1283SOL    HW2 5131   3.329   3.902   3.541 -1.3235 -0.7188 -0.6527
 1283SOL     MW 5132   3.293   3.914   3.619  0.3813 -0.0490  0.1017
 1284SOL     OW 5133   0.879   1.539   2.623 -0.1317 -0.3975 -0.3803
 1284SOL    HW1 5134   0.934   1.583   2.558 -1.0354  0.5272 -0.5637
 1284SOL    HW2 5135   0.940   1.497   2.683  0.7813  1.0219 -0.2782
 1284SOL     MW 5136   0.894   1.539   2.622 -0.1304 -0.0820 -0.3912
 1285SOL     OW 5137   2.613   1.650   1.982  0.3320  0.1217  0.2211
 1285SOL    HW1 5138   2.658   1.568   2.001  1.1214  0.3624 -0.5162
 1285SOL    HW2 5139   2.623   1.661   1.887 -1.8087 -0.0988 -0.0634
 1285SOL     MW 5140   2.621   1.641   1.972  0.1501  0.1244  0.0836
 1286SOL     OW 5141   0.293   2.886   0.535 -0.2511 -0.1572  0.2196
 1286SOL    HW1 5142   0.296   2.791   0.548 -0.7683 -0.3303 -0.7706
 1286SOL    HW2 5143   0.222   2.899   0.472 -1.2393  1.0426  1.5219
 1286SOL     MW 5144   0.284   2.875   0.528 -0.4537 -0.0191  0.2616
 1287SOL     OW 5145   1.033   3.718   4.893  0.3323  0.5637  0.5923
 1287SOL    HW1 5146   0.963   3.697   4.955 -0.5760 -0.8626 -0.8455
 1287SOL    HW2 5147   1.094   3.773   4.943 -0.1728 -0.8075  2.8515
 1287SOL     MW 5148   1.032   3.722   4.908  0.1421  0.1872  0.7028
 1288SOL     OW 5149   0.173   5.161   3.980 -0.0199 -0.1553  0.2628
 1288SOL    HW1 5150   0.261   5.198   3.982 -0.2156  0.3047  0.3327
 1288SOL    HW2 5151   0.119   5.229   3.941 -0.1406 -0.8652 -0.8497
 1288SOL     MW 5152   0.178   5.175   3.975 -0.0625 -0.1890  0.1225
 1289SOL     OW 5153   3.447   1.265   4.413 -0.1880 -0.3350 -0.4035
 1289SOL    HW1 5154   3.450   1.197   4.346 -0.8599  0.6765 -1.5045
 1289SOL    HW2 5155   3.478   1.344   4.368  1.0119  0.0226  0.9645
 1289SOL     MW 5156   3.452   1.266   4.398 -0.1169 -0.1507 -0.3676
 1290SOL     OW 5157   0.971   2.524   1.051  0.1196  0.1940  0.1412
 1290SOL    HW1 5158   0.915   2.523   0.973 -0.9023  1.0590  0.8293
 1290SOL    HW2 5159   1.056   2.491   1.021 -0.0259  1.2436 -1.5195
 1290SOL     MW 5160   0.975   2.520   1.037 -0.0375  0.4517  0.0103
 1291SOL     OW 5161   0.335   1.833   5.211  0.1172 -0.1136  0.3684
 1291SOL    HW1 5162   0.243   1.809   5.196  0.4724 -0.8447 -0.7170
 1291SOL    HW2 5163   0.362   1.779   5.285 -0.3952  0.3256  0.8955
 1291SOL     MW 5164   0.326   1.823   5.219  0.0960 -0.1529  0.2933
 1292SOL     OW 5165   0.668   3.533   3.702 -0.0752 -0.2247  0.1740
 1292SOL    HW1 5166   0.645   3.581   3.623  1.1339 -0.4409 -0.3344
 1292SOL    HW2 5167   0.729   3.590   3.749  2.9012 -1.8489 -1.3532
 1292SOL     MW 5168   0.673   3.547   3.698  0.4881 -0.4724 -0.0999
 1293SOL     OW 5169   1.960   5.203   0.804  0.0876  0.3704  0.1621
 1293SOL    HW1 5170   1.990   5.251   0.881  1.7391  0.3490 -0.4263
 1293SOL    HW2 5171   1.916   5.125   0.839  0.3856  0.6143  1.0856
 1293SOL     MW 5172   1.958   5.199   0.819  0.3499  0.4004  0.2072
 1294SOL     OW 5173   2.013   5.033   5.489  0.5525  0.2783 -0.4081
 1294SOL    HW1 5174   1.979   4.944   5.484  0.0725  0.5080 -1.8862
 1294SOL    HW2 5175   2.104   5.026   5.458  1.6288 -0.1655  2.5409
 1294SOL     MW 5176   2.021   5.020   5.484  0.6328  0.2495 -0.2102
 1295SOL     OW 5177   2.481   4.061   1.516  0.0794 -0.0265 -0.2229
 1295SOL    HW1 5178   2.539   4.082   1.588  1.6809  0.0752 -1.4928
 1295SOL    HW2 5179   2.469   4.144   1.470  0.4939 -0.4214 -1.0621
 1295SOL     MW 5180   2.487   4.075   1.519  0.3507 -0.0659 -0.5067
 1296SOL     OW 5181   2.867   4.144   2.454  0.2079  0.6231  0.2829
 1296SOL    HW1 5182   2.847   4.210   2.520  2.0556  0.9179  0.5893
 1296SOL    HW2 5183   2.875   4.062   2.504 -2.6077 -0.0246 -0.1570
 1296SOL     MW 5184   2.865   4.142   2.470  0.0776  0.5756  0.2649
 1297SOL     OW 5185   3.138   3.338   2.375  0.0416 -0.3861 -0.5811
 1297SOL    HW1 5186   3.136   3.309   2.466  0.8369 -0.0569 -0.4472
 1297SOL    HW2 5187   3.139   3.256   2.324  0.1835 -0.5770 -0.2753
 1297SOL     MW 5188   3.138   3.323   2.381  0.1677 -0.3675 -0.5219
 1298SOL     OW 5189   0.356   5.205   1.653  0.4988 -0.0121  0.0584
 1298SOL    HW1 5190   0.312   5.289   1.668 -0.0886 -0.3034 -0.0049
 1298SOL    HW2 5191   0.322   5.148   1.721  1.1235 -0.1200  0.2850
 1298SOL     MW 5192   0.346   5.209   1.664  0.5038 -0.0658  0.0804
 1299SOL     OW 5193   0.981   2.594   0.539  0.1130  0.3786  0.1435
 1299SOL    HW1 5194   0.977   2.685   0.510  0.6171  0.2610 -0.2924
 1299SOL    HW2 5195   0.951   2.543   0.464  2.8290 -0.0328 -0.7721
 1299SOL     MW 5196   0.976   2.599   0.525  0.5464  0.3074 -0.0384
 1300SOL     OW 5197   0.114   4.281   3.961  0.9638  0.5001 -0.3009
 1300SOL    HW1 5198   0.087   4.319   3.877  1.3617 -1.7068 -1.4912
 1300SOL    HW2 5199   0.192   4.229   3.940 -0.5170 -2.3728  0.8198
 1300SOL     MW 5200   0.121   4.279   3.947  0.8181 -0.1835 -0.3103
 1301SOL     OW 5201   1.454   4.418   0.598 -0.1341  0.1439 -0.0022
 1301SOL    HW1 5202   1.516   4.364   0.549  1.5469  0.7375  1.3700
 1301SOL    HW2 5203   1.382   4.359   0.620  0.7820 -1.0462 -0.1265
 1301SOL     MW 5204   1.453   4.403   0.595  0.2154  0.0636  0.1657
 1302SOL     OW 5205   1.202   1.043   4.781  0.0243  0.1382 -0.1230
 1302SOL    HW1 5206   1.182   1.091   4.861 -0.0790  2.3887 -1.4215
 1302SOL    HW2 5207   1.245   0.963   4.811 -1.5445  0.0717  2.2383
 1302SOL     MW 5208   1.205   1.038   4.796 -0.2007  0.4321  0.0200
 1303SOL     OW 5209   5.292   4.505   4.202 -0.1801 -0.1266 -0.1746
 1303SOL    HW1 5210   5.287   4.438   4.134  3.0423 -0.9360  0.2022
 1303SOL    HW2 5211   5.203   4.511   4.237 -0.7039 -4.1475 -0.3129
 1303SOL     MW 5212   5.279   4.497   4.198  0.1831 -0.7767 -0.1425
 1304SOL     OW 5213   0.349   4.696   0.213 -0.5183  0.3536 -0.3032
 1304SOL    HW1 5214   0.403   4.775   0.214  1.0914 -0.7035 -0.0999
 1304SOL    HW2 5215   0.333   4.679   0.120 -0.4294  0.6149 -0.3662
 1304SOL     MW 5216   0.354   4.704   0.200 -0.2897  0.2465 -0.2843
 1305SOL     OW 5217   2.788   1.938   1.656 -0.3262 -0.2327 -0.0714
 1305SOL    HW1 5218   2.831   1.968   1.736 -0.7056 -1.1288  0.4778
 1305SOL    HW2 5219   2.860   1.920   1.596 -0.0549  0.8158 -0.0804
 1305SOL     MW 5220   2.803   1.940   1.658 -0.3407 -0.2122  0.0013
 1306SOL     OW 5221   0.261   1.387   4.176  0.1118  0.0120 -0.2689
 1306SOL    HW1 5222   0.175   1.355   4.149 -0.4120  0.0661  1.2359
 1306SOL    HW2 5223   0.262   1.479   4.148 -0.3615  0.0434 -0.1811
 1306SOL     MW 5224   0.250   1.395   4.168 -0.0224  0.0235 -0.0545
 1307SOL     OW 5225   2.871   2.332   5.143 -0.2991  0.3124  0.0404
 1307SOL    HW1 5226   2.814   2.409   5.143  0.3592  0.8252  1.0089
 1307SOL    HW2 5227   2.844   2.283   5.221  0.3238  0.3731  0.2996
 1307SOL     MW 5228   2.860   2.336   5.153 -0.1267  0.3896  0.2056
 1308SOL     OW 5229   3.316   1.138   2.000 -0.1313  0.3101 -0.3352
 1308SOL    HW1 5230   3.296   1.143   2.093 -0.8583 -0.8480 -0.4076
 1308SOL    HW2 5231   3.299   1.227   1.967  0.7759  0.9035  0.7304
 1308SOL     MW 5232   3.311   1.151   2.008 -0.1071  0.2341 -0.2015
 1309SOL     OW 5233   5.472   1.021   0.547  0.1927  0.0745  0.0531
 1309SOL    HW1 5234   5.560   1.011   0.583  1.8159 -0.3641 -3.5517
 1309SOL    HW2 5235   5.426   0.941   0.571  2.0969 -1.4458 -1.0621
 1309SOL     MW 5236   5.477   1.009   0.555  0.6674 -0.1892 -0.5822
 1310SOL     OW 5237   4.528   0.270   2.766  0.4417 -0.2992  0.1689
 1310SOL    HW1 5238   4.601   0.260   2.828  0.9363  0.5872 -0.2534
 1310SOL    HW2 5239   4.552   0.345   2.713  0.9487 -2.1362 -2.3649
 1310SOL     MW 5240   4.541   0.279   2.767  0.5765 -0.4271 -0.2289
 1311SOL     OW 5241   3.957   1.330   1.502 -0.3150  0.1207  0.0552
 1311SOL    HW1 5242   4.033   1.388   1.501  0.5245 -0.9671 -0.7129
 1311SOL    HW2 5243   3.924   1.335   1.592  0.4571  0.8548  0.3048
 1311SOL     MW 5244   3.962   1.339   1.514 -0.0981  0.0731 -0.0146
 1312SOL     OW 5245   1.003   1.721   3.345 -0.0279  0.7448  0.2813
 1312SOL    HW1 5246   1.082   1.775   3.354  0.3008  0.7091 -1.8252
 1312SOL    HW2 5247   0.949   1.768   3.281 -2.5118  1.6023  2.8352
 1312SOL     MW 5248   1.006   1.735   3.337 -0.3179  0.8554  0.3415
 1313SOL     OW 5249   0.578   2.416   3.367 -0.0490  0.0377 -0.3125
 1313SOL    HW1 5250   0.600   2.410   3.460 -3.2589 -1.0442  0.5063
 1313SOL    HW2 5251   0.662   2.407   3.321  1.4512 -0.8425  2.4112
 1313SOL     MW 5252   0.593   2.414   3.373 -0.2791 -0.2264  0.1643
 1314SOL     OW 5253   1.158   4.740   0.589  0.4577  0.4347  0.1441
 1314SOL    HW1 5254   1.079   4.746   0.535  1.4284  2.0788 -1.1882
 1314SOL    HW2 5255   1.156   4.820   0.643  1.4568  0.7538 -0.2733
 1314SOL     MW 5256   1.147   4.752   0.589  0.7228  0.6989 -0.0913
 1315SOL     OW 5257   0.452   4.931   5.465  0.2409  0.0885 -0.0317
 1315SOL    HW1 5258   0.443   4.955   5.557 -0.2435  0.6465 -0.2207
 1315SOL    HW2 5259   0.490   5.008   5.423 -1.5800  0.6756 -0.6864
 1315SOL     MW 5260   0.456   4.944   5.472 -0.0694  0.2426 -0.1452
 1316SOL     OW 5261   4.176   1.698   0.385  0.5405  0.0667  0.3650
 1316SOL    HW1 5262   4.269   1.677   0.376  0.0368 -2.1352 -0.5372
 1316SOL    HW2 5263   4.132   1.613   0.385 -1.4559  1.0199  1.3350
 1316SOL     MW 5264   4.182   1.684   0.383  0.2041 -0.1013  0.3741
 1317SOL     OW 5265   5.197   4.103   3.824 -0.5414 -0.3027 -0.0968
 1317SOL    HW1 5266   5.231   4.020   3.857 -0.9559 -0.1508  0.7328
 1317SOL    HW2 5267   5.102   4.093   3.826 -0.5830 -0.1507 -0.9009
 1317SOL     MW 5268   5.189   4.090   3.828 -0.6028 -0.2618 -0.0934
 1318SOL     OW 5269   0.366   2.526   5.197 -0.0750 -0.5169  0.0242
 1318SOL    HW1 5270   0.351   2.554   5.106 -0.3965  1.8595  0.7311
 1318SOL    HW2 5271   0.461   2.531   5.207 -0.0477 -0.6679 -0.1487
 1318SOL     MW 5272   0.377   2.531   5.186 -0.1146 -0.2174  0.0960
 1319SOL     OW 5273   2.412   3.514   0.711 -0.2472  0.2074 -0.3589
 1319SOL    HW1 5274   2.320   3.490   0.724  0.5937 -2.0406  2.5572
 1319SOL    HW2 5275   2.424   3.593   0.763 -0.4851  0.4698 -0.6960
 1319SOL     MW 5276   2.401   3.521   0.720 -0.1660 -0.0598 -0.0118
 1320SOL     OW 5277   0.929   1.625   0.950  0.1184 -0.2442 -0.4033
 1320SOL    HW1 5278   0.998   1.654   0.891 -0.1220  0.4141 -0.3651
 1320SOL    HW2 5279   0.950   1.533   0.967  1.3168  0.0897  0.0744
 1320SOL     MW 5280   0.941   1.616   0.944  0.2473 -0.1107 -0.3338
 1321SOL     OW 5281   3.303   1.689   5.040 -0.0846 -0.2453 -0.5123
 1321SOL    HW1 5282   3.349   1.663   4.960  1.0571 -0.9844  0.3627
 1321SOL    HW2 5283   3.334   1.628   5.107 -1.2993  0.1293  0.4209
 1321SOL     MW 5284   3.314   1.677   5.038 -0.0944 -0.2943 -0.2690
 1322SOL     OW 5285   0.768   0.907   4.017 -0.0282  0.3347 -0.0431
 1322SOL    HW1 5286   0.795   0.837   3.958  0.9686  0.2158  0.5429
 1322SOL    HW2 5287   0.762   0.984   3.961 -1.8300 -0.3260 -0.8379
 1322SOL     MW 5288   0.771   0.908   4.002 -0.1365  0.2298 -0.0712
 1323SOL     OW 5289   2.738   0.919   4.941  0.0669 -0.6108 -0.2186
 1323SOL    HW1 5290   2.750   1.009   4.912 -0.1216 -0.1215  1.1566
 1323SOL    HW2 5291   2.803   0.869   4.893  2.9057  0.8574  1.8262
 1323SOL     MW 5292   2.748   0.924   4.930  0.4236 -0.3474  0.2417
 1324SOL     OW 5293   0.833   0.182   4.733  0.0218  0.1315  0.4313
 1324SOL    HW1 5294   0.739   0.182   4.713  0.1621  1.0431 -0.2736
 1324SOL    HW2 5295   0.871   0.122   4.668  0.0620  0.6326 -0.0182
 1324SOL     MW 5296   0.825   0.174   4.721  0.0461  0.3216  0.2759
 1325SOL     OW 5297   2.223   2.818   2.029 -0.4991 -0.0933  0.2464
 1325SOL    HW1 5298   2.220   2.899   1.978 -0.8730 -0.2395  0.0329
 1325SOL    HW2 5299   2.265   2.843   2.112  2.0718 -0.2827 -0.9016
 1325SOL     MW 5300   2.228   2.832   2.034 -0.2035 -0.1384  0.0632
 1326SOL     OW 5301   2.029   2.041   1.285  0.1019 -0.4166  0.3607
 1326SOL    HW1 5302   2.006   2.038   1.192 -1.2531 -1.3966  0.6958
 1326SOL    HW2 5303   2.110   2.092   1.288 -0.9147  1.4088 -1.1338
 1326SOL     MW 5304   2.037   2.048   1.273 -0.2172 -0.3029  0.2046
 1327SOL     OW 5305   3.502   4.236   1.857  0.3461 -0.4543 -0.1402
 1327SOL    HW1 5306   3.570   4.280   1.807  0.8675 -0.9846  0.0851
 1327SOL    HW2 5307   3.548   4.198   1.931 -0.1460 -1.0881 -0.1516
 1327SOL     MW 5308   3.517   4.237   1.860  0.3500 -0.6110 -0.1114
 1328SOL     OW 5309   2.115   5.114   5.069 -0.0205  0.1641  0.1517
 1328SOL    HW1 5310   2.076   5.144   4.987  0.2631 -1.9565 -0.8354
 1328SOL    HW2 5311   2.041   5.106   5.129 -0.1240  2.5268  0.4384
 1328SOL     MW 5312   2.100   5.117   5.067  0.0038  0.1967  0.0575
 1329SOL     OW 5313   3.946   0.648   4.333 -0.2871  0.6030 -0.1007
 1329SOL    HW1 5314   4.002   0.581   4.372  0.1759  0.5134 -0.8777
 1329SOL    HW2 5315   4.005   0.723   4.320 -0.6074  0.8784  0.0425
 1329SOL     MW 5316   3.962   0.649   4.336 -0.2679  0.6280 -0.1860
 1330SOL     OW 5317   3.305   5.099   1.187 -0.1030 -0.0321  0.0172
 1330SOL    HW1 5318   3.250   5.158   1.136  1.4951  2.5771  1.1175
 1330SOL    HW2 5319   3.345   5.155   1.254  1.4131 -2.4156  1.2419
 1330SOL     MW 5320   3.303   5.114   1.189  0.3161 -0.0018  0.3301
 1331SOL     OW 5321   2.117   1.455   4.640  0.3842 -0.1309 -0.3580
 1331SOL    HW1 5322   2.085   1.537   4.604  1.8147 -0.4772 -2.6459
 1331SOL    HW2 5323   2.072   1.446   4.724 -1.3351  1.9583 -0.9637
 1331SOL     MW 5324   2.107   1.465   4.646  0.3453  0.1037 -0.7474
 1332SOL     OW 5325   4.216   3.440   3.108 -0.4489 -0.0643  0.1738
 1332SOL    HW1 5326   4.270   3.514   3.135 -0.8432 -0.6211  2.8295
 1332SOL    HW2 5327   4.278   3.368   3.094 -0.1237  0.5447 -1.8033
 1332SOL     MW 5328   4.231   3.440   3.110 -0.4582 -0.0573  0.2651
 1333SOL     OW 5329   1.160   3.909   5.057  0.4130 -1.0614 -0.4183
 1333SOL    HW1 5330   1.086   3.963   5.032  0.9714 -0.7393 -1.4215
 1333SOL    HW2 5331   1.154   3.903   5.152  0.3531  0.8105 -0.2592
 1333SOL     MW 5332   1.150   3.915   5.067  0.4801 -0.7662 -0.5319
 1334SOL     OW 5333   4.010   4.927   1.499 -0.1645  0.2806  0.3050
 1334SOL    HW1 5334   3.990   5.015   1.531 -1.5795 -0.3499  1.2155
 1334SOL    HW2 5335   4.097   4.936   1.460  0.1910  1.8353  1.3513
 1334SOL     MW 5336   4.019   4.940   1.498 -0.3071  0.4049  0.5684
 1335SOL     OW 5337   5.099   4.313   5.173  0.2028  1.0288 -0.2455
 1335SOL    HW1 5338   5.126   4.246   5.111 -1.0696 -0.4584  0.7336
 1335SOL    HW2 5339   5.041   4.371   5.123  0.9138  1.1307 -0.9678
 1335SOL     MW 5340   5.095   4.312   5.158  0.1272  0.8424 -0.2109
 1336SOL     OW 5341   4.241   4.986   1.348 -0.2038 -0.3794 -0.3271
 1336SOL    HW1 5342   4.267   5.036   1.425  0.1967 -2.1488  0.7238
 1336SOL    HW2 5343   4.322   4.978   1.297  0.4700 -2.4412  0.9716
 1336SOL     MW 5344   4.256   4.992   1.351 -0.0592 -0.8950 -0.0109
 1337SOL     OW 5345   3.503   5.094   3.614 -0.6591  1.0009  0.7445
 1337SOL    HW1 5346   3.567   5.136   3.672  0.9430  2.2194 -1.7579
 1337SOL    HW2 5347   3.541   5.101   3.527 -2.9389 -0.8185 -0.4968
 1337SOL     MW 5348   3.517   5.101   3.610 -0.7503  0.9200  0.2407
 1338SOL     OW 5349   4.974   3.516   4.080 -0.2182 -0.0354 -0.4999
 1338SOL    HW1 5350   5.053   3.537   4.031  0.2667 -0.0112  0.2826
 1338SOL    HW2 5351   4.902   3.533   4.018  0.1761  3.0939 -0.2475
 1338SOL     MW 5352   4.975   3.521   4.065 -0.0999  0.3890 -0.3606
 1339SOL     OW 5353   3.963   3.471   0.170  0.3958  0.0197  0.0385
 1339SOL    HW1 5354   4.009   3.392   0.142  0.9741  0.8286 -1.3687
 1339SOL    HW2 5355   3.977   3.533   0.099  0.0679  1.4357  1.1791
 1339SOL     MW 5356   3.971   3.469   0.157  0.4295  0.3191  0.0027
 1340SOL     OW 5357   2.836   1.533   1.006 -0.0872  0.0532 -0.3972
 1340SOL    HW1 5358   2.784   1.595   1.057 -1.8281 -1.4651 -0.2079
 1340SOL    HW2 5359   2.780   1.510   0.932  0.2722 -1.6730 -0.1814
 1340SOL     MW 5360   2.822   1.538   1.003 -0.2731 -0.3835 -0.3427
 1341SOL     OW 5361   3.910   5.068   2.272  0.2650  0.3103 -0.2861
 1341SOL    HW1 5362   3.998   5.036   2.255  1.3638  3.9527 -2.3486
 1341SOL    HW2 5363   3.911   5.092   2.365  0.7652 -1.3839  0.1802
 1341SOL     MW 5364   3.922   5.067   2.282  0.4802  0.5725 -0.5009
 1342SOL     OW 5365   0.127   4.212   2.413  0.2776 -0.3426 -0.3416
 1342SOL    HW1 5366   0.191   4.177   2.351  1.0785 -0.1450  0.3568
 1342SOL    HW2 5367   0.053   4.151   2.408 -0.4699  0.6056 -2.7835
 1342SOL     MW 5368   0.125   4.199   2.404  0.2848 -0.1884 -0.5762
 1343SOL     OW 5369   2.429   4.639   4.211 -0.4298  0.3718  0.1555
 1343SOL    HW1 5370   2.415   4.614   4.302 -1.3018 -1.0362 -0.3343
 1343SOL    HW2 5371   2.524   4.635   4.200 -0.4028 -0.8284  0.6486
 1343SOL     MW 5372   2.440   4.635   4.222 -0.5435  0.0208  0.1559
 1344SOL     OW 5373   5.491  -0.006   2.910  0.6524 -0.1747  0.4043
 1344SOL    HW1 5374   5.431  -0.016   2.836 -0.1961  1.1046  0.8824
 1344SOL    HW2 5375   5.531   0.079   2.897 -0.0007  0.3647  1.7382
 1344SOL     MW 5376   5.488   0.004   2.898  0.4504  0.0701  0.6482
 1345SOL     OW 5377   2.041   4.352   1.686 -0.3990  0.2054 -0.5234
 1345SOL    HW1 5378   2.049   4.302   1.604  0.8077  0.0246 -0.3126
 1345SOL    HW2 5379   1.952   4.386   1.684 -0.3051  0.4705 -2.0751
 1345SOL     MW 5380   2.030   4.350   1.674 -0.2240  0.2168 -0.7038
 1346SOL     OW 5381   4.919   0.337   0.287 -0.2936 -0.0595  0.1187
 1346SOL    HW1 5382   4.980   0.323   0.215  0.3855  0.5121  0.5718
 1346SOL    HW2 5383   4.899   0.431   0.284  0.8344  0.2661  1.5073
 1346SOL     MW 5384   4.925   0.348   0.277 -0.0504  0.0613  0.3665
 1347SOL     OW 5385   4.949   1.144   4.282 -0.1640 -0.8504 -0.3371
 1347SOL    HW1 5386   4.947   1.235   4.254 -0.5007 -0.4421  0.9181
 1347SOL    HW2 5387   4.869   1.106   4.245  0.5153 -0.9342 -1.7514
 1347SOL     MW 5388   4.938   1.151   4.273 -0.1179 -0.8067 -0.3585
 1348SOL     OW 5389   2.388   2.457   4.371  0.0244  0.0248  0.0977
 1348SOL    HW1 5390   2.358   2.386   4.314 -0.2460 -0.7134  1.1238
 1348SOL    HW2 5391   2.424   2.412   4.447 -1.0262  1.0020  1.2139
 1348SOL     MW 5392   2.389   2.441   4.374 -0.1534  0.0570  0.3860
 1349SOL     OW 5393   2.116   3.841   2.502  0.4730  0.1260  0.1999
 1349SOL    HW1 5394   2.197   3.876   2.540  1.6485 -0.5225 -1.5874
 1349SOL    HW2 5395   2.093   3.767   2.558  1.4747 -0.0612  0.3812
 1349SOL     MW 5396   2.124   3.836   2.515  0.7660  0.0135 -0.0162
 1350SOL     OW 5397   4.762   0.525   3.608  0.0424  0.1433  0.7532
 1350SOL    HW1 5398   4.738   0.602   3.558 -2.3665 -1.3224 -0.5594
 1350SOL    HW2 5399   4.841   0.491   3.565 -0.2203  0.6112 -0.1144
 1350SOL     MW 5400   4.770   0.530   3.596 -0.3171  0.0090  0.4598
 1351SOL     OW 5401   2.108   1.332   1.575 -0.7157 -0.4070  0.1260
 1351SOL    HW1 5402   2.111   1.293   1.488  0.9603 -0.6602  0.2743
 1351SOL    HW2 5403   2.067   1.265   1.630  1.3524 -1.6667  0.2103
 1351SOL     MW 5404   2.103   1.318   1.570 -0.2118 -0.6106  0.1573
 1352SOL     OW 5405   3.740   0.327   1.939  0.1984 -0.0497  0.1299
 1352SOL    HW1 5406   3.665   0.381   1.917  0.3129  0.4129  0.8481
 1352SOL    HW2 5407   3.763   0.283   1.857 -2.4390 -2.2181  0.4378
 1352SOL     MW 5408   3.733   0.328   1.925 -0.1411 -0.2793  0.2680
 1353SOL     OW 5409   0.581   2.423   2.761 -0.4274  0.2137  0.1034
 1353SOL    HW1 5410   0.589   2.382   2.675  0.7754  0.0311  0.2865
 1353SOL    HW2 5411   0.632   2.367   2.819 -2.7190 -0.7310  1.3457
 1353SOL     MW 5412   0.589   2.410   2.757 -0.5739  0.0620  0.2952
 1354SOL     OW 5413   4.904   1.747   4.140 -0.3766 -0.6840  0.3449
 1354SOL    HW1 5414   4.945   1.832   4.155  1.5380 -1.3873 -0.5053
 1354SOL    HW2 5415   4.903   1.737   4.045 -0.2209 -1.7468  0.4344
 1354SOL     MW 5416   4.910   1.757   4.129 -0.0980 -0.9217  0.2425
 1355SOL     OW 5417   1.674   4.898   3.681  0.2495 -0.3296  0.0170
 1355SOL    HW1 5418   1.756   4.849   3.687 -0.9424 -2.5166 -0.3694
 1355SOL    HW2 5419   1.671   4.929   3.591  0.2029 -1.1196 -0.2600
 1355SOL     MW 5420   1.684   4.896   3.670  0.0828 -0.7303 -0.0722
 1356SOL     OW 5421   2.356   2.503   3.282 -0.2968  0.1433 -0.5413
 1356SOL    HW1 5422   2.395   2.589   3.292  1.0336 -0.2476 -2.0195
 1356SOL    HW2 5423   2.328   2.499   3.191  1.3796 -1.6180 -1.0667
 1356SOL     MW 5424   2.357   2.514   3.271  0.1079 -0.1463 -0.8109
 1357SOL     OW 5425   2.340   1.825   4.559  0.1724  0.1352  0.6651
 1357SOL    HW1 5426   2.257   1.779   4.557  0.0508  0.2983  1.5487
 1357SOL    HW2 5427   2.320   1.911   4.596  0.4880  0.7177 -0.4695
 1357SOL     MW 5428   2.326   1.831   4.564  0.1985  0.2356  0.6313
 1358SOL     OW 5429   2.520   0.646   5.397  0.2250  0.1892 -0.6397
 1358SOL    HW1 5430   2.500   0.654   5.490  1.3294 -1.2393 -0.2341
 1358SOL    HW2 5431   2.578   0.719   5.378 -0.7193  1.0053 -0.4425
 1358SOL     MW 5432   2.525   0.657   5.407  0.2465  0.1068 -0.5586
 1359SOL     OW 5433   2.962   4.466   3.559 -0.1754  0.0296  0.2856
 1359SOL    HW1 5434   2.999   4.528   3.497 -1.2984 -0.3806 -0.8565
 1359SOL    HW2 5435   3.030   4.400   3.572 -0.3538 -0.5720 -1.5486
 1359SOL     MW 5436   2.976   4.465   3.552 -0.3506 -0.1066 -0.1149
 1360SOL     OW 5437   2.634   3.311   5.307  0.2891 -0.4947  0.0890
 1360SOL    HW1 5438   2.710   3.361   5.279  0.9291 -0.7702  1.2751
 1360SOL    HW2 5439   2.561   3.373   5.304  0.3310 -0.4971 -2.0490
 1360SOL     MW 5440   2.634   3.326   5.303  0.3809 -0.5321 -0.0391
 1361SOL     OW 5441   0.232   4.494   1.962 -0.1994  0.0810  0.4630
 1361SOL    HW1 5442   0.175   4.556   2.008  1.2395  0.5013  1.7439
 1361SOL    HW2 5443   0.222   4.517   1.870 -1.2603  0.8645  0.7512
 1361SOL     MW 5444   0.223   4.506   1.956 -0.1485  0.2430  0.6742
 1362SOL     OW 5445   4.471   1.785   2.826 -0.0082  0.7852 -0.2863
 1362SOL    HW1 5446   4.428   1.744   2.901  0.2414 -2.7280 -1.8419
 1362SOL    HW2 5447   4.564   1.778   2.845  0.0379  0.4353 -0.6080
 1362SOL     MW 5448   4.478   1.779   2.838  0.0316  0.2653 -0.5389
 1363SOL     OW 5449   5.084   2.406   0.396  0.4568  0.2760 -0.0850
 1363SOL    HW1 5450   5.063   2.411   0.489  1.1361  0.2423  0.0760
 1363SOL    HW2 5451   5.157   2.344   0.391 -0.4955 -0.8276 -0.8016
 1363SOL     MW 5452   5.091   2.398   0.408  0.4200  0.1230 -0.1597
 1364SOL     OW 5453   0.613   1.219   5.411 -0.2575 -0.0448 -0.5659
 1364SOL    HW1 5454   0.656   1.168   5.343 -0.8833 -0.8762 -0.3589
 1364SOL    HW2 5455   0.624   1.310   5.384  1.2324 -0.2564 -0.7284
 1364SOL     MW 5456   0.620   1.225   5.398 -0.1412 -0.1851 -0.5599
 1365SOL     OW 5457   5.440   1.855   4.479  0.2542 -0.1317  0.3692
 1365SOL    HW1 5458   5.490   1.787   4.433 -0.9498  0.0635 -1.3216
 1365SOL    HW2 5459   5.478   1.937   4.449  0.0664 -0.0278  0.4141
 1365SOL     MW 5460   5.452   1.857   4.468  0.0669 -0.0914  0.1477
 1366SOL     OW 5461   2.277   4.339   3.448  0.1677 -0.2741  0.8255
 1366SOL    HW1 5462   2.365   4.348   3.413  0.2678  1.2656  1.3989
 1366SOL    HW2 5463   2.288   4.290   3.529  0.4510 -0.3613  0.7357
 1366SOL     MW 5464   2.290   4.334   3.454  0.2193 -0.0786  0.8906
 1367SOL     OW 5465   2.350   2.868   3.135 -0.2103  0.6038  0.0882
 1367SOL    HW1 5466   2.257   2.851   3.150 -0.9816  3.3633 -0.8615
 1367SOL    HW2 5467   2.369   2.826   3.051 -0.3629 -0.5983  0.6362
 1367SOL     MW 5468   2.340   2.860   3.126 -0.3346  0.8134  0.0341
 1368SOL     OW 5469   1.016   2.839   3.042 -0.1628 -0.5428  0.2955
 1368SOL    HW1 5470   0.976   2.870   2.960  0.1278 -0.2626  0.2607
 1368SOL    HW2 5471   1.107   2.822   3.019 -0.4221 -1.9335  0.1743
 1368SOL     MW 5472   1.023   2.841   3.028 -0.1586 -0.6922  0.2745
 1369SOL     OW 5473   2.797   2.284   2.651 -0.1356  0.1038  0.1639
 1369SOL    HW1 5474   2.797   2.191   2.673  0.8147  0.0448 -0.0296
 1369SOL    HW2 5475   2.779   2.328   2.734  0.7069 -0.2164  0.5327
 1369SOL     MW 5476   2.794   2.278   2.665  0.1057  0.0528  0.1875
 1370SOL     OW 5477   0.349   3.891   3.480  0.0415  0.1132  0.1719
 1370SOL    HW1 5478   0.441   3.865   3.480 -0.0912 -0.3743 -0.2989
 1370SOL    HW2 5479   0.310   3.842   3.553  0.4629  1.5145  1.4017
 1370SOL     MW 5480   0.356   3.881   3.490  0.0803  0.2362  0.2741
 1371SOL     OW 5481   0.920   4.857   2.511  0.0969 -0.3304  0.4943
 1371SOL    HW1 5482   0.874   4.783   2.472 -1.9450  0.2996  1.4877
 1371SOL    HW2 5483   0.908   4.929   2.449  0.3297 -0.3327  0.4462
 1371SOL     MW 5484   0.912   4.857   2.498 -0.1465 -0.2459  0.6215
 1372SOL     OW 5485   4.707   1.241   3.723 -0.1146 -0.5974  0.1601
 1372SOL    HW1 5486   4.719   1.323   3.675  1.2458 -0.2716  0.9766
 1372SOL    HW2 5487   4.782   1.188   3.697  0.6264 -0.4302  1.8378
 1372SOL     MW 5488   4.719   1.245   3.713  0.1682 -0.5311  0.4958
 1373SOL     OW 5489   2.907   1.060   3.807  0.3542  0.5770  0.5956
 1373SOL    HW1 5490   2.912   1.144   3.852  0.7554  0.6408  0.4351
 1373SOL    HW2 5491   2.934   1.079   3.717 -0.8065  0.5243  0.2144
 1373SOL     MW 5492   2.911   1.074   3.801  0.2520  0.5785  0.5227
 1374SOL     OW 5493   4.982   1.803   4.590  0.1751  0.2303  0.0350
 1374SOL    HW1 5494   4.980   1.831   4.682  1.7880 -1.1756  0.5676
 1374SOL    HW2 5495   5.054   1.739   4.587 -0.7068 -0.7373 -1.9347
 1374SOL     MW 5496   4.992   1.798   4.602  0.2735 -0.0892 -0.1584
 1375SOL     OW 5497   0.196   4.115   4.822 -0.5579 -0.3637  0.6676
 1375SOL    HW1 5498   0.102   4.128   4.830 -0.8113 -2.2695  1.2599
 1375SOL    HW2 5499   0.209   4.092   4.729 -0.3922  1.6593  0.1466
 1375SOL     MW 5500   0.185   4.114   4.810 -0.5697 -0.3479  0.6772
 1376SOL     OW 5501   4.873   3.908   0.716 -0.5785  0.8612 -0.1903
 1376SOL    HW1 5502   4.859   3.906   0.621 -0.7017 -0.5068 -0.1637
 1376SOL    HW2 5503   4.786   3.921   0.753 -0.7712 -0.1608 -0.2415
 1376SOL     MW 5504   4.860   3.909   0.708 -0.6210  0.5395 -0.1936
 1377SOL     OW 5505   0.590   3.455   1.538  0.5664 -0.2677  0.2817
 1377SOL    HW1 5506   0.513   3.420   1.584  1.3476 -1.8914  0.4353
 1377SOL    HW2 5507   0.629   3.517   1.599 -1.1243  1.3515 -0.1746
 1377SOL     MW 5508   0.585   3.458   1.552  0.4440 -0.2683  0.2409
 1378SOL     OW 5509   3.879   0.768   5.496 -0.3795 -0.1804  0.3874
 1378SOL    HW1 5510   3.913   0.782   5.408 -0.3416 -0.7194  0.3126
 1378SOL    HW2 5511   3.824   0.690   5.489  0.0871 -0.5757  0.9594
 1378SOL     MW 5512   3.876   0.760   5.483 -0.3116 -0.3061  0.4543
 1379SOL     OW 5513   3.261   3.065   0.275  0.0322  0.0731 -0.0333
 1379SOL    HW1 5514   3.189   3.128   0.265 -1.7225 -1.3376  2.4772
 1379SOL    HW2 5515   3.221   2.980   0.257  1.6924 -0.5727 -0.8013
 1379SOL     MW 5516   3.246   3.062   0.272  0.0195 -0.2037  0.2012
 1380SOL     OW 5517   1.689   1.915   1.532  0.0464  0.4333 -0.2939
 1380SOL    HW1 5518   1.603   1.916   1.491 -0.0308 -0.0555 -0.1578
 1380SOL    HW2 5519   1.740   1.980   1.484 -0.2670  0.4021 -0.6701
 1380SOL     MW 5520   1.685   1.924   1.520 -0.0062  0.3633 -0.3262
 1381SOL     OW 5521   3.301   2.649   2.455  0.9600  0.0679  0.5703
 1381SOL    HW1 5522   3.352   2.575   2.422 -0.4705 -0.5901 -0.2466
 1381SOL    HW2 5523   3.263   2.617   2.537 -1.1969 -0.8429 -0.7106
 1381SOL     MW 5524   3.303   2.635   2.462  0.4772 -0.1433  0.2879
 1382SOL     OW 5525   1.577   3.561   1.276  0.2160 -0.7532 -0.0094
 1382SOL    HW1 5526   1.519   3.628   1.315 -2.1466 -2.6433 -0.0671
 1382SOL    HW2 5527   1.593   3.500   1.347 -0.3332 -1.8013 -0.7598
 1382SOL     MW 5528   1.571   3.562   1.291 -0.1759 -1.1486 -0.1182
 1383SOL     OW 5529   3.809   0.185   1.722 -0.2467  0.5604  0.6343
 1383SOL    HW1 5530   3.821   0.244   1.647  1.2872  0.0402  0.4304
 1383SOL    HW2 5531   3.739   0.126   1.695  0.2061  0.4571 -0.3565
 1383SOL     MW 5532   3.801   0.185   1.708  0.0206  0.4764  0.4735
 1384SOL     OW 5533   1.680   2.228   1.648  0.0218  0.0141 -0.2167
 1384SOL    HW1 5534   1.730   2.183   1.580 -0.1205 -0.8101  0.2022
 1384SOL    HW2 5535   1.621   2.287   1.601 -0.2156 -0.6916 -0.8187
 1384SOL     MW 5536   1.679   2.230   1.633 -0.0293 -0.1918 -0.2413
 1385SOL     OW 5537   0.937   4.239   3.168  0.4305  0.1523  0.1834
 1385SOL    HW1 5538   0.872   4.170   3.156 -0.7040  0.9689  1.3973
 1385SOL    HW2 5539   0.978   4.249   3.082 -0.5355 -0.8817 -0.4136
 1385SOL     MW 5540   0.934   4.231   3.155  0.1478  0.1230  0.2664
 1386SOL     OW 5541   4.512   4.520   2.101 -0.5347  0.3224  0.4532
 1386SOL    HW1 5542   4.463   4.466   2.162  2.2079  0.8476  3.3578
 1386SOL    HW2 5543   4.524   4.604   2.146  1.2048  0.9293 -0.9877
 1386SOL     MW 5544   4.507   4.524   2.115  0.0685  0.4747  0.6502
 1387SOL     OW 5545   0.888   0.091   0.500  0.1654 -0.7429 -0.0999
 1387SOL    HW1 5546   0.948   0.018   0.487  0.2651 -0.5490 -0.7885
 1387SOL    HW2 5547   0.893   0.110   0.593 -0.7136 -2.3398  0.3176
 1387SOL     MW 5548   0.896   0.084   0.511  0.0605 -0.9317 -0.1364
 1388SOL     OW 5549   3.953   5.458   0.990  0.3361  0.4897  0.1885
 1388SOL    HW1 5550   3.911   5.375   1.013  0.4322  0.4691  0.2872
 1388SOL    HW2 5551   3.889   5.501   0.932 -0.2047  0.8465  1.0335
 1388SOL     MW 5552   3.938   5.453   0.985  0.2762  0.5350  0.3155
 1389SOL     OW 5553   5.122   0.332   3.100 -0.1339 -0.0929 -0.2921
 1389SOL    HW1 5554   5.081   0.369   3.179  0.6670 -0.7782  0.4701
 1389SOL    HW2 5555   5.064   0.260   3.075 -0.6192  0.3949 -0.5887
 1389SOL     MW 5556   5.108   0.327   3.107 -0.0914 -0.1194 -0.2295
 1390SOL     OW 5557   3.750   2.947   4.621  0.0121  0.4246  0.0241
 1390SOL    HW1 5558   3.766   2.973   4.712 -0.0193  0.8423 -0.0866
 1390SOL    HW2 5559   3.655   2.953   4.611  0.1240  1.8413 -0.4546
 1390SOL     MW 5560   3.739   2.952   4.632  0.0229  0.6715 -0.0552
 1391SOL     OW 5561   1.949   5.295   1.553 -0.8791 -0.0992 -0.4217
 1391SOL    HW1 5562   1.887   5.364   1.527  0.0667  0.5664 -0.9460
 1391SOL    HW2 5563   1.985   5.326   1.636 -0.4835  0.0353 -0.6383
 1391SOL     MW 5564   1.945   5.309   1.561 -0.6986  0.0085 -0.5214
 1392SOL     OW 5565   4.074   3.094   4.251 -0.1354  0.1330 -0.2920
 1392SOL    HW1 5566   4.033   3.118   4.334  0.9300  0.7659  0.0802
 1392SOL    HW2 5567   4.032   3.150   4.186 -0.9606 -0.3518 -0.1863
 1392SOL     MW 5568   4.063   3.105   4.253 -0.1031  0.1529 -0.2277
 1393SOL     OW 5569   1.800   3.270   1.057  0.1475 -0.6620  0.5449
 1393SOL    HW1 5570   1.895   3.262   1.050  0.0633 -0.6736 -0.8868
 1393SOL    HW2 5571   1.785   3.364   1.067  0.3195 -0.6895  1.0864
 1393SOL     MW 5572   1.811   3.282   1.057  0.1593 -0.6673  0.4251
 1394SOL     OW 5573   0.433   4.696   2.826 -0.3478  0.2419  0.7466
 1394SOL    HW1 5574   0.362   4.760   2.830 -2.5575 -1.9971 -0.1159
 1394SOL    HW2 5575   0.390   4.611   2.831  2.3532 -1.2515  0.8040
 1394SOL     MW 5576   0.418   4.694   2.827 -0.2817 -0.2604  0.6383
 1395SOL     OW 5577   2.131   3.779   0.964 -0.0008  0.4826  0.0971
 1395SOL    HW1 5578   2.077   3.825   1.029 -0.1340 -1.6477  1.6133
 1395SOL    HW2 5579   2.128   3.688   0.992  2.4009 -0.0698 -1.2057
 1395SOL     MW 5580   2.123   3.773   0.977  0.3045  0.1216  0.1258
 1396SOL     OW 5581   4.750   2.663   4.449 -0.0818 -0.4481  0.0144
 1396SOL    HW1 5582   4.685   2.609   4.493  1.1377 -0.5025  1.8418
 1396SOL    HW2 5583   4.833   2.618   4.464  0.4511 -0.3590 -2.2198
 1396SOL     MW 5584   4.753   2.649   4.457  0.1540 -0.4434 -0.0403
 1397SOL     OW 5585   0.011   5.284   2.387  0.6300 -0.2750  0.1307
 1397SOL    HW1 5586   0.105   5.279   2.369  0.5090 -1.8537 -0.1855
 1397SOL    HW2 5587   0.001   5.237   2.470 -0.0269 -1.1001 -0.4141
 1397SOL     MW 5588   0.022   5.277   2.396  0.5253 -0.5985  0.0148
 1398SOL     OW 5589   2.366   5.245   3.092 -0.1011  0.6906 -0.6881
 1398SOL    HW1 5590   2.302   5.175   3.081  0.2757  0.5386 -2.0415
 1398SOL    HW2 5591   2.442   5.218   3.040  1.1416  0.8109  0.9689
 1398SOL     MW 5592   2.368   5.232   3.083  0.1169  0.6863 -0.6472
 1399SOL     OW 5593   2.313   4.856   4.111 -0.1621  0.5349 -0.6782
 1399SOL    HW1 5594   2.349   4.784   4.162 -1.0160  0.0175 -0.7817
 1399SOL    HW2 5595   2.220   4.834   4.100 -0.7012  2.1929  0.2111
 1399SOL     MW 5596   2.305   4.843   4.116 -0.3496  0.6884 -0.5724
 1400SOL     OW 5597   5.277   1.466   1.076 -0.0310  0.0009 -0.6581
 1400SOL    HW1 5598   5.218   1.413   1.022  1.2947 -1.3497 -0.8499
 1400SOL    HW2 5599   5.334   1.509   1.012  0.1636  0.1056 -0.4135
 1400SOL     MW 5600   5.276   1.465   1.060  0.1736 -0.1667 -0.6510
 1401SOL     OW 5601   1.121   3.519   2.775 -0.2171 -0.1659 -0.1172
 1401SOL    HW1 5602   1.027   3.524   2.755 -0.4287 -0.2596  0.8134
 1401SOL    HW2 5603   1.144   3.608   2.802  0.0697 -0.0377 -0.7536
 1401SOL     MW 5604   1.111   3.532   2.776 -0.2070 -0.1613 -0.0776
 1402SOL     OW 5605   2.191   0.952   1.194 -0.0110  0.4283  0.0651
 1402SOL    HW1 5606   2.233   1.012   1.131 -0.7738  1.4668  0.5166
 1402SOL    HW2 5607   2.250   0.952   1.269 -0.2232  0.9580  0.2345
 1402SOL     MW 5608   2.205   0.960   1.196 -0.1422  0.6393  0.1487
 1403SOL     OW 5609   0.059   3.437   2.159  0.2700  0.0328  0.2341
 1403SOL    HW1 5610   0.101   3.504   2.106 -0.6274  0.7791  0.4338
 1403SOL    HW2 5611   0.039   3.366   2.098  0.1702  0.4507 -0.2223
 1403SOL     MW 5612   0.062   3.436   2.144  0.1358  0.1895  0.1996
 1404SOL     OW 5613   0.008   2.260   1.450 -0.1433 -0.5993  0.2611
 1404SOL    HW1 5614   0.060   2.191   1.490  0.1937 -0.4476  0.0937
 1404SOL    HW2 5615  -0.049   2.292   1.520 -0.9389 -1.6409  0.1195
 1404SOL     MW 5616   0.007   2.255   1.465 -0.2050 -0.7191  0.2195
 1405SOL     OW 5617   2.895   3.833   1.810 -0.3619 -0.3322  0.5442
 1405SOL    HW1 5618   2.966   3.769   1.804 -0.1368 -0.1241  0.9553
 1405SOL    HW2 5619   2.815   3.779   1.812 -0.2761 -0.5377 -0.7044
 1405SOL     MW 5620   2.894   3.817   1.810 -0.3201 -0.3318  0.4315
 1406SOL     OW 5621   0.965   1.088   3.500  0.1309  0.1286  0.6566
 1406SOL    HW1 5622   0.958   1.182   3.520  1.5269  0.2047  0.8654
 1406SOL    HW2 5623   0.990   1.048   3.583 -0.0852 -0.3897  0.4762
 1406SOL     MW 5624   0.967   1.096   3.514  0.2897  0.0691  0.6605
 1407SOL     OW 5625   3.044   4.001   0.468  0.3273 -0.1641  0.0964
 1407SOL    HW1 5626   3.028   4.085   0.425 -1.0042 -0.3801  0.1080
 1407SOL    HW2 5627   3.091   4.023   0.548 -0.5477  0.6550  0.4095
 1407SOL     MW 5628   3.048   4.015   0.473  0.0303 -0.0829  0.1401
 1408SOL     OW 5629   1.118   1.332   4.757 -0.4361 -0.3281 -0.2957
 1408SOL    HW1 5630   1.088   1.372   4.676 -0.9628 -0.4194 -0.1471
 1408SOL    HW2 5631   1.120   1.238   4.738  2.1675 -0.1889 -1.1112
 1408SOL     MW 5632   1.114   1.324   4.743 -0.1566 -0.3217 -0.3854
 1409SOL     OW 5633   2.176   5.082   2.152 -0.3813 -0.4082 -0.0291
 1409SOL    HW1 5634   2.235   5.025   2.103  1.3679  0.7659  0.6267
 1409SOL    HW2 5635   2.152   5.152   2.091 -1.0346 -0.8137 -0.2537
 1409SOL     MW 5636   2.180   5.084   2.137 -0.2338 -0.3048  0.0289
 1410SOL     OW 5637   2.250   1.510   2.569  0.0275 -0.3895 -0.1973
 1410SOL    HW1 5638   2.191   1.438   2.546  0.6395 -0.9949  0.0937
 1410SOL    HW2 5639   2.256   1.563   2.489 -2.0614  0.5354  0.1762
 1410SOL     MW 5640   2.243   1.508   2.555 -0.1712 -0.3465 -0.1079
 1411SOL     OW 5641   2.487   1.835   3.143  0.6374  0.0830  0.5703
 1411SOL    HW1 5642   2.478   1.740   3.135  0.1600  0.1893 -0.4550
 1411SOL    HW2 5643   2.487   1.852   3.237 -0.5279 -0.8292  0.7561
 1411SOL     MW 5644   2.486   1.825   3.154  0.4164 -0.0255  0.4573
 1412SOL     OW 5645   5.413   4.984   4.700 -0.1524  0.0139 -0.1956
 1412SOL    HW1 5646   5.508   4.995   4.702  0.2139 -2.3741  2.6934
 1412SOL    HW2 5647   5.379   5.050   4.761 -0.0591 -0.7199  0.6723
 1412SOL     MW 5648   5.421   4.994   4.708 -0.0905 -0.4062  0.3100
 1413SOL     OW 5649   1.491   0.135   1.550 -0.2986  0.0105  0.3747
 1413SOL    HW1 5650   1.480   0.145   1.644 -0.4831 -2.2297  0.6464
 1413SOL    HW2 5651   1.446   0.053   1.529 -1.9982  1.4135 -2.0053
 1413SOL     MW 5652   1.483   0.126   1.560 -0.5521 -0.1022  0.0910
 1414SOL     OW 5653   5.456   2.530   5.088  0.1918 -0.0785 -0.5038
 1414SOL    HW1 5654   5.371   2.487   5.078  0.3224 -0.6355  0.5389
 1414SOL    HW2 5655   5.510   2.493   5.019  0.0613 -1.0027 -0.1261
 1414SOL     MW 5656   5.451   2.519   5.078  0.1918 -0.2778 -0.3127
 1415SOL     OW 5657   3.781   2.419   4.365  0.2160  0.2666  0.1824
 1415SOL    HW1 5658   3.706   2.450   4.416 -0.9053  0.1491 -1.3506
 1415SOL    HW2 5659   3.743   2.382   4.286  1.9331  0.7098 -0.8963
 1415SOL     MW 5660   3.766   2.418   4.361  0.2962  0.3105 -0.1691
 1416SOL     OW 5661   0.670   0.455   0.245 -0.0421  0.2921 -0.3860
 1416SOL    HW1 5662   0.729   0.380   0.230  0.6434  0.7418 -0.0143
 1416SOL    HW2 5663   0.622   0.432   0.324  1.0974  0.7833  0.4824
 1416SOL     MW 5664   0.672   0.442   0.253  0.2035  0.4188 -0.2191
 1417SOL     OW 5665   2.046   4.090   3.725  0.2450 -0.0248 -0.0672
 1417SOL    HW1 5666   2.051   4.043   3.642  3.0135  0.3295 -0.2028
 1417SOL    HW2 5667   2.021   4.024   3.789  0.5482 -0.8674 -0.8073
 1417SOL     MW 5668   2.043   4.075   3.723  0.6584 -0.0905 -0.1851
 1418SOL     OW 5669   2.349   4.627   4.754 -0.0940  0.3643 -0.3051
 1418SOL    HW1 5670   2.373   4.587   4.670 -2.5268 -0.6522 -0.5847
 1418SOL    HW2 5671   2.272   4.681   4.734  0.8609  2.2491  0.8140
 1418SOL     MW 5672   2.342   4.629   4.740 -0.2929  0.4812 -0.1922
 1419SOL     OW 5673   2.450   1.713   3.451  0.3204  0.7692 -0.3764
 1419SOL    HW1 5674   2.435   1.625   3.485  1.3593  0.4020 -0.8463
 1419SOL    HW2 5675   2.369   1.760   3.472 -1.3973 -1.0149 -2.4689
 1419SOL     MW 5676   2.437   1.708   3.458  0.2290  0.4797 -0.7213
 1420SOL     OW 5677   2.419   4.189   2.027 -0.3608 -0.1793  0.2552
 1420SOL    HW1 5678   2.484   4.192   2.098 -0.0170  1.2892 -0.0730
 1420SOL    HW2 5679   2.348   4.244   2.058 -0.8288 -0.6468  0.0165
 1420SOL     MW 5680   2.418   4.197   2.041 -0.3775 -0.0446  0.1789
 1421SOL     OW 5681   3.869   5.182   0.990  0.4279  0.0149 -0.4137
 1421SOL    HW1 5682   3.795   5.133   1.024  1.0295  0.4095  1.5616
 1421SOL    HW2 5683   3.945   5.128   1.010  0.9399  0.9626  0.2828
 1421SOL     MW 5684   3.869   5.168   0.997  0.5777  0.1955 -0.0541
 1422SOL     OW 5685   1.315   4.162   1.744 -0.1678  0.0599 -0.4060
 1422SOL    HW1 5686   1.373   4.158   1.820 -0.5811 -1.2910 -0.1463
 1422SOL    HW2 5687   1.369   4.203   1.675  1.7774 -2.7732 -0.7380
 1422SOL     MW 5688   1.330   4.167   1.745  0.0383 -0.5032 -0.4157
 1423SOL     OW 5689   0.657   4.862   1.153 -0.1278 -0.0375 -0.0741
 1423SOL    HW1 5690   0.597   4.794   1.183  2.5077 -1.9345  1.3708
 1423SOL    HW2 5691   0.631   4.941   1.200 -0.1236 -1.3825  2.3289
 1423SOL     MW 5692   0.646   4.864   1.163  0.2274 -0.4738  0.4437
 1424SOL     OW 5693   0.645   4.664   4.251 -0.1975  0.2610 -0.0066
 1424SOL    HW1 5694   0.616   4.645   4.341 -1.8477  1.8499 -0.1498
 1424SOL    HW2 5695   0.631   4.582   4.204 -1.0974 -0.0497  0.7645
 1424SOL     MW 5696   0.640   4.650   4.257 -0.5407  0.4331  0.0779
 1425SOL     OW 5697   4.839   4.583   1.135 -0.0699 -0.7642  0.1201
 1425SOL    HW1 5698   4.924   4.624   1.116 -0.4934  0.3302  0.4949
 1425SOL    HW2 5699   4.776   4.634   1.083 -0.7805 -0.0671  1.6202
 1425SOL     MW 5700   4.842   4.595   1.125 -0.2226 -0.5231  0.3724
 1426SOL     OW 5701   1.777   1.550   5.367  0.0525  0.1704  0.6837
 1426SOL    HW1 5702   1.864   1.592   5.366 -0.0103  0.3512 -1.5005
 1426SOL    HW2 5703   1.784   1.480   5.303 -1.0429 -0.6940  1.4805
 1426SOL     MW 5704   1.790   1.546   5.358 -0.1034  0.0784  0.4970
 1427SOL     OW 5705   1.977   0.827   2.408 -0.1785 -0.2242 -0.2662
 1427SOL    HW1 5706   1.918   0.903   2.408 -0.7093 -0.6185 -1.5464
 1427SOL    HW2 5707   1.923   0.754   2.435  0.5152 -0.0691  1.7461
 1427SOL     MW 5708   1.962   0.828   2.411 -0.1566 -0.2564 -0.1677
 1428SOL     OW 5709   4.604   3.124   0.962 -0.5419 -0.1440 -0.2543
 1428SOL    HW1 5710   4.605   3.118   0.867  0.0475  0.9704 -0.3246
 1428SOL    HW2 5711   4.569   3.211   0.981 -0.9523 -0.4723  0.5592
 1428SOL     MW 5712   4.600   3.135   0.952 -0.5178 -0.0382 -0.1543
 1429SOL     OW 5713   0.821   4.614   1.359  0.4437  0.2555  0.5381
 1429SOL    HW1 5714   0.858   4.702   1.357  1.0141  0.0204  0.4371
 1429SOL    HW2 5715   0.888   4.561   1.402 -0.4166  0.1049  1.7300
 1429SOL     MW 5716   0.835   4.619   1.364  0.4046  0.2036  0.6849
 1430SOL     OW 5717   1.086   0.206   1.392  0.1694 -0.7820 -0.2224
 1430SOL    HW1 5718   1.009   0.234   1.343  0.3806 -1.0502 -0.7163
 1430SOL    HW2 5719   1.091   0.112   1.378  0.0476 -0.9209  0.5928
 1430SOL     MW 5720   1.077   0.197   1.384  0.1814 -0.8368 -0.1792
 1431SOL     OW 5721   3.096   3.256   2.621 -0.0225  0.0145 -0.1088
 1431SOL    HW1 5722   3.160   3.301   2.676 -1.1593  0.2079  1.1020
 1431SOL    HW2 5723   3.134   3.170   2.606  0.1674 -0.1745  1.2970
 1431SOL     MW 5724   3.110   3.250   2.626 -0.1499  0.0151  0.2433
 1432SOL     OW 5725   2.407   1.505   3.596  0.3416  0.0685 -0.0494
 1432SOL    HW1 5726   2.329   1.454   3.574  0.7602 -1.0335  0.9251
 1432SOL    HW2 5727   2.405   1.514   3.691  0.7001  1.2109 -0.1316
 1432SOL     MW 5728   2.396   1.499   3.606  0.4462  0.0739  0.0707
 1433SOL     OW 5729   4.986   3.247   2.988  0.2383  0.1207  0.1023
 1433SOL    HW1 5730   4.905   3.205   3.017  0.0912  0.3957  0.0851
 1433SOL    HW2 5731   5.040   3.252   3.067  2.1178 -4.1967 -0.6017
 1433SOL     MW 5732   4.982   3.242   3.002  0.4715 -0.4233  0.0053
 1434SOL     OW 5733   5.249   0.062   4.653  0.1234 -0.1708 -0.1229
 1434SOL    HW1 5734   5.256   0.129   4.721 -1.0269  0.2834 -0.4244
 1434SOL    HW2 5735   5.337   0.055   4.617  0.3968  0.7468  0.3322
 1434SOL     MW 5736   5.261   0.070   4.657  0.0054  0.0138 -0.1022
 1435SOL     OW 5737   2.749   5.073   3.656  0.0107  0.6082  0.4064
 1435SOL    HW1 5738   2.725   4.982   3.677 -0.0590  0.4073 -0.4996
 1435SOL    HW2 5739   2.696   5.126   3.716  0.6337  0.0419  1.4968
 1435SOL     MW 5740   2.738   5.068   3.667  0.0852  0.5050  0.4312
 1436SOL     OW 5741   0.609   3.829   0.235  0.4656  0.0666  0.0611
 1436SOL    HW1 5742   0.576   3.757   0.181 -1.5543  1.2928 -0.4607
 1436SOL    HW2 5743   0.679   3.868   0.184  0.6784 -0.7070 -0.2446
 1436SOL     MW 5744   0.614   3.825   0.221  0.2224  0.1275 -0.0502
 1437SOL     OW 5745   3.513   2.761   2.866  0.3061 -0.1614  0.0976
 1437SOL    HW1 5746   3.423   2.782   2.840  0.0301 -1.2155  0.1410
 1437SOL    HW2 5747   3.511   2.762   2.962 -0.0209 -1.5192  0.1283
 1437SOL     MW 5748   3.500   2.764   2.875  0.2250 -0.4860  0.1076
 1438SOL     OW 5749   3.432   3.400   0.852  0.1650 -0.0973 -0.0155
 1438SOL    HW1 5750   3.466   3.340   0.785  0.0127  1.6366 -1.7363
 1438SOL    HW2 5751   3.341   3.417   0.825 -1.1810 -2.1732  2.7332
 1438SOL     MW 5752   3.424   3.394   0.839 -0.0367 -0.1433  0.1228
 1439SOL     OW 5753   2.444   5.185   5.283  0.2404  0.6053 -0.0396
 1439SOL    HW1 5754   2.402   5.231   5.211  0.2691  1.5269  0.5111
 1439SOL    HW2 5755   2.501   5.251   5.324  1.9199 -0.4960 -0.5194
 1439SOL     MW 5756   2.446   5.200   5.279  0.4703  0.5811 -0.0300
 1440SOL     OW 5757   0.972   3.805   2.381 -0.0304 -0.7176 -0.4101
 1440SOL    HW1 5758   0.935   3.829   2.296 -1.9512  0.6297  0.7391
 1440SOL    HW2 5759   0.913   3.739   2.416  0.0622 -0.3932  0.3805
 1440SOL     MW 5760   0.959   3.799   2.374 -0.2764 -0.4926 -0.1491
 1441SOL     OW 5761   3.416   2.484   1.857 -0.5305  0.6319  0.7241
 1441SOL    HW1 5762   3.410   2.457   1.948  0.3097 -0.6919  0.4231
 1441SOL    HW2 5763   3.340   2.445   1.815 -0.6898  0.8895  0.7692
 1441SOL     MW 5764   3.405   2.475   1.863 -0.4388  0.4884  0.6897
 1442SOL     OW 5765   4.729   0.331   5.175  0.3850  0.4186  0.1600
 1442SOL    HW1 5766   4.710   0.404   5.234  0.9932  1.4035 -0.8227
 1442SOL    HW2 5767   4.643   0.300   5.147  0.1133  1.0093  0.3078
 1442SOL     MW 5768   4.715   0.337   5.179  0.4303  0.6307  0.0476
 1443SOL     OW 5769   1.944   4.622   1.412 -0.1652  0.6867  0.2587
 1443SOL    HW1 5770   1.895   4.600   1.491 -1.0951  0.6038 -0.3272
 1443SOL    HW2 5771   1.888   4.685   1.366 -0.6427 -0.8475 -1.3757
 1443SOL     MW 5772   1.929   4.628   1.416 -0.3546  0.4691 -0.0401
 1444SOL     OW 5773   3.326   4.213   0.275 -0.2612  0.2682  0.1113
 1444SOL    HW1 5774   3.363   4.154   0.340  1.8425  1.2628 -0.0882
 1444SOL    HW2 5775   3.296   4.289   0.325  0.5390  0.6450  0.0422
 1444SOL     MW 5776   3.327   4.215   0.290  0.1296  0.4528  0.0751
 1445SOL     OW 5777   2.357   4.059   4.902 -0.0541 -0.2048 -0.3557
 1445SOL    HW1 5778   2.377   4.136   4.849 -1.0698  0.0361 -0.3999
 1445SOL    HW2 5779   2.317   4.093   4.981  0.4120 -0.6392  0.0798
 1445SOL     MW 5780   2.354   4.074   4.905 -0.1281 -0.2308 -0.3030
 1446SOL     OW 5781   0.647   3.288   1.138  0.5089 -0.6585  0.8709
 1446SOL    HW1 5782   0.621   3.366   1.187  0.5120 -0.8259  1.1394
 1446SOL    HW2 5783   0.725   3.256   1.184  1.0065 -0.3492  0.2677
 1446SOL     MW 5784   0.654   3.295   1.151  0.5763 -0.6394  0.8258
 1447SOL     OW 5785   2.099   0.846   3.966 -0.3336 -0.0305  0.2023
 1447SOL    HW1 5786   2.018   0.856   4.016 -0.2786 -0.1691  0.3190
 1447SOL    HW2 5787   2.105   0.926   3.913 -1.4461 -0.7684 -1.1116
 1447SOL     MW 5788   2.089   0.858   3.965 -0.4760 -0.1485  0.0412
 1448SOL     OW 5789   1.826   1.611   0.869  0.3479  1.1042 -0.2067
 1448SOL    HW1 5790   1.915   1.612   0.836 -0.2571  1.5933 -1.9447
 1448SOL    HW2 5791   1.774   1.654   0.800 -1.1864  1.0691  0.8638
 1448SOL     MW 5792   1.831   1.617   0.856  0.0600  1.1653 -0.2965
 1449SOL     OW 5793   1.622   4.804   2.675 -0.2577 -0.0474 -0.1986
 1449SOL    HW1 5794   1.705   4.849   2.691 -0.4817  0.0222  0.7700
 1449SOL    HW2 5795   1.649   4.714   2.653  0.1792  0.4695 -2.0308
 1449SOL     MW 5796   1.637   4.798   2.674 -0.2290  0.0315 -0.3148
 1450SOL     OW 5797   1.045   4.195   3.774 -0.2306  0.4749  0.4375
 1450SOL    HW1 5798   1.082   4.279   3.746  0.5054  0.0374  0.0685
 1450SOL    HW2 5799   0.977   4.219   3.837  0.2095  1.3324  0.6041
 1450SOL     MW 5800   1.041   4.209   3.779 -0.0723  0.5314  0.4103
 1451SOL     OW 5801   2.456   2.363   2.552  0.1600 -0.5100 -0.2597
 1451SOL    HW1 5802   2.383   2.424   2.540  0.7730  0.4678  0.8383
 1451SOL    HW2 5803   2.414   2.281   2.579 -0.4961  0.3500  1.4605
 1451SOL     MW 5804   2.441   2.360   2.554  0.1542 -0.2627  0.1196
 1452SOL     OW 5805   2.620   3.542   1.560 -0.1818  0.6270 -1.1534
 1452SOL    HW1 5806   2.660   3.576   1.481  0.5906  2.5161 -0.0151
 1452SOL    HW2 5807   2.526   3.556   1.547  0.0252  1.9995 -1.2779
 1452SOL     MW 5808   2.612   3.548   1.548 -0.0500  1.0660 -1.0170
 1453SOL     OW 5809   3.209   0.943   4.698 -0.1702  0.5360  0.4841
 1453SOL    HW1 5810   3.139   0.996   4.736 -1.0830 -0.8541  0.8006
 1453SOL    HW2 5811   3.218   0.869   4.758 -1.8070 -1.8826 -2.0001
 1453SOL     MW 5812   3.201   0.940   4.711 -0.5133  0.0235  0.1923
 1454SOL     OW 5813   0.222   1.795   3.482 -0.1831  0.4719  0.1666
 1454SOL    HW1 5814   0.285   1.731   3.449 -0.1291 -0.4958  2.0525
 1454SOL    HW2 5815   0.137   1.762   3.455 -0.0561  0.4159 -0.1683
 1454SOL     MW 5816   0.219   1.782   3.474 -0.1588  0.3341  0.3753
 1455SOL     OW 5817   3.644   3.172   5.458 -0.3129  0.2810  0.5204
 1455SOL    HW1 5818   3.681   3.206   5.540 -0.4816 -0.8975  1.1168
 1455SOL    HW2 5819   3.553   3.152   5.480  0.2391 -2.3183  0.8137
 1455SOL     MW 5820   3.637   3.174   5.472 -0.2613 -0.2274  0.6401
 1456SOL     OW 5821   4.199   4.952   0.669 -0.0153 -0.0781 -0.1401
 1456SOL    HW1 5822   4.174   4.876   0.616  0.2806 -0.9611  0.9330
 1456SOL    HW2 5823   4.119   5.004   0.675 -0.3463 -0.5295 -0.5377
 1456SOL     MW 5824   4.185   4.949   0.663 -0.0201 -0.2577 -0.0492
 1457SOL     OW 5825   2.086   1.647   1.144 -0.1355  0.2351 -0.2085
 1457SOL    HW1 5826   2.087   1.688   1.230  2.7083  0.4782 -0.2689
 1457SOL    HW2 5827   2.140   1.704   1.090  0.1708 -1.2226 -1.5146
 1457SOL     MW 5828   2.093   1.660   1.148  0.2885  0.0717 -0.3924
 1458SOL     OW 5829   1.512   1.063   1.871 -0.1548 -0.3825 -0.3644
 1458SOL    HW1 5830   1.417   1.062   1.867 -0.1532 -0.3564 -0.4104
 1458SOL    HW2 5831   1.535   1.156   1.876 -0.1177 -0.3708 -0.7097
 1458SOL     MW 5832   1.503   1.076   1.871 -0.1496 -0.3774 -0.4171
 1459SOL     OW 5833   3.580   3.378   0.441  0.9272 -0.2852  0.1937
 1459SOL    HW1 5834   3.633   3.408   0.515 -1.8865  1.7962  1.5610
 1459SOL    HW2 5835   3.542   3.295   0.472  1.2202 -0.3861  0.2960
 1459SOL     MW 5836   3.582   3.371   0.455  0.5880 -0.0187  0.3915
 1460SOL     OW 5837   3.794   4.775   3.456  0.8729 -0.1705  0.1341
 1460SOL    HW1 5838   3.761   4.815   3.376 -1.3785  1.5191  1.7694
 1460SOL    HW2 5839   3.843   4.845   3.499 -1.4173  0.3826  2.0801
 1460SOL     MW 5840   3.796   4.790   3.451  0.2617  0.1313  0.6160
 1461SOL     OW 5841   1.839   0.382   3.025  0.3578  0.0421  0.0760
 1461SOL    HW1 5842   1.922   0.334   3.034  0.7716  0.7547  0.1516
 1461SOL    HW2 5843   1.864   0.474   3.034 -0.0377  0.4751 -2.5434
 1461SOL     MW 5844   1.854   0.388   3.028  0.3603  0.1963 -0.2664
 1462SOL     OW 5845   0.118   4.448   5.460 -0.0149 -0.6967  0.0782
 1462SOL    HW1 5846   0.158   4.533   5.441 -2.7641  0.4330 -1.1677
 1462SOL    HW2 5847   0.153   4.424   5.546  1.1370  1.4993  0.2966
 1462SOL     MW 5848   0.128   4.456   5.469 -0.2299 -0.2491 -0.0600
 1463SOL     OW 5849   4.992   3.585   4.426  0.1642  0.6882  0.2813
 1463SOL    HW1 5850   5.030   3.672   4.434  1.9067 -0.0996  0.9599
 1463SOL    HW2 5851   4.899   3.601   4.408  0.1149  2.6818  2.0128
 1463SOL     MW 5852   4.984   3.599   4.425  0.3920  0.8505  0.6057
 1464SOL     OW 5853   0.278   3.840  -0.000  0.4351  0.1054 -0.4637
 1464SOL    HW1 5854   0.313   3.927  -0.019 -1.9037  0.9174 -1.5110
 1464SOL    HW2 5855   0.230   3.850   0.082  0.9045 -0.4570 -0.1099
 1464SOL     MW 5856   0.276   3.853   0.008  0.1835  0.1390 -0.5570
 1465SOL     OW 5857   3.426   5.291   1.353 -0.1888 -0.2837  0.6302
 1465SOL    HW1 5858   3.484   5.262   1.423  0.9111 -1.3553 -0.6717
 1465SOL    HW2 5859   3.484   5.306   1.278 -1.2832  1.1378  0.0049
 1465SOL     MW 5860   3.442   5.289   1.352 -0.1881 -0.2366  0.3708
 1466SOL     OW 5861   3.881   0.333   2.743  0.2840  0.1549  0.0467
 1466SOL    HW1 5862   3.957   0.391   2.739 -0.1510  0.8580  1.5789
 1466SOL    HW2 5863   3.806   0.391   2.754 -0.3350 -0.6103 -0.0153
 1466SOL     MW 5864   3.881   0.349   2.744  0.1421  0.1466  0.2446
 1467SOL     OW 5865   0.791   3.605   2.507 -0.3610 -0.2190  0.4704
 1467SOL    HW1 5866   0.725   3.670   2.531 -0.1661  0.3849 -0.5397
 1467SOL    HW2 5867   0.757   3.564   2.427  0.9904  0.9301 -0.7542
 1467SOL     MW 5868   0.778   3.608   2.499 -0.1529  0.0169  0.1697
 1468SOL     OW 5869   4.412   2.888   4.095 -0.7114 -0.7268 -0.2217
 1468SOL    HW1 5870   4.337   2.830   4.080 -1.2878 -0.0079 -0.2121
 1468SOL    HW2 5871   4.396   2.925   4.182 -0.4394 -0.4368 -0.2940
 1468SOL     MW 5872   4.399   2.885   4.105 -0.7524 -0.5910 -0.2302
 1469SOL     OW 5873   4.249   1.520   0.792 -0.1115  0.3183 -0.1419
 1469SOL    HW1 5874   4.295   1.524   0.708  0.9990  2.6856  0.4750
 1469SOL    HW2 5875   4.305   1.465   0.848  1.0686  1.6264  0.0361
 1469SOL     MW 5876   4.263   1.513   0.788  0.1968  0.8129 -0.0350
 1470SOL     OW 5877   1.655   1.080   0.559 -0.1712 -0.7015  0.5841
 1470SOL    HW1 5878   1.619   1.065   0.471 -1.6698  0.4823  0.9476
 1470SOL    HW2 5879   1.683   0.994   0.589  0.4684 -1.1084 -1.0855
 1470SOL     MW 5880   1.654   1.067   0.551 -0.2868 -0.5969  0.4083
 1471SOL     OW 5881   4.464   1.483   2.271  0.1184  0.0946 -0.0077
 1471SOL    HW1 5882   4.515   1.559   2.298  0.5925  0.0258 -0.6858
 1471SOL    HW2 5883   4.452   1.433   2.352  0.6111  0.4170  0.2733
 1471SOL     MW 5884   4.470   1.487   2.285  0.2485  0.1287 -0.0612
 1472SOL     OW 5885   4.687   0.775   3.510  0.2883  0.5227  0.0070
 1472SOL    HW1 5886   4.637   0.814   3.438  1.8923  2.4828 -0.1290
 1472SOL    HW2 5887   4.643   0.806   3.589 -1.1414 -1.1777 -0.0717
 1472SOL     MW 5888   4.674   0.785   3.511  0.3118  0.5577 -0.0219
 1473SOL     OW 5889   0.685   4.783   3.736  0.4879 -0.2609 -0.1582
 1473SOL    HW1 5890   0.650   4.700   3.768 -0.5866  0.2852  0.1529
 1473SOL    HW2 5891   0.746   4.811   3.804 -1.3947  0.6408  1.2414
 1473SOL     MW 5892   0.688   4.776   3.750  0.0899 -0.0660  0.0720
 1474SOL     OW 5893   4.535   3.754   0.951 -0.2446  0.0618  0.6762
 1474SOL    HW1 5894   4.551   3.804   1.031  0.8551 -1.6748  1.6041
 1474SOL    HW2 5895   4.439   3.750   0.945 -0.3422  0.8022  1.5367
 1474SOL     MW 5896   4.524   3.760   0.961 -0.1097 -0.0723  0.9169
 1475SOL     OW 5897   1.847   2.880   2.153 -0.1513 -0.0597  0.2143
 1475SOL    HW1 5898   1.755   2.863   2.173 -0.3259  1.5831  0.9588
 1475SOL    HW2 5899   1.848   2.898   2.059 -0.6962  0.5101  0.3100
 1475SOL     MW 5900   1.835   2.880   2.143 -0.2481  0.2381  0.3273
 1476SOL     OW 5901   2.981   0.307  -0.030  0.2962  0.2392  0.2604
 1476SOL    HW1 5902   2.976   0.366   0.046 -0.7303  0.5233 -0.0085
 1476SOL    HW2 5903   2.981   0.219   0.008  2.5082  0.3734  0.7031
 1476SOL     MW 5904   2.980   0.303  -0.015  0.4557  0.2955  0.2838
 1477SOL     OW 5905   2.558   1.782   2.764 -0.0104 -0.1169  0.5284
 1477SOL    HW1 5906   2.583   1.849   2.828 -0.2879  0.8211 -0.3336
 1477SOL    HW2 5907   2.517   1.830   2.692  0.9262 -1.0864 -0.6935
 1477SOL     MW 5908   2.556   1.797   2.763  0.0783 -0.1211  0.2479
 1478SOL     OW 5909   4.164   3.032   3.231  0.2003  0.2218 -0.2543
 1478SOL    HW1 5910   4.229   3.080   3.180 -0.3695  0.0249 -1.1873
 1478SOL    HW2 5911   4.116   3.100   3.278  1.0607  0.3683  0.4498
 1478SOL     MW 5912   4.166   3.048   3.231  0.2394  0.2151 -0.2851
 1479SOL     OW 5913   0.934   3.523   4.037 -0.3723  0.0084  0.4317
 1479SOL    HW1 5914   1.016   3.551   4.076  1.2426 -2.2582 -1.0857
 1479SOL    HW2 5915   0.875   3.510   4.111  0.1875  2.7526  1.4824
 1479SOL     MW 5916   0.937   3.525   4.052 -0.0797  0.0727  0.3689
 1480SOL     OW 5917   1.676   1.811   4.218  0.4441  0.2110  0.2470
 1480SOL    HW1 5918   1.711   1.783   4.134 -0.7545  2.0284 -0.9279
 1480SOL    HW2 5919   1.602   1.867   4.196 -0.5655 -0.0777  2.5496
 1480SOL     MW 5920   1.670   1.814   4.204  0.1469  0.4167  0.3988
 1481SOL     OW 5921   5.341   4.816   1.032  0.1329 -0.3643  0.1088
 1481SOL    HW1 5922   5.351   4.798   0.939 -0.5716 -0.7134  0.0923
 1481SOL    HW2 5923   5.429   4.808   1.068  0.4270 -0.0891 -0.5514
 1481SOL     MW 5924   5.354   4.812   1.025  0.0777 -0.3743  0.0177
 1482SOL     OW 5925   4.962   3.696   0.857 -0.1491 -0.7040  0.1858
 1482SOL    HW1 5926   5.058   3.692   0.863 -0.1417 -0.1271  0.5288
 1482SOL    HW2 5927   4.944   3.771   0.800 -0.4084  0.0964  1.2830
 1482SOL     MW 5928   4.973   3.706   0.850 -0.1830 -0.5186  0.3796
 1483SOL     OW 5929   2.984   4.981   4.750 -0.0178  0.2574 -0.8135
 1483SOL    HW1 5930   2.891   4.988   4.775  0.6556  0.5817  1.8813
 1483SOL    HW2 5931   3.004   5.066   4.712 -0.7708  0.2611 -1.2338
 1483SOL     MW 5932   2.974   4.993   4.748 -0.0285  0.3016 -0.5074
 1484SOL     OW 5933   0.447   2.603   2.519  0.0784  0.3302  0.1199
 1484SOL    HW1 5934   0.516   2.558   2.470 -0.2801 -0.9399  0.7412
 1484SOL    HW2 5935   0.490   2.680   2.557  0.1173  2.1339 -3.1389
 1484SOL     MW 5936   0.462   2.608   2.518  0.0354  0.4020 -0.2351
 1485SOL     OW 5937   0.598   4.061   5.261  0.9761 -0.0041  0.1444
 1485SOL    HW1 5938   0.542   4.008   5.205  0.8203 -0.4878  0.7479
 1485SOL    HW2 5939   0.547   4.074   5.341  0.9912  1.0974 -0.0113
 1485SOL     MW 5940   0.584   4.056   5.265  0.9572  0.0790  0.2047
 1486SOL     OW 5941   0.910   0.688   2.663 -0.0632  0.0676  0.4990
 1486SOL    HW1 5942   0.930   0.682   2.569 -0.0660 -0.4745  0.5316
 1486SOL    HW2 5943   0.991   0.724   2.702  0.0853 -0.1009  0.3473
 1486SOL     MW 5944   0.924   0.692   2.656 -0.0436 -0.0280  0.4830
 1487SOL     OW 5945   2.461   2.234   1.497 -0.1110 -0.6141  0.2191
 1487SOL    HW1 5946   2.483   2.145   1.523 -0.6593 -0.6516  0.5625
 1487SOL    HW2 5947   2.525   2.256   1.430  0.8500 -0.8007  1.0512
 1487SOL     MW 5948   2.473   2.225   1.492 -0.0555 -0.6443  0.3773
 1488SOL     OW 5949   3.944   4.138   3.170  0.1609  0.1415  0.1004
 1488SOL    HW1 5950   3.905   4.164   3.254  2.2158  1.1132  0.8174
 1488SOL    HW2 5951   3.882   4.171   3.104 -0.4108  1.3482  1.1878
 1488SOL     MW 5952   3.930   4.146   3.172  0.3605  0.4347  0.3432
 1489SOL     OW 5953   3.592   2.408   1.653  0.1043 -0.4087 -0.1920
 1489SOL    HW1 5954   3.656   2.340   1.676  1.6613  1.0420 -0.0011
 1489SOL    HW2 5955   3.564   2.444   1.737  1.1254  0.7622 -0.3214
 1489SOL     MW 5956   3.597   2.404   1.667  0.4513 -0.0559 -0.1837
 1490SOL     OW 5957   1.716   1.090   4.164  0.3518  0.8649  0.2307
 1490SOL    HW1 5958   1.784   1.156   4.174  1.3728 -0.0168 -0.5978
 1490SOL    HW2 5959   1.694   1.064   4.253 -0.9953  3.1798  0.6593
 1490SOL     MW 5960   1.722   1.095   4.177  0.3079  1.0578  0.1769
 1491SOL     OW 5961   2.006   5.201   1.278  0.3133  0.1755 -0.3241
 1491SOL    HW1 5962   2.019   5.241   1.192 -1.6835  0.4164 -0.5496
 1491SOL    HW2 5963   1.963   5.268   1.330  0.1633 -0.4805  0.4146
 1491SOL     MW 5964   2.002   5.215   1.274  0.0244  0.1196 -0.2550
 1492SOL     OW 5965   0.723   0.813   2.816  0.0740 -0.2290  0.0284
 1492SOL    HW1 5966   0.792   0.778   2.760 -0.3307 -0.2235 -0.4907
 1492SOL    HW2 5967   0.682   0.737   2.855 -0.2587 -0.2985 -0.4394
 1492SOL     MW 5968   0.727   0.798   2.814 -0.0252 -0.2376 -0.1044
 1493SOL     OW 5969   0.696   2.218   4.147 -0.2399  0.0629  1.0509
 1493SOL    HW1 5970   0.701   2.236   4.241  0.4273 -1.5823  1.3731
 1493SOL    HW2 5971   0.753   2.282   4.106 -0.3993  0.6828  1.7873
 1493SOL     MW 5972   0.704   2.229   4.154 -0.1716 -0.0751  1.1933
 1494SOL     OW 5973   3.482   4.208   4.553  0.5294 -0.1426 -0.3879
 1494SOL    HW1 5974   3.488   4.186   4.646  0.9434  1.3430 -0.0361
 1494SOL    HW2 5975   3.571   4.230   4.527  0.3474 -0.1252 -1.0231
 1494SOL     MW 5976   3.495   4.208   4.562  0.5606  0.0597 -0.4261
 1495SOL     OW 5977   3.585   1.848   2.839 -0.1561 -0.1560 -0.2712
 1495SOL    HW1 5978   3.564   1.838   2.747 -0.5994 -0.8269 -0.1073
 1495SOL    HW2 5979   3.634   1.930   2.844  0.3702 -0.4038 -1.1746
 1495SOL     MW 5980   3.588   1.857   2.828 -0.1449 -0.2797 -0.3707
 1496SOL     OW 5981   4.498   4.089   0.577 -0.2081 -0.2340 -0.3515
 1496SOL    HW1 5982   4.509   4.001   0.610  2.6362  0.5646  1.1474
 1496SOL    HW2 5983   4.488   4.144   0.655  0.2921  1.0170 -1.1296
 1496SOL     MW 5984   4.498   4.085   0.592  0.2420  0.0419 -0.2545
 1497SOL     OW 5985   3.588   3.591   3.393 -0.0992  0.2706  0.4599
 1497SOL    HW1 5986   3.556   3.609   3.481  2.6099  2.4447  1.1420
 1497SOL    HW2 5987   3.674   3.552   3.406  0.2144  0.3007 -1.2381
 1497SOL     MW 5988   3.595   3.588   3.406  0.3076  0.5672  0.3232
 1498SOL     OW 5989   1.237   4.212   0.639  0.2282 -0.2581 -0.2601
 1498SOL    HW1 5990   1.317   4.161   0.631  0.5398 -0.0624  1.2406
 1498SOL    HW2 5991   1.170   4.148   0.666  0.2968 -0.1322  0.2251
 1498SOL     MW 5992   1.239   4.196   0.642  0.2794 -0.2148  0.0072
 1499SOL     OW 5993   1.463   2.409   1.508 -0.0626 -0.0374 -0.2408
 1499SOL    HW1 5994   1.534   2.463   1.543  0.2243 -0.7931  0.3730
 1499SOL    HW2 5995   1.383   2.456   1.532  0.1657 -0.0618  0.6129
 1499SOL     MW 5996   1.462   2.423   1.516  0.0067 -0.1424 -0.0433
 1500SOL     OW 5997   1.441   1.621   3.079 -0.4399 -0.2273 -0.0861
 1500SOL    HW1 5998   1.531   1.601   3.054 -0.4210  0.0893 -0.2721
 1500SOL    HW2 5999   1.387   1.562   3.026 -0.4175  0.6152 -1.1000
 1500SOL     MW 6000   1.446   1.610   3.068 -0.4344 -0.0713 -0.2476
 1501SOL     OW 6001   5.135   3.176   0.120 -0.1600  0.2157  0.0034
 1501SOL    HW1 6002   5.050   3.219   0.109 -0.0976  0.0011 -1.6742
 1501SOL    HW2 6003   5.191   3.241   0.162 -0.1593  1.7116 -2.1590
 1501SOL     MW 6004   5.131   3.190   0.124 -0.1515  0.3881 -0.5134
 1502SOL     OW 6005   2.480   4.676   2.164 -0.7767 -0.3321 -0.6889
 1502SOL    HW1 6006   2.533   4.681   2.243 -0.6018 -1.8475 -0.6754
 1502SOL    HW2 6007   2.409   4.615   2.186 -0.3919 -1.2578 -1.8438
 1502SOL     MW 6008   2.477   4.668   2.177 -0.7013 -0.6606 -0.8425
 1503SOL     OW 6009   4.799   3.504   1.560 -0.0856 -0.0273 -0.2011
 1503SOL    HW1 6010   4.779   3.595   1.540 -1.5847 -0.0889  0.7907
 1503SOL    HW2 6011   4.751   3.487   1.642  0.3749 -1.6242 -0.2324
 1503SOL     MW 6012   4.790   3.514   1.569 -0.2254 -0.2505 -0.0719
 1504SOL     OW 6013   2.670   1.438   2.891  0.0936  0.0615  0.4847
 1504SOL    HW1 6014   2.650   1.346   2.911  1.0977 -0.0452  1.0364
 1504SOL    HW2 6015   2.617   1.457   2.813 -0.1943 -0.9568  0.4154
 1504SOL     MW 6016   2.660   1.428   2.883  0.1900 -0.0899  0.5496
 1505SOL     OW 6017   3.691   4.184   2.050  0.3260  0.0993  0.6574
 1505SOL    HW1 6018   3.714   4.249   2.116 -1.1183  0.9049  0.4078
 1505SOL    HW2 6019   3.760   4.118   2.056  1.7739  1.5824  0.9877
 1505SOL     MW 6020   3.703   4.184   2.060  0.3265  0.4073  0.6682
 1506SOL     OW 6021   0.848   4.662   5.356  0.3238 -0.2726  0.2206
 1506SOL    HW1 6022   0.765   4.701   5.383  0.3823 -0.5354  0.7961
 1506SOL    HW2 6023   0.914   4.709   5.406  0.5489  0.1206 -0.4386
 1506SOL     MW 6024   0.846   4.673   5.366  0.3620 -0.2550  0.2093
 1507SOL     OW 6025   4.090   2.461   2.780 -0.0764  0.0960 -0.5840
 1507SOL    HW1 6026   4.119   2.510   2.703 -2.0590  2.4036 -0.0181
 1507SOL    HW2 6027   4.105   2.521   2.853  1.5144 -1.9392  0.8679
 1507SOL     MW 6028   4.096   2.476   2.779 -0.1291  0.1327 -0.3125
 1508SOL     OW 6029   4.456   2.706   5.279  0.0242  0.0159 -0.2330
 1508SOL    HW1 6030   4.395   2.757   5.332 -1.4863  0.9053 -2.6663
 1508SOL    HW2 6031   4.437   2.615   5.301 -0.9116  0.3534  0.3964
 1508SOL     MW 6032   4.445   2.700   5.289 -0.3050  0.1810 -0.4757
 1509SOL     OW 6033   4.417   2.298   4.160 -0.1131  0.0498  0.5114
 1509SOL    HW1 6034   4.429   2.385   4.197 -2.3386 -0.2902  2.2554
 1509SOL    HW2 6035   4.495   2.249   4.187  1.1620  1.4255 -0.4907
 1509SOL     MW 6036   4.429   2.303   4.168 -0.2410  0.1892  0.6113
 1510SOL     OW 6037   1.157   3.809   1.286  0.0407 -0.1216 -0.5929
 1510SOL    HW1 6038   1.107   3.890   1.297 -0.4074 -0.4938  0.1588
 1510SOL    HW2 6039   1.104   3.755   1.228  0.2146  0.0035 -0.8762
 1510SOL     MW 6040   1.143   3.813   1.279  0.0038 -0.1548 -0.5299
 1511SOL     OW 6041   2.832   3.798   3.124  0.0272 -0.3117  0.1722
 1511SOL    HW1 6042   2.819   3.726   3.063  1.5541 -0.3944 -0.0989
 1511SOL    HW2 6043   2.857   3.872   3.069  1.2448 -0.3407  0.6324
 1511SOL     MW 6044   2.834   3.798   3.108  0.3966 -0.3268  0.1976
 1512SOL     OW 6045   3.587   4.286   3.926  0.0772  0.1945  0.2245
 1512SOL    HW1 6046   3.518   4.228   3.891  1.2002 -1.9699  1.3794
 1512SOL    HW2 6047   3.557   4.309   4.014 -0.1466  1.0192 -0.0607
 1512SOL     MW 6048   3.574   4.281   3.933  0.1983  0.0142  0.3415
 1513SOL     OW 6049   5.462   4.068   0.096 -0.1366  0.4794 -0.2378
 1513SOL    HW1 6050   5.394   4.023   0.146 -1.5231  1.3120 -1.2688
 1513SOL    HW2 6051   5.480   4.010   0.022 -0.2040  0.5567 -0.3149
 1513SOL     MW 6052   5.455   4.054   0.093 -0.3323  0.6018 -0.3869
 1514SOL     OW 6053   4.311   0.542   3.412  0.0631 -0.1330  0.6945
 1514SOL    HW1 6054   4.372   0.498   3.471  0.7835  0.5196  0.4554
 1514SOL    HW2 6055   4.339   0.634   3.413 -1.6957  0.4335  1.5632
 1514SOL     MW 6056   4.323   0.549   3.420 -0.0766  0.0311  0.7793
 1515SOL     OW 6057   1.114   0.068   4.719 -0.5409 -0.0231  0.0867
 1515SOL    HW1 6058   1.184   0.018   4.762 -1.0277 -0.1854  0.7047
 1515SOL    HW2 6059   1.132   0.159   4.744 -0.8629 -0.1251  0.6981
 1515SOL     MW 6060   1.126   0.074   4.729 -0.6497 -0.0587  0.2522
 1516SOL     OW 6061   4.690   4.824   4.229  0.1865 -0.7659 -0.1098
 1516SOL    HW1 6062   4.685   4.776   4.312  0.8832  0.8701  0.9245
 1516SOL    HW2 6063   4.784   4.828   4.209  0.1874  0.5694  0.0934
 1516SOL     MW 6064   4.702   4.818   4.238  0.2804 -0.3660  0.0568
 1517SOL     OW 6065   2.598   2.593   5.402  0.0326  0.1669 -0.3707
 1517SOL    HW1 6066   2.522   2.543   5.374  0.0951  0.0239 -0.2853
 1517SOL    HW2 6067   2.571   2.684   5.396 -0.5988  0.0917  0.9384
 1517SOL     MW 6068   2.584   2.598   5.397 -0.0440  0.1375 -0.1830
 1518SOL     OW 6069   4.028   2.578   5.164 -0.3896 -0.0065  0.7317
 1518SOL    HW1 6070   4.055   2.506   5.107 -0.7210 -0.7217  1.4637
 1518SOL    HW2 6071   4.047   2.547   5.253 -0.1692  0.9664  1.0373
 1518SOL     MW 6072   4.034   2.564   5.168 -0.4045  0.0282  0.8713
 1519SOL     OW 6073   0.670   1.195   0.164 -0.3077  0.7156 -0.1601
 1519SOL    HW1 6074   0.679   1.100   0.165  1.8067  0.8689  1.2402
 1519SOL    HW2 6075   0.650   1.217   0.073 -1.3357 -1.0810 -0.4054
 1519SOL     MW 6076   0.668   1.185   0.152 -0.1615  0.4944 -0.0046
 1520SOL     OW 6077   0.017   1.323   0.367 -0.3466  0.1305  0.0243
 1520SOL    HW1 6078   0.064   1.283   0.439 -0.7223  2.0069  1.4071
 1520SOL    HW2 6079   0.053   1.282   0.289  3.0375  0.8620  1.0111
 1520SOL     MW 6080   0.028   1.312   0.366  0.0582  0.4815  0.3432
 1521SOL     OW 6081   0.624   4.765   2.140  0.0782 -0.1020 -0.0855
 1521SOL    HW1 6082   0.545   4.716   2.117 -1.3960  0.7917  2.6136
 1521SOL    HW2 6083   0.598   4.857   2.135  0.9474  0.2131  0.8196
 1521SOL     MW 6084   0.610   4.771   2.136 -0.0032  0.0607  0.3995
 1522SOL     OW 6085   3.682   0.203   1.018  0.5009 -0.4712 -0.4133
 1522SOL    HW1 6086   3.595   0.217   1.057  1.0241 -0.6870  0.8915
 1522SOL    HW2 6087   3.731   0.156   1.085  1.0804 -1.9916 -1.8480
 1522SOL     MW 6088   3.677   0.199   1.033  0.6493 -0.7048 -0.4308
 1523SOL     OW 6089   2.911   2.939   3.185 -0.3915 -0.0834 -0.8424
 1523SOL    HW1 6090   2.959   2.939   3.102 -1.1145  0.9583 -1.2744
 1523SOL    HW2 6091   2.841   2.875   3.172  0.0044 -0.5584 -0.7091
 1523SOL     MW 6092   2.908   2.930   3.172 -0.4355 -0.0072 -0.8826
 1524SOL     OW 6093   1.862   5.314   2.184  0.0989 -0.6373  0.4370
 1524SOL    HW1 6094   1.825   5.373   2.250  0.5757  2.7437 -2.0314
 1524SOL    HW2 6095   1.924   5.369   2.136  1.4939 -3.5817 -1.3827
 1524SOL     MW 6096   1.865   5.329   2.187  0.3508 -0.5785 -0.1401
 1525SOL     OW 6097   3.379   3.968   1.319  0.3030 -0.0321 -0.2977
 1525SOL    HW1 6098   3.393   4.020   1.399  0.5333  1.1032 -1.0593
 1525SOL    HW2 6099   3.295   3.926   1.333  1.2387 -1.4937  1.4194
 1525SOL     MW 6100   3.370   3.969   1.332  0.4599 -0.0760 -0.1691
 1526SOL     OW 6101   0.365   3.863   3.216 -0.3041  0.3807  0.0734
 1526SOL    HW1 6102   0.349   3.879   3.309 -0.5163  0.6843 -0.0110
 1526SOL    HW2 6103   0.422   3.935   3.189 -0.4708  0.4540 -0.0912
 1526SOL     MW 6104   0.370   3.875   3.225 -0.3551  0.4314  0.0399
 1527SOL     OW 6105   4.153   2.580   2.538 -0.5450  0.4697 -0.2009
 1527SOL    HW1 6106   4.198   2.522   2.477 -0.2100  0.4392  0.0647
 1527SOL    HW2 6107   4.221   2.643   2.565 -0.8374  0.8324 -0.2990
 1527SOL     MW 6108   4.169   2.581   2.534 -0.5393  0.5144 -0.1783
 1528SOL     OW 6109   2.495   2.985   4.026  0.2304 -0.4773  0.1177
 1528SOL    HW1 6110   2.421   3.003   4.083 -0.7675 -2.6493 -0.3755
 1528SOL    HW2 6111   2.569   2.973   4.085 -0.3507 -0.7376  0.8017
 1528SOL     MW 6112   2.495   2.986   4.041  0.0179 -0.8047  0.1434
 1529SOL     OW 6113   4.118   4.324   1.956  0.2992 -0.0891  0.2823
 1529SOL    HW1 6114   4.206   4.361   1.947 -0.1203  0.3950 -2.8863
 1529SOL    HW2 6115   4.079   4.371   2.030  2.1050  0.8628  0.6721
 1529SOL     MW 6116   4.125   4.335   1.965  0.4857  0.1042 -0.0917
 1530SOL     OW 6117   2.397   1.776   1.458 -0.2436  0.4710  0.8537
 1530SOL    HW1 6118   2.453   1.836   1.507  1.3457 -0.3540  0.1360
 1530SOL    HW2 6119   2.415   1.690   1.495 -0.4397  0.0878  0.0802
 1530SOL     MW 6120   2.407   1.773   1.469 -0.0561  0.3084  0.6530
 1531SOL     OW 6121   4.621   0.638   3.138 -0.3338  0.3124 -0.1934
 1531SOL    HW1 6122   4.648   0.576   3.206 -1.1097  1.9029  1.6509
 1531SOL    HW2 6123   4.550   0.594   3.092 -0.1160 -0.6015  0.3192
 1531SOL     MW 6124   4.615   0.623   3.141 -0.4089  0.4035  0.1238
 1532SOL     OW 6125   5.108   4.769   3.819  0.2601 -0.2649 -0.4105
 1532SOL    HW1 6126   5.169   4.799   3.751 -0.2599  1.2471 -0.2359
 1532SOL    HW2 6127   5.165   4.729   3.885  1.2420  2.0559  0.2538
 1532SOL     MW 6128   5.124   4.768   3.819  0.3223  0.2509 -0.2976
 1533SOL     OW 6129   3.900   3.999   3.587 -0.4897 -0.6081 -0.3533
 1533SOL    HW1 6130   3.950   3.956   3.518 -1.7278 -1.2632 -0.8756
 1533SOL    HW2 6131   3.886   4.088   3.555  2.3139  0.4034  0.8488
 1533SOL     MW 6132   3.905   4.006   3.573 -0.2790 -0.5601 -0.2618
 1534SOL     OW 6133   1.902   3.736   2.919  0.1447  0.9473  0.6005
 1534SOL    HW1 6134   1.945   3.711   2.838 -0.7756  1.1122  0.0474
 1534SOL    HW2 6135   1.894   3.654   2.968 -1.8531  0.2770 -0.7206
 1534SOL     MW 6136   1.907   3.721   2.915 -0.2480  0.8793  0.3483
 1535SOL     OW 6137   3.799   5.048   4.599 -0.2315  0.3067  0.4031
 1535SOL    HW1 6138   3.752   4.977   4.643 -1.1774 -0.7700 -2.1437
 1535SOL    HW2 6139   3.767   5.127   4.641 -0.4290 -0.6495  2.1783
 1535SOL     MW 6140   3.788   5.049   4.611 -0.3854  0.0331  0.2993
 1536SOL     OW 6141   0.692   2.274   4.413  0.8819 -0.3095 -0.5775
 1536SOL    HW1 6142   0.644   2.349   4.450  0.9613 -0.9957  0.9845
 1536SOL    HW2 6143   0.781   2.283   4.447  1.5690  0.1950 -2.3606
 1536SOL     MW 6144   0.697   2.285   4.422  0.9850 -0.3339 -0.6072
 1537SOL     OW 6145   5.048   1.398   0.486  0.4073 -0.7506  0.4112
 1537SOL    HW1 6146   5.081   1.477   0.528 -0.0592 -0.2725 -0.0803
 1537SOL    HW2 6147   5.124   1.360   0.442  0.1299  1.0570 -1.8327
 1537SOL     MW 6148   5.062   1.404   0.485  0.3072 -0.4430  0.0431
 1538SOL     OW 6149   4.315   4.379   4.795  0.3160 -0.7070 -0.4124
 1538SOL    HW1 6150   4.268   4.400   4.876  0.9216  0.9870 -0.4737
 1538SOL    HW2 6151   4.406   4.399   4.814  0.3055  0.8934 -1.8690
 1538SOL     MW 6152   4.321   4.385   4.809  0.3961 -0.2636 -0.6167
 1539SOL     OW 6153   1.211   3.867   5.342  0.0266  0.2473 -0.1012
 1539SOL    HW1 6154   1.227   3.785   5.389  0.7474  0.0558 -0.6643
 1539SOL    HW2 6155   1.287   3.877   5.285 -1.0095  0.2445 -1.5572
 1539SOL     MW 6156   1.223   3.857   5.341 -0.0159  0.2212 -0.3729
 1540SOL     OW 6157   5.277   4.528   3.594  0.1464 -0.5913  0.2295
 1540SOL    HW1 6158   5.236   4.442   3.589  1.1238 -1.0909  0.6394
 1540SOL    HW2 6159   5.213   4.587   3.555 -0.8605 -1.3852  0.6341
 1540SOL     MW 6160   5.263   4.525   3.588  0.1424 -0.7654  0.3391
 1541SOL     OW 6161   4.035   0.397   5.285  0.9675  0.7982 -0.0526
 1541SOL    HW1 6162   3.962   0.339   5.263  0.5035  1.6130 -0.7233
 1541SOL    HW2 6163   4.019   0.421   5.376  0.3515  1.0238 -0.2126
 1541SOL     MW 6164   4.023   0.393   5.294  0.8222  0.9382 -0.1644
 1542SOL     OW 6165   3.151   0.689   4.838 -0.0890  0.4431 -0.0307
 1542SOL    HW1 6166   3.059   0.705   4.818 -0.5377 -1.7178  0.0579
 1542SOL    HW2 6167   3.153   0.671   4.932  0.1978 -0.8011 -0.2566
 1542SOL     MW 6168   3.139   0.689   4.848 -0.1108 -0.0151 -0.0492
 1543SOL     OW 6169   4.832   1.696   3.606 -0.5009  0.2719  0.1949
 1543SOL    HW1 6170   4.848   1.780   3.564  0.6446 -0.1527 -0.2545
 1543SOL    HW2 6171   4.906   1.641   3.581 -1.5831 -1.1239 -0.1294
 1543SOL     MW 6172   4.844   1.700   3.597 -0.4924  0.0269  0.0907
 1544SOL     OW 6173   2.327   2.636   0.886 -0.1403  0.4845  0.6840
 1544SOL    HW1 6174   2.403   2.591   0.922  0.0996  0.2112 -0.1291
 1544SOL    HW2 6175   2.330   2.724   0.923 -0.5340 -0.1050  2.1842
 1544SOL     MW 6176   2.337   2.642   0.896 -0.1610  0.3684  0.7765
 1545SOL     OW 6177   3.781   0.549   4.548 -0.2412  0.1161 -0.2011
 1545SOL    HW1 6178   3.721   0.614   4.585  1.1924  1.4117 -0.0018
 1545SOL    HW2 6179   3.814   0.590   4.468  0.5280 -0.4437 -0.1826
 1545SOL     MW 6180   3.777   0.563   4.542  0.0553  0.2151 -0.1718
 1546SOL     OW 6181   0.543   3.555   2.906  0.0627  0.0998  1.2903
 1546SOL    HW1 6182   0.628   3.541   2.947  0.8033 -0.5528 -0.3768
 1546SOL    HW2 6183   0.480   3.519   2.969  1.2108 -1.6917  1.4953
 1546SOL     MW 6184   0.546   3.548   2.920  0.3169 -0.2291  1.0935
 1547SOL     OW 6185   0.300   0.634   0.985  0.4076  0.0368 -0.1884
 1547SOL    HW1 6186   0.262   0.619   0.899  2.0531 -0.2018 -0.9009
 1547SOL    HW2 6187   0.246   0.581   1.044  0.1266 -0.9255 -1.2765
 1547SOL     MW 6188   0.288   0.625   0.982  0.5912 -0.1248 -0.4307
 1548SOL     OW 6189   0.051   3.091   1.767  0.3074  0.4097 -0.1778
 1548SOL    HW1 6190  -0.014   3.149   1.728  1.2869  1.5579 -0.1673
 1548SOL    HW2 6191   0.132   3.108   1.718  0.6482 -0.8849 -0.1039
 1548SOL     MW 6192   0.053   3.101   1.755  0.4851  0.3900 -0.1665
 1549SOL     OW 6193   0.108   0.349   5.075  0.7361 -0.5566 -0.3176
 1549SOL    HW1 6194   0.150   0.386   4.997  2.0846 -1.1067  0.1325
 1549SOL    HW2 6195   0.128   0.256   5.071 -0.7147 -0.8968 -0.2403
 1549SOL     MW 6196   0.116   0.342   5.064  0.7223 -0.6764 -0.2466
 1550SOL     OW 6197   0.931   1.343   3.956 -0.6513 -0.8177 -0.6940
 1550SOL    HW1 6198   0.988   1.295   3.896 -0.9170  0.1395 -1.7422
 1550SOL    HW2 6199   0.920   1.429   3.915 -0.8346 -0.1260  0.7388
 1550SOL     MW 6200   0.937   1.348   3.942 -0.7117 -0.5958 -0.6423
 1551SOL     OW 6201   2.841   2.430   2.425 -0.3041 -0.2059  0.4537
 1551SOL    HW1 6202   2.825   2.375   2.502  1.0427 -0.5593  0.5138
 1551SOL    HW2 6203   2.917   2.389   2.382 -0.3661  0.6117 -0.4673
 1551SOL     MW 6204   2.849   2.417   2.430 -0.1312 -0.1434  0.3379
 1552SOL     OW 6205   4.125   0.138   2.517 -0.5049  0.2125 -1.1528
 1552SOL    HW1 6206   4.183   0.163   2.590 -1.1577 -0.8685 -0.2265
 1552SOL    HW2 6207   4.040   0.172   2.542 -1.2959 -2.2516 -0.1302
 1552SOL     MW 6208   4.122   0.146   2.530 -0.6992 -0.2646 -0.8905
 1553SOL     OW 6209   4.529   4.395   3.262 -0.2350  0.0670  0.0045
 1553SOL    HW1 6210   4.619   4.398   3.230 -0.9292  1.4863 -2.0222
 1553SOL    HW2 6211   4.491   4.478   3.233 -2.1625 -0.4293  0.9578
 1553SOL     MW 6212   4.536   4.407   3.254 -0.5878  0.1912 -0.1400
 1554SOL     OW 6213   5.126   4.847   2.825  0.3394 -0.4354  0.2811
 1554SOL    HW1 6214   5.143   4.756   2.848  0.5368 -0.8089 -1.2313
 1554SOL    HW2 6215   5.213   4.886   2.813  0.2958 -0.8503 -1.8901
 1554SOL     MW 6216   5.140   4.840   2.826  0.3601 -0.5415 -0.2146
 1555SOL     OW 6217   4.122   5.429   1.214  0.3946 -0.2262 -0.5912
 1555SOL    HW1 6218   4.079   5.449   1.130  0.4845 -0.2902 -0.6530
 1555SOL    HW2 6219   4.214   5.414   1.191  0.4556 -0.0612 -0.4552
 1555SOL     MW 6220   4.129   5.430   1.199  0.4149 -0.2126 -0.5812
 1556SOL     OW 6221   3.463   1.481   0.847  0.4999 -0.0735 -0.1894
 1556SOL    HW1 6222   3.424   1.427   0.778  1.4307 -0.3145 -0.5447
 1556SOL    HW2 6223   3.525   1.423   0.891  0.5776  0.3437  0.2578
 1556SOL     MW 6224   3.466   1.466   0.843  0.6356 -0.0498 -0.1770
 1557SOL     OW 6225   1.965   1.492   4.901  0.0484 -0.1012 -0.0212
 1557SOL    HW1 6226   1.948   1.441   4.981 -0.5752 -0.0243 -0.0971
 1557SOL    HW2 6227   1.879   1.504   4.862  0.4603 -1.1806 -1.3525
 1557SOL     MW 6228   1.951   1.487   4.906  0.0199 -0.2361 -0.2106
 1558SOL     OW 6229   5.247   1.328   0.308  0.3846  0.6270 -0.0137
 1558SOL    HW1 6230   5.335   1.324   0.345  1.8845 -0.5590 -3.2993
 1558SOL    HW2 6231   5.254   1.391   0.236 -1.9915  1.8480  0.6999
 1558SOL     MW 6232   5.260   1.336   0.303  0.2667  0.6317 -0.3598
 1559SOL     OW 6233   4.686   2.196   4.193 -0.2143  0.2405 -0.1999
 1559SOL    HW1 6234   4.754   2.231   4.250 -2.0872  2.5866  0.7776
 1559SOL    HW2 6235   4.718   2.210   4.105  0.4428  1.6346  0.2363
 1559SOL     MW 6236   4.699   2.203   4.189 -0.3779  0.7439 -0.0097
 1560SOL     OW 6237   4.903   4.934   1.496  0.3718  0.2718 -0.0824
 1560SOL    HW1 6238   4.851   4.949   1.417 -0.1613  1.5885  0.4926
 1560SOL    HW2 6239   4.861   4.859   1.539  1.0598 -0.8843 -1.3445
 1560SOL     MW 6240   4.891   4.926   1.491  0.3926  0.2934 -0.1749
 1561SOL     OW 6241   1.712   2.207   5.346 -0.4427 -0.1701  0.5312
 1561SOL    HW1 6242   1.736   2.254   5.426 -3.0885 -0.5698  1.6632
 1561SOL    HW2 6243   1.617   2.217   5.340 -0.6018 -2.1047 -1.3080
 1561SOL     MW 6244   1.703   2.215   5.356 -0.8202 -0.4842  0.4360
 1562SOL     OW 6245   2.107   3.330   3.559 -0.1335  0.1044 -0.3484
 1562SOL    HW1 6246   2.156   3.399   3.516 -0.4866 -0.3213 -1.4960
 1562SOL    HW2 6247   2.015   3.356   3.548 -0.2305 -0.0264  0.1357
 1562SOL     MW 6248   2.101   3.342   3.552 -0.1941  0.0295 -0.4377
 1563SOL     OW 6249   0.590   1.377   3.829 -0.2093 -0.5252  0.2024
 1563SOL    HW1 6250   0.608   1.460   3.874  0.1793 -0.5646  0.1278
 1563SOL    HW2 6251   0.624   1.310   3.888 -1.4220 -0.7034  0.7218
 1563SOL     MW 6252   0.597   1.379   3.843 -0.3202 -0.5545  0.2622
 1564SOL     OW 6253   4.756   3.085   3.092 -0.5004  0.0208 -0.1007
 1564SOL    HW1 6254   4.804   3.030   3.154 -0.6760 -0.6622 -0.5489
 1564SOL    HW2 6255   4.673   3.103   3.135 -0.7051 -0.6233 -0.2122
 1564SOL     MW 6256   4.751   3.080   3.106 -0.5516 -0.1578 -0.1760
 1565SOL     OW 6257   1.828   4.350   2.345  0.1056 -0.1350 -0.2642
 1565SOL    HW1 6258   1.860   4.320   2.260 -1.6407  1.4071 -1.5605
 1565SOL    HW2 6259   1.733   4.340   2.339 -0.1052  0.7482  1.2275
 1565SOL     MW 6260   1.819   4.344   2.333 -0.1578  0.1914 -0.2379
 1566SOL     OW 6261   1.759   2.400   0.030 -0.2507  0.1170  0.0067
 1566SOL    HW1 6262   1.825   2.360   0.087 -0.1218 -0.3672 -0.4748
 1566SOL    HW2 6263   1.806   2.469  -0.017 -0.1204 -0.1347 -0.2326
 1566SOL     MW 6264   1.774   2.404   0.031 -0.2159  0.0180 -0.0903
 1567SOL     OW 6265   1.903   3.386   1.534 -0.0959  0.0751 -0.1632
 1567SOL    HW1 6266   1.967   3.457   1.539 -0.6107  0.8411 -2.8255
 1567SOL    HW2 6267   1.950   3.312   1.497 -0.4042  0.1981 -0.8127
 1567SOL     MW 6268   1.918   3.386   1.530 -0.2067  0.1948 -0.6089
 1568SOL     OW 6269   2.735   1.826   4.978 -0.1509 -0.6008 -0.0319
 1568SOL    HW1 6270   2.728   1.910   4.932  3.4490  0.3496  0.8059
 1568SOL    HW2 6271   2.705   1.845   5.067  3.5814  0.8922  1.0931
 1568SOL     MW 6272   2.730   1.840   4.984  0.8359 -0.2719  0.2322
 1569SOL     OW 6273   0.540   2.222   5.367  0.1633  0.5728 -0.0548
 1569SOL    HW1 6274   0.473   2.196   5.303 -0.7938  3.2147 -0.2934
 1569SOL    HW2 6275   0.490   2.242   5.446  1.2129 -1.4825  1.2133
 1569SOL     MW 6276   0.524   2.221   5.369  0.1757  0.6517  0.0837
 1570SOL     OW 6277   2.151   0.438   4.507  0.1220 -0.0791  0.1248
 1570SOL    HW1 6278   2.178   0.498   4.577  0.6876 -0.9534  0.6759
 1570SOL    HW2 6279   2.098   0.492   4.449  1.5323  1.2509 -0.0004
 1570SOL     MW 6280   2.148   0.453   4.509  0.3879 -0.0178  0.1821
 1571SOL     OW 6281   2.212   3.072   5.195  0.2039  0.4811  0.0559
 1571SOL    HW1 6282   2.231   2.992   5.243 -0.0580 -0.7033 -1.7520
 1571SOL    HW2 6283   2.172   3.130   5.261 -1.6064 -1.6342  0.9543
 1571SOL     MW 6284   2.209   3.069   5.210 -0.0749  0.0370 -0.0665
 1572SOL     OW 6285   1.336   2.719   0.301 -0.4128  0.2552 -0.0539
 1572SOL    HW1 6286   1.413   2.721   0.246 -1.1990 -0.6185 -1.2325
 1572SOL    HW2 6287   1.367   2.686   0.386  0.4420 -0.4621 -0.6323
 1572SOL     MW 6288   1.350   2.715   0.305 -0.4036  0.0411 -0.2903
 1573SOL     OW 6289   2.985   2.414   1.790 -0.2943  0.2077  0.1327
 1573SOL    HW1 6290   2.924   2.473   1.834 -0.2028 -0.0594  0.6320
 1573SOL    HW2 6291   3.010   2.352   1.858 -0.0462 -0.1356 -0.2700
 1573SOL     MW 6292   2.980   2.414   1.805 -0.2486  0.1255  0.1457
 1574SOL     OW 6293   1.567   2.089   0.527 -0.1317  0.4292  0.3826
 1574SOL    HW1 6294   1.524   2.174   0.514 -1.0019  0.2345  1.7775
 1574SOL    HW2 6295   1.514   2.046   0.594 -0.0433 -1.4532 -0.6808
 1574SOL     MW 6296   1.554   2.094   0.534 -0.2369  0.1496  0.4272
 1575SOL     OW 6297   2.663   4.704   1.069  0.1336 -0.3747 -0.5218
 1575SOL    HW1 6298   2.725   4.669   1.006  1.8935 -1.1615  1.5391
 1575SOL    HW2 6299   2.716   4.755   1.130 -1.3899 -0.1275  0.6806
 1575SOL     MW 6300   2.678   4.706   1.069  0.1654 -0.4473 -0.0826
 1576SOL     OW 6301   1.896   1.833   1.746  0.3040 -0.1082 -0.0867
 1576SOL    HW1 6302   1.943   1.762   1.703 -0.6253 -1.3110  0.8199
 1576SOL    HW2 6303   1.827   1.857   1.683  0.1300 -0.5571 -0.0703
 1576SOL     MW 6304   1.893   1.827   1.732  0.1555 -0.3305  0.0376
 1577SOL     OW 6305   4.978   3.943   5.464  0.0412  0.0340  0.4345
 1577SOL    HW1 6306   4.993   3.948   5.559 -0.4411 -1.1299  0.5850
 1577SOL    HW2 6307   4.883   3.932   5.455  0.0959  0.0171 -0.1808
 1577SOL     MW 6308   4.967   3.942   5.476 -0.0164 -0.1249  0.3720
 1578SOL     OW 6309   2.668   0.941   2.265 -0.4459  0.1465  0.1810
 1578SOL    HW1 6310   2.582   0.900   2.275  0.9239 -2.6954  1.3945
 1578SOL    HW2 6311   2.708   0.897   2.190  0.2556  0.8875  0.0972
 1578SOL     MW 6312   2.662   0.930   2.256 -0.1672 -0.1363  0.3330
 1579SOL     OW 6313   1.999   3.499   2.213 -0.9475  0.0170 -0.3403
 1579SOL    HW1 6314   2.092   3.523   2.212 -1.4524  2.3886  1.3965
 1579SOL    HW2 6315   1.961   3.547   2.139 -1.1812  1.1216  0.4670
 1579SOL     MW 6316   2.006   3.509   2.203 -1.0469  0.4848  0.0021
 1580SOL     OW 6317   0.032   0.145   1.873  0.5777  0.4539 -0.2569
 1580SOL    HW1 6318  -0.016   0.162   1.954  1.5427 -1.7026  0.8443
 1580SOL    HW2 6319  -0.030   0.098   1.817  0.4595  0.3426 -0.0320
 1580SOL     MW 6320   0.017   0.141   1.876  0.6917  0.1487 -0.0784
 1581SOL     OW 6321   4.863   0.662   5.412  0.4393  0.7205  0.0328
 1581SOL    HW1 6322   4.898   0.712   5.486  0.7774  1.1504 -0.4168
 1581SOL    HW2 6323   4.922   0.588   5.404  0.1034  0.3910  0.5171
 1581SOL     MW 6324   4.876   0.659   5.421  0.4396  0.7340  0.0375
 1582SOL     OW 6325   3.460   4.877   3.939 -0.4787  0.2065  0.1832
 1582SOL    HW1 6326   3.428   4.851   3.852 -2.1270  2.1574  0.1213
 1582SOL    HW2 6327   3.546   4.836   3.946  0.1507  0.7527 -2.8043
 1582SOL     MW 6328   3.467   4.868   3.928 -0.6158  0.5425 -0.2272
 1583SOL     OW 6329   1.204   0.430   1.822 -0.3078  0.1244 -0.1139
 1583SOL    HW1 6330   1.120   0.384   1.824 -0.7795  0.9455  1.6117
 1583SOL    HW2 6331   1.247   0.404   1.903  0.8926  0.1221 -0.7335
 1583SOL     MW 6332   1.198   0.421   1.833 -0.2097  0.2346  0.0350
 1584SOL     OW 6333   2.805   3.321   0.823 -0.1256 -0.0905  0.5226
 1584SOL    HW1 6334   2.834   3.411   0.833  1.0587 -0.5025  1.0114
 1584SOL    HW2 6335   2.713   3.322   0.849  0.2707  0.7172  2.0082
 1584SOL     MW 6336   2.797   3.333   0.828  0.0871 -0.0372  0.7883
 1585SOL     OW 6337   0.852   3.096   4.745 -0.2687  0.7846 -0.5315
 1585SOL    HW1 6338   0.920   3.085   4.679  0.3258 -0.3766  0.2541
 1585SOL    HW2 6339   0.865   3.024   4.806 -1.9170  0.8009 -0.1036
 1585SOL     MW 6340   0.863   3.085   4.744 -0.4105  0.6305 -0.3682
 1586SOL     OW 6341   1.302   4.729   4.001 -0.3841 -0.0914  0.6045
 1586SOL    HW1 6342   1.307   4.787   4.077 -1.1606 -0.9351  1.3337
 1586SOL    HW2 6343   1.280   4.787   3.928 -0.2891  0.6462  1.1507
 1586SOL     MW 6344   1.299   4.745   4.002 -0.4758 -0.1056  0.7762
 1587SOL     OW 6345   2.489   0.117   2.489  0.4065  0.1202  0.3112
 1587SOL    HW1 6346   2.558   0.051   2.486  0.6521  0.3584  0.6481
 1587SOL    HW2 6347   2.449   0.113   2.402 -0.6295 -1.5785  0.8237
 1587SOL     MW 6348   2.493   0.107   2.477  0.3001 -0.0764  0.4255
 1588SOL     OW 6349   4.469   2.445   2.417 -0.1591  0.3310 -0.4820
 1588SOL    HW1 6350   4.537   2.379   2.429 -0.2629 -0.0306 -1.7769
 1588SOL    HW2 6351   4.387   2.396   2.422 -0.2328  0.3281 -1.5761
 1588SOL     MW 6352   4.467   2.430   2.419 -0.1830  0.2819 -0.8035
 1589SOL     OW 6353   1.488   3.124   4.130 -0.6574  0.4640  0.3890
 1589SOL    HW1 6354   1.492   3.040   4.176 -2.6221  0.1786  0.1246
 1589SOL    HW2 6355   1.578   3.139   4.100 -0.4302 -2.0644 -0.4783
 1589SOL     MW 6356   1.501   3.115   4.132 -0.8912  0.0854  0.2367
 1590SOL     OW 6357   4.191   0.524   4.845 -0.3613  0.1053  0.2915
 1590SOL    HW1 6358   4.239   0.517   4.762  0.2112 -0.5786  0.6679
 1590SOL    HW2 6359   4.101   0.503   4.823 -0.0484 -0.9747 -0.0022
 1590SOL     MW 6360   4.185   0.520   4.831 -0.2421 -0.1320  0.3027
 1591SOL     OW 6361   5.408   5.216   1.683  0.1599 -0.1869  0.0078
 1591SOL    HW1 6362   5.435   5.185   1.597  0.0690  0.5561 -0.2986
 1591SOL    HW2 6363   5.321   5.179   1.697  0.2201 -0.3972 -0.1711
 1591SOL     MW 6364   5.400   5.207   1.673  0.1558 -0.1152 -0.0575
 1592SOL     OW 6365   3.543   4.354   0.133 -0.1242 -0.8375  0.0424
 1592SOL    HW1 6366   3.611   4.344   0.200 -0.7428 -2.2578  0.5062
 1592SOL    HW2 6367   3.463   4.327   0.177 -0.3019 -3.6045 -1.7063
 1592SOL     MW 6368   3.542   4.349   0.148 -0.2314 -1.4010 -0.1306
 1593SOL     OW 6369   0.098   5.213   0.571 -0.0495  0.0929 -0.0657
 1593SOL    HW1 6370   0.019   5.241   0.617 -0.0855 -1.2514  0.7401
 1593SOL    HW2 6371   0.140   5.151   0.631  0.9912 -0.1305 -0.9908
 1593SOL     MW 6372   0.093   5.208   0.585  0.0857 -0.1181 -0.0818
 1594SOL     OW 6373   4.791   1.118   5.488 -0.5931  0.0203 -0.0698
 1594SOL    HW1 6374   4.833   1.171   5.421 -1.1790  2.1460  1.1491
 1594SOL    HW2 6375   4.742   1.051   5.439  1.4590 -0.4589 -1.5938
 1594SOL     MW 6376   4.790   1.116   5.473 -0.3958  0.2419 -0.1109
 1595SOL     OW 6377   1.801   4.833   1.229 -0.0882  0.1722 -0.7204
 1595SOL    HW1 6378   1.848   4.844   1.147 -0.1652  0.7422 -0.6939
 1595SOL    HW2 6379   1.729   4.773   1.208  1.2273 -1.5401 -0.5206
 1595SOL     MW 6380   1.797   4.826   1.215  0.0784  0.0185 -0.6899
 1596SOL     OW 6381   3.100   2.840   2.432 -0.3753  0.4394  0.0254
 1596SOL    HW1 6382   3.134   2.872   2.515 -1.6770 -1.8048  1.5415
 1596SOL    HW2 6383   3.157   2.767   2.409  1.1586  2.1756 -2.1720
 1596SOL     MW 6384   3.112   2.834   2.440 -0.3441  0.3710 -0.0663
 1597SOL     OW 6385   3.613   0.439   2.759  0.7477 -0.0600  0.3868
 1597SOL    HW1 6386   3.577   0.528   2.759  2.1170  0.5210  0.5155
 1597SOL    HW2 6387   3.569   0.395   2.687 -0.1573  0.6325  0.4993
 1597SOL     MW 6388   3.602   0.445   2.749  0.8102  0.1114  0.4193
 1598SOL     OW 6389   5.498   1.569   0.473 -0.2807 -0.2758  0.2586
 1598SOL    HW1 6390   5.419   1.539   0.518 -1.8521  0.2106 -2.0008
 1598SOL    HW2 6391   5.524   1.494   0.419  1.4009 -0.7437  1.6023
 1598SOL     MW 6392   5.491   1.555   0.472 -0.2659 -0.2733  0.1354
 1599SOL     OW 6393   4.374   4.824   3.627 -0.0382  0.0953 -0.1922
 1599SOL    HW1 6394   4.431   4.775   3.568  0.3284  1.7567 -1.3179
 1599SOL    HW2 6395   4.331   4.888   3.570 -1.1727  0.4763  1.0514
 1599SOL     MW 6396   4.376   4.826   3.611 -0.1416  0.3701 -0.1764
 1600SOL     OW 6397   0.095   1.454   4.561 -0.5409 -1.2530  0.5836
 1600SOL    HW1 6398   0.049   1.446   4.645 -1.3203  0.2517  0.3341
 1600SOL    HW2 6399   0.067   1.379   4.510 -2.1990 -0.7600  0.7102
 1600SOL     MW 6400   0.085   1.443   4.566 -0.8690 -0.9841  0.5671
 1601SOL     OW 6401   3.848   1.563   3.459  0.3775 -0.2444  0.1407
 1601SOL    HW1 6402   3.929   1.609   3.481  0.1375 -0.2355  1.0330
 1601SOL    HW2 6403   3.857   1.477   3.499 -0.2134 -0.1038  0.5998
 1601SOL     MW 6404   3.860   1.558   3.467  0.2657 -0.2243  0.3225
 1602SOL     OW 6405   5.373   1.566   5.241 -0.3800 -0.1629  0.1403
 1602SOL    HW1 6406   5.370   1.504   5.314  1.5169  0.2061  0.5906
 1602SOL    HW2 6407   5.299   1.626   5.257 -0.3395 -0.4324  1.4442
 1602SOL     MW 6408   5.362   1.566   5.253 -0.1192 -0.1495  0.3763
 1603SOL     OW 6409   2.396   0.980   1.403 -0.2257  0.3968  0.0711
 1603SOL    HW1 6410   2.474   1.032   1.387 -0.1810  0.2580 -0.1636
 1603SOL    HW2 6411   2.398   0.961   1.497 -0.7633  1.6579  0.3600
 1603SOL     MW 6412   2.407   0.984   1.413 -0.2920  0.5478  0.0784
 1604SOL     OW 6413   1.299   4.354   0.097 -0.3965  0.0371  0.1237
 1604SOL    HW1 6414   1.222   4.372   0.150 -0.9772  0.1447 -0.7465
 1604SOL    HW2 6415   1.273   4.285   0.037  0.1403  0.1647 -0.2686
 1604SOL     MW 6416   1.285   4.347   0.096 -0.4024  0.0687 -0.0462
 1605SOL     OW 6417   4.791   3.762   1.495 -0.3702 -0.0970 -0.4969
 1605SOL    HW1 6418   4.720   3.802   1.545  0.2846 -1.7342  1.8983
 1605SOL    HW2 6419   4.866   3.820   1.508  0.0752 -1.0201  1.4030
 1605SOL     MW 6420   4.791   3.775   1.504 -0.2221 -0.4415  0.0811
 1606SOL     OW 6421   5.232   3.963   0.945  0.6562  0.1260 -0.4883
 1606SOL    HW1 6422   5.249   3.875   0.979  0.6493  0.0235 -0.7500
 1606SOL    HW2 6423   5.167   3.999   1.004  1.0084  0.1295 -0.0986
 1606SOL     MW 6424   5.226   3.956   0.958  0.7027  0.1127 -0.4711
 1607SOL     OW 6425   0.547   4.437   3.142  0.2013 -1.5938  0.3834
 1607SOL    HW1 6426   0.466   4.435   3.092 -0.3525 -0.7862  1.2143
 1607SOL    HW2 6427   0.583   4.524   3.127  0.2046 -1.4623  1.0974
 1607SOL     MW 6428   0.541   4.449   3.133  0.1272 -1.4674  0.5913
 1608SOL     OW 6429   1.703   1.273   4.753  0.7098 -0.0640  0.3489
 1608SOL    HW1 6430   1.719   1.259   4.660  0.3961 -0.8730  0.4119
 1608SOL    HW2 6431   1.612   1.245   4.766 -0.3567  3.0293  0.2936
 1608SOL     MW 6432   1.693   1.267   4.742  0.5240  0.2434  0.3499
 1609SOL     OW 6433   5.198   0.038   1.921  0.1096  0.2736  0.4079
 1609SOL    HW1 6434   5.268   0.077   1.973  2.9867  0.4552 -3.1616
 1609SOL    HW2 6435   5.174   0.106   1.858  0.1087 -1.2759 -1.3785
 1609SOL     MW 6436   5.205   0.052   1.919  0.4967  0.0895 -0.3129
 1610SOL     OW 6437   0.152   0.242   2.895  0.0922  0.0635 -0.1950
 1610SOL    HW1 6438   0.214   0.281   2.957 -0.9310  2.6883 -0.6802
 1610SOL    HW2 6439   0.076   0.300   2.898 -2.1472 -2.7121 -0.0508
 1610SOL     MW 6440   0.150   0.255   2.903 -0.3469  0.0432 -0.2409
 1611SOL     OW 6441   2.554   4.081   5.475 -0.4904 -0.0535  0.1808
 1611SOL    HW1 6442   2.639   4.101   5.514 -0.6264 -1.6599  1.3729
 1611SOL    HW2 6443   2.571   4.008   5.416 -0.6787  1.0151 -1.2510
 1611SOL     MW 6444   2.568   4.074   5.472 -0.5340 -0.1259  0.1485
 1612SOL     OW 6445   3.720   4.275   4.442  0.1715  0.2692  0.4310
 1612SOL    HW1 6446   3.773   4.264   4.522 -0.9939 -1.8488  1.0071
 1612SOL    HW2 6447   3.751   4.206   4.384 -0.4724  0.4030 -0.0816
 1612SOL     MW 6448   3.731   4.264   4.445 -0.0720  0.0022  0.4396
 1613SOL     OW 6449   2.853   2.958   3.857  0.3322  0.4909  0.0888
 1613SOL    HW1 6450   2.942   2.991   3.847  0.4023 -0.0590 -1.2757
 1613SOL    HW2 6451   2.803   3.002   3.788  0.3294 -1.7948 -1.4785
 1613SOL     MW 6452   2.858   2.968   3.847  0.3412  0.1092 -0.3058
 1614SOL     OW 6453   1.130   1.718   5.415 -0.2524  0.1282 -0.1863
 1614SOL    HW1 6454   1.046   1.734   5.372 -0.1057  1.3166 -0.0793
 1614SOL    HW2 6455   1.164   1.806   5.434  0.9678 -0.3308 -0.1417
 1614SOL     MW 6456   1.124   1.732   5.411 -0.0684  0.2264 -0.1659
 1615SOL     OW 6457   5.423   0.632   0.994  0.5378 -0.6246 -0.7001
 1615SOL    HW1 6458   5.380   0.550   1.019 -1.9640  0.8077  0.0368
 1615SOL    HW2 6459   5.464   0.663   1.075  1.1663 -0.9282 -0.8923
 1615SOL     MW 6460   5.423   0.625   1.008  0.2857 -0.4727 -0.6268
 1616SOL     OW 6461   2.588   4.071   3.390 -0.1465  0.3867  0.3173
 1616SOL    HW1 6462   2.621   4.007   3.327 -0.1716  0.6496  0.0297
 1616SOL    HW2 6463   2.590   4.026   3.474  1.7817  0.6658  0.4740
 1616SOL     MW 6464   2.593   4.057   3.393  0.1096  0.4596  0.2997
 1617SOL     OW 6465   2.909   3.216   3.633 -0.1457 -0.0418  0.2626
 1617SOL    HW1 6466   2.860   3.184   3.558 -0.9960  1.3720  0.1833
 1617SOL    HW2 6467   2.999   3.188   3.617 -0.2618  0.4580 -1.4197
 1617SOL     MW 6468   2.914   3.208   3.621 -0.2757  0.2158  0.0255
 1618SOL     OW 6469   1.076   2.930   3.576 -0.1898 -0.2531 -0.5270
 1618SOL    HW1 6470   1.116   2.905   3.659  1.6013 -0.4586 -1.3914
 1618SOL    HW2 6471   1.023   3.007   3.597 -2.7020 -2.3631  1.4484
 1618SOL     MW 6472   1.074   2.937   3.590 -0.2869 -0.5647 -0.3775
 1619SOL     OW 6473   3.751   0.516   5.490 -0.3895  0.2482  0.3607
 1619SOL    HW1 6474   3.719   0.522   5.400  0.9571 -1.7867 -0.3232
 1619SOL    HW2 6475   3.731   0.427   5.517 -4.1122  1.7211  3.5226
 1619SOL     MW 6476   3.744   0.505   5.482 -0.7093  0.1726  0.6942
 1620SOL     OW 6477   0.393   3.589   2.457 -0.8569 -0.0416 -0.4783
 1620SOL    HW1 6478   0.339   3.528   2.507  0.0236 -0.8931 -0.5297
 1620SOL    HW2 6479   0.331   3.637   2.403 -1.6996  0.0255  0.5110
 1620SOL     MW 6480   0.377   3.587   2.457 -0.8518 -0.1471 -0.3520
 1621SOL     OW 6481   0.772   3.911   1.153 -0.1233 -0.0731 -0.2742
 1621SOL    HW1 6482   0.780   3.862   1.235 -0.0810  0.2527 -0.0822
 1621SOL    HW2 6483   0.732   3.994   1.178  1.7336  0.8573 -0.2536
 1621SOL     MW 6484   0.768   3.915   1.167  0.1323  0.0959 -0.2456
 1622SOL     OW 6485   2.796   0.044   1.396  0.1046  0.4048  0.0862
 1622SOL    HW1 6486   2.829   0.091   1.473  1.6594  2.2606 -1.6036
 1622SOL    HW2 6487   2.702   0.060   1.397  0.2316  1.2053  1.0862
 1622SOL     MW 6488   2.788   0.053   1.406  0.3309  0.7623 -0.0067
 1623SOL     OW 6489   1.062   3.784   3.763  0.2910 -0.0622 -0.1283
 1623SOL    HW1 6490   1.089   3.823   3.680  0.2271  0.8529  0.2638
 1623SOL    HW2 6491   1.106   3.838   3.830  0.1571 -0.6403  0.4321
 1623SOL     MW 6492   1.072   3.797   3.761  0.2644 -0.0168 -0.0001
 1624SOL     OW 6493   0.108   5.266   4.372 -0.3284 -0.2107  0.2155
 1624SOL    HW1 6494   0.096   5.184   4.324  0.8527  0.2157 -0.8630
 1624SOL    HW2 6495   0.120   5.239   4.463 -0.6645 -1.1723 -0.0127
 1624SOL     MW 6496   0.108   5.251   4.378 -0.2147 -0.2827  0.0396
 1625SOL     OW 6497   0.710   3.601   1.730  0.2668 -0.0020  0.0089
 1625SOL    HW1 6498   0.768   3.665   1.689  0.1053 -0.1149 -0.3940
 1625SOL    HW2 6499   0.662   3.650   1.796  0.5214  0.1809  0.0580
 1625SOL     MW 6500   0.712   3.616   1.733  0.2793  0.0075 -0.0387
 1626SOL     OW 6501   2.689   1.761   0.821  0.2214 -0.3462 -0.3544
 1626SOL    HW1 6502   2.677   1.829   0.755 -1.9013 -0.5000 -0.2184
 1626SOL    HW2 6503   2.739   1.693   0.776 -0.3631 -0.0391 -1.5241
 1626SOL     MW 6504   2.694   1.761   0.806 -0.1430 -0.3256 -0.4936
 1627SOL     OW 6505   4.033   2.019   4.066 -0.0458 -0.1859  0.1792
 1627SOL    HW1 6506   4.108   1.992   4.119  0.7136 -0.9881 -1.2319
 1627SOL    HW2 6507   4.060   2.002   3.976 -1.4523  0.7193 -0.4518
 1627SOL     MW 6508   4.047   2.013   4.061 -0.1329 -0.1720 -0.0957
 1628SOL     OW 6509   4.555   3.610   4.650  0.3235 -0.2036  0.1161
 1628SOL    HW1 6510   4.462   3.628   4.658  0.4804  0.4424  0.5831
 1628SOL    HW2 6511   4.578   3.567   4.732  0.4263 -0.4085 -0.0198
 1628SOL     MW 6512   4.546   3.607   4.662  0.3585 -0.1443  0.1607
 1629SOL     OW 6513   4.270   3.457   4.407 -0.8780 -0.6393 -0.1513
 1629SOL    HW1 6514   4.186   3.432   4.368 -1.6938  0.9144  0.5445
 1629SOL    HW2 6515   4.271   3.414   4.492 -0.3205 -1.7930 -0.7201
 1629SOL     MW 6516   4.259   3.448   4.413 -0.9127 -0.5855 -0.1342
 1630SOL     OW 6517   1.855   0.386   2.395 -0.0643  0.5898 -0.1480
 1630SOL    HW1 6518   1.894   0.394   2.308  0.6567 -0.8225  0.0067
 1630SOL    HW2 6519   1.898   0.309   2.433 -0.9460  0.7094  1.1529
 1630SOL     MW 6520   1.866   0.376   2.388 -0.0859  0.4159  0.0479
 1631SOL     OW 6521   0.840   1.921   1.075  0.3506 -0.0630 -0.3170
 1631SOL    HW1 6522   0.802   1.833   1.077  0.5569 -0.1347  0.6119
 1631SOL    HW2 6523   0.892   1.922   0.994 -1.0903 -0.1684 -1.2827
 1631SOL     MW 6524   0.842   1.909   1.064  0.1844 -0.0869 -0.3220
 1632SOL     OW 6525   4.984   1.195   5.251  0.4189 -0.5624  0.2971
 1632SOL    HW1 6526   5.072   1.223   5.228  1.0341 -2.2467  0.4508
 1632SOL    HW2 6527   4.991   1.100   5.262 -1.7289 -0.9777 -1.2249
 1632SOL     MW 6528   4.996   1.186   5.250  0.2126 -0.8450  0.1129
 1633SOL     OW 6529   3.301   0.190   4.468 -0.0384  0.3350 -0.3146
 1633SOL    HW1 6530   3.212   0.193   4.432  0.4513 -0.7756 -1.7237
 1633SOL    HW2 6531   3.335   0.278   4.456 -0.8395  0.6840 -0.0569
 1633SOL     MW 6532   3.294   0.202   4.462 -0.0803  0.2325 -0.4695
 1634SOL     OW 6533   1.141   2.389   0.649  0.1558 -0.3591  0.1804
 1634SOL    HW1 6534   1.104   2.463   0.601 -0.8475  0.0744  1.5496
 1634SOL    HW2 6535   1.215   2.426   0.697  1.4111 -0.8786 -1.3018
 1634SOL     MW 6536   1.146   2.404   0.649  0.1897 -0.3706  0.1652
 1635SOL     OW 6537   1.110   0.070   5.095 -0.3684  0.8040 -0.4779
 1635SOL    HW1 6538   1.053   0.017   5.039 -0.1108  1.3115 -1.2330
 1635SOL    HW2 6539   1.125   0.150   5.045  0.4741  0.9578  0.0060
 1635SOL     MW 6540   1.104   0.074   5.081 -0.2203  0.8930 -0.5144
 1636SOL     OW 6541   2.808   0.399   4.133 -0.2483 -0.0907 -0.2833
 1636SOL    HW1 6542   2.794   0.358   4.219  1.1230 -2.0798 -0.9172
 1636SOL    HW2 6543   2.895   0.369   4.107 -1.0633 -0.4803 -2.8403
 1636SOL     MW 6544   2.818   0.389   4.141 -0.1734 -0.4108 -0.7127
 1637SOL     OW 6545   2.692   3.286   0.554 -0.4263  0.1289  0.0667
 1637SOL    HW1 6546   2.738   3.308   0.636  1.2651 -1.5750 -0.3659
 1637SOL    HW2 6547   2.750   3.224   0.510 -2.8077 -1.5697 -0.8912
 1637SOL     MW 6548   2.706   3.281   0.559 -0.5191 -0.3290 -0.1205
 1638SOL     OW 6549   4.941   0.475   3.281 -0.3915  0.1331  0.1419
 1638SOL    HW1 6550   4.971   0.457   3.370 -1.2082  0.3149  0.4603
 1638SOL    HW2 6551   4.851   0.443   3.279 -0.5267  0.5356 -0.4912
 1638SOL     MW 6552   4.933   0.468   3.292 -0.5196  0.2118  0.0995
 1639SOL     OW 6553   3.153   5.001   2.692 -0.2706 -0.0025  0.6252
 1639SOL    HW1 6554   3.207   4.924   2.679  1.2722  0.6812  2.4250
 1639SOL    HW2 6555   3.216   5.070   2.716 -1.5930  1.7988 -0.8323
 1639SOL     MW 6556   3.169   5.000   2.694 -0.2409  0.3320  0.6712
 1640SOL     OW 6557   2.181   3.842   0.452 -0.1742  0.0022 -0.1880
 1640SOL    HW1 6558   2.143   3.872   0.534 -0.1817  2.3208 -0.9611
 1640SOL    HW2 6559   2.274   3.863   0.460 -0.2440  0.6396 -0.8966
 1640SOL     MW 6560   2.188   3.849   0.464 -0.1846  0.4000 -0.3874
 1641SOL     OW 6561   5.359   0.837   0.844  0.5204 -0.6953  0.6280
 1641SOL    HW1 6562   5.353   0.919   0.893 -0.8651 -0.4136  0.0382
 1641SOL    HW2 6563   5.388   0.772   0.908  1.7899  0.2736  1.0675
 1641SOL     MW 6564   5.362   0.839   0.859  0.5048 -0.5270  0.6078
 1642SOL     OW 6565   3.692   4.268   1.322 -0.3491 -0.0345 -0.2818
 1642SOL    HW1 6566   3.644   4.199   1.275 -1.7131  1.6623 -1.5204
 1642SOL    HW2 6567   3.652   4.270   1.409 -0.5728 -0.5245 -0.3678
 1642SOL     MW 6568   3.680   4.259   1.327 -0.5628  0.1279 -0.4600
 1643SOL     OW 6569   1.214   0.394   2.112 -0.2087 -0.6396 -0.4933
 1643SOL    HW1 6570   1.142   0.444   2.150  0.2475 -1.5493  1.6781
 1643SOL    HW2 6571   1.179   0.306   2.101 -0.1181 -0.5521 -1.6415
 1643SOL     MW 6572   1.200   0.389   2.116 -0.1351 -0.7502 -0.3556
 1644SOL     OW 6573   3.633   4.211   5.042  0.1110 -0.7455  0.5677
 1644SOL    HW1 6574   3.652   4.292   4.993  0.4173 -0.7258  0.7179
 1644SOL    HW2 6575   3.719   4.169   5.053 -0.2360 -1.9986 -1.0597
 1644SOL     MW 6576   3.647   4.217   5.037  0.1055 -0.9115  0.3689
 1645SOL     OW 6577   2.231   0.763   4.338  0.7831 -0.3595 -0.4497
 1645SOL    HW1 6578   2.250   0.798   4.425  0.3432 -0.1326 -0.4437
 1645SOL    HW2 6579   2.224   0.840   4.282 -0.7210 -0.3829 -0.3305
 1645SOL     MW 6580   2.233   0.778   4.343  0.5215 -0.3321 -0.4328
 1646SOL     OW 6581   1.587   2.980   0.250 -0.3765  0.3255 -0.1045
 1646SOL    HW1 6582   1.535   2.983   0.331 -0.7845  0.7233 -0.3811
 1646SOL    HW2 6583   1.622   2.891   0.249 -1.7344 -0.2429 -0.3296
 1646SOL     MW 6584   1.584   2.968   0.261 -0.6142  0.3026 -0.1720
 1647SOL     OW 6585   1.548   4.002   1.217 -0.1711  0.3997 -0.4162
 1647SOL    HW1 6586   1.496   4.058   1.274 -1.6103 -0.8812 -0.3860
 1647SOL    HW2 6587   1.505   4.007   1.131  0.5354  0.4394 -0.7838
 1647SOL     MW 6588   1.535   4.010   1.213 -0.2697  0.2327 -0.4616
 1648SOL     OW 6589   2.670   2.782   2.088 -0.0859 -0.8041  0.0388
 1648SOL    HW1 6590   2.715   2.727   2.023 -0.2424 -0.7594 -0.1094
 1648SOL    HW2 6591   2.687   2.739   2.171 -0.3773 -1.1967 -0.1003
 1648SOL     MW 6592   2.678   2.769   2.090 -0.1462 -0.8509  0.0001
 1649SOL     OW 6593   3.740   4.047   1.675 -0.1073 -0.2512 -1.0382
 1649SOL    HW1 6594   3.760   4.134   1.707 -1.1202 -0.2594 -0.3298
 1649SOL    HW2 6595   3.822   4.015   1.637  0.3152  0.9281 -1.1462
 1649SOL     MW 6596   3.754   4.054   1.674 -0.1867 -0.0936 -0.9574
 1650SOL     OW 6597   5.019   0.514   0.856 -0.2268 -0.3586  0.1556
 1650SOL    HW1 6598   5.049   0.602   0.836 -1.9742 -0.1594 -1.8697
 1650SOL    HW2 6599   5.095   0.458   0.840  0.0164  0.4582 -1.7424
 1650SOL     MW 6600   5.033   0.518   0.851 -0.4292 -0.2219 -0.3724
 1651SOL     OW 6601   3.203   4.454   4.659 -0.3023  0.2494 -0.4930
 1651SOL    HW1 6602   3.120   4.477   4.617 -0.3347 -1.8901 -1.7315
 1651SOL    HW2 6603   3.215   4.361   4.640  1.4257  0.0251  1.3529
 1651SOL     MW 6604   3.194   4.445   4.650 -0.0741 -0.0687 -0.4113
 1652SOL     OW 6605   1.245   3.884   1.723 -0.7157 -0.2678  0.1620
 1652SOL    HW1 6606   1.332   3.859   1.690 -0.3040  0.3241  0.7558
 1652SOL    HW2 6607   1.252   3.979   1.737 -1.7530 -0.0597 -0.6473
 1652SOL     MW 6608   1.258   3.894   1.721 -0.7999 -0.1601  0.1330
 1653SOL     OW 6609   0.710   1.766   2.746 -0.2334  0.0054 -0.2978
 1653SOL    HW1 6610   0.760   1.687   2.724  0.7732  0.8548 -1.1395
 1653SOL    HW2 6611   0.774   1.828   2.779 -0.9700  0.5907  0.0706
 1653SOL     MW 6612   0.725   1.763   2.747 -0.1971  0.1985 -0.3615
 1654SOL     OW 6613   3.978   2.834   2.479  0.3244 -0.1343  0.0608
 1654SOL    HW1 6614   4.021   2.750   2.489 -0.5447 -0.7202 -0.9095
 1654SOL    HW2 6615   3.885   2.813   2.471  0.1438  0.8727 -0.7237
 1654SOL     MW 6616   3.971   2.820   2.479  0.1831 -0.0777 -0.1754
 1655SOL     OW 6617   3.337   2.397   1.303  0.2314 -0.5552  0.1529
 1655SOL    HW1 6618   3.387   2.385   1.222  2.2306 -0.7654  1.3378
 1655SOL    HW2 6619   3.248   2.372   1.280  0.8518 -1.1684 -1.8344
 1655SOL     MW 6620   3.332   2.392   1.289  0.5839 -0.6660  0.0449
 1656SOL     OW 6621   2.561   2.746   4.687 -0.1839  0.3516 -0.2620
 1656SOL    HW1 6622   2.646   2.739   4.645  0.6311 -0.0992  1.3594
 1656SOL    HW2 6623   2.560   2.835   4.722  0.6204 -0.3206  1.6244
 1656SOL     MW 6624   2.572   2.757   4.686  0.0340  0.2005  0.2100
 1657SOL     OW 6625   0.167   0.862   4.737 -0.1823 -0.3131  0.9419
 1657SOL    HW1 6626   0.239   0.924   4.745 -1.6834  1.4797  1.0697
 1657SOL    HW2 6627   0.121   0.889   4.658 -0.9666 -1.1957  1.0786
 1657SOL     MW 6628   0.171   0.874   4.727 -0.4898 -0.1906  0.9775
 1658SOL     OW 6629   1.826   3.668   1.221  0.2114 -0.4592 -0.2198
 1658SOL    HW1 6630   1.750   3.610   1.216 -0.0533 -0.0179 -2.1125
 1658SOL    HW2 6631   1.888   3.630   1.159  0.8625  0.1490  0.0521
 1658SOL     MW 6632   1.824   3.655   1.212  0.2634 -0.3180 -0.4379
 1659SOL     OW 6633   0.972   3.203   0.890 -0.3891  0.0627 -0.4130
 1659SOL    HW1 6634   0.940   3.270   0.829  0.6288  0.6371 -0.3358
 1659SOL    HW2 6635   0.916   3.127   0.874 -1.1773  0.7313 -0.9278
 1659SOL     MW 6636   0.960   3.202   0.880 -0.3582  0.2300 -0.4719
 1660SOL     OW 6637   0.449   4.105   0.495  0.3468 -0.0137 -0.1117
 1660SOL    HW1 6638   0.513   4.041   0.526  1.3908  1.6894  1.5070
 1660SOL    HW2 6639   0.498   4.158   0.432  0.7946  1.5884  1.4743
 1660SOL     MW 6640   0.464   4.104   0.491  0.5475  0.4311  0.3196
 1661SOL     OW 6641   3.005   2.119   4.349 -0.5360 -0.2413 -0.5045
 1661SOL    HW1 6642   2.936   2.132   4.414 -0.0434 -1.8131  0.3870
 1661SOL    HW2 6643   2.997   2.194   4.290 -0.2712  1.9166  1.9959
 1661SOL     MW 6644   2.995   2.131   4.350 -0.4341 -0.1624 -0.0480
 1662SOL     OW 6645   5.243   4.092   4.318 -0.4043  0.6136 -0.1829
 1662SOL    HW1 6646   5.297   4.099   4.239 -1.4283 -0.2758 -0.9901
 1662SOL    HW2 6647   5.257   4.175   4.364  2.8190 -0.1431  0.4474
 1662SOL     MW 6648   5.253   4.104   4.313 -0.1083  0.3921 -0.2067
 1663SOL     OW 6649   1.762   2.356   3.599  0.5642  0.1982  0.2140
 1663SOL    HW1 6650   1.827   2.379   3.665 -1.4518  1.6364  1.8001
 1663SOL    HW2 6651   1.801   2.386   3.516  3.0207 -1.4158  0.6890
 1663SOL     MW 6652   1.776   2.363   3.597  0.6235  0.1745  0.4914
 1664SOL     OW 6653   2.740   5.413   3.595  0.3599  0.2527  0.1297
 1664SOL    HW1 6654   2.816   5.356   3.588 -0.3021 -0.5492 -0.7503
 1664SOL    HW2 6655   2.686   5.373   3.664  0.3325  0.3349  0.1565
 1664SOL     MW 6656   2.743   5.400   3.603  0.2671  0.1558  0.0148
 1665SOL     OW 6657   4.562   1.343   1.324 -0.1461  0.2581 -0.3525
 1665SOL    HW1 6658   4.573   1.437   1.338 -0.1700  0.1458  0.4642
 1665SOL    HW2 6659   4.473   1.324   1.352 -0.2712  0.0484 -0.8715
 1665SOL     MW 6660   4.552   1.353   1.329 -0.1662  0.2148 -0.3125
 1666SOL     OW 6661   2.241   2.419   3.043  0.0603 -0.4647  0.5326
 1666SOL    HW1 6662   2.156   2.377   3.055 -0.8957  1.7241  2.2078
 1666SOL    HW2 6663   2.236   2.459   2.956  0.0219 -1.6532 -0.0283
 1666SOL     MW 6664   2.229   2.419   3.033 -0.0735 -0.3301  0.6825
 1667SOL     OW 6665   1.022  -0.006   3.813  0.1946 -0.3671  0.0373
 1667SOL    HW1 6666   1.068   0.077   3.797 -0.5993 -0.0598 -0.7502
 1667SOL    HW2 6667   1.030  -0.054   3.731 -0.7072 -0.3853 -0.0525
 1667SOL     MW 6668   1.029  -0.001   3.800 -0.0336 -0.3282 -0.0808
 1668SOL     OW 6669   0.106   1.596   3.863 -0.3411  0.1565 -0.5409
 1668SOL    HW1 6670   0.178   1.653   3.837  1.2073 -0.7762  1.3934
 1668SOL    HW2 6671   0.136   1.507   3.842 -0.3982 -0.3356  1.2381
 1668SOL     MW 6672   0.120   1.592   3.857 -0.1404 -0.0352 -0.0412
 1669SOL     OW 6673   2.682   2.048   1.165 -0.3693 -0.4695  0.8227
 1669SOL    HW1 6674   2.675   2.095   1.249 -0.6025  0.0004  0.5434
 1669SOL    HW2 6675   2.648   1.961   1.184  1.7249 -1.1497  1.8094
 1669SOL     MW 6676   2.677   2.042   1.179 -0.1189 -0.4978  0.9179
 1670SOL     OW 6677   5.026   0.689   1.299  0.3726  0.2361 -0.1736
 1670SOL    HW1 6678   5.058   0.657   1.384 -0.7304  1.5340  0.7872
 1670SOL    HW2 6679   5.098   0.743   1.266  0.2865  0.8883  0.6461
 1670SOL     MW 6680   5.040   0.692   1.306  0.2126  0.4986  0.0660
 1671SOL     OW 6681   2.421   4.212   0.425  0.0428  0.4652  0.2137
 1671SOL    HW1 6682   2.471   4.226   0.506  0.9137  1.3819 -0.4622
 1671SOL    HW2 6683   2.484   4.227   0.355 -0.9247  0.5851 -0.6472
 1671SOL     MW 6684   2.436   4.216   0.427  0.0298  0.6047  0.0068
 1672SOL     OW 6685   4.673   2.754   4.187 -0.2284 -0.3715  0.1607
 1672SOL    HW1 6686   4.698   2.740   4.278 -0.4150 -1.0323  0.1101
 1672SOL    HW2 6687   4.578   2.763   4.190 -0.2076 -0.0911  0.0623
 1672SOL     MW 6688   4.664   2.754   4.200 -0.2507 -0.4227  0.1406
 1673SOL     OW 6689   4.535   0.864   3.282 -0.1194 -0.2307 -0.1219
 1673SOL    HW1 6690   4.555   0.775   3.255  1.5360 -1.1041  3.4739
 1673SOL    HW2 6691   4.447   0.859   3.320  0.2600 -0.5200  0.7333
 1673SOL     MW 6692   4.526   0.851   3.283  0.1544 -0.3872  0.4771
 1674SOL     OW 6693   1.928   5.293   0.081 -0.0178  0.0902 -0.0855
 1674SOL    HW1 6694   1.960   5.274   0.169 -0.6273 -1.4407 -0.1553
 1674SOL    HW2 6695   1.964   5.222   0.027  0.3648  1.0229 -1.0845
 1674SOL     MW 6696   1.937   5.281   0.085 -0.0483  0.0097 -0.2293
 1675SOL     OW 6697   1.720   5.034   2.073 -0.1190 -0.5179  0.3366
 1675SOL    HW1 6698   1.787   4.984   2.120  0.3083  0.6838  1.0354
 1675SOL    HW2 6699   1.769   5.092   2.014 -0.5078  0.5911  1.0805
 1675SOL     MW 6700   1.736   5.035   2.071 -0.1138 -0.2069  0.5307
 1676SOL     OW 6701   0.649   0.052   5.242  0.0291  0.2245 -0.6436
 1676SOL    HW1 6702   0.565   0.040   5.198  0.1589  0.9937 -1.1242
 1676SOL    HW2 6703   0.670   0.144   5.228  1.0383 -0.0028 -0.6766
 1676SOL     MW 6704   0.640   0.063   5.234  0.1824  0.2974 -0.7127
 1677SOL     OW 6705   5.010   2.612   1.877 -0.0182 -0.0862  0.5212
 1677SOL    HW1 6706   5.008   2.648   1.966 -0.5463  0.5334  0.2686
 1677SOL    HW2 6707   4.958   2.532   1.882 -2.0956  1.1539  0.2874
 1677SOL     MW 6708   5.003   2.606   1.890 -0.3689  0.1641  0.4557
 1678SOL     OW 6709   4.672   2.653   1.146  0.3799 -0.1645  0.2447
 1678SOL    HW1 6710   4.632   2.696   1.222 -0.3890  1.4054 -0.9702
 1678SOL    HW2 6711   4.604   2.653   1.080  1.3326 -0.6048 -0.7711
 1678SOL     MW 6712   4.658   2.659   1.148  0.4046 -0.0125 -0.0555
 1679SOL     OW 6713   4.559   4.685   4.852  0.1964  0.1357 -0.5215
 1679SOL    HW1 6714   4.522   4.739   4.781 -0.4181  1.4810  0.7648
 1679SOL    HW2 6715   4.651   4.711   4.856 -0.1162  1.1944  0.1458
 1679SOL     MW 6716   4.567   4.696   4.843  0.0717  0.4592 -0.2586
 1680SOL     OW 6717   1.242   3.972   2.166 -0.1179 -0.5696 -0.1204
 1680SOL    HW1 6718   1.247   3.922   2.248 -0.4658 -1.3757 -0.5732
 1680SOL    HW2 6719   1.206   3.910   2.102 -1.2736  0.4843 -0.5382
 1680SOL     MW 6720   1.238   3.957   2.168 -0.3202 -0.5362 -0.2376
 1681SOL     OW 6721   3.528   1.883   4.570 -0.6091 -0.1422 -0.4624
 1681SOL    HW1 6722   3.572   1.911   4.490 -0.4011  2.0387  0.3468
 1681SOL    HW2 6723   3.595   1.888   4.637 -0.8031 -1.8832 -0.1099
 1681SOL     MW 6724   3.543   1.888   4.568 -0.6072 -0.0830 -0.3061
 1682SOL     OW 6725   0.392   5.145   1.176 -0.3360 -0.1956  0.1581
 1682SOL    HW1 6726   0.389   5.104   1.263 -1.6111  0.7927  0.6172
 1682SOL    HW2 6727   0.300   5.152   1.150 -0.1270  1.6892 -0.2021
 1682SOL     MW 6728   0.379   5.141   1.185 -0.4794  0.1911  0.1714
 1683SOL     OW 6729   4.166   4.289   3.171 -0.4320 -0.1368  0.2130
 1683SOL    HW1 6730   4.156   4.335   3.088  2.2553 -0.5228 -0.3947
 1683SOL    HW2 6731   4.104   4.216   3.165 -0.9120  0.3413 -1.0618
 1683SOL     MW 6732   4.156   4.285   3.159 -0.1349 -0.1244 -0.0403
 1684SOL     OW 6733   0.567   3.295   2.856 -0.3865  0.4886  0.1231
 1684SOL    HW1 6734   0.486   3.274   2.903 -0.6391 -0.2488 -0.6275
 1684SOL    HW2 6735   0.564   3.390   2.844 -0.8426  0.5427  0.6224
 1684SOL     MW 6736   0.556   3.305   2.861 -0.4819  0.3966  0.0893
 1685SOL     OW 6737   0.100   1.756   2.986 -0.2475  0.1661 -0.2758
 1685SOL    HW1 6738   0.152   1.680   3.012 -0.4603 -0.0093 -0.3549
 1685SOL    HW2 6739   0.140   1.829   3.032 -0.5334 -0.1156  0.4228
 1685SOL     MW 6740   0.113   1.755   2.996 -0.3146  0.1046 -0.1925
 1686SOL     OW 6741   0.369   1.441   0.147  0.2642  0.1914 -0.7024
 1686SOL    HW1 6742   0.422   1.361   0.146  1.9388  1.1757  1.3742
 1686SOL    HW2 6743   0.328   1.444   0.060  1.4009 -2.0756 -1.3936
 1686SOL     MW 6744   0.371   1.431   0.135  0.6426  0.0187 -0.5160
 1687SOL     OW 6745   3.063   2.352   1.217  0.2834  0.1082 -0.2697
 1687SOL    HW1 6746   3.045   2.394   1.133  2.5092 -0.6610 -1.1974
 1687SOL    HW2 6747   3.025   2.264   1.209 -0.6234  0.4556  0.0520
 1687SOL     MW 6748   3.055   2.346   1.205  0.4609  0.0515 -0.3512
 1688SOL     OW 6749   4.840   4.669   4.604 -0.4888  0.1657 -0.1986
 1688SOL    HW1 6750   4.748   4.669   4.575 -0.0651  1.6590 -1.6537
 1688SOL    HW2 6751   4.880   4.743   4.559  1.9518 -1.6524 -1.2458
 1688SOL     MW 6752   4.833   4.679   4.594 -0.1033  0.1220 -0.5354
 1689SOL     OW 6753   4.136   1.060   4.877 -0.1326 -0.2338 -0.3102
 1689SOL    HW1 6754   4.157   1.014   4.958 -1.6809 -0.1083  0.1929
 1689SOL    HW2 6755   4.131   0.991   4.810  0.1542 -0.4588 -0.1019
 1689SOL     MW 6756   4.138   1.044   4.879 -0.3023 -0.2472 -0.2145
 1690SOL     OW 6757   1.658   2.307   4.931 -0.2398  0.2743 -0.1298
 1690SOL    HW1 6758   1.725   2.305   4.999  0.6879 -0.0997 -1.0250
 1690SOL    HW2 6759   1.575   2.310   4.979  0.3488 -0.8873  1.0403
 1690SOL     MW 6760   1.656   2.307   4.946 -0.0358  0.0676 -0.0928
 1691SOL     OW 6761   4.570   0.357   1.194  0.0177  0.6264  0.2114
 1691SOL    HW1 6762   4.514   0.295   1.242  0.0589  0.6839  0.3333
 1691SOL    HW2 6763   4.655   0.352   1.238  0.2013  0.3024 -0.1734
 1691SOL     MW 6764   4.574   0.348   1.206  0.0479  0.5905  0.1760
 1692SOL     OW 6765   3.078   2.527   5.188  0.1663 -0.1487  0.3511
 1692SOL    HW1 6766   3.084   2.532   5.283  0.3052  0.5358  0.3084
 1692SOL    HW2 6767   2.993   2.487   5.171 -0.8664  1.7750  0.7310
 1692SOL     MW 6768   3.067   2.522   5.198  0.0460  0.2023  0.3965
 1693SOL     OW 6769   2.076   0.965   2.181  0.0750 -0.2842 -0.3796
 1693SOL    HW1 6770   2.077   0.908   2.104 -3.5761  1.5315 -1.9844
 1693SOL    HW2 6771   2.018   0.921   2.243  2.3536 -1.3313  1.1392
 1693SOL     MW 6772   2.068   0.951   2.179 -0.1097 -0.1808 -0.3912
 1694SOL     OW 6773   1.156   2.862   1.264  0.5077 -0.0009 -0.0770
 1694SOL    HW1 6774   1.217   2.935   1.267 -0.5741  0.9648 -0.7568
 1694SOL    HW2 6775   1.097   2.876   1.338  0.7842 -0.6603  0.2844
 1694SOL     MW 6776   1.156   2.874   1.275  0.3993  0.0403 -0.1198
 1695SOL     OW 6777   0.483   1.818   3.964 -0.0126 -0.6640 -0.1672
 1695SOL    HW1 6778   0.468   1.898   4.015  0.4474 -0.8430  0.2576
 1695SOL    HW2 6779   0.422   1.825   3.890  1.8476  1.3871 -1.6514
 1695SOL     MW 6780   0.473   1.830   3.961  0.2997 -0.4120 -0.3098
 1696SOL     OW 6781   3.450   3.597   4.260 -0.5909 -0.1358  0.0634
 1696SOL    HW1 6782   3.516   3.536   4.292 -0.7866  0.3461  1.4406
 1696SOL    HW2 6783   3.487   3.631   4.178  0.7695 -0.0409  0.6928
 1696SOL     MW 6784   3.463   3.593   4.253 -0.4341 -0.0582  0.3335
 1697SOL     OW 6785   0.764   2.371   5.405  0.4943  0.2842 -0.0171
 1697SOL    HW1 6786   0.745   2.412   5.489 -1.3248 -0.4131 -0.0512
 1697SOL    HW2 6787   0.685   2.320   5.384  0.7106  0.8014 -2.3729
 1697SOL     MW 6788   0.751   2.369   5.413  0.2786  0.2600 -0.3387
 1698SOL     OW 6789   3.971   4.320   0.776 -0.4029  0.5380  0.0822
 1698SOL    HW1 6790   3.933   4.358   0.855 -1.1518 -0.0291  0.0001
 1698SOL    HW2 6791   3.996   4.231   0.802 -1.6347 -0.0256 -0.5972
 1698SOL     MW 6792   3.969   4.313   0.791 -0.6695  0.3859 -0.0203
 1699SOL     OW 6793   4.539   5.224   1.362 -0.2360  0.0102 -0.1247
 1699SOL    HW1 6794   4.464   5.263   1.318 -0.1209 -1.8391 -2.1401
 1699SOL    HW2 6795   4.556   5.144   1.313  1.3203 -1.0645  2.0170
 1699SOL     MW 6796   4.531   5.219   1.350 -0.0111 -0.3833 -0.1077
 1700SOL     OW 6797   5.047   3.807   5.202  0.1087  0.0666 -0.5523
 1700SOL    HW1 6798   5.053   3.846   5.289  0.1963 -0.7305 -0.1922
 1700SOL    HW2 6799   4.957   3.823   5.174  0.2758  0.9478 -0.6236
 1700SOL     MW 6800   5.036   3.815   5.210  0.1429  0.0779 -0.5134
 1701SOL     OW 6801   1.229   2.870   3.799  0.1481 -0.1593 -0.0255
 1701SOL    HW1 6802   1.258   2.954   3.834 -1.3826  0.0776  0.7685
 1701SOL    HW2 6803   1.192   2.824   3.874 -0.2229 -0.9946 -0.7061
 1701SOL     MW 6804   1.228   2.875   3.814 -0.1078 -0.2398 -0.0103
 1702SOL     OW 6805   2.585   4.130   2.896 -0.7576 -0.2231 -0.3957
 1702SOL    HW1 6806   2.533   4.128   2.976 -0.1543  0.2110  0.0152
 1702SOL    HW2 6807   2.673   4.106   2.924 -0.0580  1.9242 -0.5256
 1702SOL     MW 6808   2.590   4.127   2.911 -0.5823  0.1243 -0.3579
 1703SOL     OW 6809   2.667   2.597   2.953 -0.3599  0.6911  0.4392
 1703SOL    HW1 6810   2.751   2.607   2.909  0.1442 -1.2246  0.8639
 1703SOL    HW2 6811   2.634   2.513   2.922 -2.2402  1.4976  0.1311
 1703SOL     MW 6812   2.674   2.587   2.943 -0.5451  0.5418  0.4549
 1704SOL     OW 6813   0.678   1.149   1.381  0.1959 -0.0869 -0.0097
 1704SOL    HW1 6814   0.658   1.066   1.424 -1.2679  0.8138  1.1393
 1704SOL    HW2 6815   0.616   1.154   1.308  1.6758 -0.9159 -1.3966
 1704SOL     MW 6816   0.667   1.138   1.377  0.1980 -0.0772 -0.0417
 1705SOL     OW 6817   1.069   1.115   5.016 -0.0731  0.1016  0.0863
 1705SOL    HW1 6818   1.100   1.133   5.104 -0.5637  1.6553 -0.0261
 1705SOL    HW2 6819   0.998   1.052   5.028  0.8460 -0.8521  0.6437
 1705SOL     MW 6820   1.064   1.109   5.029 -0.0155  0.1823  0.1462
 1706SOL     OW 6821   2.688   0.129   1.914 -0.0084 -0.5926 -0.3176
 1706SOL    HW1 6822   2.754   0.060   1.906 -1.1495 -1.5998 -1.6351
 1706SOL    HW2 6823   2.636   0.103   1.990  0.8065 -0.0301  0.4563
 1706SOL     MW 6824   2.690   0.116   1.923 -0.0523 -0.6524 -0.3907
 1707SOL     OW 6825   2.762   0.295   5.282  0.1591  0.2245 -0.5034
 1707SOL    HW1 6826   2.837   0.289   5.340  0.4797  0.1993 -0.9174
 1707SOL    HW2 6827   2.793   0.260   5.199 -0.4331 -0.1890 -0.5586
 1707SOL     MW 6828   2.776   0.289   5.279  0.1226  0.1655 -0.5665
 1708SOL     OW 6829   1.657   0.698   1.779 -0.2742  0.0432  0.3433
 1708SOL    HW1 6830   1.605   0.638   1.725 -0.4461 -0.8187  1.4321
 1708SOL    HW2 6831   1.663   0.778   1.727  1.6909 -1.5322 -2.1053
 1708SOL     MW 6832   1.651   0.700   1.765 -0.0329 -0.2848  0.1603
 1709SOL     OW 6833   0.905   4.028   4.057 -0.0315 -0.2330 -0.4013
 1709SOL    HW1 6834   0.997   4.028   4.031  0.4594 -0.3218  1.2230
 1709SOL    HW2 6835   0.906   4.003   4.149 -1.7618 -1.1047 -0.5740
 1709SOL     MW 6836   0.917   4.024   4.066 -0.1983 -0.3622 -0.2060
 1710SOL     OW 6837   2.951   1.242   0.518  0.2821 -0.3618 -0.4114
 1710SOL    HW1 6838   3.033   1.236   0.470  0.4749  0.1504 -0.1480
 1710SOL    HW2 6839   2.884   1.253   0.451  0.4913 -0.1884 -0.5901
 1710SOL     MW 6840   2.953   1.242   0.503  0.3362 -0.2696 -0.4000
 1711SOL     OW 6841   1.528   1.536   1.419 -0.0729 -0.6484  0.1944
 1711SOL    HW1 6842   1.599   1.593   1.389  0.5586 -0.6913  1.5188
 1711SOL    HW2 6843   1.507   1.569   1.507 -2.6698  0.2539 -0.6838
 1711SOL     MW 6844   1.535   1.548   1.427 -0.3374 -0.5328  0.2544
 1712SOL     OW 6845   0.868   2.128   1.700 -0.1872 -0.7151 -0.7186
 1712SOL    HW1 6846   0.799   2.181   1.661 -0.4107  0.2981  0.9353
 1712SOL    HW2 6847   0.946   2.145   1.647 -0.2354  1.3640 -0.2028
 1712SOL     MW 6848   0.869   2.137   1.688 -0.2238 -0.2989 -0.4266
 1713SOL     OW 6849   3.616   3.794   1.309 -0.5603 -0.3595  0.1866
 1713SOL    HW1 6850   3.690   3.853   1.322 -1.0173  0.2236  0.1693
 1713SOL    HW2 6851   3.538   3.848   1.323 -1.0706 -0.2544 -2.4074
 1713SOL     MW 6852   3.615   3.809   1.312 -0.6905 -0.2669 -0.1648
 1714SOL     OW 6853   1.254   0.514   3.559  0.2792 -0.0663 -0.3669
 1714SOL    HW1 6854   1.347   0.492   3.567  0.4398  0.8760  0.6477
 1714SOL    HW2 6855   1.233   0.497   3.467  1.6238  0.2940 -0.7635
 1714SOL     MW 6856   1.264   0.509   3.547  0.4818  0.1090 -0.2837
 1715SOL     OW 6857   0.883   3.349   4.863 -0.1316  0.1386 -0.6857
 1715SOL    HW1 6858   0.958   3.361   4.921  0.6136 -1.1429 -1.3309
 1715SOL    HW2 6859   0.883   3.255   4.843 -3.3417 -0.4297  1.1951
 1715SOL     MW 6860   0.893   3.338   4.868 -0.4633 -0.1104 -0.5194
 1716SOL     OW 6861   0.992   4.890   5.455 -0.1706  0.0535 -0.3606
 1716SOL    HW1 6862   0.924   4.958   5.451 -0.5930 -0.3386  0.1772
 1716SOL    HW2 6863   1.046   4.914   5.530 -0.1986 -0.0910 -0.2942
 1716SOL     MW 6864   0.990   4.903   5.464 -0.2312 -0.0187 -0.2793
 1717SOL     OW 6865   1.669  -0.006   0.461 -0.0710 -0.0607  0.3201
 1717SOL    HW1 6866   1.665   0.085   0.434  2.3275  0.1689  0.5273
 1717SOL    HW2 6867   1.619  -0.054   0.394 -1.2737  1.3538  0.1640
 1717SOL     MW 6868   1.662  -0.000   0.448  0.0899  0.1606  0.3270
 1718SOL     OW 6869   3.255   0.251   2.542 -0.1589  0.1407 -0.0467
 1718SOL    HW1 6870   3.215   0.219   2.461 -1.8868  0.6172  0.5970
 1718SOL    HW2 6871   3.214   0.336   2.558  1.0809  0.6405  0.6898
 1718SOL     MW 6872   3.244   0.258   2.533 -0.2246  0.2721  0.1390
 1719SOL     OW 6873   4.930   1.297   3.400  0.0571  0.0420  0.4629
 1719SOL    HW1 6874   4.909   1.240   3.326 -0.2234  0.8051 -0.0596
 1719SOL    HW2 6875   4.934   1.238   3.476 -2.3591 -0.3812  0.3222
 1719SOL     MW 6876   4.928   1.281   3.400 -0.3058  0.0877  0.3736
 1720SOL     OW 6877   3.892   2.038   4.624 -0.2142  0.1802  0.4045
 1720SOL    HW1 6878   3.834   2.090   4.568 -0.0090 -1.5200 -1.4793
 1720SOL    HW2 6879   3.943   2.104   4.672  0.0588  1.7790 -1.8875
 1720SOL     MW 6880   3.891   2.054   4.623 -0.1498  0.1666 -0.1575
 1721SOL     OW 6881   0.486   0.360   0.459 -0.2083 -0.2242 -0.7243
 1721SOL    HW1 6882   0.527   0.324   0.538  0.5498 -0.1839 -1.0889
 1721SOL    HW2 6883   0.420   0.420   0.492  0.8458  0.6340 -0.1024
 1721SOL     MW 6884   0.483   0.363   0.474  0.0356 -0.1033 -0.6897
 1722SOL     OW 6885   5.062   4.174   2.890 -0.4457  0.1230 -0.0433
 1722SOL    HW1 6886   5.018   4.091   2.871  0.5945 -0.3402 -0.4874
 1722SOL    HW2 6887   4.996   4.241   2.871 -1.4047 -0.6079  0.6414
 1722SOL     MW 6888   5.047   4.172   2.885 -0.4348 -0.0377 -0.0109
 1723SOL     OW 6889   2.496   1.654   1.009 -0.3250  0.3431  0.0553
 1723SOL    HW1 6890   2.506   1.701   1.091  1.0707 -1.0951  0.7653
 1723SOL    HW2 6891   2.553   1.701   0.948  1.2818 -0.5261  0.8291
 1723SOL     MW 6892   2.505   1.667   1.012  0.0791  0.0326  0.2550
 1724SOL     OW 6893   3.594   2.955   0.996  0.5218 -0.3210 -0.0308
 1724SOL    HW1 6894   3.543   3.035   1.010 -0.2042 -0.5984 -0.9553
 1724SOL    HW2 6895   3.674   2.968   1.046  1.4532  1.9767 -1.9294
 1724SOL     MW 6896   3.598   2.968   1.004  0.5495 -0.0491 -0.4107
 1725SOL     OW 6897   0.135   5.086   1.046 -0.2422 -0.1253  0.2445
 1725SOL    HW1 6898   0.148   5.064   0.954  0.1776  0.0374  0.2648
 1725SOL    HW2 6899   0.040   5.078   1.059 -0.6190  1.9590 -0.7453
 1725SOL     MW 6900   0.124   5.082   1.036 -0.2364  0.1771  0.1140
 1726SOL     OW 6901   2.598   0.962   3.330  0.3531 -0.3018  0.0390
 1726SOL    HW1 6902   2.641   0.900   3.388  0.3316  2.0385  2.8018
 1726SOL    HW2 6903   2.626   0.937   3.242  2.2309 -2.6770  1.2063
 1726SOL     MW 6904   2.608   0.950   3.326  0.6029 -0.3065  0.5679
 1727SOL     OW 6905   3.797   4.315   1.792 -0.3104  0.4454 -0.0210
 1727SOL    HW1 6906   3.803   4.293   1.885 -1.6711 -0.1306 -0.0381
 1727SOL    HW2 6907   3.884   4.347   1.769  0.6487 -1.2991  0.9728
 1727SOL     MW 6908   3.810   4.316   1.802 -0.3644  0.1331  0.1105
 1728SOL     OW 6909   5.187   2.156   2.050  0.3064 -0.4115  0.2279
 1728SOL    HW1 6910   5.099   2.125   2.072  0.3243 -0.7227 -0.1376
 1728SOL    HW2 6911   5.194   2.143   1.956  1.5255 -2.3992  0.5425
 1728SOL     MW 6912   5.176   2.150   2.041  0.4729 -0.7209  0.2211
 1729SOL     OW 6913   1.612   0.868   1.561 -0.3006 -0.0341 -0.0948
 1729SOL    HW1 6914   1.621   0.854   1.467 -1.7466  0.1546 -0.2865
 1729SOL    HW2 6915   1.669   0.943   1.579 -0.2455  0.1259 -0.8824
 1729SOL     MW 6916   1.621   0.876   1.550 -0.4878  0.0128 -0.2266
 1730SOL     OW 6917   4.357   5.196   4.991  0.2729 -0.0190 -0.4323
 1730SOL    HW1 6918   4.278   5.238   4.957 -0.9146 -1.7733 -0.0088
 1730SOL    HW2 6919   4.361   5.224   5.083 -0.8295 -1.1947  0.0048
 1730SOL     MW 6920   4.347   5.206   4.999 -0.0353 -0.4133 -0.3165
 1731SOL     OW 6921   2.562   2.385   2.810 -0.2089 -0.1060  0.3535
 1731SOL    HW1 6922   2.525   2.312   2.860  0.6920 -0.8259  0.0034
 1731SOL    HW2 6923   2.529   2.372   2.721 -0.8858  0.5173  0.5074
 1731SOL     MW 6924   2.553   2.374   2.804 -0.1787 -0.1190  0.3271
 1732SOL     OW 6925   0.169   3.660   4.347  0.0233  0.1529 -0.2128
 1732SOL    HW1 6926   0.194   3.689   4.259  0.9326  0.1758  0.0506
 1732SOL    HW2 6927   0.087   3.706   4.365  0.9334  1.8232 -0.1962
 1732SOL     MW 6928   0.161   3.670   4.338  0.2682  0.3808 -0.1751
 1733SOL     OW 6929   0.664   1.925   3.495 -0.6938 -0.1364 -0.5352
 1733SOL    HW1 6930   0.710   1.963   3.421  1.3178 -0.1335  0.6283
 1733SOL    HW2 6931   0.573   1.949   3.482  0.2049  3.9070 -0.6181
 1733SOL     MW 6932   0.658   1.933   3.483 -0.3021  0.4082 -0.3898
 1734SOL     OW 6933   3.629   5.181   0.507 -0.2597 -0.4053  0.4614
 1734SOL    HW1 6934   3.667   5.269   0.504 -2.4534  0.5702 -1.5874
 1734SOL    HW2 6935   3.609   5.167   0.599 -1.8412  2.2252  0.6356
 1734SOL     MW 6936   3.632   5.191   0.519 -0.7678  0.0800  0.2091
 1735SOL     OW 6937   4.987   4.152   4.208 -0.3233 -0.6447 -0.6392
 1735SOL    HW1 6938   5.067   4.149   4.261  0.4035 -0.5398 -1.7066
 1735SOL    HW2 6939   4.934   4.080   4.243 -0.2106 -0.0899  0.7432
 1735SOL     MW 6940   4.991   4.142   4.220 -0.2103 -0.5559 -0.5968
 1736SOL     OW 6941   4.706   1.447   1.872 -0.7866 -0.1297 -0.1337
 1736SOL    HW1 6942   4.704   1.539   1.898 -0.1344 -0.4708  1.1939
 1736SOL    HW2 6943   4.793   1.434   1.835 -1.0634 -0.1036 -0.8195
 1736SOL     MW 6944   4.717   1.457   1.870 -0.7361 -0.1721 -0.0473
 1737SOL     OW 6945   4.659   1.501   2.709  0.0885  0.0227 -0.1661
 1737SOL    HW1 6946   4.740   1.452   2.693 -0.3055 -1.0755  1.0090
 1737SOL    HW2 6947   4.688   1.583   2.749  0.6259 -0.4511  0.4484
 1737SOL     MW 6948   4.674   1.505   2.712  0.1078 -0.1888  0.0748
 1738SOL     OW 6949   2.870   4.680   0.255  0.1011  0.1174 -0.1637
 1738SOL    HW1 6950   2.935   4.647   0.193  0.0508 -2.4548  1.0365
 1738SOL    HW2 6951   2.919   4.696   0.335 -0.6288 -1.8794  0.7632
 1738SOL     MW 6952   2.885   4.678   0.257 -0.0039 -0.4975  0.1226
 1739SOL     OW 6953   4.353   4.408   1.465  0.9898 -0.2185  0.3906
 1739SOL    HW1 6954   4.369   4.485   1.411  0.5267  0.2379  0.8994
 1739SOL    HW2 6955   4.438   4.365   1.472  0.7502 -1.2859 -2.1944
 1739SOL     MW 6956   4.366   4.412   1.459  0.8953 -0.3007  0.1112
 1740SOL     OW 6957   4.202   2.597   4.432 -0.0566 -0.4372 -0.2116
 1740SOL    HW1 6958   4.219   2.505   4.454  0.2640 -0.8156 -1.9086
 1740SOL    HW2 6959   4.124   2.594   4.377  0.8686  0.1227 -1.5980
 1740SOL     MW 6960   4.194   2.584   4.428  0.1111 -0.4128 -0.6266
 1741SOL     OW 6961   2.426   1.762   4.305 -0.5522 -0.9424 -0.0150
 1741SOL    HW1 6962   2.391   1.780   4.392 -0.1168  0.4197 -0.0983
 1741SOL    HW2 6963   2.350   1.758   4.248 -0.8190 -1.5746  0.3813
 1741SOL     MW 6964   2.411   1.764   4.309 -0.5295 -0.8441  0.0271
 1742SOL     OW 6965   1.243   4.424   2.336  0.6221 -0.0658  0.3240
 1742SOL    HW1 6966   1.203   4.415   2.423 -3.1383  1.4982 -1.0417
 1742SOL    HW2 6967   1.269   4.516   2.331  0.5744 -0.0831 -0.3040
 1742SOL     MW 6968   1.241   4.435   2.347  0.1096  0.1424  0.0557
 1743SOL     OW 6969   1.332   4.150   1.354 -0.2227 -0.0426 -0.1909
 1743SOL    HW1 6970   1.314   4.219   1.290 -1.0352  0.4368  0.5244
 1743SOL    HW2 6971   1.257   4.091   1.346  0.1988 -0.5500 -0.4153
 1743SOL     MW 6972   1.319   4.151   1.344 -0.2753 -0.0464 -0.1248
 1744SOL     OW 6973   5.347   3.028   2.134 -0.0341  0.3100  0.2304
 1744SOL    HW1 6974   5.289   3.065   2.200  0.2357  0.3876  0.4267
 1744SOL    HW2 6975   5.288   2.993   2.067 -0.3190  2.7635 -0.9182
 1744SOL     MW 6976   5.331   3.029   2.134 -0.0361  0.6507  0.1023
 1745SOL     OW 6977   4.110   3.029   2.892 -0.4767  0.2826 -0.0440
 1745SOL    HW1 6978   4.184   2.971   2.909 -0.2968  1.0069  1.8363
 1745SOL    HW2 6979   4.071   2.995   2.811  0.6705 -1.3551  0.0502
 1745SOL     MW 6980   4.115   3.017   2.883 -0.2981  0.1596  0.2217
 1746SOL     OW 6981   2.273   1.814   3.809  0.1102  0.2885  0.3270
 1746SOL    HW1 6982   2.181   1.817   3.835  0.0583  1.3447  0.0546
 1746SOL    HW2 6983   2.317   1.873   3.870  0.1921  1.7746 -1.1297
 1746SOL     MW 6984   2.267   1.822   3.821  0.1142  0.6307  0.0943
 1747SOL     OW 6985   1.800   4.517   2.051 -0.4441 -0.2350 -0.2410
 1747SOL    HW1 6986   1.875   4.461   2.071 -0.3242  0.3370  0.9763
 1747SOL    HW2 6987   1.794   4.578   2.125 -3.5900 -1.7849  0.9831
 1747SOL     MW 6988   1.809   4.518   2.063 -0.8514 -0.3666  0.0876
 1748SOL     OW 6989   0.380   3.078   5.129  0.2661  0.3971 -0.0143
 1748SOL    HW1 6990   0.357   3.170   5.118 -1.0297 -0.1215 -2.0830
 1748SOL    HW2 6991   0.465   3.069   5.085  1.0094  0.8098  1.2720
 1748SOL     MW 6992   0.389   3.089   5.122  0.1918  0.3828 -0.1196
 1749SOL     OW 6993   2.829   2.118   0.306  0.0229 -0.5547  0.3862
 1749SOL    HW1 6994   2.850   2.150   0.394  1.5726  1.7448 -0.7122
 1749SOL    HW2 6995   2.912   2.125   0.258 -1.3416  0.7507 -1.9520
 1749SOL     MW 6996   2.843   2.123   0.312  0.0478 -0.0695 -0.0763
 1750SOL     OW 6997   2.168   1.769   4.200  0.2237 -0.5508  0.1876
 1750SOL    HW1 6998   2.123   1.845   4.234  0.9242 -1.2776  2.9800
 1750SOL    HW2 6999   2.148   1.769   4.106 -1.1830  2.0474  0.4034
 1750SOL     MW 7000   2.159   1.779   4.192  0.1287 -0.2989  0.5924
 1751SOL     OW 7001   3.180   0.696   3.447  0.0466 -0.6812 -0.0644
 1751SOL    HW1 7002   3.254   0.725   3.394  1.6697 -0.2832  2.2957
 1751SOL    HW2 7003   3.184   0.600   3.443  0.3137 -0.6578 -0.4139
 1751SOL     MW 7004   3.190   0.687   3.439  0.3010 -0.6245  0.2062
 1752SOL     OW 7005   4.366   2.457   2.019 -0.2131 -0.3062  0.2301
 1752SOL    HW1 7006   4.459   2.480   2.019  0.2437 -1.9317  1.7197
 1752SOL    HW2 7007   4.347   2.433   1.928 -0.1223  3.2656 -0.8912
 1752SOL     MW 7008   4.376   2.457   2.007 -0.1394 -0.0443  0.2797
 1753SOL     OW 7009   3.037   5.368   1.642 -0.2266  0.0198 -0.0894
 1753SOL    HW1 7010   2.957   5.325   1.613 -0.8579  0.5307  0.8434
 1753SOL    HW2 7011   3.078   5.305   1.702 -0.8692  0.4530  0.8415
 1753SOL     MW 7012   3.032   5.353   1.646 -0.3980  0.1469  0.1614
 1754SOL     OW 7013   3.227   1.316   4.836  0.3600 -0.1864 -0.0868
 1754SOL    HW1 7014   3.166   1.243   4.837 -0.5792  0.5744  0.4188
 1754SOL    HW2 7015   3.172   1.394   4.847  1.3709  0.5640 -0.1273
 1754SOL     MW 7016   3.211   1.317   4.838  0.3696  0.0170 -0.0242
 1755SOL     OW 7017   0.138   4.762   4.205 -0.1283  0.0158  0.3052
 1755SOL    HW1 7018   0.142   4.726   4.293  1.5554 -0.2452  0.1511
 1755SOL    HW2 7019   0.099   4.848   4.216 -1.0184 -0.4763  1.1328
 1755SOL     MW 7020   0.133   4.769   4.218 -0.0215 -0.0856  0.3959
 1756SOL     OW 7021   4.706   0.611   4.894 -0.3745 -0.1063 -0.2221
 1756SOL    HW1 7022   4.789   0.572   4.922 -0.7140 -1.1701 -0.6285
 1756SOL    HW2 7023   4.645   0.537   4.890 -1.7988  0.8922  1.6945
 1756SOL     MW 7024   4.709   0.595   4.897 -0.6119 -0.1151 -0.0189
 1757SOL     OW 7025   3.145   0.276   0.415  0.3471  0.1481 -0.6711
 1757SOL    HW1 7026   3.123   0.347   0.355  1.4743  0.9086 -0.2310
 1757SOL    HW2 7027   3.062   0.231   0.431 -0.3330  1.1589 -1.2325
 1757SOL     MW 7028   3.131   0.279   0.409  0.4073  0.3865 -0.6874
 1758SOL     OW 7029   3.520   1.594   3.187  0.4558 -0.0869  0.2815
 1758SOL    HW1 7030   3.508   1.509   3.229  0.3297  0.4697  1.4075
 1758SOL    HW2 7031   3.439   1.642   3.205 -0.6112 -0.6015 -2.5921
 1758SOL     MW 7032   3.508   1.589   3.195  0.2952 -0.0812  0.0463
 1759SOL     OW 7033   4.115   4.895   0.058 -0.3824  0.0352 -0.1030
 1759SOL    HW1 7034   4.148   4.976   0.021  0.0638  0.3687  0.9907
 1759SOL    HW2 7035   4.063   4.855  -0.013 -1.7167  1.8898 -0.2400
 1759SOL     MW 7036   4.112   4.900   0.044 -0.5019  0.3296  0.0258
 1760SOL     OW 7037   2.631   1.933   0.584 -0.4438  0.7076 -0.1807
 1760SOL    HW1 7038   2.547   1.977   0.599 -0.2296  1.7190 -1.6484
 1760SOL    HW2 7039   2.684   1.999   0.540  1.5415  0.4587  1.6840
 1760SOL     MW 7040   2.627   1.948   0.580 -0.1478  0.8102 -0.1273
 1761SOL     OW 7041   2.352   5.352   3.509 -0.4879 -0.6046 -0.0222
 1761SOL    HW1 7042   2.418   5.285   3.494  0.7114  0.4382  0.4753
 1761SOL    HW2 7043   2.400   5.428   3.542 -1.7931  0.5310 -0.5871
 1761SOL     MW 7044   2.367   5.353   3.511 -0.5021 -0.3114 -0.0313
 1762SOL     OW 7045   4.368   5.253   3.116  0.0879  0.0928  0.0404
 1762SOL    HW1 7046   4.319   5.334   3.131 -0.3368 -0.0974 -0.3047
 1762SOL    HW2 7047   4.372   5.211   3.201 -0.3047  0.1406  0.0865
 1762SOL     MW 7048   4.362   5.258   3.129 -0.0221  0.0736  0.0002
 1763SOL     OW 7049   1.732   4.065   1.766 -0.6449  0.0558 -0.2216
 1763SOL    HW1 7050   1.748   3.972   1.751  2.1810  0.6429 -1.3643
 1763SOL    HW2 7051   1.810   4.096   1.810 -2.5793  1.4805  2.4887
 1763SOL     MW 7052   1.744   4.056   1.770 -0.5249  0.3265 -0.0107
 1764SOL     OW 7053   3.757   2.844   0.464  0.1065  0.4118  0.2816
 1764SOL    HW1 7054   3.782   2.936   0.458 -1.2580  0.8192  0.4060
 1764SOL    HW2 7055   3.772   2.821   0.556 -0.0024  0.6559  0.3614
 1764SOL     MW 7056   3.762   2.853   0.476 -0.0918  0.4995  0.3091
 1765SOL     OW 7057   5.353   3.498   5.209 -0.5338 -0.3487  0.0552
 1765SOL    HW1 7058   5.421   3.540   5.156 -0.6737 -0.7489 -0.4573
 1765SOL    HW2 7059   5.352   3.547   5.291  1.2899 -1.1566  0.6000
 1765SOL     MW 7060   5.362   3.510   5.213 -0.3072 -0.5112  0.0595
 1766SOL     OW 7061   5.354   0.166   3.090  0.0384 -0.2548  0.3738
 1766SOL    HW1 7062   5.287   0.234   3.084 -1.7481 -1.7183  2.1954
 1766SOL    HW2 7063   5.347   0.118   3.008  0.7050  1.1408 -0.5418
 1766SOL     MW 7064   5.344   0.169   3.078 -0.1124 -0.2640  0.4957
 1767SOL     OW 7065   2.529   3.562   3.070 -0.1863 -0.0578  1.0195
 1767SOL    HW1 7066   2.492   3.619   3.003  3.0839  0.2077 -0.7564
 1767SOL    HW2 7067   2.522   3.474   3.033  1.6825  0.0964  0.2167
 1767SOL     MW 7068   2.523   3.558   3.056  0.5053 -0.0013  0.6724
 1768SOL     OW 7069   5.168   5.345   0.459  0.0902 -0.2318 -0.5354
 1768SOL    HW1 7070   5.095   5.372   0.515 -0.4005  0.6610 -1.5842
 1768SOL    HW2 7071   5.175   5.413   0.393  2.1496 -0.0909 -0.2400
 1768SOL     MW 7072   5.159   5.358   0.458  0.3013 -0.0927 -0.6368
 1769SOL     OW 7073   2.956   3.553   3.454 -0.1233  0.5157 -0.4153
 1769SOL    HW1 7074   2.861   3.548   3.468  0.0765  1.6539  1.7577
 1769SOL    HW2 7075   2.971   3.642   3.423  0.3249  0.6571  0.2022
 1769SOL     MW 7076   2.945   3.564   3.452 -0.0361  0.6879 -0.0397
 1770SOL     OW 7077   2.767   2.234   5.369  0.0305  0.3633 -0.3192
 1770SOL    HW1 7078   2.726   2.257   5.452  0.6396 -1.4329  0.5394
 1770SOL    HW2 7079   2.807   2.148   5.385  0.5132  0.1544 -2.3510
 1770SOL     MW 7080   2.767   2.225   5.382  0.1775  0.0934 -0.4770
 1771SOL     OW 7081   3.255   4.313   1.017 -0.4193 -0.3516  0.0528
 1771SOL    HW1 7082   3.206   4.269   1.086  1.2609 -0.5886  1.1665
 1771SOL    HW2 7083   3.189   4.342   0.954 -1.8146 -1.9206  0.7403
 1771SOL     MW 7084   3.239   4.311   1.018 -0.3809 -0.5946  0.2952
 1772SOL     OW 7085   3.218   1.442   3.350 -0.3499 -0.2352  0.0830
 1772SOL    HW1 7086   3.197   1.474   3.262  0.5535  1.3476  0.3928
 1772SOL    HW2 7087   3.277   1.368   3.336 -1.2840 -0.8709 -0.6419
 1772SOL     MW 7088   3.223   1.437   3.336 -0.3540 -0.1077  0.0271
 1773SOL     OW 7089   4.677   3.353   2.166 -0.0539 -0.2358 -0.2939
 1773SOL    HW1 7090   4.618   3.279   2.151 -0.2885  0.2351 -1.9923
 1773SOL    HW2 7091   4.745   3.343   2.100  0.8841  0.1279  0.5905
 1773SOL     MW 7092   4.678   3.341   2.155  0.0408 -0.1235 -0.4034
 1774SOL     OW 7093   0.716   3.110   3.986 -0.1126 -0.1100  0.1234
 1774SOL    HW1 7094   0.788   3.165   3.954 -0.4422  0.6107  0.5902
 1774SOL    HW2 7095   0.646   3.123   3.921  0.5567 -1.7689 -1.0136
 1774SOL     MW 7096   0.716   3.119   3.973 -0.0669 -0.2363  0.0332
 1775SOL     OW 7097   4.164   3.001   1.132  0.3070 -0.3395  0.1195
 1775SOL    HW1 7098   4.193   3.090   1.151  1.4242 -0.3635 -1.3121
 1775SOL    HW2 7099   4.179   2.953   1.213  1.2624  0.4130  0.4099
 1775SOL     MW 7100   4.170   3.007   1.145  0.5859 -0.2415 -0.0341
 1776SOL     OW 7101   4.442   3.814   1.656 -0.0060 -0.1562  0.3396
 1776SOL    HW1 7102   4.396   3.873   1.597  1.7345  0.4246 -0.4869
 1776SOL    HW2 7103   4.477   3.871   1.725 -0.3959 -0.5766  0.9024
 1776SOL     MW 7104   4.440   3.830   1.657  0.1758 -0.1346  0.3042
 1777SOL     OW 7105   0.512   2.684   3.349  0.3937 -0.5480 -0.0357
 1777SOL    HW1 7106   0.543   2.596   3.372  0.9303 -0.0847  1.1212
 1777SOL    HW2 7107   0.458   2.671   3.271  0.3239 -1.9276  0.2132
 1777SOL     MW 7108   0.509   2.670   3.342  0.4565 -0.6713  0.1535
 1778SOL     OW 7109   3.108   0.107   2.761 -0.6409  0.0688  0.1862
 1778SOL    HW1 7110   3.137   0.028   2.716 -0.4055 -0.2227  0.8410
 1778SOL    HW2 7111   3.046   0.147   2.701 -1.2876 -0.9740  0.1429
 1778SOL     MW 7112   3.104   0.102   2.747 -0.6962 -0.1108  0.2685
 1779SOL     OW 7113   3.680   1.441   5.239  0.4749  0.4285 -0.5602
 1779SOL    HW1 7114   3.745   1.448   5.310 -0.1380 -1.4383  0.2581
 1779SOL    HW2 7115   3.698   1.356   5.199 -2.5248 -1.0298  0.8659
 1779SOL     MW 7116   3.691   1.430   5.243 -0.0113 -0.0190 -0.2582
 1780SOL     OW 7117   1.387   4.102   2.950  0.6038  0.0585  0.0710
 1780SOL    HW1 7118   1.345   4.062   2.873  0.8325 -0.2013  0.0804
 1780SOL    HW2 7119   1.471   4.133   2.917 -0.0847  1.7046 -0.2552
 1780SOL     MW 7120   1.393   4.101   2.935  0.5419  0.2451  0.0284
 1781SOL     OW 7121   0.838   3.550   2.171 -0.6429  0.3525  0.3959
 1781SOL    HW1 7122   0.753   3.510   2.190 -1.0084  0.9116 -0.0267
 1781SOL    HW2 7123   0.902   3.483   2.197 -1.1936  0.0766  1.0871
 1781SOL     MW 7124   0.835   3.535   2.177 -0.7662  0.3906  0.4320
 1782SOL     OW 7125   5.470   0.034   3.301 -0.1104 -0.1620  0.1079
 1782SOL    HW1 7126   5.424   0.077   3.229 -1.3056 -0.8035  0.4623
 1782SOL    HW2 7127   5.434  -0.055   3.303  0.8995 -0.5774  0.6326
 1782SOL     MW 7128   5.459   0.028   3.291 -0.1354 -0.3042  0.2262
 1783SOL     OW 7129   3.624   5.503   2.503  0.9627 -0.2573 -0.5902
 1783SOL    HW1 7130   3.598   5.414   2.528  0.7464  0.5038  2.1828
 1783SOL    HW2 7131   3.668   5.492   2.419 -1.9467 -2.5267 -1.9830
 1783SOL     MW 7132   3.627   5.490   2.495  0.5421 -0.4603 -0.4044
 1784SOL     OW 7133   4.990   5.457   3.471 -0.7399  0.3511 -0.3734
 1784SOL    HW1 7134   5.024   5.529   3.523 -2.1652  0.0339  1.0680
 1784SOL    HW2 7135   5.052   5.386   3.485  0.6931  1.2479 -1.8311
 1784SOL     MW 7136   5.003   5.457   3.480 -0.7389  0.4291 -0.3756
 1785SOL     OW 7137   0.202   0.559   4.367  0.3268  0.2388 -0.2042
 1785SOL    HW1 7138   0.109   0.566   4.388  0.3244  1.1695 -0.4492
 1785SOL    HW2 7139   0.204   0.533   4.275  0.3145 -0.2022 -0.0811
 1785SOL     MW 7140   0.190   0.557   4.357  0.3248  0.3047 -0.2206
 1786SOL     OW 7141   3.680   2.056   3.345 -0.1611  0.6188  0.0658
 1786SOL    HW1 7142   3.731   2.057   3.427 -0.2630 -1.6332  0.2359
 1786SOL    HW2 7143   3.599   2.010   3.368 -0.9274  1.4410 -0.9295
 1786SOL     MW 7144   3.676   2.050   3.359 -0.2779  0.4264 -0.0453
 1787SOL     OW 7145   0.974   0.727   2.388 -0.6853 -0.0227 -0.3690
 1787SOL    HW1 7146   0.902   0.776   2.349 -0.3313 -0.3178 -1.4215
 1787SOL    HW2 7147   1.039   0.794   2.411 -0.0263  0.0152 -2.1811
 1787SOL     MW 7148   0.973   0.743   2.386 -0.5490 -0.0573 -0.7545
 1788SOL     OW 7149   2.691   3.543   3.480  0.5482  0.0389  0.4903
 1788SOL    HW1 7150   2.624   3.553   3.547  0.6877 -0.3315  0.6937
 1788SOL    HW2 7151   2.671   3.459   3.439 -0.3508  0.8995 -0.8720
 1788SOL     MW 7152   2.679   3.533   3.484  0.4460  0.1048  0.3343
 1789SOL     OW 7153   5.399   0.478   2.051 -0.2438 -0.5621  0.0892
 1789SOL    HW1 7154   5.487   0.499   2.083 -0.9091  1.1738  0.8591
 1789SOL    HW2 7155   5.367   0.411   2.111  0.8942 -1.9669 -0.7958
 1789SOL     MW 7156   5.407   0.472   2.063 -0.1802 -0.5175  0.0737
 1790SOL     OW 7157   2.785   1.196   4.913 -0.0940  0.6123 -0.4142
 1790SOL    HW1 7158   2.731   1.237   4.846 -0.6279  0.6600  0.0416
 1790SOL    HW2 7159   2.758   1.238   4.995 -1.2117 -1.1915  0.1750
 1790SOL     MW 7160   2.774   1.207   4.915 -0.3163  0.3760 -0.2736
 1791SOL     OW 7161   3.478   2.665   4.026  0.1726  0.1747 -0.3463
 1791SOL    HW1 7162   3.539   2.620   3.967 -0.2111 -0.3654 -0.3441
 1791SOL    HW2 7163   3.443   2.737   3.975  1.8863  1.4199  0.1028
 1791SOL     MW 7164   3.482   2.668   4.012  0.3516  0.2696 -0.2856
 1792SOL     OW 7165   3.447   4.672   2.177  0.0103 -0.3126  0.0242
 1792SOL    HW1 7166   3.446   4.611   2.103 -0.9232  0.0040 -0.2344
 1792SOL    HW2 7167   3.435   4.758   2.137 -1.4938 -0.2276  0.6056
 1792SOL     MW 7168   3.445   4.676   2.162 -0.3178 -0.2585  0.0676
 1793SOL     OW 7169   5.297   3.407   1.932 -0.5526  0.5710  0.2171
 1793SOL    HW1 7170   5.351   3.334   1.962 -1.0263  0.4973  0.9231
 1793SOL    HW2 7171   5.357   3.461   1.879  0.2965  0.6365  1.2012
 1793SOL     MW 7172   5.313   3.404   1.929 -0.5020  0.5699  0.4446
 1794SOL     OW 7173   0.463   4.874   0.616  0.0634  0.3701  0.5167
 1794SOL    HW1 7174   0.462   4.827   0.699  0.1699  0.5238  0.6039
 1794SOL    HW2 7175   0.411   4.819   0.557  0.3065  0.0684  0.5791
 1794SOL     MW 7176   0.456   4.860   0.619  0.1105  0.3502  0.5369
 1795SOL     OW 7177   3.826   4.960   2.706 -0.1578 -0.5305 -0.2891
 1795SOL    HW1 7178   3.741   4.926   2.734  0.8778 -1.6736  1.7498
 1795SOL    HW2 7179   3.870   4.984   2.788  1.5714 -0.1982 -1.2548
 1795SOL     MW 7180   3.821   4.959   2.721  0.2143 -0.6396 -0.1447
 1796SOL     OW 7181   0.158   5.086   0.342 -0.0975 -0.5198  0.5606
 1796SOL    HW1 7182   0.152   4.994   0.368  0.1044 -0.3508  1.2437
 1796SOL    HW2 7183   0.125   5.134   0.418  0.6197  0.0008  0.5616
 1796SOL     MW 7184   0.153   5.080   0.356  0.0262 -0.4270  0.6526
 1797SOL     OW 7185   3.694   2.236   2.699  0.0147  0.1595 -0.2172
 1797SOL    HW1 7186   3.739   2.213   2.617  1.1498 -0.1264  0.4768
 1797SOL    HW2 7187   3.724   2.325   2.718 -0.8758  0.5428 -0.5086
 1797SOL     MW 7188   3.704   2.245   2.690  0.0476  0.1726 -0.1630
 1798SOL     OW 7189   4.541   1.870   0.796  0.1814 -0.2704 -0.6106
 1798SOL    HW1 7190   4.553   1.938   0.730  1.4433  0.7171  0.5690
 1798SOL    HW2 7191   4.598   1.798   0.766  2.2934  0.9128  0.2907
 1798SOL     MW 7192   4.551   1.870   0.783  0.6354  0.0217 -0.3305
 1799SOL     OW 7193   0.036   2.234   2.477  0.2795  0.1788  0.2033
 1799SOL    HW1 7194   0.035   2.300   2.546 -3.0775  0.9517 -0.3947
 1799SOL    HW2 7195  -0.056   2.208   2.468  0.5414  0.0564 -3.8899
 1799SOL     MW 7196   0.024   2.239   2.485 -0.1370  0.2664 -0.4280
 1800SOL     OW 7197   5.135   4.448   2.015  0.6351 -0.2413 -0.0255
 1800SOL    HW1 7198   5.224   4.456   2.050  1.1638 -1.4264 -0.9952
 1800SOL    HW2 7199   5.137   4.496   1.933  0.0550  0.6262  0.4577
 1800SOL     MW 7200   5.147   4.455   2.009  0.6282 -0.2841 -0.0910
 1801SOL     OW 7201   2.705   4.004   2.020  0.3471 -0.5526  0.0354
 1801SOL    HW1 7202   2.788   3.974   2.057 -0.0273  1.2427  2.6757
 1801SOL    HW2 7203   2.655   3.924   2.004  1.7194 -1.5722  0.6360
 1801SOL     MW 7204   2.710   3.990   2.023  0.4814 -0.4482  0.4715
 1802SOL     OW 7205   0.986   0.555   1.228  0.2988  0.3315 -0.1238
 1802SOL    HW1 7206   1.078   0.541   1.251 -0.3236  0.8843  3.1539
 1802SOL    HW2 7207   0.945   0.469   1.236  0.4301  0.1441 -1.2825
 1802SOL     MW 7208   0.993   0.542   1.232  0.2327  0.3807  0.1614
 1803SOL     OW 7209   1.478   1.587   3.549 -0.5188  0.2681 -0.1115
 1803SOL    HW1 7210   1.557   1.600   3.601 -0.1859 -1.7434 -0.0643
 1803SOL    HW2 7211   1.497   1.634   3.467 -0.2628  1.7889  0.7707
 1803SOL     MW 7212   1.492   1.595   3.545 -0.4395  0.2020  0.0136
 1804SOL     OW 7213   2.703   5.325   1.008  0.3187 -0.1986 -0.0279
 1804SOL    HW1 7214   2.729   5.299   1.096 -1.3251  0.0689  0.5641
 1804SOL    HW2 7215   2.665   5.246   0.970  0.8997 -0.2759 -0.4731
 1804SOL     MW 7216   2.702   5.311   1.015  0.1756 -0.1730 -0.0081
 1805SOL     OW 7217   1.417   1.296   1.549 -0.0063 -0.1200 -0.3192
 1805SOL    HW1 7218   1.344   1.293   1.487  0.5673 -0.7815 -0.9729
 1805SOL    HW2 7219   1.396   1.371   1.606 -2.0813 -1.3261  0.6256
 1805SOL     MW 7220   1.404   1.306   1.548 -0.2084 -0.3713 -0.2800
 1806SOL     OW 7221   0.850   5.011   2.290 -0.1416  0.6634 -0.3799
 1806SOL    HW1 7222   0.932   5.012   2.240 -0.4347 -1.3379 -0.9601
 1806SOL    HW2 7223   0.849   5.096   2.334  1.6079  1.2644 -1.3794
 1806SOL     MW 7224   0.861   5.023   2.289  0.0544  0.4749 -0.5925
 1807SOL     OW 7225   4.464   2.690   1.632  0.1761  0.6946 -0.0081
 1807SOL    HW1 7226   4.457   2.629   1.558 -0.1844  1.0502 -0.2673
 1807SOL    HW2 7227   4.527   2.756   1.603 -0.8218  1.4705 -0.4476
 1807SOL     MW 7228   4.472   2.691   1.618 -0.0067  0.8469 -0.1021
 1808SOL     OW 7229   3.551   3.455   3.142 -0.1446  0.1589  0.1778
 1808SOL    HW1 7230   3.644   3.445   3.118 -0.1670 -0.8209  0.4368
 1808SOL    HW2 7231   3.553   3.504   3.223  0.3293 -1.8033  1.4339
 1808SOL     MW 7232   3.564   3.460   3.149 -0.0838 -0.2370  0.3817
 1809SOL     OW 7233   1.964   4.101   0.203 -0.1554 -0.4158  0.0362
 1809SOL    HW1 7234   1.886   4.112   0.148 -0.2396  1.2717  0.4317
 1809SOL    HW2 7235   2.030   4.157   0.161 -1.0592  3.3431  3.1323
 1809SOL     MW 7236   1.962   4.110   0.190 -0.2884  0.3172  0.5061
 1810SOL     OW 7237   3.767   2.762   2.070  0.3022 -0.0860  0.1098
 1810SOL    HW1 7238   3.813   2.832   2.116 -0.1187  0.8092 -0.8082
 1810SOL    HW2 7239   3.716   2.806   2.002  0.4066 -1.3131 -0.8080
 1810SOL     MW 7240   3.767   2.777   2.067  0.2596 -0.1306 -0.1372
 1811SOL     OW 7241   4.185   0.182   0.390  0.4707  0.2495 -0.2131
 1811SOL    HW1 7242   4.238   0.258   0.367  0.4585  0.2919 -0.1039
 1811SOL    HW2 7243   4.094   0.211   0.379  0.4723 -0.1238 -1.3567
 1811SOL     MW 7244   4.180   0.196   0.385  0.4693  0.2049 -0.3523
 1812SOL     OW 7245   1.133   4.419   4.838 -0.0470  0.3423 -0.0461
 1812SOL    HW1 7246   1.089   4.392   4.918 -0.2241  0.3911 -0.1263
 1812SOL    HW2 7247   1.105   4.510   4.824  0.4242  0.5206  0.1387
 1812SOL     MW 7248   1.124   4.428   4.847 -0.0074  0.3729 -0.0321
 1813SOL     OW 7249   3.374   5.480   2.379 -0.4513 -0.0912  0.1263
 1813SOL    HW1 7250   3.392   5.408   2.318 -1.2147 -0.1754 -0.0125
 1813SOL    HW2 7251   3.455   5.489   2.430 -0.8367 -2.0953  1.2219
 1813SOL     MW 7252   3.387   5.471   2.378 -0.6059 -0.3723  0.2550
 1814SOL     OW 7253   3.479   0.846   2.300 -0.0090 -0.3080 -0.6261
 1814SOL    HW1 7254   3.462   0.765   2.349 -0.7958  0.0701 -0.2589
 1814SOL    HW2 7255   3.484   0.914   2.367  2.4952 -0.2811 -0.7433
 1814SOL     MW 7256   3.477   0.844   2.316  0.2221 -0.2535 -0.5925
 1815SOL     OW 7257   4.276   0.392   4.193 -0.3254  0.0782 -0.2125
 1815SOL    HW1 7258   4.229   0.436   4.263 -3.6949 -1.8443 -1.0227
 1815SOL    HW2 7259   4.317   0.463   4.144 -1.1679  1.8100  1.4457
 1815SOL     MW 7260   4.275   0.408   4.196 -0.8922  0.0525 -0.0984
 1816SOL     OW 7261   4.843   5.070   1.248 -0.7258  0.2900 -0.3264
 1816SOL    HW1 7262   4.813   5.051   1.159  0.4128 -0.0871 -0.6545
 1816SOL    HW2 7263   4.938   5.080   1.239 -0.6769  0.9355  0.7380
 1816SOL     MW 7264   4.852   5.069   1.235 -0.5660  0.3262 -0.2273
 1817SOL     OW 7265   2.344   0.511   1.444 -0.1003 -0.0706  0.1729
 1817SOL    HW1 7266   2.378   0.584   1.392  0.2409 -0.8665 -0.7522
 1817SOL    HW2 7267   2.266   0.482   1.396 -1.0670  0.5654  1.2934
 1817SOL     MW 7268   2.338   0.517   1.431 -0.1845 -0.0921  0.1992
 1818SOL     OW 7269   1.225   0.463   4.284  0.7503  0.2573 -0.3426
 1818SOL    HW1 7270   1.201   0.435   4.195 -0.6915  1.2201 -0.2871
 1818SOL    HW2 7271   1.263   0.550   4.272 -1.2895  1.2537  0.1481
 1818SOL     MW 7272   1.227   0.471   4.270  0.2818  0.5209 -0.2691
 1819SOL     OW 7273   2.533   0.148   5.343 -0.0649  0.5473  0.6723
 1819SOL    HW1 7274   2.456   0.176   5.293  0.0482  1.0528  0.7716
 1819SOL    HW2 7275   2.600   0.213   5.322  0.2817  0.2125  0.7294
 1819SOL     MW 7276   2.532   0.161   5.334 -0.0030  0.5703  0.6933
 1820SOL     OW 7277   0.918   3.234   1.197 -0.1345  0.6501  0.0404
 1820SOL    HW1 7278   0.901   3.223   1.103 -0.2540 -0.8738  0.2110
 1820SOL    HW2 7279   0.984   3.303   1.201  0.4690  0.1878 -1.2354
 1820SOL     MW 7280   0.925   3.242   1.185 -0.0694  0.3828 -0.1083
 1821SOL     OW 7281   1.526   3.187   1.936 -0.5781  0.0169  0.5567
 1821SOL    HW1 7282   1.588   3.171   2.007 -1.0873 -1.0844  0.7666
 1821SOL    HW2 7283   1.575   3.164   1.857  0.2948  2.0995  0.4253
 1821SOL     MW 7284   1.541   3.181   1.935 -0.5291  0.1490  0.5673
 1822SOL     OW 7285   5.422   3.922   2.925  0.1164  0.0373  0.3462
 1822SOL    HW1 7286   5.327   3.926   2.914  0.0592 -1.6067 -0.0188
 1822SOL    HW2 7287   5.457   3.972   2.851 -0.4403 -1.6209 -1.0908
 1822SOL     MW 7288   5.414   3.930   2.914  0.0338 -0.4071  0.1037
 1823SOL     OW 7289   0.857   4.171   3.565 -0.2798 -0.0291  0.2531
 1823SOL    HW1 7290   0.905   4.168   3.648 -1.5263  1.5115  1.0910
 1823SOL    HW2 7291   0.924   4.194   3.500  0.6269 -0.7540  0.9047
 1823SOL     MW 7292   0.873   4.174   3.568 -0.3255  0.0807  0.4535
 1824SOL     OW 7293   4.267   2.887   1.362 -0.3538 -0.0313 -0.3561
 1824SOL    HW1 7294   4.351   2.931   1.372  0.1027 -0.8592 -0.5237
 1824SOL    HW2 7295   4.240   2.866   1.452 -0.7762  0.9256 -0.2364
 1824SOL     MW 7296   4.274   2.890   1.376 -0.3492 -0.0139 -0.3626
 1825SOL     OW 7297   4.909   2.776   1.078 -0.1264  0.0152  0.1777
 1825SOL    HW1 7298   4.917   2.770   0.983 -0.6762 -0.3278  0.1487
 1825SOL    HW2 7299   4.822   2.740   1.097 -0.4024  0.9385  0.7220
 1825SOL     MW 7300   4.898   2.771   1.068 -0.2376  0.0933  0.2470
 1826SOL     OW 7301   3.032   0.258   5.026  0.3668  0.1130  0.4740
 1826SOL    HW1 7302   2.960   0.194   5.022 -0.1259  0.7256 -2.0711
 1826SOL    HW2 7303   3.106   0.208   5.059 -0.0335 -1.8204 -1.3160
 1826SOL     MW 7304   3.032   0.242   5.030  0.2466 -0.0647 -0.1094
 1827SOL     OW 7305   2.465   2.904   3.600 -0.2182  0.3061  0.0322
 1827SOL    HW1 7306   2.432   2.874   3.516  0.6460  0.5020 -0.3868
 1827SOL    HW2 7307   2.557   2.876   3.601 -0.0013  1.0107  0.5660
 1827SOL     MW 7308   2.473   2.896   3.589 -0.0727  0.4273  0.0477
 1828SOL     OW 7309   2.590   4.148   2.218 -0.3542 -0.6471 -0.1000
 1828SOL    HW1 7310   2.624   4.084   2.156 -0.2290 -0.0527 -0.6546
 1828SOL    HW2 7311   2.545   4.096   2.284  0.8453 -1.3851  0.1557
 1828SOL     MW 7312   2.589   4.132   2.218 -0.1759 -0.6664 -0.1403
 1829SOL     OW 7313   3.844   4.196   4.021  0.4963  0.4653  0.5359
 1829SOL    HW1 7314   3.771   4.250   3.990  0.4286 -0.1243 -0.3867
 1829SOL    HW2 7315   3.847   4.123   3.960 -0.5014 -1.5304  2.7114
 1829SOL     MW 7316   3.834   4.193   4.009  0.3529  0.1174  0.7045
 1830SOL     OW 7317   0.151   2.584   1.582  0.2999 -0.0430  0.1126
 1830SOL    HW1 7318   0.238   2.622   1.566 -0.0284  1.0619  0.8386
 1830SOL    HW2 7319   0.166   2.520   1.652  0.1105  2.1495  2.2640
 1830SOL     MW 7320   0.165   2.580   1.589  0.2303  0.4007  0.4999
 1831SOL     OW 7321   4.172   1.815   1.172  0.3665 -0.3463 -0.3996
 1831SOL    HW1 7322   4.169   1.910   1.185  0.5035 -0.2880 -0.7826
 1831SOL    HW2 7323   4.212   1.804   1.086  0.7082 -0.7657 -0.1901
 1831SOL     MW 7324   4.177   1.826   1.162  0.4309 -0.3949 -0.4229
 1832SOL     OW 7325   2.365   4.645   0.640 -0.0351 -0.2101 -0.4358
 1832SOL    HW1 7326   2.318   4.563   0.653  0.7914 -0.5170  0.7647
 1832SOL    HW2 7327   2.297   4.712   0.641 -0.5599 -0.7400  0.1497
 1832SOL     MW 7328   2.350   4.643   0.642  0.0055 -0.3227 -0.1954
 1833SOL     OW 7329   0.883   0.932   5.466 -0.0693 -0.1332  0.3052
 1833SOL    HW1 7330   0.922   0.882   5.538  1.9153  0.4457 -0.3202
 1833SOL    HW2 7331   0.942   1.005   5.452 -1.0344  0.4156 -1.1722
 1833SOL     MW 7332   0.896   0.935   5.474  0.0679  0.0186  0.0222
 1834SOL     OW 7333   3.454   4.846   3.009  0.0228  0.5135 -0.1588
 1834SOL    HW1 7334   3.372   4.862   3.055 -0.2810  0.1934 -0.5861
 1834SOL    HW2 7335   3.522   4.865   3.075 -0.4175 -1.5539  0.9946
 1834SOL     MW 7336   3.452   4.850   3.024 -0.0774  0.1922 -0.0611
 1835SOL     OW 7337   5.361   3.193   2.527 -0.4160 -0.0949  0.0149
 1835SOL    HW1 7338   5.385   3.273   2.480 -1.3736  0.2952  0.1817
 1835SOL    HW2 7339   5.286   3.159   2.480 -1.2221  0.1532  1.0899
 1835SOL     MW 7340   5.354   3.199   2.514 -0.6534 -0.0090  0.1820
 1836SOL     OW 7341   5.338   0.401   5.068 -0.0683  0.6451  0.6868
 1836SOL    HW1 7342   5.319   0.455   5.145  0.7086  1.1548  0.5410
 1836SOL    HW2 7343   5.434   0.394   5.068  0.0329  1.5510 -0.8164
 1836SOL     MW 7344   5.349   0.408   5.079  0.0499  0.8356  0.4649
 1837SOL     OW 7345   2.666   1.175   2.014 -0.1330  0.0850  0.0024
 1837SOL    HW1 7346   2.756   1.153   1.989  0.1712  2.2180 -0.9874
 1837SOL    HW2 7347   2.667   1.176   2.109 -0.2150 -3.9341  0.2234
 1837SOL     MW 7348   2.678   1.172   2.023 -0.1031 -0.1688 -0.1011
 1838SOL     OW 7349   0.439   1.950   2.827 -0.0946 -0.0891  0.0187
 1838SOL    HW1 7350   0.495   1.971   2.901  0.2915 -0.1913 -0.2438
 1838SOL    HW2 7351   0.412   1.859   2.842  0.5072 -0.3239 -0.2990
 1838SOL     MW 7352   0.443   1.941   2.839  0.0383 -0.1345 -0.0594
 1839SOL     OW 7353   4.971   4.109   2.256 -0.1600 -0.1063  0.4902
 1839SOL    HW1 7354   4.981   4.193   2.300  0.6379  0.1965 -0.2393
 1839SOL    HW2 7355   4.907   4.125   2.186  2.4669  0.8884 -1.9084
 1839SOL     MW 7356   4.963   4.122   2.252  0.3009  0.0683  0.0692
 1840SOL     OW 7357   0.770   2.237   0.974 -0.2809  0.0267  0.1084
 1840SOL    HW1 7358   0.694   2.179   0.976  0.6832 -1.3256  2.4725
 1840SOL    HW2 7359   0.796   2.246   1.066  1.3619  1.8940 -0.4607
 1840SOL     MW 7360   0.763   2.230   0.987  0.0700  0.0960  0.3500
 1841SOL     OW 7361   4.337   4.628   2.595  0.0158 -0.6306  0.0860
 1841SOL    HW1 7362   4.424   4.658   2.569  0.4308 -1.2566  0.7165
 1841SOL    HW2 7363   4.330   4.652   2.688 -0.8156  0.1496 -0.1615
 1841SOL     MW 7364   4.348   4.635   2.604 -0.0402 -0.6098  0.1375
 1842SOL     OW 7365   1.727   4.614   3.336 -0.5915 -0.4743  0.0848
 1842SOL    HW1 7366   1.658   4.678   3.317 -0.7249 -0.3006  1.0803
 1842SOL    HW2 7367   1.801   4.642   3.283 -0.7269  0.3894  0.3354
 1842SOL     MW 7368   1.728   4.627   3.326 -0.6277 -0.3347  0.2525
 1843SOL     OW 7369   2.623   3.244   2.119 -0.4378  0.7025  0.5066
 1843SOL    HW1 7370   2.615   3.277   2.030 -0.8691 -0.5283  0.0764
 1843SOL    HW2 7371   2.655   3.319   2.169  1.1815  1.0522 -0.9340
 1843SOL     MW 7372   2.627   3.259   2.114 -0.2779  0.5839  0.2548
 1844SOL     OW 7373   0.094   2.661   1.985 -0.6836 -0.8018  0.4222
 1844SOL    HW1 7374   0.049   2.723   1.928 -0.6246 -1.0311  0.1260
 1844SOL    HW2 7375   0.187   2.673   1.964 -0.6547 -0.8074  0.5482
 1844SOL     MW 7376   0.100   2.671   1.974 -0.6718 -0.8334  0.3993
 1845SOL     OW 7377   4.028   1.676   5.376 -0.3571  0.3920 -0.5083
 1845SOL    HW1 7378   4.122   1.685   5.361 -0.1406 -0.2753  0.3261
 1845SOL    HW2 7379   3.987   1.706   5.295  0.5700  0.8180 -0.8279
 1845SOL     MW 7380   4.035   1.681   5.363 -0.2032  0.3595 -0.4390
 1846SOL     OW 7381   1.029   4.253   1.693  0.5742  0.3240 -0.1996
 1846SOL    HW1 7382   1.019   4.310   1.769  1.7537  0.8086 -0.3946
 1846SOL    HW2 7383   1.119   4.221   1.699  0.8577  0.7872 -1.6726
 1846SOL     MW 7384   1.039   4.256   1.704  0.7711  0.4515 -0.4241
 1847SOL     OW 7385   2.854   4.286   5.201  0.3000 -0.1087  0.0735
 1847SOL    HW1 7386   2.916   4.215   5.219  1.1159  0.6384  0.2500
 1847SOL    HW2 7387   2.899   4.342   5.138  0.1149  0.8376  0.7564
 1847SOL     MW 7388   2.868   4.284   5.195  0.3849  0.1192  0.1891
 1848SOL     OW 7389   4.117   4.879   2.607 -0.3721 -0.1665  0.1861
 1848SOL    HW1 7390   4.040   4.827   2.584 -0.6847 -0.1361  1.1333
 1848SOL    HW2 7391   4.084   4.948   2.664  0.0162  1.1497 -1.0904
 1848SOL     MW 7392   4.102   4.881   2.612 -0.3619  0.0148  0.1418
 1849SOL     OW 7393   1.396   1.842   2.609  0.6203 -0.0025 -0.1887
 1849SOL    HW1 7394   1.386   1.757   2.566  0.1877 -0.6247  1.0871
 1849SOL    HW2 7395   1.312   1.886   2.596 -0.8672 -1.6162  2.9065
 1849SOL     MW 7396   1.384   1.837   2.601  0.3619 -0.3034  0.3996
 1850SOL     OW 7397   2.456   4.890   2.917  0.3389 -0.1401  0.0467
 1850SOL    HW1 7398   2.392   4.886   2.989 -0.2912  1.8955 -0.3297
 1850SOL    HW2 7399   2.516   4.817   2.934 -1.0208 -0.9991  1.4350
 1850SOL     MW 7400   2.456   4.879   2.929  0.0711  0.0182  0.1829
 1851SOL     OW 7401   4.625   3.385   1.342 -0.6783  0.5284  0.1264
 1851SOL    HW1 7402   4.655   3.309   1.292 -0.5750  0.3264  0.4878
 1851SOL    HW2 7403   4.682   3.386   1.419  0.4973  2.0036 -0.7091
 1851SOL     MW 7404   4.637   3.375   1.345 -0.5062  0.6997  0.0626
 1852SOL     OW 7405   1.117   1.604   1.266 -0.1974  0.3410  0.3516
 1852SOL    HW1 7406   1.185   1.628   1.203  0.6615  0.4298  1.2906
 1852SOL    HW2 7407   1.036   1.637   1.227  0.4152  1.0793 -0.3415
 1852SOL     MW 7408   1.115   1.611   1.252  0.0007  0.4523  0.3847
 1853SOL     OW 7409   0.671   3.204   2.314 -0.0933 -0.6514  0.7456
 1853SOL    HW1 7410   0.591   3.155   2.335 -0.6286 -0.4864 -0.7372
 1853SOL    HW2 7411   0.680   3.194   2.219  1.0280  0.2672  0.7382
 1853SOL     MW 7412   0.661   3.196   2.304 -0.0145 -0.5056  0.5451
 1854SOL     OW 7413   3.881   1.431   5.446 -0.0097 -0.5323 -0.1865
 1854SOL    HW1 7414   3.947   1.486   5.404  0.3592 -1.5824 -1.0450
 1854SOL    HW2 7415   3.930   1.357   5.482 -0.6938 -1.3676 -0.8991
 1854SOL     MW 7416   3.896   1.428   5.445 -0.0521 -0.7861 -0.3980
 1855SOL     OW 7417   2.641   1.301   2.526  0.0120  0.1107  0.0961
 1855SOL    HW1 7418   2.629   1.224   2.581 -0.7636 -0.5703 -0.9667
 1855SOL    HW2 7419   2.585   1.368   2.565  1.5638  0.5318  1.6897
 1855SOL     MW 7420   2.632   1.300   2.538  0.1164  0.0757  0.1675
 1856SOL     OW 7421   4.259   1.363   3.387  0.0841 -0.0321 -0.6722
 1856SOL    HW1 7422   4.332   1.300   3.389 -0.7185 -1.0136 -1.3622
 1856SOL    HW2 7423   4.219   1.351   3.302 -1.8094 -0.6035  0.2490
 1856SOL     MW 7424   4.264   1.353   3.376 -0.2787 -0.2411 -0.6411
 1857SOL     OW 7425   0.666   4.088   0.765 -0.0285 -0.2759 -0.3490
 1857SOL    HW1 7426   0.581   4.108   0.802  0.7794  1.7249  0.5584
 1857SOL    HW2 7427   0.690   4.003   0.803 -1.1999 -0.4204  0.0792
 1857SOL     MW 7428   0.658   4.079   0.775 -0.0774 -0.0261 -0.1693
 1858SOL     OW 7429   0.585   1.210   2.548 -0.3034 -0.0452  0.0421
 1858SOL    HW1 7430   0.528   1.286   2.538  0.3519  0.5385  0.6076
 1858SOL    HW2 7431   0.594   1.199   2.643 -0.5601 -0.9653 -0.0278
 1858SOL     MW 7432   0.578   1.219   2.560 -0.2498 -0.0905  0.1088
 1859SOL     OW 7433   3.739   2.252   5.061 -0.2256  0.0145  0.1327
 1859SOL    HW1 7434   3.815   2.194   5.058 -0.2271 -0.1195  1.8402
 1859SOL    HW2 7435   3.732   2.286   4.972  0.5050 -1.6561 -0.6038
 1859SOL     MW 7436   3.749   2.249   5.049 -0.1275 -0.2284  0.2634
 1860SOL     OW 7437   3.838   4.636   2.887  0.3076 -0.6794  0.5599
 1860SOL    HW1 7438   3.823   4.617   2.979  1.0925 -0.5884  0.7161
 1860SOL    HW2 7439   3.866   4.552   2.850 -1.2583 -1.0309  0.1091
 1860SOL     MW 7440   3.840   4.622   2.894  0.2025 -0.7145  0.5202
 1861SOL     OW 7441   1.897   0.375   4.601  0.4255  0.3126 -0.0773
 1861SOL    HW1 7442   1.985   0.401   4.573  1.1523 -1.4614  0.4131
 1861SOL    HW2 7443   1.864   0.321   4.529 -0.0364  0.4981 -0.0091
 1861SOL     MW 7444   1.905   0.371   4.587  0.4612  0.0988 -0.0021
 1862SOL     OW 7445   5.069   3.489   1.615 -0.0270 -0.1065  0.8613
 1862SOL    HW1 7446   4.974   3.495   1.602 -0.0973  0.0573  1.3838
 1862SOL    HW2 7447   5.096   3.580   1.632  0.0618 -0.2805  1.6930
 1862SOL     MW 7448   5.060   3.502   1.616 -0.0245 -0.1078  1.0435
 1863SOL     OW 7449   5.445   3.963   1.421 -0.6158 -0.0990  0.4312
 1863SOL    HW1 7450   5.418   4.053   1.436  0.7054  0.5927 -1.0843
 1863SOL    HW2 7451   5.368   3.922   1.381 -1.2082  0.3470  1.0826
 1863SOL     MW 7452   5.431   3.969   1.418 -0.5177  0.0541  0.3149
 1864SOL     OW 7453   4.050   4.502   3.298 -0.2434  0.0935 -0.2292
 1864SOL    HW1 7454   4.029   4.490   3.391 -0.0493  0.2070 -0.1690
 1864SOL    HW2 7455   4.091   4.419   3.272  0.4619  0.3586  0.0050
 1864SOL     MW 7456   4.053   4.489   3.307 -0.1224  0.1444 -0.1896
 1865SOL     OW 7457   0.757   2.325   2.956  0.2285  0.3170  0.8613
 1865SOL    HW1 7458   0.836   2.344   2.905  0.3272  0.1824  0.9631
 1865SOL    HW2 7459   0.776   2.359   3.043  0.1014  0.4515  0.8354
 1865SOL     MW 7460   0.770   2.332   2.961  0.2247  0.3170  0.8715
 1866SOL     OW 7461   5.333   1.422   5.016 -0.0253  0.0412 -0.3658
 1866SOL    HW1 7462   5.331   1.479   5.093  0.5928 -0.5747  0.1207
 1866SOL    HW2 7463   5.258   1.449   4.964 -1.0609 -0.2037  0.9472
 1866SOL     MW 7464   5.323   1.433   5.020 -0.0815 -0.0746 -0.1237
 1867SOL     OW 7465   0.786   2.943   5.388  0.0646 -0.4137 -0.1573
 1867SOL    HW1 7466   0.842   2.971   5.461 -1.3211  0.1803  0.7053
 1867SOL    HW2 7467   0.762   2.853   5.410 -0.3602 -0.2317  0.1353
 1867SOL     MW 7468   0.790   2.934   5.401 -0.1791 -0.3093 -0.0018
 1868SOL     OW 7469   4.542   0.625   1.271  0.4702 -0.1165 -0.3872
 1868SOL    HW1 7470   4.503   0.680   1.203  1.5378 -1.0698 -1.8603
 1868SOL    HW2 7471   4.537   0.536   1.234 -0.1638 -0.8668  1.4103
 1868SOL     MW 7472   4.536   0.620   1.257  0.5286 -0.3458 -0.3435
 1869SOL     OW 7473   3.641   0.552   1.403 -0.2083  0.1350  0.3941
 1869SOL    HW1 7474   3.677   0.634   1.370  0.3770  0.1777  1.1136
 1869SOL    HW2 7475   3.714   0.511   1.449 -1.2215  0.5282  2.4450
 1869SOL     MW 7476   3.655   0.558   1.405 -0.2659  0.1936  0.7669
 1870SOL     OW 7477   1.764   2.957   0.802  0.1251 -0.4145 -0.0963
 1870SOL    HW1 7478   1.741   2.888   0.739 -4.0360  0.8844 -0.2460
 1870SOL    HW2 7479   1.704   2.944   0.875  0.6486  1.8398  0.8171
 1870SOL     MW 7480   1.753   2.946   0.803 -0.3645  0.0637  0.0065
 1871SOL     OW 7481   3.198   1.718   1.231 -0.0930 -0.2310 -0.1826
 1871SOL    HW1 7482   3.228   1.650   1.170  0.6525 -0.9873  0.9766
 1871SOL    HW2 7483   3.152   1.670   1.299  1.8834  0.2024  1.5360
 1871SOL     MW 7484   3.196   1.702   1.232  0.2733 -0.2745  0.2047
 1872SOL     OW 7485   5.411   0.788   1.891 -0.0836  0.1024 -0.2239
 1872SOL    HW1 7486   5.369   0.745   1.966 -0.1451 -0.6871 -0.7020
 1872SOL    HW2 7487   5.373   0.745   1.815  2.7272 -1.7725 -0.6708
 1872SOL     MW 7488   5.400   0.777   1.891  0.2864 -0.2561 -0.3484
 1873SOL     OW 7489   0.312   2.259   1.343  0.4368  0.2865  0.2079
 1873SOL    HW1 7490   0.314   2.243   1.249 -0.5593  0.1609  0.1944
 1873SOL    HW2 7491   0.257   2.337   1.354  0.5888  0.3348  0.6759
 1873SOL     MW 7492   0.305   2.267   1.332  0.3232  0.2761  0.2691
 1874SOL     OW 7493   4.011   3.484   2.021  0.1436 -0.5140 -0.1175
 1874SOL    HW1 7494   4.094   3.441   1.998  0.2580 -0.0954 -0.5110
 1874SOL    HW2 7495   3.997   3.548   1.951  0.4832  0.7872  0.9482
 1874SOL     MW 7496   4.020   3.487   2.008  0.2047 -0.2825 -0.0271
 1875SOL     OW 7497   2.175   2.555   4.495  0.7641 -0.3170  0.0478
 1875SOL    HW1 7498   2.201   2.579   4.584  2.7718  0.9217 -0.7976
 1875SOL    HW2 7499   2.255   2.521   4.456 -0.1886 -1.2032 -1.1897
 1875SOL     MW 7500   2.189   2.553   4.502  0.9061 -0.2696 -0.2325
 1876SOL     OW 7501   4.908   0.345   2.210 -0.4124  0.0744  0.4778
 1876SOL    HW1 7502   4.996   0.368   2.181 -0.5345  1.9129  1.3707
 1876SOL    HW2 7503   4.863   0.315   2.132  0.0078  2.4402 -0.7704
 1876SOL     MW 7504   4.913   0.344   2.196 -0.3723  0.6402  0.4300
 1877SOL     OW 7505   1.650   3.565   0.925  0.1884 -0.0803 -0.1625
 1877SOL    HW1 7506   1.602   3.554   1.006  2.9437 -0.1255  1.5997
 1877SOL    HW2 7507   1.656   3.660   0.913 -0.7623 -0.0720 -0.7315
 1877SOL     MW 7508   1.644   3.576   0.934  0.4313 -0.0853 -0.0019
 1878SOL     OW 7509   3.962   1.864   0.509 -0.7440  0.3737 -0.3450
 1878SOL    HW1 7510   4.033   1.808   0.477  0.5029  1.9386 -0.4727
 1878SOL    HW2 7511   3.905   1.876   0.434 -0.5866 -0.0919 -0.5402
 1878SOL     MW 7512   3.964   1.858   0.495 -0.5550  0.5216 -0.3884
 1879SOL     OW 7513   0.352   3.313   3.917  0.3010 -0.3571  0.0384
 1879SOL    HW1 7514   0.340   3.266   3.999  2.1581  1.3235  1.3999
 1879SOL    HW2 7515   0.407   3.256   3.864 -0.7327 -1.3660  0.0236
 1879SOL     MW 7516   0.358   3.299   3.921  0.4118 -0.2667  0.2197
 1880SOL     OW 7517   0.512   0.657   3.888 -0.0345  0.3382  0.0241
 1880SOL    HW1 7518   0.483   0.746   3.869  0.8074  0.5545 -0.2765
 1880SOL    HW2 7519   0.564   0.632   3.812  0.6616  0.0028  0.5989
 1880SOL     MW 7520   0.515   0.666   3.875  0.1725  0.3222  0.0610
 1881SOL     OW 7521   0.607   5.305   1.751  0.6987 -0.3805 -0.3435
 1881SOL    HW1 7522   0.512   5.307   1.738  0.6722 -1.4486 -0.4383
 1881SOL    HW2 7523   0.629   5.212   1.748  1.5495 -0.2568  1.1165
 1881SOL     MW 7524   0.597   5.293   1.749  0.8096 -0.5076 -0.1598
 1882SOL     OW 7525   3.454   2.630   1.315  0.3217 -0.2686 -0.3833
 1882SOL    HW1 7526   3.424   2.670   1.397 -2.3372 -0.8643 -0.9763
 1882SOL    HW2 7527   3.410   2.545   1.312  1.9230 -1.0991 -1.5281
 1882SOL     MW 7528   3.444   2.624   1.326  0.1793 -0.4605 -0.6172
 1883SOL     OW 7529   0.547   5.033   4.771 -0.2576  0.0956 -0.0067
 1883SOL    HW1 7530   0.592   4.998   4.695  0.0645  0.5839 -0.0438
 1883SOL    HW2 7531   0.508   4.957   4.813  0.0851 -0.2509 -0.3142
 1883SOL     MW 7532   0.548   5.018   4.766 -0.1681  0.1147 -0.0531
 1884SOL     OW 7533   2.782   0.630   3.730  0.1307  0.1290 -0.1679
 1884SOL    HW1 7534   2.857   0.639   3.789 -0.4697  0.9882  0.4821
 1884SOL    HW2 7535   2.737   0.551   3.761  0.1404  0.2492  0.1570
 1884SOL     MW 7536   2.786   0.620   3.742  0.0512  0.2608 -0.0367
 1885SOL     OW 7537   4.457   4.432   0.412 -0.8188  0.1443 -0.0953
 1885SOL    HW1 7538   4.395   4.359   0.421 -1.7423  0.8979 -0.2098
 1885SOL    HW2 7539   4.489   4.425   0.322 -1.2844  0.1751 -0.2655
 1885SOL     MW 7540   4.453   4.421   0.402 -1.0058  0.2498 -0.1336
 1886SOL     OW 7541   0.746   5.060   2.967 -0.5265  0.1967 -0.0701
 1886SOL    HW1 7542   0.774   5.010   2.891 -2.0774  2.1107 -2.0172
 1886SOL    HW2 7543   0.726   4.994   3.033  0.2573 -1.5656 -1.5122
 1886SOL     MW 7544   0.747   5.044   2.966 -0.6297  0.2171 -0.5262
 1887SOL     OW 7545   0.048   3.908   0.495  0.1249  0.2289  0.2200
 1887SOL    HW1 7546  -0.035   3.955   0.490  0.1826  0.2576 -0.6085
 1887SOL    HW2 7547   0.106   3.955   0.435  0.5522 -0.1522  0.3303
 1887SOL     MW 7548   0.044   3.920   0.486  0.1902  0.1815  0.1233
 1888SOL     OW 7549   5.012   2.383   3.720  0.1927 -0.0520  0.4123
 1888SOL    HW1 7550   4.920   2.371   3.698  0.6104 -3.1605 -0.0199
 1888SOL    HW2 7551   5.012   2.445   3.794 -2.1698  0.2621  0.2046
 1888SOL     MW 7552   5.000   2.390   3.727 -0.0691 -0.4280  0.3262
 1889SOL     OW 7553   2.778   1.710   4.500 -0.1477  0.1557 -0.4071
 1889SOL    HW1 7554   2.712   1.643   4.480 -0.5988  1.4585 -3.9987
 1889SOL    HW2 7555   2.732   1.773   4.555 -0.2296 -1.5286  1.5564
 1889SOL     MW 7556   2.763   1.709   4.505 -0.2194  0.1043 -0.6262
 1890SOL     OW 7557   4.897   1.917   4.853  0.0047  0.4313  0.4182
 1890SOL    HW1 7558   4.961   1.918   4.925 -0.1800 -3.4098  0.8421
 1890SOL    HW2 7559   4.842   1.841   4.871 -1.8145  0.9517 -2.3795
 1890SOL     MW 7560   4.899   1.907   4.866 -0.2650 -0.0156  0.0988
 1891SOL     OW 7561   3.860   1.290   4.177 -0.3822 -0.1653 -0.1763
 1891SOL    HW1 7562   3.924   1.289   4.106  0.5632 -0.6114  0.6638
 1891SOL    HW2 7563   3.783   1.246   4.141  0.5008 -1.4406 -0.5652
 1891SOL     MW 7564   3.858   1.284   4.163 -0.1361 -0.3970 -0.1156
 1892SOL     OW 7565   0.775   4.271   0.580  0.4273  0.2182 -0.1695
 1892SOL    HW1 7566   0.735   4.209   0.641 -0.4406  1.2074  0.3111
 1892SOL    HW2 7567   0.746   4.357   0.611  0.1764  0.7683 -1.8056
 1892SOL     MW 7568   0.765   4.274   0.592  0.2767  0.4253 -0.3250
 1893SOL     OW 7569   3.972   3.871   4.510  0.1694 -0.0552 -0.1117
 1893SOL    HW1 7570   4.030   3.841   4.581  1.0235  1.3434 -0.1840
 1893SOL    HW2 7571   3.978   3.802   4.444 -0.3553 -1.2176  0.9901
 1893SOL     MW 7572   3.981   3.857   4.511  0.2137 -0.0234  0.0268
 1894SOL     OW 7573   2.845   1.424   0.110 -0.6094  0.1651 -0.0878
 1894SOL    HW1 7574   2.906   1.492   0.080 -0.1743  0.1246  0.6930
 1894SOL    HW2 7575   2.876   1.344   0.067  1.7043 -0.4705  2.4732
 1894SOL     MW 7576   2.858   1.422   0.100 -0.2395  0.0741  0.3619
 1895SOL     OW 7577   2.827   3.101   2.359  0.3740 -0.0904  0.2836
 1895SOL    HW1 7578   2.914   3.141   2.356  0.1928  0.3525  0.6906
 1895SOL    HW2 7579   2.807   3.079   2.268  0.0396  1.7223 -0.1210
 1895SOL     MW 7580   2.836   3.103   2.347  0.3046  0.2132  0.2839
 1896SOL     OW 7581   4.855   0.339   3.932  0.2980  0.7454  0.2264
 1896SOL    HW1 7582   4.851   0.297   4.018  0.7713  0.1232 -0.0489
 1896SOL    HW2 7583   4.765   0.367   3.915  0.4472  2.1354  1.5350
 1896SOL     MW 7584   4.842   0.337   3.941  0.3818  0.8487  0.3654
 1897SOL     OW 7585   4.549   3.172   3.257 -0.1866 -0.0807  0.6558
 1897SOL    HW1 7586   4.535   3.089   3.304  1.2644 -0.7788 -0.0720
 1897SOL    HW2 7587   4.570   3.235   3.326 -2.4581  0.0248  1.3452
 1897SOL     MW 7588   4.550   3.169   3.273 -0.2970 -0.1604  0.6507
 1898SOL     OW 7589   2.134   2.320   2.720  0.5736  0.6195  0.6629
 1898SOL    HW1 7590   2.158   2.405   2.755  0.4593  1.4437 -1.1463
 1898SOL    HW2 7591   2.072   2.339   2.650  0.7525 -0.9244  0.0362
 1898SOL     MW 7592   2.129   2.334   2.715  0.5823  0.5227  0.3351
 1899SOL     OW 7593   5.008   3.799   4.125  0.7186  0.1980 -0.2670
 1899SOL    HW1 7594   5.086   3.786   4.179  1.4245  0.9184 -1.0808
 1899SOL    HW2 7595   4.977   3.711   4.105  1.7476 -0.1186 -0.5150
 1899SOL     MW 7596   5.015   3.786   4.130  0.9521  0.2524 -0.4099
 1900SOL     OW 7597   4.833   4.405   3.627 -0.5553 -0.2341 -0.3165
 1900SOL    HW1 7598   4.838   4.481   3.684 -0.0103 -0.9924  0.6940
 1900SOL    HW2 7599   4.740   4.395   3.607 -1.0027 -0.9384  1.8787
 1900SOL     MW 7600   4.821   4.414   3.632 -0.5422 -0.4309  0.1150
 1901SOL     OW 7601   1.451   4.187   5.162  0.0636 -0.1876 -0.6456
 1901SOL    HW1 7602   1.466   4.096   5.190  0.2498  0.3093  0.9573
 1901SOL    HW2 7603   1.429   4.180   5.069  3.0550 -1.6110 -1.3509
 1901SOL     MW 7604   1.450   4.174   5.153  0.4912 -0.3123 -0.5248
 1902SOL     OW 7605   3.755   5.299   5.011  0.1810  0.3074  0.1481
 1902SOL    HW1 7606   3.755   5.392   5.033  4.3899  0.6876 -0.6687
 1902SOL    HW2 7607   3.833   5.264   5.053 -1.8881 -3.2519  1.4407
 1902SOL     MW 7608   3.765   5.307   5.019  0.4690 -0.1204  0.2121
 1903SOL     OW 7609   1.317   1.738   5.189  0.3863  0.6070 -0.2327
 1903SOL    HW1 7610   1.250   1.706   5.249 -0.9334  0.6883 -1.6056
 1903SOL    HW2 7611   1.321   1.832   5.204  0.3151  0.5788 -0.0377
 1903SOL     MW 7612   1.308   1.746   5.199  0.1991  0.6141 -0.3913
 1904SOL     OW 7613   2.859   3.263   4.137  0.3791  0.4694 -0.2771
 1904SOL    HW1 7614   2.932   3.288   4.194  0.0197  1.1619 -0.1105
 1904SOL    HW2 7615   2.890   3.282   4.049  0.5501  0.3853 -0.2357
 1904SOL     MW 7616   2.873   3.269   4.133  0.3537  0.5513 -0.2491
 1905SOL     OW 7617   0.334   3.358   1.320  0.1093 -0.3304 -0.2439
 1905SOL    HW1 7618   0.367   3.278   1.279 -1.4796 -1.4791  0.6303
 1905SOL    HW2 7619   0.253   3.377   1.274 -0.0192  0.2399  0.2001
 1905SOL     MW 7620   0.328   3.350   1.308 -0.1219 -0.4083 -0.0665
 1906SOL     OW 7621   0.123   1.815   2.709 -0.5568 -0.0437 -0.0304
 1906SOL    HW1 7622   0.037   1.781   2.685 -1.1662  0.0762  1.8146
 1906SOL    HW2 7623   0.127   1.805   2.804  0.4990  2.1660  0.2193
 1906SOL     MW 7624   0.112   1.809   2.719 -0.4967  0.2699  0.2515
 1907SOL     OW 7625   1.998   5.195   2.397  0.6166 -0.1689  0.0333
 1907SOL    HW1 7626   1.954   5.208   2.313 -0.2881 -0.4483  0.4512
 1907SOL    HW2 7627   2.046   5.277   2.411 -0.9283  0.7387  0.2335
 1907SOL     MW 7628   1.998   5.208   2.387  0.2869 -0.0844  0.1165
 1908SOL     OW 7629   0.224   5.508   0.513  0.2024  0.1971  0.5695
 1908SOL    HW1 7630   0.158   5.450   0.475  0.5180  0.8069 -0.9779
 1908SOL    HW2 7631   0.286   5.449   0.555 -0.4524 -0.4678  0.6257
 1908SOL     MW 7632   0.223   5.492   0.513  0.1568  0.1897  0.3688
 1909SOL     OW 7633   3.769   4.829   2.297  0.4985 -0.1970  0.5446
 1909SOL    HW1 7634   3.828   4.901   2.274 -0.0460 -0.3601 -1.5926
 1909SOL    HW2 7635   3.689   4.872   2.328 -0.4148  0.2653 -2.1977
 1909SOL     MW 7636   3.766   4.845   2.298  0.3023 -0.1567 -0.1121
 1910SOL     OW 7637   0.843   3.059   1.400  0.0823 -0.3117 -0.1874
 1910SOL    HW1 7638   0.887   3.109   1.330  0.1752 -0.4786 -0.2475
 1910SOL    HW2 7639   0.827   3.124   1.468  0.7311 -0.3151 -0.0212
 1910SOL     MW 7640   0.847   3.075   1.400  0.1821 -0.3346 -0.1731
 1911SOL     OW 7641   3.896   3.413   0.862  0.1387 -0.0883  0.1381
 1911SOL    HW1 7642   3.836   3.486   0.846 -0.7366 -0.7278  0.4289
 1911SOL    HW2 7643   3.856   3.365   0.935 -0.5029 -2.1277 -1.4577
 1911SOL     MW 7644   3.883   3.416   0.870 -0.0654 -0.4488 -0.0375
 1912SOL     OW 7645   0.370   0.100   3.239  0.5303 -0.1618  0.2956
 1912SOL    HW1 7646   0.457   0.103   3.280  1.2506  0.0030 -1.1892
 1912SOL    HW2 7647   0.323   0.031   3.287  2.0392 -1.4068  0.0639
 1912SOL     MW 7648   0.376   0.091   3.251  0.8303 -0.3072  0.0646
 1913SOL     OW 7649   2.442   3.726   2.860 -0.1100 -0.1184 -0.4312
 1913SOL    HW1 7650   2.368   3.671   2.836  0.3212 -0.9311  0.0433
 1913SOL    HW2 7651   2.404   3.796   2.913 -0.4268 -1.1027  0.6834
 1913SOL     MW 7652   2.427   3.728   2.864 -0.0946 -0.3602 -0.2173
 1914SOL     OW 7653   5.424   5.197   2.090 -0.1967 -0.2405  0.3424
 1914SOL    HW1 7654   5.390   5.273   2.137  1.1108 -0.1278  1.1572
 1914SOL    HW2 7655   5.473   5.234   2.016  1.1866 -0.2214  1.2388
 1914SOL     MW 7656   5.426   5.212   2.086  0.1654 -0.2228  0.5727
 1915SOL     OW 7657   0.748   1.525   4.226  0.6383  0.3192 -0.1495
 1915SOL    HW1 7658   0.729   1.594   4.290  0.1744  0.0884 -0.0356
 1915SOL    HW2 7659   0.844   1.517   4.228  0.6882  0.8520 -0.0541
 1915SOL     MW 7660   0.759   1.533   4.235  0.5826  0.3598 -0.1214
 1916SOL     OW 7661   1.301   0.864   4.317 -0.0147 -0.7676 -0.1772
 1916SOL    HW1 7662   1.213   0.828   4.310 -0.3901  0.1338 -0.2316
 1916SOL    HW2 7663   1.356   0.804   4.267  0.0811 -3.4777  2.8723
 1916SOL     MW 7664   1.297   0.851   4.310 -0.0523 -1.0110  0.2259
 1917SOL     OW 7665   1.739   1.477   4.285  0.3701 -0.3958 -0.6815
 1917SOL    HW1 7666   1.714   1.420   4.358 -1.6338 -0.0673 -1.0313
 1917SOL    HW2 7667   1.826   1.508   4.307 -0.1055 -0.4371  1.4947
 1917SOL     MW 7668   1.747   1.473   4.297  0.0364 -0.3571 -0.4357
 1918SOL     OW 7669   2.946   2.442   0.961  0.1563 -0.1924 -0.8761
 1918SOL    HW1 7670   3.020   2.412   0.908  0.3897 -0.2993 -0.4899
 1918SOL    HW2 7671   2.946   2.537   0.950  0.2497 -0.2072 -1.0097
 1918SOL     MW 7672   2.956   2.451   0.952  0.2003 -0.2088 -0.8421
 1919SOL     OW 7673   4.282   3.605   1.717  0.5624 -0.5903  0.1284
 1919SOL    HW1 7674   4.357   3.665   1.716  1.2864 -1.4700 -0.8394
 1919SOL    HW2 7675   4.214   3.652   1.764  1.1342  0.9568 -0.5385
 1919SOL     MW 7676   4.283   3.619   1.723  0.7368 -0.5005 -0.0916
 1920SOL     OW 7677   3.209   2.557   2.711  0.2018  0.9876 -0.0120
 1920SOL    HW1 7678   3.280   2.502   2.745  1.1571  1.7533 -0.6941
 1920SOL    HW2 7679   3.148   2.494   2.672  0.4414  0.3030  0.6763
 1920SOL     MW 7680   3.210   2.541   2.710  0.3626  0.9985 -0.0112
 1921SOL     OW 7681   0.891   3.597   0.406 -0.2422  0.1489 -0.0996
 1921SOL    HW1 7682   0.971   3.553   0.436 -0.4646  0.5016  1.0473
 1921SOL    HW2 7683   0.820   3.540   0.436 -0.5067  0.9515  0.8506
 1921SOL     MW 7684   0.892   3.583   0.414 -0.3077  0.3043  0.1826
 1922SOL     OW 7685   3.303   3.368   2.768  0.2850  0.1895  0.7599
 1922SOL    HW1 7686   3.253   3.447   2.788  0.1191  0.4061 -0.4444
 1922SOL    HW2 7687   3.334   3.337   2.853 -0.3149  1.1031  1.3267
 1922SOL     MW 7688   3.300   3.374   2.782  0.1819  0.3416  0.6741
 1923SOL     OW 7689   4.069   2.642   3.824 -0.2532  0.6206  0.1516
 1923SOL    HW1 7690   4.141   2.658   3.763  1.3791 -0.5528  1.7179
 1923SOL    HW2 7691   4.057   2.547   3.825 -2.2549  0.8033 -0.5006
 1923SOL     MW 7692   4.077   2.632   3.816 -0.3029  0.4872  0.2746
 1924SOL     OW 7693   0.355   2.910   2.220 -0.4590 -0.0596 -0.4114
 1924SOL    HW1 7694   0.272   2.863   2.232 -1.1301  1.2644  0.2843
 1924SOL    HW2 7695   0.384   2.932   2.308  0.3104  0.0591 -0.6830
 1924SOL     MW 7696   0.348   2.906   2.233 -0.4458  0.1345 -0.3543
 1925SOL     OW 7697   1.216   4.827   0.983 -0.1903  0.5273 -0.3666
 1925SOL    HW1 7698   1.153   4.764   0.948 -0.4089  0.7225 -0.3241
 1925SOL    HW2 7699   1.301   4.783   0.974 -0.5008 -0.5260  1.3456
 1925SOL     MW 7700   1.219   4.812   0.977 -0.2615  0.4118 -0.1304
 1926SOL     OW 7701   4.217   2.336   2.413 -0.1797  0.6028 -0.2828
 1926SOL    HW1 7702   4.248   2.299   2.330 -2.1473  0.8197 -1.1770
 1926SOL    HW2 7703   4.184   2.260   2.462 -1.3333  0.7489 -0.7964
 1926SOL     MW 7704   4.216   2.321   2.409 -0.5997  0.6516 -0.4723
 1927SOL     OW 7705   3.296   2.153   4.884 -0.1162  0.0790 -0.3435
 1927SOL    HW1 7706   3.362   2.210   4.844 -0.2370  0.6310  0.2190
 1927SOL    HW2 7707   3.277   2.088   4.817  0.5265  0.2964 -0.7546
 1927SOL     MW 7708   3.302   2.152   4.870 -0.0460  0.1825 -0.3231
 1928SOL     OW 7709   5.262   0.402   1.113 -0.3608 -0.9031 -0.0531
 1928SOL    HW1 7710   5.240   0.382   1.022 -0.8103  0.6216 -0.3076
 1928SOL    HW2 7711   5.183   0.442   1.149  0.3528  0.0431  0.5147
 1928SOL     MW 7712   5.248   0.405   1.106 -0.3253 -0.5705 -0.0109
 1929SOL     OW 7713   4.701   1.160   1.568 -0.2205  0.1312 -0.4335
 1929SOL    HW1 7714   4.771   1.208   1.524  0.3756 -0.3945 -0.0573
 1929SOL    HW2 7715   4.635   1.227   1.586  0.2409  0.6564 -0.6614
 1929SOL     MW 7716   4.701   1.176   1.564 -0.0782  0.1312 -0.4135
 1930SOL     OW 7717   0.993   5.312   0.922 -0.3568  0.5290  0.0659
 1930SOL    HW1 7718   0.925   5.263   0.967 -0.4273 -0.9784 -1.5597
 1930SOL    HW2 7719   1.060   5.329   0.989 -0.4015 -1.6896  0.7451
 1930SOL     MW 7720   0.993   5.308   0.937 -0.3723  0.0275 -0.0614
 1931SOL     OW 7721   2.196   4.595   2.220 -0.2157  0.0290 -0.0672
 1931SOL    HW1 7722   2.155   4.636   2.144  0.7186 -1.1138 -1.2395
 1931SOL    HW2 7723   2.125   4.587   2.284 -1.1528  0.5342 -1.0099
 1931SOL     MW 7724   2.181   4.600   2.219 -0.2161 -0.0568 -0.3518
 1932SOL     OW 7725   1.331   2.781   4.060  0.2117  0.3188 -0.3833
 1932SOL    HW1 7726   1.389   2.819   3.994  2.1790  1.7956  2.0089
 1932SOL    HW2 7727   1.371   2.697   4.082 -0.1208  0.0861 -0.6577
 1932SOL     MW 7728   1.344   2.775   4.054  0.4317  0.4862 -0.0983
 1933SOL     OW 7729   1.598   0.115   2.088 -0.0464 -0.1517  0.2725
 1933SOL    HW1 7730   1.601   0.023   2.112  3.5469 -0.4769 -0.7317
 1933SOL    HW2 7731   1.610   0.162   2.170  1.6421 -0.8041  0.4492
 1933SOL     MW 7732   1.600   0.109   2.102  0.6644 -0.2833  0.1611
 1934SOL     OW 7733   0.006   0.083   1.418 -0.3234  0.3662 -0.0597
 1934SOL    HW1 7734  -0.035   0.078   1.504 -0.4174  0.1968 -0.1144
 1934SOL    HW2 7735   0.100   0.070   1.436 -0.5790 -2.2038 -0.2307
 1934SOL     MW 7736   0.013   0.081   1.432 -0.3705 -0.0025 -0.0901
 1935SOL     OW 7737   0.677   3.240   3.613  0.8112 -0.5302  0.0123
 1935SOL    HW1 7738   0.621   3.235   3.535  0.4341  0.7539  0.1720
 1935SOL    HW2 7739   0.681   3.334   3.633  3.8960 -0.4319 -0.6033
 1935SOL     MW 7740   0.670   3.252   3.605  1.1756 -0.3441 -0.0490
 1936SOL     OW 7741   4.609   1.503   0.913 -0.0179 -0.4997 -0.0846
 1936SOL    HW1 7742   4.624   1.533   0.824 -0.8810 -0.2294 -0.1479
 1936SOL    HW2 7743   4.579   1.580   0.961  1.5280 -0.3661  0.7447
 1936SOL     MW 7744   4.607   1.517   0.908  0.0740 -0.4453  0.0185
 1937SOL     OW 7745   5.354   3.190   4.841  0.4467 -0.1181 -0.0817
 1937SOL    HW1 7746   5.367   3.115   4.783 -4.0667 -0.3153 -1.2174
 1937SOL    HW2 7747   5.340   3.151   4.927 -0.8812 -0.5497 -0.4762
 1937SOL     MW 7748   5.354   3.174   4.845 -0.3394 -0.2027 -0.2877
 1938SOL     OW 7749   0.698   2.040   1.419 -0.1206  0.2092  0.7360
 1938SOL    HW1 7750   0.745   1.957   1.419  0.3136  0.4337 -0.4485
 1938SOL    HW2 7751   0.609   2.016   1.392 -0.5468 -0.1203  2.3249
 1938SOL     MW 7752   0.692   2.025   1.415 -0.1195  0.1951  0.7904
 1939SOL     OW 7753   2.906   0.787   4.760  0.0402 -0.4343 -0.4453
 1939SOL    HW1 7754   2.873   0.717   4.703 -0.0622 -1.2484  0.5905
 1939SOL    HW2 7755   2.907   0.865   4.704 -1.9113 -0.7800 -1.0183
 1939SOL     MW 7756   2.902   0.788   4.745 -0.2362 -0.5904 -0.3830
 1940SOL     OW 7757   3.709   0.296   4.868  0.1276 -0.0830 -0.9455
 1940SOL    HW1 7758   3.799   0.327   4.867  0.8684 -1.8160  1.9500
 1940SOL    HW2 7759   3.662   0.361   4.921  0.1086 -0.2252 -0.7884
 1940SOL     MW 7760   3.715   0.309   4.875  0.2248 -0.3354 -0.5347
 1941SOL     OW 7761   5.221   1.754   0.168  0.2943  0.3002 -0.4227
 1941SOL    HW1 7762   5.313   1.762   0.195  0.6702  0.1835 -1.5925
 1941SOL    HW2 7763   5.171   1.786   0.243  1.2827  0.1736  0.3122
 1941SOL     MW 7764   5.227   1.759   0.182  0.4779  0.2674 -0.4812
 1942SOL     OW 7765   2.387   1.540   5.257  0.2085  0.1963 -0.5428
 1942SOL    HW1 7766   2.412   1.619   5.305  2.4320 -1.1121  0.6308
 1942SOL    HW2 7767   2.366   1.572   5.169  0.4495  2.1575  0.0448
 1942SOL     MW 7768   2.388   1.555   5.252  0.5402  0.2842 -0.3058
 1943SOL     OW 7769   0.792   0.521   2.001  0.1927  0.1576  0.4072
 1943SOL    HW1 7770   0.850   0.483   1.936 -0.8699  0.0785 -0.5293
 1943SOL    HW2 7771   0.833   0.502   2.085  1.0133 -0.7327 -0.1821
 1943SOL     MW 7772   0.805   0.514   2.003  0.1601  0.0272  0.2019
 1944SOL     OW 7773   1.102   4.283   4.253 -0.4126 -0.5690 -0.0601
 1944SOL    HW1 7774   1.172   4.222   4.229 -0.4458 -0.2547 -0.9644
 1944SOL    HW2 7775   1.147   4.362   4.282 -0.3830 -0.6920  0.2327
 1944SOL     MW 7776   1.117   4.285   4.254 -0.4131 -0.5432 -0.1424
 1945SOL     OW 7777   3.033   4.289   4.496 -0.6990  0.4311  0.4100
 1945SOL    HW1 7778   3.024   4.204   4.453  0.1688 -0.1091  1.2757
 1945SOL    HW2 7779   3.000   4.351   4.431  0.3923 -0.3829 -0.9763
 1945SOL     MW 7780   3.027   4.286   4.481 -0.4353  0.2489  0.3399
 1946SOL     OW 7781   0.654   2.572   5.185  0.3177  0.5628  0.1387
 1946SOL    HW1 7782   0.691   2.486   5.209 -0.3040  0.3756  0.4464
 1946SOL    HW2 7783   0.679   2.629   5.258 -2.9943 -0.3873  2.2270
 1946SOL     MW 7784   0.663   2.568   5.198 -0.2117  0.4098  0.4612
 1947SOL     OW 7785   4.599   2.567   2.653 -0.2496  0.0419  0.8525
 1947SOL    HW1 7786   4.565   2.524   2.731 -1.0493  0.4705  0.7503
 1947SOL    HW2 7787   4.547   2.532   2.581  0.5714 -0.4518  0.4781
 1947SOL     MW 7788   4.587   2.557   2.654 -0.2467  0.0331  0.7884
 1948SOL     OW 7789   3.845   4.481   0.488  0.3558 -0.1285 -0.4474
 1948SOL    HW1 7790   3.817   4.490   0.579  0.0749 -1.7388 -0.3384
 1948SOL    HW2 7791   3.812   4.559   0.444 -1.6491 -0.4815  0.3316
 1948SOL     MW 7792   3.837   4.493   0.494  0.0482 -0.3927 -0.3279
 1949SOL     OW 7793   4.419   0.824   4.968 -0.1722  0.2044  0.1147
 1949SOL    HW1 7794   4.476   0.901   4.971  1.4289 -0.8467 -1.4498
 1949SOL    HW2 7795   4.458   0.762   5.029  0.9689 -0.8574 -1.6128
 1949SOL     MW 7796   4.432   0.826   4.977  0.1969 -0.0799 -0.3283
 1950SOL     OW 7797   5.022   5.206   3.768 -0.6127 -0.0693  0.1148
 1950SOL    HW1 7798   5.056   5.187   3.681  0.4206 -1.9117  0.8513
 1950SOL    HW2 7799   5.019   5.120   3.811 -1.3683  0.7575  1.7908
 1950SOL     MW 7800   5.026   5.192   3.762 -0.5753 -0.2060  0.4395
 1951SOL     OW 7801   4.945   0.150   1.689  0.0085  0.3668  0.5823
 1951SOL    HW1 7802   4.884   0.220   1.666 -1.7792 -1.4758 -0.5923
 1951SOL    HW2 7803   5.031   0.189   1.674 -0.9379  1.8795 -1.4694
 1951SOL     MW 7804   4.948   0.165   1.684 -0.3595  0.3224  0.1481
 1952SOL     OW 7805   0.875   4.051   2.447  0.4140 -0.2313  0.2483
 1952SOL    HW1 7806   0.903   4.104   2.372  0.9420 -0.6616  0.1302
 1952SOL    HW2 7807   0.920   3.967   2.435 -0.3804 -0.6986  0.4528
 1952SOL     MW 7808   0.885   4.047   2.435  0.3782 -0.3521  0.2600
 1953SOL     OW 7809   5.180   1.745   5.259  0.3553 -0.2241 -0.3584
 1953SOL    HW1 7810   5.162   1.775   5.170 -1.9370  1.1330  0.4627
 1953SOL    HW2 7811   5.102   1.695   5.283  1.6357 -1.9713  0.3691
 1953SOL     MW 7812   5.167   1.743   5.250  0.2191 -0.2766 -0.1500
 1954SOL     OW 7813   5.029   4.564   4.298 -0.2056 -0.0924  0.1033
 1954SOL    HW1 7814   5.028   4.524   4.386 -2.1306  1.7200  0.9909
 1954SOL    HW2 7815   4.962   4.515   4.249 -0.0629 -0.2505  0.0668
 1954SOL     MW 7816   5.019   4.552   4.304 -0.4454  0.1302  0.2178
 1955SOL     OW 7817   3.862   5.335   1.329 -0.2946 -0.1392 -0.2152
 1955SOL    HW1 7818   3.855   5.321   1.423  1.2415  1.3944  0.1872
 1955SOL    HW2 7819   3.956   5.338   1.312 -0.5493 -0.0671 -1.7420
 1955SOL     MW 7820   3.874   5.334   1.339 -0.1221  0.0769 -0.3665
 1956SOL     OW 7821   4.593   1.993   3.521  0.5506  0.1496  0.1809
 1956SOL    HW1 7822   4.579   2.085   3.498  0.4286  0.0088 -0.3226
 1956SOL    HW2 7823   4.532   1.945   3.465  0.6471 -0.2431  0.4070
 1956SOL     MW 7824   4.583   1.999   3.510  0.5472  0.0778  0.1435
 1957SOL     OW 7825   0.617   5.324   0.947  0.1957 -0.3979  0.1918
 1957SOL    HW1 7826   0.534   5.283   0.920  1.2000 -2.2845 -0.2094
 1957SOL    HW2 7827   0.669   5.328   0.867  0.2060  1.6043  0.2556
 1957SOL     MW 7828   0.613   5.319   0.932  0.3322 -0.3824  0.1464
 1958SOL     OW 7829   1.927   3.906   3.898  0.0618 -0.0497 -0.1406
 1958SOL    HW1 7830   1.834   3.929   3.900 -0.1673 -0.9722  0.4829
 1958SOL    HW2 7831   1.971   3.975   3.948  0.0104  1.5574 -2.1795
 1958SOL     MW 7832   1.920   3.918   3.905  0.0240  0.0424 -0.3311
 1959SOL     OW 7833   4.451   3.528   2.784 -0.5713  0.2042  0.6489
 1959SOL    HW1 7834   4.462   3.612   2.829 -1.4475  0.8453 -0.2794
 1959SOL    HW2 7835   4.386   3.546   2.716 -0.1762 -1.0309 -0.0890
 1959SOL     MW 7836   4.444   3.542   2.780 -0.6360  0.1242  0.4246
 1960SOL     OW 7837   5.084   5.264   1.941  0.1367 -0.0253  0.6042
 1960SOL    HW1 7838   5.139   5.343   1.943  0.7725 -0.4709  0.9511
 1960SOL    HW2 7839   4.995   5.298   1.938  0.4155  0.7131  0.2156
 1960SOL     MW 7840   5.079   5.279   1.941  0.2598  0.0141  0.5986
 1961SOL     OW 7841   1.650   0.332   0.673 -0.0858  0.1129  0.3960
 1961SOL    HW1 7842   1.668   0.420   0.706 -1.3114  0.1125  1.1276
 1961SOL    HW2 7843   1.635   0.279   0.752 -0.6876 -0.4412 -0.0746
 1961SOL     MW 7844   1.651   0.337   0.688 -0.3318  0.0383  0.4311
 1962SOL     OW 7845   5.102   3.283   1.779 -0.3712 -0.0388  0.3162
 1962SOL    HW1 7846   5.190   3.300   1.813 -0.5594 -1.2218  1.4947
 1962SOL    HW2 7847   5.090   3.347   1.710  2.0581 -0.9051 -1.0303
 1962SOL     MW 7848   5.112   3.294   1.775 -0.0696 -0.3146  0.2936
 1963SOL     OW 7849   0.971   1.746   0.562  0.8666  1.1692 -0.4939
 1963SOL    HW1 7850   0.941   1.678   0.502  0.1557 -0.3167  1.4193
 1963SOL    HW2 7851   1.006   1.815   0.506  0.3740 -0.1899 -2.5660
 1963SOL     MW 7852   0.972   1.746   0.547  0.7046  0.7863 -0.5153
 1964SOL     OW 7853   3.575   0.478   0.475 -0.1493  0.0370  0.0288
 1964SOL    HW1 7854   3.631   0.471   0.553 -0.8282  0.4847  0.5705
 1964SOL    HW2 7855   3.634   0.510   0.407  0.3877 -0.0428  0.4442
 1964SOL     MW 7856   3.590   0.482   0.476 -0.1684  0.0865  0.1576
 1965SOL     OW 7857   5.427   0.357   5.435  0.4619  0.6115 -0.2344
 1965SOL    HW1 7858   5.519   0.377   5.418  0.4066  1.2813  0.2101
 1965SOL    HW2 7859   5.423   0.262   5.437  1.5497  0.5513  1.8108
 1965SOL     MW 7860   5.439   0.347   5.433  0.6009  0.6936  0.1006
 1966SOL     OW 7861   3.522   0.121   1.396  0.0316 -0.3291  0.2490
 1966SOL    HW1 7862   3.453   0.056   1.382  0.4958 -0.4736 -1.6351
 1966SOL    HW2 7863   3.534   0.124   1.491 -1.5838 -1.3164  0.5115
 1966SOL     MW 7864   3.515   0.113   1.407 -0.1233 -0.4814  0.0308
 1967SOL     OW 7865   2.011   5.241   0.348  0.2449 -0.0247 -0.4345
 1967SOL    HW1 7866   1.942   5.257   0.413  2.8978 -0.6426  2.8341
 1967SOL    HW2 7867   2.065   5.320   0.350  0.7503 -0.3249 -1.4555
 1967SOL     MW 7868   2.009   5.254   0.357  0.6699 -0.1482 -0.1320
 1968SOL     OW 7869   4.773   2.271   4.647  0.2195  0.5612  0.0167
 1968SOL    HW1 7870   4.807   2.243   4.562 -0.6655  0.6778 -0.3825
 1968SOL    HW2 7871   4.736   2.191   4.685  0.5990  0.5129  0.2889
 1968SOL     MW 7872   4.773   2.257   4.641  0.1515  0.5704 -0.0004
 1969SOL     OW 7873   1.362   0.975   1.473  0.6462 -0.7170 -0.2941
 1969SOL    HW1 7874   1.399   1.031   1.405  0.0145  0.6977  0.4989
 1969SOL    HW2 7875   1.433   0.961   1.535  0.8139 -0.8281 -0.5113
 1969SOL     MW 7876   1.376   0.981   1.472  0.5837 -0.5416 -0.2166
 1970SOL     OW 7877   3.481   4.090   3.758  0.0620  0.2645  0.2111
 1970SOL    HW1 7878   3.429   4.039   3.697  1.2700 -1.1686  0.3152
 1970SOL    HW2 7879   3.491   4.032   3.834  1.9914  0.3680  0.0809
 1970SOL     MW 7880   3.475   4.075   3.760  0.4842  0.0856  0.2076
 1971SOL     OW 7881   4.753   2.903   4.616  0.3173 -0.2234 -0.0145
 1971SOL    HW1 7882   4.776   2.830   4.558 -0.0348  0.9329 -1.6781
 1971SOL    HW2 7883   4.836   2.929   4.656  0.5933 -0.9470 -0.0941
 1971SOL     MW 7884   4.767   2.897   4.614  0.3071 -0.1651 -0.2491
 1972SOL     OW 7885   4.662   0.408   3.311  0.5306 -0.2800 -0.0314
 1972SOL    HW1 7886   4.607   0.366   3.245 -1.3768  1.5801  0.2579
 1972SOL    HW2 7887   4.626   0.380   3.395  0.1413  0.7346  0.1633
 1972SOL     MW 7888   4.650   0.399   3.313  0.2216  0.1068  0.0337
 1973SOL     OW 7889   5.105   0.967   2.142 -0.5077 -0.1189 -0.2319
 1973SOL    HW1 7890   5.051   0.891   2.166 -0.2051 -0.8025 -1.6405
 1973SOL    HW2 7891   5.041   1.035   2.121 -0.8051 -0.3395 -0.0505
 1973SOL     MW 7892   5.089   0.966   2.142 -0.5070 -0.2406 -0.3971
 1974SOL     OW 7893   2.729   5.008   4.848 -0.0847  0.5871  0.1328
 1974SOL    HW1 7894   2.734   4.945   4.920  1.4066  0.2196 -0.2528
 1974SOL    HW2 7895   2.665   4.970   4.788  0.4954 -0.3803  0.1037
 1974SOL     MW 7896   2.721   4.994   4.849  0.1941  0.4074  0.0770
 1975SOL     OW 7897   0.892   4.179   4.454  0.2996  0.1633 -1.0210
 1975SOL    HW1 7898   0.928   4.154   4.539 -0.3303 -1.9832 -1.3218
 1975SOL    HW2 7899   0.968   4.212   4.405  1.0122 -0.2225 -0.2105
 1975SOL     MW 7900   0.907   4.180   4.459  0.3107 -0.1775 -0.9524
 1976SOL     OW 7901   4.400   5.148   3.357  0.1268  0.2893  0.3626
 1976SOL    HW1 7902   4.492   5.126   3.372  0.0018 -0.5433 -0.0129
 1976SOL    HW2 7903   4.377   5.207   3.429  1.0335  0.7646  0.2815
 1976SOL     MW 7904   4.409   5.153   3.368  0.2320  0.2412  0.3011
 1977SOL     OW 7905   0.616   3.144   3.349 -0.1690 -0.6071 -0.7029
 1977SOL    HW1 7906   0.583   3.118   3.263  2.1738 -1.5203 -1.4051
 1977SOL    HW2 7907   0.711   3.138   3.341  0.1757  0.6566  1.5545
 1977SOL     MW 7908   0.624   3.140   3.337  0.1927 -0.5600 -0.4936
 1978SOL     OW 7909   3.302   4.531   4.259 -0.2630 -0.8915  0.3988
 1978SOL    HW1 7910   3.283   4.513   4.167 -1.3860  0.6533  0.2856
 1978SOL    HW2 7911   3.321   4.625   4.261  0.8725 -1.1133  1.5900
 1978SOL     MW 7912   3.302   4.541   4.247 -0.2613 -0.7134  0.5439
 1979SOL     OW 7913   4.805   3.492   0.956 -0.0782 -0.0144 -0.2982
 1979SOL    HW1 7914   4.845   3.568   0.915 -0.9961  0.5859 -0.1124
 1979SOL    HW2 7915   4.716   3.520   0.977  0.7109  0.1971  3.3905
 1979SOL     MW 7916   4.798   3.506   0.953 -0.0955  0.0948  0.2232
 1980SOL     OW 7917   0.693   2.709   4.349  0.1435  0.0602 -0.0167
 1980SOL    HW1 7918   0.766   2.667   4.302  0.1975  0.6868 -0.5094
 1980SOL    HW2 7919   0.633   2.735   4.280 -1.2274 -1.6391  0.4614
 1980SOL     MW 7920   0.695   2.707   4.334 -0.0337 -0.0841 -0.0187
 1981SOL     OW 7921   2.891   4.296   1.679  0.4277 -0.5621 -0.9310
 1981SOL    HW1 7922   2.980   4.276   1.708  0.3759  0.6318  0.1926
 1981SOL    HW2 7923   2.838   4.223   1.711  0.8706 -0.8249 -0.7968
 1981SOL     MW 7924   2.896   4.284   1.687  0.4804 -0.4368 -0.7617
 1982SOL     OW 7925   3.975   0.625   0.947 -0.1381 -0.1635 -0.5286
 1982SOL    HW1 7926   3.908   0.557   0.951  0.7160 -0.9875  2.1849
 1982SOL    HW2 7927   3.927   0.706   0.927 -1.6061 -1.0731 -0.8045
 1982SOL     MW 7928   3.960   0.627   0.945 -0.2207 -0.3968 -0.2006
 1983SOL     OW 7929   3.414   0.613   4.248  0.1484  0.0887 -0.3789
 1983SOL    HW1 7930   3.421   0.552   4.321  0.6434  1.6749  0.9466
 1983SOL    HW2 7931   3.380   0.560   4.176  1.9973 -2.0999  0.2542
 1983SOL     MW 7932   3.410   0.598   4.248  0.4638  0.0076 -0.1153
 1984SOL     OW 7933   0.969   2.708   2.735  0.2169  0.2536 -0.0855
 1984SOL    HW1 7934   1.013   2.644   2.791 -0.4227  1.4587  1.8824
 1984SOL    HW2 7935   0.876   2.686   2.743  0.1432  0.1122 -1.1503
 1984SOL     MW 7936   0.962   2.696   2.743  0.1209  0.3967  0.0361
 1985SOL     OW 7937   1.632   2.490   0.783  0.2020 -0.0375 -0.0877
 1985SOL    HW1 7938   1.537   2.479   0.778  0.2195 -0.6044  0.6611
 1985SOL    HW2 7939   1.645   2.560   0.846  0.2257  1.6901 -1.9324
 1985SOL     MW 7940   1.621   2.498   0.791  0.2075  0.1187 -0.2352
 1986SOL     OW 7941   3.927   4.398   2.798 -0.5591  0.5119 -0.2215
 1986SOL    HW1 7942   4.018   4.394   2.829  0.0318  0.3861 -1.8989
 1986SOL    HW2 7943   3.893   4.310   2.811 -0.2408  0.3941 -0.1891
 1986SOL     MW 7944   3.935   4.386   2.804 -0.4367  0.4791 -0.4429
 1987SOL     OW 7945   4.342   0.931   0.373  0.3010 -0.0963 -0.2548
 1987SOL    HW1 7946   4.249   0.944   0.389 -0.3513 -2.1398 -1.9578
 1987SOL    HW2 7947   4.361   0.845   0.410  1.2235 -0.1810 -0.8882
 1987SOL     MW 7948   4.332   0.921   0.380  0.3374 -0.3827 -0.5692
 1988SOL     OW 7949   1.699   3.994   4.002 -0.2265 -0.3183  0.3414
 1988SOL    HW1 7950   1.707   4.089   4.008  3.1010 -0.4047 -1.0924
 1988SOL    HW2 7951   1.625   3.973   4.060 -0.7852  3.0539  1.0457
 1988SOL     MW 7952   1.690   4.004   4.011  0.1461  0.1239  0.2432
 1989SOL     OW 7953   1.330   5.379   3.285 -0.6493  0.1204  0.2044
 1989SOL    HW1 7954   1.420   5.348   3.288 -0.1166  1.3680 -1.2554
 1989SOL    HW2 7955   1.277   5.299   3.288  0.5563 -0.7406 -0.3608
 1989SOL     MW 7956   1.335   5.364   3.286 -0.4154  0.1725 -0.0681
 1990SOL     OW 7957   2.277   3.242   4.789  0.5705 -0.3195  0.6188
 1990SOL    HW1 7958   2.360   3.221   4.746  0.0794 -2.2262  0.4924
 1990SOL    HW2 7959   2.230   3.294   4.724  0.8916 -0.9311 -0.1306
 1990SOL     MW 7960   2.282   3.246   4.774  0.5476 -0.6584  0.5010
 1991SOL     OW 7961   1.765   1.914   5.367 -0.0046 -0.3659  0.1440
 1991SOL    HW1 7962   1.681   1.870   5.362  0.5595 -1.3828 -0.7832
 1991SOL    HW2 7963   1.745   2.007   5.357 -1.1606 -0.4260  1.5801
 1991SOL     MW 7964   1.751   1.921   5.365 -0.0843 -0.5108  0.2125
 1992SOL     OW 7965   5.154   1.524   2.423 -0.0481 -0.7361 -0.2362
 1992SOL    HW1 7966   5.211   1.580   2.369  0.3543 -0.8299  0.0834
 1992SOL    HW2 7967   5.074   1.515   2.372 -0.0504 -0.0019 -0.3667
 1992SOL     MW 7968   5.151   1.530   2.409  0.0057 -0.6499 -0.2107
 1993SOL     OW 7969   4.231   1.716   4.963 -0.1921  0.4245  0.0518
 1993SOL    HW1 7970   4.297   1.654   4.934  0.1995  1.3478 -1.1136
 1993SOL    HW2 7971   4.148   1.678   4.934  0.1493  1.0837 -1.9506
 1993SOL     MW 7972   4.228   1.703   4.955 -0.0934  0.6375 -0.3745
 1994SOL     OW 7973   2.131   3.233   5.408  0.2726 -0.1219  0.3989
 1994SOL    HW1 7974   2.055   3.220   5.464 -0.9107 -0.6381 -1.2529
 1994SOL    HW2 7975   2.124   3.324   5.380  0.1181 -0.2464  0.0349
 1994SOL     MW 7976   2.120   3.244   5.412  0.0926 -0.2081  0.1276
 1995SOL     OW 7977   1.873   1.384   5.162 -0.0054  0.1486 -0.2599
 1995SOL    HW1 7978   1.958   1.341   5.170 -1.2223 -2.4228 -0.1920
 1995SOL    HW2 7979   1.814   1.315   5.133 -2.4990  1.3127  1.6813
 1995SOL     MW 7980   1.876   1.369   5.160 -0.5047 -0.0408  0.0105
 1996SOL     OW 7981   1.672   0.589   0.779  0.7821 -0.8123  0.4975
 1996SOL    HW1 7982   1.754   0.567   0.823  0.5150 -0.9706  0.9209
 1996SOL    HW2 7983   1.604   0.574   0.845  0.4901  0.1796  0.4387
 1996SOL     MW 7984   1.674   0.584   0.794  0.7069 -0.7001  0.5465
 1997SOL     OW 7985   3.533   2.917   5.091  0.1050  0.3388 -0.6505
 1997SOL    HW1 7986   3.528   2.892   4.998  3.3554 -1.9339 -0.3989
 1997SOL    HW2 7987   3.449   2.890   5.128  0.1593 -2.3688 -2.2465
 1997SOL     MW 7988   3.521   2.910   5.083  0.5497 -0.3315 -0.8314
 1998SOL     OW 7989  -0.014   3.962   1.872  0.3149  0.0018  0.2552
 1998SOL    HW1 7990  -0.045   4.051   1.890  2.4367  1.1809 -1.4210
 1998SOL    HW2 7991   0.069   3.956   1.920 -0.9660 -2.0855  2.4344
 1998SOL     MW 7992  -0.007   3.973   1.881  0.4280 -0.1204  0.3229
 1999SOL     OW 7993   1.472   3.623   3.393  0.2107  0.2406 -0.4831
 1999SOL    HW1 7994   1.402   3.621   3.328 -0.1278 -0.4129 -0.1143
 1999SOL    HW2 7995   1.444   3.688   3.457  0.5559  0.9011 -0.9998
 1999SOL     MW 7996   1.459   3.631   3.393  0.2116  0.2415 -0.5030
 2000SOL     OW 7997   3.963   1.198   1.834 -0.0288  0.4542  0.0522
 2000SOL    HW1 7998   3.868   1.187   1.844  0.0421 -0.3840 -0.1304
 2000SOL    HW2 7999   3.995   1.110   1.814  0.8124  0.7032  0.2853
 2000SOL     MW 8000   3.955   1.185   1.832  0.0939  0.3749  0.0590
 2001SOL     OW 8001   1.299   3.434   3.012  0.3258 -0.1723 -0.5162
 2001SOL    HW1 8002   1.360   3.371   2.975 -0.2294 -0.9548 -0.1246
 2001SOL    HW2 8003   1.219   3.422   2.962  0.3495  0.5435 -0.7353
 2001SOL     MW 8004   1.297   3.424   3.000  0.2543 -0.1813 -0.4930
 2002SOL     OW 8005   2.923   1.794   0.511 -0.0949  0.1087 -0.0842
 2002SOL    HW1 8006   3.010   1.756   0.526  0.6531  1.9421  0.4780
 2002SOL    HW2 8007   2.917   1.804   0.416  1.6367  2.7706 -0.0095
 2002SOL     MW 8008   2.934   1.790   0.500  0.2388  0.7136  0.0015
 2003SOL     OW 8009   4.235   3.597   3.608  0.0590  0.2950 -0.6006
 2003SOL    HW1 8010   4.147   3.589   3.646  0.5344  0.7897  0.6462
 2003SOL    HW2 8011   4.282   3.656   3.667  1.5457 -0.7648 -0.6510
 2003SOL     MW 8012   4.230   3.604   3.621  0.3231  0.2189 -0.4396
 2004SOL     OW 8013   2.432   0.803   0.809  0.2532 -0.2326 -0.0357
 2004SOL    HW1 8014   2.503   0.861   0.780 -0.5552  0.5276 -0.5621
 2004SOL    HW2 8015   2.450   0.789   0.902  0.9906  0.0996 -0.1155
 2004SOL     MW 8016   2.444   0.809   0.818  0.2437 -0.0856 -0.1173
 2005SOL     OW 8017   2.339   2.659   3.931 -0.1725 -0.1828  0.2102
 2005SOL    HW1 8018   2.332   2.754   3.918  1.9611 -0.0775 -0.6201
 2005SOL    HW2 8019   2.365   2.648   4.022 -0.8042  0.0052  0.4128
 2005SOL     MW 8020   2.342   2.670   3.941  0.0296 -0.1433  0.1257
 2006SOL     OW 8021   0.091   2.198   5.116  0.0422  0.0077 -0.3257
 2006SOL    HW1 8022   0.120   2.251   5.190 -0.4338 -0.1983  0.0164
 2006SOL    HW2 8023   0.037   2.129   5.156 -0.0903 -0.1928 -0.8476
 2006SOL     MW 8024   0.087   2.196   5.132 -0.0397 -0.0470 -0.3499
 2007SOL     OW 8025   0.070   2.452   4.185 -0.4791  0.3351  0.1221
 2007SOL    HW1 8026   0.145   2.394   4.170 -1.0010 -0.4206  0.3819
 2007SOL    HW2 8027   0.109   2.539   4.195  0.2557  0.1784 -1.0830
 2007SOL     MW 8028   0.086   2.456   4.184 -0.4505  0.2123 -0.0052
 2008SOL     OW 8029   2.408   3.837   3.701 -0.1268 -0.0588 -0.0416
 2008SOL    HW1 8030   2.455   3.758   3.674  0.4094  0.7092 -1.4930
 2008SOL    HW2 8031   2.426   3.845   3.795  1.0932 -0.8179 -0.1850
 2008SOL     MW 8032   2.417   3.828   3.710  0.1095 -0.0576 -0.2562
 2009SOL     OW 8033   3.120   1.991   5.179  0.2639  0.6019 -0.1240
 2009SOL    HW1 8034   3.209   2.018   5.157  0.2018 -0.8108 -2.5255
 2009SOL    HW2 8035   3.132   1.911   5.230  0.3721  0.9405  0.3859
 2009SOL     MW 8036   3.134   1.984   5.183  0.2701  0.4574 -0.3786
 2010SOL     OW 8037   0.720   2.827   4.601  0.9728  0.3945  0.0604
 2010SOL    HW1 8038   0.685   2.761   4.661 -0.3996  0.7767 -0.2938
 2010SOL    HW2 8039   0.703   2.792   4.514 -0.6165  1.5782 -0.1584
 2010SOL     MW 8040   0.713   2.813   4.597  0.5742  0.6053 -0.0167
 2011SOL     OW 8041   5.334   1.805   2.990  0.3246 -0.1805 -0.5898
 2011SOL    HW1 8042   5.428   1.788   2.985  0.3800 -0.7511  1.6208
 2011SOL    HW2 8043   5.294   1.736   2.938  1.0671 -0.7247 -0.4486
 2011SOL     MW 8044   5.341   1.793   2.982  0.4320 -0.3305 -0.2733
 2012SOL     OW 8045   5.429   4.766   1.683 -0.5404  0.2119 -0.2036
 2012SOL    HW1 8046   5.398   4.781   1.772 -0.3093 -2.2528  0.3619
 2012SOL    HW2 8047   5.355   4.727   1.637  0.0408 -0.7789 -0.3524
 2012SOL     MW 8048   5.415   4.763   1.688 -0.4311 -0.2531 -0.1475
 2013SOL     OW 8049   4.374   3.264   2.780  0.2953 -0.0611 -0.6817
 2013SOL    HW1 8050   4.278   3.266   2.781  0.2807 -0.5372 -0.7797
 2013SOL    HW2 8051   4.400   3.355   2.796 -0.1801  0.2593 -1.6549
 2013SOL     MW 8052   4.364   3.277   2.782  0.2294 -0.0820 -0.8259
 2014SOL     OW 8053   0.028   1.161   4.545 -0.1502 -0.1349 -0.1062
 2014SOL    HW1 8054  -0.026   1.082   4.538 -0.3577  0.0897 -1.3564
 2014SOL    HW2 8055   0.112   1.136   4.505 -0.0603  0.1330 -0.0853
 2014SOL     MW 8056   0.032   1.147   4.538 -0.1660 -0.0686 -0.2716
 2015SOL     OW 8057   2.028   1.770   3.942  0.4655 -0.0243  0.3683
 2015SOL    HW1 8058   2.017   1.863   3.961 -1.4750  0.0700 -0.8878
 2015SOL    HW2 8059   1.939   1.735   3.945  1.0157 -1.5808 -0.4600
 2015SOL     MW 8060   2.014   1.778   3.945  0.2784 -0.2211  0.0878
 2016SOL     OW 8061   4.961   2.749   0.109  0.0292 -0.2485 -0.1928
 2016SOL    HW1 8062   5.027   2.700   0.159 -0.6351 -1.9374 -0.8956
 2016SOL    HW2 8063   4.974   2.721   0.019 -1.8961 -0.9254 -0.2938
 2016SOL     MW 8064   4.972   2.739   0.104 -0.3193 -0.5669 -0.3010
 2017SOL     OW 8065   1.875   4.409   4.087  0.1776  0.0246 -0.2372
 2017SOL    HW1 8066   1.809   4.358   4.039  0.2265 -0.3527  0.0896
 2017SOL    HW2 8067   1.828   4.445   4.162  0.2908 -0.0681 -0.1203
 2017SOL     MW 8068   1.860   4.407   4.091  0.1994 -0.0387 -0.1775
 2018SOL     OW 8069   2.563   4.939   0.047  0.0263  0.6557 -0.2956
 2018SOL    HW1 8070   2.561   4.936  -0.048 -1.3678 -1.3319 -0.2825
 2018SOL    HW2 8071   2.477   4.973   0.072 -0.2152 -0.3159  0.2438
 2018SOL     MW 8072   2.551   4.943   0.038 -0.1938  0.2574 -0.2212
 2019SOL     OW 8073   1.273   4.479   4.601  0.2265  0.0336 -0.0108
 2019SOL    HW1 8074   1.317   4.526   4.672 -2.7099  1.1815  1.2531
 2019SOL    HW2 8075   1.187   4.457   4.637  0.1630 -3.3019 -1.8017
 2019SOL     MW 8076   1.267   4.483   4.615 -0.1772 -0.2608 -0.0817
 2020SOL     OW 8077   2.474   3.764   2.023 -0.8240  0.0213 -0.4534
 2020SOL    HW1 8078   2.454   3.743   2.114  0.5189  0.3691 -0.0572
 2020SOL    HW2 8079   2.404   3.824   1.996 -0.6843  0.7088  0.6662
 2020SOL     MW 8080   2.462   3.769   2.032 -0.6245  0.1606 -0.2494
 2021SOL     OW 8081   2.847   0.545   4.614  0.7011  0.4283 -0.2645
 2021SOL    HW1 8082   2.896   0.565   4.534  0.4520  1.0678 -0.2651
 2021SOL    HW2 8083   2.756   0.563   4.592  0.5335 -0.1711 -0.0757
 2021SOL     MW 8084   2.842   0.550   4.600  0.6450  0.4337 -0.2391
 2022SOL     OW 8085   4.976   1.753   1.694  0.1125 -0.1720  0.6811
 2022SOL    HW1 8086   5.021   1.700   1.760  0.0948 -1.6520 -0.4234
 2022SOL    HW2 8087   5.044   1.775   1.630 -0.1703 -0.0838  0.4060
 2022SOL     MW 8088   4.991   1.749   1.694  0.0721 -0.3593  0.4954
 2023SOL     OW 8089   2.514   1.512   2.673 -0.0912 -0.4505 -0.4935
 2023SOL    HW1 8090   2.517   1.607   2.683 -0.1576 -0.3934 -1.0124
 2023SOL    HW2 8091   2.429   1.494   2.634 -0.1680 -0.7444 -0.2004
 2023SOL     MW 8092   2.503   1.522   2.669 -0.1104 -0.4824 -0.5239
 2024SOL     OW 8093   2.856   4.574   1.635  0.1636 -0.2357 -0.3301
 2024SOL    HW1 8094   2.876   4.482   1.649 -1.2198 -0.6077 -0.6349
 2024SOL    HW2 8095   2.937   4.612   1.603  0.6674 -1.4142 -0.4905
 2024SOL     MW 8096   2.869   4.567   1.633  0.0452 -0.4443 -0.3927
 2025SOL     OW 8097   4.636   0.865   2.019  0.2854  0.3041 -0.0640
 2025SOL    HW1 8098   4.668   0.830   2.102  0.8791 -0.4039 -0.5812
 2025SOL    HW2 8099   4.690   0.942   2.003  0.4112  0.2360  0.0328
 2025SOL     MW 8100   4.647   0.870   2.028  0.3822  0.1997 -0.1206
 2026SOL     OW 8101   3.989   0.682   0.584 -0.1887  0.1206  0.5984
 2026SOL    HW1 8102   4.003   0.767   0.542  0.4585 -0.3307 -0.1218
 2026SOL    HW2 8103   4.065   0.670   0.641 -0.0976 -0.1392  0.4235
 2026SOL     MW 8104   4.001   0.692   0.586 -0.0893  0.0249  0.4779
 2027SOL     OW 8105   5.368   2.040   0.490  0.1808 -0.2054  0.1144
 2027SOL    HW1 8106   5.329   2.096   0.558 -1.5902 -1.4125  0.1468
 2027SOL    HW2 8107   5.354   2.088   0.408  1.6932  0.9240  0.4629
 2027SOL     MW 8108   5.361   2.054   0.488  0.1460 -0.2158  0.1656
 2028SOL     OW 8109   5.093   3.078   5.108  0.1424 -0.2428 -0.1654
 2028SOL    HW1 8110   5.080   3.065   5.202  2.0655 -0.8700  0.0547
 2028SOL    HW2 8111   5.188   3.078   5.097 -0.0341  0.5182 -2.0319
 2028SOL     MW 8112   5.104   3.076   5.119  0.3775 -0.2248 -0.3870
 2029SOL     OW 8113   5.066   3.889   1.507  0.1511 -0.0766  0.4337
 2029SOL    HW1 8114   5.067   3.977   1.544 -0.8846 -0.1086  0.5616
 2029SOL    HW2 8115   5.086   3.832   1.581 -0.2447 -0.0245  0.5805
 2029SOL     MW 8116   5.069   3.893   1.522 -0.0416 -0.0739  0.4707
 2030SOL     OW 8117   2.164   0.228   4.979  0.7071 -0.9480 -0.0349
 2030SOL    HW1 8118   2.091   0.183   4.938  0.4636 -1.8614  1.3317
 2030SOL    HW2 8119   2.233   0.230   4.912 -0.8655  0.8540 -1.7134
 2030SOL     MW 8120   2.164   0.222   4.965  0.4627 -0.8284 -0.0769
 2031SOL     OW 8121   0.223   2.677   4.256  0.2841  0.1881 -0.0333
 2031SOL    HW1 8122   0.297   2.702   4.200 -0.2372  0.7305 -0.4880
 2031SOL    HW2 8123   0.147   2.721   4.218 -0.7721 -2.3608 -1.1028
 2031SOL     MW 8124   0.223   2.686   4.243  0.0718 -0.0819 -0.2384
 2032SOL     OW 8125   3.083   0.480   2.324  0.0425  0.5849  0.1868
 2032SOL    HW1 8126   3.075   0.386   2.308 -0.4354  0.8347 -1.1254
 2032SOL    HW2 8127   3.050   0.491   2.414 -0.6563 -0.3913  0.0707
 2032SOL     MW 8128   3.077   0.469   2.334 -0.1159  0.4872 -0.0054
 2033SOL     OW 8129   0.344   3.775   1.041  0.1494 -0.0342  0.5128
 2033SOL    HW1 8130   0.256   3.799   1.011  1.2407  0.9508 -2.2651
 2033SOL    HW2 8131   0.365   3.840   1.107  0.0363  1.9891 -1.3159
 2033SOL     MW 8132   0.335   3.787   1.046  0.2810  0.3707 -0.1072
 2034SOL     OW 8133   3.004   3.138   4.604 -0.1532  0.6562  0.5930
 2034SOL    HW1 8134   2.950   3.213   4.580  0.2028  0.5138 -0.7769
 2034SOL    HW2 8135   2.967   3.106   4.686 -3.0739 -0.3019 -0.9682
 2034SOL     MW 8136   2.992   3.144   4.611 -0.4983  0.5081  0.1985
 2035SOL     OW 8137   0.170   4.740   0.651  0.1374  0.0869  0.6405
 2035SOL    HW1 8138   0.184   4.651   0.681 -1.4326 -0.8613 -1.1951
 2035SOL    HW2 8139   0.147   4.731   0.558 -0.6565  2.3491  0.5424
 2035SOL     MW 8140   0.169   4.727   0.642 -0.1807  0.2637  0.3802
 2036SOL     OW 8141   2.490   2.346   4.591 -0.4496 -0.2501  0.1470
 2036SOL    HW1 8142   2.520   2.263   4.555 -0.7101 -0.7094  0.9773
 2036SOL    HW2 8143   2.570   2.390   4.621 -0.4920 -1.1393  1.6536
 2036SOL     MW 8144   2.505   2.341   4.590 -0.4903 -0.4316  0.4615
 2037SOL     OW 8145   0.040   3.151   4.226  0.0188  0.1425 -0.4403
 2037SOL    HW1 8146   0.047   3.246   4.241 -0.5460  0.4340 -1.8515
 2037SOL    HW2 8147   0.117   3.130   4.172  1.3840 -0.6570  1.7083
 2037SOL     MW 8148   0.051   3.161   4.220  0.1265  0.0741 -0.3411
 2038SOL     OW 8149   2.310   5.490   4.459  0.0700  0.9113  0.2807
 2038SOL    HW1 8150   2.278   5.420   4.516 -0.0910  0.1076 -0.7750
 2038SOL    HW2 8151   2.257   5.484   4.380  0.9856  1.3374 -0.3860
 2038SOL     MW 8152   2.299   5.480   4.456  0.1715  0.8604  0.0489
 2039SOL     OW 8153   0.831   3.662   5.059  0.1724 -0.1697  0.3141
 2039SOL    HW1 8154   0.750   3.708   5.038 -1.1816 -2.3115  0.5597
 2039SOL    HW2 8155   0.818   3.630   5.148  1.2351 -0.6760  0.2953
 2039SOL     MW 8156   0.818   3.664   5.068  0.1332 -0.5261  0.3446
 2040SOL     OW 8157   4.767   1.673   3.094  0.1958 -0.6538  0.1334
 2040SOL    HW1 8158   4.846   1.645   3.140 -0.0342  0.9840  1.6133
 2040SOL    HW2 8159   4.709   1.596   3.098  0.4322 -0.7860  2.0609
 2040SOL     MW 8160   4.770   1.659   3.101  0.1967 -0.4511  0.5919
 2041SOL     OW 8161   3.665   2.558   0.608  0.1912  0.2904 -0.5985
 2041SOL    HW1 8162   3.689   2.641   0.650  0.8270  0.2808 -0.9397
 2041SOL    HW2 8163   3.572   2.547   0.629  1.0540 -1.1602  3.2265
 2041SOL     MW 8164   3.655   2.568   0.617  0.3928  0.0939 -0.1296
 2042SOL     OW 8165   2.594   4.661   3.002  0.3215 -0.2455 -0.4638
 2042SOL    HW1 8166   2.655   4.686   3.071 -0.3154  0.6398 -0.2019
 2042SOL    HW2 8167   2.537   4.596   3.042 -0.2719  0.5243 -0.0229
 2042SOL     MW 8168   2.595   4.656   3.016  0.1559 -0.0227 -0.3692
 2043SOL     OW 8169   1.491   5.119   3.168  0.2914  0.3517 -0.3123
 2043SOL    HW1 8170   1.571   5.171   3.157  2.7345 -2.7460  1.1545
 2043SOL    HW2 8171   1.495   5.054   3.098 -0.4482 -0.4181  0.3406
 2043SOL     MW 8172   1.502   5.117   3.157  0.5207 -0.1688 -0.0270
 2044SOL     OW 8173   3.347   5.470   0.578  0.0527  0.3031  0.2961
 2044SOL    HW1 8174   3.322   5.562   0.583  0.5211  0.3641  2.2360
 2044SOL    HW2 8175   3.276   5.424   0.622  0.5177 -0.1084  0.6221
 2044SOL     MW 8176   3.334   5.476   0.585  0.1783  0.2559  0.6010
 2045SOL     OW 8177   3.631   3.377   4.371  0.4256 -0.0006  0.0935
 2045SOL    HW1 8178   3.560   3.317   4.395 -1.4894  1.7491 -0.8844
 2045SOL    HW2 8179   3.644   3.362   4.278 -0.4748  1.4158 -0.2961
 2045SOL     MW 8180   3.623   3.367   4.362  0.0467  0.4255 -0.0906
 2046SOL     OW 8181   5.145   3.727   1.745  0.2143 -0.1968 -0.1202
 2046SOL    HW1 8182   5.236   3.756   1.735  0.1516 -0.2754 -0.9698
 2046SOL    HW2 8183   5.138   3.705   1.838  1.4544 -1.4411 -0.2823
 2046SOL     MW 8184   5.157   3.728   1.757  0.3728 -0.3748 -0.2564
 2047SOL     OW 8185   1.697   3.696   2.426  0.4542 -0.0135  0.4342
 2047SOL    HW1 8186   1.692   3.776   2.479  0.7628  1.4177 -1.5732
 2047SOL    HW2 8187   1.606   3.671   2.412  0.3585 -0.0930  1.1867
 2047SOL     MW 8188   1.684   3.703   2.431  0.4828  0.1684  0.2653
 2048SOL     OW 8189   5.124   1.909   5.005  0.1855  0.5556 -0.1627
 2048SOL    HW1 8190   5.173   1.987   5.032 -0.4728  1.3465 -1.2080
 2048SOL    HW2 8191   5.172   1.876   4.929  0.8484 -0.4735  0.6711
 2048SOL     MW 8192   5.137   1.915   4.998  0.1861  0.5236 -0.1912
 2049SOL     OW 8193   3.742   4.312   3.068  0.4672 -0.2723 -0.0386
 2049SOL    HW1 8194   3.760   4.404   3.086 -3.5430  0.3014  2.5014
 2049SOL    HW2 8195   3.675   4.314   3.000 -0.1170 -1.2047  0.4800
 2049SOL     MW 8196   3.735   4.325   3.062 -0.1511 -0.3206  0.3730
 2050SOL     OW 8197   5.393   4.758   5.500 -0.1454 -0.4519 -0.1740
 2050SOL    HW1 8198   5.466   4.796   5.450 -1.1217  1.9801  0.1267
 2050SOL    HW2 8199   5.367   4.681   5.449  1.9223 -0.7876 -0.8436
 2050SOL     MW 8200   5.400   4.753   5.486  0.0015 -0.1698 -0.2236
 2051SOL     OW 8201   4.045   4.259   5.205  0.1636 -0.5155  0.0685
 2051SOL    HW1 8202   4.111   4.265   5.136  0.7999 -0.8891  0.6383
 2051SOL    HW2 8203   3.968   4.223   5.161 -0.0735  1.0171 -0.8754
 2051SOL     MW 8204   4.044   4.255   5.189  0.2173 -0.3595  0.0181
 2052SOL     OW 8205   1.226   1.752   1.740 -0.5099 -0.1250 -0.1630
 2052SOL    HW1 8206   1.245   1.843   1.764 -0.9960 -0.0869  0.0782
 2052SOL    HW2 8207   1.135   1.739   1.766 -1.0867 -0.0645 -1.9975
 2052SOL     MW 8208   1.217   1.763   1.747 -0.6529 -0.1117 -0.3775
 2053SOL     OW 8209   3.478   3.717   4.632 -0.2265 -0.2565  0.4723
 2053SOL    HW1 8210   3.416   3.658   4.590 -1.7487  2.7450 -1.9135
 2053SOL    HW2 8211   3.561   3.701   4.587 -1.2553  1.1297 -2.1851
 2053SOL     MW 8212   3.481   3.707   4.620 -0.5698  0.3340 -0.2064
 2054SOL     OW 8213   3.541   1.751   0.789 -0.5210  0.4268 -0.0020
 2054SOL    HW1 8214   3.535   1.741   0.694  2.1779 -0.2240 -0.1677
 2054SOL    HW2 8215   3.549   1.662   0.822 -0.1195  0.7235  0.7185
 2054SOL     MW 8216   3.541   1.738   0.780 -0.1037  0.3792  0.0727
 2055SOL     OW 8217   1.335   3.330   3.680  0.2480  0.4734  0.0419
 2055SOL    HW1 8218   1.298   3.310   3.594  1.2426 -0.2474 -0.2429
 2055SOL    HW2 8219   1.419   3.372   3.660  0.7709 -0.2668  0.6613
 2055SOL     MW 8220   1.341   3.333   3.666  0.4522  0.2767  0.0869
 2056SOL     OW 8221   2.785   3.677   4.540 -0.2041  0.4285  0.5072
 2056SOL    HW1 8222   2.800   3.691   4.446  0.3549 -0.8155  0.3902
 2056SOL    HW2 8223   2.822   3.591   4.557  0.2219  0.8823  1.9975
 2056SOL     MW 8224   2.792   3.667   4.530 -0.0716  0.3222  0.6921
 2057SOL     OW 8225   0.902   2.734   3.515  0.2163 -0.9565 -0.4910
 2057SOL    HW1 8226   0.949   2.816   3.533 -1.4219 -0.0586 -0.0736
 2057SOL    HW2 8227   0.946   2.669   3.569 -0.7274  0.4269  2.1381
 2057SOL     MW 8228   0.915   2.737   3.524 -0.1312 -0.6495 -0.0810
 2058SOL     OW 8229   0.732   0.784   5.262 -0.4939  0.3633  0.3788
 2058SOL    HW1 8230   0.747   0.805   5.355 -1.6090  0.1333  0.6226
 2058SOL    HW2 8231   0.647   0.822   5.243 -0.8010 -0.6054 -0.2343
 2058SOL     MW 8232   0.723   0.792   5.272 -0.6853  0.2020  0.3291
 2059SOL     OW 8233   0.388   3.273   3.503 -0.4588  0.1355 -0.2050
 2059SOL    HW1 8234   0.308   3.275   3.556 -0.4015 -1.0365 -0.0488
 2059SOL    HW2 8235   0.360   3.239   3.418 -0.2064  0.1364 -0.2888
 2059SOL     MW 8236   0.374   3.269   3.499 -0.4171 -0.0221 -0.1953
 2060SOL     OW 8237   4.909   3.443   1.189 -0.2745  0.7263  0.1504
 2060SOL    HW1 8238   4.878   3.471   1.103 -1.9282 -0.4478  0.3328
 2060SOL    HW2 8239   4.843   3.474   1.250 -0.8986 -1.3450  0.6113
 2060SOL     MW 8240   4.896   3.451   1.186 -0.5810  0.2895  0.2370
 2061SOL     OW 8241   1.057   1.148   5.499  0.3068 -0.6109  0.0526
 2061SOL    HW1 8242   1.119   1.165   5.570 -0.8962  1.1627  0.7435
 2061SOL    HW2 8243   1.097   1.189   5.423  0.3530 -0.1515  0.3211
 2061SOL     MW 8244   1.071   1.156   5.498  0.1511 -0.3103  0.1817
 2062SOL     OW 8245   0.811   3.706   3.882  0.3244  0.5321  0.1624
 2062SOL    HW1 8246   0.850   3.631   3.928  2.0667 -0.0723 -2.1191
 2062SOL    HW2 8247   0.881   3.770   3.876 -0.8964  2.0586  1.3075
 2062SOL     MW 8248   0.825   3.704   3.888  0.3946  0.6562  0.0094
 2063SOL     OW 8249   2.954   0.075   0.457 -0.0350 -0.1037  0.1038
 2063SOL    HW1 8250   2.893   0.128   0.405  1.9312  1.1138 -1.1010
 2063SOL    HW2 8251   2.971  -0.002   0.403  2.5975  1.5142 -1.6200
 2063SOL     MW 8252   2.948   0.072   0.443  0.5839  0.2779 -0.2903
 2064SOL     OW 8253   5.051   1.369   4.019  0.3693  0.2067 -0.3849
 2064SOL    HW1 8254   5.077   1.310   3.948  1.0615 -0.2701  0.2497
 2064SOL    HW2 8255   5.070   1.457   3.986 -0.6644  0.0881 -1.3380
 2064SOL     MW 8256   5.057   1.373   4.005  0.3234  0.1265 -0.4277
 2065SOL     OW 8257   3.380   1.499   1.110  0.2284  0.2894  0.5645
 2065SOL    HW1 8258   3.392   1.498   1.015 -1.1941 -1.9248  0.3319
 2065SOL    HW2 8259   3.323   1.424   1.128  0.1014  0.8997  3.1359
 2065SOL     MW 8260   3.374   1.489   1.100  0.0199  0.0736  0.8792
 2066SOL     OW 8261   0.097   0.786   0.004  0.0910 -0.3923  0.6126
 2066SOL    HW1 8262   0.144   0.737   0.071  0.7930  0.7998  1.0071
 2066SOL    HW2 8263   0.131   0.875   0.010  1.4606 -0.5845 -2.4731
 2066SOL     MW 8264   0.108   0.791   0.014  0.3698 -0.2577  0.2504
 2067SOL     OW 8265   4.723   3.591   4.390 -0.2787  0.4951 -0.0519
 2067SOL    HW1 8266   4.679   3.604   4.474 -0.8998  2.4261 -0.6107
 2067SOL    HW2 8267   4.678   3.651   4.331  1.3163  0.4898 -1.3299
 2067SOL     MW 8268   4.711   3.601   4.394 -0.1476  0.7543 -0.2991
 2068SOL     OW 8269   2.363   3.546   4.506 -0.0961  0.1677  0.4680
 2068SOL    HW1 8270   2.411   3.603   4.567 -0.8097  1.6658 -0.3054
 2068SOL    HW2 8271   2.306   3.494   4.563  0.5800  0.2054  1.2021
 2068SOL     MW 8272   2.361   3.547   4.522 -0.1011  0.3744  0.4627
 2069SOL     OW 8273   2.322   2.059   4.659  0.2222  0.1795 -0.2788
 2069SOL    HW1 8274   2.294   2.065   4.751  0.7627  2.1786 -0.2077
 2069SOL    HW2 8275   2.294   2.141   4.619  2.6001  0.6757 -1.1221
 2069SOL     MW 8276   2.315   2.071   4.666  0.6150  0.5153 -0.3827
 2070SOL     OW 8277  -0.001   1.202   4.820  0.2518  0.1253  0.2221
 2070SOL    HW1 8278   0.025   1.198   4.728 -1.2387  0.6978 -0.2545
 2070SOL    HW2 8279   0.029   1.288   4.849 -0.5231  0.5285 -0.1467
 2070SOL     MW 8280   0.007   1.213   4.812 -0.0531  0.2566  0.1083
 2071SOL     OW 8281   1.391   4.100   3.638 -0.1963  0.3110  0.1445
 2071SOL    HW1 8282   1.370   4.167   3.703  1.0873  0.8390  0.0343
 2071SOL    HW2 8283   1.394   4.148   3.555  1.0934  0.2021  0.1129
 2071SOL     MW 8284   1.388   4.116   3.635  0.1500  0.3674  0.1254
 2072SOL     OW 8285   2.202   0.025   2.245  0.5615 -0.1800 -0.3725
 2072SOL    HW1 8286   2.167  -0.015   2.325 -1.0964  0.0408 -0.9472
 2072SOL    HW2 8287   2.294   0.001   2.245  0.3438 -1.1623  1.0146
 2072SOL     MW 8288   2.210   0.017   2.256  0.3091 -0.2825 -0.2632
 2073SOL     OW 8289   1.388   0.008   4.324 -0.2764  0.6519  0.1314
 2073SOL    HW1 8290   1.445   0.057   4.383 -1.3744  1.1462  0.8130
 2073SOL    HW2 8291   1.440  -0.004   4.245  1.2943 -0.1460  1.2235
 2073SOL     MW 8292   1.403   0.013   4.321 -0.2128  0.6110  0.3701
 2074SOL     OW 8293   4.242   1.532   1.816 -0.2062 -0.1646 -0.0113
 2074SOL    HW1 8294   4.165   1.589   1.820  0.6222  1.0885 -1.1042
 2074SOL    HW2 8295   4.231   1.473   1.890 -2.3036 -0.1395 -0.2166
 2074SOL     MW 8296   4.230   1.532   1.827 -0.3770  0.0074 -0.1860
 2075SOL     OW 8297   3.579   5.494   5.271  0.1783 -0.1116 -0.4550
 2075SOL    HW1 8298   3.575   5.401   5.294  1.9157  0.0067  0.5371
 2075SOL    HW2 8299   3.618   5.495   5.184  0.2366 -0.3131 -0.4331
 2075SOL     MW 8300   3.584   5.482   5.263  0.4200 -0.1228 -0.3185
 2076SOL     OW 8301   2.659   4.133   1.740 -0.6580  1.0144  0.4706
 2076SOL    HW1 8302   2.605   4.203   1.777  0.5761  1.1931  2.0149
 2076SOL    HW2 8303   2.683   4.078   1.814  0.7028  0.5518 -0.2688
 2076SOL     MW 8304   2.655   4.135   1.755 -0.3088  0.9762  0.5789
 2077SOL     OW 8305   3.433   2.765   4.443 -0.3431  0.5385 -0.2033
 2077SOL    HW1 8306   3.491   2.810   4.381  0.2678 -2.3093 -1.9059
 2077SOL    HW2 8307   3.483   2.688   4.469 -2.2753 -0.5246  0.5335
 2077SOL     MW 8308   3.448   2.761   4.438 -0.5209  0.0122 -0.3333
 2078SOL     OW 8309   3.419   1.613   4.520  0.0626  0.1209 -0.3321
 2078SOL    HW1 8310   3.416   1.709   4.510 -0.1048  0.1292 -0.2057
 2078SOL    HW2 8311   3.398   1.598   4.612 -0.1275 -0.0479 -0.4023
 2078SOL     MW 8312   3.416   1.624   4.531  0.0145  0.0993 -0.3246
 2079SOL     OW 8313   1.854   2.407   3.354 -0.1901  0.0152  0.1896
 2079SOL    HW1 8314   1.815   2.475   3.298 -0.5036 -1.0322 -0.8992
 2079SOL    HW2 8315   1.829   2.325   3.313  0.0756 -0.7831  1.5652
 2079SOL     MW 8316   1.845   2.405   3.341 -0.1966 -0.2332  0.2282
 2080SOL     OW 8317   3.608   2.320   3.287  0.1195  0.0116  0.2248
 2080SOL    HW1 8318   3.530   2.340   3.339  0.8376  0.0822  1.3135
 2080SOL    HW2 8319   3.633   2.232   3.315  0.4826  0.0286 -0.0408
 2080SOL     MW 8320   3.601   2.311   3.298  0.2650  0.0234  0.3356
 2081SOL     OW 8321   5.359   3.905   3.957  0.3676 -0.0124 -0.4111
 2081SOL    HW1 8322   5.382   3.983   4.008 -1.8638  0.5144 -0.0947
 2081SOL    HW2 8323   5.306   3.852   4.016  0.7295 -1.1419 -1.0706
 2081SOL     MW 8324   5.355   3.909   3.972  0.1160 -0.0935 -0.4573
 2082SOL     OW 8325   3.193   0.893   4.018  0.3384 -0.0687  0.0040
 2082SOL    HW1 8326   3.180   0.986   4.000 -0.7915 -0.3768 -0.9064
 2082SOL    HW2 8327   3.221   0.889   4.110 -0.2010  1.1151  0.2258
 2082SOL     MW 8328   3.195   0.905   4.028  0.1137  0.0491 -0.0887
 2083SOL     OW 8329   0.406   2.689   0.882 -0.4829  0.2759 -0.7470
 2083SOL    HW1 8330   0.501   2.704   0.888 -0.3794 -0.5493 -0.2290
 2083SOL    HW2 8331   0.395   2.596   0.899 -0.9388 -0.8288 -5.5953
 2083SOL     MW 8332   0.417   2.678   0.885 -0.5304  0.0162 -1.3298
 2084SOL     OW 8333   0.570   2.405   1.271 -0.5076 -0.8321  0.4680
 2084SOL    HW1 8334   0.520   2.346   1.328 -0.2978 -0.4657  1.0284
 2084SOL    HW2 8335   0.517   2.484   1.267 -0.3364 -0.7194  0.4539
 2084SOL     MW 8336   0.556   2.407   1.278 -0.4563 -0.7677  0.5415
 2085SOL     OW 8337   4.953   3.674   2.785 -0.3100  0.0838 -0.9359
 2085SOL    HW1 8338   4.949   3.612   2.858 -0.1007  0.6088 -0.4717
 2085SOL    HW2 8339   4.863   3.684   2.757 -0.7812  1.9112  0.9975
 2085SOL     MW 8340   4.941   3.667   2.791 -0.3453  0.4004 -0.6133
 2086SOL     OW 8341   3.368   1.013   0.427  0.4562 -0.1017 -0.0475
 2086SOL    HW1 8342   3.384   0.972   0.512 -2.5782  0.2125  0.7876
 2086SOL    HW2 8343   3.339   0.941   0.371 -1.7409  0.2845  0.5008
 2086SOL     MW 8344   3.366   0.998   0.431 -0.2478 -0.0075  0.1387
 2087SOL     OW 8345   1.974   5.431   4.614 -0.4302 -0.8346  0.4314
 2087SOL    HW1 8346   2.000   5.492   4.683 -0.9084 -0.1026 -0.0323
 2087SOL    HW2 8347   1.914   5.481   4.559  0.2429 -1.2847 -0.7332
 2087SOL     MW 8348   1.970   5.446   4.616 -0.4040 -0.7967  0.2122
 2088SOL     OW 8349   1.166   3.456   2.514  0.2035 -0.4845  0.1055
 2088SOL    HW1 8350   1.204   3.369   2.519  1.0334 -0.1533 -0.1929
 2088SOL    HW2 8351   1.157   3.484   2.605  1.9800 -0.0376  0.1816
 2088SOL     MW 8352   1.169   3.448   2.527  0.5543 -0.3798  0.0756
 2089SOL     OW 8353   2.899   2.890   4.501  0.1718  0.7172 -0.0682
 2089SOL    HW1 8354   2.982   2.868   4.460 -0.2901 -0.6533 -0.3032
 2089SOL    HW2 8355   2.915   2.975   4.542  1.7112  0.4437 -0.0377
 2089SOL     MW 8356   2.912   2.899   4.501  0.3168  0.4960 -0.0957
 2090SOL     OW 8357   0.434   5.050   0.919 -0.0660 -0.1516 -0.1886
 2090SOL    HW1 8358   0.441   4.958   0.894 -0.4584 -0.2596  0.0740
 2090SOL    HW2 8359   0.413   5.048   1.013  0.5921  0.2226 -0.0284
 2090SOL     MW 8360   0.432   5.038   0.929 -0.0303 -0.1158 -0.1317
 2091SOL     OW 8361   1.549   4.342   2.397 -0.1870 -0.7256 -0.8147
 2091SOL    HW1 8362   1.462   4.382   2.391 -0.1629 -0.6046 -0.3851
 2091SOL    HW2 8363   1.556   4.313   2.488  0.6762  0.3110 -0.5405
 2091SOL     MW 8364   1.538   4.343   2.408 -0.0676 -0.5698 -0.7200
 2092SOL     OW 8365   5.345   4.319   0.501 -0.4568  0.0805 -0.6007
 2092SOL    HW1 8366   5.327   4.402   0.545  0.9074 -1.1521  2.6184
 2092SOL    HW2 8367   5.435   4.298   0.526 -0.7588 -2.3570 -1.3355
 2092SOL     MW 8368   5.354   4.327   0.510 -0.3139 -0.4134 -0.2664
 2093SOL     OW 8369   3.589   2.031   0.164  0.4677  0.2805  0.2112
 2093SOL    HW1 8370   3.594   2.125   0.178 -1.5870  1.1598 -3.5208
 2093SOL    HW2 8371   3.523   2.001   0.226 -2.4280  2.3103 -1.6642
 2093SOL     MW 8372   3.581   2.039   0.174 -0.1985  0.6720 -0.5434
 2094SOL     OW 8373   4.810   3.982   2.573  0.1687  0.1304  0.2381
 2094SOL    HW1 8374   4.889   3.959   2.525  0.4513 -0.5842  1.0131
 2094SOL    HW2 8375   4.810   4.077   2.577  1.7795  0.1265  1.4773
 2094SOL     MW 8376   4.820   3.991   2.567  0.4235  0.0337  0.5092
 2095SOL     OW 8377   1.206   2.948   0.202  0.0834 -0.2451 -0.7161
 2095SOL    HW1 8378   1.219   2.955   0.108  0.2528 -2.3371 -0.8882
 2095SOL    HW2 8379   1.254   2.870   0.228  0.6807  0.7090  1.2608
 2095SOL     MW 8380   1.214   2.939   0.193  0.1866 -0.3982 -0.4732
 2096SOL     OW 8381   4.531   4.892   1.657  0.3983 -0.0150 -0.0121
 2096SOL    HW1 8382   4.453   4.839   1.637  0.6395  0.2729 -1.9665
 2096SOL    HW2 8383   4.505   4.982   1.637  0.8467  0.2407  0.5414
 2096SOL     MW 8384   4.517   4.897   1.651  0.4911  0.0582 -0.2006
 2097SOL     OW 8385   4.462   2.492   3.907 -0.4210 -0.6649 -0.3351
 2097SOL    HW1 8386   4.547   2.525   3.935 -1.2541 -0.5168  2.2064
 2097SOL    HW2 8387   4.464   2.398   3.926 -1.7169 -0.2284  2.3577
 2097SOL     MW 8388   4.473   2.484   3.913 -0.7075 -0.5862  0.3694
 2098SOL     OW 8389   1.136   3.318   4.968 -0.0244  0.0797 -0.2198
 2098SOL    HW1 8390   1.221   3.361   4.954  0.7688 -1.6116 -0.9307
 2098SOL    HW2 8391   1.149   3.229   4.937 -1.7327 -0.5756  0.7875
 2098SOL     MW 8392   1.149   3.312   4.962 -0.1476 -0.2361 -0.1799
 2099SOL     OW 8393   5.410   1.235   1.693 -0.0287  0.1011  0.5878
 2099SOL    HW1 8394   5.395   1.321   1.654  4.0621  1.3042  1.1982
 2099SOL    HW2 8395   5.417   1.175   1.618 -0.1515  0.8509 -0.0365
 2099SOL     MW 8396   5.409   1.239   1.678  0.5053  0.3639  0.5860
 2100SOL     OW 8397   4.157   2.129   3.477  0.6268  0.3705  0.5355
 2100SOL    HW1 8398   4.088   2.179   3.521  1.1601  0.6203  1.1005
 2100SOL    HW2 8399   4.215   2.101   3.547 -0.7956 -2.9666  0.5751
 2100SOL     MW 8400   4.155   2.132   3.492  0.5072 -0.0450  0.6169
 2101SOL     OW 8401   3.459   0.216   3.970 -0.4180 -0.9111  0.1518
 2101SOL    HW1 8402   3.527   0.158   3.934 -0.2052 -0.4868 -0.1346
 2101SOL    HW2 8403   3.423   0.167   4.044  0.8457 -0.7387  0.8988
 2101SOL     MW 8404   3.463   0.201   3.975 -0.2193 -0.8308  0.2138
 2102SOL     OW 8405   1.204   3.360   2.145  0.5008  0.4625  0.2989
 2102SOL    HW1 8406   1.200   3.426   2.076  0.4113  0.0087 -0.1356
 2102SOL    HW2 8407   1.130   3.381   2.202 -0.0414  0.2318 -0.3028
 2102SOL     MW 8408   1.194   3.372   2.143  0.4158  0.3704  0.1595
 2103SOL     OW 8409   3.564   5.376   3.379  0.1133 -0.4172  0.6467
 2103SOL    HW1 8410   3.601   5.451   3.427  0.5715  0.5825 -1.1753
 2103SOL    HW2 8411   3.565   5.404   3.288 -1.5905 -1.8944  0.1257
 2103SOL     MW 8412   3.569   5.390   3.373 -0.0543 -0.4815  0.3314
 2104SOL     OW 8413   4.324   3.768   1.347 -0.4204 -0.1404  0.1763
 2104SOL    HW1 8414   4.360   3.696   1.295  1.3481  0.6545  0.2294
 2104SOL    HW2 8415   4.245   3.731   1.387 -0.2171 -1.6687 -0.7388
 2104SOL     MW 8416   4.318   3.753   1.346 -0.1551 -0.2391  0.0603
 2105SOL     OW 8417   1.974   4.542   1.015 -0.2092  0.4581 -0.4550
 2105SOL    HW1 8418   1.967   4.513   1.106  0.1567  0.0957 -0.5399
 2105SOL    HW2 8419   1.980   4.637   1.021 -1.9283  0.5857 -0.1989
 2105SOL     MW 8420   1.974   4.551   1.028 -0.3913  0.4265 -0.4320
 2106SOL     OW 8421   1.785   0.144   3.675 -0.3426  0.4005  0.4099
 2106SOL    HW1 8422   1.827   0.059   3.687  0.7925  0.9502  0.4259
 2106SOL    HW2 8423   1.771   0.177   3.765 -1.2539  0.0174  0.4185
 2106SOL     MW 8424   1.789   0.137   3.689 -0.3125  0.4229  0.4132
 2107SOL     OW 8425   0.615   4.179   4.770 -0.1538 -0.1594 -0.0917
 2107SOL    HW1 8426   0.540   4.170   4.830  1.1650 -0.3418  1.5969
 2107SOL    HW2 8427   0.648   4.089   4.761  0.3963  0.0446 -0.0977
 2107SOL     MW 8428   0.609   4.165   4.777  0.0977 -0.1565  0.1347
 2108SOL     OW 8429   1.035   2.427   2.012  0.1297  0.3940 -0.2691
 2108SOL    HW1 8430   1.108   2.435   1.950 -0.3052  0.0527 -0.8449
 2108SOL    HW2 8431   0.972   2.494   1.983  0.4988  1.1530  0.6440
 2108SOL     MW 8432   1.036   2.437   2.000  0.1208  0.4502 -0.2237
 2109SOL     OW 8433   4.329   2.491   5.393 -0.1696 -0.3716 -0.1360
 2109SOL    HW1 8434   4.369   2.486   5.480 -0.3562 -0.4854 -0.0562
 2109SOL    HW2 8435   4.236   2.507   5.411 -0.3587 -1.2536 -0.3009
 2109SOL     MW 8436   4.322   2.493   5.407 -0.2202 -0.5056 -0.1474
 2110SOL     OW 8437   5.037   3.028   1.726  0.5054 -0.0111 -0.2514
 2110SOL    HW1 8438   5.068   3.114   1.752  0.0963  0.3499 -0.9455
 2110SOL    HW2 8439   5.065   3.018   1.635  3.5209 -2.0017  0.7236
 2110SOL     MW 8440   5.045   3.038   1.718  0.8562 -0.2304 -0.2136
 2111SOL     OW 8441   2.900   4.621   0.941  0.3463 -0.3568 -0.2155
 2111SOL    HW1 8442   2.961   4.687   0.975 -0.6302  0.3565  0.1888
 2111SOL    HW2 8443   2.883   4.648   0.851 -0.0581 -0.0471 -0.0480
 2111SOL     MW 8444   2.906   4.633   0.934  0.1605 -0.2191 -0.1385
 2112SOL     OW 8445   1.529   1.314   0.211 -0.5081  0.4207  0.3204
 2112SOL    HW1 8446   1.565   1.228   0.232 -0.0411  0.5272 -0.0336
 2112SOL    HW2 8447   1.458   1.296   0.149 -1.4118  0.1685  1.4049
 2112SOL     MW 8448   1.524   1.300   0.205 -0.5669  0.4011  0.4187
 2113SOL     OW 8449   0.564   2.358   0.411  0.1252 -0.1380  0.3080
 2113SOL    HW1 8450   0.563   2.262   0.404 -0.0060 -0.0984 -0.2112
 2113SOL    HW2 8451   0.606   2.374   0.496 -1.5170 -0.6904  1.2783
 2113SOL     MW 8452   0.570   2.347   0.422 -0.1135 -0.2070  0.3687
 2114SOL     OW 8453   0.808   2.175   4.712  0.0767 -0.1668 -0.2452
 2114SOL    HW1 8454   0.714   2.172   4.728  0.0581 -0.6453 -0.4076
 2114SOL    HW2 8455   0.824   2.101   4.654  0.2134  1.2348 -2.0833
 2114SOL     MW 8456   0.798   2.164   4.706  0.0926 -0.0426 -0.5144
 2115SOL     OW 8457   5.383   2.363   1.676 -0.1617  0.1663 -0.2328
 2115SOL    HW1 8458   5.333   2.287   1.707  0.7636 -0.5288 -0.4157
 2115SOL    HW2 8459   5.318   2.434   1.672 -0.3286  0.4982  3.7236
 2115SOL     MW 8460   5.367   2.363   1.680 -0.0596  0.1174  0.2751
 2116SOL     OW 8461   3.851   2.529   3.302 -0.4869 -0.1999 -0.1407
 2116SOL    HW1 8462   3.780   2.591   3.283  0.8636  1.1356 -1.0811
 2116SOL    HW2 8463   3.924   2.585   3.329  0.4471 -1.4854  0.0609
 2116SOL     MW 8464   3.851   2.545   3.303 -0.1795 -0.1932 -0.2401
 2117SOL     OW 8465   1.681   1.790   2.234  0.2900 -0.3255 -0.3749
 2117SOL    HW1 8466   1.741   1.822   2.301 -0.7410  0.6826  0.0860
 2117SOL    HW2 8467   1.609   1.750   2.283 -0.8016  1.0158 -0.8388
 2117SOL     MW 8468   1.679   1.789   2.249  0.0044 -0.0093 -0.3753
 2118SOL     OW 8469   4.624   2.538   2.029  0.1573  0.0959 -0.2967
 2118SOL    HW1 8470   4.591   2.571   2.113 -4.1443  1.0009 -2.0490
 2118SOL    HW2 8471   4.638   2.616   1.976 -0.8488 -0.5216 -1.5279
 2118SOL     MW 8472   4.621   2.553   2.034 -0.5570  0.1346 -0.6982
 2119SOL     OW 8473   5.175   2.562   3.019  0.1510 -0.1224  0.3708
 2119SOL    HW1 8474   5.231   2.615   3.076  0.8039 -0.5345  0.1113
 2119SOL    HW2 8475   5.232   2.493   2.986  0.0065  0.5809 -1.4441
 2119SOL     MW 8476   5.190   2.560   3.022  0.2195 -0.0832  0.0916
 2120SOL     OW 8477   2.391   4.906   3.838  0.3614  0.1666 -0.2305
 2120SOL    HW1 8478   2.479   4.873   3.821  1.1393  2.2139 -0.4114
 2120SOL    HW2 8479   2.377   4.893   3.932  0.6066 -0.6788 -0.3048
 2120SOL     MW 8480   2.401   4.900   3.848  0.4991  0.3283 -0.2649
 2121SOL     OW 8481   4.444   2.195   3.870 -0.1555 -0.1813  0.0059
 2121SOL    HW1 8482   4.442   2.203   3.965 -0.7384  3.1556 -0.1430
 2121SOL    HW2 8483   4.537   2.196   3.848 -0.0071 -1.3706  0.5351
 2121SOL     MW 8484   4.456   2.196   3.880 -0.2140  0.1077  0.0571
 2122SOL     OW 8485   1.573   1.052   0.295 -0.3509  0.3339 -0.0814
 2122SOL    HW1 8486   1.664   1.024   0.284 -0.6005  0.0550 -1.6677
 2122SOL    HW2 8487   1.525   1.005   0.227 -1.8159 -0.0364  1.1581
 2122SOL     MW 8488   1.579   1.042   0.285 -0.5816  0.2466 -0.1280
 2123SOL     OW 8489   2.943   3.175   1.903 -0.4027  0.2758 -0.5003
 2123SOL    HW1 8490   2.979   3.235   1.970  1.7967 -1.1969 -0.2343
 2123SOL    HW2 8491   2.888   3.115   1.953 -0.2497  0.2946 -0.3040
 2123SOL     MW 8492   2.941   3.175   1.919 -0.0861  0.0801 -0.4380
 2124SOL     OW 8493   4.597   1.543   4.728  0.3206 -0.1800  0.1989
 2124SOL    HW1 8494   4.608   1.453   4.698  1.1482 -0.2563  0.6934
 2124SOL    HW2 8495   4.558   1.589   4.654  0.4611 -0.8078 -0.2718
 2124SOL     MW 8496   4.593   1.537   4.714  0.4509 -0.2748  0.2021
 2125SOL     OW 8497   3.776   4.209   2.407 -0.0598 -0.0831 -0.1207
 2125SOL    HW1 8498   3.705   4.188   2.468 -0.5323 -0.1706 -0.7027
 2125SOL    HW2 8499   3.792   4.302   2.421 -1.8154  0.4891 -1.5563
 2125SOL     MW 8500   3.769   4.219   2.417 -0.3596 -0.0179 -0.3922
 2126SOL     OW 8501   3.723   1.581   0.976 -0.0185 -0.4656  0.2399
 2126SOL    HW1 8502   3.749   1.628   0.896 -1.7460 -1.8241 -1.2049
 2126SOL    HW2 8503   3.675   1.646   1.027  3.0569  1.1043  1.3971
 2126SOL     MW 8504   3.720   1.596   0.972  0.1629 -0.4372  0.2012
 2127SOL     OW 8505   0.828   1.796   0.232  0.0558 -0.3408  0.0732
 2127SOL    HW1 8506   0.919   1.817   0.252  0.0782  0.1668 -0.5267
 2127SOL    HW2 8507   0.831   1.753   0.146 -0.3762  0.8660 -0.5768
 2127SOL     MW 8508   0.840   1.793   0.223  0.0007 -0.1101 -0.0950
 2128SOL     OW 8509   1.570   1.339   0.630 -0.8057 -0.1895 -0.7143
 2128SOL    HW1 8510   1.518   1.385   0.564 -0.8888 -1.4663 -1.5583
 2128SOL    HW2 8511   1.580   1.251   0.596 -1.6651 -1.1868  1.4354
 2128SOL     MW 8512   1.564   1.334   0.617 -0.9325 -0.4955 -0.5386
 2129SOL     OW 8513   1.188   4.811   1.265  0.2801 -0.2946  0.7213
 2129SOL    HW1 8514   1.093   4.819   1.274  0.2626  0.5664 -0.0190
 2129SOL    HW2 8515   1.203   4.820   1.171  1.0712 -0.7407  0.8040
 2129SOL     MW 8516   1.177   4.813   1.254  0.3842 -0.2388  0.6328
 2130SOL     OW 8517   5.268   4.222   3.083  0.0971 -0.0335  0.2501
 2130SOL    HW1 8518   5.190   4.207   3.029 -0.0200  1.0283  0.0997
 2130SOL    HW2 8519   5.234   4.259   3.164  0.3783 -0.3857  0.5307
 2130SOL     MW 8520   5.253   4.225   3.087  0.1192  0.0620  0.2676
 2131SOL     OW 8521   5.295   1.913   3.503 -0.2834 -0.8064  0.0994
 2131SOL    HW1 8522   5.353   1.945   3.434 -0.6719 -0.2632  0.0120
 2131SOL    HW2 8523   5.207   1.938   3.473 -0.4029  0.0876  1.1204
 2131SOL     MW 8524   5.291   1.921   3.489 -0.3518 -0.6130  0.2250
 2132SOL     OW 8525   2.195   2.027   4.916  0.0750  0.2057 -0.0177
 2132SOL    HW1 8526   2.173   2.100   4.973 -0.3418 -1.3870  1.9763
 2132SOL    HW2 8527   2.111   1.988   4.893  0.3402 -0.3018 -0.1472
 2132SOL     MW 8528   2.181   2.032   4.920  0.0546 -0.0770  0.2332
 2133SOL     OW 8529   3.729   5.101   4.342 -0.2473  0.2296  0.2006
 2133SOL    HW1 8530   3.748   5.090   4.436 -1.5542  0.3205  0.4908
 2133SOL    HW2 8531   3.637   5.125   4.339 -0.5919 -1.1088 -1.2060
 2133SOL     MW 8532   3.719   5.103   4.355 -0.4696  0.0617  0.0503
 2134SOL     OW 8533   2.687   2.883   0.387  0.0599 -0.6145 -0.4986
 2134SOL    HW1 8534   2.735   2.963   0.406 -0.1120 -0.6973  0.3397
 2134SOL    HW2 8535   2.752   2.823   0.351  0.2056 -0.1330 -1.0393
 2134SOL     MW 8536   2.702   2.886   0.385  0.0564 -0.5608 -0.4586
 2135SOL     OW 8537   0.619   1.400   1.878 -0.1402 -0.4162 -0.2506
 2135SOL    HW1 8538   0.564   1.451   1.818 -2.9776 -2.1272  0.6482
 2135SOL    HW2 8539   0.664   1.337   1.821  0.2697  0.4708 -0.9365
 2135SOL     MW 8540   0.617   1.398   1.862 -0.4669 -0.5271 -0.2220
 2136SOL     OW 8541   3.142   2.825   4.369  0.0706 -0.3143  0.1308
 2136SOL    HW1 8542   3.112   2.748   4.321 -1.0433 -1.7067  2.8390
 2136SOL    HW2 8543   3.219   2.794   4.418  0.3312  0.6267  0.3319
 2136SOL     MW 8544   3.149   2.810   4.369 -0.0443 -0.3751  0.5223
 2137SOL     OW 8545   5.115   4.688   1.154 -0.2215 -0.1975 -0.1922
 2137SOL    HW1 8546   5.109   4.728   1.241  1.8287 -1.0144  0.3763
 2137SOL    HW2 8547   5.188   4.734   1.112 -0.6727 -0.3727 -1.1958
 2137SOL     MW 8548   5.124   4.700   1.160 -0.0063 -0.3310 -0.2507
 2138SOL     OW 8549   1.836   4.931   0.350 -0.0466 -0.1671  0.4598
 2138SOL    HW1 8550   1.830   4.856   0.290  0.4602  0.2837 -0.1666
 2138SOL    HW2 8551   1.930   4.941   0.366  0.1301  1.8506 -1.4358
 2138SOL     MW 8552   1.848   4.922   0.344  0.0454  0.1651  0.1204
 2139SOL     OW 8553   4.853   4.682   1.876  0.2664 -0.3904  0.4179
 2139SOL    HW1 8554   4.813   4.698   1.790  0.1235 -1.2108  0.3238
 2139SOL    HW2 8555   4.852   4.767   1.919 -0.2809 -0.1085 -0.1387
 2139SOL     MW 8556   4.847   4.695   1.870  0.1735 -0.4628  0.3304
 2140SOL     OW 8557   0.704   0.917   0.224  0.0397  0.3659 -0.4222
 2140SOL    HW1 8558   0.672   0.883   0.140  3.0448  0.0700 -1.5564
 2140SOL    HW2 8559   0.713   0.840   0.280 -1.3762  0.4896  0.0208
 2140SOL     MW 8560   0.701   0.902   0.220  0.2535  0.3427 -0.5152
 2141SOL     OW 8561   1.827   2.620   3.171 -0.3985  0.1964 -0.2581
 2141SOL    HW1 8562   1.827   2.580   3.084  0.4807 -1.5454  0.4890
 2141SOL    HW2 8563   1.894   2.689   3.166 -1.2000  0.9344 -1.2732
 2141SOL     MW 8564   1.836   2.624   3.158 -0.3881  0.0613 -0.2942
 2142SOL     OW 8565   3.553   2.667   5.215 -0.2865  0.4470  0.1803
 2142SOL    HW1 8566   3.564   2.751   5.170 -0.9035  0.7030  0.5006
 2142SOL    HW2 8567   3.629   2.615   5.188 -0.7141  0.5428 -1.2802
 2142SOL     MW 8568   3.564   2.671   5.205 -0.4271  0.4944  0.0269
 2143SOL     OW 8569   0.076   2.875   0.349 -0.7031  0.1017  0.0070
 2143SOL    HW1 8570   0.009   2.910   0.408  0.5068  1.2362  0.7750
 2143SOL    HW2 8571   0.080   2.939   0.277 -1.1919 -0.5474 -0.6175
 2143SOL     MW 8572   0.067   2.888   0.347 -0.6061  0.1671  0.0263
 2144SOL     OW 8573   1.595   1.448   4.046  0.7305 -0.0995  0.0950
 2144SOL    HW1 8574   1.626   1.460   4.136  0.8859 -1.2546  0.2109
 2144SOL    HW2 8575   1.517   1.504   4.040  0.7204 -0.0036  0.9518
 2144SOL     MW 8576   1.588   1.457   4.058  0.7501 -0.2420  0.2259
 2145SOL     OW 8577   3.741   0.094   3.077 -0.1494 -0.0929  0.2327
 2145SOL    HW1 8578   3.686   0.169   3.053  1.2300  1.0777  0.5813
 2145SOL    HW2 8579   3.795   0.078   2.999 -0.5848 -0.8655  0.0886
 2145SOL     MW 8580   3.741   0.102   3.063 -0.0223 -0.0394  0.2602
 2146SOL     OW 8581   0.593   3.825   4.476  0.2920  0.5525 -1.1343
 2146SOL    HW1 8582   0.601   3.898   4.415  0.5935  1.7910  0.3340
 2146SOL    HW2 8583   0.499   3.821   4.497  0.7003  3.8299  2.5076
 2146SOL     MW 8584   0.581   3.834   4.471  0.3875  1.1603 -0.4466
 2147SOL     OW 8585   5.108   3.561   5.103  0.3175 -0.3310  0.3813
 2147SOL    HW1 8586   5.080   3.640   5.149  0.5111 -0.4109  0.6362
 2147SOL    HW2 8587   5.194   3.541   5.140 -0.3958 -1.5644  1.4283
 2147SOL     MW 8588   5.116   3.569   5.114  0.2476 -0.5077  0.5565
 2148SOL     OW 8589   4.889   2.222   2.915  0.0660  0.1372 -0.1251
 2148SOL    HW1 8590   4.863   2.261   2.831  1.0937 -0.5330 -0.7740
 2148SOL    HW2 8591   4.914   2.297   2.969  0.4358  0.5070 -0.7944
 2148SOL     MW 8592   4.889   2.237   2.911  0.2541  0.0967 -0.3025
 2149SOL     OW 8593   4.819   2.640   2.449  0.2014 -0.0421  0.3206
 2149SOL    HW1 8594   4.843   2.554   2.413 -0.9767  0.1774 -1.0758
 2149SOL    HW2 8595   4.773   2.620   2.531  1.5235 -0.6361  0.9428
 2149SOL     MW 8596   4.816   2.626   2.455  0.2208 -0.0925  0.2164
 2150SOL     OW 8597   3.210   2.510   1.629 -0.1879 -0.2563 -0.5590
 2150SOL    HW1 8598   3.139   2.472   1.681  1.0965 -0.7867  0.9191
 2150SOL    HW2 8599   3.244   2.437   1.577  0.4958 -0.5000  0.2023
 2150SOL     MW 8600   3.205   2.495   1.629  0.0770 -0.3605 -0.2576
 2151SOL     OW 8601   2.005   2.963   5.047  0.3618 -0.3123 -0.2300
 2151SOL    HW1 8602   2.043   2.957   4.960 -0.6669  1.8526 -0.8884
 2151SOL    HW2 8603   2.080   2.972   5.106  1.0681 -2.0070 -0.8298
 2151SOL     MW 8604   2.020   2.963   5.043  0.3184 -0.2490 -0.3993
 2152SOL     OW 8605   3.629   5.332   1.142  0.2992  1.0139  0.2742
 2152SOL    HW1 8606   3.621   5.427   1.131  0.6784  1.1148  0.7999
 2152SOL    HW2 8607   3.709   5.321   1.194 -0.2177  0.4551  0.9699
 2152SOL     MW 8608   3.639   5.343   1.148  0.2807  0.9523  0.4386
 2153SOL     OW 8609   1.949   0.197   0.972 -0.1331 -0.6134 -0.2693
 2153SOL    HW1 8610   2.025   0.158   0.929  0.3298 -0.5926  0.5252
 2153SOL    HW2 8611   1.887   0.124   0.983 -0.0334 -0.7294 -0.4751
 2153SOL     MW 8612   1.951   0.182   0.967 -0.0574 -0.6262 -0.1901
 2154SOL     OW 8613   1.788   3.174   0.638  0.3949  0.0481  0.2996
 2154SOL    HW1 8614   1.800   3.111   0.709 -0.5696 -1.1262 -0.5484
 2154SOL    HW2 8615   1.798   3.259   0.680 -1.0833 -0.5757  2.0542
 2154SOL     MW 8616   1.791   3.177   0.653  0.0662 -0.1939  0.4216
 2155SOL     OW 8617   4.694   0.191   0.247  0.2267  0.0292 -0.0671
 2155SOL    HW1 8618   4.642   0.169   0.325 -1.6158  0.9085 -0.9743
 2155SOL    HW2 8619   4.762   0.250   0.280 -0.2890  0.0867  0.9365
 2155SOL     MW 8620   4.696   0.196   0.262 -0.0907  0.1553 -0.0542
 2156SOL     OW 8621   0.843   1.541   1.469 -0.2401 -0.2289 -0.0824
 2156SOL    HW1 8622   0.853   1.494   1.386 -0.7922 -0.0605 -0.2527
 2156SOL    HW2 8623   0.908   1.502   1.527 -0.5128 -1.0170 -0.2985
 2156SOL     MW 8624   0.853   1.529   1.465 -0.3511 -0.3123 -0.1344
 2157SOL     OW 8625   1.354   1.058   3.872  0.0316 -0.0214  0.2467
 2157SOL    HW1 8626   1.387   1.112   3.943  1.4878 -0.1412 -0.3153
 2157SOL    HW2 8627   1.277   1.015   3.910 -1.0104  2.1679  0.7943
 2157SOL     MW 8628   1.348   1.059   3.887  0.0873  0.2572  0.2447
 2158SOL     OW 8629   0.461   0.429   5.347 -0.4956 -0.2710 -0.0664
 2158SOL    HW1 8630   0.373   0.393   5.352 -0.5934 -0.2028 -1.1014
 2158SOL    HW2 8631   0.512   0.363   5.300  0.1356 -0.5147  0.9081
 2158SOL     MW 8632   0.456   0.415   5.341 -0.4238 -0.2946 -0.0745
 2159SOL     OW 8633   5.475   4.726   2.678 -0.0807  0.0033  0.3221
 2159SOL    HW1 8634   5.525   4.688   2.606  0.7781  0.6892  0.5386
 2159SOL    HW2 8635   5.459   4.652   2.738 -1.1458 -0.6564 -0.7333
 2159SOL     MW 8636   5.479   4.711   2.677 -0.1085  0.0068  0.2092
 2160SOL     OW 8637   0.948   0.594   0.001 -0.0688  0.1756 -0.3242
 2160SOL    HW1 8638   0.961   0.641   0.084 -0.3142  0.6126 -0.5309
 2160SOL    HW2 8639   0.961   0.502   0.024 -1.8066  0.1059  0.5829
 2160SOL     MW 8640   0.951   0.588   0.015 -0.3357  0.2251 -0.2299
 2161SOL     OW 8641   5.408   4.981   2.283  0.3832  0.0351 -0.0019
 2161SOL    HW1 8642   5.412   5.052   2.220 -1.5018  1.6863  1.5853
 2161SOL    HW2 8643   5.490   4.986   2.332  1.3970 -0.6099 -1.5694
 2161SOL     MW 8644   5.420   4.991   2.281  0.2660  0.1705  0.0007
 2162SOL     OW 8645   4.661   4.702   0.985  0.1313 -0.4080 -0.1983
 2162SOL    HW1 8646   4.623   4.703   0.897 -0.4999 -0.4190  0.0714
 2162SOL    HW2 8647   4.685   4.793   1.002 -0.9157 -0.1734  0.1118
 2162SOL     MW 8648   4.659   4.714   0.976 -0.0945 -0.3779 -0.1203
 2163SOL     OW 8649   5.246   1.478   0.073  0.2875  0.4146  0.3199
 2163SOL    HW1 8650   5.232   1.560   0.119 -1.0990  0.4058 -0.0334
 2163SOL    HW2 8651   5.162   1.459   0.032  0.6957 -0.9891  0.0778
 2163SOL     MW 8652   5.233   1.486   0.074  0.1559  0.2245  0.2397
 2164SOL     OW 8653   3.887   4.464   2.522  0.4731 -0.0390  0.3130
 2164SOL    HW1 8654   3.902   4.446   2.615  1.0119  2.2566  0.7177
 2164SOL    HW2 8655   3.861   4.556   2.518  1.1136  0.1234 -1.8693
 2164SOL     MW 8656   3.885   4.474   2.534  0.6318  0.2918  0.0738
 2165SOL     OW 8657   4.016   5.203   1.585 -0.0065 -0.4973  0.4958
 2165SOL    HW1 8658   3.997   5.150   1.663 -1.2388  1.6183  1.7409
 2165SOL    HW2 8659   4.062   5.280   1.620  0.6553 -0.1450 -1.0780
 2165SOL     MW 8660   4.020   5.206   1.600 -0.0833 -0.1652  0.4516
 2166SOL     OW 8661   2.263   0.197   1.113 -0.5162  0.1256  0.0986
 2166SOL    HW1 8662   2.337   0.152   1.073 -0.9989  0.0385 -0.7209
 2166SOL    HW2 8663   2.262   0.283   1.070 -2.4330 -0.7753 -1.8664
 2166SOL     MW 8664   2.273   0.203   1.102 -0.8391 -0.0074 -0.2761
 2167SOL     OW 8665   0.401   1.673   0.332 -0.8886  0.1566  0.3331
 2167SOL    HW1 8666   0.493   1.669   0.356 -1.0262 -1.8987  0.7442
 2167SOL    HW2 8667   0.390   1.604   0.267 -2.4692 -0.9985  1.7066
 2167SOL     MW 8668   0.412   1.663   0.327 -1.1198 -0.2754  0.5733
 2168SOL     OW 8669   3.705   5.134   3.424  0.5247  0.7489  0.0262
 2168SOL    HW1 8670   3.707   5.229   3.411 -0.6844  0.9080  0.7991
 2168SOL    HW2 8671   3.787   5.113   3.468  0.8577  1.4169 -0.2666
 2168SOL     MW 8672   3.716   5.144   3.428  0.4067  0.8602  0.0908
 2169SOL     OW 8673   4.844   5.397   3.899 -0.5628 -0.3677 -0.0353
 2169SOL    HW1 8674   4.762   5.382   3.853 -0.0755 -1.5507 -0.5664
 2169SOL    HW2 8675   4.910   5.350   3.847  0.6260  1.3543 -0.1671
 2169SOL     MW 8676   4.842   5.388   3.886 -0.3372 -0.2951 -0.1245
 2170SOL     OW 8677   2.996   4.230   4.769 -0.0076 -0.0947 -0.0035
 2170SOL    HW1 8678   3.009   4.227   4.674  0.9112  0.8126  0.0700
 2170SOL    HW2 8679   3.072   4.184   4.805 -0.5130 -0.7105  0.2914
 2170SOL     MW 8680   3.008   4.223   4.761  0.0480 -0.0554  0.0461
 2171SOL     OW 8681   2.725   4.797   5.054 -0.4223 -0.0124 -0.0517
 2171SOL    HW1 8682   2.663   4.840   5.113  0.2830 -0.3240  0.9460
 2171SOL    HW2 8683   2.802   4.780   5.108 -0.2489 -1.5110 -0.7102
 2171SOL     MW 8684   2.727   4.801   5.069 -0.3041 -0.2560 -0.0061
 2172SOL     OW 8685   3.323   2.807   1.527  0.0759 -0.2538 -0.0743
 2172SOL    HW1 8686   3.344   2.792   1.619  1.5712 -0.5673 -0.4447
 2172SOL    HW2 8687   3.228   2.794   1.522 -0.1642  0.6097  1.5678
 2172SOL     MW 8688   3.313   2.803   1.539  0.2448 -0.1798  0.0969
 2173SOL     OW 8689   3.623   1.873   5.022  0.1966  0.0651  0.5247
 2173SOL    HW1 8690   3.645   1.905   4.935  0.0130 -0.7675  0.1704
 2173SOL    HW2 8691   3.549   1.928   5.049 -0.0850 -0.0196 -0.0614
 2173SOL     MW 8692   3.616   1.885   5.014  0.1340 -0.0584  0.3981
 2174SOL     OW 8693   0.659   3.356   5.283 -0.5238  0.3583 -0.1985
 2174SOL    HW1 8694   0.577   3.313   5.304 -0.4221  0.0932 -0.3377
 2174SOL    HW2 8695   0.724   3.286   5.281  0.0634  0.7748  1.7202
 2174SOL     MW 8696   0.657   3.341   5.286 -0.4311  0.3787  0.0410
 2175SOL     OW 8697   5.507   3.943   5.145  0.0837 -0.6264  0.5081
 2175SOL    HW1 8698   5.430   3.915   5.096  1.1856  1.0459 -2.4577
 2175SOL    HW2 8699   5.489   4.035   5.167  2.2905  0.8195 -2.9761
 2175SOL     MW 8700   5.494   3.952   5.142  0.5290 -0.2067 -0.3600
 2176SOL     OW 8701   2.901   4.680   5.257 -0.2449  0.2956 -0.6824
 2176SOL    HW1 8702   2.977   4.622   5.253 -0.3461 -0.3117  2.7963
 2176SOL    HW2 8703   2.829   4.627   5.224  0.5428  0.5071 -2.9523
 2176SOL     MW 8704   2.901   4.665   5.252 -0.1525  0.2423 -0.5197
 2177SOL     OW 8705   0.025   1.247   3.380 -0.3744 -0.2522 -0.0027
 2177SOL    HW1 8706   0.031   1.336   3.346 -0.2434 -0.1482  0.2879
 2177SOL    HW2 8707   0.046   1.191   3.305  0.4796 -0.0068  0.0445
 2177SOL     MW 8708   0.029   1.252   3.365 -0.2419 -0.2052  0.0428
 2178SOL     OW 8709   0.667   2.337   0.670 -0.6088  0.2156  0.3627
 2178SOL    HW1 8710   0.724   2.264   0.646  1.4204  1.4053  1.2705
 2178SOL    HW2 8711   0.590   2.297   0.709  1.0693 -1.4690  2.1591
 2178SOL     MW 8712   0.664   2.322   0.672 -0.1099  0.1490  0.7266
 2179SOL     OW 8713   4.639   5.155   4.933  0.1900  0.0798  1.0839
 2179SOL    HW1 8714   4.669   5.246   4.930  0.7226 -0.1141 -0.5672
 2179SOL    HW2 8715   4.544   5.160   4.932  0.1950  0.6442 -0.5586
 2179SOL     MW 8716   4.630   5.168   4.932  0.2624  0.1296  0.6406
 2180SOL     OW 8717   1.353   0.035   3.578 -0.4512  1.3536 -0.4933
 2180SOL    HW1 8718   1.431   0.078   3.543 -0.2308  0.7348 -0.7731
 2180SOL    HW2 8719   1.328  -0.028   3.511 -1.4350  1.8208 -0.5929
 2180SOL     MW 8720   1.360   0.032   3.564 -0.5540  1.3332 -0.5443
 2181SOL     OW 8721   1.467   0.576   4.831  0.1304 -0.3685  0.9698
 2181SOL    HW1 8722   1.560   0.590   4.850  0.0847 -0.2557  1.1100
 2181SOL    HW2 8723   1.429   0.664   4.828  0.5341 -0.2301 -1.7241
 2181SOL     MW 8724   1.474   0.590   4.833  0.1786 -0.3347  0.6261
 2182SOL     OW 8725   2.402   4.628   1.112  0.3183  0.2185 -0.2865
 2182SOL    HW1 8726   2.495   4.648   1.121  0.4819 -1.2692  2.6438
 2182SOL    HW2 8727   2.398   4.557   1.048  1.0903  0.6829 -0.8712
 2182SOL     MW 8728   2.414   4.621   1.105  0.4442  0.0808  0.0292
 2183SOL     OW 8729   3.193   0.901   0.856  0.0149  0.2408  0.2095
 2183SOL    HW1 8730   3.156   0.989   0.866 -1.1467 -0.3838  1.6154
 2183SOL    HW2 8731   3.121   0.848   0.824  0.2797 -0.5225  0.8490
 2183SOL     MW 8732   3.179   0.906   0.853 -0.1058  0.0540  0.4848
 2184SOL     OW 8733   4.926   3.001   3.288  1.0649 -0.3828  0.0865
 2184SOL    HW1 8734   4.869   3.008   3.364  1.1918 -2.0141  0.3685
 2184SOL    HW2 8735   4.929   2.907   3.269  0.5180  0.0037 -2.3244
 2184SOL     MW 8736   4.919   2.989   3.295  1.0084 -0.5503 -0.2000
 2185SOL     OW 8737   2.100   2.827   4.121  0.0770 -0.5691 -0.2227
 2185SOL    HW1 8738   2.097   2.737   4.089  0.6650 -1.1141  1.1643
 2185SOL    HW2 8739   2.123   2.819   4.214 -1.1337  0.9449  0.2589
 2185SOL     MW 8740   2.103   2.814   4.129 -0.0068 -0.4387  0.0288
 2186SOL     OW 8741   0.381   2.449   2.940  0.0252 -0.0270  0.1504
 2186SOL    HW1 8742   0.301   2.421   2.896  0.2412 -0.9401  0.3130
 2186SOL    HW2 8743   0.450   2.436   2.875 -0.1134  2.1495 -0.5087
 2186SOL     MW 8744   0.379   2.443   2.926  0.0356  0.1430  0.0836
 2187SOL     OW 8745   0.180   0.900   3.716  0.0702  0.0492  0.0320
 2187SOL    HW1 8746   0.267   0.907   3.756  0.3389  0.9116 -0.6819
 2187SOL    HW2 8747   0.173   0.977   3.659 -1.2114  0.0602  0.1689
 2187SOL     MW 8748   0.191   0.911   3.714 -0.0661  0.1668 -0.0457
 2188SOL     OW 8749   0.643   4.525   4.956  0.1153 -0.7191  0.1689
 2188SOL    HW1 8750   0.675   4.615   4.948 -0.6208 -0.5568 -1.3947
 2188SOL    HW2 8751   0.677   4.480   4.879 -1.3271 -1.1750 -0.2447
 2188SOL     MW 8752   0.652   4.531   4.944 -0.1779 -0.7586 -0.0972
 2189SOL     OW 8753   4.465   5.481   4.757  0.0075  0.4979  0.4072
 2189SOL    HW1 8754   4.464   5.546   4.686  0.7962 -1.5388 -1.5977
 2189SOL    HW2 8755   4.555   5.482   4.789 -0.3910  1.5465  1.5850
 2189SOL     MW 8756   4.477   5.490   4.752  0.0600  0.3649  0.2959
 2190SOL     OW 8757   3.251   3.687   1.574 -0.0861 -0.4896  0.5213
 2190SOL    HW1 8758   3.208   3.729   1.499 -0.4457 -0.7928  0.5561
 2190SOL    HW2 8759   3.332   3.650   1.537  0.5132  0.7087  0.6049
 2190SOL     MW 8760   3.257   3.688   1.559 -0.0538 -0.3691  0.5372
 2191SOL     OW 8761   0.503   3.928   5.035 -0.2394  0.6684 -0.1001
 2191SOL    HW1 8762   0.414   3.898   5.012 -0.2914  1.1403 -0.5118
 2191SOL    HW2 8763   0.561   3.866   4.991 -0.3425  1.3854 -1.2865
 2191SOL     MW 8764   0.499   3.915   5.026 -0.2603  0.8284 -0.3152
 2192SOL     OW 8765   3.181   1.574   0.795 -0.5036 -0.3251 -0.9581
 2192SOL    HW1 8766   3.263   1.539   0.830  1.0369  1.8790 -2.1383
 2192SOL    HW2 8767   3.127   1.497   0.778  1.1684 -1.8183  0.1857
 2192SOL     MW 8768   3.184   1.559   0.798 -0.0712 -0.2294 -0.9630
 2193SOL     OW 8769   4.837   1.571   4.552  0.3868  0.5033  0.4703
 2193SOL    HW1 8770   4.856   1.665   4.552  1.9505  0.2037  0.3397
 2193SOL    HW2 8771   4.770   1.561   4.620  1.0359  1.5617  1.3100
 2193SOL     MW 8772   4.830   1.582   4.561  0.6846  0.6054  0.5658
 2194SOL     OW 8773   1.205   2.991   5.436  0.3897  0.0767 -0.2059
 2194SOL    HW1 8774   1.250   2.945   5.366  0.3030 -1.5746  0.7636
 2194SOL    HW2 8775   1.152   3.057   5.391  0.9879 -0.3675 -1.6192
 2194SOL     MW 8776   1.204   2.993   5.421  0.4585 -0.2053 -0.2656
 2195SOL     OW 8777   4.731   3.206   3.659  0.1320  0.3617  0.0460
 2195SOL    HW1 8778   4.658   3.173   3.712 -1.7067  0.8352 -2.0190
 2195SOL    HW2 8779   4.745   3.139   3.592  1.5276  0.3519  0.3213
 2195SOL     MW 8780   4.723   3.193   3.657  0.0724  0.4241 -0.1948
 2196SOL     OW 8781   0.270   1.567   2.666 -0.1523 -0.2450 -0.1752
 2196SOL    HW1 8782   0.197   1.523   2.711 -0.2031 -0.8521 -0.8316
 2196SOL    HW2 8783   0.245   1.660   2.665  0.2365 -0.0799  1.7540
 2196SOL     MW 8784   0.257   1.574   2.672 -0.1068 -0.3045 -0.0039
 2197SOL     OW 8785   1.772   5.120   2.864 -0.2026 -0.2612  0.1339
 2197SOL    HW1 8786   1.752   5.036   2.905 -2.5018 -0.0475 -0.4144
 2197SOL    HW2 8787   1.743   5.186   2.927  0.2278  0.1147 -0.0510
 2197SOL     MW 8788   1.766   5.118   2.878 -0.4541 -0.1818  0.0353
 2198SOL     OW 8789   4.213   4.064   1.902 -0.3087 -0.1244 -0.6445
 2198SOL    HW1 8790   4.223   4.061   1.807  1.3658  0.5603 -0.5197
 2198SOL    HW2 8791   4.155   4.138   1.918 -0.6881 -0.3120 -1.1325
 2198SOL     MW 8792   4.207   4.073   1.891 -0.1344 -0.0575 -0.6934
 2199SOL     OW 8793   0.250   2.834   5.267 -0.3927 -0.6207 -0.1854
 2199SOL    HW1 8794   0.298   2.763   5.225 -0.6687 -0.5222 -0.6830
 2199SOL    HW2 8795   0.275   2.912   5.217  1.6564  0.0500  1.7101
 2199SOL     MW 8796   0.260   2.835   5.254 -0.1541 -0.5172  0.0027
 2200SOL     OW 8797   2.239   2.806   0.343  0.3396  0.2248  0.1001
 2200SOL    HW1 8798   2.165   2.864   0.365  0.4713 -0.0808  1.4567
 2200SOL    HW2 8799   2.246   2.747   0.418 -0.0243 -1.8383 -1.4142
 2200SOL     MW 8800   2.230   2.806   0.356  0.3084 -0.0940  0.0789
 2201SOL     OW 8801   2.316   5.307   5.075  0.1206  0.0782  0.5204
 2201SOL    HW1 8802   2.251   5.238   5.084 -0.4556  0.1543 -2.2013
 2201SOL    HW2 8803   2.271   5.386   5.106 -0.8314 -0.0164 -0.5623
 2201SOL     MW 8804   2.301   5.309   5.081 -0.0850  0.0757  0.0084
 2202SOL     OW 8805   3.075   3.637   2.255 -0.3558 -0.0094  0.0805
 2202SOL    HW1 8806   3.039   3.551   2.234 -0.9168 -0.2240  1.7667
 2202SOL    HW2 8807   3.004   3.682   2.301 -0.3869  1.7189 -1.5188
 2202SOL     MW 8808   3.061   3.632   2.258 -0.4355  0.1943  0.0922
 2203SOL     OW 8809   4.156   0.820   4.697 -0.4255  0.0723 -0.0100
 2203SOL    HW1 8810   4.189   0.782   4.779 -1.1915  1.3425  0.9295
 2203SOL    HW2 8811   4.227   0.807   4.634  0.9700  0.7238  1.3536
 2203SOL     MW 8812   4.170   0.813   4.700 -0.3408  0.3310  0.2999
 2204SOL     OW 8813   5.149   1.383   3.099  0.0131 -0.2562  0.3806
 2204SOL    HW1 8814   5.154   1.301   3.147  0.9515  0.1148  0.9382
 2204SOL    HW2 8815   5.078   1.370   3.036  1.8487 -2.5062 -1.4078
 2204SOL     MW 8816   5.140   1.370   3.097  0.3864 -0.5091  0.2150
 2205SOL     OW 8817   4.050   3.790   2.685  0.0601  0.2516 -0.2798
 2205SOL    HW1 8818   4.121   3.850   2.708 -0.9393  1.1303  0.6332
 2205SOL    HW2 8819   3.984   3.845   2.642 -0.1448 -0.5258 -1.0051
 2205SOL     MW 8820   4.051   3.805   2.682 -0.1020  0.2652 -0.2545
 2206SOL     OW 8821   3.412   3.411   2.194 -0.2693  0.5038 -0.4788
 2206SOL    HW1 8822   3.337   3.353   2.210  0.3922 -0.4595 -0.8410
 2206SOL    HW2 8823   3.488   3.362   2.227  0.3500  0.9852 -1.1724
 2206SOL     MW 8824   3.412   3.397   2.201 -0.0969  0.4389 -0.6209
 2207SOL     OW 8825   5.215   1.655   4.556  0.2157 -0.1623 -0.2088
 2207SOL    HW1 8826   5.276   1.693   4.494 -0.7997  1.9569  0.0144
 2207SOL    HW2 8827   5.184   1.575   4.514  2.0310 -0.5308 -0.9304
 2207SOL     MW 8828   5.219   1.649   4.542  0.3234  0.0733 -0.2759
 2208SOL     OW 8829   3.092   3.373   3.320 -0.1257  0.1810  0.6259
 2208SOL    HW1 8830   3.029   3.428   3.368  0.0783 -0.7676  2.0416
 2208SOL    HW2 8831   3.177   3.402   3.352  0.0051 -0.6005  0.9991
 2208SOL     MW 8832   3.095   3.385   3.331 -0.0806 -0.0518  0.8667
 2209SOL     OW 8833   0.061   2.481   4.843 -0.2087  0.1305  0.1205
 2209SOL    HW1 8834   0.015   2.515   4.766  0.5846  0.7713 -0.0889
 2209SOL    HW2 8835   0.147   2.524   4.840  1.0703 -2.2822 -0.4486
 2209SOL     MW 8836   0.066   2.492   4.832  0.0702 -0.1079  0.0157
 2210SOL     OW 8837   2.985   1.566   1.964  0.2173  0.9407 -0.3402
 2210SOL    HW1 8838   3.028   1.597   2.044 -0.6964  1.0114  0.1286
 2210SOL    HW2 8839   2.912   1.513   1.995  1.1516 -0.8974 -1.1224
 2210SOL     MW 8840   2.981   1.563   1.979  0.2201  0.7028 -0.3824
 2211SOL     OW 8841   5.383   4.278   5.446  0.1258 -0.0766  0.2040
 2211SOL    HW1 8842   5.450   4.339   5.476 -0.8169  0.2174  1.8149
 2211SOL    HW2 8843   5.404   4.196   5.491  0.4376 -0.4907 -0.6849
 2211SOL     MW 8844   5.395   4.275   5.456  0.0409 -0.0928  0.3012
 2212SOL     OW 8845   3.900   0.720   2.505 -0.1379  0.3943 -0.1855
 2212SOL    HW1 8846   3.939   0.764   2.430  1.2987  1.2066  0.9899
 2212SOL    HW2 8847   3.936   0.631   2.502  0.8954  0.7851  0.2061
 2212SOL     MW 8848   3.910   0.714   2.495  0.1945  0.5562  0.0254
 2213SOL     OW 8849   2.089   2.352   0.647 -0.0312  0.0661  0.3340
 2213SOL    HW1 8850   2.017   2.413   0.665 -1.7143 -2.2479  2.0402
 2213SOL    HW2 8851   2.071   2.320   0.558 -0.9883 -0.2577  0.6275
 2213SOL     MW 8852   2.077   2.356   0.637 -0.3865 -0.2889  0.6031
 2214SOL     OW 8853   1.893   1.315   2.356 -0.2428  0.2325 -0.0589
 2214SOL    HW1 8854   1.849   1.338   2.438 -0.6960  0.0322 -0.2433
 2214SOL    HW2 8855   1.886   1.394   2.302 -1.1259 -0.0666 -0.4033
 2214SOL     MW 8856   1.886   1.329   2.360 -0.4227  0.1653 -0.1301
 2215SOL     OW 8857   0.227   3.792   2.752 -0.0612 -0.6657 -0.1358
 2215SOL    HW1 8858   0.218   3.868   2.808  1.7948 -1.5181  1.4503
 2215SOL    HW2 8859   0.150   3.738   2.771 -0.3122 -0.1583  0.3080
 2215SOL     MW 8860   0.216   3.795   2.762  0.1548 -0.7121  0.1374
 2216SOL     OW 8861   1.775   0.585   3.574 -0.2893 -0.0451  0.5319
 2216SOL    HW1 8862   1.807   0.509   3.525  0.0159 -1.0420  2.2112
 2216SOL    HW2 8863   1.783   0.658   3.512 -0.0551 -1.2679 -0.9349
 2216SOL     MW 8864   1.781   0.585   3.559 -0.2167 -0.3438  0.5605
 2217SOL     OW 8865   2.287   3.510   2.234  0.0227 -0.1981 -0.2665
 2217SOL    HW1 8866   2.340   3.590   2.240 -0.5950  0.1523  0.9129
 2217SOL    HW2 8867   2.322   3.453   2.303  0.8641 -1.2433 -1.4840
 2217SOL     MW 8868   2.299   3.513   2.244  0.0528 -0.2916 -0.2716
 2218SOL     OW 8869   0.531   4.450   5.352  0.2869 -0.1193 -0.2486
 2218SOL    HW1 8870   0.598   4.414   5.294  0.5165 -1.0778  0.5978
 2218SOL    HW2 8871   0.453   4.397   5.334  0.3158 -0.3165  0.1941
 2218SOL     MW 8872   0.530   4.438   5.342  0.3217 -0.2748 -0.0751
 2219SOL     OW 8873   0.952   3.165   3.631 -0.5831 -0.2565  0.0369
 2219SOL    HW1 8874   0.969   3.201   3.718 -1.8102  0.7531 -0.1139
 2219SOL    HW2 8875   0.857   3.168   3.622 -0.4355  0.5716 -1.7045
 2219SOL     MW 8876   0.942   3.171   3.641 -0.7284 -0.0092 -0.2178
 2220SOL     OW 8877   4.122   1.095   2.484 -0.0600 -0.4281 -0.0917
 2220SOL    HW1 8878   4.208   1.101   2.526  0.4939 -1.2861 -1.0561
 2220SOL    HW2 8879   4.061   1.125   2.550  0.9427 -0.2152  0.7656
 2220SOL     MW 8880   4.126   1.100   2.498  0.1495 -0.5150 -0.1061
 2221SOL     OW 8881   2.730   1.987   3.485  0.4259 -0.5929 -0.0088
 2221SOL    HW1 8882   2.674   2.060   3.510  0.0330 -0.4078 -1.3512
 2221SOL    HW2 8883   2.717   1.922   3.554 -1.4171 -0.5420 -0.2688
 2221SOL     MW 8884   2.721   1.988   3.497  0.1250 -0.5611 -0.2244
 2222SOL     OW 8885   3.473   5.054   1.871  0.3189  0.4528  0.4827
 2222SOL    HW1 8886   3.513   5.000   1.803  0.9806  0.8839  0.5306
 2222SOL    HW2 8887   3.379   5.033   1.865  0.5148 -0.3947  0.2311
 2222SOL     MW 8888   3.466   5.044   1.861  0.4343  0.3967  0.4553
 2223SOL     OW 8889   5.259   2.312   2.452 -0.0920  0.4158  0.9096
 2223SOL    HW1 8890   5.257   2.320   2.357 -1.3094  1.0854  0.9669
 2223SOL    HW2 8891   5.180   2.261   2.473  0.2132  0.1974  1.5529
 2223SOL     MW 8892   5.248   2.306   2.442 -0.2148  0.4765  1.0039
 2224SOL     OW 8893   1.153   2.589   3.341  0.0318 -0.1713 -0.3263
 2224SOL    HW1 8894   1.065   2.625   3.336  0.4368  0.7811 -1.0504
 2224SOL    HW2 8895   1.207   2.662   3.373  0.6084 -0.6376 -0.2241
 2224SOL     MW 8896   1.149   2.604   3.344  0.1639 -0.1059 -0.4100
 2225SOL     OW 8897   3.441   1.914   0.970 -0.4536  0.5118  0.2887
 2225SOL    HW1 8898   3.348   1.932   0.955 -0.4643 -0.2731 -0.6220
 2225SOL    HW2 8899   3.470   1.867   0.892  0.7525  0.8644  0.4984
 2225SOL     MW 8900   3.432   1.910   0.958 -0.2927  0.4536  0.1944
 2226SOL     OW 8901   1.226   1.144   1.230  0.3036 -0.9753  0.5165
 2226SOL    HW1 8902   1.216   1.061   1.184  0.8667 -0.6677 -0.1715
 2226SOL    HW2 8903   1.320   1.155   1.241  0.2836  0.0018 -0.1985
 2226SOL     MW 8904   1.237   1.135   1.225  0.3767 -0.8024  0.3277
 2227SOL     OW 8905   0.417   4.565   2.164 -0.3227 -0.1581  0.1043
 2227SOL    HW1 8906   0.361   4.613   2.226  0.3132  2.1486 -1.0046
 2227SOL    HW2 8907   0.362   4.552   2.087 -0.0470  0.1171 -0.1432
 2227SOL     MW 8908   0.402   4.570   2.162 -0.2000  0.1894 -0.0782
 2228SOL     OW 8909   0.219   0.552   0.173 -0.3144 -0.3012  0.0092
 2228SOL    HW1 8910   0.231   0.609   0.249 -2.6749  1.6002 -0.9433
 2228SOL    HW2 8911   0.306   0.549   0.132  0.2599  1.2233  1.0280
 2228SOL     MW 8912   0.232   0.559   0.178 -0.5548  0.1599  0.0181
 2229SOL     OW 8913   4.488   3.908   3.982  0.2039  0.4878 -0.2396
 2229SOL    HW1 8914   4.509   3.997   3.955  0.4942  0.0864 -1.4142
 2229SOL    HW2 8915   4.458   3.865   3.902 -0.0702 -0.4340  0.3364
 2229SOL     MW 8916   4.487   3.914   3.968  0.2061  0.3097 -0.3202
 2230SOL     OW 8917   0.011   2.505   3.696 -0.4587  0.3639  0.5383
 2230SOL    HW1 8918   0.038   2.436   3.635  0.4801  0.9646  0.2494
 2230SOL    HW2 8919   0.093   2.549   3.719 -1.0130  1.1916  0.9478
 2230SOL     MW 8920   0.026   2.502   3.691 -0.4070  0.5562  0.5545
 2231SOL     OW 8921   0.232   5.078   2.660  0.0380 -0.2630  0.1879
 2231SOL    HW1 8922   0.326   5.098   2.662 -0.0039  0.1587 -1.1621
 2231SOL    HW2 8923   0.221   5.012   2.729  1.3241 -0.3330  0.3643
 2231SOL     MW 8924   0.243   5.071   2.670  0.2054 -0.2157  0.0300
 2232SOL     OW 8925   1.963   2.262   0.145  0.4498  0.5707  0.1250
 2232SOL    HW1 8926   1.942   2.172   0.120 -0.3952 -0.2311  3.2157
 2232SOL    HW2 8927   2.035   2.287   0.088 -0.7669 -1.1902 -2.3912
 2232SOL     MW 8928   1.970   2.254   0.134  0.1723  0.2258  0.2023
 2233SOL     OW 8929   3.039   4.930   3.437 -0.3218 -0.2400 -0.0493
 2233SOL    HW1 8930   3.058   5.005   3.381  1.0863 -1.6994 -1.6336
 2233SOL    HW2 8931   2.949   4.906   3.416 -0.5096  0.5148 -0.1248
 2233SOL     MW 8932   3.030   4.937   3.427 -0.1576 -0.3348 -0.2727
 2234SOL     OW 8933   2.121   4.783   4.686 -0.3303  0.5595 -0.0362
 2234SOL    HW1 8934   2.040   4.813   4.727 -0.1364 -0.7789  1.4136
 2234SOL    HW2 8935   2.093   4.738   4.606 -1.0080  0.2842  0.3503
 2234SOL     MW 8936   2.106   4.781   4.681 -0.3955  0.3424  0.2109
 2235SOL     OW 8937   2.745   4.160   4.810  0.0243  0.7295  0.1381
 2235SOL    HW1 8938   2.729   4.161   4.904  0.0448  2.7402  0.1679
 2235SOL    HW2 8939   2.840   4.167   4.801  0.3403 -2.4241 -0.0837
 2235SOL     MW 8940   2.756   4.161   4.821  0.0696  0.5757  0.1123
 2236SOL     OW 8941   2.032   2.227   0.406  0.2782 -0.3344  0.0160
 2236SOL    HW1 8942   1.966   2.169   0.444  1.8859 -2.1790  0.1483
 2236SOL    HW2 8943   1.995   2.253   0.322 -0.3988 -1.7573 -0.1644
 2236SOL     MW 8944   2.018   2.223   0.400  0.4035 -0.7742  0.0095
 2237SOL     OW 8945   4.448   1.555   5.195  0.1063  0.3607 -0.3058
 2237SOL    HW1 8946   4.426   1.547   5.102  3.5171  2.4055 -1.4935
 2237SOL    HW2 8947   4.496   1.475   5.215 -0.6228 -0.0779 -0.2950
 2237SOL     MW 8948   4.452   1.544   5.185  0.4672  0.5769 -0.4642
 2238SOL     OW 8949   3.969   2.862   5.289  0.1569  0.0010 -0.8104
 2238SOL    HW1 8950   3.965   2.806   5.212 -1.0252 -0.1396 -0.6618
 2238SOL    HW2 8951   3.898   2.925   5.277  0.9665  0.9792 -0.5905
 2238SOL     MW 8952   3.959   2.863   5.277  0.1068  0.1137 -0.7608
 2239SOL     OW 8953   1.357   5.468   5.092 -0.3051  0.1328 -0.2562
 2239SOL    HW1 8954   1.401   5.550   5.068 -0.0932 -0.2193 -1.0978
 2239SOL    HW2 8955   1.267   5.494   5.111  0.0982  0.7752  0.9225
 2239SOL     MW 8956   1.351   5.483   5.091 -0.2223  0.1718 -0.2108
 2240SOL     OW 8957   2.616   4.574   4.965 -0.3124  0.2043  0.1941
 2240SOL    HW1 8958   2.665   4.653   4.984 -0.9504  0.8957 -0.8882
 2240SOL    HW2 8959   2.525   4.596   4.985 -0.3321 -0.7067  1.1698
 2240SOL     MW 8960   2.610   4.587   4.970 -0.4009  0.1747  0.1798
 2241SOL     OW 8961   0.027   0.872   4.488 -0.4731  0.0174  0.4133
 2241SOL    HW1 8962   0.033   0.837   4.400  0.0388 -0.1854  0.5267
 2241SOL    HW2 8963  -0.047   0.826   4.528  1.1640 -2.1519  1.1045
 2241SOL     MW 8964   0.017   0.861   4.482 -0.1839 -0.3018  0.5216
 2242SOL     OW 8965   0.349   5.296   2.922  0.1817 -0.8029  0.5190
 2242SOL    HW1 8966   0.311   5.305   2.835  0.3719 -0.0462  0.5109
 2242SOL    HW2 8967   0.273   5.295   2.981  0.0206 -1.8377  0.3231
 2242SOL     MW 8968   0.334   5.297   2.918  0.1856 -0.8403  0.4916
 2243SOL     OW 8969   0.042   0.576   1.464  0.7741 -0.7174  0.3271
 2243SOL    HW1 8970   0.003   0.498   1.422  0.2646 -0.2706 -0.0462
 2243SOL    HW2 8971   0.123   0.544   1.503  1.4824 -1.0631 -1.3708
 2243SOL     MW 8972   0.047   0.561   1.464  0.8008 -0.7038  0.0484
 2244SOL     OW 8973   1.122   0.711   0.899 -0.1489  0.1847 -0.3467
 2244SOL    HW1 8974   1.184   0.727   0.829  0.3520 -1.5716 -0.3543
 2244SOL    HW2 8975   1.136   0.619   0.923 -1.4712  0.2709  0.9011
 2244SOL     MW 8976   1.132   0.700   0.893 -0.2595 -0.0401 -0.1798
 2245SOL     OW 8977   1.291   5.351   2.128  0.2424 -0.5025  0.3390
 2245SOL    HW1 8978   1.228   5.324   2.194  0.4871  0.6637  1.0869
 2245SOL    HW2 8979   1.366   5.382   2.178  0.3184  0.6875 -0.4637
 2245SOL     MW 8980   1.293   5.352   2.144  0.2856 -0.1854  0.3317
 2246SOL     OW 8981   1.457   3.094   5.051  0.0035  0.1876  0.0845
 2246SOL    HW1 8982   1.544   3.081   5.015 -0.6643 -0.9206 -1.2335
 2246SOL    HW2 8983   1.442   3.016   5.105 -0.3541  0.1224 -0.1033
 2246SOL     MW 8984   1.466   3.082   5.054 -0.1345  0.0297 -0.1181
 2247SOL     OW 8985   5.119   0.738   4.365 -0.2273  0.2065 -0.0616
 2247SOL    HW1 8986   5.152   0.756   4.453 -1.6441  1.9916  0.1593
 2247SOL    HW2 8987   5.024   0.738   4.374 -0.3872 -1.7404 -1.2344
 2247SOL     MW 8988   5.111   0.741   4.378 -0.4395  0.1847 -0.1897
 2248SOL     OW 8989   3.835   0.086   3.333 -0.5142 -0.0134 -0.4642
 2248SOL    HW1 8990   3.785   0.131   3.265 -2.6111 -0.7921  0.4366
 2248SOL    HW2 8991   3.786   0.104   3.414  1.9692  1.0065  0.9158
 2248SOL     MW 8992   3.821   0.094   3.335 -0.4622  0.0191 -0.1572
 2249SOL     OW 8993   3.283   3.779   3.298 -0.1755  0.1316  0.3661
 2249SOL    HW1 8994   3.281   3.733   3.214  0.6938  1.1386 -0.2408
 2249SOL    HW2 8995   3.192   3.784   3.325 -0.5438  0.3963 -0.8645
 2249SOL     MW 8996   3.271   3.773   3.290 -0.1081  0.3027  0.1188
 2250SOL     OW 8997   5.470   0.378   3.433 -0.5789  0.2107 -0.4285
 2250SOL    HW1 8998   5.451   0.299   3.484  0.0402 -0.3317 -1.0355
 2250SOL    HW2 8999   5.516   0.435   3.495 -0.7988  0.0044 -0.0655
 2250SOL     MW 9000   5.473   0.375   3.448 -0.5252  0.1099 -0.4613
 2251SOL     OW 9001   0.658   5.145   1.296 -0.3873 -0.2068 -0.2884
 2251SOL    HW1 9002   0.704   5.165   1.215 -0.6517  1.6744 -0.0164
 2251SOL    HW2 9003   0.570   5.182   1.284 -0.7401 -0.7410  0.4987
 2251SOL     MW 9004   0.652   5.153   1.284 -0.4704 -0.0255 -0.1459
 2252SOL     OW 9005   2.447   2.676   1.939 -0.6585 -0.6587 -0.4528
 2252SOL    HW1 9006   2.514   2.705   2.002  0.0541 -3.1122  0.0158
 2252SOL    HW2 9007   2.369   2.726   1.963  0.6844  1.5913 -0.3983
 2252SOL     MW 9008   2.446   2.687   1.951 -0.3818 -0.6861 -0.3824
 2253SOL     OW 9009   4.630   4.164   4.416  0.2602 -0.1748  0.1459
 2253SOL    HW1 9010   4.682   4.093   4.377 -0.7504 -0.6590 -0.3586
 2253SOL    HW2 9011   4.595   4.212   4.341 -1.0711 -0.6394  0.4476
 2253SOL     MW 9012   4.632   4.161   4.401 -0.0549 -0.3025  0.1186
 2254SOL     OW 9013   3.623   4.064   0.219 -0.4098  0.1255  0.8816
 2254SOL    HW1 9014   3.684   4.007   0.265  1.3899  1.7943  0.6975
 2254SOL    HW2 9015   3.640   4.151   0.255 -1.3578  0.9491 -0.5418
 2254SOL     MW 9016   3.633   4.068   0.230 -0.2952  0.4609  0.6652
 2255SOL     OW 9017   4.299   1.281   1.424  0.2611 -0.2568  0.0803
 2255SOL    HW1 9018   4.277   1.208   1.482  0.3801 -0.0987  0.3241
 2255SOL    HW2 9019   4.255   1.259   1.342 -2.5954  1.0226  1.1075
 2255SOL     MW 9020   4.290   1.268   1.421 -0.1074 -0.0633  0.2513
 2256SOL     OW 9021   2.470   3.445   5.026 -0.7314 -0.0295  0.4496
 2256SOL    HW1 9022   2.484   3.352   5.043 -0.4799 -0.1168 -0.2083
 2256SOL    HW2 9023   2.376   3.458   5.043 -1.1111 -0.7481 -0.9405
 2256SOL     MW 9024   2.459   3.434   5.031 -0.7487 -0.1379  0.1740
 2257SOL     OW 9025   3.715   3.320   0.200 -0.2759 -0.5034 -0.2250
 2257SOL    HW1 9026   3.691   3.349   0.288 -0.3468 -2.2437  0.3615
 2257SOL    HW2 9027   3.791   3.373   0.177 -0.4069  0.1348  0.7828
 2257SOL     MW 9028   3.722   3.331   0.208 -0.3031 -0.6517 -0.0104
 2258SOL     OW 9029   0.401  -0.017   5.124  0.5234  0.1513  0.3741
 2258SOL    HW1 9030   0.334   0.045   5.152  1.1860  0.5367  1.1546
 2258SOL    HW2 9031   0.418   0.006   5.032  1.2511  1.6055  0.8386
 2258SOL     MW 9032   0.394  -0.006   5.115  0.7105  0.3989  0.5417
 2259SOL     OW 9033   0.880   3.845   0.549 -0.2769  0.1227 -0.0048
 2259SOL    HW1 9034   0.875   3.755   0.518 -0.2165  0.5837 -1.3978
 2259SOL    HW2 9035   0.935   3.890   0.485  2.1395  0.5449  2.1634
 2259SOL     MW 9036   0.887   3.839   0.536  0.0565  0.2416  0.0995
 2260SOL     OW 9037   2.355   2.765   3.393 -0.1867  0.2532  0.3042
 2260SOL    HW1 9038   2.260   2.752   3.395 -0.2550  0.5523 -0.5521
 2260SOL    HW2 9039   2.372   2.804   3.307  0.6996  0.3096  0.4963
 2260SOL     MW 9040   2.345   2.768   3.382 -0.0766  0.3010  0.2148
 2261SOL     OW 9041   2.072   3.015   3.794  0.3676 -0.1486 -0.2854
 2261SOL    HW1 9042   2.154   2.969   3.773 -0.1618 -0.7815 -1.0724
 2261SOL    HW2 9043   2.094   3.108   3.786  1.3414 -0.2600  0.8517
 2261SOL     MW 9044   2.086   3.021   3.790  0.4274 -0.2488 -0.2383
 2262SOL     OW 9045   1.520   2.606   0.098  0.4270  0.0502  0.1295
 2262SOL    HW1 9046   1.607   2.645   0.098  0.9195 -1.0368  0.4925
 2262SOL    HW2 9047   1.534   2.513   0.111 -0.7359 -0.2724 -0.6973
 2262SOL     MW 9048   1.533   2.599   0.100  0.3368 -0.1395  0.0671
 2263SOL     OW 9049   2.340   0.956   1.690 -0.4192 -0.2364 -0.1033
 2263SOL    HW1 9050   2.356   1.027   1.753  0.0582  0.1299 -0.6344
 2263SOL    HW2 9051   2.256   0.978   1.650 -0.6700 -0.4109  0.3236
 2263SOL     MW 9052   2.331   0.969   1.693 -0.3887 -0.2106 -0.1173
 2264SOL     OW 9053   2.242   4.214   2.437 -0.7479  0.1847  0.4405
 2264SOL    HW1 9054   2.157   4.248   2.464 -0.4245  0.0702  1.6589
 2264SOL    HW2 9055   2.255   4.136   2.490 -0.3458 -0.3937 -0.4912
 2264SOL     MW 9056   2.233   4.208   2.447 -0.6503  0.0914  0.4791
 2265SOL     OW 9057   5.040   4.879   0.652 -0.3160  0.6406 -0.1551
 2265SOL    HW1 9058   5.135   4.894   0.647 -0.2458  0.5066  0.6773
 2265SOL    HW2 9059   5.031   4.784   0.666 -0.6920  0.1215 -3.2496
 2265SOL     MW 9060   5.052   4.868   0.653 -0.3571  0.5527 -0.4595
 2266SOL     OW 9061   0.423   3.528   1.097  0.3943 -0.4886 -0.1543
 2266SOL    HW1 9062   0.382   3.614   1.089 -0.4893 -1.0136 -1.9049
 2266SOL    HW2 9063   0.364   3.469   1.050  1.1492 -2.0008  0.7150
 2266SOL     MW 9064   0.409   3.531   1.090  0.3770 -0.7628 -0.2729
 2267SOL     OW 9065   3.972   0.282   1.331  0.3826 -0.0721 -0.0318
 2267SOL    HW1 9066   3.913   0.220   1.288  0.2442 -0.5169  0.7803
 2267SOL    HW2 9067   4.044   0.229   1.364  0.5028  0.2626  0.2612
 2267SOL     MW 9068   3.974   0.267   1.330  0.3802 -0.0869  0.1169
 2268SOL     OW 9069   4.903   0.223   2.692  0.2267  0.1853  0.1308
 2268SOL    HW1 9070   4.888   0.262   2.606  0.4485 -1.7149 -0.8074
 2268SOL    HW2 9071   4.929   0.133   2.674 -1.3764 -0.7912  2.2521
 2268SOL     MW 9072   4.905   0.216   2.678  0.0408 -0.2018  0.2900
 2269SOL     OW 9073   1.472   0.653   4.222  0.5638  0.6103 -0.4531
 2269SOL    HW1 9074   1.470   0.634   4.128  2.3451 -0.7509 -0.2726
 2269SOL    HW2 9075   1.565   0.653   4.245  0.1302 -0.5930  1.5735
 2269SOL     MW 9076   1.484   0.650   4.213  0.7452  0.2651 -0.1561
 2270SOL     OW 9077   4.248   4.744   4.149 -0.4589  0.6512 -0.1558
 2270SOL    HW1 9078   4.327   4.742   4.094  0.7507 -0.9679  1.4930
 2270SOL    HW2 9079   4.254   4.827   4.196  1.0011  0.0430  0.8390
 2270SOL     MW 9080   4.260   4.755   4.148 -0.0996  0.3515  0.2000
 2271SOL     OW 9081   3.190   5.168   1.774  0.7014  0.1868  0.4881
 2271SOL    HW1 9082   3.222   5.111   1.704 -1.8294  1.0539 -1.5505
 2271SOL    HW2 9083   3.135   5.110   1.828 -0.5123  0.2436 -0.6113
 2271SOL     MW 9084   3.187   5.152   1.772  0.1975  0.3111  0.0658
 2272SOL     OW 9085   1.845   2.316   5.120  0.2943  0.3211  0.0709
 2272SOL    HW1 9086   1.798   2.283   5.196 -0.2971 -0.8750 -0.7815
 2272SOL    HW2 9087   1.834   2.411   5.123 -1.3208  0.1378  0.4451
 2272SOL     MW 9088   1.837   2.324   5.131 -0.0027  0.1355  0.0065
 2273SOL     OW 9089   5.113   0.759   0.798  0.0219 -0.1538 -1.0344
 2273SOL    HW1 9090   5.059   0.830   0.833  0.8789  0.2052 -0.4006
 2273SOL    HW2 9091   5.202   0.794   0.798  0.4979 -1.3023 -0.4733
 2273SOL     MW 9092   5.118   0.773   0.803  0.2013 -0.2601 -0.8736
 2274SOL     OW 9093   4.831   4.697   3.410  0.4016  0.0133 -0.0699
 2274SOL    HW1 9094   4.922   4.689   3.440  0.8545 -1.3070 -1.6382
 2274SOL    HW2 9095   4.810   4.611   3.374 -0.0949  1.3571 -3.3344
 2274SOL     MW 9096   4.840   4.685   3.409  0.3958  0.0165 -0.7203
 2275SOL     OW 9097   2.791   0.615   0.246  0.1538 -0.0763 -0.2941
 2275SOL    HW1 9098   2.730   0.627   0.319 -1.9182 -2.8148 -1.3625
 2275SOL    HW2 9099   2.792   0.699   0.201 -1.7536  0.4890  0.6055
 2275SOL     MW 9100   2.783   0.628   0.250 -0.3817 -0.3688 -0.3168
 2276SOL     OW 9101   4.717   2.972   5.105 -0.0589 -0.5770  0.1540
 2276SOL    HW1 9102   4.764   3.053   5.083  1.5224 -1.3568  0.5275
 2276SOL    HW2 9103   4.678   2.944   5.023  1.0993 -0.5027 -0.4454
 2276SOL     MW 9104   4.718   2.979   5.091  0.3098 -0.6719  0.1236
 2277SOL     OW 9105   3.031   4.859   1.011  0.0093  0.0918  0.3558
 2277SOL    HW1 9106   3.108   4.848   0.956 -0.7710  1.0458 -0.9851
 2277SOL    HW2 9107   3.065   4.881   1.098  1.2321  0.1330 -0.1292
 2277SOL     MW 9108   3.046   4.860   1.016  0.0689  0.2257  0.1101
 2278SOL     OW 9109   3.815   2.472   2.775 -0.3290 -0.6389 -0.3194
 2278SOL    HW1 9110   3.793   2.453   2.866 -2.0270 -0.1442 -0.5933
 2278SOL    HW2 9111   3.911   2.468   2.772 -0.2661 -1.1584  1.3625
 2278SOL     MW 9112   3.825   2.469   2.787 -0.5490 -0.6423 -0.1299
 2279SOL     OW 9113   2.352   4.985   1.550  0.2366 -0.3542 -0.3583
 2279SOL    HW1 9114   2.366   4.989   1.455 -1.3797  1.8368 -0.5796
 2279SOL    HW2 9115   2.259   5.007   1.561  0.3892 -0.5793  1.7401
 2279SOL     MW 9116   2.341   4.988   1.538  0.0396 -0.0897 -0.1057
 2280SOL     OW 9117   0.151   4.814   0.357  0.3369  0.0834  0.4133
 2280SOL    HW1 9118   0.217   4.787   0.292  1.3039 -3.1458  2.5221
 2280SOL    HW2 9119   0.068   4.783   0.321  0.2534  1.7734 -0.9948
 2280SOL     MW 9120   0.149   4.806   0.343  0.4558 -0.1237  0.5076
 2281SOL     OW 9121   3.276   1.976   0.337  0.3222  0.3058 -0.4431
 2281SOL    HW1 9122   3.220   2.053   0.322  0.3926  0.2847 -0.8331
 2281SOL    HW2 9123   3.246   1.912   0.273 -0.7881 -0.5769  0.9282
 2281SOL     MW 9124   3.265   1.978   0.326  0.1823  0.1842 -0.3110
 2282SOL     OW 9125   1.233   4.841   5.059 -0.6280  0.1589 -0.0435
 2282SOL    HW1 9126   1.159   4.791   5.093  0.0883  0.2011  1.6746
 2282SOL    HW2 9127   1.230   4.924   5.106  0.4044  0.2302 -0.0795
 2282SOL     MW 9128   1.223   4.845   5.070 -0.3927  0.1742  0.1829
 2283SOL     OW 9129   4.622   0.326   3.752 -0.0779 -0.0619 -0.0256
 2283SOL    HW1 9130   4.689   0.374   3.703 -0.1330 -1.2857 -1.3578
 2283SOL    HW2 9131   4.552   0.389   3.765 -0.5916 -0.0121 -2.6497
 2283SOL     MW 9132   4.622   0.341   3.747 -0.1544 -0.2199 -0.5580
 2284SOL     OW 9133   1.779   0.264   3.950 -0.3639  0.3209  0.0995
 2284SOL    HW1 9134   1.859   0.310   3.921 -0.5572  0.2714 -0.5303
 2284SOL    HW2 9135   1.759   0.302   4.035 -1.0306  2.0790 -0.7904
 2284SOL     MW 9136   1.787   0.275   3.958 -0.4796  0.5508 -0.1050
 2285SOL     OW 9137   3.257   4.913   3.183 -0.3842  0.4885  0.4253
 2285SOL    HW1 9138   3.178   4.860   3.173  0.0627 -0.1919  0.4129
 2285SOL    HW2 9139   3.307   4.869   3.252  1.6251 -1.1690 -1.8982
 2285SOL     MW 9140   3.253   4.900   3.191 -0.0536  0.1739  0.1109
 2286SOL     OW 9141   2.469   2.158   0.076  0.0716 -0.2486  0.2185
 2286SOL    HW1 9142   2.409   2.138   0.005  0.7971 -0.1953 -0.4225
 2286SOL    HW2 9143   2.424   2.225   0.127 -0.2853  0.0187 -0.4324
 2286SOL     MW 9144   2.455   2.164   0.073  0.1212 -0.2054  0.0446
 2287SOL     OW 9145   1.413   0.156   3.999 -0.1642  0.5138  0.0202
 2287SOL    HW1 9146   1.440   0.234   3.951 -0.5576  1.8850  1.9472
 2287SOL    HW2 9147   1.397   0.090   3.930  0.8914  1.8723 -1.5889
 2287SOL     MW 9148   1.414   0.157   3.983 -0.0751  0.8812  0.0630
 2288SOL     OW 9149   1.669   4.263   3.947  0.1768 -0.6120 -0.4784
 2288SOL    HW1 9150   1.694   4.266   3.855 -1.5390  0.6706 -0.9443
 2288SOL    HW2 9151   1.574   4.250   3.946  0.1175 -0.5063  1.1215
 2288SOL     MW 9152   1.660   4.261   3.935 -0.0621 -0.4251 -0.3258
 2289SOL     OW 9153   4.034   4.987   0.307 -0.6810  0.4899  0.3563
 2289SOL    HW1 9154   4.066   4.932   0.378  0.0378  1.3247  0.6891
 2289SOL    HW2 9155   4.063   4.942   0.227 -0.1688  0.3480  0.6174
 2289SOL     MW 9156   4.042   4.973   0.306 -0.5153  0.5831  0.4362
 2290SOL     OW 9157   1.128   2.853   4.449  0.0850 -0.1924 -1.1833
 2290SOL    HW1 9158   1.061   2.806   4.498  0.4327  0.0067 -0.4971
 2290SOL    HW2 9159   1.101   2.846   4.358 -1.2989  0.5753 -0.8573
 2290SOL     MW 9160   1.116   2.846   4.443 -0.0545 -0.0623 -1.0470
 2291SOL     OW 9161   4.861   1.340   0.697 -0.0887  0.0696  0.0358
 2291SOL    HW1 9162   4.919   1.357   0.623 -0.3140 -0.0405 -0.1683
 2291SOL    HW2 9163   4.773   1.355   0.662 -0.4994 -3.2840 -0.7255
 2291SOL     MW 9164   4.857   1.344   0.682 -0.1743 -0.3966 -0.0941
 2292SOL     OW 9165   3.456   3.208   5.073 -0.2619 -0.0058 -0.2701
 2292SOL    HW1 9166   3.488   3.120   5.050 -1.4515 -0.0796 -1.7776
 2292SOL    HW2 9167   3.391   3.193   5.141 -0.0549 -0.2453 -0.1244
 2292SOL     MW 9168   3.452   3.194   5.079 -0.3942 -0.0480 -0.4534
 2293SOL     OW 9169   1.846   2.939   1.315  0.1956  0.4895  0.9635
 2293SOL    HW1 9170   1.869   2.907   1.228  1.1894  1.3173  0.9094
 2293SOL    HW2 9171   1.761   2.983   1.303  0.2059  0.3755  0.4719
 2293SOL     MW 9172   1.837   2.941   1.302  0.3307  0.5856  0.8900
 2294SOL     OW 9173   1.467   2.635   5.143  0.2498 -0.2046  0.0793
 2294SOL    HW1 9174   1.444   2.581   5.218  0.6600 -0.7057 -0.1491
 2294SOL    HW2 9175   1.424   2.592   5.069  0.8606 -0.4199 -0.1545
 2294SOL     MW 9176   1.458   2.622   5.143  0.3872 -0.3010  0.0171
 2295SOL     OW 9177   1.497   1.682   4.405  0.0121 -0.1539 -0.3311
 2295SOL    HW1 9178   1.432   1.619   4.375  0.5355 -0.2834 -1.2273
 2295SOL    HW2 9179   1.572   1.668   4.348  0.4150  0.7587 -0.0436
 2295SOL     MW 9180   1.498   1.672   4.394  0.1367 -0.0485 -0.4130
 2296SOL     OW 9181   3.309   1.417   5.470  0.0413  0.4774  0.1497
 2296SOL    HW1 9182   3.391   1.389   5.510  0.0629 -2.0134 -1.4492
 2296SOL    HW2 9183   3.335   1.485   5.408  0.4235  1.9075  1.7899
 2296SOL     MW 9184   3.323   1.423   5.467  0.0956  0.3346  0.1553
 2297SOL     OW 9185   3.506   5.237   4.279 -0.3098  0.3974 -0.2727
 2297SOL    HW1 9186   3.435   5.208   4.338 -0.4000  0.4249 -0.3676
 2297SOL    HW2 9187   3.527   5.325   4.310  0.0945  0.1614  0.1370
 2297SOL     MW 9188   3.499   5.245   4.291 -0.2675  0.3693 -0.2303
 2298SOL     OW 9189   2.289   2.620   4.747  0.2036 -0.1644  0.7196
 2298SOL    HW1 9190   2.360   2.668   4.705 -0.8094  0.4582 -0.3375
 2298SOL    HW2 9191   2.328   2.535   4.769  0.6983 -0.7278 -1.9580
 2298SOL     MW 9192   2.304   2.615   4.745  0.1338 -0.1564  0.2170
 2299SOL     OW 9193   2.257   1.346   5.421 -0.3612  0.0581  0.7014
 2299SOL    HW1 9194   2.309   1.414   5.377 -2.2428  0.8846 -0.3800
 2299SOL    HW2 9195   2.210   1.392   5.490 -1.7371 -0.0622 -0.1082
 2299SOL     MW 9196   2.258   1.361   5.424 -0.7996  0.1532  0.4469
 2300SOL     OW 9197   2.013   1.915   1.988  0.2556  0.0452 -0.4603
 2300SOL    HW1 9198   2.022   2.010   1.989 -1.6024  0.2815  0.9938
 2300SOL    HW2 9199   1.974   1.895   1.903  0.6804  0.5809 -0.7833
 2300SOL     MW 9200   2.009   1.925   1.977  0.0627  0.1491 -0.3081
 2301SOL     OW 9201   3.409   3.578   5.279  0.1026  0.1613  0.3027
 2301SOL    HW1 9202   3.474   3.509   5.266  1.0401  1.0245  0.3041
 2301SOL    HW2 9203   3.339   3.536   5.330  0.5391 -0.8425  0.1011
 2301SOL     MW 9204   3.408   3.563   5.284  0.2875  0.1424  0.2757
 2302SOL     OW 9205   2.117   1.470   0.114  0.0292  0.4471 -0.3109
 2302SOL    HW1 9206   2.081   1.536   0.055 -0.7168  0.4620  0.1372
 2302SOL    HW2 9207   2.041   1.418   0.140  0.6473 -0.7382 -0.8350
 2302SOL     MW 9208   2.102   1.472   0.110  0.0120  0.2896 -0.3211
 2303SOL     OW 9209   3.662   2.139   1.728 -0.6975  0.0471 -0.4882
 2303SOL    HW1 9210   3.755   2.130   1.747 -0.8991 -0.3492  0.3462
 2303SOL    HW2 9211   3.622   2.159   1.812 -1.2140  1.5591 -1.0538
 2303SOL     MW 9212   3.669   2.140   1.742 -0.7941  0.1972 -0.4520
 2304SOL     OW 9213   2.464   1.275   1.210 -0.4176  0.5968  0.0496
 2304SOL    HW1 9214   2.456   1.361   1.253 -1.4025 -0.3991  1.9815
 2304SOL    HW2 9215   2.550   1.243   1.237 -1.1384 -0.1394  1.6092
 2304SOL     MW 9216   2.475   1.282   1.220 -0.6472  0.3637  0.5195
 2305SOL     OW 9217   3.374   2.401   2.147  0.1320 -0.2979 -0.0808
 2305SOL    HW1 9218   3.451   2.443   2.188  1.1896 -0.4322 -1.8388
 2305SOL    HW2 9219   3.357   2.325   2.202  0.4586  0.4097  1.0583
 2305SOL     MW 9220   3.382   2.397   2.160  0.3183 -0.2207 -0.1641
 2306SOL     OW 9221   3.112   2.990   2.008 -0.1955 -0.1412  0.3511
 2306SOL    HW1 9222   3.084   2.909   1.966 -0.3532  0.0537  0.0748
 2306SOL    HW2 9223   3.059   3.058   1.967 -0.8992 -0.0260  1.3947
 2306SOL     MW 9224   3.101   2.988   1.997 -0.3114 -0.0995  0.4544
 2307SOL     OW 9225   2.131   0.596   3.223  0.1150 -0.0259 -0.3800
 2307SOL    HW1 9226   2.218   0.560   3.207  0.1669 -0.3446  0.5611
 2307SOL    HW2 9227   2.148   0.684   3.257  0.0138  0.5257 -1.6899
 2307SOL     MW 9228   2.145   0.603   3.225  0.1084  0.0054 -0.4296
 2308SOL     OW 9229   2.343   4.718   3.609 -0.2584  0.1898  0.3621
 2308SOL    HW1 9230   2.354   4.777   3.684  0.5493 -0.0859  0.4724
 2308SOL    HW2 9231   2.421   4.662   3.611 -0.2202  0.1783 -0.6838
 2308SOL     MW 9232   2.355   4.719   3.619 -0.1446  0.1511  0.2362
 2309SOL     OW 9233   1.431   3.044   4.709 -0.0273 -0.2138 -0.3551
 2309SOL    HW1 9234   1.376   2.966   4.705 -2.4592  1.4590 -2.2617
 2309SOL    HW2 9235   1.492   3.035   4.636  0.6872 -0.9447  0.3080
 2309SOL     MW 9236   1.432   3.032   4.699 -0.2584 -0.0871 -0.5225
 2310SOL     OW 9237   1.170   0.116   3.245  0.3497  0.0323 -0.1222
 2310SOL    HW1 9238   1.244   0.058   3.265 -0.3150 -1.3808 -1.5480
 2310SOL    HW2 9239   1.177   0.133   3.151 -2.1335 -1.7076 -0.7348
 2310SOL     MW 9240   1.181   0.110   3.235 -0.0739 -0.3920 -0.3965
 2311SOL     OW 9241   4.779   3.607   2.521  1.0847 -0.0490  0.2087
 2311SOL    HW1 9242   4.737   3.693   2.519 -0.0487 -0.5942 -1.4071
 2311SOL    HW2 9243   4.865   3.622   2.483  1.1815  0.4954  0.6242
 2311SOL     MW 9244   4.785   3.621   2.516  0.9452 -0.0491  0.0471
 2312SOL     OW 9245   1.452   1.672   0.809 -0.0747  0.1753 -0.5227
 2312SOL    HW1 9246   1.478   1.586   0.843  0.6983  0.9170  0.8250
 2312SOL    HW2 9247   1.359   1.662   0.789 -0.5644 -0.3639  1.7299
 2312SOL     MW 9248   1.443   1.659   0.811 -0.0365  0.2025 -0.0381
 2313SOL     OW 9249   4.369   0.720   4.493 -0.2455 -0.4038  0.7397
 2313SOL    HW1 9250   4.411   0.769   4.422 -0.9335  0.4746  0.9172
 2313SOL    HW2 9251   4.433   0.723   4.565  0.2672 -0.9172  0.3133
 2313SOL     MW 9252   4.384   0.727   4.493 -0.2691 -0.3546  0.7062
 2314SOL     OW 9253   1.599   5.098   2.306 -0.0208  0.2213  0.3367
 2314SOL    HW1 9254   1.667   5.116   2.371  0.6310  1.0417 -0.5390
 2314SOL    HW2 9255   1.645   5.098   2.222 -1.0039  0.1807 -0.2220
 2314SOL     MW 9256   1.614   5.101   2.303 -0.0654  0.3263  0.1436
 2315SOL     OW 9257   3.967   3.253   2.586 -0.1259 -0.3490  0.2241
 2315SOL    HW1 9258   4.017   3.269   2.507  1.3569  0.4670  1.2912
 2315SOL    HW2 9259   4.025   3.277   2.658 -1.1090 -1.8512  1.6184
 2315SOL     MW 9260   3.981   3.258   2.585 -0.0587 -0.4414  0.5554
 2316SOL     OW 9261   4.589   4.652   3.555 -0.7877  0.0893  0.4395
 2316SOL    HW1 9262   4.577   4.557   3.550  0.3826 -0.2368  2.6399
 2316SOL    HW2 9263   4.668   4.669   3.504 -1.9147  0.1846 -1.3883
 2316SOL     MW 9264   4.598   4.641   3.548 -0.7819  0.0582  0.4896
 2317SOL     OW 9265   0.240   2.843   3.913  0.2454 -0.2355  0.1339
 2317SOL    HW1 9266   0.267   2.884   3.831  1.2869  0.8801  0.9801
 2317SOL    HW2 9267   0.145   2.832   3.905  0.2148  0.6169 -0.8936
 2317SOL     MW 9268   0.231   2.847   3.901  0.3814  0.0294  0.1095
 2318SOL     OW 9269   0.661   3.359   0.886  0.2275  0.1642  0.4739
 2318SOL    HW1 9270   0.628   3.447   0.869 -0.5270 -0.4052 -1.2885
 2318SOL    HW2 9271   0.656   3.348   0.981 -0.4920  1.6888  0.6317
 2318SOL     MW 9272   0.656   3.369   0.896  0.0292  0.2928  0.2580
 2319SOL     OW 9273   2.652   0.948   3.065  0.0694  0.3106 -0.0691
 2319SOL    HW1 9274   2.612   0.887   3.003  0.7745 -1.7782  1.4064
 2319SOL    HW2 9275   2.622   1.034   3.037 -2.3816 -0.8318 -1.2390
 2319SOL     MW 9276   2.643   0.952   3.053 -0.1655 -0.1243 -0.0280
 2320SOL     OW 9277   3.861   3.096   0.406 -0.5147  0.1540  0.3785
 2320SOL    HW1 9278   3.864   3.134   0.494 -0.2028 -1.2902  1.0204
 2320SOL    HW2 9279   3.846   3.171   0.348  1.1378  1.4026  1.4765
 2320SOL     MW 9280   3.859   3.111   0.410 -0.2504  0.1277  0.6126
 2321SOL     OW 9281   2.733   2.461   4.604 -0.2381 -0.0247 -0.0007
 2321SOL    HW1 9282   2.822   2.426   4.612  0.0253  0.4874 -0.5844
 2321SOL    HW2 9283   2.737   2.520   4.528 -0.5567  1.5692  1.1732
 2321SOL     MW 9284   2.746   2.464   4.595 -0.2456  0.2588  0.0787
 2322SOL     OW 9285   1.537   4.175   1.925  0.5464  0.1245  1.0217
 2322SOL    HW1 9286   1.539   4.120   2.003 -2.1835  0.3928  1.3839
 2322SOL    HW2 9287   1.603   4.137   1.867  0.3529 -2.1184  2.1619
 2322SOL     MW 9288   1.546   4.163   1.928  0.1530 -0.1413  1.2239
 2323SOL     OW 9289   2.922   4.643   3.785 -0.1005  0.1359 -0.4365
 2323SOL    HW1 9290   2.915   4.586   3.708 -0.3762  0.9084 -1.0001
 2323SOL    HW2 9291   2.894   4.588   3.858  1.7844 -1.1617 -0.5945
 2323SOL     MW 9292   2.917   4.628   3.784  0.1161  0.0652 -0.5336
 2324SOL     OW 9293   4.250   4.669   1.366 -0.7125 -0.3708 -0.0600
 2324SOL    HW1 9294   4.165   4.646   1.329 -2.1111  1.3849  1.8545
 2324SOL    HW2 9295   4.245   4.763   1.381  0.7232 -0.5744  2.1123
 2324SOL     MW 9296   4.238   4.678   1.363 -0.7075 -0.1619  0.4900
 2325SOL     OW 9297   4.683   5.349   2.727  0.0650 -0.2342  0.5164
 2325SOL    HW1 9298   4.649   5.303   2.803  0.6527 -1.4861  0.0400
 2325SOL    HW2 9299   4.612   5.409   2.702 -0.6700 -0.7914  1.2174
 2325SOL     MW 9300   4.669   5.351   2.734  0.0452 -0.4777  0.5467
 2326SOL     OW 9301   5.204   2.808   4.543 -0.1415 -0.2970 -0.0886
 2326SOL    HW1 9302   5.181   2.759   4.623  0.3273  0.0136  0.2414
 2326SOL    HW2 9303   5.260   2.879   4.574 -0.3860  0.1411 -0.6358
 2326SOL     MW 9304   5.208   2.811   4.558 -0.1113 -0.1962 -0.1179
 2327SOL     OW 9305   3.246   1.081   3.682 -0.0426 -0.1511  0.4192
 2327SOL    HW1 9306   3.234   1.114   3.771  1.6323  0.7117  0.3703
 2327SOL    HW2 9307   3.159   1.087   3.642 -0.5287  0.8220  1.5540
 2327SOL     MW 9308   3.233   1.086   3.689  0.1174  0.0960  0.5653
 2328SOL     OW 9309   4.867   3.844   3.166  0.0306  0.1129  0.0078
 2328SOL    HW1 9310   4.797   3.783   3.143 -0.9626  0.7284  1.2431
 2328SOL    HW2 9311   4.904   3.872   3.082 -2.2271  0.9278 -0.7865
 2328SOL     MW 9312   4.863   3.840   3.152 -0.4069  0.3054  0.0671
 2329SOL     OW 9313   2.484   0.884   5.116 -0.3888  0.0418 -0.0005
 2329SOL    HW1 9314   2.440   0.865   5.199  1.5908 -0.3127  1.0252
 2329SOL    HW2 9315   2.496   0.979   5.116 -0.7869  0.0931 -0.0977
 2329SOL     MW 9316   2.480   0.894   5.127 -0.1759  0.0010  0.1245
 2330SOL     OW 9317   1.690   4.027   4.829 -0.7321 -0.1294  0.4345
 2330SOL    HW1 9318   1.706   3.962   4.760  0.9096 -0.9675  1.5303
 2330SOL    HW2 9319   1.633   3.983   4.891 -1.7149  0.4117 -0.0667
 2330SOL     MW 9320   1.685   4.012   4.828 -0.6434 -0.1694  0.5145
 2331SOL     OW 9321   0.332   4.206   1.957  0.8666  0.1586  0.0322
 2331SOL    HW1 9322   0.424   4.188   1.939  1.5761  0.6034  2.7908
 2331SOL    HW2 9323   0.320   4.298   1.931  0.4960 -0.5273 -2.5055
 2331SOL     MW 9324   0.343   4.216   1.951  0.9122  0.1261  0.0619
 2332SOL     OW 9325   0.547   5.237   5.123  0.1264 -0.7425  0.0933
 2332SOL    HW1 9326   0.497   5.317   5.139  1.3444  0.3184 -1.0519
 2332SOL    HW2 9327   0.608   5.261   5.053  2.3327 -1.9123  1.5159
 2332SOL     MW 9328   0.548   5.251   5.116  0.5873 -0.7571  0.1307
 2333SOL     OW 9329   1.028   4.495   1.504  0.0922  0.2832 -0.3194
 2333SOL    HW1 9330   1.074   4.498   1.420  1.6075  0.9090  0.4897
 2333SOL    HW2 9331   1.028   4.403   1.528  1.4607  0.3207 -0.0860
 2333SOL     MW 9332   1.034   4.483   1.496  0.4803  0.3724 -0.1791
 2334SOL     OW 9333   1.383   0.712   1.882  0.5805 -0.3641  0.3604
 2334SOL    HW1 9334   1.358   0.620   1.872  1.1463 -0.5786  0.8930
 2334SOL    HW2 9335   1.466   0.720   1.834 -0.3010  0.2707 -1.1335
 2334SOL     MW 9336   1.391   0.701   1.874  0.5380 -0.3076  0.2310
 2335SOL     OW 9337   0.465   0.216   2.099 -0.3269  0.4213  0.2833
 2335SOL    HW1 9338   0.477   0.311   2.095  0.3391  0.3100 -0.5713
 2335SOL    HW2 9339   0.442   0.191   2.010 -1.4934 -0.1073  0.7107
 2335SOL     MW 9340   0.464   0.226   2.087 -0.3943  0.3352  0.2258
 2336SOL     OW 9341   0.443   5.261   4.477 -0.3355 -0.6710  0.0228
 2336SOL    HW1 9342   0.411   5.300   4.396 -0.2707 -1.5472 -0.4368
 2336SOL    HW2 9343   0.481   5.177   4.450 -0.6307 -1.1398  1.0037
 2336SOL     MW 9344   0.444   5.255   4.463 -0.3665 -0.8520  0.0930
 2337SOL     OW 9345   4.232   2.629   4.855  0.0240 -0.0459  0.7326
 2337SOL    HW1 9346   4.173   2.687   4.808  1.2106 -0.0375 -0.8314
 2337SOL    HW2 9347   4.278   2.686   4.917  0.5062  0.5205 -0.1336
 2337SOL     MW 9348   4.230   2.644   4.857  0.2486  0.0315  0.4055
 2338SOL     OW 9349   1.459   4.290   1.538  0.4046 -0.9893 -0.1723
 2338SOL    HW1 9350   1.429   4.233   1.467 -1.2277 -0.6512  0.2137
 2338SOL    HW2 9351   1.552   4.268   1.548  0.7510 -0.8698 -2.5569
 2338SOL     MW 9352   1.468   4.279   1.530  0.2315 -0.9277 -0.4413
 2339SOL     OW 9353   3.028   1.423   4.228  0.3841  0.1991  0.2477
 2339SOL    HW1 9354   3.034   1.484   4.302  1.7280  0.4704 -0.0487
 2339SOL    HW2 9355   3.002   1.478   4.154  0.7674  0.2631  0.1580
 2339SOL     MW 9356   3.025   1.439   4.228  0.6165  0.2442  0.1957
 2340SOL     OW 9357   5.220   2.399   5.089  0.4347 -0.1915 -0.0397
 2340SOL    HW1 9358   5.189   2.398   5.180  0.3032 -0.7824 -0.0840
 2340SOL    HW2 9359   5.191   2.484   5.055  1.1820  0.3775  0.7002
 2340SOL     MW 9360   5.212   2.410   5.097  0.5176 -0.1944  0.0539
 2341SOL     OW 9361   2.983   1.992   4.951  0.0328  0.1080  0.2041
 2341SOL    HW1 9362   3.025   1.992   5.037  0.8513 -1.9629 -0.1347
 2341SOL    HW2 9363   2.921   1.919   4.956  0.0675 -0.0069 -0.9682
 2341SOL     MW 9364   2.980   1.982   4.964  0.1476 -0.1862  0.0008
 2342SOL     OW 9365   5.287   2.098   3.109 -0.7894 -0.1332 -0.0088
 2342SOL    HW1 9366   5.244   2.013   3.101 -3.0721  1.0144 -0.5100
 2342SOL    HW2 9367   5.227   2.151   3.161  0.6586  1.1655  0.4182
 2342SOL     MW 9368   5.273   2.093   3.115 -0.9017  0.1960 -0.0188
 2343SOL     OW 9369   4.989   3.161   3.822  0.4905 -0.1055  0.0841
 2343SOL    HW1 9370   5.045   3.218   3.770 -0.1672  0.7587  0.3150
 2343SOL    HW2 9371   4.901   3.177   3.790 -0.0447  1.0944  2.0083
 2343SOL     MW 9372   4.985   3.171   3.811  0.3300  0.1723  0.3741
 2344SOL     OW 9373   4.328   2.015   2.912  0.4628  0.0720  0.0293
 2344SOL    HW1 9374   4.368   1.943   2.864 -0.0601 -0.2470  0.0681
 2344SOL    HW2 9375   4.273   2.060   2.848  0.6517  0.3367  0.0485
 2344SOL     MW 9376   4.326   2.012   2.897  0.4179  0.0647  0.0371
 2345SOL     OW 9377   3.510   5.149   3.999  0.2233  0.2227  0.0610
 2345SOL    HW1 9378   3.501   5.161   4.094 -0.7505 -0.8820  0.1203
 2345SOL    HW2 9379   3.507   5.054   3.986  2.3125  0.2253 -0.9119
 2345SOL     MW 9380   3.509   5.138   4.010  0.3734  0.0743 -0.0619
 2346SOL     OW 9381   4.097   5.317   4.470  0.1305  0.0996 -0.1537
 2346SOL    HW1 9382   4.078   5.261   4.545  0.2600  1.3679  0.8496
 2346SOL    HW2 9383   4.064   5.267   4.395  1.8719 -2.1408  0.4471
 2346SOL     MW 9384   4.090   5.303   4.470  0.3823 -0.0312  0.0622
 2347SOL     OW 9385   1.175   0.173   2.973 -0.4461 -0.5739  0.0079
 2347SOL    HW1 9386   1.262   0.194   2.938  0.1431  0.8790  2.1044
 2347SOL    HW2 9387   1.122   0.250   2.954 -0.6920 -0.6123  0.5310
 2347SOL     MW 9388   1.180   0.186   2.966 -0.3999 -0.3835  0.3604
 2348SOL     OW 9389   3.106   1.276   0.106 -0.2436  0.2539  0.3134
 2348SOL    HW1 9390   3.164   1.335   0.057 -1.5709  0.7427 -0.7290
 2348SOL    HW2 9391   3.129   1.290   0.198  0.9248  0.7957 -0.0388
 2348SOL     MW 9392   3.117   1.286   0.112 -0.2650  0.3926  0.1257
 2349SOL     OW 9393   5.175   1.135   3.210 -0.0709 -0.4396 -0.0555
 2349SOL    HW1 9394   5.223   1.161   3.288 -1.0337 -1.6549  0.9980
 2349SOL    HW2 9395   5.242   1.099   3.152  0.8510  1.6751 -0.3939
 2349SOL     MW 9396   5.190   1.133   3.212 -0.0764 -0.3185  0.0407
 2350SOL     OW 9397   0.838   1.932   0.717  0.6522  0.3675  0.0563
 2350SOL    HW1 9398   0.751   1.913   0.683  0.6862  1.2319 -0.5320
 2350SOL    HW2 9399   0.896   1.872   0.671  0.4466  0.1974  0.0194
 2350SOL     MW 9400   0.834   1.921   0.706  0.6291  0.4610 -0.0278
 2351SOL     OW 9401   5.194   3.538   3.923  0.3856  0.0349  0.1459
 2351SOL    HW1 9402   5.274   3.503   3.961  0.1592 -0.7718 -0.1067
 2351SOL    HW2 9403   5.186   3.492   3.839  0.3776  1.0920 -0.4524
 2351SOL     MW 9404   5.204   3.527   3.917  0.3541  0.0686  0.0314
 2352SOL     OW 9405   2.577   0.308   4.356  0.5416 -0.0406 -0.4545
 2352SOL    HW1 9406   2.543   0.262   4.279  1.5700 -0.5987 -0.5933
 2352SOL    HW2 9407   2.519   0.281   4.428  0.8041 -1.1417 -0.6380
 2352SOL     MW 9408   2.564   0.298   4.355  0.7153 -0.2639 -0.4979
 2353SOL     OW 9409   5.274   3.961   0.229 -0.1966 -0.3665  0.2121
 2353SOL    HW1 9410   5.297   3.994   0.316  1.5748 -1.1916  0.0876
 2353SOL    HW2 9411   5.181   3.983   0.219  0.0795  1.5711  1.4573
 2353SOL     MW 9412   5.264   3.968   0.239  0.0789 -0.2168  0.3630
 2354SOL     OW 9413   1.570   4.373   2.671 -0.0887  0.0088  0.5892
 2354SOL    HW1 9414   1.639   4.438   2.657  1.2165 -1.6911 -1.6968
 2354SOL    HW2 9415   1.605   4.316   2.739  0.5818 -0.5249 -0.1728
 2354SOL     MW 9416   1.584   4.374   2.678  0.1771 -0.2918  0.1790
 2355SOL     OW 9417   4.564   1.522   4.063 -0.0697  0.1152 -0.2652
 2355SOL    HW1 9418   4.643   1.485   4.023 -0.1870 -1.1770  0.6339
 2355SOL    HW2 9419   4.511   1.551   3.989  1.3836  1.3571 -0.8796
 2355SOL     MW 9420   4.568   1.521   4.048  0.1101  0.1085 -0.2269
 2356SOL     OW 9421   1.106   1.813   0.262  0.4288 -0.3302 -0.2685
 2356SOL    HW1 9422   1.137   1.848   0.345 -0.9799  0.3138  0.0213
 2356SOL    HW2 9423   1.162   1.737   0.245  0.8982 -0.3201  1.1380
 2356SOL     MW 9424   1.117   1.807   0.271  0.3024 -0.2422 -0.0402
 2357SOL     OW 9425   1.946   0.637   3.024 -0.1963  0.7064 -0.3382
 2357SOL    HW1 9426   2.019   0.642   3.085 -0.2914 -1.8642  0.0896
 2357SOL    HW2 9427   1.983   0.661   2.940  0.6611  1.3138  0.1955
 2357SOL     MW 9428   1.960   0.641   3.021 -0.0937  0.4422 -0.2088
 2358SOL     OW 9429   2.153   0.427   3.453  0.7325 -0.2787  0.4945
 2358SOL    HW1 9430   2.173   0.348   3.403  1.0980  0.1616 -0.0736
 2358SOL    HW2 9431   2.155   0.497   3.388  0.7463  0.2432  1.0514
 2358SOL     MW 9432   2.156   0.426   3.437  0.7835 -0.1492  0.4930
 2359SOL     OW 9433   4.936   5.242   2.718 -0.8429 -0.0125  0.2664
 2359SOL    HW1 9434   4.906   5.167   2.770 -0.2334  1.3888  2.8295
 2359SOL    HW2 9435   4.858   5.298   2.711 -0.6799  0.2636  0.6005
 2359SOL     MW 9436   4.921   5.239   2.724 -0.7389  0.2132  0.6563
 2360SOL     OW 9437   3.316   4.438   3.989 -0.5782  0.5635  0.1908
 2360SOL    HW1 9438   3.283   4.350   3.968 -1.1523  0.7302  0.3676
 2360SOL    HW2 9439   3.361   4.466   3.910  1.5402 -0.7547  0.8354
 2360SOL     MW 9440   3.318   4.430   3.975 -0.3703  0.4085  0.3013
 2361SOL     OW 9441   0.102   3.271   0.604 -0.1011  0.1673  0.0164
 2361SOL    HW1 9442   0.018   3.282   0.558 -0.6439 -0.7120  0.7617
 2361SOL    HW2 9443   0.099   3.182   0.637  1.1601  0.1256  0.0327
 2361SOL     MW 9444   0.090   3.261   0.602 -0.0044  0.0434  0.1189
 2362SOL     OW 9445   3.012   4.801   3.095 -0.3258  0.2767 -0.1083
 2362SOL    HW1 9446   3.054   4.748   3.027  0.0184  0.4003  0.0046
 2362SOL    HW2 9447   2.991   4.883   3.051  1.7794  1.1810  0.4186
 2362SOL     MW 9448   3.015   4.805   3.080  0.0038  0.4151 -0.0222
 2363SOL     OW 9449   0.768   4.392   2.353  0.1103  0.5762 -0.6244
 2363SOL    HW1 9450   0.779   4.487   2.347  0.6899  0.6213  0.8953
 2363SOL    HW2 9451   0.673   4.378   2.350 -0.1985  1.4785  2.2123
 2363SOL     MW 9452   0.757   4.403   2.352  0.1468  0.7037 -0.0381
 2364SOL     OW 9453   3.004   2.740   3.581  0.4023 -0.1432  0.3121
 2364SOL    HW1 9454   3.096   2.758   3.601  0.6075 -0.9220  0.1026
 2364SOL    HW2 9455   2.983   2.663   3.634 -0.2434  0.2524  0.6454
 2364SOL     MW 9456   3.014   2.732   3.591  0.3430 -0.1948  0.3288
 2365SOL     OW 9457   3.343   4.495   1.661  0.9518  0.2294 -0.4384
 2365SOL    HW1 9458   3.287   4.426   1.696  1.4892 -1.0074 -1.9212
 2365SOL    HW2 9459   3.282   4.563   1.632  0.3336 -0.2083 -0.1798
 2365SOL     MW 9460   3.327   4.495   1.662  0.9410  0.0040 -0.6032
 2366SOL     OW 9461   0.930   4.138   4.731  0.2062 -0.4291  0.6556
 2366SOL    HW1 9462   0.864   4.070   4.715 -0.9511  0.8417 -0.1197
 2366SOL    HW2 9463   0.937   4.142   4.827 -0.5588 -0.8345  0.7388
 2366SOL     MW 9464   0.922   4.129   4.742 -0.0525 -0.3126  0.5624
 2367SOL     OW 9465   0.056   0.538   2.588  0.3616 -0.0717 -0.1210
 2367SOL    HW1 9466   0.096   0.602   2.530 -1.2470  1.3009  0.1758
 2367SOL    HW2 9467   0.094   0.556   2.674 -0.1715  0.6044 -0.0163
 2367SOL     MW 9468   0.066   0.549   2.592  0.0734  0.2040 -0.0670
 2368SOL     OW 9469   1.644   1.186   5.428  0.8022 -0.1873 -0.7492
 2368SOL    HW1 9470   1.735   1.165   5.450  0.3894 -0.2021  1.0668
 2368SOL    HW2 9471   1.597   1.103   5.436  0.3158  0.1621  0.0953
 2368SOL     MW 9472   1.650   1.172   5.432  0.6812 -0.1423 -0.3912
 2369SOL     OW 9473   3.815   3.488   5.263 -0.0877 -0.0219  0.1521
 2369SOL    HW1 9474   3.725   3.456   5.258 -0.2050  0.3055  0.1866
 2369SOL    HW2 9475   3.845   3.488   5.172  0.8979 -3.0057  0.3446
 2369SOL     MW 9476   3.807   3.484   5.250  0.0292 -0.3794  0.1827
 2370SOL     OW 9477   2.290   1.037   0.456  0.4178 -0.3323 -0.1704
 2370SOL    HW1 9478   2.210   0.988   0.477  0.4128 -0.2465  0.0062
 2370SOL    HW2 9479   2.357   0.969   0.445  0.2750 -0.4192 -0.5244
 2370SOL     MW 9480   2.288   1.021   0.457  0.3979 -0.3324 -0.1943
 2371SOL     OW 9481   3.956   1.683   4.342  0.1433  0.3102 -0.0801
 2371SOL    HW1 9482   3.956   1.702   4.436 -0.1619  1.2252 -0.2579
 2371SOL    HW2 9483   3.885   1.619   4.330 -0.6619  1.1433  0.1379
 2371SOL     MW 9484   3.946   1.677   4.353 -0.0062  0.5455 -0.0747
 2372SOL     OW 9485   5.410   0.784   2.305 -0.2101  0.4174  0.3300
 2372SOL    HW1 9486   5.434   0.877   2.300  0.1057  0.3181 -0.0132
 2372SOL    HW2 9487   5.371   0.775   2.392  0.4808  0.7080  0.6787
 2372SOL     MW 9488   5.408   0.795   2.316 -0.0746  0.4431  0.3307
 2373SOL     OW 9489   2.818   2.538   0.085 -0.1482 -0.4597  0.5725
 2373SOL    HW1 9490   2.739   2.579   0.050  0.0609 -1.1349 -0.7527
 2373SOL    HW2 9491   2.787   2.459   0.128 -0.2037 -0.7662 -0.0176
 2373SOL     MW 9492   2.803   2.533   0.086 -0.1276 -0.5918  0.3147
 2374SOL     OW 9493   0.715   3.988   2.852 -0.6357 -0.0705 -0.4365
 2374SOL    HW1 9494   0.628   3.949   2.863 -0.6531  0.3780  1.2067
 2374SOL    HW2 9495   0.702   4.081   2.868  0.4805 -0.2700  2.0200
 2374SOL     MW 9496   0.701   3.995   2.856 -0.4878 -0.0370  0.1152
 2375SOL     OW 9497   2.391   2.365   4.833 -1.0621  0.7672  0.0177
 2375SOL    HW1 9498   2.411   2.341   4.743 -1.2864 -0.3406  0.2452
 2375SOL    HW2 9499   2.464   2.331   4.884 -0.9390  1.3843  0.2551
 2375SOL     MW 9500   2.403   2.357   4.828 -1.0757  0.7011  0.0802
 2376SOL     OW 9501   1.429   3.808   4.646  0.2043  0.0548  0.5826
 2376SOL    HW1 9502   1.414   3.787   4.738  1.8370  0.5951  1.0028
 2376SOL    HW2 9503   1.501   3.872   4.647 -0.9354  1.4245 -0.9800
 2376SOL     MW 9504   1.437   3.814   4.659  0.2706  0.3119  0.4289
 2377SOL     OW 9505   4.135   3.384   3.843  0.3482  0.0885  0.0848
 2377SOL    HW1 9506   4.215   3.428   3.872  1.2289  0.2485 -2.3765
 2377SOL    HW2 9507   4.165   3.304   3.799 -0.8510 -0.0390 -0.5729
 2377SOL     MW 9508   4.150   3.379   3.841  0.3054  0.0929 -0.3350
 2378SOL     OW 9509   3.188   2.610   2.108 -0.2536 -0.1308 -0.0249
 2378SOL    HW1 9510   3.248   2.538   2.128 -0.0689 -0.4307 -1.4867
 2378SOL    HW2 9511   3.101   2.574   2.126 -0.0585 -0.0015  1.2342
 2378SOL     MW 9512   3.184   2.595   2.113 -0.2025 -0.1538 -0.0522
 2379SOL     OW 9513   3.440   0.577   3.128  0.3766 -0.2359  0.0328
 2379SOL    HW1 9514   3.481   0.517   3.190 -0.7343 -1.6883 -0.5773
 2379SOL    HW2 9515   3.422   0.656   3.179  1.8769 -0.3769  0.8521
 2379SOL     MW 9516   3.443   0.580   3.143  0.4290 -0.4503  0.0609
 2380SOL     OW 9517   3.124   2.789   4.702 -0.5604 -0.2465  0.6003
 2380SOL    HW1 9518   3.057   2.857   4.694 -0.0714  0.1477 -0.1601
 2380SOL    HW2 9519   3.189   2.826   4.762 -0.5213 -0.2317  0.5483
 2380SOL     MW 9520   3.124   2.803   4.709 -0.4893 -0.1915  0.4910
 2381SOL     OW 9521   5.455   4.509   1.410 -0.7219 -0.3732  0.3497
 2381SOL    HW1 9522   5.530   4.453   1.392  0.3584  1.7054 -2.2712
 2381SOL    HW2 9523   5.392   4.488   1.342 -0.7482  0.7681 -0.0075
 2381SOL     MW 9524   5.457   4.499   1.399 -0.5800  0.0601 -0.0511
 2382SOL     OW 9525   4.822   4.582   0.334  0.6959 -0.4814  0.1424
 2382SOL    HW1 9526   4.740   4.557   0.291  0.9794 -1.1079 -0.0534
 2382SOL    HW2 9527   4.806   4.670   0.368  0.2686 -0.2094 -0.7341
 2382SOL     MW 9528   4.809   4.590   0.333  0.6766 -0.5291 -0.0019
 2383SOL     OW 9529   0.851   4.850   1.585 -0.3487  0.0759 -0.2012
 2383SOL    HW1 9530   0.939   4.858   1.622 -0.6328 -0.9554  0.7351
 2383SOL    HW2 9531   0.800   4.919   1.628 -0.2747 -0.0453  0.0786
 2383SOL     MW 9532   0.856   4.860   1.596 -0.3770 -0.0792 -0.0375
 2384SOL     OW 9533   0.555   2.083   4.843 -0.1613  0.5818 -0.0202
 2384SOL    HW1 9534   0.536   2.083   4.749  0.8411  0.8671 -0.2388
 2384SOL    HW2 9535   0.512   2.004   4.877 -2.0980  1.4289 -0.3651
 2384SOL     MW 9536   0.547   2.072   4.835 -0.2870  0.7342 -0.0961
 2385SOL     OW 9537   5.291   3.303   0.758 -0.4995 -0.1681  0.5300
 2385SOL    HW1 9538   5.302   3.241   0.831  0.4183 -0.7628 -0.0929
 2385SOL    HW2 9539   5.338   3.382   0.787  1.9990 -1.2233 -0.3497
 2385SOL     MW 9540   5.299   3.305   0.772 -0.0397 -0.3901  0.3278
 2386SOL     OW 9541   0.611   0.298   1.851  0.2180 -0.2760  0.0794
 2386SOL    HW1 9542   0.604   0.205   1.875  0.1649 -0.4266 -0.5151
 2386SOL    HW2 9543   0.692   0.327   1.893  0.4790 -0.7125 -0.1142
 2386SOL     MW 9544   0.621   0.289   1.860  0.2460 -0.3550 -0.0267
 2387SOL     OW 9545   4.213   3.838   1.115 -0.4203  0.0529 -0.6935
 2387SOL    HW1 9546   4.252   3.831   1.202  1.0633 -0.5162 -1.3628
 2387SOL    HW2 9547   4.148   3.768   1.112 -2.1664  1.5018  0.7206
 2387SOL     MW 9548   4.210   3.828   1.126 -0.4556  0.1713 -0.5933
 2388SOL     OW 9549   0.193   4.836   2.822 -0.0319  0.4506 -0.5344
 2388SOL    HW1 9550   0.127   4.786   2.775 -0.0532 -0.1940  0.1628
 2388SOL    HW2 9551   0.183   4.809   2.914 -0.8180  2.5749  0.0663
 2388SOL     MW 9552   0.183   4.826   2.828 -0.1406  0.6498 -0.3597
 2389SOL     OW 9553   4.133   1.296   3.633  0.3775  0.5627 -0.3798
 2389SOL    HW1 9554   4.191   1.329   3.565  0.8467 -0.7768 -0.6724
 2389SOL    HW2 9555   4.161   1.205   3.647 -0.5948  0.3823  0.6328
 2389SOL     MW 9556   4.144   1.288   3.626  0.3098  0.3581 -0.2829
 2390SOL     OW 9557   4.587   0.347   0.046  0.3923  0.1192  0.3115
 2390SOL    HW1 9558   4.628   0.307   0.122  0.8137  2.3904  1.3332
 2390SOL    HW2 9559   4.502   0.378   0.077 -0.5775 -1.2321 -0.8503
 2390SOL     MW 9560   4.581   0.345   0.060  0.3185  0.2430  0.2927
 2391SOL     OW 9561   4.046   4.757   2.044  0.2149  0.3362  0.1624
 2391SOL    HW1 9562   3.951   4.765   2.037  0.1530 -0.7228 -0.4196
 2391SOL    HW2 9563   4.070   4.819   2.113 -0.6934  1.7577 -0.7721
 2391SOL     MW 9564   4.036   4.766   2.053  0.0843  0.3850 -0.0417
 2392SOL     OW 9565   5.350   2.406   2.851 -0.2365  0.1857  0.2679
 2392SOL    HW1 9566   5.360   2.315   2.822  1.2028  0.7104 -1.0457
 2392SOL    HW2 9567   5.341   2.456   2.770  0.1906  1.3299  0.9075
 2392SOL     MW 9568   5.350   2.400   2.836  0.0147  0.4103  0.1772
 2393SOL     OW 9569   2.231   3.579   0.312 -0.2039  0.1398  0.0548
 2393SOL    HW1 9570   2.231   3.660   0.363 -0.6041 -0.0453  0.3558
 2393SOL    HW2 9571   2.265   3.604   0.227 -0.9640  0.7713 -0.0758
 2393SOL     MW 9572   2.235   3.593   0.308 -0.3601  0.1999  0.0777
 2394SOL     OW 9573   1.387   1.604   1.159 -0.1752 -0.0782  0.6550
 2394SOL    HW1 9574   1.450   1.668   1.125  0.6103 -1.6605 -1.0060
 2394SOL    HW2 9575   1.426   1.573   1.241 -0.0454  0.7693  0.9242
 2394SOL     MW 9576   1.401   1.609   1.166 -0.0520 -0.1771  0.4677
 2395SOL     OW 9577   1.666   0.745   1.304  0.1642 -0.1406 -0.1502
 2395SOL    HW1 9578   1.679   0.659   1.344  1.5386  0.2427  0.3104
 2395SOL    HW2 9579   1.754   0.771   1.275 -0.2574  1.0321 -0.4482
 2395SOL     MW 9580   1.680   0.737   1.305  0.2924  0.0688 -0.1284
 2396SOL     OW 9581   0.491   3.519   2.051  0.3114  0.1006 -0.3933
 2396SOL    HW1 9582   0.477   3.434   2.009 -2.0914 -0.1264  0.7199
 2396SOL    HW2 9583   0.506   3.499   2.143 -1.2133  0.8883  0.0571
 2396SOL     MW 9584   0.491   3.505   2.057 -0.2172  0.1761 -0.1829
 2397SOL     OW 9585   2.524   0.896   4.763  0.2395 -0.1543 -0.1699
 2397SOL    HW1 9586   2.602   0.887   4.818 -0.9427 -1.1312  1.4290
 2397SOL    HW2 9587   2.557   0.931   4.680  2.8344 -3.1607 -0.6053
 2397SOL     MW 9588   2.539   0.900   4.759  0.4297 -0.6904 -0.0133
 2398SOL     OW 9589   5.309   1.470   0.639  0.5162  0.1515 -0.1545
 2398SOL    HW1 9590   5.234   1.530   0.641  0.0069 -0.4941  1.2266
 2398SOL    HW2 9591   5.358   1.491   0.718  1.4977  0.1786 -0.7597
 2398SOL     MW 9592   5.305   1.481   0.650  0.5798  0.0683 -0.0501
 2399SOL     OW 9593   2.477   2.328   3.826  0.0830 -0.0003 -0.2507
 2399SOL    HW1 9594   2.466   2.377   3.744 -0.4591  1.5068  0.6693
 2399SOL    HW2 9595   2.402   2.269   3.828 -0.8575  1.1648 -0.0635
 2399SOL     MW 9596   2.465   2.327   3.815 -0.1165  0.3594 -0.1017
 2400SOL     OW 9597   5.347   5.289   3.315 -0.1281  0.8401  0.4994
 2400SOL    HW1 9598   5.278   5.259   3.375 -0.4971 -0.3412 -0.4791
 2400SOL    HW2 9599   5.301   5.306   3.233  0.9508 -1.9511 -0.8161
 2400SOL     MW 9600   5.332   5.287   3.312 -0.0326  0.3055  0.1907
 2401SOL     OW 9601   5.228   2.153   1.744 -0.3396  0.2795  0.2458
 2401SOL    HW1 9602   5.168   2.174   1.673  1.8589 -0.3514 -1.9323
 2401SOL    HW2 9603   5.260   2.066   1.723  0.2355 -0.0246  2.1763
 2401SOL     MW 9604   5.224   2.144   1.731  0.0337  0.1536  0.2124
 2402SOL     OW 9605   3.147   1.521   3.085 -0.1400  1.0555 -0.4550
 2402SOL    HW1 9606   3.052   1.521   3.082 -0.2528  0.5668  1.5743
 2402SOL    HW2 9607   3.173   1.586   3.020 -1.8399  1.1593 -1.0799
 2402SOL     MW 9608   3.138   1.530   3.076 -0.3840  1.0037 -0.2660
 2403SOL     OW 9609   1.548   3.506   0.417  0.2682  0.1297  0.1268
 2403SOL    HW1 9610   1.529   3.507   0.511 -1.9801  0.1057 -0.2682
 2403SOL    HW2 9611   1.520   3.420   0.388 -1.4636  1.0016 -0.9517
 2403SOL     MW 9612   1.541   3.495   0.426 -0.2674  0.2438 -0.0715
 2404SOL     OW 9613   0.676   5.483   4.255  0.1580 -0.6483  0.5893
 2404SOL    HW1 9614   0.750   5.503   4.198 -0.2847  0.1639  0.2845
 2404SOL    HW2 9615   0.667   5.387   4.250  2.1699 -0.9450  1.8874
 2404SOL     MW 9616   0.684   5.473   4.246  0.3692 -0.5789  0.7230
 2405SOL     OW 9617   4.344   4.400   4.100 -0.1494  0.0402 -0.2573
 2405SOL    HW1 9618   4.354   4.459   4.174  0.0083  2.3027 -1.9862
 2405SOL    HW2 9619   4.250   4.393   4.086 -0.2785 -1.8803  1.2176
 2405SOL     MW 9620   4.333   4.407   4.108 -0.1455  0.0862 -0.2915
 2406SOL     OW 9621   2.493   3.353   0.272  0.0299 -0.2509  0.3086
 2406SOL    HW1 9622   2.442   3.361   0.192 -0.2500  1.0445  0.6027
 2406SOL    HW2 9623   2.459   3.421   0.330  1.5922  0.1861  0.7756
 2406SOL     MW 9624   2.481   3.363   0.269  0.2025 -0.0177  0.4110
 2407SOL     OW 9625   2.758   0.847   0.106  0.3324 -0.2426  0.1659
 2407SOL    HW1 9626   2.750   0.839   0.011  1.0989 -1.2729  0.1771
 2407SOL    HW2 9627   2.710   0.928   0.127  1.2896  0.7397 -1.2477
 2407SOL     MW 9628   2.750   0.857   0.096  0.5643 -0.2490 -0.0229
 2408SOL     OW 9629   1.787   0.216   4.383 -0.1409 -0.2547  0.1492
 2408SOL    HW1 9630   1.739   0.261   4.313 -3.0580 -2.5866  0.4763
 2408SOL    HW2 9631   1.832   0.144   4.339  0.7676  0.2115  0.2781
 2408SOL     MW 9632   1.787   0.212   4.368 -0.4112 -0.5058  0.2106
 2409SOL     OW 9633   0.893   5.213   1.460  0.5630 -0.0294 -0.1749
 2409SOL    HW1 9634   0.831   5.175   1.398  0.0420 -0.9539  0.8578
 2409SOL    HW2 9635   0.962   5.147   1.468  0.8180  0.2499 -0.0649
 2409SOL     MW 9636   0.894   5.199   1.453  0.5272 -0.1163 -0.0211
 2410SOL     OW 9637   2.820   3.661   0.522 -0.4998  0.5544  0.3537
 2410SOL    HW1 9638   2.808   3.756   0.519 -1.2408  0.4362 -1.2240
 2410SOL    HW2 9639   2.732   3.625   0.525 -0.2383 -0.1048  0.4744
 2410SOL     MW 9640   2.807   3.669   0.522 -0.5643  0.4498  0.1576
 2411SOL     OW 9641   1.673   2.617   2.474  0.4350  0.3678 -0.0815
 2411SOL    HW1 9642   1.598   2.562   2.495 -0.1951  1.3660  0.3427
 2411SOL    HW2 9643   1.737   2.556   2.436 -0.2712 -0.6283  0.2765
 2411SOL     MW 9644   1.671   2.601   2.471  0.2552  0.3681  0.0238
 2412SOL     OW 9645   4.287   2.947   4.543  0.3913 -0.6125 -0.0918
 2412SOL    HW1 9646   4.334   2.925   4.624  1.5793 -1.3417 -0.9320
 2412SOL    HW2 9647   4.222   2.878   4.533 -0.6670  0.2062  0.8987
 2412SOL     MW 9648   4.285   2.935   4.553  0.4088 -0.6005 -0.0715
 2413SOL     OW 9649   4.143   4.475   2.443  0.3254  0.4257 -0.2348
 2413SOL    HW1 9650   4.052   4.478   2.473  0.8248  0.6860  1.2926
 2413SOL    HW2 9651   4.192   4.526   2.507  1.6597 -0.2852 -0.6505
 2413SOL     MW 9652   4.137   4.482   2.456  0.5722  0.3650 -0.0852
 2414SOL     OW 9653   4.202   0.180   5.356 -0.4676  0.2087 -0.1866
 2414SOL    HW1 9654   4.150   0.258   5.337  1.6183  2.6305  2.8879
 2414SOL    HW2 9655   4.170   0.151   5.442  0.2942 -0.9547 -0.2802
 2414SOL     MW 9656   4.191   0.186   5.365 -0.0844  0.3781  0.2146
 2415SOL     OW 9657   2.539   2.208   5.224  0.0536  0.5992 -0.7619
 2415SOL    HW1 9658   2.613   2.207   5.285  0.2441  0.3563 -0.9901
 2415SOL    HW2 9659   2.520   2.116   5.209 -0.7130  0.6637 -0.2158
 2415SOL     MW 9660   2.547   2.195   5.230 -0.0240  0.5752 -0.7191
 2416SOL     OW 9661   4.340   3.876   2.529  0.2049  0.2995 -0.2369
 2416SOL    HW1 9662   4.274   3.919   2.474  0.8832  0.3793 -1.0181
 2416SOL    HW2 9663   4.350   3.934   2.604  0.0500  0.7632 -0.5654
 2416SOL     MW 9664   4.333   3.889   2.532  0.2753  0.3727 -0.3862
 2417SOL     OW 9665   3.071   0.268   4.324 -0.4206  0.0668 -0.3700
 2417SOL    HW1 9666   2.992   0.221   4.349 -1.9230  2.4729 -0.1858
 2417SOL    HW2 9667   3.069   0.348   4.378  3.8353 -1.1044  1.9731
 2417SOL     MW 9668   3.060   0.273   4.335 -0.0500  0.2330 -0.0298
 2418SOL     OW 9669   0.839   5.137   4.003  0.1473 -0.2836 -0.0836
 2418SOL    HW1 9670   0.803   5.140   4.092  1.3055  3.1534  0.3921
 2418SOL    HW2 9671   0.779   5.191   3.952  0.2320 -1.1505 -1.1195
 2418SOL     MW 9672   0.826   5.145   4.008  0.3145  0.0623 -0.1590
 2419SOL     OW 9673   3.019   4.411   2.788 -0.4985  0.7544  0.1587
 2419SOL    HW1 9674   3.035   4.334   2.843 -1.5160  0.3425 -0.0940
 2419SOL    HW2 9675   3.086   4.405   2.719 -0.3613  0.2745  0.3269
 2419SOL     MW 9676   3.030   4.400   2.786 -0.6170  0.6344  0.1473
 2420SOL     OW 9677   1.137   3.343   3.471  0.3655  0.1929 -0.6052
 2420SOL    HW1 9678   1.163   3.279   3.404 -0.9612  0.1002 -1.0476
 2420SOL    HW2 9679   1.089   3.291   3.535  1.3791  0.3356  0.3059
 2420SOL     MW 9680   1.134   3.327   3.471  0.3234  0.1996 -0.5421
 2421SOL     OW 9681   3.795   2.108   2.460  0.7005 -0.3958  0.2944
 2421SOL    HW1 9682   3.799   2.141   2.370  1.9998 -0.9201  0.1390
 2421SOL    HW2 9683   3.854   2.033   2.460 -0.9347 -1.7518  1.0386
 2421SOL     MW 9684   3.803   2.102   2.448  0.6553 -0.6488  0.3737
 2422SOL     OW 9685   3.699   1.545   2.263 -0.3874  0.1361  0.3909
 2422SOL    HW1 9686   3.663   1.629   2.234 -0.8797 -0.1086  0.2682
 2422SOL    HW2 9687   3.654   1.480   2.208 -0.3774 -0.2393  0.8182
 2422SOL     MW 9688   3.688   1.547   2.251 -0.4523  0.0527  0.4319
 2423SOL     OW 9689   1.843   3.400   3.471 -0.2948 -0.2182  0.0908
 2423SOL    HW1 9690   1.848   3.468   3.404 -0.3868 -1.1935 -0.9268
 2423SOL    HW2 9691   1.757   3.414   3.512 -0.6865 -0.2629 -0.7051
 2423SOL     MW 9692   1.832   3.411   3.468 -0.3599 -0.3555 -0.1533
 2424SOL     OW 9693   1.611   0.256   0.409  0.2456  0.5250 -0.0743
 2424SOL    HW1 9694   1.654   0.307   0.341 -0.9923  0.0787 -1.2263
 2424SOL    HW2 9695   1.656   0.280   0.490  0.6354  2.3401 -0.8039
 2424SOL     MW 9696   1.623   0.266   0.411  0.1315  0.7093 -0.3275
 2425SOL     OW 9697   5.405   0.904   2.747 -0.0521 -0.0788  0.6208
 2425SOL    HW1 9698   5.440   0.977   2.696 -1.2034 -0.4073 -0.7008
 2425SOL    HW2 9699   5.482   0.857   2.777  0.6828  0.6224 -0.1011
 2425SOL     MW 9700   5.420   0.907   2.744 -0.1082 -0.0286  0.3458
 2426SOL     OW 9701   1.487   4.312   0.968  0.0132 -0.1445  0.0778
 2426SOL    HW1 9702   1.420   4.334   1.033 -0.3819 -0.6407 -0.1561
 2426SOL    HW2 9703   1.469   4.221   0.944 -0.4908  0.3228 -1.4704
 2426SOL     MW 9704   1.475   4.303   0.973 -0.1078 -0.1484 -0.1621
 2427SOL     OW 9705   3.024   2.772   5.129  0.3136  0.1804  0.1134
 2427SOL    HW1 9706   2.978   2.761   5.046  0.2245  2.7631 -0.2469
 2427SOL    HW2 9707   3.037   2.682   5.161 -2.4874 -0.7866 -1.1035
 2427SOL     MW 9708   3.019   2.758   5.122 -0.0754  0.3978 -0.0989
 2428SOL     OW 9709   0.667   1.283   3.583  0.3846 -0.5948  0.1168
 2428SOL    HW1 9710   0.761   1.300   3.582  0.3005  0.4770  2.9459
 2428SOL    HW2 9711   0.636   1.321   3.665 -2.7380  0.1040 -1.2382
 2428SOL     MW 9712   0.676   1.291   3.594 -0.0470 -0.3565  0.3152
 2429SOL     OW 9713   1.781   4.829   0.597  0.4462  0.1148 -0.0443
 2429SOL    HW1 9714   1.855   4.785   0.638  0.0602 -0.9243 -0.4271
 2429SOL    HW2 9715   1.814   4.858   0.512  0.7375  0.7031  0.2606
 2429SOL     MW 9716   1.795   4.827   0.591  0.4334  0.0541 -0.0548
 2430SOL     OW 9717   1.601   0.348   1.192  0.1438 -0.2039 -0.3076
 2430SOL    HW1 9718   1.552   0.268   1.174 -1.4548  0.5669  0.4217
 2430SOL    HW2 9719   1.560   0.414   1.136  0.3396  0.4507  0.3037
 2430SOL     MW 9720   1.589   0.346   1.182 -0.0450 -0.0121 -0.1272
 2431SOL     OW 9721   1.777   3.655   4.243 -0.1399  0.8369 -0.1163
 2431SOL    HW1 9722   1.856   3.639   4.191 -0.8139 -0.3713 -0.8189
 2431SOL    HW2 9723   1.749   3.743   4.218  0.5901  1.0029 -0.3804
 2431SOL     MW 9724   1.784   3.665   4.232 -0.1323  0.6966 -0.2464
 2432SOL     OW 9725   1.757   0.400   0.217  0.0497 -0.0977  0.8524
 2432SOL    HW1 9726   1.789   0.484   0.250 -1.5433  1.2146 -0.7221
 2432SOL    HW2 9727   1.727   0.419   0.128 -0.1998 -2.3883  0.3858
 2432SOL     MW 9728   1.757   0.414   0.210 -0.1982 -0.2294  0.5777
 2433SOL     OW 9729   2.153   1.837   0.064  0.1090  0.5253  0.1771
 2433SOL    HW1 9730   2.183   1.926   0.045  0.0157  0.5123 -0.0393
 2433SOL    HW2 9731   2.102   1.846   0.144  1.6117  0.3564  1.1819
 2433SOL     MW 9732   2.150   1.850   0.072  0.2987  0.5008  0.2832
 2434SOL     OW 9733   4.295   3.156   3.460 -0.7485  0.0178 -0.2132
 2434SOL    HW1 9734   4.328   3.093   3.396 -1.2690 -1.1217  0.6253
 2434SOL    HW2 9735   4.238   3.214   3.409  0.8100  0.7124 -1.2642
 2434SOL     MW 9736   4.292   3.155   3.445 -0.6088 -0.0421 -0.2418
 2435SOL     OW 9737   3.572   5.487   4.328 -0.6044  0.2827 -0.1948
 2435SOL    HW1 9738   3.624   5.456   4.254 -0.6034 -0.7264  0.2127
 2435SOL    HW2 9739   3.512   5.550   4.290  0.2192  0.6961 -0.8475
 2435SOL     MW 9740   3.571   5.491   4.313 -0.4934  0.2025 -0.2278
 2436SOL     OW 9741   3.381   0.031   0.997  0.6403  0.0136 -0.1205
 2436SOL    HW1 9742   3.429   0.012   0.917 -0.0380  1.3225 -0.8751
 2436SOL    HW2 9743   3.309  -0.032   0.998 -0.2071  0.9091 -1.3375
 2436SOL     MW 9744   3.378   0.020   0.987  0.4350  0.3103 -0.3858
 2437SOL     OW 9745   4.171   0.436   3.616  0.2301  0.1303  0.4168
 2437SOL    HW1 9746   4.202   0.489   3.542  0.0202  0.6897  0.7170
 2437SOL    HW2 9747   4.251   0.416   3.665  0.4441 -0.7432 -0.2697
 2437SOL     MW 9748   4.186   0.441   3.613  0.2307  0.0880  0.3648
 2438SOL     OW 9749   4.060   0.394   0.074  0.1730 -0.3684  0.3722
 2438SOL    HW1 9750   4.154   0.383   0.062  0.0881 -0.8920  0.1433
 2438SOL    HW2 9751   4.050   0.481   0.112  0.7438 -0.2871  0.3385
 2438SOL     MW 9752   4.071   0.404   0.077  0.2384 -0.4279  0.3368
 2439SOL     OW 9753   2.547   0.360   2.216  0.8120 -0.0614 -0.1776
 2439SOL    HW1 9754   2.545   0.456   2.215  0.0461 -0.0663 -0.8183
 2439SOL    HW2 9755   2.454   0.335   2.216  1.0068 -0.8009 -0.6105
 2439SOL     MW 9756   2.534   0.370   2.216  0.7351 -0.1616 -0.3221
 2440SOL     OW 9757   3.200   4.506   0.699 -0.1581 -0.4230  0.0695
 2440SOL    HW1 9758   3.227   4.594   0.723  1.3740 -1.1159  0.9985
 2440SOL    HW2 9759   3.109   4.500   0.729 -0.4004  0.9480 -0.3459
 2440SOL     MW 9760   3.191   4.517   0.706  0.0154 -0.3317  0.1386
 2441SOL     OW 9761   3.784   3.376   2.757 -0.1746 -0.2298 -0.8530
 2441SOL    HW1 9762   3.831   3.336   2.684 -2.3921 -0.1287 -2.4221
 2441SOL    HW2 9763   3.803   3.469   2.749 -0.7131 -0.1743 -1.5452
 2441SOL     MW 9764   3.793   3.383   2.746 -0.5455 -0.2087 -1.1573
 2442SOL     OW 9765   0.974   2.676   4.608  0.1247  0.1371  0.9102
 2442SOL    HW1 9766   0.881   2.697   4.609  0.2242  0.7322 -0.3904
 2442SOL    HW2 9767   0.995   2.656   4.699 -0.9509  1.4417  1.4712
 2442SOL     MW 9768   0.965   2.676   4.620 -0.0067  0.3927  0.8107
 2443SOL     OW 9769   0.887   4.526   3.161 -0.2599 -0.3715  0.2908
 2443SOL    HW1 9770   0.817   4.543   3.225 -1.1435 -0.6367 -0.5688
 2443SOL    HW2 9771   0.887   4.431   3.151  0.1248 -0.3584  0.1722
 2443SOL     MW 9772   0.877   4.516   3.168 -0.3271 -0.4054  0.1592
 2444SOL     OW 9773   4.933   0.323   4.972  0.1168 -0.1692  0.2261
 2444SOL    HW1 9774   4.898   0.341   4.885 -0.7405  0.1507  0.6260
 2444SOL    HW2 9775   4.857   0.331   5.030  0.4197 -1.5966  0.8565
 2444SOL     MW 9776   4.918   0.326   4.968  0.0422 -0.3183  0.3647
 2445SOL     OW 9777   4.822   1.705   2.351 -0.5330 -0.3243 -0.1902
 2445SOL    HW1 9778   4.739   1.727   2.309 -1.5289  1.5120  2.5012
 2445SOL    HW2 9779   4.836   1.774   2.415  2.1158 -1.6424  0.8066
 2445SOL     MW 9780   4.813   1.717   2.354 -0.3106 -0.2546  0.3062
 2446SOL     OW 9781   1.405   1.062   5.192  0.3075  0.1494  0.2849
 2446SOL    HW1 9782   1.368   0.992   5.138 -0.7487  0.9508 -0.0556
 2446SOL    HW2 9783   1.447   1.016   5.265  1.3875 -0.9306 -0.9765
 2446SOL     MW 9784   1.406   1.046   5.195  0.3107  0.1119  0.0693
 2447SOL     OW 9785   4.203   2.071   1.269  0.2631  0.4730  0.3112
 2447SOL    HW1 9786   4.196   2.100   1.360  1.3662  1.6336  0.0570
 2447SOL    HW2 9787   4.161   2.140   1.219  2.0977  1.2668 -0.2381
 2447SOL     MW 9788   4.197   2.084   1.275  0.6584  0.7361  0.2030
 2448SOL     OW 9789   1.692   0.061   3.316  0.1042 -0.0376  0.0682
 2448SOL    HW1 9790   1.657   0.128   3.375  0.6676 -1.1452  1.7254
 2448SOL    HW2 9791   1.786   0.059   3.333 -0.0610 -2.1880  1.1309
 2448SOL     MW 9792   1.700   0.069   3.326  0.1578 -0.4761  0.4342
 2449SOL     OW 9793   1.666   0.987   4.418 -0.0218  0.6881  0.0168
 2449SOL    HW1 9794   1.597   0.958   4.477 -0.4694  0.4487 -0.6239
 2449SOL    HW2 9795   1.742   0.935   4.444  0.1032  1.3725  1.1201
 2449SOL     MW 9796   1.667   0.976   4.430 -0.0652  0.7480  0.0791
 2450SOL     OW 9797   4.961   0.470   4.637  0.9101  0.4945  0.1398
 2450SOL    HW1 9798   5.016   0.542   4.668  2.4578  0.5244 -2.3712
 2450SOL    HW2 9799   4.879   0.512   4.610  1.3904  1.1761 -0.2827
 2450SOL     MW 9800   4.957   0.485   4.637  1.1831  0.5903 -0.2550
 2451SOL     OW 9801   5.024   4.380   1.451  0.2851  0.0074 -0.1574
 2451SOL    HW1 9802   4.962   4.452   1.450  1.1881  0.8103  0.1453
 2451SOL    HW2 9803   5.110   4.422   1.458  0.8117 -1.0950  0.2915
 2451SOL     MW 9804   5.027   4.395   1.452  0.4775 -0.0329 -0.0562
 2452SOL     OW 9805   3.377   2.310   3.977 -0.6816 -0.4186  0.4123
 2452SOL    HW1 9806   3.388   2.215   3.978 -1.8718 -0.6179 -1.0265
 2452SOL    HW2 9807   3.297   2.323   3.926  1.5703  1.5338 -2.9916
 2452SOL     MW 9808   3.367   2.299   3.970 -0.5387 -0.1827 -0.2395
 2453SOL     OW 9809   0.236   4.162   1.653 -0.1241  0.3279 -0.1735
 2453SOL    HW1 9810   0.324   4.197   1.651 -0.0391  0.1493  0.2667
 2453SOL    HW2 9811   0.230   4.117   1.738 -0.0264 -1.2106 -0.9532
 2453SOL     MW 9812   0.247   4.160   1.664 -0.0995  0.0968 -0.2192
 2454SOL     OW 9813   5.266   4.201   2.700  0.0665  0.0145  0.6271
 2454SOL    HW1 9814   5.345   4.183   2.751  0.0842 -1.4908  0.1106
 2454SOL    HW2 9815   5.196   4.203   2.765  0.3821  0.2909  0.9635
 2454SOL     MW 9816   5.267   4.199   2.716  0.1114 -0.1509  0.6028
 2455SOL     OW 9817   2.239   3.080   1.949  0.1281 -0.0551  0.2077
 2455SOL    HW1 9818   2.180   3.151   1.923  0.7570  0.1291 -0.7400
 2455SOL    HW2 9819   2.295   3.065   1.873  0.4117 -1.1592  0.6111
 2455SOL     MW 9820   2.239   3.088   1.935  0.2509 -0.1789  0.1345
 2456SOL     OW 9821   4.302   2.299   5.177 -0.2743 -0.0804 -0.5636
 2456SOL    HW1 9822   4.386   2.318   5.134  0.5050 -0.2120  0.8526
 2456SOL    HW2 9823   4.305   2.349   5.259  0.2557 -3.2516  1.5216
 2456SOL     MW 9824   4.314   2.308   5.182 -0.0981 -0.5249 -0.0924
 2457SOL     OW 9825   4.956   4.818   4.193 -0.7016  0.0595  0.5867
 2457SOL    HW1 9826   5.023   4.885   4.207  0.7184 -0.3551 -3.1029
 2457SOL    HW2 9827   4.979   4.748   4.255 -1.1878  2.1398  3.2917
 2457SOL     MW 9828   4.968   4.818   4.204 -0.5759  0.2836  0.4542
 2458SOL     OW 9829   2.308   0.673   5.023  0.1564  0.3479 -0.5891
 2458SOL    HW1 9830   2.325   0.619   5.100 -1.0626  0.5136 -0.1741
 2458SOL    HW2 9831   2.364   0.750   5.035  0.0667  0.3193  0.0778
 2458SOL     MW 9832   2.318   0.676   5.035 -0.0197  0.3663 -0.4435
 2459SOL     OW 9833   2.980   1.337   3.435  0.1624 -0.0525  0.5664
 2459SOL    HW1 9834   3.053   1.383   3.396 -1.5720  1.0727 -1.5577
 2459SOL    HW2 9835   2.938   1.401   3.492  0.8166 -0.7106  1.8308
 2459SOL     MW 9836   2.984   1.351   3.438  0.0170  0.0104  0.4507
 2460SOL     OW 9837   2.310   3.595   1.243 -0.4794  0.5796  0.4996
 2460SOL    HW1 9838   2.344   3.682   1.224  0.9829  0.2492  1.4648
 2460SOL    HW2 9839   2.374   3.534   1.205 -2.2173 -0.1525 -1.4857
 2460SOL     MW 9840   2.323   3.598   1.235 -0.5165  0.4366  0.3623
 2461SOL     OW 9841   4.640   0.524   5.353  0.1007  0.0636  0.0993
 2461SOL    HW1 9842   4.619   0.470   5.430 -0.1713  0.1420  0.0798
 2461SOL    HW2 9843   4.711   0.580   5.382 -0.2538  0.3590  0.4134
 2461SOL     MW 9844   4.647   0.524   5.367  0.0164  0.1139  0.1389
 2462SOL     OW 9845   3.287   2.584   0.136  0.4405  0.0504 -0.4867
 2462SOL    HW1 9846   3.214   2.576   0.075 -0.0635  1.2321 -0.0803
 2462SOL    HW2 9847   3.350   2.641   0.092  0.0514  0.9525  0.0730
 2462SOL     MW 9848   3.285   2.591   0.122  0.3203  0.3308 -0.3567
 2463SOL     OW 9849   0.609   1.876   0.569 -0.4930  0.0127  0.4850
 2463SOL    HW1 9850   0.583   1.950   0.514 -0.9995 -0.9450 -0.6068
 2463SOL    HW2 9851   0.528   1.851   0.614 -1.3951 -2.3021 -2.1186
 2463SOL     MW 9852   0.594   1.882   0.567 -0.6826 -0.4277 -0.0123
 2464SOL     OW 9853   0.303   3.992   4.145 -0.7005 -0.1134  0.4613
 2464SOL    HW1 9854   0.385   3.984   4.194  0.3391  1.1241 -0.9923
 2464SOL    HW2 9855   0.283   3.903   4.118 -0.0932 -0.4956  1.2282
 2464SOL     MW 9856   0.311   3.979   4.148 -0.4788  0.0017  0.3689
 2465SOL     OW 9857   2.890   0.513   3.342 -0.2305  0.3171 -0.0093
 2465SOL    HW1 9858   2.913   0.509   3.249  0.3431 -0.3936  0.1496
 2465SOL    HW2 9859   2.872   0.422   3.366 -0.7313  0.5404  0.4951
 2465SOL     MW 9860   2.891   0.500   3.333 -0.2207  0.2515  0.0800
 2466SOL     OW 9861   1.682   0.795   0.575  0.8401  0.6753  0.3766
 2466SOL    HW1 9862   1.682   0.729   0.644  0.1070  1.1054  0.7958
 2466SOL    HW2 9863   1.763   0.778   0.526  0.0011 -1.4140 -0.3844
 2466SOL     MW 9864   1.693   0.783   0.578  0.6285  0.4520  0.3306
 2467SOL     OW 9865   2.291   0.007   2.663  0.3519  0.2990  0.0124
 2467SOL    HW1 9866   2.342   0.052   2.596  1.4369  0.4943  0.9492
 2467SOL    HW2 9867   2.349  -0.061   2.696  0.0828  0.6594  1.2474
 2467SOL     MW 9868   2.306   0.004   2.658  0.4617  0.3738  0.3047
 2468SOL     OW 9869   4.049   5.152   4.670 -0.2784  0.0428 -0.4020
 2468SOL    HW1 9870   3.963   5.110   4.663 -0.7041  1.1280 -2.0683
 2468SOL    HW2 9871   4.110   5.088   4.632  0.0297 -1.5201  2.3819
 2468SOL     MW 9872   4.046   5.138   4.664 -0.2942 -0.0215 -0.2516
 2469SOL     OW 9873   0.964   2.440   0.300 -0.0393 -0.1380 -0.1797
 2469SOL    HW1 9874   0.938   2.502   0.232 -1.0296 -0.7158 -0.3467
 2469SOL    HW2 9875   0.902   2.368   0.292 -0.2564 -0.1733  1.3957
 2469SOL     MW 9876   0.952   2.439   0.290 -0.2018 -0.2205  0.0098
 2470SOL     OW 9877   3.436   3.943   3.984 -0.4596 -0.4496  0.2378
 2470SOL    HW1 9878   3.357   3.997   3.976  1.0810  1.7274 -1.4168
 2470SOL    HW2 9879   3.473   3.967   4.069 -1.4599 -1.3866  0.9643
 2470SOL     MW 9880   3.430   3.954   3.995 -0.3869 -0.2827  0.1129
 2471SOL     OW 9881   2.625   3.181   3.866 -0.2191 -0.3455 -0.3322
 2471SOL    HW1 9882   2.608   3.097   3.909 -2.0948  0.5832  0.8913
 2471SOL    HW2 9883   2.712   3.206   3.896 -0.0980 -1.3173  0.1989
 2471SOL     MW 9884   2.634   3.173   3.876 -0.4552 -0.3513 -0.0961
 2472SOL     OW 9885   4.065   4.069   0.519 -0.1684 -0.3355  0.2171
 2472SOL    HW1 9886   4.004   4.128   0.564 -1.9009 -1.5491 -0.4132
 2472SOL    HW2 9887   4.022   4.050   0.435  0.7366 -1.8081  0.0521
 2472SOL     MW 9888   4.051   4.074   0.514 -0.2797 -0.6970  0.1101
 2473SOL     OW 9889   2.509   0.396   2.574  0.0118  0.0945 -0.1654
 2473SOL    HW1 9890   2.430   0.434   2.534  0.3809  0.2639 -0.7435
 2473SOL    HW2 9891   2.515   0.308   2.537  0.6157  0.4176 -0.8698
 2473SOL     MW 9892   2.499   0.389   2.563  0.1427  0.1608 -0.3380
 2474SOL     OW 9893   1.256   3.976   2.724 -0.4954  0.3959 -0.3074
 2474SOL    HW1 9894   1.177   3.924   2.735 -0.5572 -0.0702 -2.4572
 2474SOL    HW2 9895   1.240   4.028   2.646  0.8316  1.2455 -0.0490
 2474SOL     MW 9896   1.243   3.976   2.715 -0.3251  0.4475 -0.5620
 2475SOL     OW 9897   2.103   2.851   0.762 -0.0458  0.2502 -0.4587
 2475SOL    HW1 9898   2.122   2.798   0.685 -0.9108 -0.8793  0.0791
 2475SOL    HW2 9899   2.151   2.932   0.747  1.4745 -0.7351 -1.2216
 2475SOL     MW 9900   2.112   2.855   0.750  0.0424 -0.0344 -0.4890
 2476SOL     OW 9901   3.927   4.974   3.832  0.2116 -0.5269  0.1372
 2476SOL    HW1 9902   3.861   4.905   3.824  0.7051 -0.9055 -0.8374
 2476SOL    HW2 9903   4.009   4.927   3.848  0.3442 -0.0877  0.8229
 2476SOL     MW 9904   3.929   4.958   3.833  0.2959 -0.5187  0.0983
 2477SOL     OW 9905   4.935   2.385   4.830  0.0961 -0.1572  0.0612
 2477SOL    HW1 9906   4.878   2.340   4.768  0.6836 -1.0513  0.1514
 2477SOL    HW2 9907   4.896   2.366   4.916 -0.1480  0.2382  0.0390
 2477SOL     MW 9908   4.922   2.376   4.833  0.1423 -0.2243  0.0704
 2478SOL     OW 9909   1.030   4.658   5.133  0.2094  0.0140 -0.3364
 2478SOL    HW1 9910   0.968   4.675   5.204 -0.1975  0.2917 -0.7566
 2478SOL    HW2 9911   1.038   4.562   5.131  1.2370  0.0409  0.9387
 2478SOL     MW 9912   1.023   4.647   5.142  0.2930  0.0550 -0.2213
 2479SOL     OW 9913   0.902   2.663   3.233 -0.5144 -0.1504 -0.9173
 2479SOL    HW1 9914   0.956   2.717   3.175  0.1213 -1.7248 -1.8317
 2479SOL    HW2 9915   0.891   2.717   3.311  1.2947  0.7326 -1.2209
 2479SOL     MW 9916   0.908   2.678   3.236 -0.1854 -0.2434 -1.0812
 2480SOL     OW 9917   5.335   5.211   3.733 -0.5307 -0.1540 -0.2324
 2480SOL    HW1 9918   5.286   5.236   3.812 -1.0873  1.2000 -0.9614
 2480SOL    HW2 9919   5.394   5.284   3.717 -1.6882  0.4497 -2.0495
 2480SOL     MW 9920   5.336   5.224   3.742 -0.7614  0.1094 -0.5750
 2481SOL     OW 9921   0.066   5.307   4.681 -0.1285 -0.1472 -0.6297
 2481SOL    HW1 9922   0.005   5.243   4.717 -0.2776  0.1338 -0.3794
 2481SOL    HW2 9923   0.011   5.380   4.653  0.1566  0.5036  0.4282
 2481SOL     MW 9924   0.050   5.308   4.682 -0.1102 -0.0218 -0.4536
 2482SOL     OW 9925   2.296   3.883   1.600  0.5084 -0.4583  0.4297
 2482SOL    HW1 9926   2.338   3.798   1.589  0.6475 -0.4232  0.6779
 2482SOL    HW2 9927   2.363   3.946   1.572  1.1668 -0.3200  2.1645
 2482SOL     MW 9928   2.311   3.880   1.595  0.6157 -0.4349  0.6966
 2483SOL     OW 9929   3.000   0.960   0.025 -0.1208  0.0304 -0.2847
 2483SOL    HW1 9930   2.910   0.938   0.051 -0.3911  1.5677  0.1917
 2483SOL    HW2 9931   3.007   1.055   0.040  1.3965  0.0439 -0.8831
 2483SOL     MW 9932   2.989   0.970   0.030  0.0470  0.2391 -0.3011
 2484SOL     OW 9933   2.202   0.710   2.542 -0.6703  0.0891  0.3422
 2484SOL    HW1 9934   2.215   0.619   2.516 -2.0220 -0.1659  0.4797
 2484SOL    HW2 9935   2.140   0.745   2.478  0.6145  1.2329 -0.3200
 2484SOL     MW 9936   2.196   0.703   2.530 -0.6793  0.2087  0.2716
 2485SOL     OW 9937   1.518   2.394   2.548  0.1266  0.1251 -0.0720
 2485SOL    HW1 9938   1.576   2.353   2.613  2.4480  0.9724 -1.4981
 2485SOL    HW2 9939   1.433   2.397   2.592  0.8486 -2.1660  1.7311
 2485SOL     MW 9940   1.515   2.389   2.563  0.5362 -0.0692 -0.0213
 2486SOL     OW 9941   2.595   2.215   3.532 -0.1024  0.1789  0.2278
 2486SOL    HW1 9942   2.514   2.200   3.580 -0.4392 -0.5846 -0.5594
 2486SOL    HW2 9943   2.568   2.219   3.440  0.4147  2.3890  0.1167
 2486SOL     MW 9944   2.581   2.214   3.526 -0.0782  0.3736  0.1069
 2487SOL     OW 9945   2.822   2.701   1.172  0.6486 -0.7614  0.4814
 2487SOL    HW1 9946   2.883   2.676   1.241  2.0632 -1.2246 -0.8751
 2487SOL    HW2 9947   2.878   2.735   1.102 -0.8536  1.3903  0.2248
 2487SOL     MW 9948   2.838   2.703   1.172  0.6368 -0.5342  0.2643
 2488SOL     OW 9949   2.217   4.399   0.329  0.3219  1.0384  0.1100
 2488SOL    HW1 9950   2.286   4.466   0.331  1.3253  0.0664 -0.6512
 2488SOL    HW2 9951   2.251   4.329   0.385  0.5294  0.0399 -1.2122
 2488SOL     MW 9952   2.231   4.399   0.337  0.4849  0.7732 -0.1703
 2489SOL     OW 9953   0.876   1.769   5.297  0.3326 -0.0282 -0.1674
 2489SOL    HW1 9954   0.883   1.706   5.225 -1.8813  0.0076 -0.4818
 2489SOL    HW2 9955   0.830   1.721   5.366  0.0682  0.7558  0.2102
 2489SOL     MW 9956   0.871   1.754   5.296 -0.0009  0.0821 -0.1589
 2490SOL     OW 9957   3.542   3.073   4.046  0.3336 -0.1185  0.1082
 2490SOL    HW1 9958   3.558   3.014   4.119  0.9007 -2.4727 -1.8053
 2490SOL    HW2 9959   3.579   3.157   4.075  2.1169 -1.4115  1.8312
 2490SOL     MW 9960   3.549   3.077   4.060  0.6499 -0.6094  0.0825
 2491SOL     OW 9961   0.961   5.177   3.189 -0.4780 -0.7919 -0.0370
 2491SOL    HW1 9962   0.967   5.193   3.095 -0.2914 -1.2458 -0.1070
 2491SOL    HW2 9963   1.052   5.166   3.218 -0.4457  0.5592  0.4234
 2491SOL     MW 9964   0.974   5.178   3.180 -0.4485 -0.6712  0.0155
 2492SOL     OW 9965   5.008   0.463   1.124 -0.4012  0.1616 -0.1803
 2492SOL    HW1 9966   5.008   0.542   1.178  0.1094 -0.3211  0.5504
 2492SOL    HW2 9967   5.019   0.494   1.035  0.7311  0.8599  0.1884
 2492SOL     MW 9968   5.009   0.478   1.120 -0.1801  0.1906 -0.0323
 2493SOL     OW 9969   2.606   1.849   4.667  0.1433 -0.4227  0.2139
 2493SOL    HW1 9970   2.513   1.828   4.663  0.3230 -1.3667  0.7419
 2493SOL    HW2 9971   2.613   1.914   4.737 -0.1514 -0.1209 -0.0340
 2493SOL     MW 9972   2.594   1.855   4.676  0.1279 -0.5091  0.2516
 2494SOL     OW 9973   3.872   1.683   3.028  0.4000  0.0389 -0.0067
 2494SOL    HW1 9974   3.792   1.657   2.983 -0.2546 -3.2873  2.7379
 2494SOL    HW2 9975   3.844   1.750   3.090  0.5577  1.6553 -1.6049
 2494SOL     MW 9976   3.858   1.689   3.030  0.3332 -0.1912  0.1476
 2495SOL     OW 9977   0.024   1.112   1.086 -0.0289  0.1524  0.5672
 2495SOL    HW1 9978   0.044   1.166   1.009  0.2121  0.0345  0.5465
 2495SOL    HW2 9979   0.090   1.043   1.085  0.5406  0.6715  1.3819
 2495SOL     MW 9980   0.035   1.110   1.076  0.0802  0.2064  0.6740
 2496SOL     OW 9981   5.346   4.599   5.246 -0.0050  0.1909  0.2618
 2496SOL    HW1 9982   5.426   4.600   5.193  1.4658 -0.8334  2.3185
 2496SOL    HW2 9983   5.317   4.508   5.243 -0.3144  0.2746  0.6514
 2496SOL     MW 9984   5.353   4.587   5.238  0.1513  0.0643  0.5910
 2497SOL     OW 9985   3.550   4.910   1.638  0.2755  0.6117  0.3706
 2497SOL    HW1 9986   3.526   4.837   1.581  0.8744  0.2698  0.5569
 2497SOL    HW2 9987   3.613   4.874   1.699 -0.5486  0.9094  1.4365
 2497SOL     MW 9988   3.555   4.896   1.639  0.2452  0.6058  0.5391
 2498SOL     OW 9989   3.533   4.486   2.373  0.4917 -0.1394 -0.2574
 2498SOL    HW1 9990   3.499   4.556   2.318 -1.2883  0.1873  1.1630
 2498SOL    HW2 9991   3.478   4.410   2.354 -0.8078  0.2419  1.6746
 2498SOL     MW 9992   3.521   4.485   2.363  0.0772 -0.0441  0.1937
 2499SOL     OW 9993   5.402   4.784   4.910 -0.0074  0.1297  0.2603
 2499SOL    HW1 9994   5.398   4.853   4.977 -1.0466  0.6781 -0.3475
 2499SOL    HW2 9995   5.407   4.832   4.827  0.2281 -0.5396 -0.1192
 2499SOL     MW 9996   5.402   4.800   4.908 -0.1156  0.1134  0.1274
 2500SOL     OW 9997   3.673   3.570   0.822 -0.5281  0.1947  0.0312
 2500SOL    HW1 9998   3.592   3.519   0.830 -0.5276  0.4858  2.3082
 2500SOL    HW2 9999   3.671   3.602   0.731 -2.1610 -1.1008 -0.4485
 2500SOL     MW10000   3.662   3.568   0.811 -0.7478  0.0596  0.2731
 2501SOL     OW10001   1.718   1.294   2.086 -0.2067  0.6137  0.6750
 2501SOL    HW110002   1.672   1.331   2.162  0.6017  1.9125  0.5618
 2501SOL    HW210003   1.671   1.330   2.010  1.2242  2.3387  0.5510
 2501SOL     MW10004   1.705   1.304   2.086  0.0947  1.0207  0.6431
 2502SOL     OW10005   5.259   1.073   4.720  0.4405 -0.3780 -0.0182
 2502SOL    HW110006   5.215   1.055   4.804  1.3040  0.1822  0.5706
 2502SOL    HW210007   5.347   1.101   4.745  1.0981 -1.3203 -1.1718
 2502SOL     MW10008   5.265   1.074   4.735  0.6452 -0.4294 -0.0943
 2503SOL     OW10009   4.787   3.706   1.993  0.5959  0.3807 -0.1006
 2503SOL    HW110010   4.735   3.656   1.931  0.2130  0.3171  0.2696
 2503SOL    HW210011   4.723   3.740   2.056  1.1966 -1.4966  1.6362
 2503SOL     MW10012   4.771   3.704   1.993  0.6252  0.1195  0.1829
 2504SOL     OW10013   0.893   4.207   0.911  0.1137  0.1413 -0.3966
 2504SOL    HW110014   0.824   4.225   0.975 -1.2074 -1.1756 -1.3791
 2504SOL    HW210015   0.854   4.144   0.850  2.3558 -1.0583 -0.7088
 2504SOL     MW10016   0.878   4.201   0.911  0.2377 -0.1973 -0.5708
 2505SOL     OW10017   4.294   1.733   5.358 -0.3565 -0.1201 -0.8681
 2505SOL    HW110018   4.331   1.687   5.283 -0.2376 -0.7806 -0.4227
 2505SOL    HW210019   4.309   1.825   5.340 -2.2963 -0.0877 -2.7111
 2505SOL     MW10020   4.301   1.739   5.346 -0.6015 -0.2047 -1.0562
 2506SOL     OW10021   0.278   3.155   3.280 -0.1376  0.0787 -0.2874
 2506SOL    HW110022   0.198   3.206   3.272  0.1965  0.6550  0.0291
 2506SOL    HW210023   0.313   3.153   3.191  0.7583  1.9063 -0.0208
 2506SOL     MW10024   0.272   3.161   3.267  0.0280  0.4022 -0.2090
 2507SOL     OW10025   2.312   1.237   2.867  0.2598 -0.2338  0.3800
 2507SOL    HW110026   2.299   1.332   2.873  1.1025 -0.1862  2.1034
 2507SOL    HW210027   2.232   1.205   2.827 -0.7644  1.0579  1.2833
 2507SOL     MW10028   2.300   1.246   2.863  0.2354 -0.0536  0.7335
 2508SOL     OW10029   3.268   4.999   1.560 -0.1292 -0.1313  0.2609
 2508SOL    HW110030   3.242   4.939   1.490 -0.3176 -0.9268  0.9993
 2508SOL    HW210031   3.350   4.963   1.593 -0.1691  0.0957  0.6131
 2508SOL     MW10032   3.275   4.986   1.555 -0.1599 -0.2078  0.4076
 2509SOL     OW10033   1.440   0.222   2.904  0.3168  0.4771 -0.2586
 2509SOL    HW110034   1.492   0.302   2.914 -1.9543  2.1250 -0.8458
 2509SOL    HW210035   1.473   0.163   2.972  2.4399  1.6630 -0.1745
 2509SOL     MW10036   1.452   0.225   2.915  0.2969  0.8585 -0.3263
 2510SOL     OW10037   5.399   1.931   2.071  0.5395 -0.3322 -0.1530
 2510SOL    HW110038   5.414   1.922   2.165  1.7598 -0.1131 -0.3124
 2510SOL    HW210039   5.331   1.999   2.064  1.6925  0.9405  0.5231
 2510SOL     MW10040   5.392   1.939   2.083  0.8589 -0.1314 -0.0834
 2511SOL     OW10041   2.093   5.081   3.106 -0.1898  0.1899 -0.0111
 2511SOL    HW110042   2.053   5.029   3.036  0.4668 -0.4240  0.0618
 2511SOL    HW210043   2.065   5.038   3.187  0.9090 -0.4812  0.0312
 2511SOL     MW10044   2.083   5.068   3.107  0.0465  0.0170  0.0044
 2512SOL     OW10045   4.354   5.237   0.121 -0.2572  0.3737 -0.0952
 2512SOL    HW110046   4.262   5.214   0.116 -0.6542  1.6444  0.9399
 2512SOL    HW210047   4.356   5.333   0.119  1.0903  0.3627 -0.7735
 2512SOL     MW10048   4.342   5.247   0.120 -0.1292  0.5432 -0.0472
 2513SOL     OW10049   1.734   2.656   3.762 -0.5147 -0.1466 -0.0506
 2513SOL    HW110050   1.803   2.590   3.757 -0.3240  0.1573 -1.8667
 2513SOL    HW210051   1.660   2.609   3.800  0.1696 -0.9170  0.3809
 2513SOL     MW10052   1.733   2.641   3.767 -0.3969 -0.2094 -0.2370
 2514SOL     OW10053   1.443   1.926   1.441 -0.4026 -0.1093  0.0070
 2514SOL    HW110054   1.451   1.958   1.351 -1.7666 -1.0188 -0.4798
 2514SOL    HW210055   1.374   1.860   1.437  0.1123 -0.7961  1.5753
 2514SOL     MW10056   1.434   1.921   1.429 -0.5169 -0.3241  0.1526
 2515SOL     OW10057   2.144   1.261   2.473  0.0423  0.3324 -0.0803
 2515SOL    HW110058   2.103   1.240   2.557 -0.1981  0.5642 -0.1388
 2515SOL    HW210059   2.073   1.293   2.418  0.0235 -0.6718 -0.6746
 2515SOL     MW10060   2.129   1.262   2.477  0.0074  0.2284 -0.1682
 2516SOL     OW10061   0.132   4.574   1.699  0.2277 -0.3762  0.1416
 2516SOL    HW110062   0.058   4.635   1.695 -0.0290 -0.5659  1.6057
 2516SOL    HW210063   0.092   4.488   1.686  0.1166 -0.5163  1.3359
 2516SOL     MW10064   0.117   4.571   1.697  0.1782 -0.4206  0.4994
 2517SOL     OW10065   2.728   2.659   4.420  0.1076  0.1735 -0.2221
 2517SOL    HW110066   2.775   2.740   4.440 -0.9143  0.9577 -0.8865
 2517SOL    HW210067   2.756   2.636   4.331 -2.4327  1.9566 -1.6046
 2517SOL     MW10068   2.738   2.667   4.410 -0.3718  0.5190 -0.4976
 2518SOL     OW10069   4.795   4.958   0.209  0.0156 -0.1297 -0.1740
 2518SOL    HW110070   4.786   4.893   0.139  1.2184  0.9414 -1.3720
 2518SOL    HW210071   4.726   5.022   0.192 -2.1331 -1.7201  1.8484
 2518SOL     MW10072   4.785   4.958   0.198 -0.1117 -0.1996 -0.0631
 2519SOL     OW10073   5.460   0.117   0.983  0.6711 -0.0525 -0.3516
 2519SOL    HW110074   5.502   0.202   0.996  0.3309  0.2328 -1.0140
 2519SOL    HW210075   5.500   0.083   0.903  0.1990 -0.1194 -0.5651
 2519SOL     MW10076   5.471   0.124   0.974  0.5618 -0.0231 -0.4695
 2520SOL     OW10077   2.423   5.120   2.310  0.2909  0.2937 -0.6852
 2520SOL    HW110078   2.395   5.104   2.400  0.7539  3.2257  0.0958
 2520SOL    HW210079   2.343   5.112   2.259 -0.4275  0.6627  0.3356
 2520SOL     MW10080   2.408   5.117   2.315  0.2565  0.7380 -0.4427
 2521SOL     OW10081   3.752   1.506   4.320  0.1884 -0.2047 -0.3567
 2521SOL    HW110082   3.763   1.498   4.414  0.1003 -1.5462 -0.4329
 2521SOL    HW210083   3.795   1.428   4.284  2.3671  1.4687 -1.6297
 2521SOL     MW10084   3.759   1.494   4.327  0.4697 -0.1600 -0.5383
 2522SOL     OW10085   0.412   5.211   0.284 -0.6774 -0.6593  0.0321
 2522SOL    HW110086   0.427   5.302   0.259 -0.7702 -0.0246  2.0558
 2522SOL    HW210087   0.316   5.205   0.293 -0.5720 -0.4431  1.5326
 2522SOL     MW10088   0.401   5.223   0.282 -0.6757 -0.5448  0.5064
 2523SOL     OW10089   4.900   5.007   2.855  0.2395  0.0530 -0.1707
 2523SOL    HW110090   4.980   4.958   2.838  0.1896 -0.7807  1.7295
 2523SOL    HW210091   4.835   4.940   2.879 -0.3774  0.8726  0.5272
 2523SOL     MW10092   4.902   4.991   2.856  0.1498  0.0511  0.1790
 2524SOL     OW10093   4.133   5.476   5.177  0.2613 -0.5091 -0.3061
 2524SOL    HW110094   4.126   5.544   5.244  0.3762 -2.0970  1.3581
 2524SOL    HW210095   4.218   5.493   5.135  0.8145 -0.3147  0.8699
 2524SOL     MW10096   4.144   5.488   5.180  0.3512 -0.6966  0.0761
 2525SOL     OW10097   0.536   1.400   4.336 -0.0735  0.2955 -0.3491
 2525SOL    HW110098   0.468   1.436   4.279  0.7119  0.5487 -1.1360
 2525SOL    HW210099   0.618   1.416   4.290  0.4632 -0.7680  0.1854
 2525SOL     MW10100   0.538   1.407   4.322  0.1044  0.1864 -0.3831
 2526SOL     OW10101   1.471   5.348   4.094  0.1266  0.3678  0.5456
 2526SOL    HW110102   1.410   5.286   4.134 -0.3397  1.3066  1.3491
 2526SOL    HW210103   1.456   5.340   4.000  0.6420 -1.2899  0.5606
 2526SOL     MW10104   1.461   5.338   4.087  0.1332  0.2710  0.6557
 2527SOL     OW10105   1.229   1.752   1.467 -0.6786  0.4912 -0.5942
 2527SOL    HW110106   1.228   1.724   1.559  0.0433 -0.0529 -0.7393
 2527SOL    HW210107   1.188   1.680   1.420 -1.1387  0.8138 -0.6990
 2527SOL     MW10108   1.224   1.739   1.473 -0.6433  0.4614 -0.6278
 2528SOL     OW10109   2.400   5.535   3.271  0.3319  0.4255  0.5688
 2528SOL    HW110110   2.411   5.467   3.337 -1.2177  0.3422  0.7770
 2528SOL    HW210111   2.401   5.488   3.188  2.5910  0.5625  0.4405
 2528SOL     MW10112   2.402   5.520   3.269  0.4273  0.4327  0.5796
 2529SOL     OW10113   5.222   3.693   0.968  0.1882  0.0963  0.3666
 2529SOL    HW110114   5.209   3.651   1.053  0.2291  1.5371  1.1023
 2529SOL    HW210115   5.299   3.649   0.932  2.1061  1.5386  2.4580
 2529SOL     MW10116   5.231   3.681   0.974  0.4518  0.4843  0.7471
 2530SOL     OW10117   5.429   2.215   4.211 -0.3597  0.2168  0.1677
 2530SOL    HW110118   5.484   2.292   4.201  1.4788 -0.9204  0.9458
 2530SOL    HW210119   5.344   2.241   4.176  0.7851  1.9025 -1.5291
 2530SOL     MW10120   5.425   2.229   4.205  0.0418  0.2906  0.0440
 2531SOL     OW10121   3.136   4.887   1.264 -0.0278 -0.4035 -0.0729
 2531SOL    HW110122   3.202   4.957   1.263  0.4528 -0.8158 -2.1842
 2531SOL    HW210123   3.185   4.807   1.245 -1.2690 -0.4231 -4.3358
 2531SOL     MW10124   3.151   4.886   1.261 -0.1302 -0.4617 -0.9307
 2532SOL     OW10125   5.410   0.063   2.474 -0.0058  0.1117 -0.0674
 2532SOL    HW110126   5.382   0.007   2.402 -0.0544 -0.5275  0.4417
 2532SOL    HW210127   5.504   0.052   2.479 -0.0077  0.1235 -0.0034
 2532SOL     MW10128   5.419   0.054   2.465 -0.0126  0.0272  0.0097
 2533SOL     OW10129   0.591   2.027   2.211  0.0515 -0.2308 -0.5299
 2533SOL    HW110130   0.524   1.995   2.271  0.6156  1.3036  0.9958
 2533SOL    HW210131   0.553   2.014   2.124 -0.6703 -2.7782  0.0737
 2533SOL     MW10132   0.577   2.021   2.207  0.0303 -0.3672 -0.2433
 2534SOL     OW10133   4.895   2.127   0.634 -0.2186  0.6696  0.4950
 2534SOL    HW110134   4.866   2.073   0.560 -0.1269  1.6745 -0.2954
 2534SOL    HW210135   4.834   2.201   0.634  0.2924  1.0943  0.9175
 2534SOL     MW10136   4.883   2.130   0.624 -0.1375  0.8620  0.4455
 2535SOL     OW10137   4.100   5.339   2.540 -0.5389  0.3022  0.1528
 2535SOL    HW110138   4.008   5.313   2.553 -0.9326  1.7821  0.5635
 2535SOL    HW210139   4.095   5.432   2.518  0.8197  0.1820 -0.7483
 2535SOL     MW10140   4.087   5.348   2.539 -0.4090  0.4852  0.0868
 2536SOL     OW10141   2.580   1.245   5.415 -0.6681  0.4290 -0.0916
 2536SOL    HW110142   2.594   1.173   5.477 -0.3522  0.8098  0.2902
 2536SOL    HW210143   2.525   1.208   5.347 -0.5960 -0.1461  0.1569
 2536SOL     MW10144   2.575   1.231   5.415 -0.6159  0.4029 -0.0068
 2537SOL     OW10145   1.309   2.444   2.716  0.2681 -0.5168 -0.3912
 2537SOL    HW110146   1.278   2.354   2.705 -0.4205 -0.2873 -0.4061
 2537SOL    HW210147   1.242   2.485   2.771  0.1087  0.2215 -1.1153
 2537SOL     MW10148   1.295   2.437   2.722  0.1540 -0.3866 -0.4906
 2538SOL     OW10149   4.727   2.193   2.180 -0.2388  0.0760  0.0548
 2538SOL    HW110150   4.756   2.284   2.173  0.2007 -0.1707 -1.6300
 2538SOL    HW210151   4.797   2.142   2.139 -1.2874 -0.8581 -0.6301
 2538SOL     MW10152   4.740   2.198   2.174 -0.3208 -0.0829 -0.2641
 2539SOL     OW10153   1.646   3.968   5.452 -0.2428  0.4340  0.3895
 2539SOL    HW110154   1.717   3.914   5.418 -0.2513  0.8700 -0.3470
 2539SOL    HW210155   1.610   3.918   5.526 -0.7024 -0.8944 -0.7041
 2539SOL     MW10156   1.651   3.954   5.458 -0.3058  0.3139  0.1432
 2540SOL     OW10157   4.063   0.198   4.732 -0.0258  0.0145  0.1808
 2540SOL    HW110158   4.010   0.152   4.668  0.4385 -0.9350  0.4577
 2540SOL    HW210159   4.062   0.141   4.810  0.9944  0.1992  0.3476
 2540SOL     MW10160   4.056   0.184   4.734  0.1740 -0.0884  0.2405
 2541SOL     OW10161   4.744   1.681   0.438 -0.7713 -0.1987  0.2991
 2541SOL    HW110162   4.777   1.613   0.379 -1.5911 -0.4819  0.1440
 2541SOL    HW210163   4.660   1.707   0.399 -0.3513  1.0898  0.2172
 2541SOL     MW10164   4.737   1.675   0.425 -0.8251 -0.0634  0.2672
 2542SOL     OW10165   0.228   0.175   4.695 -0.2215  0.1888 -0.4072
 2542SOL    HW110166   0.305   0.130   4.727 -0.8905 -0.8709 -0.2274
 2542SOL    HW210167   0.261   0.235   4.627  0.5990 -1.2775 -1.3540
 2542SOL     MW10168   0.243   0.177   4.690 -0.2011 -0.1511 -0.5104
 2543SOL     OW10169   4.338   4.475   1.889  0.1845  0.2424 -0.6010
 2543SOL    HW110170   4.387   4.510   1.963 -0.6707 -0.4210  0.3028
 2543SOL    HW210171   4.336   4.547   1.826  0.1786  1.1305  0.3761
 2543SOL     MW10172   4.345   4.489   1.890  0.0686  0.2727 -0.3479
 2544SOL     OW10173   0.209   2.191   1.034  0.1922 -0.5464 -0.1577
 2544SOL    HW110174   0.216   2.103   0.998 -1.2212 -0.6170 -0.2951
 2544SOL    HW210175   0.115   2.211   1.034  0.5316  1.3389 -1.0564
 2544SOL     MW10176   0.197   2.182   1.029  0.0476 -0.3022 -0.2971
 2545SOL     OW10177   2.173   2.505   3.607 -0.5208 -0.0279  0.0866
 2545SOL    HW110178   2.091   2.504   3.658 -1.2331 -1.1165 -1.0534
 2545SOL    HW210179   2.154   2.454   3.529  1.4388 -0.7705  0.0518
 2545SOL     MW10180   2.159   2.498   3.604 -0.3530 -0.2743 -0.0715
 2546SOL     OW10181   2.367   3.704   0.114  0.1254 -0.5528 -0.0846
 2546SOL    HW110182   2.335   3.793   0.099  1.3174 -0.2336 -0.8700
 2546SOL    HW210183   2.423   3.685   0.039  2.4140 -0.7631  1.5676
 2546SOL     MW10184   2.370   3.713   0.102  0.5938 -0.5382  0.0321
 2547SOL     OW10185   3.432   2.050   3.961  0.4616 -0.1558  0.2779
 2547SOL    HW110186   3.526   2.032   3.955  0.4609 -0.1355  0.2066
 2547SOL    HW210187   3.395   2.014   3.880  0.4123 -0.1353  0.2912
 2547SOL     MW10188   3.440   2.043   3.949  0.4549 -0.1503  0.2701
 2548SOL     OW10189   3.329   3.960   4.554  0.1901  0.3554  0.0350
 2548SOL    HW110190   3.387   4.035   4.543  1.7132 -0.7853 -0.1321
 2548SOL    HW210191   3.385   3.892   4.593 -1.4556 -0.2985  1.3893
 2548SOL     MW10192   3.345   3.961   4.558  0.1736  0.1139  0.1948
 2549SOL     OW10193   3.094   2.153   0.234  0.2376  0.4512 -0.0983
 2549SOL    HW110194   3.127   2.182   0.148 -0.2648 -1.0761 -0.8461
 2549SOL    HW210195   3.112   2.227   0.292  0.3480  1.6433 -1.5682
 2549SOL     MW10196   3.101   2.167   0.230  0.1848  0.4061 -0.3967
 2550SOL     OW10197   4.590   4.498   0.169  0.3908 -0.2299 -0.0842
 2550SOL    HW110198   4.523   4.535   0.112 -0.4152 -1.7881 -0.2179
 2550SOL    HW210199   4.638   4.436   0.113  0.2763 -0.9954  0.6477
 2550SOL     MW10200   4.588   4.494   0.154  0.2669 -0.5426 -0.0037
 2551SOL     OW10201   4.950   0.960   3.194  0.0893  0.5063 -0.6184
 2551SOL    HW110202   4.936   0.977   3.101  1.3040  1.0441 -0.7343
 2551SOL    HW210203   5.030   1.009   3.215  0.2956 -0.2693  0.5099
 2551SOL     MW10204   4.959   0.969   3.184  0.2805  0.4743 -0.4821
 2552SOL     OW10205   0.953   3.602   4.455  0.3811 -0.2046 -0.3336
 2552SOL    HW110206   0.858   3.599   4.439  0.7194 -2.5079 -2.4711
 2552SOL    HW210207   0.965   3.557   4.539 -0.3314 -1.2653 -0.7777
 2552SOL     MW10208   0.942   3.596   4.464  0.3307 -0.6573 -0.6810
 2553SOL     OW10209   1.137   0.937   2.495 -0.2560  0.4356  0.0842
 2553SOL    HW110210   1.147   1.026   2.530  0.1404  0.2143  0.5341
 2553SOL    HW210211   1.225   0.902   2.492 -0.6620 -0.9735  2.6372
 2553SOL     MW10212   1.150   0.945   2.499 -0.2573  0.2161  0.4883
 2554SOL     OW10213   3.513   4.565   0.514  0.1693  0.3914 -0.0488
 2554SOL    HW110214   3.576   4.615   0.462 -1.8942  2.7260 -0.4337
 2554SOL    HW210215   3.563   4.537   0.591  1.6840  2.1359 -0.3304
 2554SOL     MW10216   3.528   4.568   0.517  0.0954  0.9404 -0.1385
 2555SOL     OW10217   4.646   3.183   2.536  0.0279  0.1262  0.0074
 2555SOL    HW110218   4.686   3.118   2.478  0.4397 -0.3375  0.8016
 2555SOL    HW210219   4.558   3.147   2.554  0.2398 -0.1976  0.4131
 2555SOL     MW10220   4.639   3.169   2.530  0.1118  0.0202  0.1688
 2556SOL     OW10221   4.115   1.134   0.617 -0.3780 -0.1831 -0.3951
 2556SOL    HW110222   4.099   1.207   0.677 -0.6857 -0.2136 -0.4404
 2556SOL    HW210223   4.121   1.057   0.674  1.3116  0.0452 -0.1973
 2556SOL     MW10224   4.114   1.133   0.633 -0.1920 -0.1565 -0.3746
 2557SOL     OW10225   1.855   3.511   4.679 -0.0791 -0.3613  0.6906
 2557SOL    HW110226   1.856   3.588   4.623  0.4358  0.7395  2.1533
 2557SOL    HW210227   1.918   3.530   4.749  0.1807 -2.1745  1.0131
 2557SOL     MW10228   1.863   3.524   4.681  0.0252 -0.4571  0.9309
 2558SOL     OW10229   3.877   0.270   3.898 -0.0077 -0.0647  0.1975
 2558SOL    HW110230   3.972   0.280   3.910  0.4043 -1.4561 -1.5053
 2558SOL    HW210231   3.844   0.255   3.987  1.2006  1.4436  0.9461
 2558SOL     MW10232   3.885   0.269   3.912  0.2104 -0.0489  0.0691
 2559SOL     OW10233   2.398   0.859   2.309  0.2884  0.3329 -0.2684
 2559SOL    HW110234   2.346   0.940   2.306  0.5669  0.5112 -0.3709
 2559SOL    HW210235   2.419   0.848   2.401 -2.0171 -1.1028  0.1828
 2559SOL     MW10236   2.394   0.869   2.321  0.0156  0.1636 -0.2214
 2560SOL     OW10237   5.334   1.740   1.890 -0.2759  0.4889 -0.4409
 2560SOL    HW110238   5.368   1.807   1.949 -0.8827 -0.7622  1.4130
 2560SOL    HW210239   5.400   1.670   1.894  0.0702  0.7083 -1.9013
 2560SOL     MW10240   5.348   1.739   1.899 -0.3110  0.3501 -0.3879
 2561SOL     OW10241   5.365   4.433   0.251  0.5693 -0.0058 -0.1371
 2561SOL    HW110242   5.375   4.375   0.327  0.7295  0.4535  0.2002
 2561SOL    HW210243   5.293   4.395   0.201 -0.7608  0.6697  1.1958
 2561SOL     MW10244   5.357   4.420   0.255  0.4119  0.1469  0.0877
 2562SOL     OW10245   1.677   5.369   2.659 -0.2811  0.0368 -0.0135
 2562SOL    HW110246   1.683   5.447   2.714 -0.6301 -0.0866  0.2057
 2562SOL    HW210247   1.593   5.329   2.683  0.8688 -1.6340  1.5075
 2562SOL     MW10248   1.667   5.374   2.670 -0.1733 -0.2047  0.2207
 2563SOL     OW10249   5.282   4.204   3.569  0.1881  0.0594 -0.0560
 2563SOL    HW110250   5.377   4.214   3.562  0.2828  0.3180  1.3259
 2563SOL    HW210251   5.268   4.177   3.659 -1.1260  0.9651  0.0335
 2563SOL     MW10252   5.293   4.202   3.580  0.0240  0.2161  0.1421
 2564SOL     OW10253   5.166   3.372   3.157 -0.3808 -0.4956  0.1653
 2564SOL    HW110254   5.202   3.438   3.098  0.6571 -1.0824  0.1096
 2564SOL    HW210255   5.241   3.315   3.178 -0.7733 -0.4577  1.8442
 2564SOL     MW10256   5.181   3.373   3.152 -0.2939 -0.5695  0.3838
 2565SOL     OW10257   1.623   2.080   2.073  0.6998 -0.4928 -0.3180
 2565SOL    HW110258   1.661   2.156   2.028  0.7589 -0.2749  0.0930
 2565SOL    HW210259   1.616   2.108   2.165  1.0243 -1.1018 -0.1031
 2565SOL     MW10260   1.627   2.094   2.080  0.7514 -0.5455 -0.2338
 2566SOL     OW10261   4.537   2.273   3.476 -0.0889  0.0746 -0.5878
 2566SOL    HW110262   4.476   2.339   3.508 -1.6276 -1.5319  0.0021
 2566SOL    HW210263   4.581   2.314   3.402 -1.5015  1.5048 -0.6954
 2566SOL     MW10264   4.535   2.287   3.470 -0.4861  0.0509 -0.5229
 2567SOL     OW10265   4.420   0.760   1.054  0.0369  0.1913 -0.4311
 2567SOL    HW110266   4.369   0.679   1.050  1.2680 -0.6335 -0.0880
 2567SOL    HW210267   4.356   0.828   1.074 -1.0548 -0.6669 -0.9218
 2567SOL     MW10268   4.405   0.758   1.056  0.0557 -0.0352 -0.4510
 2568SOL     OW10269   1.829   3.577   3.258 -0.0965 -0.2673 -0.1351
 2568SOL    HW110270   1.907   3.626   3.283  0.6061 -0.2615 -2.1629
 2568SOL    HW210271   1.760   3.643   3.252 -0.3729 -0.3171  1.9663
 2568SOL     MW10272   1.830   3.592   3.260 -0.0391 -0.2732 -0.1252
 2569SOL     OW10273   4.911   2.417   2.305  0.5512 -0.2445 -0.5373
 2569SOL    HW110274   4.942   2.344   2.359  2.7081  0.2469 -1.0145
 2569SOL    HW210275   4.991   2.458   2.272 -0.5739  2.3684 -0.2558
 2569SOL     MW10276   4.926   2.412   2.308  0.6901  0.1733 -0.5636
 2570SOL     OW10277   5.033   3.033   5.365  0.0132 -0.4549  0.1175
 2570SOL    HW110278   5.043   3.071   5.452  1.8349 -2.9372  1.0977
 2570SOL    HW210279   4.941   3.006   5.361 -1.1347  2.9499 -0.2985
 2570SOL     MW10280   5.022   3.034   5.376  0.1039 -0.3308  0.1934
 2571SOL     OW10281   4.424   2.541   0.279  0.2947 -0.2344 -0.0392
 2571SOL    HW110282   4.408   2.478   0.208  1.3071  1.3321 -1.7712
 2571SOL    HW210283   4.348   2.534   0.336 -0.1401 -2.1917 -0.7934
 2571SOL     MW10284   4.412   2.532   0.277  0.3724 -0.2870 -0.3738
 2572SOL     OW10285   1.485   0.504   0.968 -0.1169  0.4206 -0.5909
 2572SOL    HW110286   1.480   0.585   1.019  0.3264 -0.6623  1.2467
 2572SOL    HW210287   1.394   0.483   0.948 -0.5138 -0.2494  1.6586
 2572SOL     MW10288   1.472   0.512   0.972 -0.1106  0.1847 -0.0409
 2573SOL     OW10289   4.185   1.493   1.541 -0.5021 -0.6818 -0.1920
 2573SOL    HW110290   4.232   1.418   1.504  0.3884  0.6567 -1.8765
 2573SOL    HW210291   4.203   1.487   1.635  1.7300 -1.1307 -0.5950
 2573SOL     MW10292   4.194   1.482   1.549 -0.0819 -0.5621 -0.4729
 2574SOL     OW10293   0.437   1.452   2.483 -0.7217 -0.5561 -0.4485
 2574SOL    HW110294   0.357   1.465   2.535  0.5586  1.1341  1.2371
 2574SOL    HW210295   0.474   1.540   2.474  2.1729 -1.4977  0.9324
 2574SOL     MW10296   0.431   1.466   2.489 -0.1599 -0.4553 -0.0358
 2575SOL     OW10297   2.741   0.328   0.365 -0.2488  0.2813 -0.1484
 2575SOL    HW110298   2.808   0.370   0.419  1.0452  0.7033 -1.9692
 2575SOL    HW210299   2.658   0.347   0.409  0.6422  1.4942  1.0797
 2575SOL     MW10300   2.739   0.336   0.378  0.0453  0.5013 -0.2282
 2576SOL     OW10301   2.622   1.150   1.602  0.1632  0.3742 -0.2803
 2576SOL    HW110302   2.686   1.208   1.645 -0.3866  0.5641  0.3046
 2576SOL    HW210303   2.552   1.141   1.667  0.5849 -1.5715 -0.0492
 2576SOL     MW10304   2.621   1.157   1.617  0.1460  0.1379 -0.1705
 2577SOL     OW10305   4.750   1.713   1.514  0.5101  0.2339  0.1235
 2577SOL    HW110306   4.750   1.800   1.473  1.8478 -1.0191 -2.8180
 2577SOL    HW210307   4.821   1.717   1.578 -0.9595  1.9501  1.7558
 2577SOL     MW10308   4.760   1.725   1.517  0.4924  0.2962 -0.0527
 2578SOL     OW10309   2.823   3.198   3.019 -0.0010  0.1684 -0.3330
 2578SOL    HW110310   2.730   3.218   3.010 -0.7865 -2.5503  0.5923
 2578SOL    HW210311   2.850   3.166   2.933  0.0353  0.7021 -0.5261
 2578SOL     MW10312   2.814   3.196   3.006 -0.1019 -0.1257 -0.2345
 2579SOL     OW10313   3.123   4.457   1.262 -0.2824 -0.4166  0.3925
 2579SOL    HW110314   3.139   4.388   1.327 -1.3711  0.6439  1.8808
 2579SOL    HW210315   3.028   4.459   1.252 -0.2548  0.6785  0.1859
 2579SOL     MW10316   3.112   4.448   1.270 -0.4252 -0.1265  0.5650
 2580SOL     OW10317   4.915   3.174   4.468  0.3855  0.2180  0.4342
 2580SOL    HW110318   4.978   3.211   4.406  0.7253 -0.9621  0.0578
 2580SOL    HW210319   4.838   3.155   4.415  0.4273 -0.1627  0.5121
 2580SOL     MW10320   4.913   3.177   4.453  0.4369  0.0080  0.3941
 2581SOL     OW10321   0.563   3.992   4.261 -0.1350  0.2641  0.4948
 2581SOL    HW110322   0.601   4.079   4.275  0.9430 -0.5220  3.0395
 2581SOL    HW210323   0.630   3.944   4.214 -0.2131  0.4334  0.2078
 2581SOL     MW10324   0.577   3.997   4.257 -0.0004  0.1811  0.7987
 2582SOL     OW10325   0.118   4.600   2.491 -0.1842 -0.5971 -0.3969
 2582SOL    HW110326   0.140   4.522   2.543  0.5937 -0.6900 -0.8427
 2582SOL    HW210327   0.041   4.575   2.441 -1.2030 -0.3708  1.0051
 2582SOL     MW10328   0.111   4.586   2.491 -0.2166 -0.5791 -0.2682
 2583SOL     OW10329   3.273   3.516   0.397 -0.1043 -0.4425  0.5443
 2583SOL    HW110330   3.251   3.464   0.474  1.1273  1.7744  2.5210
 2583SOL    HW210331   3.193   3.566   0.378 -0.1657 -0.4208  0.8576
 2583SOL     MW10332   3.259   3.516   0.404  0.0532 -0.1412  0.8525
 2584SOL     OW10333   5.231   1.795   4.055 -0.0605 -0.1580 -0.4038
 2584SOL    HW110334   5.271   1.753   4.131  0.8166 -0.8657 -1.2299
 2584SOL    HW210335   5.162   1.851   4.091  0.7814  0.0358  0.9535
 2584SOL     MW10336   5.227   1.797   4.070  0.1709 -0.2272 -0.3323
 2585SOL     OW10337   2.438   0.476   5.179  0.5426  0.3306 -0.5177
 2585SOL    HW110338   2.489   0.514   5.107  0.9677  1.4757  0.3419
 2585SOL    HW210339   2.485   0.504   5.258  0.1435 -0.9771  0.2012
 2585SOL     MW10340   2.452   0.485   5.180  0.5461  0.3087 -0.3053
 2586SOL     OW10341   1.706   0.519   5.479  0.0666  0.5961  0.1686
 2586SOL    HW110342   1.639   0.457   5.448  0.7152  0.1800 -0.4472
 2586SOL    HW210343   1.739   0.560   5.399  0.3159  1.0418  0.4961
 2586SOL     MW10344   1.701   0.516   5.464  0.1875  0.6001  0.1298
 2587SOL     OW10345   2.468   4.873   3.377  0.6733 -0.0770 -0.0890
 2587SOL    HW110346   2.421   4.825   3.445 -0.1145  1.3622  0.4099
 2587SOL    HW210347   2.411   4.869   3.301  0.6796 -0.0623 -0.0944
 2587SOL     MW10348   2.454   4.866   3.376  0.5681  0.1187 -0.0226
 2588SOL     OW10349   3.099   3.893   2.445  0.0005  0.1005  0.0313
 2588SOL    HW110350   3.181   3.843   2.439 -0.4715 -0.5707 -1.5033
 2588SOL    HW210351   3.032   3.826   2.461 -0.4002  0.4786 -0.0635
 2588SOL     MW10352   3.101   3.877   2.446 -0.1169  0.0610 -0.1880
 2589SOL     OW10353   1.378   4.939   4.184 -0.1075  0.1320 -0.6875
 2589SOL    HW110354   1.351   5.030   4.173  0.5650  0.2940 -1.1124
 2589SOL    HW210355   1.473   4.941   4.175 -0.0673 -0.5919 -0.5372
 2589SOL     MW10356   1.387   4.951   4.181 -0.0116  0.0564 -0.7245
 2590SOL     OW10357   4.528   0.495   2.096 -0.3576  0.3092  0.1622
 2590SOL    HW110358   4.464   0.565   2.110  0.3071  0.8542  0.5284
 2590SOL    HW210359   4.535   0.452   2.181 -0.8254 -0.2647 -0.0831
 2590SOL     MW10360   4.520   0.499   2.110 -0.3311  0.3053  0.1784
 2591SOL     OW10361   4.752   3.697   1.226 -0.2907 -0.0448 -0.2325
 2591SOL    HW110362   4.670   3.648   1.225 -1.1085  1.2092  0.9917
 2591SOL    HW210363   4.760   3.727   1.316  1.6134 -0.2694 -0.2999
 2591SOL     MW10364   4.742   3.694   1.238 -0.1445  0.0937 -0.0768
 2592SOL     OW10365   3.264   0.246   1.560  0.2209 -0.0789 -0.0037
 2592SOL    HW110366   3.223   0.287   1.484 -2.3108 -0.7966  0.8971
 2592SOL    HW210367   3.254   0.152   1.545  1.6270 -0.2948  0.2398
 2592SOL     MW10368   3.257   0.239   1.548  0.0694 -0.2045  0.1503
 2593SOL     OW10369   0.638   3.530   1.288  0.5585  0.2077 -0.7454
 2593SOL    HW110370   0.559   3.539   1.234  0.6451  0.7932 -0.7729
 2593SOL    HW210371   0.605   3.497   1.372  0.2956  0.3702 -0.7829
 2593SOL     MW10372   0.623   3.527   1.292  0.5348  0.3084 -0.7541
 2594SOL     OW10373   5.012   1.515   5.302  0.5909  0.8243  0.4606
 2594SOL    HW110374   5.005   1.450   5.372  0.6999  1.7079  1.3158
 2594SOL    HW210375   4.946   1.581   5.324  1.0675  1.4381  0.0918
 2594SOL     MW10376   5.002   1.515   5.314  0.6697  1.0258  0.5261
 2595SOL     OW10377   2.573   1.795   1.237  0.4535 -0.4094 -0.1096
 2595SOL    HW110378   2.639   1.729   1.257  0.3361 -0.5966 -0.3449
 2595SOL    HW210379   2.510   1.788   1.309  0.0793 -1.0228 -0.4980
 2595SOL     MW10380   2.574   1.785   1.250  0.3873 -0.5172 -0.1936
 2596SOL     OW10381   2.921   0.917   2.780  0.9762  0.1803 -0.2247
 2596SOL    HW110382   2.963   0.930   2.865  0.2184 -0.6366  0.2963
 2596SOL    HW210383   2.902   1.006   2.749 -0.0657  0.4665  1.1482
 2596SOL     MW10384   2.924   0.931   2.787  0.7340  0.1089  0.0302
 2597SOL     OW10385   3.397   2.564   0.666 -0.3661 -0.3449  0.1733
 2597SOL    HW110386   3.357   2.617   0.597 -1.0266 -0.8035  0.2052
 2597SOL    HW210387   3.384   2.615   0.746  0.5963  0.2932 -0.0595
 2597SOL     MW10388   3.390   2.578   0.668 -0.3254 -0.3207  0.1462
 2598SOL     OW10389   3.719   1.109   2.533 -0.8635  0.2683 -0.2469
 2598SOL    HW110390   3.749   1.127   2.444 -1.7131 -2.1923 -1.1158
 2598SOL    HW210391   3.705   1.196   2.571  1.5932  1.4216 -1.7356
 2598SOL     MW10392   3.721   1.123   2.526 -0.6472  0.0924 -0.5642
 2599SOL     OW10393   2.251   5.009   4.599 -0.2417 -0.1078 -0.0979
 2599SOL    HW110394   2.254   4.982   4.507 -1.1175  2.6799 -1.0652
 2599SOL    HW210395   2.207   4.937   4.644 -0.2581 -1.3164 -1.9545
 2599SOL     MW10396   2.245   4.996   4.593 -0.3618  0.1047 -0.4779
 2600SOL     OW10397   0.133   4.731   4.488  0.1753  0.1029  0.1170
 2600SOL    HW110398   0.045   4.699   4.471  0.3416 -0.2087 -0.1799
 2600SOL    HW210399   0.152   4.707   4.578 -0.1908  0.5149  0.3030
 2600SOL     MW10400   0.124   4.724   4.498  0.1484  0.1164  0.1021
 2601SOL     OW10401   4.454   2.054   4.904  0.6634  0.7386  0.4746
 2601SOL    HW110402   4.530   2.044   4.846  0.7877 -0.4946  0.8150
 2601SOL    HW210403   4.485   2.024   4.989 -0.6459 -1.5696  0.2327
 2601SOL     MW10404   4.469   2.048   4.907  0.5039  0.2620  0.4878
 2602SOL     OW10405   3.657   3.348   2.304 -0.6435 -0.3198 -0.3827
 2602SOL    HW110406   3.685   3.283   2.369 -1.5750  0.1499  0.5043
 2602SOL    HW210407   3.692   3.431   2.335  0.3926 -0.3416 -1.4234
 2602SOL     MW10408   3.665   3.350   2.317 -0.6294 -0.2595 -0.4033
 2603SOL     OW10409   2.576   5.492   4.335  0.2863 -0.0281 -0.1636
 2603SOL    HW110410   2.602   5.410   4.375  0.0766 -0.3354 -0.6441
 2603SOL    HW210411   2.489   5.511   4.372  0.3588  0.0042 -0.0111
 2603SOL     MW10412   2.567   5.484   4.345  0.2678 -0.0651 -0.2077
 2604SOL     OW10413   2.144   0.428   0.748  0.9802  0.3247  0.4460
 2604SOL    HW110414   2.135   0.332   0.747  0.4633  0.3659 -0.7593
 2604SOL    HW210415   2.068   0.458   0.798  0.2012  0.1626 -0.6039
 2604SOL     MW10416   2.132   0.419   0.754  0.8058  0.3084  0.1425
 2605SOL     OW10417   1.568   0.676   2.861 -0.2264 -0.3188  0.5201
 2605SOL    HW110418   1.556   0.760   2.905 -0.0158  0.3841 -0.7127
 2605SOL    HW210419   1.500   0.674   2.794 -2.1540 -2.4644  2.3707
 2605SOL     MW10420   1.557   0.687   2.858 -0.4575 -0.5129  0.6032
 2606SOL     OW10421   1.572   0.046   3.069 -0.2587  0.2825  0.4423
 2606SOL    HW110422   1.638   0.082   3.009 -0.8546  0.3906 -0.1616
 2606SOL    HW210423   1.612   0.054   3.156  0.0773  1.3733  0.2062
 2606SOL     MW10424   1.586   0.052   3.073 -0.2937  0.4438  0.3292
 2607SOL     OW10425   1.293   5.195   1.134 -0.4716  0.4332 -0.3055
 2607SOL    HW110426   1.267   5.126   1.195  1.4912 -0.1046 -0.0186
 2607SOL    HW210427   1.328   5.147   1.058  1.3102  1.0657  0.0709
 2607SOL     MW10428   1.294   5.179   1.132  0.0323  0.4460 -0.2162
 2608SOL     OW10429   2.644   0.396   1.969 -0.2164 -0.1938  0.4374
 2608SOL    HW110430   2.656   0.302   1.960 -1.0254 -0.2189 -0.5195
 2608SOL    HW210431   2.602   0.408   2.054  0.0774 -0.6662  0.6524
 2608SOL     MW10432   2.640   0.385   1.979 -0.2857 -0.2608  0.3376
 2609SOL     OW10433   0.617   4.451   1.826  0.0620  0.3414  0.5663
 2609SOL    HW110434   0.684   4.501   1.778 -0.3882  2.4057  1.9553
 2609SOL    HW210435   0.666   4.407   1.895  0.5511 -1.7706 -1.0114
 2609SOL     MW10436   0.633   4.452   1.829  0.0672  0.3350  0.5409
 2610SOL     OW10437   0.389   0.268   4.066  0.1750  0.3073  0.5358
 2610SOL    HW110438   0.473   0.314   4.071  0.0721  0.4615  0.8762
 2610SOL    HW210439   0.382   0.221   4.149 -0.0513  0.2529  0.4870
 2610SOL     MW10440   0.399   0.268   4.078  0.1307  0.3207  0.5751
 2611SOL     OW10441   4.069   0.612   2.120 -0.1353  0.2536 -0.0731
 2611SOL    HW110442   4.084   0.661   2.039  2.1594  0.2955  0.2930
 2611SOL    HW210443   4.053   0.680   2.186 -0.4160  0.3110 -0.2003
 2611SOL     MW10444   4.069   0.628   2.118  0.1357  0.2669 -0.0409
 2612SOL     OW10445   0.598   4.814   5.148 -0.5592 -0.2433  0.2851
 2612SOL    HW110446   0.626   4.817   5.239  1.7735 -1.4309 -0.3187
 2612SOL    HW210447   0.630   4.895   5.109 -1.3724  0.1657  0.4354
 2612SOL     MW10448   0.606   4.825   5.155 -0.3547 -0.3481  0.2240
 2613SOL     OW10449   3.070   2.999   0.635  0.1798  0.1381 -0.1774
 2613SOL    HW110450   3.086   3.064   0.703  0.4971  1.1531 -1.1884
 2613SOL    HW210451   3.146   3.006   0.577 -0.8485  0.4861 -1.5419
 2613SOL     MW10452   3.083   3.008   0.636  0.0841  0.3215 -0.4971
 2614SOL     OW10453   0.841   2.057   5.344 -0.1090 -0.1718 -0.3442
 2614SOL    HW110454   0.828   2.117   5.270 -0.6999  0.0765 -0.0382
 2614SOL    HW210455   0.889   1.983   5.305  1.1235  0.7184 -0.6180
 2614SOL     MW10456   0.846   2.055   5.329 -0.0226 -0.0186 -0.3399
 2615SOL     OW10457   4.156   0.662   1.439 -0.2440  0.4361 -0.0955
 2615SOL    HW110458   4.115   0.622   1.363 -2.0363  0.6589  0.6961
 2615SOL    HW210459   4.236   0.610   1.454 -1.1886 -1.2260 -0.5931
 2615SOL     MW10460   4.162   0.650   1.431 -0.6123  0.2424 -0.0560
 2616SOL     OW10461   2.061   1.698   2.646  0.2469  0.5222 -0.2189
 2616SOL    HW110462   2.132   1.647   2.607  0.9014  0.4643  1.0105
 2616SOL    HW210463   2.103   1.753   2.711 -0.6507  1.5863 -0.4970
 2616SOL     MW10464   2.076   1.699   2.649  0.2142  0.6576 -0.0909
 2617SOL     OW10465   3.221   0.744   1.714  0.4324 -0.4563  0.6203
 2617SOL    HW110466   3.139   0.794   1.721 -0.4859 -1.6431 -0.9553
 2617SOL    HW210467   3.235   0.710   1.802 -1.2968 -0.9839  0.7307
 2617SOL     MW10468   3.212   0.746   1.727  0.0761 -0.6870  0.4231
 2618SOL     OW10469   1.035   2.208   0.853  0.3333  0.3769  0.0150
 2618SOL    HW110470   1.049   2.278   0.790 -1.3218  0.7115 -0.0239
 2618SOL    HW210471   0.951   2.228   0.894 -1.2306 -2.5458 -1.3918
 2618SOL     MW10472   1.026   2.220   0.850 -0.0999  0.0286 -0.1795
 2619SOL     OW10473   5.293   4.577   0.605  0.2852  0.2997 -0.0310
 2619SOL    HW110474   5.347   4.621   0.671  0.5303  0.0615 -0.0721
 2619SOL    HW210475   5.204   4.586   0.638  0.2350  1.5241 -0.4243
 2619SOL     MW10476   5.288   4.584   0.618  0.3114  0.4324 -0.0895
 2620SOL     OW10477   2.592   3.717   5.064 -0.0003 -1.0087  0.3710
 2620SOL    HW110478   2.686   3.704   5.081  0.2748  0.6209  0.2462
 2620SOL    HW210479   2.555   3.629   5.068  1.5004 -1.6658  0.6295
 2620SOL     MW10480   2.600   3.703   5.067  0.2387 -0.8778  0.3890
 2621SOL     OW10481   2.487   0.322   0.478  0.5815 -0.3540  0.4525
 2621SOL    HW110482   2.422   0.392   0.478  0.9554 -0.0009  0.9150
 2621SOL    HW210483   2.509   0.309   0.570  0.8229 -0.7968  0.3380
 2621SOL     MW10484   2.481   0.329   0.490  0.6643 -0.3661  0.4994
 2622SOL     OW10485   0.691   0.188   0.958  0.2694 -0.4949 -0.8387
 2622SOL    HW110486   0.620   0.130   0.984 -0.4344  0.7950  0.2106
 2622SOL    HW210487   0.651   0.249   0.897 -0.6642  2.7327  2.6772
 2622SOL     MW10488   0.676   0.188   0.953  0.0490  0.1131 -0.2243
 2623SOL     OW10489   3.534   0.248   2.585 -0.1729  0.6479  0.2264
 2623SOL    HW110490   3.439   0.237   2.584 -0.3530  1.9849  0.4822
 2623SOL    HW210491   3.569   0.159   2.574 -1.4401  0.2621 -1.0292
 2623SOL     MW10492   3.526   0.235   2.583 -0.3677  0.7759  0.0919
 2624SOL     OW10493   1.289   2.818   3.419  0.4718 -0.4783  0.0468
 2624SOL    HW110494   1.201   2.855   3.428  0.3160 -0.8431  0.0396
 2624SOL    HW210495   1.314   2.795   3.508  1.4287  1.5667  0.3673
 2624SOL     MW10496   1.280   2.820   3.432  0.5796 -0.2522  0.0890
 2625SOL     OW10497   0.601   4.701   5.459 -0.2960 -0.4239  0.3233
 2625SOL    HW110498   0.565   4.617   5.430 -1.1297  0.5186 -1.5168
 2625SOL    HW210499   0.524   4.756   5.474  0.2788  0.6536 -0.5634
 2625SOL     MW10500   0.586   4.697   5.457 -0.3308 -0.1521 -0.0437
 2626SOL     OW10501   0.256   1.795   4.783 -0.4585 -0.0296  0.1929
 2626SOL    HW110502   0.163   1.806   4.764 -0.2983  0.0912 -0.5181
 2626SOL    HW210503   0.298   1.786   4.698  0.2174  0.1760  0.4967
 2626SOL     MW10504   0.249   1.795   4.769 -0.3460  0.0143  0.1381
 2627SOL     OW10505   0.129   0.332   1.007 -0.4616  0.1926  0.1625
 2627SOL    HW110506   0.199   0.320   0.943 -1.4794 -1.6831 -0.6787
 2627SOL    HW210507   0.174   0.360   1.087  1.2004 -0.5826 -0.4603
 2627SOL     MW10508   0.144   0.335   1.009 -0.3749 -0.1642 -0.0346
 2628SOL     OW10509   0.442   4.581   3.420  0.6330  0.1037  0.0508
 2628SOL    HW110510   0.359   4.555   3.380  0.3513  0.7097  0.2258
 2628SOL    HW210511   0.430   4.674   3.441  1.0678 -0.0047  0.8008
 2628SOL     MW10512   0.429   4.590   3.417  0.6536  0.1706  0.1753
 2629SOL     OW10513   0.146   2.900   3.336  0.0072 -0.1092 -0.6066
 2629SOL    HW110514   0.199   2.973   3.305  0.2596 -0.2539 -0.5144
 2629SOL    HW210515   0.104   2.933   3.416 -2.0922  0.9119 -2.0317
 2629SOL     MW10516   0.147   2.915   3.343 -0.2414  0.0088 -0.7860
 2630SOL     OW10517   3.932   3.786   5.095 -0.1875  0.4369 -0.5146
 2630SOL    HW110518   4.014   3.754   5.135 -0.0359  0.3795 -0.8670
 2630SOL    HW210519   3.881   3.819   5.169 -0.0670 -0.0137 -0.2237
 2630SOL     MW10520   3.936   3.786   5.111 -0.1509  0.3685 -0.5229
 2631SOL     OW10521   4.954   0.121   3.063  0.0092 -0.1739  0.0473
 2631SOL    HW110522   4.882   0.163   3.017 -1.3200 -2.8575 -0.5125
 2631SOL    HW210523   4.914   0.082   3.141  1.3018  0.0644  0.8713
 2631SOL     MW10524   4.939   0.121   3.067  0.0043 -0.5030  0.0829
 2632SOL     OW10525   0.907   0.893   5.087  0.3037 -0.4324  0.1416
 2632SOL    HW110526   0.845   0.858   5.152 -1.4300  0.8751 -0.7409
 2632SOL    HW210527   0.874   0.860   5.003  0.8122  0.2622 -0.3388
 2632SOL     MW10528   0.894   0.884   5.084  0.1388 -0.1630 -0.0418
 2633SOL     OW10529   4.555   3.682   3.370  0.6458 -0.1656  0.3800
 2633SOL    HW110530   4.623   3.652   3.309 -0.7625  1.5565 -2.2451
 2633SOL    HW210531   4.590   3.762   3.407  0.9711 -0.5247  0.8651
 2633SOL     MW10532   4.569   3.688   3.367  0.5001  0.0179  0.0920
 2634SOL     OW10533   3.478   0.859  -0.003 -0.0218 -0.4942  0.1953
 2634SOL    HW110534   3.488   0.844   0.091 -0.3435 -0.4516  0.2354
 2634SOL    HW210535   3.398   0.813  -0.027 -0.2259 -0.0705  0.0435
 2634SOL     MW10536   3.469   0.851   0.006 -0.0926 -0.4314  0.1803
 2635SOL     OW10537   2.720   3.317   0.071  0.2046 -0.4623  0.1408
 2635SOL    HW110538   2.650   3.351   0.128  1.0512  1.4624  0.1004
 2635SOL    HW210539   2.677   3.301  -0.013 -0.5538 -1.0437  0.6262
 2635SOL     MW10540   2.705   3.320   0.068  0.2164 -0.2815  0.2007
 2636SOL     OW10541   4.987   2.543   4.516  0.0260 -0.1522 -0.2240
 2636SOL    HW110542   5.038   2.525   4.595 -0.5529  1.1252  0.4768
 2636SOL    HW210543   5.046   2.523   4.444  0.6591 -1.0781  0.5292
 2636SOL     MW10544   5.002   2.538   4.517  0.0333 -0.1049 -0.0283
 2637SOL     OW10545   3.604   4.738   0.123 -0.1961  0.0894 -0.0756
 2637SOL    HW110546   3.551   4.679   0.070  1.8517 -3.1091  1.1568
 2637SOL    HW210547   3.645   4.797   0.060 -0.8136 -1.0585 -1.5935
 2637SOL     MW10548   3.602   4.738   0.107 -0.0036 -0.4956 -0.1141
 2638SOL     OW10549   0.832   2.554   1.282  0.0937  0.2200 -0.1169
 2638SOL    HW110550   0.901   2.518   1.226 -0.9860  0.4257 -1.6478
 2638SOL    HW210551   0.757   2.497   1.266  0.1072 -0.5497  2.2058
 2638SOL     MW10552   0.831   2.541   1.272 -0.0498  0.1441 -0.0103
 2639SOL     OW10553   3.543   3.425   2.627  0.1021 -0.0237 -0.3282
 2639SOL    HW110554   3.623   3.409   2.676  0.4797  2.0447 -0.1939
 2639SOL    HW210555   3.473   3.416   2.692  0.6057  2.8634  0.7508
 2639SOL     MW10556   3.544   3.422   2.642  0.2207  0.6432 -0.1649
 2640SOL     OW10557   5.422   3.943   3.605 -0.1808  0.1543  0.4914
 2640SOL    HW110558   5.490   4.006   3.629  0.1933  0.2642 -0.7672
 2640SOL    HW210559   5.353   3.997   3.565  0.0413 -0.1969 -0.3860
 2640SOL     MW10560   5.422   3.959   3.603 -0.1006  0.1219  0.2039
 2641SOL     OW10561   0.244   5.025   1.822 -0.0517  0.3380  0.2568
 2641SOL    HW110562   0.231   4.950   1.764 -2.5349 -1.1862  2.4837
 2641SOL    HW210563   0.289   4.988   1.898  0.1344  1.4847  0.7223
 2641SOL     MW10564   0.248   5.010   1.825 -0.3609  0.2872  0.6192
 2642SOL     OW10565   1.682   3.063   4.869  0.0142  0.1273 -0.5230
 2642SOL    HW110566   1.599   3.047   4.823 -0.0806  0.5394 -0.4984
 2642SOL    HW210567   1.695   3.158   4.862  0.3339  0.1017 -0.2685
 2642SOL     MW10568   1.673   3.074   4.862  0.0445  0.1793 -0.4854
 2643SOL     OW10569   4.211   4.200   3.790  0.2147 -0.1194 -0.0022
 2643SOL    HW110570   4.226   4.259   3.716  0.8539 -0.1725  0.0806
 2643SOL    HW210571   4.296   4.161   3.807 -0.1612 -0.9149  0.0830
 2643SOL     MW10572   4.224   4.203   3.782  0.2502 -0.2336  0.0204
 2644SOL     OW10573   2.965   1.130   2.036 -0.4429  0.4412 -0.2340
 2644SOL    HW110574   2.999   1.056   2.085  0.5243  0.6564 -0.5485
 2644SOL    HW210575   3.010   1.126   1.952 -2.5336 -0.3051 -1.4045
 2644SOL     MW10576   2.975   1.120   2.031 -0.5941  0.3698 -0.4338
 2645SOL     OW10577   3.168   3.376   3.908  0.5211 -0.0882 -0.2384
 2645SOL    HW110578   3.100   3.393   3.842 -1.2140 -1.5834  1.0656
 2645SOL    HW210579   3.146   3.434   3.980  1.3922  0.3133 -0.2916
 2645SOL     MW10580   3.156   3.386   3.909  0.4048 -0.2354 -0.0701
 2646SOL     OW10581   2.620   1.370   1.431 -0.3547  0.3748 -0.4052
 2646SOL    HW110582   2.612   1.295   1.488 -0.4513  0.1228 -0.7469
 2646SOL    HW210583   2.577   1.441   1.478  0.0653  0.3131  0.0812
 2646SOL     MW10584   2.613   1.370   1.445 -0.3112  0.3326 -0.3858
 2647SOL     OW10585   3.569   1.165   0.740 -0.1480 -0.2977  0.0925
 2647SOL    HW110586   3.604   1.203   0.821  0.6387 -0.8258  0.0089
 2647SOL    HW210587   3.593   1.228   0.672 -1.2623  0.4113  0.3106
 2647SOL     MW10588   3.577   1.179   0.742 -0.1921 -0.2733  0.1106
 2648SOL     OW10589   3.171   0.151   2.306  0.3602  0.3190  0.6984
 2648SOL    HW110590   3.090   0.108   2.279  0.4997 -0.1330  0.9803
 2648SOL    HW210591   3.232   0.079   2.323  1.7025  0.6616 -2.1255
 2648SOL     MW10592   3.168   0.135   2.305  0.5596  0.3043  0.3563
 2649SOL     OW10593   2.177   4.263   0.107  0.1503  0.2864  0.3573
 2649SOL    HW110594   2.187   4.322   0.182 -1.8457  0.4648  0.5334
 2649SOL    HW210595   2.254   4.280   0.053 -0.0327  2.5911  0.7205
 2649SOL     MW10596   2.189   4.273   0.110 -0.1429  0.6205  0.4299
 2650SOL     OW10597   5.155   2.113   0.687 -0.2602 -0.1002  0.2607
 2650SOL    HW110598   5.070   2.134   0.647  0.1537  0.8526 -0.1697
 2650SOL    HW210599   5.208   2.191   0.671  0.9589 -0.9906 -0.1953
 2650SOL     MW10600   5.150   2.127   0.680 -0.0404 -0.0918  0.1414
 2651SOL     OW10601   0.187   0.468   4.104  0.2403  0.0107 -0.1510
 2651SOL    HW110602   0.115   0.415   4.137 -0.8241  1.4255 -0.1476
 2651SOL    HW210603   0.263   0.409   4.106  0.2019 -0.2391  4.3460
 2651SOL     MW10604   0.188   0.453   4.109  0.0919  0.1675  0.4546
 2652SOL     OW10605   3.773   4.520   1.227 -0.3211 -0.3662 -0.2373
 2652SOL    HW110606   3.834   4.556   1.291  0.2492 -1.3093 -0.2413
 2652SOL    HW210607   3.721   4.456   1.276  0.7967 -1.8405 -0.9016
 2652SOL     MW10608   3.774   4.516   1.242 -0.0939 -0.6915 -0.3273
 2653SOL     OW10609   1.226   0.865   0.493 -0.3404  0.1595  0.2147
 2653SOL    HW110610   1.138   0.828   0.506 -0.5401  1.1186  1.8590
 2653SOL    HW210611   1.219   0.954   0.525  1.1175  0.4218 -0.1620
 2653SOL     MW10612   1.213   0.872   0.499 -0.1710  0.3239  0.3853
 2654SOL     OW10613   4.952   4.193   3.461  0.0937  0.1075  0.0953
 2654SOL    HW110614   5.003   4.122   3.501  0.7317 -0.2349 -1.2539
 2654SOL    HW210615   4.922   4.246   3.535  1.0727 -0.5863  1.0226
 2654SOL     MW10616   4.955   4.190   3.476  0.3113 -0.0319  0.0385
 2655SOL     OW10617   0.462   2.923   1.582 -0.0201 -0.2565  0.0524
 2655SOL    HW110618   0.527   2.878   1.636  0.3852  1.4897  1.0898
 2655SOL    HW210619   0.506   2.937   1.498  0.9608  0.8164  0.7111
 2655SOL     MW10620   0.477   2.919   1.578  0.1665  0.1229  0.2807
 2656SOL     OW10621   2.361   2.582   1.684 -0.0613 -0.2617 -0.0575
 2656SOL    HW110622   2.383   2.629   1.765  1.5750 -0.6699 -0.2144
 2656SOL    HW210623   2.387   2.642   1.614 -1.5947  0.1437 -0.3099
 2656SOL     MW10624   2.368   2.596   1.686 -0.0475 -0.2620 -0.1126
 2657SOL     OW10625   2.256   3.954   2.045  0.5348 -0.1453 -0.5531
 2657SOL    HW110626   2.193   3.962   1.973 -0.1268  2.8690  0.2212
 2657SOL    HW210627   2.306   4.035   2.042  2.6777 -1.3549  0.4678
 2657SOL     MW10628   2.254   3.966   2.034  0.7341  0.0976 -0.3115
 2658SOL     OW10629   2.575   3.535   0.490 -0.0916 -0.0351  0.1612
 2658SOL    HW110630   2.624   3.453   0.485 -1.0854 -0.6494  0.2394
 2658SOL    HW210631   2.526   3.529   0.572 -0.4992  0.4471 -0.0456
 2658SOL     MW10632   2.575   3.523   0.500 -0.2802 -0.0529  0.1439
 2659SOL     OW10633   1.467   1.181   4.097  0.0616  0.1211 -0.3517
 2659SOL    HW110634   1.489   1.262   4.050 -0.2414  0.4250  0.0219
 2659SOL    HW210635   1.551   1.140   4.115  0.5336  2.1217  2.6044
 2659SOL     MW10636   1.481   1.186   4.093  0.0843  0.4312  0.0964
 2660SOL     OW10637   0.504   0.099   1.572 -0.1213  0.6648  0.0070
 2660SOL    HW110638   0.538   0.041   1.504 -0.2469 -0.3230  0.7613
 2660SOL    HW210639   0.563   0.174   1.572  1.4445 -0.5198  0.5626
 2660SOL     MW10640   0.516   0.102   1.563  0.0725  0.3724  0.1833
 2661SOL     OW10641   1.714   1.926   3.294  0.5689 -0.0752 -0.6440
 2661SOL    HW110642   1.715   1.932   3.390 -0.2877  0.3990 -0.6435
 2661SOL    HW210643   1.730   2.016   3.265  0.8596 -0.2252 -0.9447
 2661SOL     MW10644   1.716   1.939   3.303  0.4927 -0.0316 -0.6844
 2662SOL     OW10645   3.741   0.560   4.138  0.1891 -0.6415  0.7935
 2662SOL    HW110646   3.817   0.581   4.192 -0.2037 -0.2866  1.2151
 2662SOL    HW210647   3.682   0.635   4.149  0.8018  0.2671 -1.4472
 2662SOL     MW10648   3.744   0.573   4.147  0.2187 -0.4715  0.5487
 2663SOL     OW10649   3.318   2.497   4.173  0.2169  0.4615  0.7115
 2663SOL    HW110650   3.366   2.565   4.126  2.2071 -1.5641 -0.3779
 2663SOL    HW210651   3.329   2.418   4.120 -1.1548 -0.9627  2.3935
 2663SOL     MW10652   3.326   2.495   4.160  0.3002 -0.0028  0.7913
 2664SOL     OW10653   3.757   0.443   3.289  0.1861 -0.0828 -0.1267
 2664SOL    HW110654   3.797   0.406   3.367  1.8519  0.6041 -0.6111
 2664SOL    HW210655   3.733   0.532   3.314  0.1792 -0.0555 -0.2277
 2664SOL     MW10656   3.759   0.450   3.303  0.4093  0.0133 -0.2055
 2665SOL     OW10657   0.388   3.347   4.247 -0.3757  0.4778  0.7316
 2665SOL    HW110658   0.457   3.281   4.260  0.0072  0.9694  1.3026
 2665SOL    HW210659   0.360   3.369   4.336 -1.9971 -0.4442  0.4822
 2665SOL     MW10660   0.394   3.341   4.261 -0.5423  0.4199  0.7749
 2666SOL     OW10661   0.529   3.227   0.458 -0.1215 -0.0381  0.4940
 2666SOL    HW110662   0.511   3.219   0.552 -0.7119 -0.6078  0.3354
 2666SOL    HW210663   0.443   3.231   0.417  0.1336  0.5083 -0.0069
 2666SOL     MW10664   0.515   3.227   0.465 -0.1666 -0.0412  0.4052
 2667SOL     OW10665   3.688   0.901   4.477 -0.0254  0.1947 -0.1479
 2667SOL    HW110666   3.604   0.919   4.519 -0.6207 -0.7674 -0.8751
 2667SOL    HW210667   3.748   0.886   4.550 -1.2053 -2.2153  0.4331
 2667SOL     MW10668   3.685   0.901   4.493 -0.2643 -0.2591 -0.1676
 2668SOL     OW10669   4.643   3.476   5.294 -0.5453 -0.4574 -0.8243
 2668SOL    HW110670   4.619   3.386   5.271  0.8587 -0.2786 -3.3181
 2668SOL    HW210671   4.693   3.508   5.219 -0.2669  2.1477  0.3481
 2668SOL     MW10672   4.646   3.468   5.281 -0.3189 -0.0828 -1.0021
 2669SOL     OW10673   5.150  -0.007   2.925 -0.5614  0.4483  0.2855
 2669SOL    HW110674   5.088   0.028   2.989  0.0802  1.1413  0.5454
 2669SOL    HW210675   5.105   0.002   2.841 -1.4683 -0.5960  0.6309
 2669SOL     MW10676   5.135  -0.001   2.922 -0.5971  0.4010  0.3670
 2670SOL     OW10677   2.732   0.302   3.048  0.3074  0.4553 -0.4866
 2670SOL    HW110678   2.711   0.210   3.062 -1.2616  0.6897 -1.0395
 2670SOL    HW210679   2.698   0.321   2.960  1.5777  1.3078 -0.8277
 2670SOL     MW10680   2.725   0.292   3.038  0.2672  0.6016 -0.6069
 2671SOL     OW10681   1.542   2.895   3.079 -0.2451  0.3599 -0.1658
 2671SOL    HW110682   1.543   2.983   3.118  1.7848  1.0134 -1.5368
 2671SOL    HW210683   1.574   2.837   3.148  0.0128  0.9609  0.2288
 2671SOL     MW10684   1.546   2.899   3.093  0.0628  0.5287 -0.2972
 2672SOL     OW10685   4.375   2.967   0.947 -0.2433  0.0479 -0.1954
 2672SOL    HW110686   4.323   3.000   1.020  0.4241  0.8131 -0.0447
 2672SOL    HW210687   4.457   3.016   0.953 -0.0791 -0.0801 -1.2990
 2672SOL     MW10688   4.379   2.978   0.958 -0.1314  0.1337 -0.3237
 2673SOL     OW10689   3.508   2.608   4.761 -0.4369 -0.1712  0.8299
 2673SOL    HW110690   3.423   2.597   4.804 -0.4083  2.0527  1.5993
 2673SOL    HW210691   3.527   2.702   4.770  1.8031 -0.4985  0.1066
 2673SOL     MW10692   3.499   2.619   4.768 -0.1316  0.0840  0.8361
 2674SOL     OW10693   1.236   0.317   4.533  0.0906 -0.0409  0.6665
 2674SOL    HW110694   1.168   0.346   4.593 -0.5113  1.0036 -0.4701
 2674SOL    HW210695   1.208   0.349   4.447  2.6355  1.5535  0.3306
 2674SOL     MW10696   1.223   0.325   4.529  0.3521  0.3142  0.4684
 2675SOL     OW10697   0.126   2.561   2.687  0.1889  0.7746  0.3148
 2675SOL    HW110698   0.153   2.556   2.596  1.2066  1.7144  0.5467
 2675SOL    HW210699   0.030   2.557   2.685  0.1946  1.0520 -0.8044
 2675SOL     MW10700   0.117   2.560   2.675  0.3266  0.9384  0.1954
 2676SOL     OW10701   5.218   3.697   2.744 -0.0071  0.2984 -0.3007
 2676SOL    HW110702   5.222   3.790   2.724  0.0284  0.5158  0.6633
 2676SOL    HW210703   5.125   3.675   2.740  0.0103  0.3039 -0.8074
 2676SOL     MW10704   5.206   3.706   2.741 -0.0000  0.3284 -0.2392
 2677SOL     OW10705   1.749   3.171   3.324  0.4608 -0.2319  0.0492
 2677SOL    HW110706   1.790   3.251   3.358 -0.1014  0.2214 -0.3470
 2677SOL    HW210707   1.708   3.131   3.401  0.7028 -0.1187  0.2382
 2677SOL     MW10708   1.749   3.177   3.339  0.4177 -0.1556  0.0213
 2678SOL     OW10709   2.212   2.020   3.016  0.0998  0.1231  0.5908
 2678SOL    HW110710   2.147   2.050   2.953 -0.0201  1.1147  1.1698
 2678SOL    HW210711   2.288   2.075   3.000 -0.1937  0.9248  1.7959
 2678SOL     MW10712   2.213   2.031   3.005  0.0442  0.3645  0.8309
 2679SOL     OW10713   5.085   2.609   4.956  0.0094 -0.3943  0.1682
 2679SOL    HW110714   5.032   2.539   4.918 -2.2732  1.4207 -0.2263
 2679SOL    HW210715   5.021   2.676   4.982  1.8057  0.2410  3.4589
 2679SOL     MW10716   5.069   2.608   4.954 -0.0561 -0.0645  0.5580
 2680SOL     OW10717   2.086   1.390   1.012  0.6750 -0.1147 -0.6629
 2680SOL    HW110718   2.006   1.358   1.053  0.3826 -0.8236 -1.7348
 2680SOL    HW210719   2.096   1.479   1.044  0.1641 -0.4561  0.4915
 2680SOL     MW10720   2.077   1.397   1.022  0.5669 -0.2560 -0.6518
 2681SOL     OW10721   1.274   3.847   0.492 -0.1160  0.1270  0.3573
 2681SOL    HW110722   1.193   3.893   0.470 -0.6330 -1.4212 -1.1493
 2681SOL    HW210723   1.336   3.917   0.513 -1.7110  1.3554  1.2133
 2681SOL     MW10724   1.271   3.863   0.492 -0.4003  0.0839  0.2698
 2682SOL     OW10725   2.393   5.233   1.841 -0.3716 -0.5115  0.2525
 2682SOL    HW110726   2.298   5.240   1.856 -1.0015 -1.7271 -2.4936
 2682SOL    HW210727   2.410   5.293   1.768  0.3836 -2.3483 -1.1674
 2682SOL     MW10728   2.382   5.242   1.833 -0.3547 -0.9223 -0.3082
 2683SOL     OW10729   2.754   2.720   3.168  0.8020  0.6200  0.1520
 2683SOL    HW110730   2.717   2.673   3.093  0.3466  1.9212 -0.4715
 2683SOL    HW210731   2.712   2.680   3.245  1.5539 -0.9697 -0.2521
 2683SOL     MW10732   2.743   2.709   3.169  0.8419  0.5811  0.0137
 2684SOL     OW10733   3.152   3.437   3.609  0.1162  0.4041 -0.4206
 2684SOL    HW110734   3.210   3.434   3.532  0.4409  0.2180 -0.1687
 2684SOL    HW210735   3.075   3.485   3.578  0.0908  0.0219 -0.9660
 2684SOL     MW10736   3.150   3.443   3.594  0.1565  0.3276 -0.4601
 2685SOL     OW10737   1.816   3.317   1.768  0.2342  0.5635  0.1182
 2685SOL    HW110738   1.748   3.251   1.754 -0.3223  0.9593  0.8704
 2685SOL    HW210739   1.844   3.342   1.679 -0.3357  0.1318 -0.1899
 2685SOL     MW10740   1.811   3.312   1.754  0.0826  0.5586  0.1780
 2686SOL     OW10741   3.873   1.462   0.602 -0.3907  0.0814 -0.2617
 2686SOL    HW110742   3.859   1.549   0.638 -0.5681  0.0259 -0.1979
 2686SOL    HW210743   3.929   1.477   0.525 -0.2428  0.2270 -0.1271
 2686SOL     MW10744   3.879   1.476   0.596 -0.3947  0.0935 -0.2350
 2687SOL     OW10745   1.102   5.432   1.382 -0.5375 -0.2961 -0.3993
 2687SOL    HW110746   1.188   5.425   1.425 -0.5577  1.3018 -0.0157
 2687SOL    HW210747   1.052   5.358   1.417  0.5337 -0.9819 -0.2690
 2687SOL     MW10748   1.107   5.421   1.393 -0.3961 -0.1734 -0.3301
 2688SOL     OW10749   0.769   3.067   4.425 -0.4947 -0.0150  0.0521
 2688SOL    HW110750   0.850   3.111   4.398 -0.9341 -0.3395 -1.9931
 2688SOL    HW210751   0.796   3.007   4.494  1.0190 -0.0735 -0.5406
 2688SOL     MW10752   0.784   3.065   4.431 -0.3501 -0.0666 -0.3029
 2689SOL     OW10753   2.059   5.041   1.555 -0.0713 -0.0959 -0.4657
 2689SOL    HW110754   1.995   4.995   1.609 -0.5539 -0.8870 -1.6611
 2689SOL    HW210755   2.019   5.126   1.537  0.4837  0.5311  1.1162
 2689SOL     MW10756   2.045   5.046   1.560 -0.0615 -0.1180 -0.4137
 2690SOL     OW10757   2.826   3.900   2.621  0.1364  0.8604 -0.0629
 2690SOL    HW110758   2.764   3.933   2.685 -1.3371 -2.0558  0.1365
 2690SOL    HW210759   2.878   3.835   2.668 -0.5918 -0.9223 -1.5961
 2690SOL     MW10760   2.825   3.896   2.636 -0.1599  0.2280 -0.2424
 2691SOL     OW10761   3.205   0.343   3.126  0.2794 -0.2868 -0.4500
 2691SOL    HW110762   3.114   0.354   3.099  0.1608 -0.9065 -0.3045
 2691SOL    HW210763   3.254   0.342   3.044  0.1261 -0.2666 -0.5433
 2691SOL     MW10764   3.199   0.345   3.112  0.2428 -0.3675 -0.4430
 2692SOL     OW10765   4.361   2.657   3.701 -0.1715 -0.1386 -0.2507
 2692SOL    HW110766   4.348   2.590   3.633 -0.6087 -0.4626  0.1468
 2692SOL    HW210767   4.391   2.609   3.777  1.8624  0.4096 -0.6443
 2692SOL     MW10768   4.363   2.641   3.702  0.0434 -0.1084 -0.2502
 2693SOL     OW10769   4.460   0.960   2.475  0.4113  0.1893  0.2747
 2693SOL    HW110770   4.381   0.909   2.494 -0.4989  1.7552  0.8991
 2693SOL    HW210771   4.527   0.895   2.458 -0.4072 -1.2555  2.1986
 2693SOL     MW10772   4.458   0.945   2.476  0.1786  0.2056  0.6177
 2694SOL     OW10773   1.613   1.190   1.012 -0.5340  0.1906 -0.4440
 2694SOL    HW110774   1.604   1.268   0.957 -2.2126  1.1086  1.0315
 2694SOL    HW210775   1.649   1.124   0.954 -0.3806  1.6711 -2.1138
 2694SOL     MW10776   1.617   1.192   0.997 -0.7392  0.5134 -0.4702
 2695SOL     OW10777   3.187   1.709   0.560  0.3043  0.2658  0.1960
 2695SOL    HW110778   3.231   1.789   0.589 -1.8979  1.8681 -0.5848
 2695SOL    HW210779   3.170   1.660   0.640  1.6628  0.5583  0.6908
 2695SOL     MW10780   3.191   1.713   0.574  0.1908  0.5208  0.1575
 2696SOL     OW10781   4.614   2.222   1.459 -0.2598  0.1495 -0.0126
 2696SOL    HW110782   4.627   2.273   1.379  0.7568  0.9881  0.6678
 2696SOL    HW210783   4.521   2.231   1.478 -0.3465  0.6499 -0.6260
 2696SOL     MW10784   4.603   2.230   1.451 -0.1347  0.3297 -0.0036
 2697SOL     OW10785   1.685   1.163   2.765  0.4310 -0.3915 -0.1686
 2697SOL    HW110786   1.604   1.164   2.817  1.6230  0.6168  1.7613
 2697SOL    HW210787   1.751   1.127   2.824  1.4027 -1.3868 -1.7769
 2697SOL     MW10788   1.683   1.158   2.780  0.7222 -0.3898 -0.1253
 2698SOL     OW10789   2.650   2.623   3.448 -0.2567 -0.1398  0.3853
 2698SOL    HW110790   2.576   2.611   3.508 -0.3628 -1.0743  0.0899
 2698SOL    HW210791   2.697   2.699   3.483 -2.2916  1.5813 -0.3971
 2698SOL     MW10792   2.646   2.632   3.461 -0.5448 -0.0340  0.2402
 2699SOL     OW10793   3.590   2.727   0.284  0.1135 -0.0412  0.0433
 2699SOL    HW110794   3.634   2.728   0.198  1.3881  0.7016  0.6813
 2699SOL    HW210795   3.651   2.771   0.343  0.8526 -3.4240  2.1127
 2699SOL     MW10796   3.604   2.733   0.280  0.3845 -0.3965  0.4076
 2700SOL     OW10797   3.311   4.101   2.980 -0.6041  0.5139  0.1089
 2700SOL    HW110798   3.375   4.036   2.952 -0.3417  0.7552  0.1428
 2700SOL    HW210799   3.359   4.183   2.981 -1.0076  0.7622 -0.2260
 2700SOL     MW10800   3.326   4.103   2.976 -0.6231  0.5798  0.0684
 2701SOL     OW10801   2.240   5.107   2.783 -0.0626  0.4653  0.1400
 2701SOL    HW110802   2.206   5.033   2.833 -1.6034  0.9883 -0.0773
 2701SOL    HW210803   2.164   5.164   2.770  0.6253  1.0599 -1.5226
 2701SOL     MW10804   2.225   5.105   2.788 -0.1774  0.6157 -0.1130
 2702SOL     OW10805   4.147   5.478   1.642 -0.4799  0.2197 -0.0596
 2702SOL    HW110806   4.220   5.425   1.676  0.6040  0.7692 -1.4531
 2702SOL    HW210807   4.107   5.516   1.720 -1.2596 -2.5390  1.0071
 2702SOL     MW10808   4.152   5.476   1.657 -0.4390 -0.0776 -0.1036
 2703SOL     OW10809   3.784   0.983   1.594 -0.2066 -0.1262  0.1612
 2703SOL    HW110810   3.866   0.971   1.642  1.0901  1.5957 -1.4773
 2703SOL    HW210811   3.783   0.911   1.531 -0.4299 -0.6612  0.7616
 2703SOL     MW10812   3.795   0.971   1.592 -0.0621  0.0335  0.0215
 2704SOL     OW10813   1.241   1.357   3.270 -0.0019 -0.1841  0.0472
 2704SOL    HW110814   1.253   1.380   3.178  0.4340  2.0599  0.5954
 2704SOL    HW210815   1.326   1.373   3.311 -0.0774 -1.5391  0.7881
 2704SOL     MW10816   1.254   1.362   3.263  0.0466 -0.0644  0.2207
 2705SOL     OW10817   0.469   0.560   0.085 -0.1075 -0.9485  0.2211
 2705SOL    HW110818   0.486   0.507   0.007  1.1411 -1.3075  0.7229
 2705SOL    HW210819   0.541   0.539   0.144 -1.5333 -1.4156  1.8747
 2705SOL     MW10820   0.481   0.550   0.082 -0.1314 -1.0596  0.5111
 2706SOL     OW10821   4.833   0.022   1.368 -0.4070 -0.0456  0.1636
 2706SOL    HW110822   4.839   0.111   1.333 -0.6056  0.1941  0.7289
 2706SOL    HW210823   4.907   0.015   1.428  0.1137 -0.5607 -0.5153
 2706SOL     MW10824   4.844   0.033   1.371 -0.3636 -0.0827  0.1483
 2707SOL     OW10825   5.161   2.273   3.269  0.0377 -0.2825 -0.0019
 2707SOL    HW110826   5.102   2.333   3.223 -0.2718 -0.3559  0.2908
 2707SOL    HW210827   5.226   2.330   3.309 -0.6937 -0.0654  0.9081
 2707SOL     MW10828   5.162   2.289   3.268 -0.1024 -0.2631  0.1599
 2708SOL     OW10829   4.385   5.104   1.573  0.0088 -0.5644 -0.0685
 2708SOL    HW110830   4.441   5.155   1.515  1.3027 -0.3449  1.3085
 2708SOL    HW210831   4.338   5.169   1.625  0.0674 -0.7648  0.2371
 2708SOL     MW10832   4.386   5.120   1.572  0.1908 -0.5618  0.1580
 2709SOL     OW10833   2.483   3.027   1.411 -0.4822  0.5710  0.3523
 2709SOL    HW110834   2.550   3.005   1.476  0.2800 -1.6569 -1.0716
 2709SOL    HW210835   2.515   3.107   1.370  1.1979 -0.2539 -0.0479
 2709SOL     MW10836   2.497   3.035   1.414 -0.1536  0.1601  0.1068
 2710SOL     OW10837   3.413   4.672   1.870  0.4241 -0.4581  0.1777
 2710SOL    HW110838   3.382   4.620   1.796  0.8517 -1.0720  0.4234
 2710SOL    HW210839   3.494   4.629   1.898  0.5377  0.0662  0.6847
 2710SOL     MW10840   3.420   4.659   1.864  0.4969 -0.4702  0.2790
 2711SOL     OW10841   4.872   0.152   0.656  0.1093  0.2282 -0.7937
 2711SOL    HW110842   4.927   0.135   0.732 -1.1691 -0.0224  0.0997
 2711SOL    HW210843   4.791   0.188   0.691 -0.7995 -0.5679 -1.9594
 2711SOL     MW10844   4.869   0.155   0.671 -0.1851  0.0873 -0.8304
 2712SOL     OW10845   2.804   3.085   1.141  0.0651  0.6442 -0.2216
 2712SOL    HW110846   2.726   3.034   1.163  0.3716  1.0622  2.0749
 2712SOL    HW210847   2.824   3.060   1.051 -0.2791 -2.6679  0.4826
 2712SOL     MW10848   2.796   3.075   1.132  0.0600  0.2547  0.1822
 2713SOL     OW10849   1.127   2.144   5.034  0.3063  0.3540  0.0638
 2713SOL    HW110850   1.041   2.120   4.999 -0.0348  0.1903  0.9792
 2713SOL    HW210851   1.173   2.183   4.960 -1.0354  1.6787 -0.1155
 2713SOL     MW10852   1.121   2.146   5.019  0.0798  0.5103  0.1629
 2714SOL     OW10853   3.791   2.783   0.735  0.3821  0.0838 -0.1514
 2714SOL    HW110854   3.802   2.877   0.750  0.2737 -0.0005  0.5011
 2714SOL    HW210855   3.856   2.742   0.792 -0.3071 -0.2642  0.4114
 2714SOL     MW10856   3.801   2.790   0.745  0.2748  0.0256  0.0121
 2715SOL     OW10857   4.477   5.347   2.090 -0.0109  0.2229 -0.0185
 2715SOL    HW110858   4.539   5.301   2.146  0.1275 -0.1026 -0.4266
 2715SOL    HW210859   4.509   5.329   2.001 -1.0558 -0.4913 -0.2612
 2715SOL     MW10860   4.490   5.339   2.085 -0.1329  0.0829 -0.1061
 2716SOL     OW10861   3.969   5.175   5.110 -0.2769 -0.2282 -0.1943
 2716SOL    HW110862   4.035   5.186   5.042  1.3225 -1.9047  1.0054
 2716SOL    HW210863   3.999   5.229   5.183  0.0106 -1.3111  0.5047
 2716SOL     MW10864   3.982   5.184   5.111 -0.0229 -0.5995  0.0612
 2717SOL     OW10865   2.241   4.322   2.173 -0.2946  0.2562 -0.0071
 2717SOL    HW110866   2.250   4.415   2.196 -1.4458  0.3885  0.0116
 2717SOL    HW210867   2.234   4.278   2.258  1.7148 -0.0515  0.0330
 2717SOL     MW10868   2.241   4.329   2.188 -0.1791  0.2326  0.0008
 2718SOL     OW10869   2.473   0.638   3.432 -0.5751  0.2940 -0.1128
 2718SOL    HW110870   2.438   0.641   3.520 -1.3405 -1.6150 -0.3202
 2718SOL    HW210871   2.568   0.645   3.443 -0.6368 -0.4129  0.8920
 2718SOL     MW10872   2.481   0.640   3.445 -0.6864 -0.0581 -0.0055
 2719SOL     OW10873   3.772   3.834   4.139  0.4587 -0.2330  0.1458
 2719SOL    HW110874   3.809   3.917   4.170  2.1599 -0.8439 -0.0926
 2719SOL    HW210875   3.827   3.810   4.064 -1.2347 -0.6277 -1.0153
 2719SOL     MW10876   3.785   3.842   4.133  0.4598 -0.3683 -0.0425
 2720SOL     OW10877   4.500   4.147   3.867 -0.0633  0.1349  0.4044
 2720SOL    HW110878   4.492   4.242   3.854 -1.5619 -0.2542 -1.9726
 2720SOL    HW210879   4.520   4.112   3.780 -0.7346 -1.8499  0.9943
 2720SOL     MW10880   4.502   4.155   3.854 -0.3553 -0.1846  0.1639
 2721SOL     OW10881   2.805   5.385   2.888  0.0799  0.2176  0.9457
 2721SOL    HW110882   2.808   5.306   2.834 -0.3128  0.5458  0.4289
 2721SOL    HW210883   2.884   5.380   2.942  0.3569 -0.2450  0.5122
 2721SOL     MW10884   2.816   5.374   2.888  0.0643  0.1995  0.8179
 2722SOL     OW10885   2.574   1.168   2.901 -0.4696  0.2377 -0.6898
 2722SOL    HW110886   2.590   1.122   2.819 -1.0290  0.1094 -0.7333
 2722SOL    HW210887   2.481   1.190   2.898  0.0220  2.5360 -1.2601
 2722SOL     MW10888   2.563   1.165   2.890 -0.4788  0.5297 -0.7724
 2723SOL     OW10889   5.246   2.175   0.035  0.0977 -0.3470 -0.4612
 2723SOL    HW110890   5.193   2.237  -0.016  0.9255  0.4169 -0.4174
 2723SOL    HW210891   5.212   2.089   0.011 -0.4266  0.0733 -1.2690
 2723SOL     MW10892   5.234   2.172   0.025  0.1386 -0.1876 -0.5640
 2724SOL     OW10893   2.619   4.195   0.625 -0.1191 -0.0723  0.0081
 2724SOL    HW110894   2.700   4.246   0.634 -0.8591  0.9263  1.4986
 2724SOL    HW210895   2.579   4.200   0.712 -2.3093  0.3569 -0.9671
 2724SOL     MW10896   2.625   4.202   0.638 -0.5134  0.1199  0.0775
 2725SOL     OW10897   5.091   3.884   3.351  0.6853 -0.2655 -0.4904
 2725SOL    HW110898   5.144   3.804   3.356  1.0924  0.0194 -0.1939
 2725SOL    HW210899   5.024   3.864   3.286  0.7154 -0.8896 -0.3362
 2725SOL     MW10900   5.089   3.870   3.343  0.7442 -0.3112 -0.4297
 2726SOL     OW10901   0.128   5.036   3.535  0.1501 -0.4481 -0.5059
 2726SOL    HW110902   0.099   5.015   3.623  1.0482  1.7280  0.3947
 2726SOL    HW210903   0.216   4.999   3.530  0.2493 -0.2417 -0.3272
 2726SOL     MW10904   0.136   5.028   3.546  0.2843 -0.1275 -0.3606
 2727SOL     OW10905   0.489   0.082   1.146 -0.1488 -0.2145 -0.2696
 2727SOL    HW110906   0.416   0.026   1.121 -0.1089 -0.5510  0.3631
 2727SOL    HW210907   0.541   0.029   1.207  1.9914 -0.9404 -2.5395
 2727SOL     MW10908   0.486   0.067   1.151  0.1446 -0.3574 -0.4899
 2728SOL     OW10909   2.297   3.975   0.038  0.0371 -0.0268 -0.1696
 2728SOL    HW110910   2.261   4.059   0.066 -0.9546 -0.7140  0.6837
 2728SOL    HW210911   2.389   3.994   0.017 -0.0199  1.1456  0.5641
 2728SOL     MW10912   2.304   3.988   0.039 -0.1041  0.0385  0.0440
 2729SOL     OW10913   4.081   2.212   1.473 -0.3656 -0.0674 -0.2845
 2729SOL    HW110914   4.008   2.272   1.464  0.1670  0.7087  0.4448
 2729SOL    HW210915   4.040   2.128   1.494 -1.0198  0.5854  1.2103
 2729SOL     MW10916   4.066   2.209   1.474 -0.3820  0.1249  0.0148
 2730SOL     OW10917   2.876   1.522   3.074  0.3350 -1.2627 -0.0911
 2730SOL    HW110918   2.832   1.566   3.147  1.0174  1.8249 -1.3958
 2730SOL    HW210919   2.805   1.495   3.016 -0.0415  0.0283 -0.2480
 2730SOL     MW10920   2.860   1.524   3.076  0.3762 -0.6734 -0.2878
 2731SOL     OW10921   1.380   1.921   2.070 -0.5578  0.0810 -0.1958
 2731SOL    HW110922   1.333   1.977   2.008  0.1480  2.2165  1.1207
 2731SOL    HW210923   1.465   1.963   2.082  1.1129 -2.7692 -1.1925
 2731SOL     MW10924   1.385   1.934   2.063 -0.2379 -0.0152 -0.1528
 2732SOL     OW10925   2.470   0.764   1.881 -0.5941  0.4459 -0.5119
 2732SOL    HW110926   2.521   0.710   1.820  0.9455  0.1914  0.9305
 2732SOL    HW210927   2.448   0.843   1.830  3.3378  1.7107 -0.6262
 2732SOL     MW10928   2.474   0.768   1.866  0.1422  0.5819 -0.3331
 2733SOL     OW10929   4.044   1.287   3.966  0.0897 -0.0794  0.3712
 2733SOL    HW110930   3.971   1.287   3.904 -0.5670 -0.7633  1.1285
 2733SOL    HW210931   4.102   1.357   3.935 -0.6293  0.1240 -0.5378
 2733SOL     MW10932   4.042   1.297   3.954 -0.0954 -0.1441  0.3508
 2734SOL     OW10933   3.424   3.841   0.250  0.0472  0.1036 -0.0029
 2734SOL    HW110934   3.433   3.782   0.175 -0.8583  1.1130 -0.9372
 2734SOL    HW210935   3.463   3.923   0.221  0.4464  0.2599  0.9478
 2734SOL     MW10936   3.430   3.844   0.236 -0.0209  0.2605 -0.0007
 2735SOL     OW10937   4.182   3.963   4.911  0.0650 -0.1156  0.3329
 2735SOL    HW110938   4.141   3.888   4.869  0.0731 -0.9829  1.8349
 2735SOL    HW210939   4.132   4.039   4.878 -0.1053 -0.7686 -0.9903
 2735SOL     MW10940   4.170   3.963   4.901  0.0432 -0.3202  0.3569
 2736SOL     OW10941   2.970   4.047   5.141 -0.7425 -0.1138  0.3164
 2736SOL    HW110942   3.062   4.020   5.141 -0.7605 -0.1847 -0.0803
 2736SOL    HW210943   2.927   3.987   5.081 -1.0761 -0.1584  0.5943
 2736SOL     MW10944   2.977   4.036   5.133 -0.7898 -0.1293  0.3004
 2737SOL     OW10945   0.470   5.220   3.662  0.3477 -0.0710 -0.4488
 2737SOL    HW110946   0.457   5.125   3.667 -2.3051  0.1810 -1.0485
 2737SOL    HW210947   0.524   5.233   3.584 -0.9866 -1.0160 -1.5889
 2737SOL     MW10948   0.475   5.209   3.652 -0.1889 -0.1642 -0.6829
 2738SOL     OW10949   1.696   5.470   0.099  0.1490  0.0242  0.1042
 2738SOL    HW110950   1.754   5.417   0.043  0.8336  0.7886  0.0581
 2738SOL    HW210951   1.755   5.513   0.161 -0.2414  1.4875 -0.4799
 2738SOL     MW10952   1.712   5.469   0.099  0.1886  0.3240  0.0194
 2739SOL     OW10953   2.957   4.845   5.470  0.0432 -0.1924  0.3451
 2739SOL    HW110954   3.045   4.856   5.436 -0.6136 -0.0237 -1.3682
 2739SOL    HW210955   2.913   4.789   5.407 -0.8075 -1.1088  1.6912
 2739SOL     MW10956   2.963   4.839   5.457 -0.1597 -0.2930  0.2957
 2740SOL     OW10957   5.055   0.483   3.819 -0.1081 -0.3566  0.4494
 2740SOL    HW110958   4.970   0.453   3.851 -0.2910 -1.0852 -0.6542
 2740SOL    HW210959   5.054   0.463   3.725  0.7974  0.7637  0.1703
 2740SOL     MW10960   5.043   0.477   3.810 -0.0109 -0.3039  0.2633
 2741SOL     OW10961   3.754   2.541   2.452 -0.5037  0.2253 -1.1009
 2741SOL    HW110962   3.838   2.530   2.406 -0.2039 -0.6424 -0.3684
 2741SOL    HW210963   3.778   2.565   2.541 -1.0486  0.3499 -0.9849
 2741SOL     MW10964   3.769   2.543   2.458 -0.5367  0.1253 -0.9867
 2742SOL     OW10965   4.436   3.949   4.864  0.1569  0.4013  0.0807
 2742SOL    HW110966   4.341   3.946   4.874  0.2714 -0.9458  0.9851
 2742SOL    HW210967   4.450   4.009   4.790 -1.3215  1.4773  0.6189
 2742SOL     MW10968   4.425   3.957   4.855 -0.0266  0.3648  0.2748
 2743SOL     OW10969   2.899   0.675   2.233 -0.0576 -0.8544  0.8076
 2743SOL    HW110970   2.939   0.750   2.188 -0.2581  0.1154  2.2128
 2743SOL    HW210971   2.969   0.609   2.235  0.5606 -0.2209  0.7235
 2743SOL     MW10972   2.914   0.676   2.227 -0.0014 -0.6386  0.9854
 2744SOL     OW10973   5.204   2.172   1.058  0.4431  0.0841  0.3012
 2744SOL    HW110974   5.137   2.237   1.034 -1.9917 -1.4880  2.2782
 2744SOL    HW210975   5.183   2.095   1.006  0.8667 -0.3497  0.7633
 2744SOL     MW10976   5.192   2.171   1.048  0.1724 -0.1858  0.6295
 2745SOL     OW10977   2.024  -0.021   2.044  0.2295  0.3327  0.2554
 2745SOL    HW110978   1.973   0.058   2.027  1.0949  0.9676  0.5573
 2745SOL    HW210979   2.089   0.005   2.109  1.5800 -0.1799 -0.8233
 2745SOL     MW10980   2.026  -0.007   2.050  0.5277  0.3492  0.1508
 2746SOL     OW10981   3.462   1.921   3.427  0.2684 -0.0265 -0.2342
 2746SOL    HW110982   3.381   1.891   3.386 -0.3115  1.1106  0.0173
 2746SOL    HW210983   3.513   1.842   3.441 -0.4321 -0.6667 -1.1892
 2746SOL     MW10984   3.458   1.906   3.423  0.0961  0.0404 -0.3288
 2747SOL     OW10985   0.094   3.484   4.666 -0.2214 -0.2198  0.2339
 2747SOL    HW110986   0.128   3.565   4.704 -0.6639 -0.6890  1.6945
 2747SOL    HW210987   0.009   3.508   4.628 -0.8030 -0.1774  1.5243
 2747SOL     MW10988   0.087   3.498   4.666 -0.3592 -0.2772  0.6041
 2748SOL     OW10989   0.848   0.544   5.245 -0.2118 -0.1687 -0.4565
 2748SOL    HW110990   0.792   0.622   5.246 -0.3002 -0.2290 -0.5783
 2748SOL    HW210991   0.899   0.549   5.325  0.1445  0.2784 -0.7037
 2748SOL     MW10992   0.847   0.555   5.256 -0.1758 -0.1166 -0.5062
 2749SOL     OW10993   0.749   1.261   1.648  0.0626  0.0298  0.0251
 2749SOL    HW110994   0.771   1.169   1.658  1.2181  0.3566  0.7472
 2749SOL    HW210995   0.719   1.270   1.557 -0.3521 -1.0961  0.0438
 2749SOL     MW10996   0.748   1.250   1.637  0.1623 -0.0777  0.1248
 2750SOL     OW10997   0.742   4.983   4.971  0.2157  0.0869  0.9121
 2750SOL    HW110998   0.809   5.052   4.973 -0.3858  0.7090  0.3056
 2750SOL    HW210999   0.705   4.989   4.883  0.4372 -1.3037  0.7017
 2750SOL     MW11000   0.746   4.993   4.959  0.1646 -0.0165  0.8022
 2751SOL     OW11001   3.512   4.737   1.423 -0.5286  1.0019 -0.3053
 2751SOL    HW111002   3.439   4.692   1.381  0.5598  0.1661 -1.3736
 2751SOL    HW211003   3.548   4.794   1.355 -0.1717  1.3919  0.2007
 2751SOL     MW11004   3.507   4.738   1.409 -0.3341  0.9419 -0.3810
 2752SOL     OW11005   1.750   0.463   5.073  0.1622 -0.1656  0.1965
 2752SOL    HW111006   1.845   0.471   5.069  0.1935 -0.4073  0.3831
 2752SOL    HW211007   1.733   0.370   5.057  0.1327 -0.6363  2.5545
 2752SOL     MW11008   1.760   0.451   5.071  0.1625 -0.2615  0.5390
 2753SOL     OW11009   0.948   4.806   0.414 -0.0082 -0.2440  0.2347
 2753SOL    HW111010   0.963   4.900   0.408 -0.2423 -0.1691  0.8446
 2753SOL    HW211011   0.994   4.770   0.337 -0.0518  0.3755 -0.0870
 2753SOL     MW11012   0.956   4.814   0.403 -0.0456 -0.1506  0.2735
 2754SOL     OW11013   3.707   1.983   3.921 -0.1191  0.5707  0.0482
 2754SOL    HW111014   3.680   1.911   3.863 -0.7620  0.0696  0.9344
 2754SOL    HW211015   3.738   1.939   4.000  1.5605  1.2142 -0.2215
 2754SOL     MW11016   3.707   1.967   3.924  0.0204  0.5899  0.1311
 2755SOL     OW11017   0.329   5.402   1.895  0.1947  0.0551  0.0724
 2755SOL    HW111018   0.313   5.491   1.863  0.4626 -0.2230 -0.8674
 2755SOL    HW211019   0.244   5.358   1.888  0.3839 -0.1754 -0.8291
 2755SOL     MW11020   0.316   5.408   1.890  0.2562 -0.0133 -0.1754
 2756SOL     OW11021   4.752   1.741   2.834  0.3244 -0.9399 -0.2502
 2756SOL    HW111022   4.757   1.720   2.928 -0.1695  0.4408  0.1036
 2756SOL    HW211023   4.794   1.826   2.827 -0.7838 -0.4425 -1.0828
 2756SOL     MW11024   4.758   1.750   2.846  0.1088 -0.6872 -0.3146
 2757SOL     OW11025   1.751   2.609   4.546 -0.0636  0.1800  0.0763
 2757SOL    HW111026   1.813   2.537   4.557  1.3390  1.4930  1.4339
 2757SOL    HW211027   1.733   2.611   4.452  1.8557 -0.3827 -0.3617
 2757SOL     MW11028   1.757   2.600   4.535  0.3835  0.2810  0.2001
 2758SOL     OW11029   1.716   3.415   2.833 -0.4068 -0.1402  0.0253
 2758SOL    HW111030   1.789   3.433   2.892 -1.0327 -1.2935  1.1893
 2758SOL    HW211031   1.758   3.384   2.752  0.4878  2.1135 -0.4544
 2758SOL     MW11032   1.732   3.413   2.830 -0.3706  0.0079  0.1174
 2759SOL     OW11033   0.363   3.772   1.800 -0.0174 -0.1003 -0.3144
 2759SOL    HW111034   0.404   3.806   1.720  0.7686 -0.6181 -0.1413
 2759SOL    HW211035   0.431   3.718   1.840 -0.3977  0.1741  0.7160
 2759SOL     MW11036   0.378   3.770   1.794  0.0372 -0.1331 -0.1524
 2760SOL     OW11037   1.943   1.472   2.768  0.3426  0.3552 -0.5323
 2760SOL    HW111038   1.938   1.492   2.862  0.7746  0.1748 -0.4692
 2760SOL    HW211039   1.959   1.557   2.727 -0.3421  0.5093 -0.4884
 2760SOL     MW11040   1.944   1.486   2.775  0.3086  0.3517 -0.5179
 2761SOL     OW11041   0.710   3.835   0.889 -0.0729  0.3801 -0.4005
 2761SOL    HW111042   0.796   3.801   0.865 -0.6948 -0.8967 -0.9046
 2761SOL    HW211043   0.720   3.862   0.981  1.1850  1.4350 -0.8058
 2761SOL     MW11044   0.723   3.834   0.898  0.0127  0.3503 -0.5229
 2762SOL     OW11045   4.776   0.357   1.521  0.7456  0.8116 -0.3944
 2762SOL    HW111046   4.729   0.276   1.537  1.1283  0.7313  0.3813
 2762SOL    HW211047   4.727   0.423   1.571  0.3481  1.0954 -1.1403
 2762SOL     MW11048   4.763   0.355   1.530  0.7436  0.8390 -0.3904
 2763SOL     OW11049   3.407   0.354   0.290 -0.7934  0.1161 -0.2276
 2763SOL    HW111050   3.458   0.388   0.363  0.9926 -0.6586 -1.0565
 2763SOL    HW211051   3.325   0.326   0.329 -0.1712  0.3887  1.3482
 2763SOL     MW11052   3.403   0.355   0.305 -0.4693  0.0485 -0.1271
 2764SOL     OW11053   4.292   1.938   1.615  0.6313 -0.9527  0.0126
 2764SOL    HW111054   4.203   1.948   1.648  0.5492 -0.0251 -0.4690
 2764SOL    HW211055   4.286   1.864   1.554  0.4575 -1.6568  0.8642
 2764SOL     MW11056   4.280   1.929   1.611  0.5968 -0.9226  0.0624
 2765SOL     OW11057   1.182   4.140   5.451  0.6775  0.4002 -0.0264
 2765SOL    HW111058   1.203   4.047   5.447 -1.9140 -0.2080 -1.3717
 2765SOL    HW211059   1.201   4.173   5.363  0.2966  0.8333  0.0526
 2765SOL     MW11060   1.188   4.132   5.439  0.2775  0.3766 -0.1969
 2766SOL     OW11061   4.242   4.360   0.199 -0.0589 -0.7864  0.3803
 2766SOL    HW111062   4.204   4.392   0.281 -0.4110 -1.0875  0.3394
 2766SOL    HW211063   4.274   4.272   0.220 -0.5336 -1.0349  0.0932
 2766SOL     MW11064   4.241   4.352   0.213 -0.1701 -0.8603  0.3361
 2767SOL     OW11065   1.789   1.534   3.505 -0.1271  0.5258  0.0691
 2767SOL    HW111066   1.848   1.577   3.568  1.0355 -0.3106 -0.4188
 2767SOL    HW211067   1.821   1.563   3.419 -1.8782  1.8907 -0.1862
 2767SOL     MW11068   1.802   1.544   3.502 -0.2063  0.5970 -0.0309
 2768SOL     OW11069   4.781   3.862   4.005  0.1811 -0.3774 -0.3166
 2768SOL    HW111070   4.858   3.857   4.062  1.0589 -1.0881 -1.5116
 2768SOL    HW211071   4.790   3.946   3.959 -1.5447  1.1539  1.8821
 2768SOL     MW11072   4.792   3.873   4.007  0.0670 -0.2670 -0.1815
 2769SOL     OW11073   1.463   3.912   5.264 -0.5024 -0.1113 -0.3700
 2769SOL    HW111074   1.523   3.865   5.206  0.3942 -0.3727  0.7503
 2769SOL    HW211075   1.514   3.928   5.343 -1.8526 -0.1507  0.5281
 2769SOL     MW11076   1.478   3.908   5.267 -0.5635 -0.1518 -0.0984
 2770SOL     OW11077   0.022   2.568   1.108 -0.1134  0.8242  0.6110
 2770SOL    HW111078   0.068   2.539   1.187  2.2704  1.8818 -0.2767
 2770SOL    HW211079  -0.030   2.643   1.137  1.8580  2.1168  0.9844
 2770SOL     MW11080   0.021   2.574   1.123  0.4728  1.1405  0.5418
 2771SOL     OW11081   1.820   3.270   2.613  0.1497  0.2110 -0.4146
 2771SOL    HW111082   1.768   3.221   2.550  1.4287 -0.9048 -0.6436
 2771SOL    HW211083   1.861   3.339   2.561 -4.4284  4.1130  0.4407
 2771SOL     MW11084   1.819   3.273   2.597 -0.2943  0.5859 -0.3303
 2772SOL     OW11085   4.538   4.980   5.223  0.5412 -0.1107 -0.1040
 2772SOL    HW111086   4.488   4.903   5.197  1.2966 -1.0532  1.1464
 2772SOL    HW211087   4.554   4.969   5.317  0.7042  1.5495  0.1048
 2772SOL     MW11088   4.534   4.968   5.232  0.6648 -0.0141  0.0924
 2773SOL     OW11089   1.265   0.098   0.536 -0.0792  0.2719 -0.0806
 2773SOL    HW111090   1.341   0.081   0.592 -0.3339 -1.2447 -0.1383
 2773SOL    HW211091   1.300   0.149   0.463  0.9918 -0.7448 -0.3084
 2773SOL     MW11092   1.280   0.102   0.534  0.0306 -0.0690 -0.1190
 2774SOL     OW11093   3.923   4.510   0.979 -0.0426  0.0149 -0.2252
 2774SOL    HW111094   3.899   4.589   0.930  0.2002 -0.3422 -0.9227
 2774SOL    HW211095   3.873   4.518   1.061  0.9889  1.5436  0.3025
 2774SOL     MW11096   3.913   4.522   0.983  0.1289  0.1726 -0.2481
 2775SOL     OW11097   2.831   5.101   5.399  0.1979 -0.0543  0.7941
 2775SOL    HW111098   2.872   5.129   5.317 -0.9949 -0.7479 -0.0703
 2775SOL    HW211099   2.884   5.027   5.429  0.9302  0.5132  0.9321
 2775SOL     MW11100   2.844   5.095   5.392  0.1359 -0.0712  0.6963
 2776SOL     OW11101   3.498   0.701   2.775  0.0412 -0.4102  0.5808
 2776SOL    HW111102   3.555   0.759   2.724 -2.1024  1.2336 -0.1469
 2776SOL    HW211103   3.476   0.751   2.853 -1.1680 -0.5629  0.3606
 2776SOL     MW11104   3.502   0.715   2.778 -0.4100 -0.2095  0.4532
 2777SOL     OW11105   1.023   0.176   1.027 -0.1446 -0.2494 -0.1977
 2777SOL    HW111106   0.978   0.159   0.944  2.2852  0.4309 -1.7736
 2777SOL    HW211107   1.054   0.091   1.056 -1.4065 -0.5560  0.2989
 2777SOL     MW11108   1.022   0.163   1.020  0.0126 -0.1991 -0.3430
 2778SOL     OW11109   1.020   0.814   4.325 -0.0998 -0.3342 -0.0684
 2778SOL    HW111110   1.038   0.843   4.414  1.5927 -0.8280 -0.2107
 2778SOL    HW211111   1.000   0.894   4.277 -3.6412 -0.2901  1.2447
 2778SOL     MW11112   1.020   0.829   4.330 -0.3486 -0.3947  0.0892
 2779SOL     OW11113   3.433   1.682   1.376 -0.1644 -0.3687 -0.0934
 2779SOL    HW111114   3.431   1.738   1.453 -0.9012  0.6222 -0.8079
 2779SOL    HW211115   3.349   1.699   1.332 -0.1402 -1.5826 -0.6449
 2779SOL     MW11116   3.421   1.692   1.380 -0.2603 -0.3987 -0.2638
 2780SOL     OW11117   4.593   5.119   0.122  0.0151  0.0048 -0.1727
 2780SOL    HW111118   4.579   5.044   0.063  1.4486 -0.2474 -0.2202
 2780SOL    HW211119   4.513   5.171   0.113 -0.1089 -0.4038 -1.7874
 2780SOL     MW11120   4.580   5.116   0.113  0.1913 -0.0841 -0.3964
 2781SOL     OW11121   2.847   5.181   2.718 -0.3779 -0.3167 -0.0826
 2781SOL    HW111122   2.779   5.117   2.696 -0.7284 -0.4691  1.3385
 2781SOL    HW211123   2.912   5.131   2.768  0.5374 -0.0577 -0.9725
 2781SOL     MW11124   2.847   5.166   2.722 -0.3019 -0.3023 -0.0111
 2782SOL     OW11125   3.266   4.444   0.429  0.3793  0.3651  0.0865
 2782SOL    HW111126   3.352   4.487   0.436 -0.2893  1.5837  1.3451
 2782SOL    HW211127   3.229   4.451   0.516 -0.5049 -1.2785 -0.1370
 2782SOL     MW11128   3.273   4.451   0.442  0.1703  0.3079  0.2258
 2783SOL     OW11129   0.494   4.804   4.900  0.5172  0.8520 -0.1933
 2783SOL    HW111130   0.541   4.808   4.983  3.8220  0.3759 -1.8770
 2783SOL    HW211131   0.471   4.711   4.890  1.2157  0.6876 -0.3304
 2783SOL     MW11132   0.497   4.792   4.910  1.0559  0.7658 -0.4383
 2784SOL     OW11133   5.151   3.897   0.658 -0.0952 -0.0800 -0.2592
 2784SOL    HW111134   5.056   3.906   0.655  0.0540  1.4431 -2.0769
 2784SOL    HW211135   5.177   3.944   0.737 -0.7471  1.1145 -0.7246
 2784SOL     MW11136   5.142   3.904   0.668 -0.1629  0.2857 -0.5665
 2785SOL     OW11137   2.594   2.613   1.441  0.1144 -0.3203 -0.2424
 2785SOL    HW111138   2.521   2.671   1.464  0.0203 -0.8440  0.8956
 2785SOL    HW211139   2.670   2.653   1.484 -0.1961 -1.7191  1.7832
 2785SOL     MW11140   2.594   2.626   1.450  0.0599 -0.5790  0.1834
 2786SOL     OW11141   1.811   1.083   3.004  0.2325 -0.0658  0.5516
 2786SOL    HW111142   1.840   1.156   3.059 -1.1076  0.3559  0.7313
 2786SOL    HW211143   1.889   1.059   2.952  1.1889  0.2903  1.7792
 2786SOL     MW11144   1.826   1.089   3.004  0.1808  0.0389  0.7410
 2787SOL     OW11145   2.081   3.474   5.304 -0.0439 -0.1800  0.0963
 2787SOL    HW111146   2.051   3.535   5.371  1.4684 -0.0440  0.6748
 2787SOL    HW211147   2.136   3.527   5.246  0.3730 -0.7517 -0.0406
 2787SOL     MW11148   2.084   3.490   5.305  0.2157 -0.2386  0.1557
 2788SOL     OW11149   2.296   4.155   4.015 -0.1527  0.0613 -0.0919
 2788SOL    HW111150   2.309   4.215   3.942 -0.4367  0.3480  0.0892
 2788SOL    HW211151   2.203   4.165   4.038  0.0706  0.4251  0.6920
 2788SOL     MW11152   2.285   4.165   4.009 -0.1609  0.1489  0.0379
 2789SOL     OW11153   1.232   0.796   3.579 -0.1797 -0.4126  0.4045
 2789SOL    HW111154   1.262   0.707   3.565  0.8032 -0.0576  0.1874
 2789SOL    HW211155   1.233   0.836   3.492  2.7579  0.8130  0.8886
 2789SOL     MW11156   1.236   0.790   3.565  0.3479 -0.1999  0.4405
 2790SOL     OW11157   0.020   0.702   4.892  0.4399 -0.2955 -0.1736
 2790SOL    HW111158  -0.039   0.736   4.959  0.5482 -0.9774  0.2839
 2790SOL    HW211159   0.051   0.779   4.846  1.8741  0.3928  1.8161
 2790SOL     MW11160   0.016   0.717   4.895  0.6475 -0.2947  0.1557
 2791SOL     OW11161   4.989   2.464   0.659 -0.6109  0.4724  0.1189
 2791SOL    HW111162   4.941   2.531   0.611  0.4693  1.0162 -0.2365
 2791SOL    HW211163   4.940   2.452   0.740 -1.1756  1.2173 -0.1058
 2791SOL     MW11164   4.976   2.471   0.663 -0.5415  0.6458  0.0408
 2792SOL     OW11165   3.092   2.334   3.443 -0.5153 -0.0699  0.8029
 2792SOL    HW111166   3.019   2.395   3.441 -0.5995 -0.1764  0.6493
 2792SOL    HW211167   3.161   2.376   3.391 -0.5752 -0.1075  0.6925
 2792SOL     MW11168   3.092   2.348   3.436 -0.5347 -0.0893  0.7674
 2793SOL     OW11169   4.109   5.275   4.899 -0.0897  0.0772  0.1699
 2793SOL    HW111170   4.086   5.367   4.884 -0.5541 -0.0487  0.0718
 2793SOL    HW211171   4.096   5.233   4.814  1.9179  0.2654 -0.2591
 2793SOL     MW11172   4.104   5.282   4.886  0.1180  0.0856  0.0989
 2794SOL     OW11173   4.455   5.373   0.449 -0.3286  0.0953 -1.1309
 2794SOL    HW111174   4.511   5.296   0.446 -0.9716 -0.4125 -0.4806
 2794SOL    HW211175   4.405   5.363   0.530 -0.5301  1.1223 -1.1109
 2794SOL     MW11176   4.456   5.362   0.460 -0.4423  0.1651 -1.0407
 2795SOL     OW11177   3.560   1.208   4.667  0.3034  0.0566 -0.1224
 2795SOL    HW111178   3.588   1.293   4.703  0.6026  0.3692 -1.0656
 2795SOL    HW211179   3.514   1.231   4.586 -0.5844 -0.6205  0.1871
 2795SOL     MW11180   3.558   1.223   4.661  0.2242  0.0075 -0.2077
 2796SOL     OW11181   0.215   2.644   0.695  0.9257  0.0579  0.4224
 2796SOL    HW111182   0.284   2.668   0.757  2.2137  1.3753 -1.3993
 2796SOL    HW211183   0.262   2.613   0.617 -0.6251 -1.3790 -0.0086
 2796SOL     MW11184   0.230   2.643   0.693  0.8903  0.0418  0.1192
 2797SOL     OW11185   0.598   4.167   1.928  0.3167 -0.2165 -0.3387
 2797SOL    HW111186   0.628   4.226   1.996 -0.6311 -2.6170  2.3569
 2797SOL    HW211187   0.676   4.118   1.902  0.6012  0.4280 -0.7182
 2797SOL     MW11188   0.613   4.168   1.933  0.2274 -0.4528 -0.0270
 2798SOL     OW11189   4.596   3.836   0.686 -0.5491  0.0948  0.1615
 2798SOL    HW111190   4.570   3.770   0.622 -1.2818  0.7530 -0.2493
 2798SOL    HW211191   4.580   3.795   0.771  0.3556 -0.7615 -0.0691
 2798SOL     MW11192   4.590   3.822   0.688 -0.5259  0.0681  0.0752
 2799SOL     OW11193   2.968   5.474   2.293 -0.2629  0.0102 -0.1114
 2799SOL    HW111194   2.980   5.432   2.379  1.3834  1.0073  0.2177
 2799SOL    HW211195   3.007   5.413   2.231  0.6633  0.2992  0.1647
 2799SOL     MW11196   2.975   5.460   2.296  0.0833  0.1833 -0.0300
 2800SOL     OW11197   0.742   1.024   0.900  0.2296 -0.0105 -0.2042
 2800SOL    HW111198   0.751   0.939   0.856  2.5503  0.7666 -1.4213
 2800SOL    HW211199   0.803   1.019   0.974  0.0437  0.4247 -0.0229
 2800SOL     MW11200   0.752   1.012   0.904  0.5169  0.1526 -0.3436
 2801SOL     OW11201   3.240   1.681   3.755 -0.5702  0.0105 -0.4528
 2801SOL    HW111202   3.291   1.759   3.730 -0.0151 -0.3611 -0.4950
 2801SOL    HW211203   3.280   1.610   3.705  1.5807 -1.0742  2.5773
 2801SOL     MW11204   3.252   1.682   3.745 -0.2060 -0.1855 -0.0507
 2802SOL     OW11205   4.758   5.252   3.156  0.3169  0.0142 -0.4581
 2802SOL    HW111206   4.845   5.215   3.137 -0.1448 -1.1330 -0.4471
 2802SOL    HW211207   4.708   5.238   3.075  0.0810  0.5035 -0.4012
 2802SOL     MW11208   4.763   5.245   3.142  0.2230 -0.0743 -0.4489
 2803SOL     OW11209   4.814   0.875   4.664  0.0585  0.4293  0.5227
 2803SOL    HW111210   4.723   0.887   4.690 -0.4069 -1.0009 -0.3418
 2803SOL    HW211211   4.832   0.947   4.604 -0.7595  0.2686  0.0810
 2803SOL     MW11212   4.804   0.886   4.659 -0.1142  0.2152  0.3469
 2804SOL     OW11213   1.939   1.857   2.422  0.5555 -0.5857  0.4626
 2804SOL    HW111214   1.947   1.806   2.503  0.4218 -0.7513  0.3702
 2804SOL    HW211215   2.012   1.828   2.368 -1.0792 -2.7150 -0.7287
 2804SOL     MW11216   1.950   1.847   2.426  0.3175 -0.8946  0.2899
 2805SOL     OW11217   3.792   5.191  -0.003  0.6067 -0.2756  0.1917
 2805SOL    HW111218   3.779   5.227   0.085  1.4202  0.3602  0.0599
 2805SOL    HW211219   3.872   5.233  -0.035  1.6122 -2.2046  0.0289
 2805SOL     MW11220   3.801   5.202   0.004  0.8515 -0.4496  0.1521
 2806SOL     OW11221   2.241   3.688   4.877 -0.1393 -0.2388  0.3157
 2806SOL    HW111222   2.204   3.775   4.866  0.4764 -0.0722 -0.5003
 2806SOL    HW211223   2.165   3.630   4.884 -0.6711  0.6389  3.8469
 2806SOL     MW11224   2.226   3.692   4.877 -0.1280 -0.0982  0.6811
 2807SOL     OW11225   0.027   0.812   4.211 -0.0821 -0.4111 -0.4559
 2807SOL    HW111226  -0.009   0.899   4.190 -1.0946 -0.5593  0.5454
 2807SOL    HW211227   0.068   0.783   4.130  1.2936  1.4713 -0.5082
 2807SOL     MW11228   0.027   0.820   4.198 -0.0332 -0.1777 -0.3282
 2808SOL     OW11229   2.971   0.886   1.798  0.0795 -0.5644 -0.3377
 2808SOL    HW111230   2.895   0.890   1.740 -1.2125  2.2746  1.3115
 2808SOL    HW211231   2.944   0.826   1.868 -1.2527  1.2239  0.8096
 2808SOL     MW11232   2.957   0.878   1.800 -0.2737  0.0583  0.0386
 2809SOL     OW11233   2.302   5.026   2.537 -0.5579 -0.2667 -0.5004
 2809SOL    HW111234   2.226   4.982   2.497 -0.9820  0.3852 -0.4269
 2809SOL    HW211235   2.278   5.036   2.629 -1.0080  1.2376 -0.7628
 2809SOL     MW11236   2.288   5.021   2.544 -0.6756  0.0235 -0.5258
 2810SOL     OW11237   2.563   0.663   2.479 -0.4120  0.0125 -0.2166
 2810SOL    HW111238   2.557   0.576   2.518 -0.3413  0.0179 -0.1946
 2810SOL    HW211239   2.582   0.646   2.386  1.4148  0.0391  0.1264
 2810SOL     MW11240   2.565   0.649   2.472 -0.1567  0.0168 -0.1675
 2811SOL     OW11241   1.698   1.283   3.553  0.2490 -0.3120  0.2813
 2811SOL    HW111242   1.605   1.277   3.531 -0.1367 -2.7949  2.0900
 2811SOL    HW211243   1.721   1.374   3.535 -1.8836 -0.1698 -2.4510
 2811SOL     MW11244   1.688   1.294   3.548 -0.0899 -0.6270  0.1570
 2812SOL     OW11245   4.449   0.162   1.358 -0.4777  0.1449 -0.2141
 2812SOL    HW111246   4.359   0.173   1.388  0.3335  2.4003  1.6802
 2812SOL    HW211247   4.501   0.151   1.438  0.9855 -0.7317 -1.2341
 2812SOL     MW11248   4.444   0.162   1.373 -0.1716  0.3305 -0.0964
 2813SOL     OW11249   0.981   1.242   0.552 -0.0197  0.1962 -0.4213
 2813SOL    HW111250   0.927   1.228   0.630 -0.5852 -2.0263 -1.1415
 2813SOL    HW211251   1.066   1.206   0.575  0.6754  2.0426  0.0728
 2813SOL     MW11252   0.985   1.235   0.566 -0.0022  0.1456 -0.4517
 2814SOL     OW11253   1.599   3.025   4.483 -0.5910 -0.2141  0.2006
 2814SOL    HW111254   1.645   3.098   4.443 -0.7488  0.0480  0.4971
 2814SOL    HW211255   1.563   2.976   4.409  0.8391 -0.8843 -0.0882
 2814SOL     MW11256   1.600   3.028   4.468 -0.4198 -0.2690  0.2016
 2815SOL     OW11257   3.802   4.636   4.152  0.3644 -0.0720  0.1265
 2815SOL    HW111258   3.752   4.690   4.213  0.7547 -1.7042  1.9845
 2815SOL    HW211259   3.876   4.604   4.204  0.3312 -2.1053 -0.9944
 2815SOL     MW11260   3.805   4.639   4.167  0.4124 -0.5653  0.2257
 2816SOL     OW11261   1.139   1.362   1.944 -0.0034 -0.1761  0.3437
 2816SOL    HW111262   1.081   1.386   1.871  0.2246  0.9337  0.5139
 2816SOL    HW211263   1.086   1.302   1.997 -0.2101 -0.9205 -0.6587
 2816SOL     MW11264   1.124   1.357   1.941 -0.0005 -0.1269  0.2317
 2817SOL     OW11265   2.155   4.638   2.618  0.1030  0.2061 -0.1779
 2817SOL    HW111266   2.091   4.648   2.548  0.7591  1.8031 -0.5831
 2817SOL    HW211267   2.227   4.590   2.577  0.1998  0.5485 -0.4147
 2817SOL     MW11268   2.156   4.633   2.603  0.2043  0.4671 -0.2643
 2818SOL     OW11269   1.370   5.259   5.465  0.1676 -0.3056 -0.1749
 2818SOL    HW111270   1.444   5.277   5.406  0.9641 -2.3417  0.1082
 2818SOL    HW211271   1.396   5.179   5.511 -1.3090  0.1380  1.5053
 2818SOL     MW11272   1.384   5.250   5.463  0.0761 -0.5199  0.0893
 2819SOL     OW11273   1.630   0.242   2.334  0.1862  0.2643  0.4441
 2819SOL    HW111274   1.544   0.284   2.326  0.7292  1.2632 -0.3751
 2819SOL    HW211275   1.691   0.315   2.346  1.0906 -0.3337 -0.4164
 2819SOL     MW11276   1.627   0.258   2.335  0.3810  0.3183  0.2180
 2820SOL     OW11277   0.217   2.863   0.993 -0.1272  0.5147  0.5036
 2820SOL    HW111278   0.286   2.818   0.945 -0.1470 -1.4661  2.2168
 2820SOL    HW211279   0.137   2.840   0.946  0.2633  2.6205 -1.3434
 2820SOL     MW11280   0.215   2.854   0.980 -0.0773  0.5315  0.4856
 2821SOL     OW11281   3.080   0.291   4.061  0.1137  0.1674  0.4542
 2821SOL    HW111282   3.088   0.268   4.153 -0.1914 -1.8595  0.0191
 2821SOL    HW211283   3.155   0.348   4.044  0.0706  0.7239  1.9831
 2821SOL     MW11284   3.091   0.296   4.071  0.0668 -0.0305  0.6014
 2822SOL     OW11285   1.734   1.505   0.147  0.2718 -0.1773 -0.3758
 2822SOL    HW111286   1.669   1.437   0.164  0.3665 -0.6215 -1.6763
 2822SOL    HW211287   1.742   1.507   0.051  0.4713  1.4738 -0.3605
 2822SOL     MW11288   1.726   1.496   0.136  0.3114 -0.0149 -0.5488
 2823SOL     OW11289   4.692   3.326   0.642 -0.3037 -0.3576  0.1710
 2823SOL    HW111290   4.748   3.305   0.717 -0.2138  0.8568  0.4709
 2823SOL    HW211291   4.720   3.266   0.573 -0.1342 -1.2413  0.9916
 2823SOL     MW11292   4.703   3.315   0.643 -0.2688 -0.3131  0.3218
 2824SOL     OW11293   3.089   0.274   4.749  0.5125  0.3441 -0.1777
 2824SOL    HW111294   3.073   0.278   4.844 -3.1265  0.4789 -0.6893
 2824SOL    HW211295   3.002   0.275   4.709  1.8610 -1.0411 -3.5256
 2824SOL     MW11296   3.075   0.275   4.757  0.2043  0.1758 -0.6971
 2825SOL     OW11297   3.543   3.705   4.037  0.5042  0.5900  0.2063
 2825SOL    HW111298   3.478   3.775   4.027  0.1445  0.2017 -0.1727
 2825SOL    HW211299   3.624   3.751   4.060  0.5410  1.2256 -1.1402
 2825SOL     MW11300   3.545   3.721   4.039  0.4607  0.6233 -0.0259
 2826SOL     OW11301   2.820   0.259   3.399  0.1110 -0.3001  0.1329
 2826SOL    HW111302   2.807   0.213   3.482 -0.3612 -1.7927 -0.7266
 2826SOL    HW211303   2.870   0.197   3.346 -2.6794 -0.9516 -1.9714
 2826SOL     MW11304   2.825   0.245   3.403 -0.3281 -0.5886 -0.2660
 2827SOL     OW11305   0.513   1.143   3.243  0.0844  0.0278 -0.3669
 2827SOL    HW111306   0.608   1.133   3.246  0.1714  1.0124  0.9053
 2827SOL    HW211307   0.500   1.233   3.212 -0.3604  0.6837  1.5942
 2827SOL     MW11308   0.524   1.154   3.239  0.0362  0.2486  0.0682
 2828SOL     OW11309   0.026   2.988   2.567  0.2508  0.0616 -0.2475
 2828SOL    HW111310  -0.029   3.067   2.559 -0.5405 -0.4288  0.2775
 2828SOL    HW211311  -0.002   2.933   2.494 -0.7202 -0.6336  0.6166
 2828SOL     MW11312   0.015   2.991   2.556  0.0136 -0.0980 -0.0606
 2829SOL     OW11313   4.773   1.264   5.105  0.4559  0.1952  0.4418
 2829SOL    HW111314   4.844   1.252   5.169  0.2696  1.2085  0.8470
 2829SOL    HW211315   4.809   1.325   5.040  0.4879 -0.4885 -0.2037
 2829SOL     MW11316   4.787   1.270   5.105  0.4351  0.2395  0.4095
 2830SOL     OW11317   4.806   3.356   2.653  0.4034  0.0615 -0.4197
 2830SOL    HW111318   4.743   3.295   2.615 -0.3115  0.4663  0.0983
 2830SOL    HW211319   4.798   3.434   2.599  0.2183  0.2291 -0.1518
 2830SOL     MW11320   4.796   3.358   2.641  0.2823  0.1385 -0.3140
 2831SOL     OW11321   1.527   2.475   2.910 -0.1267  0.0492 -0.9474
 2831SOL    HW111322   1.459   2.457   2.845  0.4296 -1.3253 -1.1775
 2831SOL    HW211323   1.588   2.533   2.865  0.0740 -0.6090 -1.5403
 2831SOL     MW11324   1.526   2.480   2.895 -0.0248 -0.2243 -1.0581
 2832SOL     OW11325   0.211   0.067   5.327 -0.5038 -0.0077  0.0525
 2832SOL    HW111326   0.265   0.004   5.375  1.1973  1.3847  0.0357
 2832SOL    HW211327   0.122   0.050   5.358  0.0509 -1.6526  0.8729
 2832SOL     MW11328   0.206   0.056   5.337 -0.2002 -0.0417  0.1607
 2833SOL     OW11329   1.193   0.833   5.155 -0.3371  0.3252 -0.0684
 2833SOL    HW111330   1.101   0.858   5.147 -0.7767 -0.3800  2.0867
 2833SOL    HW211331   1.203   0.806   5.247  1.2334 -2.6678 -0.9842
 2833SOL     MW11332   1.182   0.832   5.167 -0.1849 -0.1725  0.0984
 2834SOL     OW11333   3.118   3.833   1.365 -0.5558 -0.0903  0.5588
 2834SOL    HW111334   3.104   3.865   1.276 -1.2110  0.7744  0.9573
 2834SOL    HW211335   3.041   3.862   1.413 -0.3716 -0.8456  1.3361
 2834SOL     MW11336   3.106   3.841   1.359 -0.6192 -0.0756  0.7170
 2835SOL     OW11337   3.970   4.280   1.280 -0.2184  0.0850  0.1894
 2835SOL    HW111338   3.986   4.201   1.229 -0.7007  0.9547 -1.4021
 2835SOL    HW211339   3.876   4.281   1.294 -0.3395  0.7959 -0.5758
 2835SOL     MW11340   3.960   4.270   1.275 -0.2996  0.2977 -0.1277
 2836SOL     OW11341   5.376   5.438   2.223 -0.1392 -0.0542  0.3237
 2836SOL    HW111342   5.287   5.410   2.241 -0.8985  1.6173 -0.6635
 2836SOL    HW211343   5.431   5.379   2.276 -1.5885 -3.2210 -1.3881
 2836SOL     MW11344   5.372   5.426   2.233 -0.4364 -0.2554 -0.0395
 2837SOL     OW11345   2.310   4.001   2.602  0.2089 -0.2926 -0.0300
 2837SOL    HW111346   2.284   4.057   2.676 -0.3948 -0.0369 -0.4233
 2837SOL    HW211347   2.392   3.961   2.630 -0.4698 -0.9092  1.1621
 2837SOL     MW11348   2.317   4.003   2.616  0.0363 -0.3412  0.0775
 2838SOL     OW11349   4.879   3.766   4.786  0.0057  0.1118  0.2178
 2838SOL    HW111350   4.907   3.675   4.773 -0.1058  0.2223 -0.8762
 2838SOL    HW211351   4.817   3.782   4.715  0.4231  1.2123  0.0870
 2838SOL     MW11352   4.874   3.756   4.774  0.0469  0.2748  0.0529
 2839SOL     OW11353   3.806   2.760   4.916 -0.5218 -0.3724 -0.2003
 2839SOL    HW111354   3.852   2.708   4.850 -3.0472 -0.7134 -1.8477
 2839SOL    HW211355   3.785   2.697   4.985  1.8374 -0.0896  0.8493
 2839SOL     MW11356   3.809   2.745   4.916 -0.5442 -0.3803 -0.2808
 2840SOL     OW11357   2.309   2.685   0.605  0.1434  0.1501  0.2604
 2840SOL    HW111358   2.304   2.634   0.686 -1.0172 -0.5740 -0.2426
 2840SOL    HW211359   2.395   2.728   0.609  0.6169 -0.8348  1.2944
 2840SOL     MW11360   2.320   2.684   0.616  0.0509 -0.0799  0.3319
 2841SOL     OW11361   4.905   4.199   1.275 -0.3753 -0.5168  0.1457
 2841SOL    HW111362   4.975   4.152   1.229 -0.3462  0.0917 -0.4525
 2841SOL    HW211363   4.951   4.257   1.335 -0.3962 -0.8226  0.4599
 2841SOL     MW11364   4.921   4.200   1.277 -0.3742 -0.4760  0.1074
 2842SOL     OW11365   4.902   2.535   3.347  0.8566 -0.1637 -0.5279
 2842SOL    HW111366   4.974   2.537   3.411 -0.3127  1.3407  0.8265
 2842SOL    HW211367   4.905   2.621   3.306 -0.4798  0.1305 -0.0603
 2842SOL     MW11368   4.912   2.547   3.350  0.5194  0.0784 -0.2827
 2843SOL     OW11369   2.833   5.403   1.864  0.1826  0.3084 -0.2672
 2843SOL    HW111370   2.776   5.328   1.881  0.9090 -0.7644 -2.2568
 2843SOL    HW211371   2.891   5.373   1.794  0.4254  2.7846 -1.1996
 2843SOL     MW11372   2.833   5.389   1.857  0.3130  0.4973 -0.6604
 2844SOL     OW11373   3.195   1.312   2.712  0.0087  0.0146  0.5764
 2844SOL    HW111374   3.113   1.295   2.758 -1.0272 -1.6647 -1.6864
 2844SOL    HW211375   3.232   1.225   2.696  0.4116  0.4977 -1.4725
 2844SOL     MW11376   3.189   1.298   2.716 -0.0765 -0.1464 -0.0039
 2845SOL     OW11377   4.528   0.884   3.701  0.5110 -0.5918  0.0426
 2845SOL    HW111378   4.512   0.968   3.658 -1.1262 -1.1548 -0.5196
 2845SOL    HW211379   4.565   0.907   3.787 -0.6683  0.7305  0.2178
 2845SOL     MW11380   4.531   0.898   3.707  0.1320 -0.4896 -0.0095
 2846SOL     OW11381   3.482   4.066   1.561  0.4910  0.0364  0.5500
 2846SOL    HW111382   3.439   4.023   1.634  0.1559  2.1389  1.6668
 2846SOL    HW211383   3.575   4.051   1.575  0.5203  1.4595  2.1729
 2846SOL     MW11384   3.489   4.059   1.573  0.4499  0.5109  0.9187
 2847SOL     OW11385   1.206   5.141   4.717  0.4239  0.0423  0.1072
 2847SOL    HW111386   1.248   5.211   4.767 -1.4904  2.3116 -1.2786
 2847SOL    HW211387   1.130   5.115   4.770 -0.9444  1.6487 -0.9478
 2847SOL     MW11388   1.201   5.147   4.731 -0.0178  0.5639 -0.2213
 2848SOL     OW11389   3.560   4.086   1.159  0.4454  0.1490 -0.2282
 2848SOL    HW111390   3.488   4.030   1.188  1.7655 -0.9465  1.1338
 2848SOL    HW211391   3.601   4.036   1.088  0.8396 -0.0145  0.1102
 2848SOL     MW11392   3.556   4.072   1.153  0.6761 -0.0204  0.0006
 2849SOL     OW11393   4.601   0.281   1.925 -0.2781 -0.2567 -0.1269
 2849SOL    HW111394   4.625   0.325   1.844 -0.7248 -0.3784 -0.3314
 2849SOL    HW211395   4.563   0.350   1.980 -0.3789 -0.2592 -0.1934
 2849SOL     MW11396   4.599   0.296   1.922 -0.3518 -0.2734 -0.1634
 2850SOL     OW11397   0.846   2.162   1.221 -0.9989  0.4619 -0.4801
 2850SOL    HW111398   0.862   2.084   1.168  3.5152  0.2573  0.7854
 2850SOL    HW211399   0.782   2.134   1.286 -1.0352 -1.5456 -1.3073
 2850SOL     MW11400   0.839   2.148   1.223 -0.3963  0.1642 -0.4211
 2851SOL     OW11401   3.644   1.446   4.770 -0.3848 -0.3201  0.0250
 2851SOL    HW111402   3.657   1.501   4.847 -0.0096  0.7318 -0.7460
 2851SOL    HW211403   3.700   1.487   4.703 -2.0137 -0.1660 -1.2929
 2851SOL     MW11404   3.654   1.459   4.771 -0.5535 -0.1578 -0.2561
 2852SOL     OW11405   2.006   3.130   1.440  0.4829 -0.7410 -0.1296
 2852SOL    HW111406   1.964   3.066   1.384 -0.7894 -2.3916  2.4950
 2852SOL    HW211407   2.079   3.083   1.480 -0.7730 -0.8894  2.2265
 2852SOL     MW11408   2.010   3.115   1.438  0.1426 -0.9831  0.5407
 2853SOL     OW11409   2.817   2.019   2.752  0.3569  0.0284 -0.1237
 2853SOL    HW111410   2.899   2.003   2.798  0.4385  0.9762  0.0740
 2853SOL    HW211411   2.749   1.988   2.812  0.5311  0.0044  0.0603
 2853SOL     MW11412   2.819   2.013   2.767  0.3913  0.1527 -0.0723
 2854SOL     OW11413   5.109   5.503   0.180  0.0190  0.4356 -0.0917
 2854SOL    HW111414   5.020   5.480   0.207 -0.1287 -0.5129 -1.2911
 2854SOL    HW211415   5.120   5.461   0.094  0.3480  3.5509 -1.6993
 2854SOL     MW11416   5.099   5.494   0.172  0.0434  0.7272 -0.4695
 2855SOL     OW11417   5.338   3.647   5.428  0.2256 -0.0495 -0.2753
 2855SOL    HW111418   5.245   3.657   5.446  0.4516 -1.4431  2.0185
 2855SOL    HW211419   5.375   3.734   5.440 -0.4338  0.0358  1.2985
 2855SOL     MW11420   5.330   3.660   5.432  0.1673 -0.2255  0.2452
 2856SOL     OW11421   5.384   5.164   4.886 -0.1535  0.1071  0.1369
 2856SOL    HW111422   5.314   5.229   4.880 -1.2191 -0.9978  0.1839
 2856SOL    HW211423   5.350   5.098   4.946  1.0526 -0.3171  0.3749
 2856SOL     MW11424   5.370   5.164   4.893 -0.1346 -0.0987  0.1753
 2857SOL     OW11425   3.853   2.719   3.967 -0.3609 -0.1808 -0.9082
 2857SOL    HW111426   3.824   2.800   3.925 -2.3801 -0.3828 -0.0281
 2857SOL    HW211427   3.923   2.686   3.911  0.7066  2.2843 -1.1555
 2857SOL     MW11428   3.859   2.726   3.954 -0.4890  0.1237 -0.8230
 2858SOL     OW11429   4.174   0.371   0.621  0.3579 -0.2973  0.0279
 2858SOL    HW111430   4.200   0.359   0.530  0.3902 -1.1623  0.1420
 2858SOL    HW211431   4.229   0.309   0.670 -0.3279 -0.5291  0.5235
 2858SOL     MW11432   4.185   0.361   0.616  0.2700 -0.4449  0.1099
 2859SOL     OW11433   4.114   3.675   1.489 -0.2268  0.0929  0.0658
 2859SOL    HW111434   4.160   3.641   1.566 -0.1343  1.2329  0.5448
 2859SOL    HW211435   4.081   3.598   1.444  0.7882 -0.6616  0.5799
 2859SOL     MW11436   4.116   3.660   1.494 -0.0778  0.1448  0.1995
 2860SOL     OW11437   4.766   2.332   5.061 -0.3269  0.2737 -0.2205
 2860SOL    HW111438   4.677   2.323   5.028 -0.2204 -0.0174 -0.4374
 2860SOL    HW211439   4.773   2.264   5.128 -0.5072  0.7904  0.3246
 2860SOL     MW11440   4.755   2.321   5.066 -0.3368  0.3040 -0.1764
 2861SOL     OW11441   3.129   2.342   3.912 -0.2980 -0.4657  0.1368
 2861SOL    HW111442   3.093   2.320   3.998 -0.2815 -0.7617  0.0702
 2861SOL    HW211443   3.077   2.417   3.883 -0.7472 -0.7798  0.1165
 2861SOL     MW11444   3.117   2.349   3.920 -0.3563 -0.5478  0.1251
 2862SOL     OW11445   0.915   2.923   4.952  0.0398 -0.0114  0.2991
 2862SOL    HW111446   0.865   2.841   4.951  3.0026 -2.0237 -1.3276
 2862SOL    HW211447   0.989   2.905   5.010 -0.5952  2.5645  2.0406
 2862SOL     MW11448   0.918   2.909   4.960  0.3531  0.0644  0.3145
 2863SOL     OW11449   4.691   4.944   2.223 -0.0024 -0.3719  0.1280
 2863SOL    HW111450   4.715   4.922   2.133  1.8164  1.2980  0.1391
 2863SOL    HW211451   4.774   4.964   2.266 -0.8327 -1.0985  2.1939
 2863SOL     MW11452   4.706   4.944   2.217  0.1307 -0.2449  0.4075
 2864SOL     OW11453   5.205   1.273   2.551  0.6171 -0.1960 -0.1604
 2864SOL    HW111454   5.190   1.207   2.484 -0.4621 -0.8298  0.6617
 2864SOL    HW211455   5.196   1.356   2.505 -0.8890 -0.6056 -0.6719
 2864SOL     MW11456   5.201   1.275   2.536  0.2691 -0.3364 -0.1186
 2865SOL     OW11457   1.596   1.459   0.881  0.0892  0.2382  0.5627
 2865SOL    HW111458   1.585   1.421   0.794 -1.4324 -2.0397  1.6592
 2865SOL    HW211459   1.683   1.499   0.879 -0.3097  1.1719 -2.2835
 2865SOL     MW11460   1.606   1.459   0.869 -0.1693  0.0573  0.3272
 2866SOL     OW11461   0.537   2.097   0.410  0.3736  0.0223  0.0193
 2866SOL    HW111462   0.572   2.057   0.330  0.2238  0.2850 -0.1780
 2866SOL    HW211463   0.446   2.068   0.414  0.0742  0.8538 -0.4686
 2866SOL     MW11464   0.530   2.088   0.399  0.3131  0.1696 -0.0729
 2867SOL     OW11465   4.278   4.615   2.902 -0.7310 -0.3339 -0.2887
 2867SOL    HW111466   4.345   4.634   2.967  0.0259  0.8744 -1.3706
 2867SOL    HW211467   4.220   4.691   2.905  0.3146  0.6054 -2.2134
 2867SOL     MW11468   4.279   4.628   2.911 -0.4884 -0.0448 -0.6933
 2868SOL     OW11469   4.216   3.127   3.748  0.2888  0.1117  0.0730
 2868SOL    HW111470   4.127   3.092   3.747 -0.3189  1.5535  0.3777
 2868SOL    HW211471   4.239   3.137   3.656 -0.7428  1.7564 -0.0481
 2868SOL     MW11472   4.207   3.124   3.736  0.0682  0.5270  0.0977
 2869SOL     OW11473   3.223   2.224   3.680  0.2445  0.0132  0.6146
 2869SOL    HW111474   3.154   2.245   3.617  1.2956 -1.2336 -1.0537
 2869SOL    HW211475   3.184   2.240   3.765 -0.7542  3.3596 -0.3038
 2869SOL     MW11476   3.209   2.229   3.683  0.2516  0.2957  0.2665
 2870SOL     OW11477   4.144   2.545   3.031 -0.2647 -0.1807 -0.3265
 2870SOL    HW111478   4.102   2.467   3.069 -0.9934  0.7010  0.7409
 2870SOL    HW211479   4.111   2.618   3.084 -0.1755  0.9469 -1.7743
 2870SOL     MW11480   4.134   2.544   3.044 -0.3507  0.0897 -0.3777
 2871SOL     OW11481   1.160   1.670   4.958 -0.0582 -0.1192  0.1277
 2871SOL    HW111482   1.219   1.696   5.029  0.0356 -0.6752  0.2573
 2871SOL    HW211483   1.207   1.602   4.911 -0.6145 -0.6011  0.2583
 2871SOL     MW11484   1.174   1.665   4.961 -0.1205 -0.2589  0.1627
 2872SOL     OW11485   1.826   2.125   1.433 -0.2585  0.1392 -0.2731
 2872SOL    HW111486   1.893   2.106   1.366  0.6495  0.8823  0.3894
 2872SOL    HW211487   1.766   2.186   1.390  0.4574  0.8060 -0.3502
 2872SOL     MW11488   1.827   2.131   1.418 -0.0400  0.3289 -0.1943
 2873SOL     OW11489   2.748   4.979   1.750 -0.0438 -0.2084  0.1119
 2873SOL    HW111490   2.775   5.057   1.702 -2.0029  0.4627  0.0099
 2873SOL    HW211491   2.653   4.981   1.747 -0.1549 -2.5303  0.2701
 2873SOL     MW11492   2.739   4.989   1.743 -0.3224 -0.4306  0.1195
 2874SOL     OW11493   0.333   5.288   4.723 -0.0686 -0.5822 -0.0285
 2874SOL    HW111494   0.368   5.283   4.634 -1.4542  0.7782 -0.7136
 2874SOL    HW211495   0.238   5.293   4.711 -0.4171 -2.0417  1.6321
 2874SOL     MW11496   0.325   5.288   4.709 -0.3020 -0.5955  0.1028
 2875SOL     OW11497   0.064   2.293   3.506  0.4946  0.1363  0.6800
 2875SOL    HW111498   0.025   2.229   3.565 -1.4710  0.1060 -0.5864
 2875SOL    HW211499   0.126   2.242   3.453 -1.2333 -0.8347 -0.4863
 2875SOL     MW11500   0.067   2.277   3.507 -0.0025  0.0016  0.3526
 2876SOL     OW11501   4.840   1.005   4.913  0.0666  0.0800 -0.2893
 2876SOL    HW111502   4.842   0.953   4.833 -0.5542  1.2271 -1.0735
 2876SOL    HW211503   4.931   1.032   4.927  0.1995 -0.2472 -0.5133
 2876SOL     MW11504   4.852   1.001   4.904  0.0010  0.1903 -0.4250
 2877SOL     OW11505   5.431   4.756   0.759  0.5151  0.1837  0.6841
 2877SOL    HW111506   5.522   4.739   0.736  0.4162  0.4587  0.0430
 2877SOL    HW211507   5.415   4.845   0.727 -0.5328 -0.5562 -1.0009
 2877SOL     MW11508   5.441   4.766   0.752  0.3608  0.1212  0.3711
 2878SOL     OW11509   1.378   1.834   2.896  0.2091  0.3637 -0.1357
 2878SOL    HW111510   1.429   1.813   2.817 -1.0849  0.4745 -1.0362
 2878SOL    HW211511   1.404   1.768   2.960  0.0441 -0.7746 -1.2127
 2878SOL     MW11512   1.389   1.823   2.894  0.0127  0.2254 -0.4019
 2879SOL     OW11513   1.667   3.113   2.474  0.2443  0.6714 -0.3143
 2879SOL    HW111514   1.603   3.094   2.542  1.6530  0.3092  0.9714
 2879SOL    HW211515   1.616   3.120   2.394 -1.2535 -0.9350  0.4353
 2879SOL     MW11516   1.652   3.111   2.472  0.2323  0.4065 -0.0404
 2880SOL     OW11517   1.027   3.518   4.700 -0.2369 -0.4758 -0.0479
 2880SOL    HW111518   0.983   3.451   4.752 -1.1417  0.7655  0.8623
 2880SOL    HW211519   1.022   3.597   4.754  2.0798  0.0085 -0.4432
 2880SOL     MW11520   1.020   3.520   4.714 -0.0469 -0.2436  0.0214
 2881SOL     OW11521   1.804   4.680   4.424 -0.2210 -0.6485 -0.3779
 2881SOL    HW111522   1.726   4.635   4.458 -0.4494  0.7862  1.1561
 2881SOL    HW211523   1.787   4.689   4.330 -1.2524 -1.6233 -0.3109
 2881SOL     MW11524   1.791   4.675   4.416 -0.3906 -0.5866 -0.1624
 2882SOL     OW11525   4.677   1.647   0.693 -0.0198 -0.1801  0.1138
 2882SOL    HW111526   4.761   1.681   0.722  0.0941  0.1487 -0.5862
 2882SOL    HW211527   4.683   1.646   0.597 -0.7161 -0.3922  0.0667
 2882SOL     MW11528   4.689   1.651   0.684 -0.0982 -0.1644  0.0132
 2883SOL     OW11529   3.714   1.212   5.071  0.0548  0.6269 -0.3341
 2883SOL    HW111530   3.784   1.214   5.005  1.0345  1.0134  0.6959
 2883SOL    HW211531   3.635   1.189   5.021  0.7667  0.9374 -1.6420
 2883SOL     MW11532   3.713   1.209   5.055  0.2825  0.7207 -0.3715
 2884SOL     OW11533   4.219   2.532   0.496 -0.0930 -0.0604  0.3302
 2884SOL    HW111534   4.138   2.517   0.447  0.9695  2.1838 -2.3410
 2884SOL    HW211535   4.205   2.616   0.540  0.6718  0.1959  0.0928
 2884SOL     MW11536   4.206   2.541   0.496  0.1529  0.2761 -0.0612
 2885SOL     OW11537   2.490   3.095   0.509 -0.6278  0.6825 -0.6163
 2885SOL    HW111538   2.468   3.070   0.420  0.9981  0.7873 -1.0739
 2885SOL    HW211539   2.540   3.176   0.500  2.2642 -0.8886  0.0652
 2885SOL     MW11540   2.494   3.102   0.496 -0.0198  0.4851 -0.5862
 2886SOL     OW11541   3.010   1.070   3.543 -0.4100  0.0018  0.6740
 2886SOL    HW111542   3.010   0.988   3.494  2.6412  0.8808 -1.0182
 2886SOL    HW211543   2.999   1.138   3.477 -0.2440  1.0967  1.7305
 2886SOL     MW11544   3.008   1.068   3.528  0.0230  0.2674  0.5884
 2887SOL     OW11545   3.475   5.178   4.723  0.2300  0.4742 -0.1042
 2887SOL    HW111546   3.464   5.111   4.790 -0.6818  1.2746  0.5732
 2887SOL    HW211547   3.559   5.220   4.744 -0.0356  0.7022  0.5352
 2887SOL     MW11548   3.485   5.175   4.735  0.0716  0.6126  0.0731
 2888SOL     OW11549   1.983   2.025   1.009  0.1683  0.1744 -0.3673
 2888SOL    HW111550   2.057   2.042   0.951 -0.4670  2.7094 -0.5464
 2888SOL    HW211551   1.908   2.016   0.951 -0.0458  0.0248 -0.0693
 2888SOL     MW11552   1.983   2.026   0.994  0.0540  0.4955 -0.3513
 2889SOL     OW11553   1.149   0.214   3.715  0.1761  0.2950  0.4408
 2889SOL    HW111554   1.136   0.300   3.675  1.4339  0.8930  1.2147
 2889SOL    HW211555   1.204   0.166   3.652 -3.9645 -1.6633 -2.0949
 2889SOL     MW11556   1.155   0.219   3.701 -0.2119  0.1119  0.2037
 2890SOL     OW11557   1.982   4.326   2.113  0.1840 -0.3809 -0.4775
 2890SOL    HW111558   2.075   4.329   2.135  0.2535 -0.6045 -0.7248
 2890SOL    HW211559   1.975   4.256   2.048  0.0154  0.3541 -1.2700
 2890SOL     MW11560   1.993   4.317   2.107  0.1707 -0.3121 -0.6174
 2891SOL     OW11561   2.040   4.720   5.121  0.1399  0.3112 -0.1233
 2891SOL    HW111562   1.954   4.724   5.080  0.0839  1.5661  0.0699
 2891SOL    HW211563   2.026   4.669   5.201 -0.2104 -0.2874 -0.5559
 2891SOL     MW11564   2.027   4.714   5.126  0.0852  0.3995 -0.1555
 2892SOL     OW11565   1.965   1.190   2.048  0.1530  0.6089  0.2603
 2892SOL    HW111566   1.880   1.209   2.089  0.4675 -0.0348  1.2252
 2892SOL    HW211567   2.008   1.130   2.108  0.4792 -0.6966 -1.1982
 2892SOL     MW11568   1.959   1.185   2.062  0.2392  0.3466  0.1939
 2893SOL     OW11569   4.731   2.154   3.114  0.7570 -0.0730 -0.0327
 2893SOL    HW111570   4.731   2.240   3.157  2.5818 -0.1501  0.2203
 2893SOL    HW211571   4.773   2.170   3.029  0.4693 -0.5997 -0.2814
 2893SOL     MW11572   4.737   2.168   3.108  0.9639 -0.1543 -0.0321
 2894SOL     OW11573   0.998   3.379   2.312  0.1135 -0.3214 -0.1950
 2894SOL    HW111574   0.959   3.303   2.355  1.6072 -1.3388 -0.5757
 2894SOL    HW211575   1.064   3.411   2.373  0.5726 -0.2847 -0.7054
 2894SOL     MW11576   1.001   3.373   2.326  0.3763 -0.4534 -0.3149
 2895SOL     OW11577   0.701   2.287   1.562  0.1504 -0.2871 -0.1685
 2895SOL    HW111578   0.612   2.321   1.570  0.1612 -0.4440  0.7716
 2895SOL    HW211579   0.693   2.211   1.505 -0.0007  0.7785 -1.6371
 2895SOL     MW11580   0.688   2.282   1.555  0.1315 -0.1648 -0.2396
 2896SOL     OW11581   1.402   0.843   4.800 -0.0025 -0.2437 -0.0469
 2896SOL    HW111582   1.416   0.844   4.706 -1.2354  0.6913 -0.2318
 2896SOL    HW211583   1.482   0.882   4.837 -0.1298  0.7550 -0.7951
 2896SOL     MW11584   1.415   0.848   4.793 -0.1856  0.0165 -0.1725
 2897SOL     OW11585   4.281   2.360   1.765  0.1677 -0.1586 -0.1494
 2897SOL    HW111586   4.301   2.369   1.672 -2.0607 -0.3509 -0.7151
 2897SOL    HW211587   4.185   2.364   1.769  0.2423  1.0230  2.2789
 2897SOL     MW11588   4.271   2.362   1.753 -0.1222 -0.0255  0.1012
 2898SOL     OW11589   1.849   3.905   1.070 -0.1032 -0.3213  0.2925
 2898SOL    HW111590   1.822   3.822   1.109  2.0719 -1.6144 -0.8088
 2898SOL    HW211591   1.813   3.972   1.129 -0.8351 -2.0559  1.9049
 2898SOL     MW11592   1.840   3.903   1.083  0.0910 -0.7288  0.3612
 2899SOL     OW11593   2.475   4.987   1.794  0.0966 -0.2262 -0.2941
 2899SOL    HW111594   2.432   4.971   1.710  1.0335 -0.8763 -0.6742
 2899SOL    HW211595   2.453   5.077   1.816 -1.3466 -0.5023 -0.5240
 2899SOL     MW11596   2.467   4.997   1.785  0.0285 -0.3508 -0.3762
 2900SOL     OW11597   3.073   3.819   1.076 -0.7446  0.3980  0.4466
 2900SOL    HW111598   3.166   3.813   1.057 -0.2996  0.8218  2.2543
 2900SOL    HW211599   3.046   3.903   1.038 -0.2074  0.6263  0.5573
 2900SOL     MW11600   3.081   3.830   1.069 -0.6124  0.4857  0.7048
 2901SOL     OW11601   4.440   5.229   4.610 -0.3531 -0.5077  0.2597
 2901SOL    HW111602   4.473   5.292   4.546  0.6870 -0.9389  0.3551
 2901SOL    HW211603   4.393   5.283   4.674 -0.9254 -0.0184 -0.5497
 2901SOL     MW11604   4.438   5.245   4.610 -0.2901 -0.4999  0.1636
 2902SOL     OW11605   4.359   2.868   2.899  0.0946 -0.1399  0.3412
 2902SOL    HW111606   4.448   2.902   2.902 -0.0866  0.3001  1.6537
 2902SOL    HW211607   4.353   2.822   2.815  1.6722 -0.5165  0.4019
 2902SOL     MW11608   4.370   2.866   2.888  0.2825 -0.1314  0.5260
 2903SOL     OW11609   2.385   1.567   4.963  0.0188 -0.2984 -0.3140
 2903SOL    HW111610   2.363   1.476   4.979  1.3515 -0.3989  1.1639
 2903SOL    HW211611   2.481   1.568   4.954  0.0460  0.9609 -0.1348
 2903SOL     MW11612   2.395   1.555   4.964  0.2018 -0.1425 -0.0910
 2904SOL     OW11613   2.814   5.196   1.606 -0.4980 -0.3313  0.0812
 2904SOL    HW111614   2.721   5.201   1.583 -0.1391  0.7810 -1.3184
 2904SOL    HW211615   2.852   5.140   1.539  0.4471  2.3812 -1.8634
 2904SOL     MW11616   2.807   5.189   1.594 -0.3225  0.1834 -0.3689
 2905SOL     OW11617   3.763   3.046   4.879 -0.1862  0.2182  0.4193
 2905SOL    HW111618   3.841   3.088   4.917  1.1470 -1.6826 -0.0660
 2905SOL    HW211619   3.770   2.954   4.905 -2.1144 -0.0718  0.0534
 2905SOL     MW11620   3.775   3.039   4.888 -0.2663 -0.0766  0.3047
 2906SOL     OW11621   3.816   3.376   1.329  0.0616  0.1906  0.1194
 2906SOL    HW111622   3.802   3.296   1.380 -0.0246  0.5914  0.7306
 2906SOL    HW211623   3.795   3.350   1.239  0.2288 -0.5275  0.2781
 2906SOL     MW11624   3.811   3.362   1.324  0.0725  0.1479  0.2230
 2907SOL     OW11625   3.800   5.339   0.245 -0.2145 -0.8225 -0.2118
 2907SOL    HW111626   3.890   5.311   0.262  0.4232  0.8743 -0.6437
 2907SOL    HW211627   3.760   5.346   0.332  0.3965 -0.5728  0.0579
 2907SOL     MW11628   3.807   5.336   0.259 -0.0464 -0.5606 -0.2336
 2908SOL     OW11629   2.273   2.154   3.856  0.2539 -0.1664 -0.8319
 2908SOL    HW111630   2.295   2.099   3.780 -0.9654 -0.0028 -1.3189
 2908SOL    HW211631   2.317   2.111   3.930  1.7225 -0.1544 -1.6565
 2908SOL     MW11632   2.282   2.141   3.856  0.2875 -0.1428 -1.0084
 2909SOL     OW11633   4.526   0.488   4.401 -0.1071  0.4032  0.2655
 2909SOL    HW111634   4.439   0.523   4.417 -0.7015 -1.3607  1.2004
 2909SOL    HW211635   4.580   0.526   4.470 -0.6674 -0.2095  1.0698
 2909SOL     MW11636   4.522   0.498   4.413 -0.2625  0.0833  0.4996
 2910SOL     OW11637   3.711   5.467   2.238  0.2516 -0.2021 -0.1476
 2910SOL    HW111638   3.765   5.452   2.160  0.3688 -0.8941  0.0570
 2910SOL    HW211639   3.671   5.552   2.223  1.2248  0.2253 -0.4093
 2910SOL     MW11640   3.713   5.476   2.225  0.3983 -0.2377 -0.1553
 2911SOL     OW11641   3.246   4.890   4.581  0.0392  0.2120 -0.4119
 2911SOL    HW111642   3.276   4.831   4.513  0.9507  1.3488 -1.0312
 2911SOL    HW211643   3.152   4.874   4.587 -0.2065  0.6101 -2.4705
 2911SOL     MW11644   3.237   4.880   4.573  0.1288  0.4186 -0.7722
 2912SOL     OW11645   0.269   4.945   3.243 -0.1765 -0.5853  0.4491
 2912SOL    HW111646   0.304   4.903   3.322 -0.4755 -0.5840  0.5822
 2912SOL    HW211647   0.292   5.038   3.254  1.0141 -0.7910 -0.1287
 2912SOL     MW11648   0.277   4.952   3.255 -0.0565 -0.6128  0.3893
 2913SOL     OW11649   0.811   5.181   1.076 -0.0620 -0.2732  0.0520
 2913SOL    HW111650   0.815   5.114   1.008  1.3639  0.0367 -0.1829
 2913SOL    HW211651   0.739   5.238   1.049 -0.2143 -0.7722 -0.6179
 2913SOL     MW11652   0.802   5.180   1.063  0.1094 -0.2987 -0.0698
 2914SOL     OW11653   4.880   1.973   5.438  0.0512  0.0481 -0.1315
 2914SOL    HW111654   4.859   1.882   5.418  1.1062  0.2208 -2.2900
 2914SOL    HW211655   4.975   1.975   5.445  0.0669  1.0478 -0.4723
 2914SOL     MW11656   4.890   1.961   5.436  0.1953  0.2059 -0.4679
 2915SOL     OW11657   0.344   0.967   3.053  0.1174 -0.3903 -0.6111
 2915SOL    HW111658   0.411   1.003   3.111 -0.3850 -1.7603  0.9225
 2915SOL    HW211659   0.345   1.023   2.976  0.9236  1.4560  0.6703
 2915SOL     MW11660   0.353   0.979   3.050  0.1583 -0.3262 -0.2322
 2916SOL     OW11661   3.573   3.364   5.256 -0.3805 -0.4190  0.1486
 2916SOL    HW111662   3.543   3.316   5.179 -1.0725 -0.1587  0.2477
 2916SOL    HW211663   3.589   3.297   5.322  2.2884 -0.8798 -0.8375
 2916SOL     MW11664   3.571   3.349   5.254 -0.1144 -0.4460  0.0292
 2917SOL     OW11665   0.815   1.620   0.015 -0.2957  0.0899  0.1628
 2917SOL    HW111666   0.722   1.601   0.015 -0.1347 -0.9068 -1.6404
 2917SOL    HW211667   0.855   1.541   0.052 -0.1276  0.4223  0.7120
 2917SOL     MW11668   0.808   1.606   0.020 -0.2514  0.0005 -0.0060
 2918SOL     OW11669   4.063   4.793   2.985  0.2253  0.6013 -0.6040
 2918SOL    HW111670   4.007   4.721   2.956  0.7745  0.3094 -0.9633
 2918SOL    HW211671   4.031   4.869   2.936 -0.8598  0.7767  0.3565
 2918SOL     MW11672   4.051   4.794   2.974  0.1532  0.5856 -0.5231
 2919SOL     OW11673   3.357   2.721   0.437  0.1300 -0.5112  0.1128
 2919SOL    HW111674   3.431   2.722   0.377  0.6751  1.7545  0.7013
 2919SOL    HW211675   3.281   2.742   0.382  0.6698  1.8755  0.1691
 2919SOL     MW11676   3.357   2.724   0.421  0.2760  0.1149  0.1996
 2920SOL     OW11677   3.555   1.355   0.063  0.7112 -0.6682  0.1755
 2920SOL    HW111678   3.573   1.280   0.006 -0.9465 -0.8840 -0.1267
 2920SOL    HW211679   3.563   1.320   0.152  0.7950 -0.9876  0.0443
 2920SOL     MW11680   3.558   1.340   0.067  0.4994 -0.7402  0.1172
 2921SOL     OW11681   2.925   0.572   1.200  0.1495 -0.2400 -0.0825
 2921SOL    HW111682   2.985   0.544   1.131 -1.1485  0.4487 -1.5429
 2921SOL    HW211683   2.848   0.516   1.189 -0.5821  0.7327 -0.0329
 2921SOL     MW11684   2.923   0.561   1.189 -0.1236 -0.0164 -0.2724
 2922SOL     OW11685   0.304   3.125   4.677  0.1528  0.2494 -0.1688
 2922SOL    HW111686   0.312   3.218   4.656  2.1688  0.2110  0.2386
 2922SOL    HW211687   0.383   3.085   4.640  0.1038 -1.0310  1.0205
 2922SOL     MW11688   0.315   3.132   4.669  0.4175  0.0719  0.0461
 2923SOL     OW11689   3.901   0.117   4.242 -0.1559  0.2873  0.1202
 2923SOL    HW111690   3.890   0.116   4.337 -4.5311 -0.5218 -0.1772
 2923SOL    HW211691   3.826   0.166   4.210  0.3478 -0.7629 -2.9945
 2923SOL     MW11692   3.890   0.124   4.251 -0.6769  0.0371 -0.3390
 2924SOL     OW11693   0.072   1.204   0.125  0.1771  0.3689 -0.6096
 2924SOL    HW111694  -0.010   1.158   0.140  0.4646  0.4676  1.6114
 2924SOL    HW211695   0.139   1.136   0.126  0.1567  0.2799 -2.4850
 2924SOL     MW11696   0.070   1.189   0.127  0.2130  0.3702 -0.5631
 2925SOL     OW11697   2.022   0.582   4.310  0.0535  0.2369  0.0332
 2925SOL    HW111698   2.065   0.518   4.255  0.6429  1.9420 -1.6012
 2925SOL    HW211699   2.085   0.654   4.316 -0.7339  0.8335  1.4729
 2925SOL     MW11700   2.036   0.583   4.303  0.0269  0.5466  0.0070
 2926SOL     OW11701   4.629   1.751   4.205 -0.0354 -0.4597 -0.5949
 2926SOL    HW111702   4.609   1.676   4.149  0.7056 -1.7899  0.8330
 2926SOL    HW211703   4.724   1.759   4.199  0.2015 -1.3600  1.2908
 2926SOL     MW11704   4.639   1.742   4.196  0.0962 -0.7599 -0.1490
 2927SOL     OW11705   0.475   0.865   5.209  0.0145 -0.7450 -0.3832
 2927SOL    HW111706   0.496   0.890   5.119 -0.4771 -1.3364 -0.6742
 2927SOL    HW211707   0.427   0.782   5.200  1.1320 -1.5219  0.4966
 2927SOL     MW11708   0.471   0.857   5.195  0.0987 -0.9291 -0.3039
 2928SOL     OW11709   1.573   1.679   1.664 -0.0815  0.1399 -0.7304
 2928SOL    HW111710   1.535   1.685   1.752  2.0297 -1.3397  0.3667
 2928SOL    HW211711   1.620   1.762   1.652 -1.0772  0.7002 -0.8452
 2928SOL     MW11712   1.574   1.691   1.674  0.0686  0.0162 -0.5982
 2929SOL     OW11713   3.994   2.452   0.322 -0.3898  0.2789 -0.6682
 2929SOL    HW111714   3.992   2.401   0.241 -0.7653 -1.4788  0.3871
 2929SOL    HW211715   3.902   2.472   0.339 -0.3567  0.2407 -0.4423
 2929SOL     MW11716   3.981   2.448   0.313 -0.4359  0.0372 -0.4958
 2930SOL     OW11717   2.020   4.170   4.050  0.4630 -0.1440 -0.5484
 2930SOL    HW111718   1.983   4.259   4.049  1.3679  0.2588  0.1384
 2930SOL    HW211719   1.986   4.131   4.130  0.0376 -0.4398 -0.8679
 2930SOL     MW11720   2.010   4.177   4.061  0.5275 -0.1296 -0.4989
 2931SOL     OW11721   1.568   1.732   5.330  0.7603 -0.4905  0.0791
 2931SOL    HW111722   1.508   1.711   5.258  0.9787 -0.7161 -0.0386
 2931SOL    HW211723   1.635   1.663   5.325  1.1416 -0.1190  0.0797
 2931SOL     MW11724   1.569   1.720   5.319  0.8410 -0.4709  0.0634
 2932SOL     OW11725   2.261   4.057   5.158  0.3118  0.7265  0.1904
 2932SOL    HW111726   2.174   4.025   5.184  1.1110 -0.8978  1.0753
 2932SOL    HW211727   2.262   4.148   5.186 -1.4318  1.0489 -0.6960
 2932SOL     MW11728   2.250   4.065   5.165  0.1847  0.5513  0.1902
 2933SOL     OW11729   1.735   3.262   4.060 -0.3693  0.0007 -0.0578
 2933SOL    HW111730   1.830   3.263   4.051 -0.2959  0.1288  0.6612
 2933SOL    HW211731   1.709   3.354   4.050 -0.1378  0.3790  2.3294
 2933SOL     MW11732   1.744   3.275   4.057 -0.3283  0.0689  0.3602
 2934SOL     OW11733   0.156   4.367   2.638 -0.3792  0.1707  0.6733
 2934SOL    HW111734   0.250   4.385   2.640 -0.4294  0.5356  0.0381
 2934SOL    HW211735   0.144   4.311   2.561 -0.8435  1.1304  0.0244
 2934SOL     MW11736   0.167   4.362   2.628 -0.4484  0.3490  0.5005
 2935SOL     OW11737   2.832   1.070   0.973  0.0494  0.1313  0.2528
 2935SOL    HW111738   2.917   1.098   0.940 -0.0238 -0.6034 -0.5988
 2935SOL    HW211739   2.852   0.996   1.031 -0.0402 -0.4430 -0.4312
 2935SOL     MW11740   2.846   1.064   0.976  0.0275 -0.0449  0.0461
 2936SOL     OW11741   2.407   3.073   1.715  0.4542  0.3016 -0.1194
 2936SOL    HW111742   2.403   3.165   1.741 -0.1801  0.0000  0.9595
 2936SOL    HW211743   2.330   3.060   1.660 -0.8350 -0.0987  1.6706
 2936SOL     MW11744   2.396   3.083   1.711  0.1954  0.2072  0.2667
 2937SOL     OW11745   0.994   5.148   2.682 -0.1443 -0.0032  0.1968
 2937SOL    HW111746   1.017   5.206   2.755 -0.3497 -0.6708  0.8050
 2937SOL    HW211747   0.960   5.068   2.724 -0.6519 -0.2415 -0.6355
 2937SOL     MW11748   0.993   5.145   2.697 -0.2402 -0.1251  0.1666
 2938SOL     OW11749   0.388   5.036   1.446 -0.0327  0.5375  0.0190
 2938SOL    HW111750   0.378   5.123   1.486 -0.7637  0.6018 -0.2927
 2938SOL    HW211751   0.303   4.994   1.459  0.1347  0.0848 -0.3432
 2938SOL     MW11752   0.375   5.042   1.453 -0.1086  0.4852 -0.0717
 2939SOL     OW11753   4.299   2.510   3.475  0.3062  0.8451 -0.0627
 2939SOL    HW111754   4.292   2.437   3.414 -0.4320 -0.0174  1.0100
 2939SOL    HW211755   4.217   2.558   3.467  0.9741  1.8700 -1.1040
 2939SOL     MW11756   4.287   2.507   3.466  0.2968  0.8669 -0.0585
 2940SOL     OW11757   1.696   1.004   0.837  0.2856  0.1167 -0.2256
 2940SOL    HW111758   1.607   0.971   0.847 -0.1446  0.9638 -1.0335
 2940SOL    HW211759   1.752   0.928   0.849 -0.4753 -0.2197  1.4333
 2940SOL     MW11760   1.692   0.990   0.840  0.1253  0.1854 -0.1111
 2941SOL     OW11761   0.180   0.884   1.827  0.0404 -0.8946  0.4849
 2941SOL    HW111762   0.092   0.853   1.844 -0.3626 -0.9057 -1.4064
 2941SOL    HW211763   0.170   0.978   1.813  0.3650 -0.8587  0.4871
 2941SOL     MW11764   0.167   0.893   1.827  0.0298 -0.8913  0.2307
 2942SOL     OW11765   3.884   4.798   1.155  0.2905 -0.5848 -0.3724
 2942SOL    HW111766   3.906   4.741   1.229 -0.8682 -0.7220 -0.1076
 2942SOL    HW211767   3.947   4.870   1.160 -0.2965 -0.1446  1.2739
 2942SOL     MW11768   3.895   4.800   1.166  0.0556 -0.5440 -0.1152
 2943SOL     OW11769   5.203   3.457   4.292  0.2016  0.3731 -0.2371
 2943SOL    HW111770   5.191   3.362   4.285  0.7260  0.2030  1.0018
 2943SOL    HW211771   5.116   3.490   4.315  0.0298  0.1918 -0.6113
 2943SOL     MW11772   5.190   3.449   4.294  0.2491  0.3258 -0.1207
 2944SOL     OW11773   2.428   1.917   5.312 -0.2664  0.0532  0.2613
 2944SOL    HW111774   2.433   1.851   5.382  0.0511 -1.2782 -0.9725
 2944SOL    HW211775   2.379   1.874   5.242  0.4001  0.9539 -0.7878
 2944SOL     MW11776   2.422   1.902   5.312 -0.1340 -0.0047 -0.0459
 2945SOL     OW11777   1.924   0.876   1.201 -0.5670 -0.6566  0.0091
 2945SOL    HW111778   1.884   0.937   1.263 -1.0548 -0.6117 -0.3452
 2945SOL    HW211779   2.017   0.898   1.202 -0.7885  0.3635 -0.4029
 2945SOL     MW11780   1.931   0.887   1.209 -0.6624 -0.5133 -0.0941
 2946SOL     OW11781   0.829   4.019   1.762 -0.1480  0.0120 -0.5940
 2946SOL    HW111782   0.906   4.069   1.787  0.1007 -0.0219 -1.2722
 2946SOL    HW211783   0.783   4.075   1.698  0.0632 -0.5519 -1.2558
 2946SOL     MW11784   0.833   4.033   1.757 -0.0861 -0.0684 -0.7743
 2947SOL     OW11785   1.659   2.181   2.984  0.2627 -0.0958  0.1399
 2947SOL    HW111786   1.703   2.096   2.985 -0.8428 -0.6931 -0.4783
 2947SOL    HW211787   1.665   2.210   2.892 -1.8674 -0.8749 -0.2918
 2947SOL     MW11788   1.666   2.174   2.971 -0.1728 -0.2811 -0.0014
 2948SOL     OW11789   1.271   0.725   0.233 -0.4556  0.0279 -0.4810
 2948SOL    HW111790   1.309   0.719   0.321 -1.9964  0.8100  0.2792
 2948SOL    HW211791   1.287   0.640   0.194  2.0527  0.3116 -0.2348
 2948SOL     MW11792   1.279   0.713   0.240 -0.3254  0.1713 -0.3456
 2949SOL     OW11793   2.146   1.161   0.854  0.1955  0.1758  0.1686
 2949SOL    HW111794   2.115   1.234   0.908  0.7982  0.8724 -0.4098
 2949SOL    HW211795   2.201   1.202   0.788 -1.2281 -0.5538 -1.5417
 2949SOL     MW11796   2.149   1.177   0.852  0.0850  0.1713 -0.1394
 2950SOL     OW11797   4.400   4.018   1.434 -0.1941 -0.5461  0.1372
 2950SOL    HW111798   4.379   3.939   1.384 -1.0011 -0.2163 -0.0787
 2950SOL    HW211799   4.494   4.031   1.421 -0.3586 -0.5226 -1.2522
 2950SOL     MW11800   4.409   4.009   1.426 -0.3248 -0.4985 -0.0788
 2951SOL     OW11801   4.283   1.883   3.158  0.1326 -0.4392 -0.5129
 2951SOL    HW111802   4.281   1.929   3.074  2.1722 -0.5964 -0.7164
 2951SOL    HW211803   4.313   1.794   3.136 -0.9663 -1.0059  0.1994
 2951SOL     MW11804   4.287   1.877   3.144  0.2592 -0.5366 -0.4444
 2952SOL     OW11805   4.818   4.455   3.259 -0.4724 -0.3656 -0.0712
 2952SOL    HW111806   4.865   4.470   3.177 -2.1331 -0.6306 -1.1257
 2952SOL    HW211807   4.835   4.363   3.280 -0.5212 -0.4562 -0.4295
 2952SOL     MW11808   4.827   4.444   3.251 -0.7024 -0.4135 -0.2613
 2953SOL     OW11809   0.427   2.377   3.787  0.2366  0.4205  0.0567
 2953SOL    HW111810   0.506   2.392   3.735  0.7292 -1.2449  0.2695
 2953SOL    HW211811   0.363   2.438   3.751  0.6447 -0.4380 -2.3213
 2953SOL     MW11812   0.429   2.387   3.775  0.3578  0.0808 -0.2347
 2954SOL     OW11813   4.314   3.451   0.478 -0.3888  0.5132  0.3367
 2954SOL    HW111814   4.223   3.478   0.464 -0.1546  0.3170 -1.8486
 2954SOL    HW211815   4.366   3.528   0.454  0.0677  0.1150  0.0407
 2954SOL     MW11816   4.309   3.465   0.473 -0.2958  0.4332  0.0028
 2955SOL     OW11817   5.398   0.098   5.452  0.1907  0.2566 -0.0512
 2955SOL    HW111818   5.462   0.073   5.519  0.8158  0.2487 -0.6411
 2955SOL    HW211819   5.404   0.030   5.385  0.1986  0.7211 -0.5327
 2955SOL     MW11820   5.407   0.086   5.452  0.2759  0.3181 -0.1954
 2956SOL     OW11821   2.914   5.162   5.149  0.2505 -0.2324 -0.4214
 2956SOL    HW111822   2.899   5.083   5.097  0.3362  0.3406 -1.3424
 2956SOL    HW211823   3.002   5.191   5.123  0.5964 -0.3404  0.5957
 2956SOL     MW11824   2.924   5.155   5.138  0.3086 -0.1698 -0.4085
 2957SOL     OW11825   3.432   2.369   1.045  0.1262 -0.2211 -0.1967
 2957SOL    HW111826   3.342   2.358   1.014  0.2598 -2.3195  0.0397
 2957SOL    HW211827   3.481   2.297   1.005  1.2767 -0.2914  1.2396
 2957SOL     MW11828   3.426   2.358   1.036  0.2990 -0.5130  0.0284
 2958SOL     OW11829   3.317   0.197   5.090  0.2890 -0.0023 -0.5184
 2958SOL    HW111830   3.309   0.130   5.158 -0.9475  0.0988 -0.5453
 2958SOL    HW211831   3.374   0.157   5.024  1.1496 -0.2661  0.3608
 2958SOL     MW11832   3.323   0.183   5.090  0.2385 -0.0242 -0.4037
 2959SOL     OW11833   1.344   5.117   3.848 -0.2574 -0.6013 -0.1067
 2959SOL    HW111834   1.267   5.172   3.861 -0.0406 -0.5781  1.2311
 2959SOL    HW211835   1.308   5.030   3.829 -0.6022 -0.3393 -0.6794
 2959SOL     MW11836   1.328   5.113   3.847 -0.2746 -0.5629 -0.0037
 2960SOL     OW11837   4.095   2.837   1.587 -0.1384  0.7836 -0.1219
 2960SOL    HW111838   4.138   2.770   1.641 -0.1308  0.2856 -0.7330
 2960SOL    HW211839   4.002   2.814   1.590 -0.1231  0.6704 -0.4241
 2960SOL     MW11840   4.088   2.825   1.595 -0.1353  0.7013 -0.2448
 2961SOL     OW11841   2.962   4.329   2.043  0.1442  0.1897  0.0817
 2961SOL    HW111842   2.877   4.355   2.079  0.0723 -0.4166  0.3655
 2961SOL    HW211843   2.942   4.256   1.985  0.4891 -0.0467  0.2577
 2961SOL     MW11844   2.948   4.323   2.040  0.1809  0.0763  0.1436
 2962SOL     OW11845   4.336   2.014   5.357  0.5312  0.0688  0.2886
 2962SOL    HW111846   4.389   2.022   5.277 -1.5860 -0.2976 -1.2540
 2962SOL    HW211847   4.248   2.041   5.330 -0.0666  0.9372  2.8009
 2962SOL     MW11848   4.331   2.019   5.342  0.1658  0.1364  0.4191
 2963SOL     OW11849   2.382   4.119   4.476 -0.2464  0.1310 -0.1911
 2963SOL    HW111850   2.296   4.076   4.481 -0.3272 -0.0250 -2.0936
 2963SOL    HW211851   2.384   4.157   4.388  2.0107 -0.7200 -0.5640
 2963SOL     MW11852   2.370   4.118   4.465  0.0465 -0.0045 -0.4973
 2964SOL     OW11853   2.497   1.558   3.091 -0.1672 -0.1736 -0.5329
 2964SOL    HW111854   2.549   1.524   3.019  2.5544 -0.9180  1.6096
 2964SOL    HW211855   2.488   1.483   3.151  3.0661  1.7103  2.7269
 2964SOL     MW11856   2.502   1.543   3.089  0.6342 -0.0203  0.1941
 2965SOL     OW11857   2.597   2.904   1.176 -0.3012  0.3152  0.2212
 2965SOL    HW111858   2.649   2.824   1.186 -0.8212 -0.2119 -1.0720
 2965SOL    HW211859   2.555   2.916   1.261 -0.8736 -1.2649  0.1961
 2965SOL     MW11860   2.599   2.895   1.189 -0.4482  0.0316  0.0438
 2966SOL     OW11861   1.492   1.885   4.961 -0.5328 -0.0128 -0.0171
 2966SOL    HW111862   1.425   1.891   4.893 -1.4899  0.1512  0.9040
 2966SOL    HW211863   1.449   1.917   5.040 -0.1053 -2.0345  1.1198
 2966SOL     MW11864   1.477   1.890   4.962 -0.6041 -0.2628  0.2599
 2967SOL     OW11865   2.225   2.073   5.443  0.1215  0.5625 -0.2818
 2967SOL    HW111866   2.176   2.142   5.399  0.2130  0.1427 -1.0766
 2967SOL    HW211867   2.282   2.037   5.374  0.0831 -0.2889  0.1170
 2967SOL     MW11868   2.226   2.077   5.427  0.1287  0.3914 -0.3351
 2968SOL     OW11869   0.114   3.050   1.403  0.3130  0.2203 -0.2059
 2968SOL    HW111870   0.167   2.991   1.350  1.0166 -0.3818  1.1385
 2968SOL    HW211871   0.037   2.998   1.428  0.3638  0.2510  0.0148
 2968SOL     MW11872   0.111   3.035   1.399  0.4145  0.1434  0.0047
 2969SOL     OW11873   3.932   4.463   5.366  0.2949 -0.3943 -0.2579
 2969SOL    HW111874   3.973   4.404   5.303  1.7703 -0.3745  0.6532
 2969SOL    HW211875   3.844   4.427   5.379  1.2531 -2.5989  0.4975
 2969SOL     MW11876   3.925   4.450   5.359  0.6224 -0.6883 -0.0336
 2970SOL     OW11877   4.518   1.638   4.460 -0.5337 -0.3234 -0.8836
 2970SOL    HW111878   4.457   1.567   4.442  1.3358 -2.0552 -0.7593
 2970SOL    HW211879   4.546   1.669   4.374 -0.8724 -0.1569 -0.9357
 2970SOL     MW11880   4.513   1.633   4.446 -0.3277 -0.5340 -0.8739
 2971SOL     OW11881   5.125   5.295   4.225 -0.0825 -0.3670 -0.6711
 2971SOL    HW111882   5.134   5.200   4.233 -0.0295 -0.3139 -0.0786
 2971SOL    HW211883   5.195   5.331   4.278 -0.5770  0.0072 -0.2576
 2971SOL     MW11884   5.135   5.287   4.233 -0.1420 -0.3095 -0.5357
 2972SOL     OW11885   4.253   3.875   4.580  0.0300  1.1777  0.1888
 2972SOL    HW111886   4.268   3.807   4.646  0.8368  0.6726 -0.5056
 2972SOL    HW211887   4.321   3.940   4.596  0.9040  0.5309 -0.8143
 2972SOL     MW11888   4.264   3.875   4.591  0.2562  1.0226 -0.0396
 2973SOL     OW11889   4.471   3.991   3.611 -0.0188 -0.1971 -0.8410
 2973SOL    HW111890   4.547   3.975   3.555 -0.6132  0.1406 -1.7663
 2973SOL    HW211891   4.403   4.022   3.552  0.1022  2.7421  0.3772
 2973SOL     MW11892   4.472   3.993   3.596 -0.0825  0.2439 -0.8016
 2974SOL     OW11893   4.784   4.994   5.097 -0.4358 -0.3930  0.0891
 2974SOL    HW111894   4.711   5.006   5.158  0.7650  1.0944  1.3243
 2974SOL    HW211895   4.764   5.055   5.025 -2.1192 -2.5242 -1.3894
 2974SOL     MW11896   4.771   5.004   5.095 -0.5008 -0.4796  0.0564
 2975SOL     OW11897   5.113   1.416   4.437  0.0810  0.6179  0.3276
 2975SOL    HW111898   5.147   1.382   4.354  1.9093  1.8866  0.4846
 2975SOL    HW211899   5.021   1.436   4.419 -0.0840 -0.9613 -0.7813
 2975SOL     MW11900   5.105   1.414   4.423  0.3049  0.5761  0.1995
 2976SOL     OW11901   3.639   0.908   1.901 -0.3840  0.6546 -0.4787
 2976SOL    HW111902   3.664   0.992   1.864  0.4062  1.2521  1.2841
 2976SOL    HW211903   3.548   0.895   1.874 -1.1256  2.9479  0.6437
 2976SOL     MW11904   3.630   0.917   1.893 -0.3775  1.0437 -0.0904
 2977SOL     OW11905   1.063   0.159   2.013 -0.2530  0.0017  0.2371
 2977SOL    HW111906   1.008   0.087   2.045  1.2602 -0.6088  1.6237
 2977SOL    HW211907   1.134   0.116   1.965 -0.2723  0.6977 -0.4415
 2977SOL     MW11908   1.065   0.143   2.011 -0.0520  0.0132  0.3324
 2978SOL     OW11909   3.312   0.840   2.071 -0.1249  0.2071  0.2998
 2978SOL    HW111910   3.363   0.830   2.151  0.6547 -0.0101 -0.2136
 2978SOL    HW211911   3.330   0.929   2.042 -0.3471  0.2607  0.3249
 2978SOL     MW11912   3.321   0.850   2.077 -0.0499  0.1851  0.2341
 2979SOL     OW11913   4.889   3.675   3.629 -0.2189 -0.0700  0.3674
 2979SOL    HW111914   4.806   3.650   3.671  0.1177 -0.9185  0.5420
 2979SOL    HW211915   4.952   3.677   3.700  0.3154 -1.3294 -0.0520
 2979SOL     MW11916   4.886   3.672   3.644 -0.1017 -0.3537  0.3345
 2980SOL     OW11917   0.849   1.291   2.526 -0.2032  0.2625  0.6825
 2980SOL    HW111918   0.857   1.383   2.553 -0.9624  0.8217 -0.8595
 2980SOL    HW211919   0.755   1.274   2.527 -0.5407  0.9724 -3.3514
 2980SOL     MW11920   0.837   1.301   2.530 -0.3508  0.4333 -0.0679
 2981SOL     OW11921   2.397   4.612   0.380  0.2366 -0.1320 -0.2617
 2981SOL    HW111922   2.456   4.679   0.347  0.5138 -0.5227 -0.5610
 2981SOL    HW211923   2.384   4.635   0.472  0.7085  0.0554 -0.2421
 2981SOL     MW11924   2.403   4.624   0.388  0.3374 -0.1593 -0.2994
 2982SOL     OW11925   1.417   4.701   3.661 -0.0686 -0.2443 -0.4076
 2982SOL    HW111926   1.476   4.777   3.659  0.5777 -0.7056  0.3724
 2982SOL    HW211927   1.395   4.685   3.569 -0.2293  0.8859 -0.5922
 2982SOL     MW11928   1.422   4.709   3.649 -0.0033 -0.1543 -0.3275
 2983SOL     OW11929   5.110   0.179   3.590  0.2755 -0.1620 -0.0271
 2983SOL    HW111930   5.094   0.157   3.682  0.6131  1.3611  0.4257
 2983SOL    HW211931   5.201   0.153   3.574  0.3167 -0.1367  0.1638
 2983SOL     MW11932   5.120   0.173   3.600  0.3265  0.0464  0.0596
 2984SOL     OW11933   1.330   0.704   1.504  0.1562 -0.2535  0.5160
 2984SOL    HW111934   1.347   0.793   1.474  0.3354 -0.0088  1.3399
 2984SOL    HW211935   1.249   0.710   1.554  0.4891 -0.4409  1.0817
 2984SOL     MW11936   1.322   0.717   1.506  0.2251 -0.2458  0.7030
 2985SOL     OW11937   1.949   5.068   4.073  0.1162 -0.3550  0.1169
 2985SOL    HW111938   1.865   5.115   4.067  0.1068 -0.3262  0.4377
 2985SOL    HW211939   2.010   5.121   4.022 -0.3504 -1.0625 -1.2312
 2985SOL     MW11940   1.946   5.082   4.065  0.0522 -0.4464 -0.0213
 2986SOL     OW11941   1.029   5.342   3.579 -0.0055 -0.3481  0.4092
 2986SOL    HW111942   1.023   5.384   3.493 -0.5764  0.8165  0.9950
 2986SOL    HW211943   0.955   5.282   3.582 -0.5321  0.2893  0.4325
 2986SOL     MW11944   1.019   5.340   3.568 -0.1532 -0.1056  0.4912
 2987SOL     OW11945   2.414   4.207   1.260  0.7603 -0.2044 -0.5699
 2987SOL    HW111946   2.508   4.202   1.248  0.8632  0.0735  0.0949
 2987SOL    HW211947   2.395   4.300   1.267  0.5994 -0.3067  0.5059
 2987SOL     MW11948   2.424   4.219   1.259  0.7525 -0.1807 -0.3357
 2988SOL     OW11949   3.483   0.414   3.331 -0.2208  0.5499  0.4103
 2988SOL    HW111950   3.447   0.325   3.326 -0.3657  0.6913 -1.4453
 2988SOL    HW211951   3.577   0.403   3.313 -0.2648  0.7842  0.0333
 2988SOL     MW11952   3.491   0.400   3.328 -0.2463  0.6005  0.1099
 2989SOL     OW11953   3.809   3.920   2.064  0.2883 -0.6444  0.0209
 2989SOL    HW111954   3.754   3.916   1.986  0.9877 -1.7898 -0.4409
 2989SOL    HW211955   3.749   3.907   2.137 -0.2900 -0.1662 -0.3639
 2989SOL     MW11956   3.794   3.918   2.064  0.3046 -0.7342 -0.0930
 2990SOL     OW11957   2.887   4.329   0.657  0.5232  0.1568 -0.1558
 2990SOL    HW111958   2.868   4.422   0.653 -2.6617 -0.3766 -0.0459
 2990SOL    HW211959   2.939   4.311   0.579 -0.6329  1.6966 -1.3359
 2990SOL     MW11960   2.891   4.339   0.646 -0.0610  0.2922 -0.2999
 2991SOL     OW11961   1.156   0.007   4.460 -0.2466  0.1472 -0.7995
 2991SOL    HW111962   1.238   0.031   4.416 -0.1601  0.0707 -0.6802
 2991SOL    HW211963   1.158   0.056   4.542 -0.7414  0.8513 -1.1936
 2991SOL     MW11964   1.168   0.017   4.465 -0.3015  0.2317 -0.8365
 2992SOL     OW11965   4.991   4.353   2.400 -0.2907  0.1398 -0.1128
 2992SOL    HW111966   5.053   4.384   2.465  1.1184 -2.1063 -0.2509
 2992SOL    HW211967   4.990   4.421   2.333  0.5679  1.0845  0.7995
 2992SOL     MW11968   4.999   4.366   2.400  0.0145 -0.0354 -0.0086
 2993SOL     OW11969   5.500   1.187   2.117  0.4814  0.3433 -0.1304
 2993SOL    HW111970   5.458   1.272   2.130 -1.0860 -0.6199  1.6996
 2993SOL    HW211971   5.434   1.134   2.073  0.3451 -0.6916  1.2390
 2993SOL     MW11972   5.485   1.191   2.113  0.2521  0.0744  0.3002
 2994SOL     OW11973   0.704   1.104   5.177  0.6093  0.3218 -0.5611
 2994SOL    HW111974   0.645   1.081   5.105  0.7723  1.0029 -0.9106
 2994SOL    HW211975   0.753   1.023   5.194 -1.1011 -0.5676  0.4058
 2994SOL     MW11976   0.702   1.090   5.170  0.4010  0.2938 -0.4780
 2995SOL     OW11977   1.718   4.413   4.572 -0.0576  0.2407 -0.1401
 2995SOL    HW111978   1.684   4.388   4.658 -0.8230 -0.7055 -0.7004
 2995SOL    HW211979   1.809   4.383   4.574 -0.7332 -2.0501 -0.5080
 2995SOL     MW11980   1.726   4.406   4.584 -0.2515 -0.1949 -0.2650
 2996SOL     OW11981   4.401   2.977   4.798  0.3699  0.2962  0.7019
 2996SOL    HW111982   4.348   2.946   4.871 -0.3640  0.9586  0.4657
 2996SOL    HW211983   4.481   2.926   4.803 -0.1718 -0.5174  1.2460
 2996SOL     MW11984   4.404   2.966   4.808  0.1982  0.2758  0.7433
 2997SOL     OW11985   0.461   3.467   4.790 -0.1708  0.5044  0.3116
 2997SOL    HW111986   0.391   3.531   4.807 -1.9213 -1.3094  0.2445
 2997SOL    HW211987   0.454   3.405   4.862  0.6985 -0.2859 -0.2679
 2997SOL     MW11988   0.450   3.467   4.802 -0.2894  0.1540  0.2246
 2998SOL     OW11989   1.268   2.440   1.058  0.1286  0.2601  0.1997
 2998SOL    HW111990   1.337   2.376   1.077  0.6736  0.7651 -0.0532
 2998SOL    HW211991   1.283   2.510   1.121 -1.0080 -0.2346  1.0736
 2998SOL     MW11992   1.279   2.441   1.069  0.0490  0.2615  0.2833
 2999SOL     OW11993   4.591   5.399   5.303 -0.2147  0.2816  0.2192
 2999SOL    HW111994   4.630   5.370   5.386  2.0539  1.2957 -0.4291
 2999SOL    HW211995   4.573   5.492   5.316  1.4111  0.7742 -0.8280
 2999SOL     MW11996   4.594   5.407   5.316  0.3094  0.4844 -0.0090
 3000SOL     OW11997   3.224   3.942   5.111 -0.4654 -0.6366 -0.4677
 3000SOL    HW111998   3.315   3.917   5.122 -0.5823 -0.7457  0.2724
 3000SOL    HW211999   3.223   3.994   5.030  0.3798  0.0209 -0.0647
 3000SOL     MW12000   3.236   3.946   5.101 -0.3674 -0.5628 -0.3139
 3001SOL     OW12001   3.598   4.262   0.843 -0.3708  0.3113  0.0059
 3001SOL    HW112002   3.605   4.168   0.858 -0.5515  0.3500  0.3416
 3001SOL    HW212003   3.595   4.300   0.931 -0.8583  0.5883 -0.1273
 3001SOL     MW12004   3.598   4.255   0.857 -0.4607  0.3538  0.0332
 3002SOL     OW12005   4.838   3.194   5.013 -0.1561  0.0644 -0.0051
 3002SOL    HW112006   4.930   3.170   5.023 -0.0720  0.1210 -0.5848
 3002SOL    HW212007   4.830   3.220   4.921 -0.6107  0.6742  0.2043
 3002SOL     MW12008   4.849   3.194   5.002 -0.2060  0.1541 -0.0549
 3003SOL     OW12009   0.496   0.148   3.642 -0.1231  1.0203  0.0946
 3003SOL    HW112010   0.565   0.132   3.707  0.7332  2.5850 -0.3693
 3003SOL    HW212011   0.527   0.104   3.563 -0.1283  0.9162  0.1499
 3003SOL     MW12012   0.510   0.140   3.640 -0.0086  1.2169  0.0396
 3004SOL     OW12013   3.559   3.087   3.637  0.4183 -0.2740 -0.1801
 3004SOL    HW112014   3.495   3.153   3.664 -0.3908 -0.5364 -1.3870
 3004SOL    HW212015   3.507   3.011   3.613  1.0871 -0.2597 -1.8479
 3004SOL     MW12016   3.544   3.086   3.637  0.3994 -0.3074 -0.5670
 3005SOL     OW12017   4.955   1.125   3.621 -0.3408  0.0252 -0.0929
 3005SOL    HW112018   5.016   1.158   3.687  0.2772  0.3616 -0.8124
 3005SOL    HW212019   4.988   1.039   3.598 -0.8402 -0.2988  0.3872
 3005SOL     MW12020   4.968   1.118   3.627 -0.3249  0.0268 -0.1251
 3006SOL     OW12021   2.139   2.375   3.369 -0.3498 -0.3926 -0.0235
 3006SOL    HW112022   2.200   2.433   3.323 -0.7731  0.6505  0.6873
 3006SOL    HW212023   2.054   2.420   3.364 -1.1665 -1.9864 -1.3041
 3006SOL     MW12024   2.136   2.389   3.362 -0.5167 -0.4667 -0.1002
 3007SOL     OW12025   4.664   2.260   2.471 -0.6455  0.0225 -0.1057
 3007SOL    HW112026   4.654   2.184   2.528 -1.7526  0.9321  0.9593
 3007SOL    HW212027   4.710   2.226   2.393 -1.2536 -1.7467  0.2715
 3007SOL     MW12028   4.669   2.245   2.468 -0.8763 -0.0932  0.0884
 3008SOL     OW12029   3.520   4.400   1.076 -0.2265 -0.1090  0.2096
 3008SOL    HW112030   3.547   4.354   1.155 -0.3628 -2.7428 -1.1740
 3008SOL    HW212031   3.428   4.377   1.065 -0.4519  0.9468 -0.2719
 3008SOL     MW12032   3.511   4.391   1.085 -0.2752 -0.3214 -0.0414
 3009SOL     OW12033   4.788   0.496   0.695 -0.5563  0.4000  0.1012
 3009SOL    HW112034   4.714   0.554   0.713 -0.1978  0.3328  1.9469
 3009SOL    HW212035   4.852   0.516   0.763  1.4014  0.8383 -1.7808
 3009SOL     MW12036   4.787   0.506   0.706 -0.2446  0.4499  0.0963
 3010SOL     OW12037   3.970   4.345   0.125 -0.0062 -0.4898 -0.0585
 3010SOL    HW112038   4.060   4.372   0.143 -0.5519  1.2425  0.2357
 3010SOL    HW212039   3.951   4.380   0.038 -1.3564  1.8762  1.0969
 3010SOL     MW12040   3.979   4.353   0.115 -0.2614  0.0618  0.1366
 3011SOL     OW12041   1.453   4.424   3.195 -0.3515 -0.4635 -0.0295
 3011SOL    HW112042   1.454   4.359   3.265 -1.3752 -0.5289 -0.0517
 3011SOL    HW212043   1.375   4.402   3.143 -0.6856  0.7244 -0.0784
 3011SOL     MW12044   1.442   4.413   3.197 -0.5342 -0.3124 -0.0391
 3012SOL     OW12045   1.069   3.104   3.129 -0.1383 -0.2361  0.1792
 3012SOL    HW112046   1.000   3.135   3.186 -0.9093 -0.9239 -0.3444
 3012SOL    HW212047   1.048   3.011   3.115  1.6647 -0.8248  1.1201
 3012SOL     MW12048   1.057   3.095   3.135  0.0006 -0.4079  0.2354
 3013SOL     OW12049   3.594   2.841   4.217  0.2596  0.0447 -0.7233
 3013SOL    HW112050   3.565   2.781   4.149 -0.8158  0.5220 -0.7151
 3013SOL    HW212051   3.689   2.830   4.221  0.0694 -1.8589 -0.5104
 3013SOL     MW12052   3.603   2.832   4.209  0.0893 -0.1473 -0.6936
 3014SOL     OW12053   4.273   4.052   3.414  0.2324 -0.2633  0.1089
 3014SOL    HW112054   4.199   3.996   3.391  0.7029 -1.4392  1.3408
 3014SOL    HW212055   4.327   4.054   3.335 -1.4071  1.2014 -1.0626
 3014SOL     MW12056   4.270   4.045   3.401  0.0751 -0.2244  0.1170
 3015SOL     OW12057   1.500   3.678   4.407  0.1206  0.3395  0.2013
 3015SOL    HW112058   1.567   3.614   4.431 -1.0671 -1.8544 -1.9048
 3015SOL    HW212059   1.460   3.703   4.491  1.1404 -1.1032  1.1653
 3015SOL     MW12060   1.503   3.673   4.422  0.0980 -0.1499  0.0476
 3016SOL     OW12061   4.656   2.466   2.953  0.8080  0.6347  0.4776
 3016SOL    HW112062   4.728   2.530   2.952 -0.1336  1.7251 -0.0245
 3016SOL    HW212063   4.582   2.514   2.988  0.1997 -0.3483  0.5629
 3016SOL     MW12064   4.656   2.481   2.958  0.5994  0.6491  0.4215
 3017SOL     OW12065   1.313   2.560   2.254  0.1438  0.2328  0.0830
 3017SOL    HW112066   1.236   2.603   2.216 -0.1367  0.6616  1.0996
 3017SOL    HW212067   1.324   2.602   2.339  0.6620 -0.8033  0.5443
 3017SOL     MW12068   1.304   2.571   2.260  0.1758  0.1511  0.2819
 3018SOL     OW12069   5.188   0.915   3.922 -0.0377  0.0298  0.2309
 3018SOL    HW112070   5.163   0.925   4.014 -1.0538  0.0781 -0.0372
 3018SOL    HW212071   5.130   0.846   3.889 -1.3087  1.6221 -0.9639
 3018SOL     MW12072   5.177   0.907   3.930 -0.3455  0.2506  0.0340
 3019SOL     OW12073   1.786   1.937   4.435 -0.3849  0.3096  0.3940
 3019SOL    HW112074   1.744   1.879   4.372 -0.7580  0.8781  0.1158
 3019SOL    HW212075   1.826   1.877   4.499 -0.8654 -0.2521  0.1833
 3019SOL     MW12076   1.786   1.921   4.435 -0.4998  0.3105  0.3282
 3020SOL     OW12077   1.212   4.479   3.921 -0.1447 -0.1856  0.1408
 3020SOL    HW112078   1.240   4.565   3.953 -0.5375  0.4607 -1.1989
 3020SOL    HW212079   1.136   4.457   3.975 -0.9003  0.9632 -0.4334
 3020SOL     MW12080   1.206   4.487   3.933 -0.2993  0.0560 -0.1168
 3021SOL     OW12081   5.258   2.131   5.097  0.2379 -0.3082 -0.7884
 3021SOL    HW112082   5.316   2.143   5.021  1.6759  0.5446  0.3706
 3021SOL    HW212083   5.222   2.218   5.113 -0.3697 -0.5708 -0.7230
 3021SOL     MW12084   5.261   2.144   5.089  0.3496 -0.2288 -0.6236
 3022SOL     OW12085   4.993   2.880   2.433 -0.3284  0.0204 -0.1341
 3022SOL    HW112086   4.931   2.809   2.445 -1.5200  1.0866  0.3089
 3022SOL    HW212087   5.002   2.919   2.520  2.5273 -1.2911  0.2743
 3022SOL     MW12088   4.986   2.876   2.446 -0.1044 -0.0126 -0.0195
 3023SOL     OW12089   0.248   0.239   2.258  0.0969 -0.0018 -0.1878
 3023SOL    HW112090   0.318   0.236   2.192  0.2149  0.1077 -0.0682
 3023SOL    HW212091   0.195   0.315   2.233  0.4240  0.3309  0.1281
 3023SOL     MW12092   0.250   0.248   2.245  0.1568  0.0577 -0.1292
 3024SOL     OW12093   3.602   3.123   1.975 -0.6947  0.4255  0.4242
 3024SOL    HW112094   3.582   3.073   2.054 -0.9410  2.3704  1.6576
 3024SOL    HW212095   3.666   3.189   2.004  0.7969 -0.0846 -1.4748
 3024SOL     MW12096   3.608   3.126   1.990 -0.5271  0.6186  0.3346
 3025SOL     OW12097   0.512   0.993   1.573  0.0544  0.0001  0.2488
 3025SOL    HW112098   0.532   0.976   1.665 -0.9182  0.6112  0.5985
 3025SOL    HW212099   0.486   1.086   1.571  0.4252  0.0982 -0.7072
 3025SOL     MW12100   0.511   1.003   1.585 -0.0266  0.0955  0.1672
 3026SOL     OW12101   1.006   2.221   3.274  0.1566 -0.3299  0.5505
 3026SOL    HW112102   1.016   2.214   3.369  2.1696  0.2200  0.4216
 3026SOL    HW212103   1.071   2.159   3.239 -1.7506 -1.8422 -0.5098
 3026SOL     MW12104   1.016   2.212   3.282  0.1708 -0.4594  0.3904
 3027SOL     OW12105   3.407   0.788   3.315 -0.1857  0.0469  0.2052
 3027SOL    HW112106   3.486   0.751   3.354 -0.8363 -1.0051  0.5579
 3027SOL    HW212107   3.426   0.882   3.307  0.6514  0.0009  1.3677
 3027SOL     MW12108   3.420   0.796   3.319 -0.1606 -0.1009  0.4091
 3028SOL     OW12109   1.837   1.759   4.663 -0.2942  0.5000  0.1187
 3028SOL    HW112110   1.878   1.780   4.746 -1.2001  0.1093  0.6807
 3028SOL    HW212111   1.784   1.681   4.681  1.8503 -1.4839 -1.5508
 3028SOL     MW12112   1.835   1.751   4.677 -0.1275  0.1805 -0.0304
 3029SOL     OW12113   3.935   4.521   3.856  0.1521 -0.0414  0.2298
 3029SOL    HW112114   3.994   4.458   3.897 -0.7518 -1.1946 -0.1693
 3029SOL    HW212115   3.965   4.606   3.887  1.8709 -0.6020  0.1991
 3029SOL     MW12116   3.947   4.524   3.866  0.2617 -0.2720  0.1720
 3030SOL     OW12117   1.506   5.279   1.698  0.4416 -0.2587 -0.1062
 3030SOL    HW112118   1.526   5.201   1.646 -0.5141 -0.0566 -0.8006
 3030SOL    HW212119   1.446   5.247   1.766  1.2792 -0.4204  0.5728
 3030SOL     MW12120   1.501   5.264   1.700  0.4257 -0.2533 -0.1083
 3031SOL     OW12121   3.843   3.400   4.533 -0.0045  0.1619 -0.1349
 3031SOL    HW112122   3.756   3.398   4.494 -0.0835 -0.8789  0.0639
 3031SOL    HW212123   3.828   3.390   4.627  0.3038  0.4487 -0.0523
 3031SOL     MW12124   3.829   3.398   4.540  0.0263  0.0604 -0.0971
 3032SOL     OW12125   2.972   5.259   4.689 -0.0402 -0.0551 -0.1961
 3032SOL    HW112126   2.909   5.260   4.761  0.3459 -0.7215  0.1591
 3032SOL    HW212127   3.058   5.268   4.731  0.1229  0.5831 -0.6553
 3032SOL     MW12128   2.975   5.260   4.704  0.0337 -0.0589 -0.2101
 3033SOL     OW12129   1.503   4.753   5.034 -0.1759 -1.0434  0.0855
 3033SOL    HW112130   1.420   4.800   5.039  0.8654  0.8531  0.6957
 3033SOL    HW212131   1.508   4.704   5.117 -0.8382 -1.4508 -0.1152
 3033SOL     MW12132   1.493   4.752   5.046 -0.1249 -0.8430  0.1406
 3034SOL     OW12133   2.813   4.470   1.229 -0.3720 -0.2293 -0.3291
 3034SOL    HW112134   2.767   4.501   1.307  0.3687  0.7610 -0.2648
 3034SOL    HW212135   2.788   4.532   1.160  0.3144 -0.0773 -0.4518
 3034SOL     MW12136   2.804   4.483   1.230 -0.1799 -0.0756 -0.3369
 3035SOL     OW12137   3.288   2.706   1.118 -0.0718 -0.0591  0.1816
 3035SOL    HW112138   3.342   2.706   1.039  0.8197 -0.5014  0.7736
 3035SOL    HW212139   3.349   2.687   1.189 -1.1106 -1.2602  0.7987
 3035SOL     MW12140   3.303   2.703   1.117 -0.0916 -0.2803  0.3443
 3036SOL     OW12141   1.510   0.700   0.386 -0.2493 -0.3679  0.2484
 3036SOL    HW112142   1.547   0.704   0.298 -1.8458  1.2945 -0.4134
 3036SOL    HW212143   1.567   0.756   0.438 -2.1941  3.0892 -1.0021
 3036SOL     MW12144   1.523   0.708   0.381 -0.7259  0.3211 -0.0089
 3037SOL     OW12145   4.948   3.916   2.904 -0.1492 -0.1868  0.6377
 3037SOL    HW112146   4.861   3.938   2.872 -0.2919  0.1576  1.2621
 3037SOL    HW212147   4.965   3.828   2.871  0.0980  0.5107 -1.2252
 3037SOL     MW12148   4.939   3.907   2.895 -0.1351 -0.0466  0.4710
 3038SOL     OW12149   2.446   0.080   3.639 -0.0347 -0.1778  0.5282
 3038SOL    HW112150   2.442   0.172   3.615  0.9715 -0.4443 -0.7903
 3038SOL    HW212151   2.509   0.078   3.712 -0.6739  0.2598  1.1037
 3038SOL     MW12152   2.454   0.092   3.646  0.0147 -0.1548  0.4282
 3039SOL     OW12153   0.891   1.606   3.815  0.2690 -0.3259 -0.0206
 3039SOL    HW112154   0.809   1.618   3.862  0.6378  2.0717  0.1297
 3039SOL    HW212155   0.870   1.628   3.724  0.4630 -0.9731 -0.2246
 3039SOL     MW12156   0.877   1.611   3.809  0.3448 -0.0903 -0.0278
 3040SOL     OW12157   2.996   3.793   3.340 -0.1182  0.0932  0.3543
 3040SOL    HW112158   2.970   3.862   3.402  1.5938  0.2292  0.9807
 3040SOL    HW212159   2.934   3.800   3.268 -1.8489  0.2944  1.7999
 3040SOL     MW12160   2.984   3.803   3.339 -0.1207  0.1386  0.6331
 3041SOL     OW12161   0.989   2.811   3.931 -0.0512 -0.2283 -0.0360
 3041SOL    HW112162   0.991   2.744   3.863 -2.1537  0.7470 -1.1430
 3041SOL    HW212163   0.896   2.834   3.939  0.5445  2.1742  0.6765
 3041SOL     MW12164   0.977   2.805   3.923 -0.2540  0.2263 -0.0891
 3042SOL     OW12165   2.276   0.686   2.079 -0.1081  0.0544  0.8266
 3042SOL    HW112166   2.348   0.702   2.018  0.7261  0.6662  1.9287
 3042SOL    HW212167   2.311   0.711   2.164 -1.0212 -1.4258  1.6753
 3042SOL     MW12168   2.290   0.692   2.082 -0.1188 -0.0625  1.0892
 3043SOL     OW12169   3.219   4.908   5.396 -0.2089  0.3942  0.0322
 3043SOL    HW112170   3.254   4.969   5.330  1.1612  0.7564  1.0464
 3043SOL    HW212171   3.231   4.954   5.479 -1.6065 -0.1938  0.5802
 3043SOL     MW12172   3.226   4.922   5.398 -0.2126  0.3638  0.2424
 3044SOL     OW12173   0.583   0.541   2.323  0.0934 -0.5958 -0.7250
 3044SOL    HW112174   0.536   0.550   2.405  0.2469  0.2597 -0.7278
 3044SOL    HW212175   0.638   0.463   2.336 -0.2704 -0.7714 -0.2142
 3044SOL     MW12176   0.584   0.532   2.336  0.0651 -0.5043 -0.6566
 3045SOL     OW12177   3.069   1.535   4.881  0.3722 -0.2005  0.3867
 3045SOL    HW112178   3.106   1.622   4.864 -0.9755  0.7038  1.7825
 3045SOL    HW212179   2.991   1.531   4.824  0.6819 -0.6933 -0.0106
 3045SOL     MW12180   3.063   1.546   4.871  0.2325 -0.1451  0.5211
 3046SOL     OW12181   4.556   1.853   3.842 -0.5707  0.0121 -0.1301
 3046SOL    HW112182   4.550   1.927   3.903 -1.6737 -1.2790  1.4382
 3046SOL    HW212183   4.583   1.892   3.759  1.9258  1.7465  1.3584
 3046SOL     MW12184   4.559   1.869   3.839 -0.3831  0.0718  0.2813
 3047SOL     OW12185   1.833   0.200   1.973  0.0748 -0.1797  0.1553
 3047SOL    HW112186   1.869   0.265   2.033  0.4987 -1.0301  0.8440
 3047SOL    HW212187   1.750   0.174   2.013  1.0687 -1.8963  1.2757
 3047SOL     MW12188   1.827   0.205   1.987  0.2656 -0.5251  0.3987
 3048SOL     OW12189   0.423   2.673   3.095  0.0655 -0.4803 -0.2191
 3048SOL    HW112190   0.407   2.590   3.049  0.3990  0.6771 -2.6007
 3048SOL    HW212191   0.519   2.679   3.099  0.0509 -0.7985  1.1905
 3048SOL     MW12192   0.434   2.662   3.089  0.1084 -0.3674 -0.3499
 3049SOL     OW12193   3.576   1.423   1.716  0.7287 -0.4926 -0.1763
 3049SOL    HW112194   3.572   1.425   1.620  1.8473  0.1793 -0.2249
 3049SOL    HW212195   3.522   1.496   1.744 -0.2752 -1.1908 -0.2584
 3049SOL     MW12196   3.568   1.433   1.707  0.7442 -0.4962 -0.1939
 3050SOL     OW12197   4.270   1.236   1.132  0.5461 -0.3093  0.1691
 3050SOL    HW112198   4.187   1.253   1.088 -0.2519 -1.2959  1.2251
 3050SOL    HW212199   4.337   1.267   1.070 -0.6122  1.7981 -0.1120
 3050SOL     MW12200   4.268   1.242   1.117  0.2828 -0.1584  0.2734
 3051SOL     OW12201   4.485   3.133   2.096 -0.0571 -0.7436 -0.0967
 3051SOL    HW112202   4.502   3.067   2.163  0.2870 -0.4586  0.0958
 3051SOL    HW212203   4.391   3.151   2.105  0.3705  0.8480  1.7581
 3051SOL     MW12204   4.474   3.126   2.106  0.0468 -0.4910  0.1788
 3052SOL     OW12205   0.534   3.596   0.834 -0.1613 -0.1670  0.4418
 3052SOL    HW112206   0.592   3.673   0.836  0.2184 -0.3977 -0.9855
 3052SOL    HW212207   0.502   3.589   0.924  1.7669  0.1743  1.2211
 3052SOL     MW12208   0.538   3.605   0.847  0.1493 -0.1521  0.3546
 3053SOL     OW12209   0.750   2.851   2.130 -0.1207  0.7116  0.4987
 3053SOL    HW112210   0.665   2.809   2.116 -0.9880  2.1976  1.0241
 3053SOL    HW212211   0.739   2.940   2.097  0.9175  1.2306  1.4583
 3053SOL     MW12212   0.737   2.857   2.124 -0.0977  0.9814  0.6985
 3054SOL     OW12213   4.293   1.015   2.849 -0.3884 -0.0869 -0.0122
 3054SOL    HW112214   4.240   1.023   2.928 -0.5524 -0.1784 -0.1126
 3054SOL    HW212215   4.381   0.995   2.880 -0.9011 -2.4797  0.0760
 3054SOL     MW12216   4.298   1.014   2.864 -0.4794 -0.4212 -0.0138
 3055SOL     OW12217   3.725   5.288   4.724  0.3100  0.6622 -0.0460
 3055SOL    HW112218   3.711   5.378   4.694  1.1799  1.0045  0.5504
 3055SOL    HW212219   3.743   5.297   4.818 -0.2750 -0.2029  0.1583
 3055SOL     MW12220   3.725   5.302   4.733  0.3483  0.5918  0.0618
 3056SOL     OW12221   0.526   3.037   4.576 -0.3043 -0.1115  0.0231
 3056SOL    HW112222   0.570   2.955   4.596 -0.2387  0.1001  0.7590
 3056SOL    HW212223   0.593   3.089   4.531 -0.4591 -0.5867 -0.7893
 3056SOL     MW12224   0.541   3.033   4.573 -0.3163 -0.1470  0.0128
 3057SOL     OW12225   2.964   4.097   1.905 -0.8240 -0.6430 -0.0801
 3057SOL    HW112226   3.059   4.095   1.905 -0.7125  1.5456  0.0460
 3057SOL    HW212227   2.937   4.007   1.886  1.1928 -2.1151  3.0699
 3057SOL     MW12228   2.973   4.085   1.903 -0.5376 -0.5466  0.3608
 3058SOL     OW12229   4.925   4.085   3.933 -0.4505  0.4510  0.0427
 3058SOL    HW112230   4.946   4.071   4.026 -2.1479  0.2081  0.4434
 3058SOL    HW212231   4.920   4.180   3.923 -0.9163  0.4707  0.3913
 3058SOL     MW12232   4.927   4.096   3.945 -0.7416  0.4209  0.1435
 3059SOL     OW12233   1.094   1.595   2.417  0.1690  0.8904 -0.1616
 3059SOL    HW112234   1.109   1.583   2.323  0.3162 -0.4488  0.0084
 3059SOL    HW212235   1.179   1.579   2.458 -0.3291 -0.7096  0.3370
 3059SOL     MW12236   1.107   1.591   2.410  0.1218  0.4948 -0.0717
 3060SOL     OW12237   0.446   1.923   1.350  0.1760  0.6905 -0.4621
 3060SOL    HW112238   0.446   1.829   1.367 -0.7781  0.7002 -0.3911
 3060SOL    HW212239   0.393   1.961   1.420  0.7923  1.3238 -0.3212
 3060SOL     MW12240   0.439   1.916   1.362  0.1305  0.7770 -0.4336
 3061SOL     OW12241   4.533   3.500   2.374  0.4362 -0.3517 -0.2667
 3061SOL    HW112242   4.574   3.521   2.458  0.5457  0.1495 -0.4408
 3061SOL    HW212243   4.606   3.476   2.317  0.2646 -1.7782  0.0829
 3061SOL     MW12244   4.549   3.499   2.378  0.4279 -0.4762 -0.2431
 3062SOL     OW12245   5.478   5.451   0.393  0.3872  0.6882 -0.1770
 3062SOL    HW112246   5.418   5.381   0.365  0.5689  0.1314  0.7910
 3062SOL    HW212247   5.426   5.531   0.387 -0.4243  0.2255  0.5173
 3062SOL     MW12248   5.463   5.452   0.389  0.3025  0.5510  0.0467
 3063SOL     OW12249   3.006   1.695   3.621 -0.4289 -0.0537 -0.2678
 3063SOL    HW112250   2.976   1.770   3.673  1.3571  0.5759 -0.0760
 3063SOL    HW212251   3.081   1.662   3.669  0.5398 -0.1949 -1.8248
 3063SOL     MW12252   3.012   1.701   3.635 -0.0582  0.0120 -0.4515
 3064SOL     OW12253   0.272   1.150   4.399  0.1699 -0.3267  0.3946
 3064SOL    HW112254   0.267   1.193   4.313  1.4174 -0.8018  0.0558
 3064SOL    HW212255   0.289   1.058   4.378 -0.9361 -0.7185  1.1427
 3064SOL     MW12256   0.274   1.144   4.384  0.1889 -0.4434  0.4497
 3065SOL     OW12257   2.643   0.971   3.828  0.0385  0.2391 -0.2562
 3065SOL    HW112258   2.731   0.999   3.802 -0.1220 -0.5206 -1.7097
 3065SOL    HW212259   2.589   0.986   3.751 -0.6158 -1.4133 -0.1550
 3065SOL     MW12260   2.648   0.977   3.814 -0.0712 -0.0855 -0.4382
 3066SOL     OW12261   4.198   3.232   1.422 -0.0647  0.1199  0.1474
 3066SOL    HW112262   4.289   3.240   1.452  0.4219 -3.0130 -0.1426
 3066SOL    HW212263   4.152   3.193   1.496 -0.9762  0.7783 -0.0576
 3066SOL     MW12264   4.204   3.228   1.436 -0.1219 -0.2131  0.0808
 3067SOL     OW12265   4.342   4.447   1.136 -0.1397  0.0749 -0.3478
 3067SOL    HW112266   4.256   4.458   1.176 -0.7073 -1.7237 -0.9654
 3067SOL    HW212267   4.377   4.367   1.176  0.5255 -0.1368 -1.3024
 3067SOL     MW12268   4.335   4.438   1.147 -0.1266 -0.1956 -0.5594
 3068SOL     OW12269   2.734   0.652   4.144  0.1438 -0.0593  0.6753
 3068SOL    HW112270   2.802   0.708   4.108  0.2732 -0.6093  0.0536
 3068SOL    HW212271   2.770   0.563   4.140 -0.9246 -0.4720 -0.4833
 3068SOL     MW12272   2.748   0.647   4.139  0.0174 -0.1888  0.4357
 3069SOL     OW12273   1.136   1.685   0.794  0.4009 -0.0952 -0.2805
 3069SOL    HW112274   1.081   1.696   0.716 -0.8179 -0.1060  0.5513
 3069SOL    HW212275   1.148   1.773   0.828  0.3917 -0.1554 -0.1195
 3069SOL     MW12276   1.130   1.698   0.788  0.2356 -0.1048 -0.1469
 3070SOL     OW12277   4.592   4.710   2.505  0.1836 -0.2227 -0.1862
 3070SOL    HW112278   4.607   4.798   2.540  1.1587 -0.6819  0.5959
 3070SOL    HW212279   4.575   4.724   2.412 -1.4753  0.9418  0.2545
 3070SOL     MW12280   4.592   4.724   2.498  0.0916 -0.1278 -0.0216
 3071SOL     OW12281   4.711   0.595   4.588 -0.4225 -0.0182 -0.1855
 3071SOL    HW112282   4.759   0.673   4.561  3.1056 -1.9904 -0.3325
 3071SOL    HW212283   4.699   0.604   4.682  0.7703  0.3341 -0.0605
 3071SOL     MW12284   4.716   0.606   4.597  0.2129 -0.2362 -0.1884
 3072SOL     OW12285   0.353   0.317   3.058  0.2912  0.0167  0.0759
 3072SOL    HW112286   0.425   0.281   3.007  0.3347 -0.4064  0.4264
 3072SOL    HW212287   0.339   0.253   3.129 -0.4109  0.1033  0.0269
 3072SOL     MW12288   0.361   0.303   3.061  0.2025 -0.0286  0.1165
 3073SOL     OW12289   2.906   3.856   2.157 -0.1231 -0.0727 -0.2424
 3073SOL    HW112290   2.990   3.899   2.170 -0.6694  1.2710 -1.0181
 3073SOL    HW212291   2.874   3.838   2.246  0.5008  0.3594  0.0705
 3073SOL     MW12292   2.913   3.859   2.171 -0.1127  0.1663 -0.3047
 3074SOL     OW12293   0.310   3.108   0.939 -0.1260  0.0744  0.2508
 3074SOL    HW112294   0.333   3.112   1.032 -0.6141  1.1679  0.3446
 3074SOL    HW212295   0.261   3.027   0.929  0.8321 -0.5765  0.7264
 3074SOL     MW12296   0.306   3.098   0.950 -0.0628  0.1340  0.3274
 3075SOL     OW12297   2.384   3.983   0.741  0.2412 -0.0413  0.5478
 3075SOL    HW112298   2.381   3.989   0.645  0.0592  0.1090  0.5623
 3075SOL    HW212299   2.312   4.038   0.771 -0.1757 -0.6861  0.7541
 3075SOL     MW12300   2.374   3.991   0.732  0.1606 -0.1078  0.5775
 3076SOL     OW12301   0.364   2.121   2.616 -0.0453 -0.0029  0.1628
 3076SOL    HW112302   0.413   2.069   2.680 -0.9222 -1.6481 -0.4459
 3076SOL    HW212303   0.297   2.061   2.583  0.0141  0.9907 -1.8827
 3076SOL     MW12304   0.361   2.106   2.620 -0.1553 -0.0906 -0.1944
 3077SOL     OW12305   5.200   0.323   0.823 -0.3079 -0.1160  0.6226
 3077SOL    HW112306   5.194   0.336   0.728  0.8858  0.3397  0.6006
 3077SOL    HW212307   5.152   0.242   0.839 -2.5033  0.9699 -0.0600
 3077SOL     MW12308   5.192   0.314   0.812 -0.4427  0.0914  0.5278
 3078SOL     OW12309   1.401   1.961   0.748  0.1340 -0.4519  0.5093
 3078SOL    HW112310   1.400   1.866   0.737 -0.0406 -0.4493  0.5037
 3078SOL    HW212311   1.320   1.981   0.795 -0.1056 -0.2466  0.0138
 3078SOL     MW12312   1.390   1.951   0.753  0.0783 -0.4239  0.4418
 3079SOL     OW12313   0.565   4.558   3.843  0.0175 -0.3630 -0.0168
 3079SOL    HW112314   0.503   4.508   3.791  0.5975 -0.7790 -0.3227
 3079SOL    HW212315   0.568   4.513   3.928 -0.0513 -0.3795 -0.0232
 3079SOL     MW12316   0.557   4.545   3.848  0.0863 -0.4212 -0.0589
 3080SOL     OW12317   5.463   2.855   1.846  0.4307  0.2172 -0.1627
 3080SOL    HW112318   5.447   2.817   1.759  0.8992  1.4800 -0.8219
 3080SOL    HW212319   5.510   2.937   1.829  0.5360  0.4943  1.2889
 3080SOL     MW12320   5.467   2.861   1.832  0.5080  0.4244 -0.0560
 3081SOL     OW12321   1.506   5.318   0.297  0.3318  0.5422  0.1924
 3081SOL    HW112322   1.576   5.267   0.258  0.9059  1.3599  0.1252
 3081SOL    HW212323   1.463   5.360   0.223  0.6981  1.1883  0.3363
 3081SOL     MW12324   1.509   5.317   0.282  0.4584  0.7392  0.2027
 3082SOL     OW12325   2.515   1.068   3.594  0.7551  0.0974  0.3908
 3082SOL    HW112326   2.524   1.045   3.502 -0.1605 -0.5582  0.4474
 3082SOL    HW212327   2.546   1.159   3.599 -0.3978  0.6065 -0.8288
 3082SOL     MW12328   2.520   1.077   3.582  0.4767  0.0777  0.2342
 3083SOL     OW12329   2.926   1.536   2.782  0.5397  0.0092 -0.2799
 3083SOL    HW112330   2.838   1.519   2.815  0.6952  0.4767  0.3922
 3083SOL    HW212331   2.913   1.551   2.688  0.1800 -1.9272 -0.5818
 3083SOL     MW12332   2.912   1.536   2.774  0.5122 -0.1885 -0.2301
 3084SOL     OW12333   4.478   1.373   2.527  0.0414  0.0221 -0.1409
 3084SOL    HW112334   4.426   1.315   2.581  0.8512 -1.0360 -0.4666
 3084SOL    HW212335   4.520   1.432   2.590 -0.2496 -0.1803  0.2498
 3084SOL     MW12336   4.477   1.373   2.543  0.1112 -0.1475 -0.1321
 3085SOL     OW12337   1.515   0.380   3.873 -0.4796 -0.0195 -0.1477
 3085SOL    HW112338   1.507   0.465   3.917  2.5607  0.1883  0.2254
 3085SOL    HW212339   1.601   0.348   3.898 -1.7763 -3.6233  0.2995
 3085SOL     MW12340   1.525   0.387   3.882 -0.2450 -0.4765 -0.0373
 3086SOL     OW12341   2.011   4.609   3.934 -0.2179 -0.1915  0.0648
 3086SOL    HW112342   1.968   4.529   3.963  1.1099 -1.1792 -0.5621
 3086SOL    HW212343   1.953   4.644   3.867 -0.2815 -1.2598 -0.4678
 3086SOL     MW12344   1.997   4.603   3.929 -0.0478 -0.4682 -0.0912
 3087SOL     OW12345   2.456   2.940   0.239  0.1273  0.2352 -0.1674
 3087SOL    HW112346   2.530   2.902   0.286 -0.1815 -0.5163 -0.2747
 3087SOL    HW212347   2.379   2.897   0.277 -0.5353  2.9613  1.8863
 3087SOL     MW12348   2.455   2.929   0.250 -0.0035  0.5009  0.0946
 3088SOL     OW12349   4.330   5.284   3.582  0.5016 -0.1976  0.0755
 3088SOL    HW112350   4.346   5.266   3.674 -0.5299 -0.5600  0.2013
 3088SOL    HW212351   4.245   5.329   3.581  1.1805  1.1094 -0.5793
 3088SOL     MW12352   4.320   5.287   3.594  0.4542 -0.0705  0.0043
 3089SOL     OW12353   4.161   2.977   0.783 -0.1950 -0.5125  0.3852
 3089SOL    HW112354   4.243   2.976   0.833  0.4481 -0.8684 -0.6394
 3089SOL    HW212355   4.161   3.061   0.737 -0.1619 -0.7040  0.0240
 3089SOL     MW12356   4.172   2.988   0.783 -0.1040 -0.5862  0.1987
 3090SOL     OW12357   0.511   3.027   2.447 -0.0265 -0.4471  0.0296
 3090SOL    HW112358   0.427   3.061   2.479 -0.1742  1.5040 -2.1331
 3090SOL    HW212359   0.550   2.984   2.523 -2.0130  0.4951  1.6937
 3090SOL     MW12360   0.505   3.026   2.462 -0.3137 -0.0577 -0.0375
 3091SOL     OW12361   1.302   0.421   0.132  0.6302 -0.3027 -0.5126
 3091SOL    HW112362   1.317   0.341   0.182  0.9592 -1.8205 -2.8851
 3091SOL    HW212363   1.210   0.415   0.104  0.6571  0.1306 -0.7103
 3091SOL     MW12364   1.291   0.410   0.135  0.6781 -0.4487 -0.8585
 3092SOL     OW12365   0.382   4.751   3.929  0.1276  0.1690  0.3329
 3092SOL    HW112366   0.445   4.684   3.904  0.9699  0.8613  0.5361
 3092SOL    HW212367   0.297   4.710   3.919  0.6274 -0.8954  0.3703
 3092SOL     MW12368   0.379   4.737   3.924  0.3082  0.1189  0.3653
 3093SOL     OW12369   4.841   1.955   4.405 -0.1460  0.3796  0.0489
 3093SOL    HW112370   4.748   1.948   4.427 -0.2201  0.9633 -0.0385
 3093SOL    HW212371   4.885   1.904   4.473 -0.5670 -0.5001 -0.3200
 3093SOL     MW12372   4.834   1.947   4.417 -0.2127  0.3398 -0.0125
 3094SOL     OW12373   2.206   1.980   0.397 -0.4901  0.7018  0.5974
 3094SOL    HW112374   2.137   1.917   0.416 -1.7887  1.3702 -1.5086
 3094SOL    HW212375   2.162   2.064   0.391  0.3309  1.0608 -1.4147
 3094SOL     MW12376   2.191   1.983   0.399 -0.5543  0.8401  0.0432
 3095SOL     OW12377   5.221   0.324   2.265  0.3527 -0.6175  0.1528
 3095SOL    HW112378   5.170   0.248   2.294  0.2494 -0.7044 -0.2475
 3095SOL    HW212379   5.279   0.343   2.339  1.4916 -2.0643 -0.3096
 3095SOL     MW12380   5.222   0.316   2.279  0.4921 -0.8239  0.0367
 3096SOL     OW12381   0.725   3.482   4.687 -0.3384 -0.2035 -0.2383
 3096SOL    HW112382   0.779   3.443   4.757 -0.4885  0.2773  0.1524
 3096SOL    HW212383   0.637   3.450   4.705 -0.3163 -0.3670 -0.4214
 3096SOL     MW12384   0.721   3.473   4.699 -0.3556 -0.1608 -0.2104
 3097SOL     OW12385   2.439   4.172   3.165 -0.3115 -0.0211 -0.1749
 3097SOL    HW112386   2.495   4.157   3.241 -1.4998 -0.0213  0.7428
 3097SOL    HW212387   2.435   4.268   3.157 -0.0240 -0.0244 -0.3684
 3097SOL     MW12388   2.446   4.183   3.174 -0.4327 -0.0215 -0.0774
 3098SOL     OW12389   2.679   4.415   4.725  0.1944 -0.0128 -0.5535
 3098SOL    HW112390   2.718   4.333   4.755 -2.1364 -0.7693  0.6467
 3098SOL    HW212391   2.672   4.468   4.804 -0.5895  0.3438 -0.8606
 3098SOL     MW12392   2.684   4.411   4.740 -0.2248 -0.0666 -0.4333
 3099SOL     OW12393   5.021   3.095   0.591  0.4721 -0.0927 -0.0999
 3099SOL    HW112394   5.074   3.072   0.515  0.1903  0.0447 -0.3413
 3099SOL    HW212395   5.040   3.187   0.608 -1.4290  0.6703 -1.6539
 3099SOL     MW12396   5.031   3.104   0.583  0.1784  0.0285 -0.3415
 3100SOL     OW12397   2.417   3.040  -0.015  0.5760 -0.1433  0.1401
 3100SOL    HW112398   2.433   3.017   0.076 -2.4527  0.2047  0.8616
 3100SOL    HW212399   2.428   3.135  -0.018 -0.5619  0.0161  0.4903
 3100SOL     MW12400   2.421   3.050  -0.004  0.0152 -0.0750  0.2843
 3101SOL     OW12401   1.681   4.031   4.358  0.4646 -0.1650  0.5624
 3101SOL    HW112402   1.622   3.968   4.316  0.7779  0.5647 -1.0450
 3101SOL    HW212403   1.624   4.104   4.383  0.6772  0.7219 -1.3565
 3101SOL     MW12404   1.665   4.032   4.356  0.5354  0.0526  0.0879
 3102SOL     OW12405   5.270   5.294   3.047  0.1863 -0.5063  0.0538
 3102SOL    HW112406   5.225   5.361   2.996  0.1993 -1.2774 -0.9921
 3102SOL    HW212407   5.350   5.275   2.998  0.7343 -0.5035  0.9200
 3102SOL     MW12408   5.275   5.301   3.034  0.2618 -0.6097  0.0296
 3103SOL     OW12409   5.121   0.379   2.796 -0.1770 -0.0047  0.2722
 3103SOL    HW112410   5.054   0.319   2.764  1.4190 -1.4770 -0.5113
 3103SOL    HW212411   5.110   0.379   2.891 -1.3897 -0.0766  0.1391
 3103SOL     MW12412   5.111   0.371   2.804 -0.1254 -0.2125  0.1488
 3104SOL     OW12413   4.403   1.493   4.933 -0.6957  0.1591  0.2177
 3104SOL    HW112414   4.469   1.516   4.868 -0.7004  1.4161  0.6456
 3104SOL    HW212415   4.371   1.407   4.904  0.6916 -0.2079 -0.3276
 3104SOL     MW12416   4.407   1.484   4.920 -0.5096  0.2789  0.2019
 3105SOL     OW12417   3.451   3.511   1.475 -0.2705 -0.2561  0.0355
 3105SOL    HW112418   3.422   3.429   1.514  0.5924 -0.2195  0.7824
 3105SOL    HW212419   3.545   3.514   1.491 -0.1494  0.4926 -0.7130
 3105SOL     MW12420   3.460   3.501   1.482 -0.1381 -0.1504  0.0352
 3106SOL     OW12421   0.264   0.454   1.537 -0.0646 -0.5102 -0.5775
 3106SOL    HW112422   0.327   0.509   1.492  0.9886 -0.3532  1.0018
 3106SOL    HW212423   0.300   0.442   1.625 -2.4062 -0.0869  0.5375
 3106SOL     MW12424   0.277   0.459   1.543 -0.2380 -0.4321 -0.2149
 3107SOL     OW12425   2.004   2.040   3.546 -0.0344 -0.0465 -0.6369
 3107SOL    HW112426   2.010   2.066   3.454  2.3469  1.0412 -0.2771
 3107SOL    HW212427   2.067   1.968   3.555 -0.9424 -0.7902 -0.0285
 3107SOL     MW12428   2.013   2.034   3.535  0.1639 -0.0002 -0.5066
 3108SOL     OW12429   2.187   3.455   3.071  0.4546  0.5171 -0.6307
 3108SOL    HW112430   2.183   3.545   3.104  0.2477  0.3785 -0.2783
 3108SOL    HW212431   2.222   3.404   3.145 -1.1316 -0.0015 -0.1952
 3108SOL     MW12432   2.191   3.460   3.085  0.2133  0.4286 -0.5246
 3109SOL     OW12433   4.585   4.408   2.882  0.2295 -0.1044 -0.4868
 3109SOL    HW112434   4.537   4.414   2.799  0.6239 -1.7779 -0.8910
 3109SOL    HW212435   4.591   4.498   2.913 -3.2924  0.2140 -0.3122
 3109SOL     MW12436   4.579   4.421   2.875 -0.1914 -0.2868 -0.5177
 3110SOL     OW12437   2.694   1.977   3.895  0.2960  0.4225  0.1721
 3110SOL    HW112438   2.726   2.067   3.890  0.7910  0.2023 -0.9971
 3110SOL    HW212439   2.729   1.943   3.977  1.8782  0.6490 -0.3772
 3110SOL     MW12440   2.703   1.985   3.905  0.5755  0.4233 -0.0592
 3111SOL     OW12441   1.505   0.615   2.318 -0.4861 -0.4815 -0.3012
 3111SOL    HW112442   1.526   0.647   2.230  0.3081 -0.6456 -0.1829
 3111SOL    HW212443   1.466   0.528   2.303  0.9477 -1.1351 -0.4434
 3111SOL     MW12444   1.503   0.607   2.304 -0.1862 -0.5915 -0.3044
 3112SOL     OW12445   3.246   5.111   2.220  0.6120  0.3818  0.2024
 3112SOL    HW112446   3.196   5.094   2.300 -0.8600 -1.0609 -0.9360
 3112SOL    HW212447   3.317   5.168   2.247  0.4534 -0.4649  2.6289
 3112SOL     MW12448   3.249   5.116   2.234  0.3926  0.0737  0.3758
 3113SOL     OW12449   4.082   2.651   3.425  0.2161 -0.4385 -0.3229
 3113SOL    HW112450   4.021   2.705   3.476 -0.6363 -1.1756 -0.5673
 3113SOL    HW212451   4.094   2.699   3.343  0.4690  0.0234 -0.0215
 3113SOL     MW12452   4.076   2.665   3.421  0.1354 -0.4756 -0.3152
 3114SOL     OW12453   1.609   2.778   0.625 -0.1597  0.1330  0.0244
 3114SOL    HW112454   1.557   2.704   0.595 -0.3736  0.2557  0.0931
 3114SOL    HW212455   1.564   2.855   0.589 -0.7576  0.3241  1.1487
 3114SOL     MW12456   1.596   2.779   0.616 -0.2689  0.1753  0.1849
 3115SOL     OW12457   3.734   0.054   5.056  0.0226  0.5373  0.5845
 3115SOL    HW112458   3.755   0.126   5.114 -3.1390  0.9434  1.4171
 3115SOL    HW212459   3.702   0.096   4.976  1.9986 -0.0300 -0.5868
 3115SOL     MW12460   3.732   0.069   5.053 -0.1370  0.5156  0.5389
 3116SOL     OW12461   5.049   3.374   0.645  0.0811 -0.2005 -0.0679
 3116SOL    HW112462   5.064   3.446   0.583  1.0578 -0.5450 -0.2596
 3116SOL    HW212463   5.135   3.359   0.684 -0.1219 -1.2347  0.0016
 3116SOL     MW12464   5.063   3.382   0.642  0.1852 -0.3861 -0.0843
 3117SOL     OW12465   4.505   4.958   1.229  0.2457 -0.0257  0.7618
 3117SOL    HW112466   4.493   4.972   1.135  0.8593 -0.1021  0.6631
 3117SOL    HW212467   4.501   4.863   1.240 -1.6844  0.0613  1.0997
 3117SOL     MW12468   4.503   4.947   1.218  0.0686 -0.0243  0.7940
 3118SOL     OW12469   0.940   4.403   1.920 -0.1784 -0.3776 -0.1553
 3118SOL    HW112470   1.014   4.397   1.980 -0.5721 -0.7375  0.3035
 3118SOL    HW212471   0.905   4.491   1.934  0.0935 -0.2495 -0.2872
 3118SOL     MW12472   0.945   4.414   1.930 -0.1948 -0.4088 -0.1113
 3119SOL     OW12473   5.507   2.813   4.198  0.2159  0.3744 -0.4187
 3119SOL    HW112474   5.452   2.875   4.150  0.2546  0.6762 -0.0798
 3119SOL    HW212475   5.447   2.765   4.255  0.4359  1.5619  0.8708
 3119SOL     MW12476   5.492   2.815   4.199  0.2507  0.5749 -0.1995
 3120SOL     OW12477   2.654   1.671   1.715 -0.5781 -0.6776 -0.8069
 3120SOL    HW112478   2.733   1.619   1.699  1.0893  1.3040  0.4489
 3120SOL    HW212479   2.680   1.761   1.693 -1.9696  0.2621  1.1559
 3120SOL     MW12480   2.668   1.676   1.710 -0.5409 -0.2844 -0.3737
 3121SOL     OW12481   4.758   2.999   2.697 -0.8918 -0.1240  0.3828
 3121SOL    HW112482   4.699   3.064   2.659 -0.2933  0.0931 -0.1917
 3121SOL    HW212483   4.844   3.018   2.658 -1.2213 -3.1047 -2.2679
 3121SOL     MW12484   4.762   3.010   2.687 -0.8556 -0.4959 -0.0513
 3122SOL     OW12485   3.188   4.332   3.611 -0.2453  0.3978 -0.0640
 3122SOL    HW112486   3.241   4.382   3.672 -0.0788 -1.4033  1.3789
 3122SOL    HW212487   3.245   4.317   3.536  0.7377 -0.0767  0.7471
 3122SOL     MW12488   3.203   4.336   3.609 -0.0906  0.0915  0.2394
 3123SOL     OW12489   0.140   4.087   0.304 -0.1225 -0.1288  0.5174
 3123SOL    HW112490   0.087   4.057   0.231  0.7776 -0.4698 -0.0195
 3123SOL    HW212491   0.227   4.051   0.286  0.3735  0.7118  1.1829
 3123SOL     MW12492   0.145   4.078   0.292  0.0654 -0.0616  0.5347
 3124SOL     OW12493   5.476   1.356   5.443  0.2463  0.3884  0.3133
 3124SOL    HW112494   5.397   1.391   5.484 -0.0825  0.8397 -0.6627
 3124SOL    HW212495   5.518   1.304   5.511 -0.7994  0.2965  0.9060
 3124SOL     MW12496   5.471   1.353   5.457  0.0613  0.4367  0.2617
 3125SOL     OW12497   2.004   2.657   1.932  0.5089  0.1486 -0.5058
 3125SOL    HW112498   2.031   2.576   1.889  0.8657 -0.2918  0.5043
 3125SOL    HW212499   2.085   2.695   1.965  0.0966 -0.5619  1.4951
 3125SOL     MW12500   2.018   2.651   1.931  0.5014 -0.0063 -0.1005
 3126SOL     OW12501   2.192   2.877   5.400 -0.1012 -0.6001  0.3905
 3126SOL    HW112502   2.254   2.924   5.457 -0.6761 -0.2786  0.7602
 3126SOL    HW212503   2.206   2.785   5.420  0.1964 -0.5277  0.5308
 3126SOL     MW12504   2.202   2.871   5.410 -0.1385 -0.5471  0.4592
 3127SOL     OW12505   4.089   4.344   3.995 -0.5078  0.4326 -0.0241
 3127SOL    HW112506   4.019   4.285   4.022  0.6739 -0.2175  1.7864
 3127SOL    HW212507   4.128   4.302   3.918 -0.6413 -0.3894  0.3486
 3127SOL     MW12508   4.085   4.331   3.988 -0.3667  0.2345  0.2697
 3128SOL     OW12509   2.783   3.588   2.951 -0.3000  0.1385  0.5549
 3128SOL    HW112510   2.843   3.525   2.991  0.3876 -0.7093 -1.6360
 3128SOL    HW212511   2.696   3.564   2.985  0.1364 -1.0941  0.8530
 3128SOL     MW12512   2.779   3.576   2.961 -0.1487 -0.1415  0.3002
 3129SOL     OW12513   1.977   0.024   3.327  0.0360 -0.4330 -0.0604
 3129SOL    HW112514   2.045   0.086   3.303  0.6208 -0.9982  0.1055
 3129SOL    HW212515   2.011  -0.020   3.406 -2.0879  1.8428  2.2978
 3129SOL     MW12516   1.990   0.026   3.335 -0.1711 -0.2028  0.2793
 3130SOL     OW12517  -0.012   0.028   4.558  0.3133 -0.1376 -0.0679
 3130SOL    HW112518   0.038   0.081   4.619  0.5818 -0.6960  0.2046
 3130SOL    HW212519   0.028   0.044   4.473 -0.4149  1.0803 -0.2118
 3130SOL     MW12520   0.000   0.037   4.555  0.2515 -0.0489 -0.0506
 3131SOL     OW12521   3.134   3.546   2.888 -0.0446 -0.6364  0.4249
 3131SOL    HW112522   3.067   3.603   2.851 -0.4032 -0.4495  1.3423
 3131SOL    HW212523   3.085   3.480   2.937  0.4040 -1.1527  0.1911
 3131SOL     MW12524   3.118   3.545   2.889 -0.0325 -0.6807  0.5169
 3132SOL     OW12525   1.405   1.468   2.124  0.1314  0.8454  0.2307
 3132SOL    HW112526   1.311   1.483   2.134  0.2052  0.9233  0.8957
 3132SOL    HW212527   1.428   1.511   2.042 -0.3064  1.3710  0.3772
 3132SOL     MW12528   1.396   1.476   2.114  0.0824  0.9266  0.3399
 3133SOL     OW12529   2.306   1.164   3.163  0.3678  0.3380 -0.3234
 3133SOL    HW112530   2.309   1.070   3.145 -0.7162  0.2590 -0.1873
 3133SOL    HW212531   2.291   1.204   3.077 -0.3203  0.2886 -0.2361
 3133SOL     MW12532   2.304   1.156   3.149  0.1293  0.3207 -0.2933
 3134SOL     OW12533   4.250   0.272   2.744  0.1884  0.1522  0.2588
 3134SOL    HW112534   4.341   0.268   2.774 -0.6412 -1.1985  2.9738
 3134SOL    HW212535   4.215   0.351   2.785  0.6711  2.1779 -2.8970
 3134SOL     MW12536   4.258   0.282   2.754  0.1417  0.2430  0.1995
 3135SOL     OW12537   4.427   2.125   1.770 -0.3262 -0.5586 -0.2860
 3135SOL    HW112538   4.365   2.198   1.766 -1.1175 -1.2219 -0.3962
 3135SOL    HW212539   4.399   2.066   1.701 -0.7651 -1.7867  0.8912
 3135SOL     MW12540   4.415   2.127   1.760 -0.4918 -0.8131 -0.1424
 3136SOL     OW12541   4.444   5.031   0.971  0.2573 -0.0345 -0.2941
 3136SOL    HW112542   4.450   5.116   0.928 -1.6782  1.2510  1.7446
 3136SOL    HW212543   4.390   4.979   0.911  0.1826  0.6744 -0.8682
 3136SOL     MW12544   4.437   5.036   0.957 -0.0132  0.2339 -0.0970
 3137SOL     OW12545   1.529   3.639   5.396  0.2257  0.0509 -0.6723
 3137SOL    HW112546   1.576   3.560   5.422 -0.4971 -0.2503 -0.2537
 3137SOL    HW212547   1.442   3.630   5.435 -0.2268  0.5414 -1.5171
 3137SOL     MW12548   1.523   3.627   5.405  0.0675  0.0764 -0.7297
 3138SOL     OW12549   3.307   0.290   2.871  0.2177  0.1985  0.6670
 3138SOL    HW112550   3.256   0.227   2.820  0.1224  0.6156  0.2463
 3138SOL    HW212551   3.340   0.353   2.807 -0.5253  1.1613  1.2101
 3138SOL     MW12552   3.305   0.290   2.856  0.1048  0.3842  0.6835
 3139SOL     OW12553   2.417   4.651   1.533  0.0805 -0.2996  0.1591
 3139SOL    HW112554   2.388   4.622   1.620 -0.6714 -0.8984 -0.2727
 3139SOL    HW212555   2.382   4.740   1.525 -1.9958 -1.1108 -0.4657
 3139SOL     MW12556   2.408   4.659   1.544 -0.3001 -0.4893  0.0169
 3140SOL     OW12557   0.568   0.565   0.989 -0.1790  0.2452  0.3992
 3140SOL    HW112558   0.623   0.563   1.068 -0.3337  2.0241  0.5787
 3140SOL    HW212559   0.480   0.577   1.023 -0.5924 -1.4756  0.0443
 3140SOL     MW12560   0.564   0.566   1.004 -0.2555  0.2530  0.3756
 3141SOL     OW12561   3.221   4.424   5.474  0.0300  0.3075 -0.4568
 3141SOL    HW112562   3.168   4.479   5.532 -0.0766 -0.0366 -0.2234
 3141SOL    HW212563   3.306   4.469   5.470 -0.3360  0.9752 -1.0057
 3141SOL     MW12564   3.226   4.438   5.481 -0.0336  0.3511 -0.4993
 3142SOL     OW12565   4.730   0.088   4.429  0.3582  0.8612  0.7348
 3142SOL    HW112566   4.744   0.140   4.350 -0.5232  0.2970  0.1859
 3142SOL    HW212567   4.804   0.109   4.485  2.8157 -1.1460 -1.4942
 3142SOL     MW12568   4.742   0.098   4.426  0.5703  0.5152  0.3609
 3143SOL     OW12569   3.940   3.448   3.060 -0.5706  0.1213 -0.1532
 3143SOL    HW112570   4.026   3.470   3.096 -0.9759  2.2160 -0.3770
 3143SOL    HW212571   3.898   3.396   3.129  0.7049 -0.6202  0.0981
 3143SOL     MW12572   3.946   3.444   3.074 -0.4535  0.3034 -0.1495
 3144SOL     OW12573   4.773   5.308   3.554  0.4562  0.2926  0.4461
 3144SOL    HW112574   4.844   5.371   3.541 -0.4512  1.2152 -0.1959
 3144SOL    HW212575   4.708   5.354   3.606 -0.8061  0.3918 -1.1281
 3144SOL     MW12576   4.774   5.323   3.559  0.1642  0.4301  0.1479
 3145SOL     OW12577   4.275   0.845   3.377 -0.0854  0.5097 -0.0523
 3145SOL    HW112578   4.231   0.832   3.460  1.0988 -0.3810  0.4703
 3145SOL    HW212579   4.210   0.820   3.311 -0.4210 -0.6559  0.6836
 3145SOL     MW12580   4.260   0.840   3.379  0.0288  0.2330  0.1171
 3146SOL     OW12581   3.711   2.953   3.850 -0.0133  0.3332 -0.2657
 3146SOL    HW112582   3.659   2.973   3.773  1.1775  0.6340 -1.0232
 3146SOL    HW212583   3.660   2.988   3.923 -0.8027  0.7263 -0.9901
 3146SOL     MW12584   3.697   2.960   3.850  0.0408  0.4266 -0.4651
 3147SOL     OW12585   3.590   0.680   4.684 -0.0655 -0.3469  0.5547
 3147SOL    HW112586   3.639   0.696   4.765  1.6809  0.9731 -0.6707
 3147SOL    HW212587   3.550   0.764   4.662 -0.0738 -0.5400 -0.2163
 3147SOL     MW12588   3.591   0.694   4.692  0.1684 -0.1952  0.2860
 3148SOL     OW12589   2.833   3.739   2.411 -0.2785  0.4425 -0.1684
 3148SOL    HW112590   2.828   3.645   2.431  0.4808  0.0855 -1.5304
 3148SOL    HW212591   2.778   3.780   2.478 -0.4590 -0.9454  0.5904
 3148SOL     MW12592   2.825   3.732   2.423 -0.2006  0.2077 -0.2496
 3149SOL     OW12593   2.297   0.245   5.205  0.4312  0.3822  0.2663
 3149SOL    HW112594   2.257   0.234   5.119 -1.3021 -2.1413  1.2776
 3149SOL    HW212595   2.349   0.325   5.197  0.3703  0.2274 -3.0948
 3149SOL     MW12596   2.298   0.255   5.192  0.1897  0.0218 -0.0500
 3150SOL     OW12597   3.830   1.879   4.171  0.1963 -0.1223 -0.0061
 3150SOL    HW112598   3.898   1.922   4.119 -0.4492 -0.4184 -1.1409
 3150SOL    HW212599   3.877   1.816   4.225  0.9620  0.7151  0.3257
 3150SOL     MW12600   3.845   1.877   4.171  0.2125 -0.0494 -0.1141
 3151SOL     OW12601   1.794   2.312   4.231  0.0363  0.3268 -0.4672
 3151SOL    HW112602   1.812   2.326   4.324 -1.2370 -0.1746 -0.1266
 3151SOL    HW212603   1.725   2.246   4.230  0.2160  0.1453 -1.7833
 3151SOL     MW12604   1.788   2.305   4.244 -0.1109  0.2349 -0.5985
 3152SOL     OW12605   0.406   3.600   3.173 -0.3163 -0.3741 -0.0414
 3152SOL    HW112606   0.409   3.694   3.187  1.0740 -0.2141 -1.1787
 3152SOL    HW212607   0.432   3.562   3.257  1.5142  0.3579 -0.2299
 3152SOL     MW12608   0.410   3.607   3.186  0.1171 -0.2540 -0.2198
 3153SOL     OW12609   1.754   0.745   3.993  0.4419 -0.0204 -0.4714
 3153SOL    HW112610   1.804   0.773   4.070  1.0853 -1.8899 -0.1393
 3153SOL    HW212611   1.817   0.694   3.941 -0.2444  0.4021 -1.7676
 3153SOL     MW12612   1.770   0.742   3.996  0.4361 -0.2151 -0.6012
 3154SOL     OW12613   1.443   0.725   1.119 -0.1276 -0.2239  0.0323
 3154SOL    HW112614   1.363   0.692   1.160 -0.1945  1.6297  1.4865
 3154SOL    HW212615   1.498   0.752   1.192  1.5515 -0.7733 -0.9854
 3154SOL     MW12616   1.439   0.724   1.134  0.0893 -0.0484  0.0911
 3155SOL     OW12617   5.117   0.301   4.215 -0.2673  0.0953 -0.2246
 3155SOL    HW112618   5.139   0.362   4.144 -0.9004 -1.3070 -1.6847
 3155SOL    HW212619   5.183   0.232   4.209  0.5997  0.6936  1.5811
 3155SOL     MW12620   5.129   0.300   4.205 -0.2358 -0.0129 -0.1781
 3156SOL     OW12621   0.646   1.679   1.012  0.0027 -0.1024 -0.7857
 3156SOL    HW112622   0.633   1.593   1.053 -1.3322  0.1702 -0.5966
 3156SOL    HW212623   0.731   1.672   0.969 -0.0207 -1.4779 -0.6587
 3156SOL     MW12624   0.656   1.666   1.012 -0.1801 -0.2508 -0.7432
 3157SOL     OW12625   3.017   0.780   3.101  0.0033 -0.2992  0.7580
 3157SOL    HW112626   2.993   0.794   3.192  1.7176 -0.1206  1.2252
 3157SOL    HW212627   3.045   0.866   3.069  0.0971 -0.4982  0.2817
 3157SOL     MW12628   3.018   0.794   3.109  0.2467 -0.3020  0.7568
 3158SOL     OW12629   0.983   3.825   4.648 -0.0031 -0.0406 -0.7203
 3158SOL    HW112630   0.980   3.741   4.602  1.4536 -0.0750 -0.7964
 3158SOL    HW212631   0.997   3.801   4.740 -2.0328  0.0599 -0.3379
 3158SOL     MW12632   0.985   3.810   4.654 -0.0802 -0.0317 -0.6791
 3159SOL     OW12633   4.449   2.688   0.997  0.0036  0.1596 -0.3481
 3159SOL    HW112634   4.439   2.775   0.958  1.3202  0.0615 -0.9654
 3159SOL    HW212635   4.459   2.629   0.922 -0.9081 -0.5473  0.0616
 3159SOL     MW12636   4.449   2.691   0.981  0.0581  0.0513 -0.3760
 3160SOL     OW12637   3.349   3.895   1.738  0.0053  0.2962  0.4529
 3160SOL    HW112638   3.417   3.852   1.789 -1.1174  0.1209  1.8735
 3160SOL    HW212639   3.321   3.828   1.675  2.0828  0.8364 -1.1740
 3160SOL     MW12640   3.354   3.880   1.736  0.1338  0.3453  0.4251
 3161SOL     OW12641   2.863   2.114   4.586 -0.0040 -0.1501 -0.2685
 3161SOL    HW112642   2.909   2.036   4.618 -0.6368 -0.8686 -1.0569
 3161SOL    HW212643   2.910   2.188   4.625  0.6329 -0.9251  0.4612
 3161SOL     MW12644   2.876   2.113   4.595 -0.0034 -0.3511 -0.2764
 3162SOL     OW12645   1.237   2.363   3.470 -0.1243  0.0760 -0.2150
 3162SOL    HW112646   1.154   2.331   3.507  0.7215  0.5168  2.1971
 3162SOL    HW212647   1.216   2.451   3.438 -0.2161  0.9448  2.0778
 3162SOL     MW12648   1.223   2.370   3.470 -0.0228  0.2522  0.4181
 3163SOL     OW12649   2.087   4.529   5.346  0.2151  0.5606 -0.3651
 3163SOL    HW112650   2.167   4.504   5.393 -0.1626  0.7570  0.4053
 3163SOL    HW212651   2.023   4.463   5.372  0.0336  0.6074 -0.6983
 3163SOL     MW12652   2.089   4.517   5.356  0.1399  0.5933 -0.3062
 3164SOL     OW12653   2.207   2.981   4.844 -0.5115 -0.1228 -0.1452
 3164SOL    HW112654   2.263   3.055   4.821 -0.8702 -0.1373 -1.1433
 3164SOL    HW212655   2.265   2.920   4.890  0.1885  0.0788 -0.7319
 3164SOL     MW12656   2.222   2.983   4.847 -0.4656 -0.0976 -0.3585
 3165SOL     OW12657   5.184   4.967   3.193  0.0632  0.2064 -0.1769
 3165SOL    HW112658   5.276   4.987   3.173  0.1642 -0.0961 -0.0110
 3165SOL    HW212659   5.134   5.023   3.133  0.3551  0.3223 -0.3139
 3165SOL     MW12660   5.190   4.977   3.182  0.1161  0.1813 -0.1730
 3166SOL     OW12661   4.591   3.503   4.924 -0.1478  0.1929  0.5831
 3166SOL    HW112662   4.678   3.502   4.964 -0.3077  0.0147  0.9299
 3166SOL    HW212663   4.565   3.411   4.919  0.2113  0.1395 -0.6992
 3166SOL     MW12664   4.599   3.491   4.929 -0.1210  0.1617  0.4572
 3167SOL     OW12665   4.514   0.115   2.375 -0.7217 -0.5337  0.2788
 3167SOL    HW112666   4.489   0.077   2.459  0.1532  1.0338  1.2823
 3167SOL    HW212667   4.604   0.087   2.362 -1.4161 -2.3845 -1.1429
 3167SOL     MW12668   4.522   0.106   2.385 -0.6974 -0.5718  0.2225
 3168SOL     OW12669   0.395   5.354   1.382 -0.3688  0.2843 -0.2424
 3168SOL    HW112670   0.324   5.354   1.447  0.6493 -0.4430  0.9343
 3168SOL    HW212671   0.353   5.330   1.300 -1.5991  0.5636  0.2854
 3168SOL     MW12672   0.380   5.351   1.380 -0.3974  0.2240 -0.0130
 3169SOL     OW12673   3.702   3.665   0.562 -0.9588  0.7863 -0.2224
 3169SOL    HW112674   3.749   3.672   0.479 -0.3010 -0.6028  0.0049
 3169SOL    HW212675   3.610   3.669   0.537 -0.7690  0.6386 -0.9909
 3169SOL     MW12676   3.696   3.667   0.547 -0.8447  0.5795 -0.2952
 3170SOL     OW12677   1.001   2.483   4.938 -0.6322  0.0058  0.1899
 3170SOL    HW112678   1.000   2.425   4.862  1.5364  0.6498 -0.4086
 3170SOL    HW212679   1.012   2.424   5.013 -0.0803 -0.4787 -0.2654
 3170SOL     MW12680   1.002   2.467   4.938 -0.2661  0.0273  0.0481
 3171SOL     OW12681   3.202   5.425   4.110 -0.2972  0.7247  0.2060
 3171SOL    HW112682   3.257   5.388   4.041 -2.2948  2.2087 -2.3988
 3171SOL    HW212683   3.202   5.359   4.179  0.7424 -1.5177 -1.7887
 3171SOL     MW12684   3.209   5.411   4.110 -0.4261  0.6226 -0.4130
 3172SOL     OW12685   2.233   0.435   2.464  0.2974 -0.1204 -0.1251
 3172SOL    HW112686   2.190   0.374   2.524 -0.3206  1.0042  0.6084
 3172SOL    HW212687   2.250   0.384   2.385  1.0816 -1.6258  0.9785
 3172SOL     MW12688   2.229   0.420   2.462  0.3198 -0.1716  0.1222
 3173SOL     OW12689   1.854   1.024   0.273  0.2619 -0.1004 -0.6058
 3173SOL    HW112690   1.873   1.118   0.265 -1.0785  0.2761  0.3776
 3173SOL    HW212691   1.919   0.993   0.337 -0.4270  0.5460  0.4377
 3173SOL     MW12692   1.866   1.033   0.281 -0.0112  0.0372 -0.3330
 3174SOL     OW12693   4.854   0.243   4.211  0.2694  0.4117 -0.1011
 3174SOL    HW112694   4.942   0.273   4.231  0.8417 -1.5972  0.6448
 3174SOL    HW212695   4.865   0.151   4.187 -1.6634  0.0097  0.3623
 3174SOL     MW12696   4.867   0.235   4.210  0.0863  0.0872  0.0617
 3175SOL     OW12697   0.195   5.026   4.710 -0.6117  0.3759 -0.1986
 3175SOL    HW112698   0.206   5.002   4.618  2.0529 -1.3334  0.4562
 3175SOL    HW212699   0.253   5.101   4.722  0.3931 -0.4743  0.4190
 3175SOL     MW12700   0.204   5.033   4.699 -0.1178  0.0315 -0.0273
 3176SOL     OW12701   2.109   3.925   1.806  0.2317  0.2072  0.5223
 3176SOL    HW112702   2.101   3.830   1.817 -0.8003  0.1617 -0.4883
 3176SOL    HW212703   2.171   3.936   1.734 -0.5756  0.2665 -0.1694
 3176SOL     MW12704   2.116   3.914   1.798 -0.0158  0.2090  0.2932
 3177SOL     OW12705   0.883   0.795   1.272  0.4028  0.6002  0.7448
 3177SOL    HW112706   0.939   0.723   1.242  0.3352  0.2118  1.5248
 3177SOL    HW212707   0.795   0.770   1.245  0.4359  0.5969  0.6391
 3177SOL     MW12708   0.879   0.782   1.264  0.3981  0.5475  0.8355
 3178SOL     OW12709   4.702   4.075   1.445 -0.4316  0.0453  0.5170
 3178SOL    HW112710   4.749   4.038   1.520  0.5740 -0.4303 -0.3269
 3178SOL    HW212711   4.771   4.095   1.381 -1.3424 -0.3844 -0.6297
 3178SOL     MW12712   4.718   4.072   1.447 -0.4188 -0.0766  0.2491
 3179SOL     OW12713   4.663   3.688   3.815  0.0250 -0.3870 -0.0527
 3179SOL    HW112714   4.712   3.756   3.861 -1.0631  1.1173 -1.0360
 3179SOL    HW212715   4.661   3.615   3.877 -0.0742  1.0081  1.7001
 3179SOL     MW12716   4.669   3.687   3.830 -0.1348  0.0032  0.0509
 3180SOL     OW12717   1.432   2.205   5.355 -0.0110 -0.2266  0.7162
 3180SOL    HW112718   1.346   2.248   5.351 -0.0888 -0.2937  1.4808
 3180SOL    HW212719   1.436   2.169   5.443  0.7270 -0.3918  0.6168
 3180SOL     MW12720   1.421   2.206   5.366  0.0778 -0.2579  0.8057
 3181SOL     OW12721   0.842   5.376   5.183  0.7000  0.3327 -0.3377
 3181SOL    HW112722   0.873   5.418   5.102  1.1051 -0.1669 -0.4447
 3181SOL    HW212723   0.765   5.426   5.207 -0.6221 -0.7246 -2.1340
 3181SOL     MW12724   0.836   5.389   5.175  0.5766  0.1232 -0.5939
 3182SOL     OW12725   1.850   2.780   0.495 -0.3284  0.3924 -0.4278
 3182SOL    HW112726   1.851   2.713   0.427  1.0533 -0.0644  0.0210
 3182SOL    HW212727   1.766   2.766   0.541  0.2916 -1.5952  0.1950
 3182SOL     MW12728   1.839   2.769   0.492 -0.0590  0.0635 -0.2836
 3183SOL     OW12729   4.058   2.773   0.033  0.1347  0.1998  0.1186
 3183SOL    HW112730   4.042   2.830   0.108  3.5398 -0.0600  1.2161
 3183SOL    HW212731   4.026   2.823  -0.042 -0.9181  1.6435  1.4499
 3183SOL     MW12732   4.051   2.787   0.033  0.4512  0.3591  0.4454
 3184SOL     OW12733   0.541   0.767   0.801  0.1980 -0.1096 -0.3274
 3184SOL    HW112734   0.547   0.695   0.864  2.2255  0.2538 -0.0596
 3184SOL    HW212735   0.592   0.737   0.725 -0.4315  0.3414 -0.9468
 3184SOL     MW12736   0.548   0.753   0.799  0.3862  0.0000 -0.3747
 3185SOL     OW12737   2.901   4.748   2.696  0.1037  0.5975  0.1848
 3185SOL    HW112738   2.820   4.699   2.709  0.8511 -1.0187 -0.9195
 3185SOL    HW212739   2.959   4.717   2.766  1.3463 -1.9130 -1.8346
 3185SOL     MW12740   2.898   4.738   2.707  0.3715  0.0422 -0.2356
 3186SOL     OW12741   3.914   0.654   5.116 -0.0581 -0.0509  0.1971
 3186SOL    HW112742   3.936   0.566   5.147 -0.8564  0.0580  1.1375
 3186SOL    HW212743   3.992   0.707   5.135 -0.0230 -0.3004  0.7752
 3186SOL     MW12744   3.927   0.650   5.123 -0.1608 -0.0698  0.4015
 3187SOL     OW12745   4.475   0.282   5.052 -0.5215 -0.0432 -0.3174
 3187SOL    HW112746   4.490   0.311   4.962 -1.4390  0.1221 -0.4257
 3187SOL    HW212747   4.419   0.350   5.090 -1.8039 -1.0931 -0.2476
 3187SOL     MW12748   4.469   0.295   5.045 -0.8176 -0.1623 -0.3226
 3188SOL     OW12749   2.721   0.821   2.010 -0.0609  0.0704 -0.1566
 3188SOL    HW112750   2.654   0.830   1.942 -0.1077 -1.2144 -0.2944
 3188SOL    HW212751   2.765   0.739   1.989  0.0823 -0.2236  1.2230
 3188SOL     MW12752   2.718   0.811   1.998 -0.0479 -0.1421  0.0105
 3189SOL     OW12753   0.593   0.105   2.357  0.2232 -0.2520  0.4910
 3189SOL    HW112754   0.638   0.184   2.387 -1.7742  0.7121  1.1379
 3189SOL    HW212755   0.538   0.135   2.285 -0.5007 -1.0429  0.6932
 3189SOL     MW12756   0.592   0.119   2.352 -0.1431 -0.2287  0.6053
 3190SOL     OW12757   3.717   1.983   1.233 -0.1420 -0.5230  0.3060
 3190SOL    HW112758   3.714   1.896   1.193 -0.9526 -0.0166 -0.7737
 3190SOL    HW212759   3.688   1.968   1.323 -0.9787 -1.2740 -0.0710
 3190SOL     MW12760   3.713   1.969   1.240 -0.3637 -0.5559  0.1099
 3191SOL     OW12761   0.272   2.615   0.175  0.1861  0.4789  0.2792
 3191SOL    HW112762   0.200   2.677   0.161  0.0510  0.8792  2.4418
 3191SOL    HW212763   0.296   2.626   0.267  0.0471 -2.7871  0.8397
 3191SOL     MW12764   0.265   2.625   0.185  0.1492  0.0932  0.6457
 3192SOL     OW12765   3.573   1.679   0.092 -0.9229 -0.2561  0.9833
 3192SOL    HW112766   3.555   1.585   0.100 -0.7216 -0.3973 -0.1409
 3192SOL    HW212767   3.506   1.711   0.032  0.6227 -0.2061 -0.7866
 3192SOL     MW12768   3.561   1.671   0.085 -0.6878 -0.2684  0.5938
 3193SOL     OW12769   3.319   1.270   0.721 -0.1093  0.5421  1.0660
 3193SOL    HW112770   3.393   1.210   0.731  0.2671  1.1035  1.7707
 3193SOL    HW212771   3.242   1.214   0.728  0.2438  0.0670  1.2243
 3193SOL     MW12772   3.319   1.255   0.723 -0.0111  0.5537  1.1821
 3194SOL     OW12773   0.260   2.616   3.756  0.0164 -0.2219  0.1593
 3194SOL    HW112774   0.251   2.663   3.673 -2.0937 -0.6711  0.0662
 3194SOL    HW212775   0.253   2.684   3.823 -0.1055 -0.0570 -0.0186
 3194SOL     MW12776   0.258   2.632   3.754 -0.2840 -0.2602  0.1229
 3195SOL     OW12777   4.760   5.452   4.872 -0.0166  0.3478 -0.1358
 3195SOL    HW112778   4.832   5.415   4.821  1.0225  0.9962  0.8200
 3195SOL    HW212779   4.788   5.445   4.963 -1.6123 -0.3016  0.3438
 3195SOL     MW12780   4.773   5.446   4.877 -0.0915  0.3477  0.0574
 3196SOL     OW12781   2.499   0.200   2.886 -0.0063 -0.0158  0.5091
 3196SOL    HW112782   2.541   0.148   2.818 -1.0444 -0.5176  0.2293
 3196SOL    HW212783   2.539   0.170   2.968  1.3709  0.7139  0.1296
 3196SOL     MW12784   2.510   0.189   2.888  0.0393  0.0148  0.4204
 3197SOL     OW12785   0.488   3.186   0.734  0.5506 -0.0636  0.1163
 3197SOL    HW112786   0.421   3.162   0.797 -1.1970  0.6579 -1.3575
 3197SOL    HW212787   0.554   3.233   0.785  0.0023 -0.9047  1.6392
 3197SOL     MW12788   0.488   3.189   0.749  0.2416 -0.0797  0.1229
 3198SOL     OW12789   2.619   4.734   2.383 -0.3565  0.1641  0.4102
 3198SOL    HW112790   2.677   4.810   2.388  0.7229 -0.7438  3.4196
 3198SOL    HW212791   2.678   4.658   2.386 -1.3984 -0.9112 -2.5371
 3198SOL     MW12792   2.634   4.734   2.384 -0.3514 -0.1028  0.4185
 3199SOL     OW12793   2.405   4.302   5.134  0.5253 -0.5826 -0.4596
 3199SOL    HW112794   2.496   4.285   5.109  0.6370 -0.0636 -0.4205
 3199SOL    HW212795   2.388   4.390   5.103  0.6713  0.0875  1.2378
 3199SOL     MW12796   2.415   4.311   5.127  0.5600 -0.4226 -0.2259
 3200SOL     OW12797   3.018   4.782   0.483 -0.2730  0.2677  0.4940
 3200SOL    HW112798   3.016   4.875   0.509 -0.7268  0.4684 -0.2109
 3200SOL    HW212799   3.109   4.765   0.462  0.1824  0.0087  2.4647
 3200SOL     MW12800   3.030   4.792   0.484 -0.2728  0.2599  0.6644
 3201SOL     OW12801   2.001   1.638   3.651  0.3243 -0.2416  0.5401
 3201SOL    HW112802   2.047   1.555   3.639 -0.9533 -1.0656  1.1071
 3201SOL    HW212803   1.985   1.642   3.746 -0.2836  0.2788  0.4200
 3201SOL     MW12804   2.005   1.627   3.662  0.0705 -0.2824  0.6002
 3202SOL     OW12805   0.498   4.827   1.623 -0.0752 -0.0962 -0.3413
 3202SOL    HW112806   0.537   4.757   1.569 -1.7794 -1.0517 -0.4129
 3202SOL    HW212807   0.450   4.881   1.560  0.3337  0.5077 -0.1388
 3202SOL     MW12808   0.497   4.825   1.607 -0.2495 -0.1435 -0.3237
 3203SOL     OW12809   3.124   1.969   2.854  0.2007  0.0904 -0.2088
 3203SOL    HW112810   3.212   1.966   2.892 -0.4555  0.2260  1.4257
 3203SOL    HW212811   3.068   1.999   2.926 -0.9536  1.6090 -1.6671
 3203SOL     MW12812   3.128   1.973   2.869 -0.0430  0.3130 -0.1851
 3204SOL     OW12813   5.342   4.213   1.503 -0.3848  0.0850 -0.0433
 3204SOL    HW112814   5.328   4.212   1.408  0.5167 -0.4684 -0.1792
 3204SOL    HW212815   5.253   4.216   1.540 -0.7372  0.8542 -0.8960
 3204SOL     MW12816   5.328   4.214   1.495 -0.3109  0.1140 -0.1763
 3205SOL     OW12817   4.473   4.079   0.969  0.6928  0.2431  0.2037
 3205SOL    HW112818   4.566   4.081   0.947  0.1325  1.9795 -2.5462
 3205SOL    HW212819   4.470   4.097   1.063  3.0935  0.8473  0.2364
 3205SOL     MW12820   4.485   4.082   0.979  0.9405  0.5581 -0.1620
 3206SOL     OW12821   4.021   0.603   3.776 -0.4794 -0.4564 -0.7513
 3206SOL    HW112822   4.071   0.547   3.716  1.4884  0.4104 -0.0091
 3206SOL    HW212823   3.933   0.568   3.774  0.6247 -3.5252 -0.4178
 3206SOL     MW12824   4.016   0.591   3.768 -0.0660 -0.7528 -0.6065
 3207SOL     OW12825   0.887   0.019   2.623  0.5612 -0.4511 -0.1303
 3207SOL    HW112826   0.902  -0.006   2.714  0.7665  1.6528  0.4653
 3207SOL    HW212827   0.795   0.001   2.607  0.8496 -2.2303 -0.0193
 3207SOL     MW12828   0.877   0.013   2.633  0.6276 -0.4074 -0.0352
 3208SOL     OW12829   3.362   0.062   3.737 -0.3449 -0.1523  0.1259
 3208SOL    HW112830   3.344  -0.029   3.761 -0.2482 -0.3403 -0.4946
 3208SOL    HW212831   3.349   0.111   3.818  0.6725 -0.8618  0.7423
 3208SOL     MW12832   3.358   0.056   3.751 -0.1950 -0.2731  0.1253
 3209SOL     OW12833   1.352   5.296   2.968  0.5989  0.5342  0.4470
 3209SOL    HW112834   1.400   5.367   3.010 -1.1343  1.7070  0.5642
 3209SOL    HW212835   1.388   5.216   3.007  0.5266  1.4812  2.6426
 3209SOL     MW12836   1.363   5.294   2.979  0.3559  0.8195  0.7583
 3210SOL     OW12837   3.218   2.060   1.638 -0.0215 -0.2896 -0.5281
 3210SOL    HW112838   3.279   2.129   1.610 -0.6435 -0.0189 -1.2663
 3210SOL    HW212839   3.209   2.073   1.732 -0.7300  1.1638 -0.7554
 3210SOL     MW12840   3.225   2.071   1.647 -0.2005 -0.0576 -0.6580
 3211SOL     OW12841   0.564   4.621   1.466  0.0896  0.7717 -0.1052
 3211SOL    HW112842   0.655   4.610   1.440 -0.4197 -0.6209 -1.4764
 3211SOL    HW212843   0.517   4.637   1.384 -1.2362 -1.2671  0.1783
 3211SOL     MW12844   0.570   4.622   1.452 -0.1574  0.3099 -0.2516
 3212SOL     OW12845   2.452   3.495   4.109 -0.4358 -0.0470  0.0134
 3212SOL    HW112846   2.458   3.432   4.180  0.3305  0.6256  0.5591
 3212SOL    HW212847   2.444   3.442   4.030 -0.6154 -0.8062  0.5308
 3212SOL     MW12848   2.451   3.479   4.108 -0.3569 -0.0586  0.1565
 3213SOL     OW12849   2.993   3.794   3.888  0.0089  0.0843  0.2395
 3213SOL    HW112850   2.947   3.877   3.893 -0.1364 -0.0236  0.7787
 3213SOL    HW212851   3.033   3.783   3.974  0.2188 -0.2923  0.0978
 3213SOL     MW12852   2.992   3.803   3.900  0.0176  0.0191  0.2930
 3214SOL     OW12853   2.857   2.798   0.214 -0.2384 -0.7814 -0.5271
 3214SOL    HW112854   2.820   2.865   0.156 -0.4112 -1.9708 -1.8427
 3214SOL    HW212855   2.865   2.720   0.159  1.3984 -1.4279  0.5402
 3214SOL     MW12856   2.853   2.796   0.199 -0.0414 -1.0285 -0.5605
 3215SOL     OW12857   0.995   1.364   0.991 -0.0906  0.3358 -0.0580
 3215SOL    HW112858   1.091   1.359   0.994 -0.1180 -0.1494  0.4567
 3215SOL    HW212859   0.969   1.361   1.083 -0.6470 -0.9823 -0.2314
 3215SOL     MW12860   1.005   1.363   1.004 -0.1691  0.0931 -0.0121
 3216SOL     OW12861   0.113   0.306   0.259  0.0420  0.1819 -0.0215
 3216SOL    HW112862   0.135   0.398   0.245  0.0010  0.1284 -0.4666
 3216SOL    HW212863   0.197   0.263   0.271  0.0681  0.2608  0.0777
 3216SOL     MW12864   0.127   0.313   0.258  0.0400  0.1853 -0.0680
 3217SOL     OW12865   1.904   2.867   1.055  0.2374 -0.0357 -0.1028
 3217SOL    HW112866   1.862   2.909   0.981  0.7822  0.6981 -0.0007
 3217SOL    HW212867   1.917   2.776   1.027 -2.1100 -0.5014  0.1587
 3217SOL     MW12868   1.900   2.860   1.041 -0.0052  0.0004 -0.0539
 3218SOL     OW12869   3.118   2.313   0.482 -0.5356  0.4721  0.6892
 3218SOL    HW112870   3.094   2.405   0.479  0.0674  0.7298  2.4085
 3218SOL    HW212871   3.202   2.312   0.529 -0.1172 -0.8834 -0.0288
 3218SOL     MW12872   3.126   2.325   0.488 -0.3982  0.3243  0.8240
 3219SOL     OW12873   4.846   1.967   1.829 -0.0144  0.5610 -0.4593
 3219SOL    HW112874   4.820   2.027   1.759  1.9881  2.0148 -0.0310
 3219SOL    HW212875   4.903   1.903   1.787 -0.1417  0.4364 -0.4450
 3219SOL     MW12876   4.850   1.966   1.814  0.2379  0.7399 -0.3997
 3220SOL     OW12877   3.755   3.635   1.737  0.3938  0.1623  0.1863
 3220SOL    HW112878   3.746   3.546   1.770  1.3730 -0.0840 -0.1688
 3220SOL    HW212879   3.740   3.629   1.643  0.6673  0.3281  0.1284
 3220SOL     MW12880   3.752   3.622   1.729  0.5624  0.1514  0.1307
 3221SOL     OW12881   2.161   1.401   3.522  0.0054  0.0438  0.7891
 3221SOL    HW112882   2.132   1.313   3.502 -0.9388 -0.0872  2.5876
 3221SOL    HW212883   2.117   1.457   3.457 -0.0653 -0.6894  0.1944
 3221SOL     MW12884   2.151   1.397   3.510 -0.1312 -0.0725  0.9511
 3222SOL     OW12885   3.390   5.284   0.081 -0.3480  0.3531 -0.1010
 3222SOL    HW112886   3.336   5.352   0.041  0.9879  0.8853 -1.0664
 3222SOL    HW212887   3.409   5.317   0.169  2.1925  2.4365 -1.3028
 3222SOL     MW12888   3.385   5.297   0.087  0.1737  0.7051 -0.3926
 3223SOL     OW12889   0.113   2.084   1.971 -0.2769 -0.1291 -0.7153
 3223SOL    HW112890   0.025   2.047   1.977 -0.0606 -0.4583  1.0377
 3223SOL    HW212891   0.102   2.175   1.999  0.0288 -0.3493  0.1443
 3223SOL     MW12892   0.099   2.092   1.976 -0.2066 -0.2031 -0.3637
 3224SOL     OW12893   0.892   0.420   0.710  0.3681 -0.4912  0.5149
 3224SOL    HW112894   0.897   0.473   0.789 -0.2634 -1.4416  1.2093
 3224SOL    HW212895   0.983   0.412   0.681  0.4200  1.4874  0.0227
 3224SOL     MW12896   0.905   0.426   0.717  0.2901 -0.3528  0.5421
 3225SOL     OW12897   0.579   4.979   2.446  0.0221 -0.4214  0.7792
 3225SOL    HW112898   0.657   4.967   2.391 -1.2421 -0.6702 -1.0607
 3225SOL    HW212899   0.565   4.893   2.486 -0.2885 -0.9025 -0.3005
 3225SOL     MW12900   0.588   4.966   2.444 -0.1898 -0.5196  0.3863
 3226SOL     OW12901   1.811   0.995   3.841 -0.0709  0.2011  0.1100
 3226SOL    HW112902   1.762   1.064   3.886 -1.6730 -0.6436 -0.2678
 3226SOL    HW212903   1.781   0.914   3.881 -1.4029 -0.5766 -2.2696
 3226SOL     MW12904   1.801   0.993   3.852 -0.4658 -0.0172 -0.2611
 3227SOL     OW12905   3.466   3.171   2.564 -0.0420 -0.1917 -0.1165
 3227SOL    HW112906   3.491   3.262   2.578 -0.2897 -0.3458  1.5657
 3227SOL    HW212907   3.549   3.124   2.557  0.1285 -0.1196  1.1984
 3227SOL     MW12908   3.481   3.177   2.565 -0.0524 -0.2028  0.2868
 3228SOL     OW12909   1.814   3.124   0.264 -0.0876  0.3580 -0.7398
 3228SOL    HW112910   1.742   3.063   0.279 -0.0979  0.7782  1.0942
 3228SOL    HW212911   1.892   3.077   0.293  0.7514 -0.7669 -4.2877
 3228SOL     MW12912   1.815   3.110   0.270  0.0239  0.2632 -0.9705
 3229SOL     OW12913   1.039   3.583   3.379 -0.4538  0.6003 -0.0450
 3229SOL    HW112914   1.069   3.510   3.433 -0.6080  1.1975  0.8510
 3229SOL    HW212915   1.104   3.588   3.308 -0.9698 -1.0144 -0.6865
 3229SOL     MW12916   1.052   3.574   3.377 -0.5440  0.4634 -0.0107
 3230SOL     OW12917   5.135   1.867   3.151  0.1770  0.0928  0.1916
 3230SOL    HW112918   5.206   1.849   3.090 -1.3389 -0.2421 -1.5554
 3230SOL    HW212919   5.095   1.782   3.168 -1.9857  0.6024 -1.7264
 3230SOL     MW12920   5.139   1.853   3.145 -0.3181  0.1163 -0.3017
 3231SOL     OW12921   2.545   2.361   4.084 -0.0840 -0.5524 -0.2291
 3231SOL    HW112922   2.506   2.378   3.998 -2.8067 -0.6717  0.8795
 3231SOL    HW212923   2.592   2.441   4.106 -1.3086  0.3684 -0.8790
 3231SOL     MW12924   2.546   2.374   4.076 -0.6153 -0.4445 -0.1673
 3232SOL     OW12925   4.698   1.011   4.293 -0.3270 -0.4273 -0.2940
 3232SOL    HW112926   4.618   0.960   4.287 -0.5575  0.0108 -1.2086
 3232SOL    HW212927   4.668   1.102   4.295  0.0940 -0.2930  0.8421
 3232SOL     MW12928   4.683   1.017   4.292 -0.3013 -0.3503 -0.2642
 3233SOL     OW12929   3.980   4.066   0.230 -0.4085  0.2795 -0.0733
 3233SOL    HW112930   3.991   4.151   0.188  0.2449 -1.3401 -3.4626
 3233SOL    HW212931   3.943   4.010   0.163 -1.6470 -1.9774  2.3043
 3233SOL     MW12932   3.977   4.070   0.216 -0.4872 -0.2422 -0.2095
 3234SOL     OW12933   4.867   2.306   0.215  0.4504 -0.3203  0.3863
 3234SOL    HW112934   4.956   2.325   0.244  0.5981 -0.3124 -0.0599
 3234SOL    HW212935   4.812   2.368   0.264  0.9884  1.8554 -1.5664
 3234SOL     MW12936   4.872   2.317   0.225  0.5427 -0.0264  0.0634
 3235SOL     OW12937   0.584   1.141   4.252  0.0470 -0.0863  0.2345
 3235SOL    HW112938   0.551   1.225   4.283  1.8678  0.3032  1.2812
 3235SOL    HW212939   0.633   1.106   4.327  0.2147 -1.5715 -0.5378
 3235SOL     MW12940   0.587   1.148   4.266  0.3146 -0.2337  0.2714
 3236SOL     OW12941   4.841   4.732   4.867  0.1092 -0.2438  0.1656
 3236SOL    HW112942   4.849   4.699   4.778  1.0691  0.5945 -0.0783
 3236SOL    HW212943   4.864   4.825   4.860 -1.7619  0.3426  0.9382
 3236SOL     MW12944   4.845   4.740   4.855 -0.0134 -0.0521  0.2368
 3237SOL     OW12945   3.850   1.556   1.406 -0.3721 -0.0376 -0.3824
 3237SOL    HW112946   3.892   1.474   1.433  0.8908  0.5015 -0.5980
 3237SOL    HW212947   3.885   1.573   1.319  1.0511  1.7577  0.4499
 3237SOL     MW12948   3.861   1.547   1.398 -0.0106  0.2766 -0.2994
 3238SOL     OW12949   2.558   2.858   5.322  0.4673 -0.1707  0.7333
 3238SOL    HW112950   2.521   2.921   5.383 -0.4058 -0.2762  0.3213
 3238SOL    HW212951   2.488   2.841   5.259  1.8242  1.0976 -1.2247
 3238SOL     MW12952   2.544   2.864   5.322  0.5324 -0.0142  0.4143
 3239SOL     OW12953   3.155   1.948   1.051  0.3143  0.1021 -0.1999
 3239SOL    HW112954   3.105   1.887   0.998  0.8030 -0.6555  0.1978
 3239SOL    HW212955   3.190   1.895   1.123 -3.2141  1.6250  3.0294
 3239SOL     MW12956   3.153   1.933   1.054 -0.0948  0.2051  0.2882
 3240SOL     OW12957   1.456   2.014   1.194 -0.3552 -0.3077 -0.1392
 3240SOL    HW112958   1.360   2.005   1.198 -0.2206 -1.3969  1.6106
 3240SOL    HW212959   1.485   1.939   1.143 -0.4614  0.5065 -1.4424
 3240SOL     MW12960   1.447   2.003   1.188 -0.3514 -0.3447 -0.0791
 3241SOL     OW12961   4.667   5.217   2.241  0.2033 -0.7033  0.0309
 3241SOL    HW112962   4.658   5.218   2.337  0.1097  0.3445  0.0220
 3241SOL    HW212963   4.652   5.126   2.217 -2.5397 -0.5335  0.7747
 3241SOL     MW12964   4.664   5.205   2.251 -0.1785 -0.5394  0.1298
 3242SOL     OW12965   4.711   3.590   3.142  0.0354 -0.2836 -0.7316
 3242SOL    HW112966   4.735   3.531   3.070  1.0758 -1.6131  0.6392
 3242SOL    HW212967   4.767   3.563   3.215 -0.8858  1.1069  0.5484
 3242SOL     MW12968   4.721   3.578   3.142  0.0514 -0.2754 -0.3749
 3243SOL     OW12969   1.696   3.574   1.794 -0.3008  0.2309 -0.2003
 3243SOL    HW112970   1.730   3.485   1.801  0.5346  0.5925  0.5984
 3243SOL    HW212971   1.629   3.569   1.726 -0.6223 -1.1100  0.1772
 3243SOL     MW12972   1.692   3.561   1.786 -0.2317  0.0991 -0.0420
 3244SOL     OW12973   3.246   3.569   4.901  0.2518  0.5957  0.0688
 3244SOL    HW112974   3.223   3.627   4.974 -1.4404  0.3041 -0.1881
 3244SOL    HW212975   3.183   3.591   4.832 -0.8301 -1.8767  0.1587
 3244SOL     MW12976   3.234   3.580   4.902 -0.1215  0.2237  0.0463
 3245SOL     OW12977   0.611   0.401   4.170  0.3094  0.4475 -0.0463
 3245SOL    HW112978   0.616   0.497   4.172 -0.5393  0.5081 -0.1819
 3245SOL    HW212979   0.605   0.376   4.262 -0.1854  0.5801 -0.0385
 3245SOL     MW12980   0.611   0.411   4.183  0.1286  0.4735 -0.0635
 3246SOL     OW12981   1.212   4.521   4.334 -0.0913 -0.2331  0.1024
 3246SOL    HW112982   1.222   4.522   4.429 -1.3257  0.1325  0.2496
 3246SOL    HW212983   1.299   4.543   4.300 -0.1749  2.2464  1.2259
 3246SOL     MW12984   1.225   4.524   4.342 -0.2687  0.1498  0.2734
 3247SOL     OW12985   3.974   1.898   2.428  0.4324  0.5759  0.6756
 3247SOL    HW112986   4.016   1.844   2.362  2.1411  2.1454  0.3715
 3247SOL    HW212987   3.933   1.836   2.488  3.3500 -1.1427  1.0734
 3247SOL     MW12988   3.974   1.883   2.427  1.0550  0.5558  0.6882
 3248SOL     OW12989   3.951   3.012   3.702  0.4351  0.0872 -0.6756
 3248SOL    HW112990   3.948   2.925   3.663 -2.3813 -0.4001  0.3833
 3248SOL    HW212991   3.883   3.011   3.769  2.3956  2.1360  1.5399
 3248SOL     MW12992   3.942   3.000   3.706  0.3199  0.2974 -0.2350
 3249SOL     OW12993   0.107   4.365   5.017  0.0138  0.0597 -0.9395
 3249SOL    HW112994   0.088   4.454   5.047  1.0200 -0.1425  0.3750
 3249SOL    HW212995   0.053   4.308   5.072  0.8813 -0.2404 -0.3777
 3249SOL     MW12996   0.098   4.369   5.028  0.2659 -0.0079 -0.6869
 3250SOL     OW12997   1.754   3.816   1.673  0.2002 -0.0923  0.2180
 3250SOL    HW112998   1.743   3.735   1.722 -0.6759  0.2304  0.5752
 3250SOL    HW212999   1.818   3.794   1.605 -0.2551 -1.1677  0.1156
 3250SOL     MW13000   1.761   3.802   1.670  0.0210 -0.1936  0.2523
 3251SOL     OW13001   0.629   4.392   0.109  0.1804  0.6201 -0.2597
 3251SOL    HW113002   0.582   4.386   0.026 -0.2657 -1.6147  0.0951
 3251SOL    HW213003   0.721   4.382   0.085  0.0591  0.0687 -0.5113
 3251SOL     MW13004   0.635   4.390   0.094  0.1040  0.2451 -0.2458
 3252SOL     OW13005   2.653   4.840   3.771 -0.2075  0.4646 -0.4097
 3252SOL    HW113006   2.725   4.853   3.832  0.5643  0.7539 -1.3547
 3252SOL    HW213007   2.669   4.753   3.733 -0.1841  0.6498 -0.8336
 3252SOL     MW13008   2.664   4.830   3.774 -0.1004  0.5285 -0.5939
 3253SOL     OW13009   1.714   3.895   4.595  0.6754  0.1926 -0.1185
 3253SOL    HW113010   1.714   3.953   4.519 -1.3164 -1.0009 -1.1047
 3253SOL    HW213011   1.766   3.819   4.568 -1.0531 -0.7957 -0.8184
 3253SOL     MW13012   1.721   3.893   4.581  0.1747 -0.1010 -0.3454
 3254SOL     OW13013   3.771   3.588   2.392  0.4308 -0.4099  0.1635
 3254SOL    HW113014   3.743   3.668   2.347  0.3966 -0.3325  0.3211
 3254SOL    HW213015   3.865   3.583   2.376  0.2649 -0.8915 -0.7189
 3254SOL     MW13016   3.780   3.598   2.384  0.4039 -0.4643  0.0660
 3255SOL     OW13017   1.844   2.769   4.169  0.2645 -0.2593 -0.6462
 3255SOL    HW113018   1.824   2.819   4.090 -0.7985  1.2803  0.5465
 3255SOL    HW213019   1.937   2.788   4.186  0.1861  0.3494 -0.8744
 3255SOL     MW13020   1.854   2.778   4.161  0.1109  0.0299 -0.5164
 3256SOL     OW13021   0.211   3.379   5.427 -0.1137 -0.2773  0.3888
 3256SOL    HW113022   0.288   3.325   5.419  2.4262  3.0410  0.1720
 3256SOL    HW213023   0.219   3.419   5.514 -1.9946 -0.3931  0.6579
 3256SOL     MW13024   0.222   3.377   5.438 -0.0250  0.1537  0.3958
 3257SOL     OW13025   3.474   1.053   3.247 -0.3408 -0.0656 -0.4622
 3257SOL    HW113026   3.531   1.090   3.314 -0.9162 -0.6886  0.3996
 3257SOL    HW213027   3.431   1.128   3.207 -1.3954  0.2689  1.1690
 3257SOL     MW13028   3.476   1.068   3.251 -0.5602 -0.1044 -0.1267
 3258SOL     OW13029   0.051   0.535   3.641  0.3176  0.0979 -0.1405
 3258SOL    HW113030   0.054   0.478   3.718  0.1097  0.3393  0.0463
 3258SOL    HW213031   0.127   0.593   3.651  0.4068 -0.0051 -0.2214
 3258SOL     MW13032   0.062   0.535   3.652  0.3016  0.1165 -0.1262
 3259SOL     OW13033   1.370   5.266   0.658 -0.5261 -0.1863  0.1513
 3259SOL    HW113034   1.275   5.259   0.666 -0.5777  0.5152  0.1935
 3259SOL    HW213035   1.394   5.198   0.595 -0.9418 -0.9909  0.8394
 3259SOL     MW13036   1.360   5.255   0.650 -0.5890 -0.2002  0.2496
 3260SOL     OW13037   1.845   5.382   3.792  0.0661 -0.4091  0.3875
 3260SOL    HW113038   1.928   5.337   3.803  1.9059  2.2652 -1.3383
 3260SOL    HW213039   1.823   5.413   3.880 -1.0645 -3.9734  1.5622
 3260SOL     MW13040   1.853   5.380   3.805  0.1616 -0.5289  0.3133
 3261SOL     OW13041   0.336   0.159   0.326 -0.1982  0.2145  0.2923
 3261SOL    HW113042   0.300   0.100   0.392 -0.1088  1.5997  1.6573
 3261SOL    HW213043   0.398   0.214   0.375  0.7666  0.5186 -1.1988
 3261SOL     MW13044   0.340   0.158   0.342 -0.0563  0.4419  0.2753
 3262SOL     OW13045   2.797   0.941   2.509  0.0858  0.2515 -0.1880
 3262SOL    HW113046   2.888   0.929   2.482  0.0357  0.7788 -0.6031
 3262SOL    HW213047   2.746   0.932   2.428 -0.0076  2.5788 -0.4347
 3262SOL     MW13048   2.802   0.938   2.495  0.0665  0.6357 -0.2770
 3263SOL     OW13049   0.920   5.467   4.932 -0.1725 -0.3590  0.0688
 3263SOL    HW113050   0.893   5.545   4.882 -1.6838 -0.8583  0.0708
 3263SOL    HW213051   0.942   5.403   4.865 -0.5734 -0.4789  0.0491
 3263SOL     MW13052   0.919   5.469   4.916 -0.4299 -0.4423  0.0664
 3264SOL     OW13053   1.402   2.764   4.707  0.1280 -0.4438  0.2462
 3264SOL    HW113054   1.462   2.690   4.717  0.1478 -0.1687  3.2505
 3264SOL    HW213055   1.327   2.740   4.761 -0.5472  1.0685  0.0183
 3264SOL     MW13056   1.400   2.751   4.716  0.0398 -0.2033  0.6198
 3265SOL     OW13057   1.374   3.692   0.291  0.1786  0.3112  0.1202
 3265SOL    HW113058   1.334   3.739   0.364  1.1159  1.3721 -0.0275
 3265SOL    HW213059   1.433   3.629   0.332  0.4358  0.6586  0.2868
 3265SOL     MW13060   1.376   3.690   0.306  0.3394  0.5007  0.1227
 3266SOL     OW13061   3.459   2.723   0.893  0.2326  0.1534  0.2701
 3266SOL    HW113062   3.515   2.652   0.922 -0.6971 -0.8409 -0.3195
 3266SOL    HW213063   3.501   2.802   0.928 -0.2172 -0.8392  3.4418
 3266SOL     MW13064   3.472   2.724   0.902  0.0470 -0.1140  0.6176
 3267SOL     OW13065   0.330   4.480   1.551  0.2238 -0.3883  0.0595
 3267SOL    HW113066   0.276   4.542   1.600  1.3060 -0.3544  1.2752
 3267SOL    HW213067   0.406   4.532   1.522 -0.1996 -0.5063 -1.3518
 3267SOL     MW13068   0.333   4.496   1.553  0.3125 -0.3996  0.0332
 3268SOL     OW13069   3.865   2.256   2.208 -0.3702  0.0422 -0.3491
 3268SOL    HW113070   3.811   2.283   2.134 -2.2144  0.4714  1.0633
 3268SOL    HW213071   3.927   2.328   2.219  0.3206 -0.2927 -1.7804
 3268SOL     MW13072   3.866   2.270   2.200 -0.5254  0.0549 -0.3516
 3269SOL     OW13073   2.360   0.582   0.636 -0.3405  0.3475  0.4661
 3269SOL    HW113074   2.386   0.650   0.698  0.6854  0.7098 -0.3399
 3269SOL    HW213075   2.298   0.528   0.685  2.8441 -1.3429  3.0364
 3269SOL     MW13076   2.356   0.584   0.651  0.2261  0.1688  0.7036
 3270SOL     OW13077   4.602   1.527   3.571  0.3215  0.1332  0.4608
 3270SOL    HW113078   4.519   1.568   3.546  0.5556 -0.1818 -0.9009
 3270SOL    HW213079   4.667   1.597   3.560  0.4103  0.0270  0.3110
 3270SOL     MW13080   4.600   1.542   3.566  0.3650  0.0765  0.2574
 3271SOL     OW13081   3.116   1.651   2.403 -0.1766  0.0585 -0.4702
 3271SOL    HW113082   3.180   1.583   2.385  0.5158  1.2663 -2.9567
 3271SOL    HW213083   3.156   1.704   2.473 -1.3191 -2.6734  2.5197
 3271SOL     MW13084   3.130   1.649   2.410 -0.2372 -0.1466 -0.4024
 3272SOL     OW13085   2.760   4.915   3.373 -0.1172 -0.4274 -0.2673
 3272SOL    HW113086   2.763   4.983   3.306 -0.2297 -1.6779 -1.5846
 3272SOL    HW213087   2.666   4.901   3.389 -0.0874  0.8096  1.1802
 3272SOL     MW13088   2.748   4.922   3.366 -0.1283 -0.4292 -0.2498
 3273SOL     OW13089   2.250   0.629   4.017  0.0947  0.3168  0.1069
 3273SOL    HW113090   2.339   0.638   3.984 -0.0204  0.9411 -0.0367
 3273SOL    HW213091   2.201   0.700   3.976 -0.9625 -1.2269 -1.4704
 3273SOL     MW13092   2.255   0.639   4.007 -0.0630  0.1931 -0.1247
 3274SOL     OW13093   3.802   2.081   3.604 -0.0245  0.3037  0.6550
 3274SOL    HW113094   3.868   2.146   3.630  0.0657  0.5053 -0.0554
 3274SOL    HW213095   3.845   1.997   3.619 -0.0801  0.3996  1.4155
 3274SOL     MW13096   3.817   2.078   3.610 -0.0199  0.3437  0.6617
 3275SOL     OW13097   1.350   0.101   5.359  0.3381 -0.0202 -0.3941
 3275SOL    HW113098   1.371   0.065   5.272  0.3086 -0.3660 -0.2586
 3275SOL    HW213099   1.255   0.112   5.358  0.4069  0.5656 -0.6308
 3275SOL     MW13100   1.340   0.098   5.347  0.3434  0.0121 -0.4077
 3276SOL     OW13101   0.486   4.225   4.518 -0.6106  0.0117 -0.3589
 3276SOL    HW113102   0.553   4.202   4.583  1.3096 -1.7103 -2.7630
 3276SOL    HW213103   0.439   4.299   4.557  0.6751 -0.6674  2.7689
 3276SOL     MW13104   0.489   4.232   4.532 -0.1791 -0.3114 -0.2615
 3277SOL     OW13105   1.354   4.953   3.447 -0.8323  0.4935  0.1985
 3277SOL    HW113106   1.449   4.957   3.437 -0.7526 -0.0865  0.6193
 3277SOL    HW213107   1.330   5.037   3.486 -0.5211  0.7376 -0.1412
 3277SOL     MW13108   1.364   4.965   3.451 -0.7797  0.4483  0.2094
 3278SOL     OW13109   1.280   4.350   1.156 -0.1681 -0.0099 -0.1795
 3278SOL    HW113110   1.204   4.356   1.098 -0.9558 -0.8668  0.7151
 3278SOL    HW213111   1.269   4.421   1.219  0.4171  0.6042 -0.7537
 3278SOL     MW13112   1.268   4.360   1.157 -0.1954 -0.0426 -0.1364
 3279SOL     OW13113   5.116   2.587   1.230  0.4423 -0.0768  0.4287
 3279SOL    HW113114   5.098   2.551   1.317 -1.8188  0.3383  0.1759
 3279SOL    HW213115   5.074   2.673   1.230  1.5566  0.5061 -0.6426
 3279SOL     MW13116   5.108   2.594   1.242  0.2879  0.0575  0.2505
 3280SOL     OW13117   1.347   1.294   0.418  0.3666 -0.0528 -0.2274
 3280SOL    HW113118   1.409   1.296   0.345  1.0513  1.1868  0.3400
 3280SOL    HW213119   1.310   1.383   0.420  1.2113  0.3280  1.5893
 3280SOL     MW13120   1.351   1.306   0.409  0.5724  0.1653  0.0934
 3281SOL     OW13121   5.450   2.128   2.807 -0.2859 -0.9081 -0.1934
 3281SOL    HW113122   5.418   2.087   2.887  0.2550  0.5085  0.7841
 3281SOL    HW213123   5.539   2.156   2.829 -1.0552  1.9099 -0.3487
 3281SOL     MW13124   5.457   2.126   2.821 -0.3166 -0.3382 -0.0828
 3282SOL     OW13125   3.886   3.041   3.119 -0.2247 -0.0755 -0.0550
 3282SOL    HW113126   3.980   3.022   3.114  0.0182  1.0895 -0.2143
 3282SOL    HW213127   3.860   3.057   3.029 -0.1584  1.3857  0.1503
 3282SOL     MW13128   3.895   3.041   3.107 -0.1831  0.2779 -0.0488
 3283SOL     OW13129   2.017   0.493   5.051 -0.2203  0.3896 -0.2393
 3283SOL    HW113130   2.076   0.430   5.009  0.5050 -0.4348  1.8901
 3283SOL    HW213131   2.030   0.574   5.001  2.6212  0.1985 -0.0230
 3283SOL     MW13132   2.027   0.496   5.039  0.2597  0.2529  0.0764
 3284SOL     OW13133   0.631   0.050   3.362 -0.2346  0.2384  0.1821
 3284SOL    HW113134   0.641  -0.043   3.381 -0.2105  0.1885 -0.0724
 3284SOL    HW213135   0.705   0.091   3.407  0.3851  0.0102 -0.5997
 3284SOL     MW13136   0.643   0.043   3.371 -0.1480  0.2010  0.0426
 3285SOL     OW13137   2.736   4.863   1.297 -0.1184  0.3460  0.2503
 3285SOL    HW113138   2.714   4.791   1.356  2.7045 -1.8219 -1.0685
 3285SOL    HW213139   2.779   4.927   1.353  1.1594 -0.9962  0.8813
 3285SOL     MW13140   2.739   4.862   1.312  0.4335 -0.1264  0.1577
 3286SOL     OW13141   3.073   0.838   4.452  0.2327 -0.3355 -0.5619
 3286SOL    HW113142   2.990   0.881   4.474  0.5482  0.2104 -0.4386
 3286SOL    HW213143   3.127   0.850   4.530  0.7995  0.2340 -1.0408
 3286SOL     MW13144   3.069   0.845   4.466  0.3514 -0.1854 -0.6098
 3287SOL     OW13145   1.569   2.160   3.589  0.4417 -0.0449  0.1686
 3287SOL    HW113146   1.642   2.222   3.583  0.5912 -0.2061  0.3350
 3287SOL    HW213147   1.526   2.166   3.504  0.0336  0.8144  0.4204
 3287SOL     MW13148   1.573   2.169   3.577  0.4069  0.0491  0.2248
 3288SOL     OW13149   0.192   4.016   2.909 -0.1703  0.1825 -0.3740
 3288SOL    HW113150   0.165   4.012   3.001  0.4662 -0.4454 -0.2027
 3288SOL    HW213151   0.137   4.084   2.870  1.1939  2.2132  1.0465
 3288SOL     MW13152   0.181   4.024   2.916  0.0989  0.3713 -0.1598
 3289SOL     OW13153   2.523   0.807   4.301  0.0363 -0.5658  0.0812
 3289SOL    HW113154   2.431   0.789   4.282 -0.2379  0.7068  0.0943
 3289SOL    HW213155   2.571   0.748   4.243 -0.7821 -0.9804 -0.1967
 3289SOL     MW13156   2.517   0.797   4.291 -0.1107 -0.4503  0.0455
 3290SOL     OW13157   0.190   0.731   3.988 -0.3382  0.3264 -0.3472
 3290SOL    HW113158   0.214   0.638   3.992 -1.5198  0.0075 -0.0188
 3290SOL    HW213159   0.208   0.757   3.898  1.1945  0.1364 -0.1202
 3290SOL     MW13160   0.196   0.722   3.976 -0.2910  0.2579 -0.2724
 3291SOL     OW13161   1.807   0.660   2.707 -0.0640  0.0347  0.3806
 3291SOL    HW113162   1.737   0.658   2.772  0.0120  0.4670  0.4758
 3291SOL    HW213163   1.763   0.681   2.625 -0.3157 -1.5377  0.0828
 3291SOL     MW13164   1.792   0.662   2.705 -0.0877 -0.1187  0.3533
 3292SOL     OW13165   5.000   0.696   2.111 -0.1734 -0.4047 -0.5347
 3292SOL    HW113166   4.959   0.667   2.029 -0.9304 -0.3998 -0.1652
 3292SOL    HW213167   5.093   0.703   2.090 -0.6051  1.7350 -2.0101
 3292SOL     MW13168   5.007   0.693   2.097 -0.3334 -0.1160 -0.6835
 3293SOL     OW13169   0.656   0.700   4.135 -0.1222 -0.0538 -0.4951
 3293SOL    HW113170   0.591   0.677   4.069 -2.1504  1.0463  1.0232
 3293SOL    HW213171   0.676   0.792   4.119  0.9078 -0.3159 -0.7877
 3293SOL     MW13172   0.650   0.709   4.124 -0.2565  0.0590 -0.3302
 3294SOL     OW13173   1.402   0.364   2.307  0.3104  0.4670 -0.0055
 3294SOL    HW113174   1.336   0.356   2.238  0.9557  0.8970 -0.6871
 3294SOL    HW213175   1.352   0.389   2.385 -0.5142 -0.7020 -0.1346
 3294SOL     MW13176   1.386   0.367   2.309  0.2863  0.3675 -0.1146
 3295SOL     OW13177   3.518   2.245   5.224 -0.2344  0.3197 -0.1316
 3295SOL    HW113178   3.462   2.320   5.204  0.1783  0.5503 -0.4346
 3295SOL    HW213179   3.584   2.245   5.155  0.9696  0.8861  0.9829
 3295SOL     MW13180   3.519   2.255   5.212 -0.0168  0.4270 -0.0224
 3296SOL     OW13181   1.751   2.550   1.953 -0.1797  0.3290  0.1563
 3296SOL    HW113182   1.768   2.457   1.967 -0.1880  0.5754  2.0701
 3296SOL    HW213183   1.835   2.593   1.969 -0.1216  0.6679 -0.9301
 3296SOL     MW13184   1.765   2.543   1.957 -0.1730  0.4077  0.2677
 3297SOL     OW13185   1.754   3.522   0.210  0.1016 -0.0413 -0.3858
 3297SOL    HW113186   1.680   3.524   0.270 -0.4045  1.5320 -1.0128
 3297SOL    HW213187   1.720   3.482   0.130 -0.5375  1.9996 -1.1923
 3297SOL     MW13188   1.740   3.517   0.207 -0.0525  0.4451 -0.5787
 3298SOL     OW13189   5.066   1.664   2.637  0.0197 -0.6329  0.2563
 3298SOL    HW113190   5.107   1.631   2.557 -0.5262  0.9949 -0.7501
 3298SOL    HW213191   5.129   1.644   2.706  1.3679 -0.4535 -0.8633
 3298SOL     MW13192   5.080   1.657   2.635  0.1277 -0.3897 -0.0299
 3299SOL     OW13193   5.422   0.564   3.025 -0.7635 -0.3643 -0.3002
 3299SOL    HW113194   5.459   0.504   3.090 -0.7811 -0.9297 -0.7969
 3299SOL    HW213195   5.411   0.510   2.947 -1.0654  0.2195 -0.6681
 3299SOL     MW13196   5.426   0.549   3.023 -0.8065 -0.3618 -0.4166
 3300SOL     OW13197   4.249   3.602   0.115 -0.7531  0.5994  0.0996
 3300SOL    HW113198   4.328   3.650   0.138 -0.1883  0.5771 -1.6798
 3300SOL    HW213199   4.268   3.562   0.031 -2.6741  0.6250 -0.4051
 3300SOL     MW13200   4.262   3.603   0.107 -0.9356  0.5998 -0.2078
 3301SOL     OW13201   3.083   5.217   3.795 -0.1499 -0.2248  0.1804
 3301SOL    HW113202   3.021   5.277   3.837  1.8634  0.6815  2.0898
 3301SOL    HW213203   3.082   5.139   3.850  0.1769 -0.3127  0.0639
 3301SOL     MW13204   3.075   5.215   3.808  0.1650 -0.1147  0.4217
 3302SOL     OW13205   3.156   4.223   1.446  0.6284  0.2276  0.2965
 3302SOL    HW113206   3.088   4.159   1.466  1.1555 -0.2424  0.6400
 3302SOL    HW213207   3.190   4.250   1.531  0.9879  0.3159  0.1286
 3302SOL     MW13208   3.152   4.218   1.460  0.7478  0.1762  0.3202
 3303SOL     OW13209   2.632   1.080   0.162 -0.2382 -0.7542  0.2251
 3303SOL    HW113210   2.544   1.079   0.200 -0.3945  2.2297  0.1446
 3303SOL    HW213211   2.685   1.130   0.224  0.6175  0.2083 -1.2273
 3303SOL     MW13212   2.627   1.086   0.176 -0.1441 -0.2231  0.0188
 3304SOL     OW13213   5.377   3.620   1.481 -0.0392  0.4319  0.0526
 3304SOL    HW113214   5.386   3.687   1.550  0.5504 -1.2380  1.6921
 3304SOL    HW213215   5.450   3.638   1.421  0.6050  0.7916  0.9147
 3304SOL     MW13216   5.388   3.632   1.482  0.1268  0.2556  0.3893
 3305SOL     OW13217   1.191   3.087   4.838  0.2798  0.6585 -0.2253
 3305SOL    HW113218   1.282   3.093   4.811  0.6497 -0.4962  0.6876
 3305SOL    HW213219   1.144   3.055   4.761  0.2808  3.0368 -1.3056
 3305SOL     MW13220   1.197   3.084   4.824  0.3297  0.8231 -0.2478
 3306SOL     OW13221   3.797   0.267   5.231  1.0881 -0.7105 -0.1756
 3306SOL    HW113222   3.765   0.357   5.225  0.6724 -0.8521 -0.1455
 3306SOL    HW213223   3.765   0.236   5.316  1.1508 -0.9155 -0.2265
 3306SOL     MW13224   3.788   0.275   5.242  1.0406 -0.7571 -0.1784
 3307SOL     OW13225   4.692   4.286   0.028 -0.2488  0.3023  0.1137
 3307SOL    HW113226   4.693   4.216   0.094 -1.9279  0.8158  0.7405
 3307SOL    HW213227   4.777   4.280  -0.015  0.0420 -1.4589  0.8512
 3307SOL     MW13228   4.703   4.275   0.031 -0.4357  0.1344  0.2973
 3308SOL     OW13229   2.052   3.724   3.346  0.2070  0.2940 -0.0664
 3308SOL    HW113230   2.082   3.732   3.255 -1.9951 -3.5888 -1.3809
 3308SOL    HW213231   2.108   3.657   3.383  0.6056  1.3379  1.2834
 3308SOL     MW13232   2.063   3.716   3.338 -0.0357 -0.0880 -0.0617
 3309SOL     OW13233   0.735   5.169   4.270  0.1569 -0.8347 -0.1970
 3309SOL    HW113234   0.666   5.110   4.299 -1.0296  1.0420  0.9974
 3309SOL    HW213235   0.800   5.167   4.340 -1.1165  1.1505  1.1301
 3309SOL     MW13236   0.734   5.161   4.283 -0.1742 -0.3150  0.1423
 3310SOL     OW13237   3.154   0.437   3.398 -0.1639  0.0343 -0.4351
 3310SOL    HW113238   3.174   0.436   3.305 -1.2763 -0.2593 -0.6737
 3310SOL    HW213239   3.059   0.446   3.403 -0.0373  1.1194  0.6773
 3310SOL     MW13240   3.144   0.438   3.386 -0.2966  0.1409 -0.3175
 3311SOL     OW13241   4.388   5.231   5.260  0.0185  0.4150  0.7008
 3311SOL    HW113242   4.439   5.154   5.238 -0.1264  0.6552 -0.5348
 3311SOL    HW213243   4.453   5.302   5.266 -0.1278  0.6952 -0.7438
 3311SOL     MW13244   4.404   5.230   5.258 -0.0207  0.4851  0.3401
 3312SOL     OW13245   5.052   1.931   2.673 -0.8943 -0.1206 -0.5957
 3312SOL    HW113246   5.083   1.840   2.671  0.9416  0.4691 -0.8870
 3312SOL    HW213247   4.999   1.936   2.753  0.7544 -0.9349  0.6272
 3312SOL     MW13248   5.049   1.919   2.684 -0.4254 -0.1508 -0.4703
 3313SOL     OW13249   5.248   0.823   1.255 -0.0016 -0.3350  0.6588
 3313SOL    HW113250   5.249   0.898   1.195 -1.8613 -0.0732  0.8780
 3313SOL    HW213251   5.338   0.793   1.257  0.4307  0.6880 -0.9639
 3313SOL     MW13252   5.260   0.829   1.247 -0.1937 -0.1621  0.4699
 3314SOL     OW13253   4.867   5.058   3.524  0.0441  0.4969 -0.1609
 3314SOL    HW113254   4.824   5.016   3.599  1.7858 -0.2192  0.4671
 3314SOL    HW213255   4.843   5.150   3.533 -1.1652  0.1729  0.2837
 3314SOL     MW13256   4.858   5.065   3.535  0.1157  0.3569 -0.0165
 3315SOL     OW13257   0.154   2.213   4.840 -0.6259  0.5120 -0.0906
 3315SOL    HW113258   0.162   2.195   4.933 -0.7301 -1.3948 -0.4102
 3315SOL    HW213259   0.130   2.306   4.835  1.6843  1.2852  1.6555
 3315SOL     MW13260   0.152   2.223   4.852 -0.3290  0.3594  0.1014
 3316SOL     OW13261   0.235   2.295   2.292 -0.5122  0.1112 -0.1977
 3316SOL    HW113262   0.182   2.302   2.213 -0.5688  0.3151 -0.1424
 3316SOL    HW213263   0.178   2.249   2.354 -0.5552  0.1582 -0.2015
 3316SOL     MW13264   0.220   2.290   2.290 -0.5256  0.1450 -0.1908
 3317SOL     OW13265   1.771   0.637   2.426 -0.2785 -0.2603  0.0721
 3317SOL    HW113266   1.805   0.549   2.414  2.0502  0.8768 -2.9806
 3317SOL    HW213267   1.683   0.635   2.390 -0.0445 -1.2233 -0.4709
 3317SOL     MW13268   1.764   0.625   2.420  0.0664 -0.2369 -0.4118
 3318SOL     OW13269   2.261   0.516   0.383 -0.2119  0.2115  0.2102
 3318SOL    HW113270   2.197   0.458   0.423  1.2771 -0.3892  1.8348
 3318SOL    HW213271   2.293   0.571   0.454  1.3141  0.2538 -0.4595
 3318SOL     MW13272   2.257   0.515   0.398  0.1939  0.1363  0.3387
 3319SOL     OW13273   1.750   1.949   3.572 -0.3168 -0.3205 -0.0315
 3319SOL    HW113274   1.843   1.969   3.568 -0.4402  0.0550 -1.9789
 3319SOL    HW213275   1.708   2.033   3.587 -0.4577 -0.0049 -1.9014
 3319SOL     MW13276   1.757   1.963   3.573 -0.3524 -0.2275 -0.5453
 3320SOL     OW13277   3.359   4.808   0.213 -0.1987  0.0781  0.5941
 3320SOL    HW113278   3.446   4.799   0.173 -0.8672 -1.9310 -0.5832
 3320SOL    HW213279   3.333   4.898   0.193  1.2491  0.4316  0.1836
 3320SOL     MW13280   3.367   4.819   0.205 -0.0939 -0.1447  0.3804
 3321SOL     OW13281   4.702   2.456   0.408 -0.2218  0.9462 -0.1602
 3321SOL    HW113282   4.697   2.410   0.492 -0.7342  0.0585 -0.6470
 3321SOL    HW213283   4.610   2.470   0.384 -0.1099  0.4014 -0.9655
 3321SOL     MW13284   4.689   2.451   0.416 -0.2757  0.7534 -0.3341
 3322SOL     OW13285   1.922   0.390   2.124 -0.0686  0.3654  0.6180
 3322SOL    HW113286   1.995   0.404   2.063  0.5990 -0.6990  1.1331
 3322SOL    HW213287   1.859   0.459   2.103 -0.0151 -0.1749 -1.4946
 3322SOL     MW13288   1.924   0.401   2.113  0.0285  0.1495  0.4030
 3323SOL     OW13289   5.063   3.874   4.428  0.1911  0.0574 -0.7236
 3323SOL    HW113290   5.134   3.925   4.388  1.1936  0.0837  0.9985
 3323SOL    HW213291   5.042   3.920   4.509 -1.1725 -0.4804 -0.7411
 3323SOL     MW13292   5.070   3.887   4.433  0.1425 -0.0115 -0.4942
 3324SOL     OW13293   4.621   2.042   2.660 -0.2389  0.2886  0.1044
 3324SOL    HW113294   4.591   2.101   2.729 -1.7051 -0.7972  0.4380
 3324SOL    HW213295   4.547   2.034   2.600  1.3141  1.9945 -2.2356
 3324SOL     MW13296   4.607   2.049   2.661 -0.2272  0.3720 -0.1656
 3325SOL     OW13297   4.368   3.313   2.468  0.2799 -0.1006 -0.1837
 3325SOL    HW113298   4.422   3.371   2.414  2.3939 -1.2284  0.5800
 3325SOL    HW213299   4.372   3.351   2.555  0.1418 -0.3957 -0.0480
 3325SOL     MW13300   4.376   3.326   2.472  0.5458 -0.2921 -0.0626
 3326SOL     OW13301   0.014   4.453   1.067 -0.5202  0.0914 -0.2342
 3326SOL    HW113302   0.089   4.445   1.127 -0.3142  1.1264 -0.3302
 3326SOL    HW213303   0.039   4.401   0.991  0.5874  1.2592 -0.7120
 3326SOL     MW13304   0.028   4.445   1.065 -0.3434  0.3878 -0.3114
 3327SOL     OW13305   3.181   1.797   4.313 -0.2638 -0.6909  0.3225
 3327SOL    HW113306   3.090   1.818   4.294 -0.4022 -1.4384  0.1252
 3327SOL    HW213307   3.177   1.727   4.378  0.0832 -2.4521 -1.4306
 3327SOL     MW13308   3.168   1.790   4.319 -0.2358 -1.0285  0.0600
 3328SOL     OW13309   3.405   2.140   3.178 -0.7369 -0.2978 -0.3295
 3328SOL    HW113310   3.340   2.129   3.247 -1.3910  2.9350 -0.2906
 3328SOL    HW213311   3.480   2.180   3.221 -0.1281 -0.6407 -1.0507
 3328SOL     MW13312   3.406   2.144   3.193 -0.7430  0.0911 -0.4213
 3329SOL     OW13313   2.973   5.372   0.266 -0.1607  0.3638  0.6209
 3329SOL    HW113314   3.035   5.304   0.291  2.1454  1.8808 -0.6205
 3329SOL    HW213315   2.896   5.324   0.235  0.9035 -1.6452  0.9322
 3329SOL     MW13316   2.971   5.357   0.265  0.2929  0.2976  0.4957
 3330SOL     OW13317   3.898   3.930   0.019 -0.2242  0.4220  0.3256
 3330SOL    HW113318   3.951   3.851   0.015 -0.6368  0.1923 -0.9349
 3330SOL    HW213319   3.807   3.899   0.015 -0.3868  0.9842 -1.6841
 3330SOL     MW13320   3.893   3.915   0.018 -0.3016  0.4667 -0.1145
 3331SOL     OW13321   1.503   3.072   2.704  0.1417  0.6753  0.2850
 3331SOL    HW113322   1.488   3.147   2.761 -1.8177 -0.2169  1.0384
 3331SOL    HW213323   1.417   3.029   2.697  0.8951 -0.7137 -1.2431
 3331SOL     MW13324   1.489   3.076   2.711 -0.0206  0.3683  0.1807
 3332SOL     OW13325   1.008   0.789   0.173 -0.2253  0.0823  0.9658
 3332SOL    HW113326   1.098   0.774   0.201 -0.9199 -1.2339  2.6725
 3332SOL    HW213327   0.978   0.862   0.228 -0.4085  0.0667  0.8857
 3332SOL     MW13328   1.016   0.797   0.185 -0.3435 -0.0969  1.1847
 3333SOL     OW13329   1.974   4.263   2.548 -0.0310  0.5743 -0.5417
 3333SOL    HW113330   1.919   4.284   2.473  1.6342  0.6084 -1.8162
 3333SOL    HW213331   1.950   4.173   2.570 -3.7000  1.8893  1.8395
 3333SOL     MW13332   1.963   4.254   2.541 -0.3007  0.7559 -0.3927
 3334SOL     OW13333   0.295   4.312   5.295 -0.1270 -0.3989  0.1109
 3334SOL    HW113334   0.226   4.365   5.336 -1.2113 -0.3179 -1.7061
 3334SOL    HW213335   0.277   4.318   5.201  2.0901 -0.7913 -0.3901
 3334SOL     MW13336   0.283   4.320   5.288  0.0254 -0.4408 -0.2011
 3335SOL     OW13337   4.232   0.188   2.269 -0.1950  0.2645 -0.2365
 3335SOL    HW113338   4.181   0.184   2.350  0.2348  1.3354  0.0964
 3335SOL    HW213339   4.323   0.190   2.299 -0.0236  0.3541 -0.7624
 3335SOL     MW13340   4.238   0.187   2.284 -0.1141  0.4207 -0.2624
 3336SOL     OW13341   2.845   3.895   4.948 -0.2625 -0.5355  0.5236
 3336SOL    HW113342   2.767   3.914   4.896  0.4831 -0.0044 -0.4332
 3336SOL    HW213343   2.843   3.800   4.961 -0.3105 -0.7257 -0.7459
 3336SOL     MW13344   2.835   3.885   4.943 -0.1687 -0.4896  0.2240
 3337SOL     OW13345   3.025   2.718   0.711 -0.4006 -0.3556  0.0819
 3337SOL    HW113346   2.930   2.723   0.722 -0.4407  0.3299 -0.5116
 3337SOL    HW213347   3.051   2.806   0.684  0.2933 -0.7611 -0.6176
 3337SOL     MW13348   3.016   2.731   0.709 -0.3126 -0.3179 -0.0921
 3338SOL     OW13349   3.061   1.156   1.780  0.0363  0.0372  0.1235
 3338SOL    HW113350   3.028   1.068   1.763  0.4554 -0.1357  0.1975
 3338SOL    HW213351   3.124   1.172   1.709  0.2677  0.1133  0.3436
 3338SOL     MW13352   3.065   1.146   1.768  0.1239  0.0242  0.1631
 3339SOL     OW13353   5.372   3.679   4.831 -0.1260  0.1671  0.4538
 3339SOL    HW113354   5.445   3.671   4.893  0.0620 -0.7885  0.1228
 3339SOL    HW213355   5.338   3.590   4.822  0.7766 -0.0027 -1.9314
 3339SOL     MW13356   5.377   3.666   4.838  0.0208  0.0156  0.0882
 3340SOL     OW13357   5.279   1.720   2.275  0.8949  0.2878  0.0905
 3340SOL    HW113358   5.329   1.794   2.309 -0.7363  2.5155 -2.0213
 3340SOL    HW213359   5.343   1.670   2.222  1.6806  1.0563  0.2887
 3340SOL     MW13360   5.295   1.723   2.272  0.7811  0.6910 -0.1671
 3341SOL     OW13361   2.937   3.855   4.671 -0.1214  0.0833  0.3236
 3341SOL    HW113362   2.875   3.796   4.628 -0.7610  1.3960 -0.6188
 3341SOL    HW213363   2.903   3.862   4.761 -1.1166  0.4688 -0.0694
 3341SOL     MW13364   2.924   3.848   4.678 -0.3414  0.3118  0.1439
 3342SOL     OW13365   4.408   2.007   2.460  0.8853  0.4440 -0.2501
 3342SOL    HW113366   4.314   2.021   2.469  0.7832  0.0159 -0.6044
 3342SOL    HW213367   4.428   2.036   2.371  1.4545  2.4002  0.4525
 3342SOL     MW13368   4.398   2.013   2.449  0.9481  0.6496 -0.2032
 3343SOL     OW13369   0.752   1.650   2.302  0.5887 -0.0832  0.4240
 3343SOL    HW113370   0.825   1.701   2.267  0.0164  0.4144 -0.0582
 3343SOL    HW213371   0.695   1.633   2.227 -1.9256  3.0804  1.3720
 3343SOL     MW13372   0.754   1.655   2.287  0.1733  0.4095  0.4867
 3344SOL     OW13373   2.083   4.713   3.525 -0.1384 -0.5321 -0.4908
 3344SOL    HW113374   2.054   4.626   3.500 -1.1270 -0.9573  1.8477
 3344SOL    HW213375   2.172   4.701   3.557 -0.6172 -0.8937  0.7459
 3344SOL     MW13376   2.091   4.700   3.526 -0.3359 -0.6380 -0.0097
 3345SOL     OW13377   5.426   2.104   3.647  0.2950 -0.0291  0.0211
 3345SOL    HW113378   5.385   2.029   3.604  0.4246 -0.3737  0.4848
 3345SOL    HW213379   5.368   2.124   3.720  0.5722 -0.0596  0.2526
 3345SOL     MW13380   5.413   2.097   3.651  0.3497 -0.0796  0.1147
 3346SOL     OW13381   3.927   1.459   2.662  0.0353  0.5223 -0.1993
 3346SOL    HW113382   4.005   1.501   2.698  0.4434 -1.1901  1.0534
 3346SOL    HW213383   3.934   1.470   2.568  0.8807  1.9107  0.0031
 3346SOL     MW13384   3.938   1.466   2.654  0.2040  0.4787 -0.0035
 3347SOL     OW13385   4.202   0.404   3.207 -0.7143 -0.1761 -0.2163
 3347SOL    HW113386   4.232   0.449   3.287  2.0302 -3.2459  0.6875
 3347SOL    HW213387   4.180   0.316   3.236 -0.8130 -1.0245 -2.6956
 3347SOL     MW13388   4.203   0.398   3.222 -0.3583 -0.7034 -0.4283
 3348SOL     OW13389   0.065   4.975   3.803  0.1076  0.5383 -0.0632
 3348SOL    HW113390  -0.029   4.963   3.810 -0.0918  2.5979  2.1784
 3348SOL    HW213391   0.089   5.026   3.881  3.4429 -1.7901  0.6820
 3348SOL     MW13392   0.056   4.981   3.815  0.5296  0.5022  0.3388
 3349SOL     OW13393   1.126   0.938   3.991  0.3711 -0.4073  0.0148
 3349SOL    HW113394   1.147   0.844   3.999 -0.4020 -0.5764  0.0879
 3349SOL    HW213395   1.086   0.945   3.904  1.5926  0.0850 -0.5342
 3349SOL     MW13396   1.124   0.926   3.980  0.4314 -0.3638 -0.0493
 3350SOL     OW13397   4.319   1.715   2.289  0.9055  0.0736 -0.0036
 3350SOL    HW113398   4.360   1.634   2.259  0.4152  0.1802 -1.0059
 3350SOL    HW213399   4.299   1.699   2.381 -2.2338 -2.2951 -0.9129
 3350SOL     MW13400   4.322   1.702   2.297  0.4170 -0.2309 -0.2608
 3351SOL     OW13401   0.018   0.382   3.886  0.0655 -0.1446 -0.2487
 3351SOL    HW113402  -0.064   0.379   3.935  0.3863  0.6439  0.3535
 3351SOL    HW213403   0.085   0.398   3.953  1.0337 -3.0469 -0.3894
 3351SOL     MW13404   0.016   0.384   3.902  0.2389 -0.4291 -0.1866
 3352SOL     OW13405   0.192   5.041   0.779  0.0771  0.5082  0.0477
 3352SOL    HW113406   0.202   4.966   0.721 -0.6368 -0.3635  1.0142
 3352SOL    HW213407   0.281   5.065   0.803  0.3008 -1.7309  1.7995
 3352SOL     MW13408   0.205   5.035   0.775  0.0111  0.0896  0.4135
 3353SOL     OW13409   2.198   5.255   4.641  0.0858  0.9619 -0.0481
 3353SOL    HW113410   2.210   5.164   4.614  0.7857  1.2630 -0.8235
 3353SOL    HW213411   2.122   5.254   4.698  0.2570 -0.1529  0.1786
 3353SOL     MW13412   2.189   5.243   4.645  0.2030  0.8524 -0.1219
 3354SOL     OW13413   5.058   0.716   4.731  0.7288  0.2168  0.1521
 3354SOL    HW113414   4.988   0.769   4.695  2.3343  2.5248  0.2451
 3354SOL    HW213415   5.027   0.689   4.817  0.0978  1.5194  0.3382
 3354SOL     MW13416   5.045   0.719   4.738  0.8599  0.7027  0.1897
 3355SOL     OW13417   4.873   3.867   1.070 -0.1872  0.2124  0.1679
 3355SOL    HW113418   4.905   3.816   0.996  0.0891 -0.1961  0.5707
 3355SOL    HW213419   4.817   3.806   1.119  0.3166  0.2315  0.7681
 3355SOL     MW13420   4.870   3.852   1.067 -0.0822  0.1600  0.3029
 3356SOL     OW13421   0.165   3.273   3.692 -0.5493  0.6373  0.0203
 3356SOL    HW113422   0.212   3.297   3.772 -1.3522  1.8088  0.1593
 3356SOL    HW213423   0.139   3.356   3.653 -0.1681  0.0794 -1.4793
 3356SOL     MW13424   0.168   3.287   3.698 -0.6061  0.7198 -0.1628
 3357SOL     OW13425   3.237   0.475   4.653  0.3512  0.3033  0.6869
 3357SOL    HW113426   3.204   0.555   4.693  1.7898  0.6303  1.2654
 3357SOL    HW213427   3.173   0.408   4.677 -0.2513  1.0477  1.1842
 3357SOL     MW13428   3.224   0.477   4.661  0.4637  0.4475  0.8317
 3358SOL     OW13429   1.977   3.616   4.044  0.0252  0.0171 -0.2706
 3358SOL    HW113430   1.964   3.639   3.952  1.6213 -0.4344 -0.6457
 3358SOL    HW213431   2.072   3.625   4.058 -0.1830  0.1058  1.3421
 3358SOL     MW13432   1.988   3.621   4.034  0.2120 -0.0317 -0.1041
 3359SOL     OW13433   0.925   4.867   1.320  0.1998 -0.5986 -0.1730
 3359SOL    HW113434   0.858   4.888   1.255  0.4263  0.0865 -0.1986
 3359SOL    HW213435   0.891   4.903   1.402  0.8795  0.4596 -0.3382
 3359SOL     MW13436   0.911   4.875   1.322  0.3218 -0.3640 -0.1987
 3360SOL     OW13437   1.822   1.774   5.107  0.8451  0.8471 -0.6504
 3360SOL    HW113438   1.911   1.746   5.129 -0.0724 -0.4961  1.7191
 3360SOL    HW213439   1.796   1.830   5.180 -0.7987 -0.1430 -0.4316
 3360SOL     MW13440   1.831   1.778   5.120  0.5004  0.5331 -0.3021
 3361SOL     OW13441   0.904   0.381   4.395  0.0750 -0.1592 -0.8830
 3361SOL    HW113442   0.916   0.454   4.335  0.5448  0.3302 -0.2110
 3361SOL    HW213443   0.967   0.315   4.367 -0.1999 -0.2183 -1.3587
 3361SOL     MW13444   0.914   0.382   4.383  0.1013 -0.1013 -0.8566
 3362SOL     OW13445   4.471   2.928   3.375  0.2154  0.0766 -0.2750
 3362SOL    HW113446   4.472   2.912   3.470  1.1842 -1.2319 -0.4784
 3362SOL    HW213447   4.478   2.841   3.336  1.6279  0.7042 -1.5376
 3362SOL     MW13448   4.472   2.914   3.383  0.5358 -0.0150 -0.4723
 3363SOL     OW13449   0.795   5.402   3.126  0.0429  0.2237  0.0487
 3363SOL    HW113450   0.700   5.397   3.133  0.0448 -1.2637 -0.6485
 3363SOL    HW213451   0.826   5.314   3.146  0.9633 -0.4497 -3.5800
 3363SOL     MW13452   0.787   5.389   3.130  0.1670 -0.0671 -0.5335
 3364SOL     OW13453   2.783   4.503   2.416  0.1229  0.0034  0.0988
 3364SOL    HW113454   2.872   4.518   2.449  0.5965 -1.5496 -0.4097
 3364SOL    HW213455   2.796   4.462   2.331 -1.0873 -0.1731 -0.0091
 3364SOL     MW13456   2.797   4.500   2.409  0.0238 -0.2294  0.0158
 3365SOL     OW13457   2.009   2.978   0.388  0.4078  0.2929 -0.3445
 3365SOL    HW113458   2.012   3.060   0.436  0.5187  0.9013 -1.3583
 3365SOL    HW213459   1.954   2.921   0.441  0.2951  1.0341  0.3501
 3365SOL     MW13460   2.002   2.981   0.401  0.4076  0.4745 -0.3875
 3366SOL     OW13461   2.036   2.487   1.317  1.1877  0.3168  0.4158
 3366SOL    HW113462   2.104   2.553   1.302  1.3257  0.2150  0.5955
 3366SOL    HW213463   1.993   2.477   1.232  1.7023  0.0426  0.1892
 3366SOL     MW13464   2.039   2.495   1.303  1.2755  0.2662  0.4095
 3367SOL     OW13465   2.438   5.446   0.427  0.1520  0.1208  0.0095
 3367SOL    HW113466   2.487   5.376   0.470  0.0065  0.5899  0.9642
 3367SOL    HW213467   2.497   5.480   0.361 -0.1743 -1.6386 -1.2425
 3367SOL     MW13468   2.452   5.441   0.424  0.0885 -0.0528 -0.0305
 3368SOL     OW13469   2.372   2.786   1.480 -0.1128  0.4989 -0.3360
 3368SOL    HW113470   2.308   2.755   1.416 -1.1962  1.1679  0.3997
 3368SOL    HW213471   2.401   2.871   1.446  0.6204  0.0635 -0.8197
 3368SOL     MW13472   2.367   2.793   1.467 -0.1599  0.5304 -0.3021
 3369SOL     OW13473   3.210   1.174   3.931 -0.1117 -0.3935 -0.3787
 3369SOL    HW113474   3.132   1.229   3.935 -0.3828 -0.8075  0.3732
 3369SOL    HW213475   3.274   1.219   3.986 -0.6038 -1.2128  0.9105
 3369SOL     MW13476   3.209   1.188   3.939 -0.2144 -0.5595 -0.1040
 3370SOL     OW13477   0.057   5.332   1.341  0.0765  0.0164 -0.1023
 3370SOL    HW113478   0.012   5.416   1.351 -3.9321 -1.8179 -0.6853
 3370SOL    HW213479   0.107   5.341   1.260 -1.2802  1.4435 -0.8394
 3370SOL     MW13480   0.058   5.345   1.331 -0.6455 -0.0384 -0.2800
 3371SOL     OW13481   4.469   1.135   3.617  0.2450  0.2284  0.6531
 3371SOL    HW113482   4.510   1.168   3.537 -0.5986 -2.0087 -0.8084
 3371SOL    HW213483   4.537   1.144   3.684  1.4136  1.0434 -0.5819
 3371SOL     MW13484   4.484   1.141   3.616  0.2887  0.0370  0.2902
 3372SOL     OW13485   4.687   5.216   0.619  0.1698 -0.9037  0.0351
 3372SOL    HW113486   4.746   5.287   0.592  1.4432 -1.5583  0.9421
 3372SOL    HW213487   4.663   5.172   0.537  0.1443 -0.0216 -0.4429
 3372SOL     MW13488   4.692   5.220   0.604  0.3377 -0.8731  0.0929
 3373SOL     OW13489   5.202   4.737   0.398 -0.3974  0.1373 -0.5126
 3373SOL    HW113490   5.283   4.736   0.346 -0.1363  0.4400 -0.1139
 3373SOL    HW213491   5.225   4.691   0.479  0.1140  2.3567  0.6852
 3373SOL     MW13492   5.216   4.730   0.402 -0.2935  0.4767 -0.2978
 3374SOL     OW13493   2.543   2.265   3.253 -0.4615 -0.5822 -0.2761
 3374SOL    HW113494   2.629   2.287   3.218 -0.4617 -1.2050 -0.6774
 3374SOL    HW213495   2.503   2.350   3.274 -0.2818 -0.2262 -1.3459
 3374SOL     MW13496   2.550   2.279   3.251 -0.4374 -0.6181 -0.4741
 3375SOL     OW13497   4.950   4.868   5.273  0.1393  0.1765  0.5484
 3375SOL    HW113498   4.902   4.891   5.194 -0.2609  0.2469  0.8056
 3375SOL    HW213499   4.970   4.952   5.315  1.4754  0.2135 -0.1158
 3375SOL     MW13500   4.946   4.883   5.268  0.2653  0.1909  0.4936
 3376SOL     OW13501   5.497   1.715   3.296 -0.3890 -0.2122 -0.3770
 3376SOL    HW113502   5.429   1.689   3.358 -0.1967 -1.0004 -0.4935
 3376SOL    HW213503   5.484   1.809   3.286 -0.1351  0.0301  1.2264
 3376SOL     MW13504   5.486   1.724   3.303 -0.3289 -0.2856 -0.1769
 3377SOL     OW13505   3.414   2.160   2.701  0.2776 -0.3097 -0.0183
 3377SOL    HW113506   3.488   2.110   2.669  0.1991 -0.4527  0.0225
 3377SOL    HW213507   3.341   2.133   2.646  0.4118  0.3759 -0.5436
 3377SOL     MW13508   3.414   2.150   2.689  0.2851 -0.2366 -0.0835
 3378SOL     OW13509   3.517   1.315   2.919  0.1702 -0.2053  0.2549
 3378SOL    HW113510   3.535   1.288   2.829  0.8938  0.3463  0.2237
 3378SOL    HW213511   3.553   1.404   2.925 -3.1897  1.3539 -0.0396
 3378SOL     MW13512   3.524   1.323   2.908 -0.1846  0.0787  0.2110
 3379SOL     OW13513   3.315   0.675   3.888  0.6551  0.2057  0.2695
 3379SOL    HW113514   3.280   0.751   3.933  0.1129  0.3652 -0.4056
 3379SOL    HW213515   3.310   0.697   3.795  0.8632 -0.4936  0.0847
 3379SOL     MW13516   3.309   0.688   3.882  0.6102  0.1330  0.1537
 3380SOL     OW13517   4.455   3.760   2.919  0.2431 -0.2853 -0.2070
 3380SOL    HW113518   4.390   3.817   2.879  0.7081 -0.0893 -0.7055
 3380SOL    HW213519   4.538   3.808   2.911  0.4596 -0.5475  0.3698
 3380SOL     MW13520   4.458   3.774   2.913  0.3348 -0.2942 -0.1964
 3381SOL     OW13521   5.413   3.203   3.751 -0.0217 -0.1378 -0.5499
 3381SOL    HW113522   5.507   3.216   3.739  0.0383  2.7367  1.8919
 3381SOL    HW213523   5.400   3.212   3.845 -2.9529  1.4542 -0.9955
 3381SOL     MW13524   5.424   3.206   3.762 -0.4081  0.4633 -0.2813
 3382SOL     OW13525   2.361   3.318   5.518  0.0810  0.6848 -0.1415
 3382SOL    HW113526   2.276   3.283   5.493  0.2609 -0.0657  0.2947
 3382SOL    HW213527   2.376   3.389   5.455 -1.8216  2.2654  1.0822
 3382SOL     MW13528   2.352   3.323   5.506 -0.1508  0.7965  0.0819
 3383SOL     OW13529   2.226   0.121   1.861  0.0037  0.3094 -0.3873
 3383SOL    HW113530   2.164   0.061   1.819  1.9852 -2.7876  0.8000
 3383SOL    HW213531   2.276   0.159   1.789  0.2584 -1.3155 -1.0952
 3383SOL     MW13532   2.224   0.118   1.846  0.3046 -0.3261 -0.3228
 3384SOL     OW13533   2.441   0.338   3.574  0.0622 -0.2570  0.4520
 3384SOL    HW113534   2.464   0.319   3.483 -2.3518 -2.5862  0.1927
 3384SOL    HW213535   2.360   0.389   3.568 -0.2832 -0.6881  1.2663
 3384SOL     MW13536   2.433   0.342   3.561 -0.3092 -0.6285  0.5267
 3385SOL     OW13537   2.243   1.503   2.952  0.0906 -0.2388  0.0402
 3385SOL    HW113538   2.320   1.508   3.008 -0.3051 -0.1760  0.5867
 3385SOL    HW213539   2.255   1.573   2.888  1.1106 -1.0411 -0.6936
 3385SOL     MW13540   2.255   1.513   2.951  0.1746 -0.3383  0.0150
 3386SOL     OW13541   3.350   3.850   0.978  0.3712 -0.0043  0.0133
 3386SOL    HW113542   3.324   3.809   0.895 -1.4906  0.8357  0.1427
 3386SOL    HW213543   3.403   3.783   1.021  0.3502 -0.9261 -1.3105
 3386SOL     MW13544   3.354   3.835   0.972  0.1178 -0.0153 -0.1474
 3387SOL     OW13545   0.523   2.693   2.107  0.2487  0.4561 -0.4869
 3387SOL    HW113546   0.575   2.645   2.172 -0.6217 -0.9239 -0.7586
 3387SOL    HW213547   0.461   2.743   2.159  0.0927 -0.0041 -0.2199
 3387SOL     MW13548   0.522   2.693   2.123  0.1105  0.2084 -0.4875
 3388SOL     OW13549   5.175   3.339   3.690  0.0388  0.1196 -0.2540
 3388SOL    HW113550   5.157   3.338   3.596 -1.4930 -0.2352  0.0239
 3388SOL    HW213551   5.264   3.304   3.698 -0.4612 -1.5423 -1.4502
 3388SOL     MW13552   5.185   3.334   3.679 -0.2346 -0.1518 -0.3776
 3389SOL     OW13553   0.137   2.478   1.333  0.6353  0.2363  0.0118
 3389SOL    HW113554   0.074   2.408   1.353 -2.6980  2.7202 -0.7894
 3389SOL    HW213555   0.149   2.523   1.416  1.5358 -0.3295  0.1967
 3389SOL     MW13556   0.130   2.474   1.347  0.3079  0.4944 -0.0711
 3390SOL     OW13557   1.571   2.972   5.430  0.3922 -0.0121  0.3909
 3390SOL    HW113558   1.609   2.947   5.515  0.7478 -1.0810 -0.0577
 3390SOL    HW213559   1.536   3.059   5.444  1.0020  0.0819  1.4710
 3390SOL     MW13560   1.572   2.980   5.443  0.5222 -0.1433  0.4759
 3391SOL     OW13561   2.542   0.849   1.074 -0.3061 -0.0115  0.0657
 3391SOL    HW113562   2.533   0.804   1.158 -0.5730  0.8595  0.5165
 3391SOL    HW213563   2.471   0.913   1.073 -1.0906 -0.8656 -1.3847
 3391SOL     MW13564   2.532   0.852   1.085 -0.4476 -0.0092 -0.0688
 3392SOL     OW13565   4.709   2.572   4.870 -0.0570 -0.3246  0.4680
 3392SOL    HW113566   4.779   2.509   4.850  0.4465  0.6707 -1.1016
 3392SOL    HW213567   4.633   2.540   4.820 -0.6925 -1.2690  1.9774
 3392SOL     MW13568   4.708   2.559   4.861 -0.0747 -0.3177  0.4599
 3393SOL     OW13569   0.176   0.953   1.387  0.2894  0.8466 -0.1351
 3393SOL    HW113570   0.207   0.911   1.467 -0.4654  0.3875 -0.0731
 3393SOL    HW213571   0.212   1.042   1.391  1.7666  0.2630 -0.1919
 3393SOL     MW13572   0.185   0.960   1.398  0.3866  0.7063 -0.1344
 3394SOL     OW13573   2.595   2.095   4.490  0.0990  0.4374  0.4538
 3394SOL    HW113574   2.561   2.026   4.546 -0.1614 -0.7810 -1.1536
 3394SOL    HW213575   2.688   2.100   4.512 -0.0275  0.0870  1.0790
 3394SOL     MW13576   2.603   2.087   4.501  0.0469  0.2263  0.3216
 3395SOL     OW13577   0.391   0.423   1.773 -0.1055  0.0835  0.9039
 3395SOL    HW113578   0.466   0.365   1.779  0.6437  1.0185  0.8747
 3395SOL    HW213579   0.419   0.504   1.815 -0.7379  0.8044 -0.0003
 3395SOL     MW13580   0.405   0.426   1.779 -0.0898  0.3063  0.7783
 3396SOL     OW13581   4.771   0.950   1.098 -0.4307  0.1492 -0.3994
 3396SOL    HW113582   4.771   0.890   1.173 -0.9720 -1.0357 -1.3182
 3396SOL    HW213583   4.761   1.037   1.137 -1.1789 -0.4783  0.8696
 3396SOL     MW13584   4.770   0.953   1.113 -0.6042 -0.0947 -0.3523
 3397SOL     OW13585   2.855   1.227   5.416 -0.0312  0.0268  0.1358
 3397SOL    HW113586   2.875   1.150   5.361 -0.0755  0.4182 -0.4372
 3397SOL    HW213587   2.762   1.244   5.399  0.2249  0.8260 -0.5398
 3397SOL     MW13588   2.845   1.219   5.406 -0.0027  0.1870 -0.0323
 3398SOL     OW13589   3.516   3.214   0.681  0.3347 -0.0318  0.0314
 3398SOL    HW113590   3.466   3.147   0.635  0.8491  0.1064 -0.7491
 3398SOL    HW213591   3.598   3.172   0.704  0.9888  0.5457 -1.1726
 3398SOL     MW13592   3.520   3.200   0.678  0.4920  0.0645 -0.2357
 3399SOL     OW13593   1.815   2.878   4.598  0.5202  0.2181 -0.0509
 3399SOL    HW113594   1.784   2.791   4.572 -0.8741  0.4596  0.7172
 3399SOL    HW213595   1.737   2.933   4.594  0.8919  0.9248  1.7008
 3399SOL     MW13596   1.800   2.873   4.594  0.3826  0.3457  0.2882
 3400SOL     OW13597   1.658   3.463   4.493  0.0387 -0.1231  0.0259
 3400SOL    HW113598   1.581   3.433   4.541  0.7100 -0.6139  0.7997
 3400SOL    HW213599   1.726   3.474   4.559  0.5981  0.4623 -0.6261
 3400SOL     MW13600   1.657   3.461   4.508  0.2043 -0.1104  0.0423
 3401SOL     OW13601   2.857   3.874   5.372 -0.0817  0.1239 -0.2094
 3401SOL    HW113602   2.889   3.924   5.297  0.7249 -0.5616 -0.3413
 3401SOL    HW213603   2.936   3.849   5.420 -0.5249 -0.3109  0.3083
 3401SOL     MW13604   2.872   3.877   5.368 -0.0328 -0.0268 -0.1575
 3402SOL     OW13605   3.745   0.874   2.199 -0.3855 -0.0992 -0.0820
 3402SOL    HW113606   3.728   0.870   2.105 -0.8325 -0.5722  0.0168
 3402SOL    HW213607   3.659   0.885   2.239 -0.1875  0.2224  0.2698
 3402SOL     MW13608   3.732   0.875   2.192 -0.4190 -0.1196 -0.0214
 3403SOL     OW13609   5.436   1.101   1.417  0.1274 -0.1444 -0.1047
 3403SOL    HW113610   5.450   1.182   1.368 -0.7084 -0.9563 -1.7552
 3403SOL    HW213611   5.511   1.046   1.395 -0.2560 -0.5157 -0.4932
 3403SOL     MW13612   5.448   1.105   1.407 -0.0367 -0.3037 -0.3791
 3404SOL     OW13613   1.118   4.962   0.765  0.4760  0.3875 -0.0839
 3404SOL    HW113614   1.028   4.956   0.798  0.4182  0.4771 -0.2227
 3404SOL    HW213615   1.173   4.943   0.841  0.3187 -1.6247 -0.4111
 3404SOL     MW13616   1.113   4.959   0.779  0.4470  0.1288 -0.1466
 3405SOL     OW13617   4.050   4.488   3.578  0.2424  0.2248  0.5123
 3405SOL    HW113618   3.972   4.463   3.628 -0.4800 -0.6534 -0.9684
 3405SOL    HW213619   4.106   4.534   3.641 -0.2100 -1.5920  2.3468
 3405SOL     MW13620   4.047   4.491   3.593  0.0843 -0.1379  0.5599
 3406SOL     OW13621   0.919   2.972   2.785 -0.1029  0.5082  0.1430
 3406SOL    HW113622   0.955   2.892   2.748  0.8816  0.9046  0.2163
 3406SOL    HW213623   0.842   2.943   2.834  1.0792 -0.6240  1.4464
 3406SOL     MW13624   0.914   2.957   2.787  0.1887  0.4092  0.3283
 3407SOL     OW13625   1.902   2.920   5.443  0.0847 -0.0177  0.2730
 3407SOL    HW113626   1.991   2.930   5.409  0.1190  0.8075  0.5945
 3407SOL    HW213627   1.851   2.892   5.367  0.7092 -1.0287  0.1974
 3407SOL     MW13628   1.907   2.917   5.428  0.1733 -0.0427  0.3061
 3408SOL     OW13629   0.641   5.478   1.360  0.7360  0.3963  0.3576
 3408SOL    HW113630   0.581   5.406   1.379  1.4477 -0.1296  0.6617
 3408SOL    HW213631   0.706   5.475   1.431  1.2137  0.8528 -0.0455
 3408SOL     MW13632   0.642   5.468   1.372  0.8961  0.3869  0.3443
 3409SOL     OW13633   4.374   0.943   2.212 -0.3985 -0.1612 -0.3426
 3409SOL    HW113634   4.346   0.853   2.229  0.1106 -0.3489 -0.4701
 3409SOL    HW213635   4.409   0.973   2.296 -1.1259  0.1287 -0.1405
 3409SOL     MW13636   4.375   0.935   2.226 -0.4279 -0.1474 -0.3326
 3410SOL     OW13637   5.409   4.622   3.159  0.3172 -0.2448 -0.2816
 3410SOL    HW113638   5.492   4.665   3.140  0.1404  0.5455  0.6387
 3410SOL    HW213639   5.432   4.547   3.212  0.4520 -0.0651 -0.0846
 3410SOL     MW13640   5.423   4.618   3.163  0.3115 -0.1142 -0.1312
 3411SOL     OW13641   0.821   3.925   3.456  0.2981 -0.1992 -0.0970
 3411SOL    HW113642   0.909   3.889   3.460 -0.4536 -2.1401  3.2514
 3411SOL    HW213643   0.827   4.007   3.505  0.4540  0.3648 -1.0306
 3411SOL     MW13644   0.834   3.931   3.463  0.2179 -0.3845  0.2280
 3412SOL     OW13645   1.313   5.397   4.820 -0.1953  0.5982  0.2355
 3412SOL    HW113646   1.390   5.411   4.766  0.3273  1.0852  1.0838
 3412SOL    HW213647   1.338   5.429   4.907 -1.1951  0.3435  0.6362
 3412SOL     MW13648   1.327   5.403   4.824 -0.2595  0.6295  0.4036
 3413SOL     OW13649   0.487   3.585   4.111 -0.4689 -0.0251 -0.6916
 3413SOL    HW113650   0.493   3.572   4.016  1.0611 -0.8653 -0.5166
 3413SOL    HW213651   0.469   3.497   4.145  0.7380 -0.0715 -0.1110
 3413SOL     MW13652   0.485   3.571   4.102 -0.1005 -0.1444 -0.5899
 3414SOL     OW13653   0.221   5.422   3.350  0.1535  0.3970  0.1539
 3414SOL    HW113654   0.138   5.469   3.344  0.3754  0.8093  0.3108
 3414SOL    HW213655   0.223   5.387   3.439 -0.8507 -1.4876 -0.5022
 3414SOL     MW13656   0.210   5.423   3.361  0.0482  0.1989  0.0867
 3415SOL     OW13657   1.156   4.647   0.257  0.3254 -0.1422  0.0371
 3415SOL    HW113658   1.228   4.629   0.318 -0.3584  0.8333  1.1850
 3415SOL    HW213659   1.196   4.700   0.188  0.7687  0.2250  0.5601
 3415SOL     MW13660   1.171   4.652   0.256  0.2930  0.0385  0.2619
 3416SOL     OW13661   5.291   2.878   4.008  0.0270 -0.1871 -0.1224
 3416SOL    HW113662   5.280   2.973   4.010 -0.7812 -0.2792  0.4955
 3416SOL    HW213663   5.211   2.844   4.048  0.0823 -1.1497 -0.7966
 3416SOL     MW13664   5.279   2.886   4.014 -0.0744 -0.3291 -0.1300
 3417SOL     OW13665   4.953   3.509   4.690  0.5100 -0.2594  0.6884
 3417SOL    HW113666   4.969   3.526   4.597  1.3640  2.4713  1.2261
 3417SOL    HW213667   5.039   3.492   4.727  0.3927  0.3294  1.2489
 3417SOL     MW13668   4.967   3.509   4.682  0.6091  0.1874  0.8362
 3418SOL     OW13669   1.023   2.246   3.556  0.7696 -0.2498 -0.6191
 3418SOL    HW113670   1.055   2.161   3.586 -1.0044 -0.4909  0.7390
 3418SOL    HW213671   0.986   2.287   3.634 -2.7334 -0.2650 -2.0917
 3418SOL     MW13672   1.022   2.240   3.571  0.0594 -0.2843 -0.6345
 3419SOL     OW13673   0.413   1.740   3.140 -0.0818  0.8474  0.0870
 3419SOL    HW113674   0.355   1.815   3.129 -0.3297  0.7106  0.4521
 3419SOL    HW213675   0.419   1.702   3.052 -1.3856  0.2505  0.2327
 3419SOL     MW13676   0.406   1.745   3.127 -0.2906  0.7487  0.1557
 3420SOL     OW13677   3.093   2.367   4.911  0.1021 -0.4313 -0.0314
 3420SOL    HW113678   3.076   2.371   5.005 -0.2011 -1.5049 -0.0291
 3420SOL    HW213679   3.155   2.294   4.901  0.1036 -0.3455 -0.6674
 3420SOL     MW13680   3.099   2.358   4.922  0.0615 -0.5642 -0.1167
 3421SOL     OW13681   3.482   4.533   3.383  0.3316  0.1846 -0.1161
 3421SOL    HW113682   3.432   4.453   3.400  0.1065 -0.1055 -1.9413
 3421SOL    HW213683   3.564   4.520   3.431  0.0189 -0.8193  0.1820
 3421SOL     MW13684   3.486   4.520   3.392  0.2592  0.0105 -0.3216
 3422SOL     OW13685   3.397   1.415   2.182  0.3533  0.6323 -0.1137
 3422SOL    HW113686   3.346   1.403   2.262  0.3883  1.2364  0.0022
 3422SOL    HW213687   3.333   1.408   2.112  0.1145  1.2931  0.0283
 3422SOL     MW13688   3.382   1.412   2.183  0.3259  0.8026 -0.0790
 3423SOL     OW13689   5.473   0.531   4.496  0.1296 -0.0584  0.7708
 3423SOL    HW113690   5.391   0.506   4.453 -0.3540  2.9485 -0.3529
 3423SOL    HW213691   5.458   0.510   4.588 -1.5387 -0.4640  0.4548
 3423SOL     MW13692   5.460   0.525   4.503 -0.1600  0.2917  0.5770
 3424SOL     OW13693   5.263   4.829   1.895  0.3373 -0.3931  0.0891
 3424SOL    HW113694   5.195   4.784   1.844  1.2391 -1.1351 -0.4717
 3424SOL    HW213695   5.216   4.901   1.938 -0.7043 -0.5686 -0.7088
 3424SOL     MW13696   5.247   4.833   1.894  0.3185 -0.5166 -0.0938
 3425SOL     OW13697   2.875   3.436   2.429 -0.0602 -0.0465 -0.2635
 3425SOL    HW113698   2.848   3.431   2.520  0.9621  3.5953  0.4143
 3425SOL    HW213699   2.958   3.388   2.425  0.1969  0.2816  0.8805
 3425SOL     MW13700   2.883   3.429   2.441  0.1119  0.4878 -0.0183
 3426SOL     OW13701   2.751   1.185   2.303 -0.2616  0.1430 -0.0413
 3426SOL    HW113702   2.719   1.098   2.278 -1.7059  0.8165 -0.5970
 3426SOL    HW213703   2.706   1.204   2.385  0.2169  0.2985  0.1910
 3426SOL     MW13704   2.741   1.176   2.311 -0.3916  0.2546 -0.0848
 3427SOL     OW13705   1.752   0.789   3.139  0.2738  0.3933 -0.8037
 3427SOL    HW113706   1.807   0.729   3.088 -1.3846 -0.8866 -1.1805
 3427SOL    HW213707   1.721   0.853   3.075 -1.9686 -1.3290 -1.5519
 3427SOL     MW13708   1.756   0.790   3.123 -0.2512 -0.0107 -0.9551
 3428SOL     OW13709   0.720   0.701   0.383 -0.4243 -0.2647 -0.0498
 3428SOL    HW113710   0.807   0.701   0.424 -1.4269  0.1706  2.2057
 3428SOL    HW213711   0.719   0.621   0.331  1.1536 -0.5458  0.2784
 3428SOL     MW13712   0.732   0.690   0.382 -0.3469 -0.2440  0.2979
 3429SOL     OW13713   1.179   3.967   3.914  0.1501 -0.2549 -0.0847
 3429SOL    HW113714   1.177   4.028   3.841  0.2707 -0.8157 -0.5627
 3429SOL    HW213715   1.235   4.010   3.979  2.1791 -0.8514 -1.3342
 3429SOL     MW13716   1.186   3.981   3.913  0.4394 -0.4106 -0.3172
 3430SOL     OW13717   4.440   1.103   4.634 -0.3176  0.1642 -0.6578
 3430SOL    HW113718   4.426   1.157   4.712  0.1553  1.1485 -1.2277
 3430SOL    HW213719   4.356   1.102   4.589 -0.1551  1.0315 -1.0001
 3430SOL     MW13720   4.427   1.110   4.639 -0.2321  0.4134 -0.7806
 3431SOL     OW13721   4.067   4.542   1.203 -0.2584 -0.3510  0.1884
 3431SOL    HW113722   4.041   4.548   1.112  2.0077 -0.1397 -0.5017
 3431SOL    HW213723   4.036   4.455   1.231 -2.5279  0.2825 -0.1917
 3431SOL     MW13724   4.059   4.531   1.195 -0.2588 -0.2373  0.0444
 3432SOL     OW13725   0.027   4.328   1.676  0.9394  1.0940 -0.0396
 3432SOL    HW113726  -0.029   4.305   1.602  0.2190  2.1444  0.1531
 3432SOL    HW213727   0.099   4.265   1.673 -0.9477 -1.2658  0.5461
 3432SOL     MW13728   0.029   4.316   1.666  0.5885  0.9178  0.0651
 3433SOL     OW13729   0.766   4.859   3.472  0.5181 -0.3643 -0.0829
 3433SOL    HW113730   0.777   4.772   3.432 -1.3136 -1.0325  0.7598
 3433SOL    HW213731   0.746   4.840   3.564  0.2629  0.9643  0.1461
 3433SOL     MW13732   0.765   4.845   3.479  0.2372 -0.2755  0.0614
 3434SOL     OW13733   3.278   3.540   4.509 -0.0488  0.4816 -0.1566
 3434SOL    HW113734   3.248   3.454   4.538  0.6822 -0.0042 -0.8129
 3434SOL    HW213735   3.291   3.530   4.415  2.5202  0.5328  0.1392
 3434SOL     MW13736   3.275   3.527   4.500  0.3953  0.4232 -0.2051
 3435SOL     OW13737   3.700   2.188   4.499 -0.4334 -0.0611 -0.6990
 3435SOL    HW113738   3.741   2.255   4.445 -0.7961  0.7283 -0.0096
 3435SOL    HW213739   3.678   2.118   4.438 -1.0488  0.9070 -1.6076
 3435SOL     MW13740   3.703   2.187   4.484 -0.5650  0.1754 -0.7285
 3436SOL     OW13741   3.121   3.891   5.450 -0.7478 -0.1620 -0.1980
 3436SOL    HW113742   3.110   3.858   5.539  0.3335 -1.5005 -0.5273
 3436SOL    HW213743   3.162   3.977   5.461 -0.0814 -0.5681  0.5787
 3436SOL     MW13744   3.125   3.898   5.463 -0.5126 -0.3968 -0.1378
 3437SOL     OW13745   2.092   2.802   2.452  0.3977 -0.3690 -0.2922
 3437SOL    HW113746   2.152   2.845   2.391  0.4045 -0.8666 -0.6469
 3437SOL    HW213747   2.005   2.829   2.424  0.4733  2.2251  1.6278
 3437SOL     MW13748   2.088   2.811   2.440  0.4088 -0.0869 -0.0815
 3438SOL     OW13749   0.427   1.023   0.743  0.4575 -0.1362  0.2344
 3438SOL    HW113750   0.463   0.936   0.727 -1.0367 -0.5381 -1.0913
 3438SOL    HW213751   0.484   1.059   0.812  2.0118 -1.5568 -0.2309
 3438SOL     MW13752   0.440   1.016   0.750  0.4656 -0.3815 -0.0066
 3439SOL     OW13753   4.191   5.463   3.176  0.0293 -0.5560  0.3912
 3439SOL    HW113754   4.199   5.513   3.095  0.5428 -0.3927  0.5385
 3439SOL    HW213755   4.102   5.428   3.174  0.1136 -0.7503 -0.3595
 3439SOL     MW13756   4.180   5.465   3.165  0.1097 -0.5602  0.3100
 3440SOL     OW13757   0.368   2.353   0.075  0.8400  0.3393  0.0320
 3440SOL    HW113758   0.315   2.416   0.123  1.1168  1.2422 -0.7960
 3440SOL    HW213759   0.340   2.268   0.107 -0.1609  0.8507  0.5603
 3440SOL     MW13760   0.357   2.350   0.085  0.7425  0.5297 -0.0083
 3441SOL     OW13761   4.780   1.228   1.225 -0.1477  0.5485 -0.0714
 3441SOL    HW113762   4.699   1.263   1.262 -0.9325  0.6192 -1.7901
 3441SOL    HW213763   4.842   1.232   1.298 -0.5932  4.0555  0.2841
 3441SOL     MW13764   4.777   1.233   1.240 -0.3133  1.0300 -0.2549
 3442SOL     OW13765   0.449   0.135   4.313 -0.3322 -0.0402  0.2780
 3442SOL    HW113766   0.534   0.092   4.306  0.6260  1.8311 -0.0608
 3442SOL    HW213767   0.387   0.063   4.325  0.9275 -1.7041 -2.2431
 3442SOL     MW13768   0.452   0.119   4.314 -0.0337 -0.0123 -0.1069
 3443SOL     OW13769   5.163   2.850   2.765  0.1383  0.2085 -0.2016
 3443SOL    HW113770   5.124   2.893   2.841  0.1926 -0.3882  0.1720
 3443SOL    HW213771   5.257   2.853   2.782  0.2045  0.8077 -0.6484
 3443SOL     MW13772   5.170   2.856   2.778  0.1545  0.2089 -0.2114
 3444SOL     OW13773   0.901   0.597   4.205 -0.0207 -0.2548 -0.2559
 3444SOL    HW113774   0.947   0.659   4.261 -0.5532 -1.1689  1.2738
 3444SOL    HW213775   0.813   0.634   4.195 -0.2461 -0.6056  0.4029
 3444SOL     MW13776   0.895   0.610   4.211 -0.1227 -0.4251  0.0386
 3445SOL     OW13777   4.814   4.543   5.234 -0.3170  0.3525  0.0742
 3445SOL    HW113778   4.850   4.564   5.148 -2.1746  0.8594 -0.6334
 3445SOL    HW213779   4.879   4.574   5.296  0.2200  1.7392 -1.1215
 3445SOL     MW13780   4.827   4.550   5.231 -0.4948  0.6073 -0.1819
 3446SOL     OW13781   2.739   2.859   3.550 -0.3096  0.3043 -0.2936
 3446SOL    HW113782   2.832   2.849   3.570 -0.4926  1.8368  1.6845
 3446SOL    HW213783   2.736   2.933   3.489 -0.2629  1.2562  0.8028
 3446SOL     MW13784   2.751   2.868   3.545 -0.3280  0.6386  0.1201
 3447SOL     OW13785   1.542   0.154   4.507 -0.0502  0.1776 -0.5890
 3447SOL    HW113786   1.622   0.165   4.456  1.1362  2.6897  1.5899
 3447SOL    HW213787   1.498   0.239   4.503 -2.2924 -0.9228 -1.1172
 3447SOL     MW13788   1.547   0.167   4.500 -0.1923  0.3676 -0.3668
 3448SOL     OW13789   0.890   3.954   4.327  0.0944 -0.0063 -0.0574
 3448SOL    HW113790   0.837   3.888   4.371 -0.3190  0.6209  0.4059
 3448SOL    HW213791   0.883   4.031   4.383  0.8769  0.3162 -0.3934
 3448SOL     MW13792   0.882   3.956   4.340  0.1441  0.1215 -0.0403
 3449SOL     OW13793   1.659   3.788   3.259 -0.0749  0.4237 -0.2986
 3449SOL    HW113794   1.628   3.810   3.171  0.1316 -1.1904 -0.8062
 3449SOL    HW213795   1.588   3.736   3.297  0.0640  0.6646  0.2957
 3449SOL     MW13796   1.645   3.784   3.252 -0.0284  0.2389 -0.2870
 3450SOL     OW13797   0.721   0.552   4.866 -0.3518 -0.0116 -0.1733
 3450SOL    HW113798   0.805   0.519   4.898  1.1401  3.7827  0.3743
 3450SOL    HW213799   0.731   0.557   4.771 -0.2146 -0.1264 -0.1648
 3450SOL     MW13800   0.734   0.548   4.858 -0.1326  0.4836 -0.0985
 3451SOL     OW13801   2.283   1.112   2.291  0.9144 -0.4080  0.4239
 3451SOL    HW113802   2.210   1.059   2.258  0.8059 -0.2289  0.3746
 3451SOL    HW213803   2.246   1.160   2.365  1.1432 -0.7682  0.7791
 3451SOL     MW13804   2.268   1.111   2.296  0.9306 -0.4324  0.4651
 3452SOL     OW13805   2.768   2.579   5.173  0.3252 -0.3365 -0.2917
 3452SOL    HW113806   2.714   2.587   5.252  1.4524  0.8620  0.3836
 3452SOL    HW213807   2.728   2.641   5.111  0.1523 -0.4155 -0.2621
 3452SOL     MW13808   2.755   2.588   5.175  0.4536 -0.1859 -0.1968
 3453SOL     OW13809   4.582   4.395   5.129 -0.0458 -0.4368 -0.4195
 3453SOL    HW113810   4.585   4.306   5.164 -0.3595 -0.5182 -0.5943
 3453SOL    HW213811   4.648   4.443   5.179  2.6467 -1.5748 -2.6175
 3453SOL     MW13812   4.591   4.390   5.140  0.2744 -0.6009 -0.7388
 3454SOL     OW13813   2.349   5.175   3.795  0.4250 -0.1641  0.0755
 3454SOL    HW113814   2.374   5.085   3.815  1.2421  0.3405  1.4829
 3454SOL    HW213815   2.341   5.178   3.700 -0.6882 -1.9800  0.0775
 3454SOL     MW13816   2.351   5.164   3.785  0.3851 -0.3406  0.2652
 3455SOL     OW13817   0.120   2.735   2.245  0.0113  0.2390  0.2376
 3455SOL    HW113818   0.136   2.651   2.290  0.2635  1.2071  2.0530
 3455SOL    HW213819   0.100   2.710   2.155 -2.2608 -1.9588  1.2357
 3455SOL     MW13820   0.120   2.720   2.239 -0.2605  0.0735  0.6162
 3456SOL     OW13821   5.445   2.001   5.248 -0.0288 -0.3686 -0.4009
 3456SOL    HW113822   5.433   2.024   5.340  1.0841  0.0289 -0.3449
 3456SOL    HW213823   5.359   2.018   5.208 -1.5193 -3.4525  1.0869
 3456SOL     MW13824   5.431   2.006   5.255 -0.0796 -0.7302 -0.1931
 3457SOL     OW13825   5.364   3.795   2.044 -0.1709  0.2353 -0.2146
 3457SOL    HW113826   5.420   3.833   1.976  0.8352  0.7199  0.8461
 3457SOL    HW213827   5.295   3.860   2.057  0.1206  0.5453 -0.1833
 3457SOL     MW13828   5.362   3.809   2.036  0.0037  0.3422 -0.0676
 3458SOL     OW13829   4.571   5.099   0.413  0.0130  0.7649  0.1683
 3458SOL    HW113830   4.542   5.017   0.452  1.3583  0.1728 -0.0232
 3458SOL    HW213831   4.574   5.081   0.319 -0.2022  1.2041  0.0760
 3458SOL     MW13832   4.568   5.085   0.406  0.1651  0.7443  0.1301
 3459SOL     OW13833   4.462   2.149   3.116 -0.0054  0.0601  0.1641
 3459SOL    HW113834   4.430   2.070   3.073 -0.9684  0.2438  0.5393
 3459SOL    HW213835   4.557   2.138   3.118  0.0907  0.0280 -1.9900
 3459SOL     MW13836   4.471   2.137   3.110 -0.1220  0.0805 -0.0753
 3460SOL     OW13837   0.614   5.304   3.435 -0.3302 -0.1431  0.1323
 3460SOL    HW113838   0.570   5.262   3.361  0.4900 -0.5558 -0.1339
 3460SOL    HW213839   0.692   5.251   3.450 -0.0318  0.4481  0.7322
 3460SOL     MW13840   0.619   5.292   3.427 -0.1796 -0.1191  0.1772
 3461SOL     OW13841   4.775   4.155   2.081  0.0056 -0.0179 -0.1794
 3461SOL    HW113842   4.774   4.247   2.056  1.1871 -0.3101 -1.4251
 3461SOL    HW213843   4.684   4.134   2.101 -0.1722  1.6007  0.8754
 3461SOL     MW13844   4.763   4.165   2.080  0.1406  0.1606 -0.2051
 3462SOL     OW13845   4.419   0.646   2.809  0.0943 -0.4796 -0.9076
 3462SOL    HW113846   4.331   0.682   2.796 -0.9845 -2.3313  0.6950
 3462SOL    HW213847   4.410   0.589   2.885  2.9110 -0.0670 -0.1549
 3462SOL     MW13848   4.406   0.643   2.818  0.3282 -0.6733 -0.5906
 3463SOL     OW13849   3.698   4.707   0.385  0.2963  0.3634 -0.1302
 3463SOL    HW113850   3.676   4.704   0.292 -0.0567 -2.6968 -0.0636
 3463SOL    HW213851   3.729   4.796   0.400 -2.8500  2.0396 -2.3834
 3463SOL     MW13852   3.699   4.718   0.375 -0.1746  0.1771 -0.4245
 3464SOL     OW13853   3.790   3.168   3.533 -0.5621 -0.2264  0.1410
 3464SOL    HW113854   3.721   3.151   3.598 -0.2988 -0.3576  0.3922
 3464SOL    HW213855   3.871   3.149   3.580 -0.3464  0.0858 -0.1032
 3464SOL     MW13856   3.791   3.163   3.548 -0.4976 -0.2020  0.1419
 3465SOL     OW13857   3.159   2.274   2.878  0.7385  0.5476  0.5150
 3465SOL    HW113858   3.216   2.306   2.948 -1.3856  0.4664  2.3723
 3465SOL    HW213859   3.133   2.186   2.906  1.2486 -0.2252 -1.2965
 3465SOL     MW13860   3.164   2.266   2.891  0.5213  0.4327  0.5212
 3466SOL     OW13861   4.641   1.298   4.587  0.6324 -0.4102 -0.2224
 3466SOL    HW113862   4.565   1.242   4.605 -0.9891  0.8708 -2.5275
 3466SOL    HW213863   4.714   1.236   4.578 -0.6525 -1.9634 -0.4943
 3466SOL     MW13864   4.641   1.282   4.588  0.2413 -0.4469 -0.5692
 3467SOL     OW13865   5.329   0.594   4.234 -0.0295 -0.0546 -0.1698
 3467SOL    HW113866   5.393   0.661   4.258 -1.5295  0.8527  1.5696
 3467SOL    HW213867   5.248   0.621   4.277 -1.4351 -1.5338 -1.7026
 3467SOL     MW13868   5.326   0.607   4.243 -0.4205 -0.1316 -0.1420
 3468SOL     OW13869   0.382   0.921   2.028  0.0441  0.0853  0.5925
 3468SOL    HW113870   0.319   0.901   1.959  0.0368 -0.7220  0.8178
 3468SOL    HW213871   0.383   1.017   2.033 -0.3290  0.1358 -0.1735
 3468SOL     MW13872   0.374   0.931   2.019 -0.0071 -0.0166  0.5198
 3469SOL     OW13873   5.243   1.318   4.189 -0.2325  0.0799  0.2138
 3469SOL    HW113874   5.280   1.232   4.169 -1.1628 -0.5060  0.8984
 3469SOL    HW213875   5.176   1.332   4.122  0.8976  0.9588 -0.7828
 3469SOL     MW13876   5.239   1.309   4.178 -0.2056  0.1193  0.1718
 3470SOL     OW13877   0.511   3.876   2.179  0.7627 -0.8739 -0.0087
 3470SOL    HW113878   0.558   3.884   2.096 -0.2791  0.0129 -0.5318
 3470SOL    HW213879   0.569   3.920   2.243  0.0238  1.5721 -0.9212
 3470SOL     MW13880   0.525   3.883   2.177  0.5231 -0.4253 -0.2019
 3471SOL     OW13881   2.042   4.488   3.380 -0.0749  0.1321  0.3679
 3471SOL    HW113882   1.968   4.431   3.359  0.9969 -0.5599 -1.8154
 3471SOL    HW213883   2.115   4.429   3.397  0.0925  0.8153  2.2507
 3471SOL     MW13884   2.041   4.473   3.379  0.0919  0.1310  0.3275
 3472SOL     OW13885   1.449   1.690   1.949  0.0706  0.1002 -0.6509
 3472SOL    HW113886   1.395   1.754   1.996  0.6525  0.8695 -1.0141
 3472SOL    HW213887   1.539   1.718   1.964  0.4924 -1.9037  1.0061
 3472SOL     MW13888   1.454   1.703   1.957  0.2057 -0.0659 -0.4768
 3473SOL     OW13889   0.272   3.157   2.121 -0.0311  0.3068 -0.0944
 3473SOL    HW113890   0.189   3.138   2.077  0.3120  0.5340 -0.8637
 3473SOL    HW213891   0.306   3.072   2.146  0.9235 -0.0793 -2.4463
 3473SOL     MW13892   0.265   3.143   2.118  0.1435  0.2854 -0.5144
 3474SOL     OW13893   1.245   3.122   0.865 -0.1454 -0.5286  0.5688
 3474SOL    HW113894   1.157   3.161   0.860 -0.0285  0.0262  2.2986
 3474SOL    HW213895   1.296   3.170   0.799 -0.4191  1.1716  1.5456
 3474SOL     MW13896   1.240   3.133   0.855 -0.1665 -0.2251  0.9330
 3475SOL     OW13897   0.363   0.623   5.188 -0.3218 -0.1337 -0.4186
 3475SOL    HW113898   0.362   0.598   5.095  0.0840  0.3236 -0.5438
 3475SOL    HW213899   0.429   0.566   5.227  1.4068  1.4625 -0.9139
 3475SOL     MW13900   0.372   0.612   5.181 -0.0345  0.1426 -0.5021
 3476SOL     OW13901   4.793   3.860   5.054  0.4049  0.2532  0.1930
 3476SOL    HW113902   4.726   3.928   5.040  0.9927  0.7187 -0.4241
 3476SOL    HW213903   4.824   3.840   4.965 -0.3656 -1.4465  0.2781
 3476SOL     MW13904   4.788   3.867   5.040  0.3803  0.0871  0.1214
 3477SOL     OW13905   3.836   0.135   0.168 -0.4975  0.0116 -0.3731
 3477SOL    HW113906   3.821   0.051   0.212  1.5794 -0.2125  0.0136
 3477SOL    HW213907   3.925   0.129   0.135 -0.6458  1.7183 -1.2030
 3477SOL     MW13908   3.846   0.123   0.169 -0.2380  0.2111 -0.4327
 3478SOL     OW13909   0.826   0.819   4.822 -0.1284 -0.1390  0.2334
 3478SOL    HW113910   0.776   0.737   4.823  0.3634 -0.4416  0.2016
 3478SOL    HW213911   0.910   0.795   4.781  0.2264  0.2608  0.7263
 3478SOL     MW13912   0.831   0.805   4.816 -0.0145 -0.1260  0.2955
 3479SOL     OW13913   2.972   3.453   0.091 -0.0665  0.3464 -0.4706
 3479SOL    HW113914   2.986   3.519   0.159  0.5090 -0.7084  0.4847
 3479SOL    HW213915   2.881   3.424   0.105 -0.1264  0.5181 -0.5021
 3479SOL     MW13916   2.961   3.458   0.102  0.0029  0.2276 -0.3462
 3480SOL     OW13917   4.714   3.134   1.234 -0.1816  0.2880  0.1833
 3480SOL    HW113918   4.675   3.130   1.146 -1.1037 -2.7832  0.6152
 3480SOL    HW213919   4.785   3.070   1.232  0.4400  0.9046  1.4060
 3480SOL     MW13920   4.718   3.125   1.222 -0.2221 -0.0423  0.4060
 3481SOL     OW13921   1.592   5.297   3.411  0.0165  0.0054 -0.0344
 3481SOL    HW113922   1.584   5.293   3.506 -0.1855  2.2979  0.1026
 3481SOL    HW213923   1.631   5.383   3.394 -0.6609 -0.0311 -2.0618
 3481SOL     MW13924   1.596   5.308   3.421 -0.1018  0.3090 -0.2888
 3482SOL     OW13925   4.014   4.066   0.842  0.0017 -0.0554 -0.6538
 3482SOL    HW113926   4.093   4.012   0.840 -0.8325 -1.3196 -0.6322
 3482SOL    HW213927   3.942   4.003   0.840 -1.0169  1.0167  0.6637
 3482SOL     MW13928   4.015   4.051   0.841 -0.2477 -0.0812 -0.4736
 3483SOL     OW13929   2.487   1.163   5.167  0.0882 -0.3301 -0.6310
 3483SOL    HW113930   2.552   1.234   5.163  0.5714 -0.7440 -0.3122
 3483SOL    HW213931   2.412   1.196   5.117  0.2309  0.4793 -0.3225
 3483SOL     MW13932   2.486   1.177   5.159  0.1724 -0.2769 -0.5466
 3484SOL     OW13933   4.167   0.314   3.956  0.5715 -0.0087 -0.1827
 3484SOL    HW113934   4.165   0.219   3.951  0.0107  0.0037 -0.3418
 3484SOL    HW213935   4.186   0.334   4.048 -0.6422 -0.2816  0.1429
 3484SOL     MW13936   4.169   0.304   3.967  0.3327 -0.0438 -0.1603
 3485SOL     OW13937   4.981   2.219   2.495  0.1353 -0.6296  0.1054
 3485SOL    HW113938   4.935   2.275   2.557 -0.4986 -0.4149 -0.5399
 3485SOL    HW213939   4.921   2.146   2.481  1.1832 -1.7834  1.3629
 3485SOL     MW13940   4.966   2.217   2.501  0.1910 -0.7560  0.1878
 3486SOL     OW13941   4.385   1.644   3.086  0.1481 -0.2903  0.0537
 3486SOL    HW113942   4.459   1.589   3.109  0.8441 -0.5802 -2.5718
 3486SOL    HW213943   4.322   1.585   3.045  0.1395  0.5294 -1.1841
 3486SOL     MW13944   4.387   1.629   3.083  0.2406 -0.2190 -0.4662
 3487SOL     OW13945   0.118   3.801   0.235  0.0887 -0.1430  0.3656
 3487SOL    HW113946   0.034   3.797   0.280 -0.5764 -1.3741 -0.9046
 3487SOL    HW213947   0.170   3.731   0.274  0.9679  1.2876  1.8947
 3487SOL     MW13948   0.114   3.791   0.246  0.1175 -0.1161  0.4004
 3488SOL     OW13949   4.602   5.397   3.762 -0.0211 -0.1804 -0.4752
 3488SOL    HW113950   4.566   5.485   3.768  1.7851  0.4932  1.4670
 3488SOL    HW213951   4.541   5.343   3.813 -0.8984 -0.0147 -1.3119
 3488SOL     MW13952   4.589   5.401   3.770  0.1040 -0.0675 -0.3264
 3489SOL     OW13953   3.521   0.547   1.152  0.4312  0.4136  0.1891
 3489SOL    HW113954   3.545   0.555   1.244 -0.1129  0.6572  0.3170
 3489SOL    HW213955   3.498   0.455   1.141  0.1621  0.4574  0.3816
 3489SOL     MW13956   3.521   0.536   1.163  0.3217  0.4523  0.2322
 3490SOL     OW13957   0.688   4.502   2.763 -1.3068  0.6231  0.0977
 3490SOL    HW113958   0.751   4.478   2.696 -1.2099  2.5443 -0.5513
 3490SOL    HW213959   0.607   4.518   2.716 -1.1043  2.5060  0.3180
 3490SOL     MW13960   0.686   4.501   2.748 -1.2665  1.1350  0.0400
 3491SOL     OW13961   0.143   4.914   1.556  0.0868  0.0515 -0.4978
 3491SOL    HW113962   0.090   4.854   1.609  2.4197 -1.0675  0.7041
 3491SOL    HW213963   0.080   4.976   1.520 -2.0602 -1.3809  0.5889
 3491SOL     MW13964   0.127   4.914   1.558  0.1118 -0.2919 -0.1898
 3492SOL     OW13965   2.825   4.045   3.001  0.3969 -0.2857  0.4560
 3492SOL    HW113966   2.891   4.073   2.939 -0.9743  0.8751 -0.5578
 3492SOL    HW213967   2.837   4.102   3.077 -0.2391  0.8187 -0.2519
 3492SOL     MW13968   2.835   4.056   3.003  0.1268  0.0192  0.2243
 3493SOL     OW13969   4.775   3.111   0.466  0.2353  0.5365  0.3831
 3493SOL    HW113970   4.762   3.035   0.409  0.2298  0.3396  0.6427
 3493SOL    HW213971   4.866   3.104   0.494  0.9292  1.8737 -1.3742
 3493SOL     MW13972   4.785   3.100   0.462  0.3280  0.6899  0.1815
 3494SOL     OW13973   0.379   3.988   1.209  0.3202 -0.2705  0.2154
 3494SOL    HW113974   0.330   3.974   1.290  0.6088 -1.9306  0.1260
 3494SOL    HW213975   0.327   4.054   1.161 -1.2230 -1.1291  0.6350
 3494SOL     MW13976   0.365   3.995   1.213  0.1513 -0.6095  0.2599
 3495SOL     OW13977   4.616   4.331   1.506 -0.3281 -0.0565  0.2027
 3495SOL    HW113978   4.654   4.247   1.479  0.4515 -0.0335  1.1990
 3495SOL    HW213979   4.594   4.319   1.598 -0.4793  0.7510  0.2739
 3495SOL     MW13980   4.618   4.318   1.515 -0.2435  0.0553  0.3464
 3496SOL     OW13981   5.210   2.719   2.444 -0.0183  0.2822  0.5957
 3496SOL    HW113982   5.139   2.781   2.426  0.4027  0.3094 -1.0963
 3496SOL    HW213983   5.289   2.765   2.415  0.4278 -0.6176  0.3726
 3496SOL     MW13984   5.211   2.734   2.438  0.0984  0.1648  0.3379
 3497SOL     OW13985   5.361   1.035   0.129  0.3248 -0.2712 -0.2327
 3497SOL    HW113986   5.272   1.069   0.135  0.9505  1.6148 -0.9695
 3497SOL    HW213987   5.355   0.962   0.067 -0.9238 -1.0616  0.7798
 3497SOL     MW13988   5.349   1.029   0.121  0.2410 -0.1237 -0.1956
 3498SOL     OW13989   0.847   1.296   3.172 -0.3682 -0.5422  0.3058
 3498SOL    HW113990   0.886   1.355   3.236 -1.5980 -1.1408  1.6807
 3498SOL    HW213991   0.827   1.216   3.222 -1.1237 -1.1399 -0.8818
 3498SOL     MW13992   0.849   1.293   3.187 -0.6354 -0.7032  0.3310
 3499SOL     OW13993   3.474   1.800   2.590 -0.0087  0.2265  0.6876
 3499SOL    HW113994   3.490   1.864   2.521 -1.2329  0.2313  0.3833
 3499SOL    HW213995   3.384   1.817   2.618 -0.1703 -0.9925  0.9760
 3499SOL     MW13996   3.464   1.811   2.584 -0.1952  0.0631  0.6855
 3500SOL     OW13997   1.096   5.256   3.970  0.4025  0.0685  0.0614
 3500SOL    HW113998   1.013   5.223   4.003 -0.2039 -0.4520 -1.8330
 3500SOL    HW213999   1.076   5.342   3.933  0.5548 -0.2842 -0.8832
 3500SOL     MW14000   1.082   5.263   3.969  0.3414 -0.0491 -0.3207
 3501SOL     OW14001   3.989   1.802   0.148 -0.2292 -0.0661  0.3720
 3501SOL    HW114002   3.979   1.802   0.052  0.2814  0.5031  0.3095
 3501SOL    HW214003   4.053   1.733   0.165 -0.8472 -0.6484  0.3719
 3501SOL     MW14004   3.996   1.793   0.137 -0.2436 -0.0679  0.3636
 3502SOL     OW14005   3.647   0.794   5.252 -0.1263  0.7563 -0.0772
 3502SOL    HW114006   3.589   0.780   5.327 -0.8592  0.8485 -0.6152
 3502SOL    HW214007   3.687   0.880   5.269  0.2242  0.4773  0.5354
 3502SOL     MW14008   3.644   0.804   5.265 -0.1778  0.7311 -0.0672
 3503SOL     OW14009   2.454   3.532   5.356 -0.0141  0.1687  0.0837
 3503SOL    HW114010   2.408   3.585   5.291 -0.9730 -0.8999 -0.1490
 3503SOL    HW214011   2.524   3.589   5.388 -2.2483  2.3553  1.4169
 3503SOL     MW14012   2.457   3.547   5.351 -0.4439  0.3191  0.2318
 3504SOL     OW14013   1.624   1.567   2.692 -0.6504  0.2142  0.2772
 3504SOL    HW114014   1.544   1.570   2.640 -0.2023 -0.0037 -0.4433
 3504SOL    HW214015   1.679   1.503   2.647 -0.6132 -0.7060  1.5561
 3504SOL     MW14016   1.621   1.559   2.679 -0.5851  0.0611  0.3524
 3505SOL     OW14017   4.195   0.770   3.619 -0.0208  0.4852 -0.1226
 3505SOL    HW114018   4.192   0.861   3.646 -0.0371  0.1071  1.2288
 3505SOL    HW214019   4.117   0.730   3.658 -0.3851  0.0344 -1.2725
 3505SOL     MW14020   4.184   0.777   3.628 -0.0720  0.3737 -0.0955
 3506SOL     OW14021   0.248   3.578   1.654  0.1068 -0.6845 -0.3200
 3506SOL    HW114022   0.286   3.645   1.711  1.0181 -1.6317  0.2228
 3506SOL    HW214023   0.288   3.594   1.569  0.4590 -0.6536 -0.1499
 3506SOL     MW14024   0.259   3.589   1.650  0.2769 -0.8078 -0.2241
 3507SOL     OW14025   4.058   3.615   1.107 -0.3522 -0.3723  0.1156
 3507SOL    HW114026   4.061   3.534   1.159 -0.5510 -0.5657 -0.1690
 3507SOL    HW214027   3.966   3.626   1.085 -0.0128 -1.5886 -2.1877
 3507SOL     MW14028   4.046   3.605   1.111 -0.3332 -0.5620 -0.2327
 3508SOL     OW14029   0.633   5.444   4.631 -0.0697  0.1527 -0.1331
 3508SOL    HW114030   0.714   5.453   4.581 -1.7423  1.5492 -2.7777
 3508SOL    HW214031   0.576   5.391   4.576 -0.9627 -0.9880  1.7688
 3508SOL     MW14032   0.636   5.438   4.617 -0.4150  0.1872 -0.2331
 3509SOL     OW14033   4.298   1.473   4.377  0.2602 -0.2398  0.4778
 3509SOL    HW114034   4.255   1.546   4.332 -0.2552 -0.1702  1.0755
 3509SOL    HW214035   4.340   1.424   4.307  1.2394  1.0367  0.1264
 3509SOL     MW14036   4.298   1.476   4.361  0.3226 -0.0586  0.5109
 3510SOL     OW14037   5.254   0.783   3.096  0.3586  0.2249 -0.3856
 3510SOL    HW114038   5.324   0.717   3.094 -1.0350 -1.3282 -0.6320
 3510SOL    HW214039   5.209   0.767   3.180  0.7728  1.7393  0.1443
 3510SOL     MW14040   5.257   0.772   3.107  0.2268  0.2197 -0.3475
 3511SOL     OW14041   2.834   0.245   1.610 -0.5525 -0.0755 -0.0104
 3511SOL    HW114042   2.748   0.205   1.626 -0.6570 -0.8247 -2.0881
 3511SOL    HW214043   2.813   0.332   1.575 -0.5016 -0.4975 -1.1135
 3511SOL     MW14044   2.820   0.252   1.607 -0.5597 -0.2331 -0.4384
 3512SOL     OW14045   4.726   1.911   3.242 -0.1152 -0.5582 -0.2002
 3512SOL    HW114046   4.745   1.848   3.171  0.2992 -0.5266 -0.1215
 3512SOL    HW214047   4.727   1.996   3.199 -1.8121 -0.6724 -0.5299
 3512SOL     MW14048   4.729   1.914   3.227 -0.2878 -0.5693 -0.2340
 3513SOL     OW14049   1.300   1.411   2.960  0.1128  0.0555 -0.0572
 3513SOL    HW114050   1.335   1.335   2.912 -0.4445 -0.5424  0.4727
 3513SOL    HW214051   1.220   1.434   2.912  0.1175  0.1162 -0.0350
 3513SOL     MW14052   1.294   1.404   2.947  0.0384 -0.0168  0.0171
 3514SOL     OW14053   3.692   4.582   1.588 -0.2007  0.2451 -0.7333
 3514SOL    HW114054   3.643   4.642   1.533  0.2013  0.8490 -0.4507
 3514SOL    HW214055   3.632   4.510   1.605 -0.0940 -0.3207 -2.5425
 3514SOL     MW14056   3.677   4.580   1.583 -0.1323  0.2503 -0.9387
 3515SOL     OW14057   1.241   0.001   1.888 -0.3259  0.2171 -0.3197
 3515SOL    HW114058   1.258  -0.037   1.974  1.1496  0.7538 -0.3463
 3515SOL    HW214059   1.315   0.059   1.873 -0.7348  0.3805 -1.8165
 3515SOL     MW14060   1.253   0.004   1.898 -0.1823  0.3113 -0.5247
 3516SOL     OW14061   3.481   3.663   3.637  0.1726  0.6159 -0.2699
 3516SOL    HW114062   3.523   3.746   3.662 -0.2142  0.5468  0.6358
 3516SOL    HW214063   3.397   3.663   3.683  0.8166 -0.9623  1.0166
 3516SOL     MW14064   3.476   3.674   3.646  0.2072  0.3942  0.0251
 3517SOL     OW14065   3.645   1.597   2.932  0.9348  0.0192 -0.5175
 3517SOL    HW114066   3.609   1.673   2.887 -0.5900 -1.2407 -1.5512
 3517SOL    HW214067   3.607   1.601   3.021  1.1396  0.6425 -0.4574
 3517SOL     MW14068   3.635   1.608   2.938  0.7571 -0.0665 -0.6485
 3518SOL     OW14069   1.848   2.881   3.903  0.2518 -0.2417  0.0640
 3518SOL    HW114070   1.933   2.908   3.867  0.2173 -1.2592 -0.8396
 3518SOL    HW214071   1.826   2.801   3.855 -1.2688  0.0556  0.2125
 3518SOL     MW14072   1.857   2.874   3.891  0.0425 -0.3386 -0.0376
 3519SOL     OW14073   5.076   4.935   0.279 -0.4483 -0.2119 -0.5610
 3519SOL    HW114074   4.990   4.909   0.247 -0.0192  0.1388 -2.0892
 3519SOL    HW214075   5.114   4.855   0.316 -1.6927 -0.2068  0.8391
 3519SOL     MW14076   5.069   4.921   0.280 -0.5580 -0.1640 -0.5782
 3520SOL     OW14077   1.892   3.179   0.006  0.2739  0.0647 -0.0143
 3520SOL    HW114078   1.869   3.194   0.097  0.6238  2.4426 -0.2729
 3520SOL    HW214079   1.889   3.083  -0.004  2.4160 -0.4575  3.0595
 3520SOL     MW14080   1.888   3.168   0.017  0.6093  0.3144  0.3646
 3521SOL     OW14081   0.124   4.695   3.551 -0.2197  0.4226  0.2731
 3521SOL    HW114082   0.110   4.640   3.628 -2.0070 -0.2099 -0.4529
 3521SOL    HW214083   0.037   4.709   3.515  0.4261  1.9427 -0.8110
 3521SOL     MW14084   0.110   4.689   3.557 -0.3733  0.5421  0.0295
 3522SOL     OW14085   3.685   0.163   5.451  0.3796 -0.1424 -0.4537
 3522SOL    HW114086   3.734   0.130   5.527 -1.3161 -1.7774  0.0014
 3522SOL    HW214087   3.650   0.085   5.409  0.0629  0.8340 -2.1126
 3522SOL     MW14088   3.687   0.148   5.456  0.1087 -0.2311 -0.6157
 3523SOL     OW14089   4.851   4.666   3.735 -0.9563 -0.2070  0.0065
 3523SOL    HW114090   4.934   4.694   3.774 -0.5941  0.6060 -1.2635
 3523SOL    HW214091   4.798   4.746   3.733 -1.4660 -0.5409  0.0665
 3523SOL     MW14092   4.855   4.681   3.740 -0.9761 -0.1425 -0.1564
 3524SOL     OW14093   5.497   4.100   1.079 -0.4562  0.1589 -0.6205
 3524SOL    HW114094   5.420   4.122   1.132 -0.4893 -0.6956 -0.3091
 3524SOL    HW214095   5.468   4.113   0.989 -0.5611  1.1025 -0.4624
 3524SOL     MW14096   5.483   4.105   1.074 -0.4747  0.1709 -0.5573
 3525SOL     OW14097   1.983   3.065   3.210  0.0676 -0.6202  0.1673
 3525SOL    HW114098   1.893   3.095   3.222  0.0665  1.2427 -3.3178
 3525SOL    HW214099   2.029   3.097   3.288 -1.7067  0.9224  0.6726
 3525SOL     MW14100   1.977   3.073   3.222 -0.1713 -0.1619 -0.2337
 3526SOL     OW14101   3.739   2.497   0.353 -0.1327 -0.0629  0.3479
 3526SOL    HW114102   3.720   2.516   0.444 -2.6566  0.0210 -0.1308
 3526SOL    HW214103   3.691   2.564   0.304  0.5002 -0.5978 -1.0515
 3526SOL     MW14104   3.730   2.509   0.358 -0.3872 -0.1236  0.0952
 3527SOL     OW14105   0.063   4.275   4.438  0.0188  0.4967  0.0199
 3527SOL    HW114106  -0.023   4.288   4.478  0.2493 -0.1704  0.7527
 3527SOL    HW214107   0.058   4.323   4.355 -2.0467 -1.7730 -1.3169
 3527SOL     MW14108   0.051   4.283   4.432 -0.2281  0.1014 -0.0614
 3528SOL     OW14109   4.436   4.649   3.147  0.4772  0.0685  0.5147
 3528SOL    HW114110   4.500   4.719   3.163  0.6990 -0.1029  0.3838
 3528SOL    HW214111   4.355   4.681   3.187  1.2041 -0.7012  2.7309
 3528SOL     MW14112   4.434   4.663   3.155  0.6049 -0.0582  0.7954
 3529SOL     OW14113   5.285   4.191   1.234 -0.3145 -0.1230  0.0630
 3529SOL    HW114114   5.263   4.278   1.200 -1.6847  0.1374  1.4793
 3529SOL    HW214115   5.210   4.137   1.209 -0.4866 -0.3556  1.0501
 3529SOL     MW14116   5.272   4.196   1.226 -0.5221 -0.1192  0.3865
 3530SOL     OW14117   4.048   3.130   1.644 -0.5427 -0.2903  0.0131
 3530SOL    HW114118   4.088   3.049   1.612 -0.0380  0.6073 -1.7734
 3530SOL    HW214119   4.038   3.117   1.738 -0.1373 -2.2740 -0.1869
 3530SOL     MW14120   4.052   3.117   1.652 -0.4202 -0.4364 -0.2542
 3531SOL     OW14121   3.907   2.820   4.225  0.6405  0.0850  0.2691
 3531SOL    HW114122   3.911   2.786   4.136  2.4873  1.0508 -0.0718
 3531SOL    HW214123   3.974   2.889   4.228  0.9628 -0.2313  2.5227
 3531SOL     MW14124   3.917   2.825   4.214  0.9324  0.1724  0.5265
 3532SOL     OW14125   3.674   1.758   3.777 -0.1998 -0.1071  0.4502
 3532SOL    HW114126   3.624   1.725   3.703 -1.7501  1.7498  0.5697
 3532SOL    HW214127   3.762   1.771   3.743 -0.3388 -1.3281 -0.4319
 3532SOL     MW14128   3.679   1.755   3.763 -0.4272 -0.0215  0.3475
 3533SOL     OW14129   1.905   0.801   5.270 -0.0895 -0.0446  0.1918
 3533SOL    HW114130   1.908   0.831   5.361  1.6141 -4.1147  1.6990
 3533SOL    HW214131   1.819   0.760   5.260 -0.7255  1.3866 -0.4799
 3533SOL     MW14132   1.894   0.800   5.281  0.0542 -0.3998  0.3043
 3534SOL     OW14133   2.068   4.684   4.397 -0.2302 -0.5465 -0.3062
 3534SOL    HW114134   1.973   4.692   4.402 -0.0100  3.0692  0.9407
 3534SOL    HW214135   2.091   4.724   4.313  0.2575  0.6566  0.3707
 3534SOL     MW14136   2.058   4.690   4.386 -0.1350  0.1020 -0.0473
 3535SOL     OW14137   0.495   1.388   3.099 -0.0305 -0.7529 -0.0491
 3535SOL    HW114138   0.560   1.453   3.126 -0.1942 -0.6372  0.0662
 3535SOL    HW214139   0.525   1.359   3.013 -1.1168  1.0282 -1.0791
 3535SOL     MW14140   0.508   1.393   3.091 -0.1987 -0.4977 -0.1722
 3536SOL     OW14141   1.499   0.646   3.958  0.2421  0.2723  0.3326
 3536SOL    HW114142   1.582   0.684   3.987 -0.2906  1.2230  0.6537
 3536SOL    HW214143   1.468   0.704   3.888 -0.7138  0.6178  1.0117
 3536SOL     MW14144   1.506   0.659   3.952  0.0418  0.4467  0.4672
 3537SOL     OW14145   4.480   3.756   0.207  0.2053  0.2061  0.6579
 3537SOL    HW114146   4.415   3.821   0.179 -0.1626 -0.1405  0.6970
 3537SOL    HW214147   4.557   3.775   0.153  0.0778  0.6301  0.6208
 3537SOL     MW14148   4.482   3.767   0.196  0.1386  0.2165  0.6582
 3538SOL     OW14149   3.727   1.620   4.989 -0.2220 -0.2529 -0.0757
 3538SOL    HW114150   3.713   1.570   5.070  0.8902  0.2271  0.4315
 3538SOL    HW214151   3.690   1.706   5.007  2.1682  0.6561  0.8609
 3538SOL     MW14152   3.720   1.625   5.002  0.2493 -0.0660  0.1186
 3539SOL     OW14153   4.541   3.311   4.597 -0.0686 -0.1759  0.2222
 3539SOL    HW114154   4.544   3.403   4.624  0.3227  0.2413 -1.1381
 3539SOL    HW214155   4.619   3.272   4.637  0.9431  0.6195 -0.8764
 3539SOL     MW14156   4.552   3.318   4.606  0.1202 -0.0127 -0.1087
 3540SOL     OW14157   1.174   2.877   5.058  0.5442  0.3355  0.3330
 3540SOL    HW114158   1.252   2.884   5.115  0.2375  0.1645  0.7829
 3540SOL    HW214159   1.185   2.948   4.994  2.0017 -0.8108 -0.7677
 3540SOL     MW14160   1.186   2.888   5.057  0.6991  0.1582  0.2454
 3541SOL     OW14161   0.228   3.897   4.989  0.2648  0.2501  0.5399
 3541SOL    HW114162   0.159   3.915   5.053 -1.1794 -2.1443 -0.2358
 3541SOL    HW214163   0.220   3.967   4.925 -1.0794  0.3196  0.7649
 3541SOL     MW14164   0.218   3.909   4.989 -0.1105 -0.0628  0.4658
 3542SOL     OW14165   3.103   4.639   1.500  0.1815 -0.1281  0.7146
 3542SOL    HW114166   3.074   4.724   1.469  1.8058  0.9568  1.9959
 3542SOL    HW214167   3.109   4.585   1.421 -2.7523  0.2871  0.1086
 3542SOL     MW14168   3.100   4.643   1.485  0.0052  0.0738  0.8055
 3543SOL     OW14169   5.197   0.421   4.460  0.3405  0.2224  0.2484
 3543SOL    HW114170   5.122   0.462   4.504  0.4630 -0.0733  0.7344
 3543SOL    HW214171   5.159   0.374   4.386  0.1804  1.0863 -0.2385
 3543SOL     MW14172   5.182   0.420   4.456  0.3354  0.2989  0.2482
 3544SOL     OW14173   1.269   2.225   4.801 -0.6480 -0.1770  0.4003
 3544SOL    HW114174   1.338   2.228   4.734 -0.0423  0.0813  1.0226
 3544SOL    HW214175   1.189   2.244   4.753 -0.7376 -3.2239 -0.8990
 3544SOL     MW14176   1.268   2.228   4.785 -0.5785 -0.5523  0.3092
 3545SOL     OW14177   2.185   1.516   1.967 -0.3092  0.4613  0.3370
 3545SOL    HW114178   2.216   1.450   2.029 -0.3558 -0.6056 -0.7392
 3545SOL    HW214179   2.093   1.496   1.954 -0.3303  0.7620  0.0178
 3545SOL     MW14180   2.177   1.504   1.974 -0.3183  0.3582  0.1492
 3546SOL     OW14181   2.087   0.091   1.285  0.1423  0.5788  0.2915
 3546SOL    HW114182   2.157   0.033   1.314 -0.4848 -1.3830 -1.7615
 3546SOL    HW214183   2.132   0.160   1.235  0.7527  0.5984  0.8571
 3546SOL     MW14184   2.102   0.092   1.282  0.1400  0.3174  0.0913
 3547SOL     OW14185   4.163   3.740   2.215 -0.1065  0.0613  0.5845
 3547SOL    HW114186   4.129   3.778   2.134  1.9728  0.3984 -0.2031
 3547SOL    HW214187   4.108   3.664   2.232  0.0083 -0.5819 -1.7019
 3547SOL     MW14188   4.151   3.735   2.207  0.1888  0.0201  0.1708
 3548SOL     OW14189   3.835   2.754   1.652 -0.1675 -0.4875 -0.1057
 3548SOL    HW114190   3.790   2.711   1.580  1.8982  0.9049 -2.4019
 3548SOL    HW214191   3.767   2.806   1.695 -1.5903 -1.8435 -0.6317
 3548SOL     MW14192   3.820   2.755   1.648 -0.0810 -0.4826 -0.4855
 3549SOL     OW14193   1.057   4.068   1.310 -0.8602 -0.7425  0.3955
 3549SOL    HW114194   1.042   4.064   1.216  0.7648 -2.2961  0.1394
 3549SOL    HW214195   0.983   4.118   1.345 -0.3334  1.8792 -1.9249
 3549SOL     MW14196   1.045   4.074   1.302 -0.5706 -0.5987  0.0487
 3550SOL     OW14197   4.073   4.038   4.303 -0.3853  0.3792  0.0272
 3550SOL    HW114198   4.088   3.982   4.379  0.7887 -0.3572 -0.7161
 3550SOL    HW214199   4.156   4.037   4.255 -0.7220  1.7976 -0.6432
 3550SOL     MW14200   4.086   4.030   4.306 -0.2726  0.4710 -0.1630
 3551SOL     OW14201   5.313   3.987   3.229 -0.4393 -0.3003 -0.2618
 3551SOL    HW114202   5.292   4.045   3.155  0.2106  1.0326  0.5552
 3551SOL    HW214203   5.228   3.967   3.268 -0.7874 -0.9701 -1.3137
 3551SOL     MW14204   5.299   3.992   3.224 -0.3986 -0.2111 -0.2935
 3552SOL     OW14205   3.242   3.007   2.610 -0.1986  0.1832  0.3085
 3552SOL    HW114206   3.245   2.951   2.687 -0.2844  0.2413  0.3550
 3552SOL    HW214207   3.320   3.062   2.617  0.1009 -0.2062  0.0513
 3552SOL     MW14208   3.253   3.007   2.621 -0.1698  0.1386  0.2802
 3553SOL     OW14209   2.276   5.451   0.941  0.5443 -0.6245 -0.0989
 3553SOL    HW114210   2.319   5.481   0.861 -0.1846 -0.4617 -0.4310
 3553SOL    HW214211   2.295   5.357   0.944  0.4805 -0.6527 -0.5178
 3553SOL     MW14212   2.284   5.442   0.931  0.4376 -0.6064 -0.2000
 3554SOL     OW14213   3.034   2.719   0.981 -0.3660  0.3532 -0.1575
 3554SOL    HW114214   3.056   2.742   0.890 -1.6356  0.0941 -0.5495
 3554SOL    HW214215   3.119   2.708   1.023  0.2547  0.4139 -1.3274
 3554SOL     MW14216   3.048   2.721   0.974 -0.4533  0.3265 -0.3677
 3555SOL     OW14217   1.278   3.113   3.320 -0.2813  0.5119  0.0047
 3555SOL    HW114218   1.290   3.025   3.355  1.1381  0.4027 -0.6869
 3555SOL    HW214219   1.218   3.103   3.247 -0.2498  0.1329  0.0301
 3555SOL     MW14220   1.272   3.100   3.315 -0.0860  0.4462 -0.0849
 3556SOL     OW14221   2.324   1.080   4.838  0.2466  0.0974 -0.2145
 3556SOL    HW114222   2.389   1.010   4.830  0.5071  0.3889 -0.7846
 3556SOL    HW214223   2.240   1.035   4.844  0.3909 -0.2671 -0.7973
 3556SOL     MW14224   2.322   1.065   4.838  0.3011  0.0876 -0.3697
 3557SOL     OW14225   0.219   1.956   3.131 -0.5085 -0.4676  0.0921
 3557SOL    HW114226   0.207   2.028   3.069  0.6640 -0.0125  0.3721
 3557SOL    HW214227   0.222   1.998   3.217 -0.6134 -0.9326  0.3269
 3557SOL     MW14228   0.218   1.971   3.134 -0.3648 -0.4690  0.1614
 3558SOL     OW14229   3.569   0.846   0.888  0.2696  0.4877  0.5101
 3558SOL    HW114230   3.558   0.914   0.955  2.8756  0.3532  1.1935
 3558SOL    HW214231   3.664   0.840   0.876  0.0809 -2.3196 -0.2679
 3558SOL     MW14232   3.581   0.854   0.896  0.5949  0.0918  0.4974
 3559SOL     OW14233   4.004   0.026   4.940  0.6270 -0.1256 -0.1880
 3559SOL    HW114234   4.055   0.016   5.021  0.0244 -1.1373  0.0914
 3559SOL    HW214235   3.913   0.029   4.969  0.4384  0.1382 -0.7890
 3559SOL     MW14236   3.999   0.025   4.955  0.5205 -0.2263 -0.2313
 3560SOL     OW14237   1.079   3.844   3.456 -0.3544 -0.2111 -0.4794
 3560SOL    HW114238   1.052   3.754   3.435 -2.1024  0.3262 -0.7633
 3560SOL    HW214239   1.164   3.835   3.498 -1.0171 -2.1233  0.5839
 3560SOL     MW14240   1.087   3.830   3.459 -0.6788 -0.3962 -0.3745
 3561SOL     OW14241   4.072   0.888   1.278 -0.2663  0.2338  0.3542
 3561SOL    HW114242   4.027   0.966   1.309  0.4510  0.5038  0.7551
 3561SOL    HW214243   4.104   0.846   1.358 -0.0920 -0.1258  0.0995
 3561SOL     MW14244   4.070   0.893   1.293 -0.1463  0.2217  0.3739
 3562SOL     OW14245   5.151   5.083   1.263 -0.6988  0.0009  0.0562
 3562SOL    HW114246   5.224   5.114   1.209 -0.0356 -1.2353  0.1996
 3562SOL    HW214247   5.133   5.156   1.322  0.7179  0.1917  0.3023
 3562SOL     MW14248   5.159   5.097   1.264 -0.4189 -0.1398  0.1087
 3563SOL     OW14249   3.178   5.152   3.331 -0.4121  0.0803  0.4220
 3563SOL    HW114250   3.234   5.078   3.307  1.6920  1.5756  0.5472
 3563SOL    HW214251   3.232   5.207   3.387 -1.7856  1.9285  0.0253
 3563SOL     MW14252   3.193   5.149   3.335 -0.3138  0.5303  0.3854
 3564SOL     OW14253   0.788   1.474   2.918  0.1946 -0.2966 -0.0667
 3564SOL    HW114254   0.730   1.399   2.906  0.2774 -0.7020  1.8226
 3564SOL    HW214255   0.770   1.505   3.007  2.9090 -0.4741  0.6221
 3564SOL     MW14256   0.778   1.468   2.928  0.5711 -0.3750  0.2803
 3565SOL     OW14257   1.764   2.375   0.499  0.6322 -0.2459  0.0974
 3565SOL    HW114258   1.739   2.432   0.571 -0.6399 -0.5525 -0.0631
 3565SOL    HW214259   1.766   2.287   0.538 -0.4806 -0.4700 -0.2949
 3565SOL     MW14260   1.761   2.371   0.514  0.3112 -0.3173  0.0230
 3566SOL     OW14261   0.300   5.197   5.003  0.1493 -0.3457 -0.4165
 3566SOL    HW114262   0.324   5.196   4.910 -1.4901  0.5743 -0.8809
 3566SOL    HW214263   0.383   5.182   5.048  1.4159  1.3431 -1.9713
 3566SOL     MW14264   0.315   5.195   4.996  0.0991  0.0054 -0.6882
 3567SOL     OW14265   1.391   4.534   2.841 -0.8981  0.1598 -0.2379
 3567SOL    HW114266   1.442   4.504   2.766 -0.6280 -1.0276  0.3923
 3567SOL    HW214267   1.364   4.454   2.886 -1.4548  0.8300  0.6722
 3567SOL     MW14268   1.394   4.519   2.837 -0.9367  0.0902 -0.0306
 3568SOL     OW14269   1.858   1.040   4.769  0.4969 -0.0053 -0.3791
 3568SOL    HW114270   1.912   1.039   4.690 -0.6883 -1.6604 -1.2209
 3568SOL    HW214271   1.804   1.119   4.759  0.9872  0.2999 -0.7461
 3568SOL     MW14272   1.858   1.051   4.757  0.4034 -0.1870 -0.5418
 3569SOL     OW14273   5.022   3.057   2.624 -0.4059 -0.5757 -0.2953
 3569SOL    HW114274   5.074   3.010   2.690  0.8254 -0.7920 -1.3726
 3569SOL    HW214275   5.050   3.148   2.632  0.5948 -0.7818 -1.2552
 3569SOL     MW14276   5.033   3.063   2.634 -0.1055 -0.6326 -0.5695
 3570SOL     OW14277   0.727   4.604   3.378 -0.4741  0.1019 -0.3424
 3570SOL    HW114278   0.633   4.591   3.373 -0.1554 -2.4848 -1.0517
 3570SOL    HW214279   0.752   4.569   3.464 -0.3158  2.2431  0.5274
 3570SOL     MW14280   0.718   4.597   3.389 -0.4099  0.0419 -0.3208
 3571SOL     OW14281   3.386   4.797   3.423  0.4795  0.3780  0.2048
 3571SOL    HW114282   3.380   4.792   3.519 -1.2473  0.3782  0.1363
 3571SOL    HW214283   3.412   4.709   3.396 -1.1622 -0.2737  0.5951
 3571SOL     MW14284   3.389   4.785   3.433  0.0262  0.2903  0.2481
 3572SOL     OW14285   4.233   0.961   5.111 -0.5740  0.5265 -0.1850
 3572SOL    HW114286   4.293   1.019   5.158  0.2199  1.7940 -2.5660
 3572SOL    HW214287   4.290   0.895   5.070 -0.9488  0.8210 -1.2113
 3572SOL     MW14288   4.249   0.960   5.112 -0.5176  0.7367 -0.6436
 3573SOL     OW14289   0.781   3.197   2.678  0.0810 -0.3367 -0.5865
 3573SOL    HW114290   0.709   3.208   2.741 -0.4805 -0.0829 -1.2624
 3573SOL    HW214291   0.838   3.132   2.719  0.0481  0.2635  0.4705
 3573SOL     MW14292   0.779   3.190   2.692  0.0010 -0.2217 -0.5352
 3574SOL     OW14293   3.079   2.746   1.878 -0.5128 -0.3643 -0.8919
 3574SOL    HW114294   3.093   2.725   1.785  2.9031  0.4986 -0.6918
 3574SOL    HW214295   3.121   2.674   1.925 -0.2253  0.3275 -0.0706
 3574SOL     MW14296   3.087   2.734   1.872 -0.0144 -0.1551 -0.7544
 3575SOL     OW14297   2.198   1.819   3.528  0.5734 -0.1941 -0.0531
 3575SOL    HW114298   2.136   1.757   3.566 -0.6676  1.1126  0.1583
 3575SOL    HW214299   2.239   1.861   3.604  0.5524  0.0729 -0.1899
 3575SOL     MW14300   2.195   1.816   3.543  0.4036  0.0177 -0.0431
 3576SOL     OW14301   4.807   2.690   2.956  0.6754  0.4160 -0.1114
 3576SOL    HW114302   4.770   2.778   2.941 -0.3790  0.4368  2.1060
 3576SOL    HW214303   4.878   2.683   2.893  0.5109  2.7036 -0.6603
 3576SOL     MW14304   4.812   2.701   2.946  0.5114  0.7267  0.1132
 3577SOL     OW14305   0.556   3.510   3.414 -0.1527 -0.2534 -0.0707
 3577SOL    HW114306   0.509   3.430   3.439  0.6640 -0.7772 -0.1616
 3577SOL    HW214307   0.625   3.479   3.355 -0.2800  0.6125 -0.6913
 3577SOL     MW14308   0.559   3.495   3.409 -0.0600 -0.2074 -0.1665
 3578SOL     OW14309   3.781   1.486   1.888 -0.4886 -0.1177  0.7723
 3578SOL    HW114310   3.708   1.458   1.833  0.0731 -2.5543  1.1487
 3578SOL    HW214311   3.777   1.429   1.964  1.6927 -0.2006  0.8912
 3578SOL     MW14312   3.771   1.475   1.891 -0.1195 -0.4568  0.8390
 3579SOL     OW14313   1.528   0.930   5.425  0.1277 -0.0316  0.6058
 3579SOL    HW114314   1.589   0.871   5.468  0.0510  0.8147  1.9340
 3579SOL    HW214315   1.458   0.943   5.488 -0.1887  0.9574  0.0889
 3579SOL     MW14316   1.527   0.924   5.439  0.0748  0.2154  0.7150
 3580SOL     OW14317   4.176   1.329   1.993  1.0548 -0.2957 -0.2462
 3580SOL    HW114318   4.114   1.292   1.930 -0.2596 -0.0801  0.8511
 3580SOL    HW214319   4.241   1.261   2.007  0.0674 -1.2405 -0.1183
 3580SOL     MW14320   4.176   1.315   1.986  0.7450 -0.3939 -0.0813
 3581SOL     OW14321   3.996   5.152   0.701 -0.6502  0.0441  0.3297
 3581SOL    HW114322   3.948   5.160   0.783  0.1668  0.9930  0.7319
 3581SOL    HW214323   3.973   5.231   0.652 -0.2550  0.0285  0.1149
 3581SOL     MW14324   3.986   5.164   0.705 -0.4871  0.1697  0.3549
 3582SOL     OW14325   1.387   3.528   4.202 -0.4476 -0.1516 -0.2471
 3582SOL    HW114326   1.423   3.582   4.273  0.8872 -1.4952  0.1490
 3582SOL    HW214327   1.299   3.564   4.187 -0.5302  0.5574  1.6632
 3582SOL     MW14328   1.380   3.540   4.210 -0.2791 -0.2370  0.0633
 3583SOL     OW14329   1.103   2.669   5.346 -0.0430 -0.1300  0.7123
 3583SOL    HW114330   1.188   2.630   5.365 -0.1010 -0.3007  0.6161
 3583SOL    HW214331   1.124   2.754   5.307  0.0864 -0.4746  0.0290
 3583SOL     MW14332   1.117   2.675   5.343 -0.0334 -0.1993  0.6074
 3584SOL     OW14333   1.366   4.711   1.650 -0.3283 -0.0053 -0.1362
 3584SOL    HW114334   1.440   4.759   1.687  1.4266 -1.8215 -1.1453
 3584SOL    HW214335   1.339   4.651   1.721  0.1194 -0.3526 -0.2563
 3584SOL     MW14336   1.372   4.709   1.665 -0.0319 -0.2965 -0.2881
 3585SOL     OW14337   3.231   5.397   2.631  0.6586 -0.6524  0.0280
 3585SOL    HW114338   3.144   5.385   2.592  0.4548 -1.8220  0.8211
 3585SOL    HW214339   3.279   5.447   2.565 -0.5963  0.0082 -0.4368
 3585SOL     MW14340   3.226   5.402   2.617  0.4623 -0.7209  0.0722
 3586SOL     OW14341   3.400   2.880   3.528 -0.5018 -1.0047  0.1514
 3586SOL    HW114342   3.455   2.825   3.472 -0.2972 -1.2923  0.6162
 3586SOL    HW214343   3.354   2.817   3.585 -1.3709 -0.7708 -0.2792
 3586SOL     MW14344   3.401   2.864   3.528 -0.5912 -1.0119  0.1560
 3587SOL     OW14345   2.001   5.162   4.823  0.3712 -0.2378 -0.2432
 3587SOL    HW114346   1.975   5.071   4.806 -0.3953  0.3993 -2.9394
 3587SOL    HW214347   1.924   5.202   4.863 -0.4418 -0.0675 -1.8935
 3587SOL     MW14348   1.987   5.155   4.826  0.1586 -0.1291 -0.8282
 3588SOL     OW14349   2.985   2.537   3.809  0.0782  0.4290  0.5547
 3588SOL    HW114350   2.930   2.470   3.769 -0.1039  0.9500 -0.0701
 3588SOL    HW214351   2.927   2.582   3.870  0.2920 -0.2034  1.2388
 3588SOL     MW14352   2.970   2.534   3.812  0.0825  0.4140  0.5627
 3589SOL     OW14353   2.903   0.407   0.556  0.0421 -0.2310 -0.0175
 3589SOL    HW114354   2.918   0.349   0.630  0.9160 -2.4517 -1.8386
 3589SOL    HW214355   2.990   0.444   0.537  0.0109 -0.4100 -0.5107
 3589SOL     MW14356   2.917   0.404   0.563  0.1555 -0.5539 -0.3289
 3590SOL     OW14357   0.897   1.952   4.578 -0.2002  0.0410  0.1533
 3590SOL    HW114358   0.889   1.878   4.518 -1.7994  0.0524  0.3048
 3590SOL    HW214359   0.955   1.921   4.648 -0.1021 -0.7338 -0.2632
 3590SOL     MW14360   0.904   1.938   4.579 -0.4022 -0.0618  0.1176
 3591SOL     OW14361   3.219   5.470   1.463  0.3802 -0.1272  0.4599
 3591SOL    HW114362   3.269   5.391   1.446  1.2461  0.5549 -0.2924
 3591SOL    HW214363   3.148   5.442   1.521  0.0958 -1.6299 -0.5639
 3591SOL     MW14364   3.216   5.456   1.468  0.4585 -0.2377  0.2209
 3592SOL     OW14365   4.633   2.283   0.992 -0.1322 -0.6203 -0.5272
 3592SOL    HW114366   4.557   2.234   1.023 -0.3551 -0.0711 -0.1862
 3592SOL    HW214367   4.689   2.217   0.953 -1.6531 -0.8041 -2.5588
 3592SOL     MW14368   4.630   2.268   0.991 -0.3669 -0.5711 -0.7547
 3593SOL     OW14369   1.367   2.392   5.015  0.1485 -0.2077 -0.6145
 3593SOL    HW114370   1.317   2.348   5.083  0.5389  0.1468 -0.0918
 3593SOL    HW214371   1.345   2.345   4.934 -0.1734 -0.7439 -0.2173
 3593SOL     MW14372   1.357   2.380   5.013  0.1577 -0.2322 -0.4907
 3594SOL     OW14373   1.761   1.686   3.981 -0.0422 -0.1148  0.0035
 3594SOL    HW114374   1.716   1.704   3.898 -0.3264  0.4109  0.2598
 3594SOL    HW214375   1.746   1.593   3.997  0.8691 -0.4574 -1.0257
 3594SOL     MW14376   1.753   1.676   3.972  0.0422 -0.0902 -0.1005
 3595SOL     OW14377   3.630   1.972   4.322 -0.0333  0.2690 -0.4431
 3595SOL    HW114378   3.705   1.937   4.273  0.7356  0.5295  0.5128
 3595SOL    HW214379   3.556   1.961   4.263  0.5725 -0.9359 -1.0246
 3595SOL     MW14380   3.630   1.966   4.307  0.1517  0.1419 -0.3927
 3596SOL     OW14381   0.583   3.766   3.499  0.0548  0.3431 -0.3832
 3596SOL    HW114382   0.667   3.801   3.468 -1.2120  2.5160 -1.5285
 3596SOL    HW214383   0.563   3.695   3.438  0.6053  0.4038 -0.6446
 3596SOL     MW14384   0.592   3.761   3.487 -0.0416  0.6437 -0.5725
 3597SOL     OW14385   3.270   2.145   4.420  0.4357 -0.0064  0.5347
 3597SOL    HW114386   3.180   2.143   4.389 -0.0840 -1.1885  2.0266
 3597SOL    HW214387   3.316   2.081   4.365 -0.0252 -0.6434  0.8833
 3597SOL     MW14388   3.264   2.136   4.408  0.3037 -0.2512  0.7824
 3598SOL     OW14389   0.772   0.789   3.528  0.1826  0.6164 -0.0557
 3598SOL    HW114390   0.730   0.785   3.442 -0.0939  1.4635  0.0241
 3598SOL    HW214391   0.861   0.758   3.513 -0.1589 -0.2171 -0.4385
 3598SOL     MW14392   0.778   0.784   3.514  0.0994  0.6182 -0.0964
 3599SOL     OW14393   0.846   3.136   5.201 -0.4694  0.0867 -0.0138
 3599SOL    HW114394   0.830   3.065   5.263 -0.6940  0.0819 -0.0772
 3599SOL    HW214395   0.821   3.100   5.116 -3.0580  1.0425  0.2513
 3599SOL     MW14396   0.841   3.122   5.198 -0.8480  0.2147  0.0133
 3600SOL     OW14397   4.758   3.008   2.352  0.1559 -0.5481  0.3434
 3600SOL    HW114398   4.688   2.947   2.330  0.7338 -1.4750  0.9814
 3600SOL    HW214399   4.836   2.953   2.361  0.8475  0.3809  0.2410
 3600SOL     MW14400   4.759   2.992   2.350  0.3267 -0.5478  0.4155
 3601SOL     OW14401   2.635   2.343   2.096 -0.3733 -0.0138  0.0183
 3601SOL    HW114402   2.667   2.269   2.046  2.0977  0.3929  0.8485
 3601SOL    HW214403   2.632   2.312   2.186  0.7810  0.8469  0.3912
 3601SOL     MW14404   2.639   2.329   2.102  0.1146  0.1568  0.1802
 3602SOL     OW14405   0.255   5.477   1.605 -0.3424  0.3338  0.0631
 3602SOL    HW114406   0.187   5.520   1.658 -1.1846 -0.2464 -0.5387
 3602SOL    HW214407   0.334   5.527   1.624 -0.9523  1.0859  0.6993
 3602SOL     MW14408   0.256   5.490   1.615 -0.5378  0.3569  0.0678
 3603SOL     OW14409   3.372   4.815   4.323  0.4130 -0.7866  0.1073
 3603SOL    HW114410   3.341   4.854   4.242  0.9137  2.5528  1.3524
 3603SOL    HW214411   3.468   4.813   4.313  0.4032 -1.7645  0.0873
 3603SOL     MW14412   3.381   4.820   4.311  0.4791 -0.4688  0.2722
 3604SOL     OW14413   3.744   4.496   3.518  0.3446 -0.5340 -0.0800
 3604SOL    HW114414   3.713   4.482   3.607  0.0106 -1.1648 -0.2907
 3604SOL    HW214415   3.770   4.588   3.516 -0.4518 -0.2903  0.4178
 3604SOL     MW14416   3.744   4.506   3.530  0.1925 -0.5861 -0.0413
 3605SOL     OW14417   4.035   0.479   2.525 -0.5294 -0.0409 -0.5201
 3605SOL    HW114418   4.119   0.480   2.479  0.0097  1.2054  0.4186
 3605SOL    HW214419   3.995   0.395   2.502  0.5549 -0.2496 -1.7223
 3605SOL     MW14420   4.041   0.468   2.516 -0.3109  0.0988 -0.5556
 3606SOL     OW14421   3.732   0.717   4.921 -0.5648 -0.3290 -0.3087
 3606SOL    HW114422   3.653   0.751   4.963  0.2926  0.8920  0.3520
 3606SOL    HW214423   3.792   0.699   4.993  0.2090 -0.0728 -0.8800
 3606SOL     MW14424   3.730   0.719   4.936 -0.3453 -0.1302 -0.2967
 3607SOL     OW14425   1.570   0.217   3.523  0.1764 -0.2979  0.7746
 3607SOL    HW114426   1.554   0.311   3.535  1.8415  0.1986 -0.5815
 3607SOL    HW214427   1.635   0.195   3.590 -0.2071 -0.4941  1.0865
 3607SOL     MW14428   1.576   0.227   3.533  0.3489 -0.2575  0.6340
 3608SOL     OW14429   5.347   5.264   0.210 -0.6951  0.0476 -0.0404
 3608SOL    HW114430   5.326   5.183   0.256  0.4102  0.8244  2.0104
 3608SOL    HW214431   5.381   5.237   0.125 -0.5885 -1.6286  0.5086
 3608SOL     MW14432   5.349   5.250   0.205 -0.5320 -0.0735  0.3095
 3609SOL     OW14433   4.092   1.334   4.536 -0.4098 -0.0647  0.0978
 3609SOL    HW114434   4.112   1.241   4.530  0.0797  0.0362  0.1335
 3609SOL    HW214435   4.159   1.377   4.484  0.4597  0.3872  1.5214
 3609SOL     MW14436   4.104   1.328   4.528 -0.2269  0.0097  0.2942
 3610SOL     OW14437   5.030   4.602   0.715 -0.1914 -0.3275  0.2505
 3610SOL    HW114438   4.960   4.564   0.663 -0.3535  0.2981 -0.0009
 3610SOL    HW214439   5.062   4.530   0.769 -0.6727 -0.7450 -0.0138
 3610SOL     MW14440   5.025   4.587   0.715 -0.2780 -0.2995  0.1811
 3611SOL     OW14441   2.906   1.251   3.027 -0.2537  0.3155 -0.5353
 3611SOL    HW114442   2.845   1.204   3.084  1.4037 -0.7914  0.4182
 3611SOL    HW214443   2.901   1.342   3.056 -0.6610  0.0420  0.2648
 3611SOL     MW14444   2.897   1.257   3.039 -0.0854  0.1297 -0.2993
 3612SOL     OW14445   5.131   4.831   1.382 -0.6703 -0.2853 -0.0013
 3612SOL    HW114446   5.147   4.904   1.322  0.3902 -1.8094 -1.6594
 3612SOL    HW214447   5.057   4.860   1.435  0.0659  2.2134 -0.1961
 3612SOL     MW14448   5.123   4.845   1.381 -0.4285 -0.1542 -0.2506
 3613SOL     OW14449   0.490   5.485   0.174 -0.3094 -0.0447 -0.8349
 3613SOL    HW114450   0.432   5.548   0.217 -0.6630 -0.7590 -0.2702
 3613SOL    HW214451   0.563   5.473   0.235 -0.1610 -0.0656 -1.0144
 3613SOL     MW14452   0.492   5.492   0.188 -0.3370 -0.1437 -0.7830
 3614SOL     OW14453   3.011   2.091   3.095 -1.1460 -0.0461  0.1919
 3614SOL    HW114454   2.959   2.025   3.142 -0.0244 -0.4203  0.9394
 3614SOL    HW214455   3.076   2.120   3.159 -0.2745  0.2387 -0.8068
 3614SOL     MW14456   3.013   2.086   3.110 -0.8778 -0.0581  0.1581
 3615SOL     OW14457   4.066   5.003   1.123 -0.1621  0.0338  0.2098
 3615SOL    HW114458   4.119   5.002   1.203  0.1617  0.4957  0.0037
 3615SOL    HW214459   4.111   4.942   1.064 -1.5896 -2.0201  1.1143
 3615SOL     MW14460   4.079   4.995   1.126 -0.3106 -0.1805  0.3038
 3616SOL     OW14461   5.010   2.883   4.359 -0.5012  0.0233  0.3361
 3616SOL    HW114462   4.971   2.954   4.410  0.0116  0.0763  0.6637
 3616SOL    HW214463   5.065   2.836   4.422  0.7157  0.5223 -0.3327
 3616SOL     MW14464   5.012   2.886   4.374 -0.2684  0.0976  0.2902
 3617SOL     OW14465   3.575   4.156   2.621  0.7979 -0.4470  0.1142
 3617SOL    HW114466   3.629   4.149   2.700 -0.8519  0.6192  1.4091
 3617SOL    HW214467   3.528   4.238   2.632 -0.9909 -1.2616 -0.9877
 3617SOL     MW14468   3.576   4.166   2.633  0.3351 -0.4131  0.1402
 3618SOL     OW14469   1.346   0.448   5.039  0.2955  0.2772  0.0719
 3618SOL    HW114470   1.382   0.491   5.117 -0.8294  1.4246 -0.0182
 3618SOL    HW214471   1.384   0.496   4.966  0.3067  0.0588 -0.0665
 3618SOL     MW14472   1.356   0.460   5.040  0.1456  0.4022  0.0411
 3619SOL     OW14473   0.320   4.573   1.012 -1.2111  0.3563 -0.2133
 3619SOL    HW114474   0.239   4.621   1.000 -3.5976 -3.2965 -0.4035
 3619SOL    HW214475   0.318   4.505   0.944  1.9829  0.0294 -0.1258
 3619SOL     MW14476   0.309   4.570   1.001 -1.1025 -0.1792 -0.2271
 3620SOL     OW14477   0.604   1.502   5.350  0.1368 -0.1410 -0.5580
 3620SOL    HW114478   0.627   1.527   5.260 -1.3426  2.9902 -0.1913
 3620SOL    HW214479   0.544   1.570   5.379  0.1754 -1.3346  2.6913
 3620SOL     MW14480   0.599   1.514   5.342 -0.0571  0.1198 -0.0713
 3621SOL     OW14481   4.410   0.560   1.550 -0.1585 -0.3536 -0.0255
 3621SOL    HW114482   4.374   0.644   1.582  0.2203 -0.6686  1.3014
 3621SOL    HW214483   4.461   0.584   1.473 -1.1201  0.4513 -0.4435
 3621SOL     MW14484   4.412   0.575   1.544 -0.2370 -0.2876  0.0968
 3622SOL     OW14485   4.722   4.966   0.998 -0.8535 -0.0699  0.0575
 3622SOL    HW114486   4.639   5.013   1.005 -0.5529  0.3732  0.8249
 3622SOL    HW214487   4.764   5.002   0.920 -1.0949  0.1887  0.0459
 3622SOL     MW14488   4.717   4.977   0.989 -0.8455  0.0246  0.1592
 3623SOL     OW14489   2.924   1.944   0.754  0.2162 -0.3140 -0.6864
 3623SOL    HW114490   2.935   1.904   0.668  0.4084 -1.9585  0.0616
 3623SOL    HW214491   2.940   1.873   0.816  0.7391  0.9710  0.7363
 3623SOL     MW14492   2.928   1.929   0.751  0.3124 -0.3624 -0.3943
 3624SOL     OW14493   3.372   1.531   3.571 -0.7347 -0.3335 -0.2180
 3624SOL    HW114494   3.326   1.514   3.489  2.2845 -1.2554 -1.9027
 3624SOL    HW214495   3.390   1.444   3.607  0.3133 -0.0695 -0.0552
 3624SOL     MW14496   3.368   1.517   3.565 -0.1873 -0.4221 -0.4228
 3625SOL     OW14497   3.268   3.107   4.217  0.1103  0.1788 -0.1722
 3625SOL    HW114498   3.327   3.107   4.141  0.1486  0.0375 -0.1415
 3625SOL    HW214499   3.244   3.016   4.230  0.2336  0.1815  0.0851
 3625SOL     MW14500   3.273   3.095   4.209  0.1321  0.1602 -0.1334
 3626SOL     OW14501   1.119   3.356   1.779  0.4410  0.0356 -0.4006
 3626SOL    HW114502   1.033   3.394   1.796 -0.0775 -0.3626 -1.9265
 3626SOL    HW214503   1.113   3.266   1.811  0.3095  0.0376 -0.4197
 3626SOL     MW14504   1.106   3.349   1.785  0.3535 -0.0177 -0.6085
 3627SOL     OW14505   0.862   0.502   0.968  0.5277 -0.3506  0.0314
 3627SOL    HW114506   0.928   0.492   1.036  0.8293 -3.2793 -0.5616
 3627SOL    HW214507   0.804   0.428   0.980 -1.5754  1.0832 -0.6838
 3627SOL     MW14508   0.863   0.491   0.979  0.2852 -0.5518 -0.1447
 3628SOL     OW14509   1.033   0.680   4.735 -0.2782 -0.6812  0.8739
 3628SOL    HW114510   1.074   0.661   4.819  0.0966 -0.1463  0.8145
 3628SOL    HW214511   1.021   0.594   4.695  0.6096 -0.8656  0.9775
 3628SOL     MW14512   1.037   0.666   4.741 -0.1083 -0.6340  0.8798
 3629SOL     OW14513   1.772   4.718   4.952  0.3233 -0.1273  0.0637
 3629SOL    HW114514   1.690   4.751   4.989 -0.9164 -2.0831 -0.7363
 3629SOL    HW214515   1.763   4.622   4.956  2.0897 -0.3901 -1.0788
 3629SOL     MW14516   1.760   4.709   4.958  0.3942 -0.4259 -0.1977
 3630SOL     OW14517   2.285   4.674   2.870 -0.4023  0.4820  0.7088
 3630SOL    HW114518   2.259   4.657   2.779 -0.6079  0.4899  0.7653
 3630SOL    HW214519   2.356   4.738   2.862  0.4164 -0.4440  0.4972
 3630SOL     MW14520   2.291   4.681   2.856 -0.3198  0.3584  0.6879
 3631SOL     OW14521   1.741   4.723   4.163  0.1549  0.4956  0.1636
 3631SOL    HW114522   1.702   4.811   4.168 -1.3961 -0.1095 -0.6193
 3631SOL    HW214523   1.687   4.677   4.099 -0.1785 -1.5742  1.8262
 3631SOL     MW14524   1.728   4.729   4.155 -0.0987  0.1356  0.2820
 3632SOL     OW14525   3.373   2.474   5.150  0.6232  0.7737  0.1002
 3632SOL    HW114526   3.286   2.511   5.166  0.8083  1.5420 -0.5905
 3632SOL    HW214527   3.433   2.547   5.166  1.0639  0.5266 -0.3866
 3632SOL     MW14528   3.369   2.489   5.154  0.7074  0.8438 -0.0583
 3633SOL     OW14529   4.920   1.434   2.702  0.0875 -0.1021 -0.2930
 3633SOL    HW114530   4.940   1.372   2.631 -1.1743 -0.0602 -0.7167
 3633SOL    HW214531   4.973   1.511   2.681 -0.9222  0.2514 -1.7299
 3633SOL     MW14532   4.930   1.436   2.689 -0.2182 -0.0489 -0.5434
 3634SOL     OW14533   0.388   2.360   4.141  0.3735 -0.4304 -0.5271
 3634SOL    HW114534   0.419   2.271   4.154  1.0121  0.0782  2.0830
 3634SOL    HW214535   0.460   2.404   4.094  0.3960 -1.0529 -1.0881
 3634SOL     MW14536   0.402   2.354   4.136  0.4625 -0.4458 -0.2513
 3635SOL     OW14537   0.867   2.828   0.399  0.2719 -0.2045  0.8599
 3635SOL    HW114538   0.793   2.768   0.388  0.7193 -0.8909  1.5283
 3635SOL    HW214539   0.836   2.895   0.459 -0.9522  1.4943 -1.4904
 3635SOL     MW14540   0.853   2.829   0.405  0.1674 -0.0682  0.6336
 3636SOL     OW14541   0.935   2.922   0.136 -0.2056 -0.3198  0.2388
 3636SOL    HW114542   0.906   2.913   0.227  0.0467  0.1899  0.3736
 3636SOL    HW214543   1.029   2.936   0.143 -0.2503  0.1637 -0.0758
 3636SOL     MW14544   0.944   2.923   0.149 -0.1777 -0.1862  0.2146
 3637SOL     OW14545   1.948   2.464   3.783  0.3346 -0.0288 -0.0857
 3637SOL    HW114546   1.983   2.502   3.864 -0.4427 -1.5550  1.0264
 3637SOL    HW214547   1.960   2.370   3.794 -0.9215 -0.3482 -1.1924
 3637SOL     MW14548   1.954   2.457   3.796  0.0609 -0.2772 -0.0850
 3638SOL     OW14549   0.770   1.050   2.944 -0.6104  0.0323 -0.1935
 3638SOL    HW114550   0.865   1.054   2.961 -0.9403  1.3175  1.6670
 3638SOL    HW214551   0.762   0.998   2.865  1.6599 -0.1891 -0.3412
 3638SOL     MW14552   0.782   1.043   2.936 -0.3493  0.1754  0.0370
 3639SOL     OW14553   3.318   4.990   0.675  0.7000 -0.2836  0.4472
 3639SOL    HW114554   3.388   5.053   0.694  0.6976 -0.1737  0.0879
 3639SOL    HW214555   3.348   4.943   0.598  0.3568 -0.2120  0.2702
 3639SOL     MW14556   3.332   4.992   0.667  0.6535 -0.2592  0.3750
 3640SOL     OW14557   1.057   5.052   2.110  0.3946 -0.5058  0.1394
 3640SOL    HW114558   1.050   5.111   2.035  1.7327 -1.5854 -0.8709
 3640SOL    HW214559   1.148   5.060   2.139  0.2070 -0.9969  0.8884
 3640SOL     MW14560   1.068   5.061   2.104  0.5494 -0.7172  0.1042
 3641SOL     OW14561   1.959   2.392   1.059  0.1993 -0.0893  0.3874
 3641SOL    HW114562   1.973   2.466   1.001  0.7217  0.1150  0.7734
 3641SOL    HW214563   2.017   2.324   1.026  1.2815  0.3722  1.2840
 3641SOL     MW14564   1.968   2.393   1.047  0.4152  0.0003  0.5600
 3642SOL     OW14565   4.199   3.234   5.245 -0.1765 -0.3938  0.2278
 3642SOL    HW114566   4.235   3.311   5.202  1.1692 -0.2292  1.5982
 3642SOL    HW214567   4.111   3.261   5.273 -0.1559  0.2471 -0.3056
 3642SOL     MW14568   4.192   3.248   5.243  0.0074 -0.2854  0.3404
 3643SOL     OW14569   1.879   4.716   3.723 -0.1681  0.1507 -0.1413
 3643SOL    HW114570   1.838   4.641   3.680 -0.4825  0.7652 -0.9416
 3643SOL    HW214571   1.958   4.732   3.672 -1.0315  1.4798 -1.1350
 3643SOL     MW14572   1.884   4.708   3.710 -0.3266  0.4123 -0.3827
 3644SOL     OW14573   3.375   2.285   1.551 -0.1054 -0.5340 -0.7404
 3644SOL    HW114574   3.452   2.316   1.597 -1.2559  0.4131  0.6613
 3644SOL    HW214575   3.389   2.310   1.460  1.6413 -1.2624 -0.7063
 3644SOL     MW14576   3.387   2.293   1.545 -0.0252 -0.5046 -0.5472
 3645SOL     OW14577   1.313   1.492   4.852 -0.0643 -0.3583  0.1222
 3645SOL    HW114578   1.359   1.540   4.783  1.3192 -0.1012  1.1681
 3645SOL    HW214579   1.246   1.441   4.806  0.0218  0.7171 -1.2698
 3645SOL     MW14580   1.310   1.492   4.837  0.1334 -0.1790  0.0756
 3646SOL     OW14581   4.743   0.686   2.207 -1.0256  0.2401 -0.0170
 3646SOL    HW114582   4.833   0.654   2.212 -0.6840  1.2376  0.8961
 3646SOL    HW214583   4.693   0.615   2.167 -0.3972 -1.5895  2.2077
 3646SOL     MW14584   4.748   0.672   2.202 -0.8951  0.1282  0.4053
 3647SOL     OW14585   3.862   4.340   4.684 -0.1743  0.2701 -0.1705
 3647SOL    HW114586   3.797   4.374   4.746 -0.4719  0.7938 -0.7538
 3647SOL    HW214587   3.908   4.419   4.652  0.3284 -0.0390 -0.2276
 3647SOL     MW14588   3.860   4.355   4.688 -0.1467  0.2990 -0.2566
 3648SOL     OW14589   4.477   2.960   1.872  0.2287  0.2843  0.2756
 3648SOL    HW114590   4.496   3.031   1.933  1.6224  0.2680 -0.1060
 3648SOL    HW214591   4.539   2.891   1.897  0.9988  0.3694 -1.2924
 3648SOL     MW14592   4.488   2.960   1.883  0.5199  0.2935  0.0132
 3649SOL     OW14593   2.364   3.357   1.755 -0.3561  0.0774 -0.0331
 3649SOL    HW114594   2.350   3.423   1.688  2.2824  0.2549 -0.4958
 3649SOL    HW214595   2.316   3.390   1.831 -1.0594  1.2876 -0.9620
 3649SOL     MW14596   2.356   3.370   1.756 -0.0957  0.2641 -0.2204
 3650SOL     OW14597   3.147   4.557   5.242  0.2659 -0.1701  0.3282
 3650SOL    HW114598   3.158   4.504   5.320  1.1457  0.7493  0.8495
 3650SOL    HW214599   3.233   4.597   5.227 -0.0803  0.2348 -0.6795
 3650SOL     MW14600   3.160   4.556   5.250  0.3377  0.0081  0.2627
 3651SOL     OW14601   3.358   3.053   3.168 -0.1146  0.3620  0.0102
 3651SOL    HW114602   3.267   3.068   3.195  0.2278  2.3186  0.1976
 3651SOL    HW214603   3.410   3.100   3.233  0.9888  0.3032 -0.8041
 3651SOL     MW14604   3.353   3.061   3.181  0.0800  0.6174 -0.0742
 3652SOL     OW14605   1.508   1.752   3.307  0.4581  0.6074 -0.4394
 3652SOL    HW114606   1.575   1.819   3.295  1.8903 -0.5974  0.4830
 3652SOL    HW214607   1.486   1.723   3.218  2.1452  0.1295 -0.7385
 3652SOL     MW14608   1.514   1.757   3.293  0.8779  0.3809 -0.3555
 3653SOL     OW14609   0.337   2.619   0.444 -0.1618 -0.4017 -0.8161
 3653SOL    HW114610   0.427   2.613   0.412 -0.5574 -0.2288 -2.0223
 3653SOL    HW214611   0.306   2.528   0.445 -0.2291 -0.3833 -1.1782
 3653SOL     MW14612   0.345   2.606   0.440 -0.2241 -0.3760 -1.0271
 3654SOL     OW14613   4.489   2.633   2.238 -0.0837 -0.2522 -0.0910
 3654SOL    HW114614   4.494   2.577   2.315  1.2038 -2.0204 -1.3724
 3654SOL    HW214615   4.397   2.626   2.210 -0.4476  0.0377  0.9737
 3654SOL     MW14616   4.477   2.625   2.244  0.0406 -0.4511 -0.1202
 3655SOL     OW14617   0.739   4.724   0.188  0.3457 -0.0781  0.4765
 3655SOL    HW114618   0.682   4.699   0.115  0.8855  2.1885 -0.8028
 3655SOL    HW214619   0.702   4.679   0.264 -2.1837  0.0382 -0.6072
 3655SOL     MW14620   0.726   4.715   0.189  0.0779  0.2426  0.1585
 3656SOL     OW14621   0.344   1.081   2.808  0.4494 -0.0930 -0.1094
 3656SOL    HW114622   0.370   1.003   2.759 -0.7877 -1.0974  0.7599
 3656SOL    HW214623   0.298   1.136   2.743  0.3716 -0.5827 -0.4736
 3656SOL     MW14624   0.341   1.078   2.792  0.2724 -0.2941 -0.0415
 3657SOL     OW14625   2.346   3.305   3.251  0.3771  0.2270  0.0071
 3657SOL    HW114626   2.308   3.250   3.319 -0.9856 -1.2165 -1.8096
 3657SOL    HW214627   2.372   3.243   3.182  0.2543  1.7233 -1.4528
 3657SOL     MW14628   2.344   3.289   3.251  0.1772  0.2341 -0.4338
 3658SOL     OW14629   0.877   3.434   1.864 -0.0243  0.3567 -0.0363
 3658SOL    HW114630   0.859   3.447   1.958  0.2085  0.9050 -0.0625
 3658SOL    HW214631   0.818   3.495   1.820  0.7262  1.0011 -0.1874
 3658SOL     MW14632   0.867   3.444   1.871  0.1080  0.5172 -0.0602
 3659SOL     OW14633   3.022   3.196   4.969 -0.1618  0.4030  0.0689
 3659SOL    HW114634   3.004   3.194   5.063 -0.9757 -1.0638 -0.0738
 3659SOL    HW214635   2.983   3.278   4.939  1.7638  1.8478  1.2635
 3659SOL     MW14636   3.014   3.206   4.978 -0.0122  0.4000  0.2105
 3660SOL     OW14637   3.061   3.593   4.703  0.0343  0.0767 -0.2377
 3660SOL    HW114638   3.115   3.571   4.627  0.0394 -0.2898 -0.1311
 3660SOL    HW214639   3.039   3.685   4.691  0.8956  0.2996 -0.1489
 3660SOL     MW14640   3.065   3.603   4.691  0.1509  0.0574 -0.2114
 3661SOL     OW14641   0.734   1.756   4.390 -0.3499  0.0683  0.1746
 3661SOL    HW114642   0.659   1.815   4.381 -0.9111 -0.7627 -0.8220
 3661SOL    HW214643   0.733   1.731   4.482 -0.3999  1.2134  0.5007
 3661SOL     MW14644   0.723   1.760   4.401 -0.4321  0.1106  0.0844
 3662SOL     OW14645   3.400   4.431   4.865 -0.3428  0.0605  0.2816
 3662SOL    HW114646   3.347   4.393   4.936 -0.0104 -0.3672  0.2983
 3662SOL    HW214647   3.337   4.451   4.796 -0.7478  0.9276  0.8766
 3662SOL     MW14648   3.384   4.429   4.866 -0.3525  0.1197  0.3639
 3663SOL     OW14649   0.843   3.945   0.145 -0.1982 -0.1542 -0.1327
 3663SOL    HW114650   0.893   3.870   0.112  0.1909  0.0314  0.0341
 3663SOL    HW214651   0.867   4.017   0.087  0.1334  0.0616  0.2675
 3663SOL     MW14652   0.853   3.944   0.133 -0.1012 -0.1002 -0.0564
 3664SOL     OW14653   1.017   0.443   2.658  0.5137 -0.5031  0.1276
 3664SOL    HW114654   0.967   0.524   2.657  1.9387  0.4150 -0.2336
 3664SOL    HW214655   0.956   0.378   2.692 -1.1981  0.3405 -1.1397
 3664SOL     MW14656   1.002   0.445   2.662  0.4751 -0.2660 -0.0915
 3665SOL     OW14657   3.532   5.415   0.793 -0.2848  0.4782 -0.1508
 3665SOL    HW114658   3.471   5.444   0.724 -1.5135  1.7361  1.3704
 3665SOL    HW214659   3.612   5.465   0.776 -0.1419 -0.1064 -1.3314
 3665SOL     MW14660   3.534   5.426   0.781 -0.4309  0.5688 -0.1050
 3666SOL     OW14661   0.046   5.370   3.816  0.0290 -0.1135  0.2652
 3666SOL    HW114662   0.123   5.355   3.761 -2.0791  0.1777 -3.1239
 3666SOL    HW214663   0.031   5.464   3.810 -0.4357 -0.1328  1.0843
 3666SOL     MW14664   0.054   5.380   3.808 -0.3173 -0.0769 -0.0807
 3667SOL     OW14665   2.124   3.154   2.949 -0.3624  0.4637 -0.2879
 3667SOL    HW114666   2.103   3.128   3.039  1.8821  1.5465  0.6359
 3667SOL    HW214667   2.048   3.126   2.897 -1.4804 -0.6882  1.8359
 3667SOL     MW14668   2.111   3.146   2.954 -0.2108  0.4544  0.1222
 3668SOL     OW14669   2.523   0.075   1.329  0.1318  0.0579  0.2226
 3668SOL    HW114670   2.528   0.170   1.329 -0.0052  0.0674 -0.0408
 3668SOL    HW214671   2.487   0.053   1.243 -1.4861 -0.1414  0.9160
 3668SOL     MW14672   2.519   0.085   1.317 -0.1044  0.0323  0.2804
 3669SOL     OW14673   1.257   2.457   0.273 -0.0072 -0.3084  0.1321
 3669SOL    HW114674   1.288   2.547   0.285  1.3570 -1.1113  4.5243
 3669SOL    HW214675   1.163   2.461   0.291 -0.5388  0.4971 -2.3885
 3669SOL     MW14676   1.248   2.470   0.277  0.1049 -0.3080  0.3840
 3670SOL     OW14677   3.769   1.258   3.144  0.0919  0.3292 -0.2338
 3670SOL    HW114678   3.818   1.231   3.067  1.3095 -2.0335  1.2405
 3670SOL    HW214679   3.813   1.337   3.175  2.3268 -1.0764  0.3661
 3670SOL     MW14680   3.781   1.265   3.138  0.5565 -0.1779  0.0453
 3671SOL     OW14681   1.482   0.349   5.414  0.1182 -0.4816  0.2335
 3671SOL    HW114682   1.441   0.265   5.395 -2.0822  0.6833 -0.5806
 3671SOL    HW214683   1.435   0.382   5.490  0.6339  0.2166  0.2570
 3671SOL     MW14684   1.470   0.342   5.422 -0.1085 -0.2309  0.1271
 3672SOL     OW14685   4.016   1.657   1.841  0.5024 -0.0254  0.9321
 3672SOL    HW114686   4.001   1.740   1.888 -1.0714 -0.4872  1.2946
 3672SOL    HW214687   3.946   1.600   1.871 -1.3889  0.0157 -2.8738
 3672SOL     MW14688   4.005   1.661   1.852  0.0361 -0.0820  0.4687
 3673SOL     OW14689   1.423   3.303   4.592 -0.2558 -0.0311 -0.4291
 3673SOL    HW114690   1.420   3.220   4.640  0.6776 -0.2419 -0.7163
 3673SOL    HW214691   1.378   3.284   4.510 -1.4828  0.2132  0.1583
 3673SOL     MW14692   1.416   3.289   4.587 -0.2953 -0.0266 -0.3887
 3674SOL     OW14693   0.053   4.298   3.033 -0.4250  0.0899 -0.3536
 3674SOL    HW114694  -0.042   4.295   3.043 -0.4558 -2.3039 -0.8546
 3674SOL    HW214695   0.087   4.270   3.118 -0.2011  0.0123 -0.4682
 3674SOL     MW14696   0.045   4.294   3.046 -0.3990 -0.2427 -0.4365
 3675SOL     OW14697   4.609   0.164   0.982 -0.9081  0.3799  0.3168
 3675SOL    HW114698   4.616   0.214   1.063  0.1374  1.4831 -0.4187
 3675SOL    HW214699   4.595   0.074   1.010 -0.3037  0.7110  1.7238
 3675SOL     MW14700   4.608   0.159   0.996 -0.6860  0.5729  0.4072
 3676SOL     OW14701   4.887   1.750   3.870 -0.1853 -0.1331  0.0782
 3676SOL    HW114702   4.974   1.709   3.878 -0.3084 -0.5168 -0.4726
 3676SOL    HW214703   4.862   1.734   3.778  0.1091  1.8665 -0.3895
 3676SOL     MW14704   4.896   1.742   3.858 -0.1623  0.0844 -0.0589
 3677SOL     OW14705   1.746   2.280   1.921  0.0962 -0.9855 -0.4625
 3677SOL    HW114706   1.829   2.237   1.942  0.7510  0.1152 -0.6816
 3677SOL    HW214707   1.732   2.260   1.829  0.2757 -0.9296 -0.5029
 3677SOL     MW14708   1.756   2.271   1.911  0.2085 -0.8299 -0.4975
 3678SOL     OW14709   0.797   0.290   2.750  0.3081  0.4843  0.0034
 3678SOL    HW114710   0.718   0.342   2.738 -0.2212 -0.3809 -0.3436
 3678SOL    HW214711   0.766   0.199   2.754  1.4223 -0.0612 -2.1775
 3678SOL     MW14712   0.782   0.285   2.749  0.3868  0.2945 -0.3369
 3679SOL     OW14713   3.898   2.762   2.957 -0.3235 -0.2576  0.0427
 3679SOL    HW114714   3.899   2.669   2.936 -0.9388 -0.1355 -0.5657
 3679SOL    HW214715   3.837   2.800   2.894 -0.0026  0.5735  0.2240
 3679SOL     MW14716   3.890   2.755   2.946 -0.3631 -0.1293 -0.0148
 3680SOL     OW14717   3.066   3.765   4.144  0.2050 -0.7974 -0.6665
 3680SOL    HW114718   2.988   3.767   4.200  0.6983 -0.1571  0.0153
 3680SOL    HW214719   3.137   3.796   4.200  0.5727  0.6373 -1.8615
 3680SOL     MW14720   3.065   3.769   4.159  0.3209 -0.5182 -0.7356
 3681SOL     OW14721   4.874   1.455   4.289  0.1630  0.0984 -0.1511
 3681SOL    HW114722   4.873   1.535   4.236 -0.8377  0.1026 -0.1518
 3681SOL    HW214723   4.833   1.481   4.372 -0.8716 -0.5725 -0.4294
 3681SOL     MW14724   4.868   1.469   4.293 -0.1109  0.0087 -0.1886
 3682SOL     OW14725   1.665   1.268   4.484 -0.7707 -0.3030 -0.2810
 3682SOL    HW114726   1.571   1.269   4.464 -1.1741 -0.5422  1.3832
 3682SOL    HW214727   1.690   1.176   4.475 -0.3622 -0.0473 -2.0074
 3682SOL     MW14728   1.656   1.255   4.480 -0.7700 -0.3008 -0.2894
 3683SOL     OW14729   1.664   3.771   2.158  0.5945  0.2376 -0.1151
 3683SOL    HW114730   1.681   3.744   2.249 -0.1368 -0.3439 -0.1438
 3683SOL    HW214731   1.633   3.861   2.166  2.6708  0.9953  0.0142
 3683SOL     MW14732   1.662   3.780   2.172  0.7755  0.2613 -0.1016
 3684SOL     OW14733   3.033   2.564   0.482 -0.3895  0.4331 -0.4556
 3684SOL    HW114734   3.047   2.603   0.569  0.3689  1.9097 -1.1960
 3684SOL    HW214735   2.944   2.529   0.485  0.0667 -0.7070  1.3278
 3684SOL     MW14736   3.023   2.565   0.494 -0.2260  0.4784 -0.3152
 3685SOL     OW14737   1.761   5.504   1.034  0.2753  0.2924  0.3331
 3685SOL    HW114738   1.691   5.554   0.993  0.8661  0.7046 -0.1970
 3685SOL    HW214739   1.743   5.413   1.013 -0.0752  0.4023  0.1614
 3685SOL     MW14740   1.749   5.499   1.026  0.3076  0.3626  0.2386
 3686SOL     OW14741   3.299   1.792   3.238  0.5839 -0.0412  0.4108
 3686SOL    HW114742   3.331   1.855   3.174 -0.3915  1.2695  1.1696
 3686SOL    HW214743   3.205   1.810   3.244  0.3761 -1.2371  1.0221
 3686SOL     MW14744   3.290   1.803   3.230  0.4247 -0.0257  0.5952
 3687SOL     OW14745   0.622   0.384   4.461 -0.1376 -0.0216  0.3790
 3687SOL    HW114746   0.712   0.367   4.433 -0.2025  0.2098  0.0233
 3687SOL    HW214747   0.612   0.334   4.543  1.1441  1.9427  1.8412
 3687SOL     MW14748   0.633   0.375   4.469  0.0261  0.2739  0.5279
 3688SOL     OW14749   4.931   5.290   4.723  0.2051 -0.6919 -0.2358
 3688SOL    HW114750   4.914   5.199   4.746 -2.6110 -0.7558 -2.0773
 3688SOL    HW214751   4.919   5.294   4.628 -3.0087  2.1217  0.1058
 3688SOL     MW14752   4.927   5.279   4.713 -0.6064 -0.3218 -0.4377
 3689SOL     OW14753   2.357   4.591   5.026 -0.1154 -0.4226 -0.0301
 3689SOL    HW114754   2.317   4.664   5.072 -1.3927 -0.5306 -0.9091
 3689SOL    HW214755   2.325   4.599   4.936  0.7662 -1.3125 -0.4389
 3689SOL     MW14756   2.347   4.602   5.020 -0.1687 -0.5569 -0.2034
 3690SOL     OW14757   1.648   3.107   1.225  0.2327  0.0236  0.3152
 3690SOL    HW114758   1.623   3.177   1.285  1.7399  0.3260  0.6296
 3690SOL    HW214759   1.706   3.149   1.161  0.1608 -0.6871 -0.2361
 3690SOL     MW14760   1.652   3.122   1.224  0.4259 -0.0314  0.2833
 3691SOL     OW14761   0.878   0.727   1.532 -0.5276 -0.2343 -0.5165
 3691SOL    HW114762   0.899   0.712   1.439 -0.9212  0.4591 -0.7294
 3691SOL    HW214763   0.954   0.694   1.579  0.0046  0.0697 -1.1384
 3691SOL     MW14764   0.891   0.721   1.526 -0.5089 -0.1001 -0.6289
 3692SOL     OW14765   0.078   0.040   0.123  0.2253  0.4107 -0.1152
 3692SOL    HW114766   0.085   0.125   0.168  0.6386 -0.0145  0.6539
 3692SOL    HW214767   0.034  -0.017   0.186 -0.7324  0.2483 -0.9228
 3692SOL     MW14768   0.073   0.044   0.138  0.1521  0.3316 -0.1204
 3693SOL     OW14769   2.240   3.552   3.468  0.6015  0.0688  0.8176
 3693SOL    HW114770   2.215   3.624   3.526 -1.6131  0.8967 -1.0361
 3693SOL    HW214771   2.312   3.587   3.415  0.3637  0.4729  0.7626
 3693SOL     MW14772   2.246   3.566   3.469  0.2714  0.2346  0.5607
 3694SOL     OW14773   1.427   0.033   0.117  0.1159 -0.5563  0.0995
 3694SOL    HW114774   1.389   0.048   0.031  0.1928 -0.4700  0.0805
 3694SOL    HW214775   1.518   0.010   0.099  0.1561 -0.4455  0.1637
 3694SOL     MW14776   1.434   0.032   0.103  0.1317 -0.5298  0.1056
 3695SOL     OW14777   3.860   1.633   4.036  0.8918 -0.1152 -0.1598
 3695SOL    HW114778   3.790   1.587   3.990  0.3625 -1.3657  1.7828
 3695SOL    HW214779   3.815   1.697   4.091  1.2835 -0.6260  0.7758
 3695SOL     MW14780   3.844   1.636   4.037  0.8733 -0.3522  0.2275
 3696SOL     OW14781   4.215   1.067   1.571 -0.2142 -0.2604 -0.2191
 3696SOL    HW114782   4.246   1.126   1.640 -0.8918 -3.3441  3.0133
 3696SOL    HW214783   4.288   1.006   1.557 -0.7937 -0.8399 -0.8004
 3696SOL     MW14784   4.229   1.067   1.579 -0.3834 -0.7534  0.1377
 3697SOL     OW14785   0.836   5.127   3.444 -0.1527 -0.1469  0.9677
 3697SOL    HW114786   0.822   5.033   3.453  0.4355 -0.2104  1.2998
 3697SOL    HW214787   0.883   5.137   3.361 -0.4580 -0.1191  0.7980
 3697SOL     MW14788   0.840   5.116   3.434 -0.1146 -0.1517  0.9896
 3698SOL     OW14789   2.973   2.100   3.611  0.7642  0.2640 -0.1484
 3698SOL    HW114790   2.981   2.050   3.692 -0.0551  0.1670 -0.1284
 3698SOL    HW214791   2.897   2.064   3.566  1.0602  0.4798 -0.8530
 3698SOL     MW14792   2.964   2.089   3.616  0.6937  0.2800 -0.2405
 3699SOL     OW14793   4.639   0.101   1.561  0.0172 -0.7157 -0.6433
 3699SOL    HW114794   4.695   0.072   1.489  0.2559  0.7919 -1.0963
 3699SOL    HW214795   4.655   0.037   1.631 -0.5408 -2.4579 -2.0344
 3699SOL     MW14796   4.649   0.088   1.561 -0.0258 -0.7473 -0.8915
 3700SOL     OW14797   2.935   5.004   1.458 -0.0967 -0.0727  0.1514
 3700SOL    HW114798   2.991   4.973   1.386  0.4913  0.0669  0.5446
 3700SOL    HW214799   2.964   4.954   1.534 -1.9460 -1.5460 -0.0594
 3700SOL     MW14800   2.947   4.993   1.458 -0.2665 -0.2522  0.1759
 3701SOL     OW14801   1.354   0.952   0.116  0.4102 -0.0680 -0.1115
 3701SOL    HW114802   1.342   0.866   0.159  1.3518  0.0051  0.3247
 3701SOL    HW214803   1.312   1.014   0.176 -0.1203 -0.1968 -0.3423
 3701SOL     MW14804   1.347   0.948   0.130  0.4655 -0.0755 -0.0839
 3702SOL     OW14805   2.279   0.324   2.221 -0.6936  0.0413 -0.2790
 3702SOL    HW114806   2.244   0.236   2.209 -1.4519  0.2665  0.1684
 3702SOL    HW214807   2.241   0.375   2.150 -2.3685  0.5826  0.9567
 3702SOL     MW14808   2.269   0.319   2.210 -1.0210  0.1444 -0.0525
 3703SOL     OW14809   4.717   5.269   4.199 -0.7742 -0.3492 -0.2835
 3703SOL    HW114810   4.749   5.226   4.119 -1.7538 -0.3306 -0.6945
 3703SOL    HW214811   4.753   5.357   4.195 -2.2580  0.2372 -1.6275
 3703SOL     MW14812   4.726   5.275   4.188 -1.1057 -0.2678 -0.5197
 3704SOL     OW14813   0.564   0.952   2.435 -0.6271  0.5258 -0.2796
 3704SOL    HW114814   0.634   0.932   2.373 -1.2351  0.1464 -0.8576
 3704SOL    HW214815   0.575   1.045   2.454 -0.1674  0.5464 -0.6152
 3704SOL     MW14816   0.575   0.962   2.429 -0.6471  0.4775 -0.4026
 3705SOL     OW14817   0.875   3.833   2.085 -0.0785  0.1501  0.0188
 3705SOL    HW114818   0.871   3.740   2.108 -1.6259 -0.4824 -2.3991
 3705SOL    HW214819   0.961   3.844   2.045 -0.2878 -0.5307 -0.6419
 3705SOL     MW14820   0.886   3.822   2.082 -0.3149 -0.0266 -0.3955
 3706SOL     OW14821   5.005   5.146   3.077 -0.2698 -0.6241  0.2900
 3706SOL    HW114822   5.061   5.218   3.048 -1.2847 -0.1514 -0.5279
 3706SOL    HW214823   4.968   5.110   2.997 -0.7267 -1.2836  0.7825
 3706SOL     MW14824   5.008   5.151   3.063 -0.4678 -0.6492  0.2462
 3707SOL     OW14825   4.946   0.124   5.294 -0.2439 -0.1450  0.2134
 3707SOL    HW114826   4.885   0.197   5.288 -1.8836 -1.5240 -0.9679
 3707SOL    HW214827   5.015   0.144   5.230 -1.1171  0.0171 -0.7081
 3707SOL     MW14828   4.947   0.137   5.284 -0.5821 -0.3088 -0.0696
 3708SOL     OW14829   3.627   1.353   0.552  0.2330  0.1510  0.1658
 3708SOL    HW114830   3.719   1.380   0.559  0.5765  0.8632 -4.0863
 3708SOL    HW214831   3.578   1.435   0.557  0.1454  0.1531 -0.6068
 3708SOL     MW14832   3.633   1.368   0.553  0.2674  0.2472 -0.5104
 3709SOL     OW14833   1.355   4.768   2.071  0.2998  0.7170  0.3025
 3709SOL    HW114834   1.268   4.784   2.035  0.0279 -0.2215  0.5015
 3709SOL    HW214835   1.340   4.753   2.164  0.6216  0.2143  0.2793
 3709SOL     MW14836   1.342   4.768   2.079  0.3065  0.5230  0.3261
 3710SOL     OW14837   0.415   5.451   2.484 -0.4962  0.3997  0.4372
 3710SOL    HW114838   0.332   5.500   2.491 -0.6966  0.5023 -1.9505
 3710SOL    HW214839   0.475   5.513   2.443 -0.4232 -0.9433 -1.5762
 3710SOL     MW14840   0.412   5.466   2.480 -0.5133  0.2328 -0.1551
 3711SOL     OW14841   5.256   3.451   4.769 -0.4508 -0.2089 -0.2276
 3711SOL    HW114842   5.274   3.359   4.789  0.0045 -0.4972 -1.8456
 3711SOL    HW214843   5.295   3.465   4.683 -1.5939  1.1662 -0.5578
 3711SOL     MW14844   5.263   3.440   4.760 -0.5433 -0.0626 -0.4898
 3712SOL     OW14845   0.917   0.188   1.612  0.1577  0.0374 -0.5050
 3712SOL    HW114846   0.879   0.100   1.606  1.5605 -0.6691  0.5428
 3712SOL    HW214847   0.967   0.198   1.531 -1.4349  0.6318 -1.4807
 3712SOL     MW14848   0.919   0.177   1.600  0.1322  0.0223 -0.4953
 3713SOL     OW14849   1.337   2.544   5.380 -0.1598  0.3195  0.1915
 3713SOL    HW114850   1.278   2.469   5.387  0.8668 -0.7944 -2.1989
 3713SOL    HW214851   1.391   2.540   5.459  0.1285 -1.7021 -0.0755
 3713SOL     MW14852   1.336   2.534   5.391  0.0172 -0.1025 -0.1662
 3714SOL     OW14853   2.600   1.814   3.656 -0.3289 -0.6650  0.0037
 3714SOL    HW114854   2.602   1.772   3.742 -1.3737 -0.5308  0.0956
 3714SOL    HW214855   2.536   1.765   3.606 -1.3170  0.5786 -0.0053
 3714SOL     MW14856   2.592   1.802   3.661 -0.6025 -0.4795  0.0148
 3715SOL     OW14857   0.794   5.096   0.644  0.4193 -0.9125  0.3145
 3715SOL    HW114858   0.703   5.117   0.622  0.6264 -0.0364  0.2631
 3715SOL    HW214859   0.840   5.101   0.561  0.4806 -1.5593  0.3088
 3715SOL     MW14860   0.788   5.100   0.630  0.4554 -0.8817  0.3068
 3716SOL     OW14861   3.591   0.063   1.684 -0.2088 -0.0181 -0.1428
 3716SOL    HW114862   3.597  -0.028   1.713  0.1954 -0.1477 -0.6309
 3716SOL    HW214863   3.541   0.107   1.753  1.0454 -0.2407  0.9233
 3716SOL     MW14864   3.585   0.057   1.697  0.0144 -0.0655 -0.0650
 3717SOL     OW14865   1.149   5.270   0.138 -0.0057 -0.1556  0.7462
 3717SOL    HW114866   1.221   5.290   0.078 -0.6531 -0.6262 -0.2234
 3717SOL    HW214867   1.171   5.316   0.219  0.5926  1.0080 -0.0501
 3717SOL     MW14868   1.161   5.279   0.140 -0.0123 -0.0623  0.5086
 3718SOL     OW14869   0.231   5.428   1.145  0.1290  0.1281  0.5717
 3718SOL    HW114870   0.204   5.519   1.155 -2.2516 -0.5521  0.8167
 3718SOL    HW214871   0.223   5.411   1.051  0.0976  0.0278  0.5927
 3718SOL     MW14872   0.226   5.438   1.134 -0.1956  0.0230  0.6075
 3719SOL     OW14873   2.625   5.504   3.090  0.1417 -0.3225 -0.2133
 3719SOL    HW114874   2.636   5.468   3.178  0.9381 -0.6708 -0.4393
 3719SOL    HW214875   2.673   5.443   3.033 -1.7263 -1.0424 -1.1246
 3719SOL     MW14876   2.633   5.491   3.094 -0.0025 -0.4663 -0.3664
 3720SOL     OW14877   4.670   1.531   0.002 -0.2577 -0.3043  0.4234
 3720SOL    HW114878   4.577   1.549   0.018 -0.3301 -0.0878 -0.2067
 3720SOL    HW214879   4.709   1.526   0.089 -0.7114  0.3719  0.6700
 3720SOL     MW14880   4.663   1.533   0.016 -0.3285 -0.1842  0.3718
 3721SOL     OW14881   3.767   3.360   1.808  0.6974 -0.1406  0.4932
 3721SOL    HW114882   3.677   3.329   1.799  0.4814  0.7489 -0.7969
 3721SOL    HW214883   3.788   3.349   1.900 -0.7657 -0.2886  0.8300
 3721SOL     MW14884   3.758   3.355   1.819  0.4715 -0.0408  0.3649
 3722SOL     OW14885   3.272   2.915   5.161 -0.0901 -0.1375  0.2748
 3722SOL    HW114886   3.185   2.874   5.165  0.3910 -1.0606  2.3850
 3722SOL    HW214887   3.260   3.000   5.202 -0.4421  0.7068 -1.4780
 3722SOL     MW14888   3.259   2.921   5.167 -0.0727 -0.1481  0.3229
 3723SOL     OW14889   1.177   0.303   4.058 -0.2598  0.0358 -0.1909
 3723SOL    HW114890   1.246   0.248   4.022  1.9314  2.6333 -0.3254
 3723SOL    HW214891   1.133   0.340   3.981 -1.8644 -1.5894 -0.1054
 3723SOL     MW14892   1.181   0.301   4.043 -0.1808  0.1667 -0.1975
 3724SOL     OW14893   1.630   4.634   1.193  0.5131 -0.2704  0.0123
 3724SOL    HW114894   1.670   4.549   1.174 -0.3473 -0.6197 -0.2578
 3724SOL    HW214895   1.567   4.617   1.262 -1.8567 -0.4794 -2.0450
 3724SOL     MW14896   1.627   4.621   1.200  0.0784 -0.3455 -0.3009
 3725SOL     OW14897   4.944   2.841   5.050 -0.5437 -0.0661  0.0726
 3725SOL    HW114898   4.860   2.886   5.057 -0.4230  0.2578 -0.4851
 3725SOL    HW214899   5.010   2.909   5.066 -0.3748 -0.1740 -0.1485
 3725SOL     MW14900   4.942   2.856   5.053 -0.5047 -0.0371 -0.0322
 3726SOL     OW14901   2.152   3.978   4.470 -0.2825 -0.2281  0.3680
 3726SOL    HW114902   2.106   3.977   4.555 -0.2013 -0.4409  0.4098
 3726SOL    HW214903   2.091   4.023   4.411  0.5132  1.8362  1.0095
 3726SOL     MW14904   2.138   3.984   4.474 -0.1645  0.0211  0.4599
 3727SOL     OW14905   1.026   4.281   2.914 -0.3354 -0.8351 -0.6455
 3727SOL    HW114906   0.968   4.346   2.875 -0.3573 -0.0140  0.6824
 3727SOL    HW214907   1.006   4.200   2.868 -0.5508  0.0197 -2.1074
 3727SOL     MW14908   1.015   4.279   2.903 -0.3674 -0.6095 -0.6635
 3728SOL     OW14909   1.483   3.771   3.909 -0.3482  0.7769  0.7927
 3728SOL    HW114910   1.555   3.768   3.847  0.5312  0.4045  1.8001
 3728SOL    HW214911   1.416   3.713   3.871  0.2886  0.3251  0.3336
 3728SOL     MW14912   1.484   3.763   3.896 -0.1441  0.6659  0.8665
 3729SOL     OW14913   1.041   2.159   1.491  0.4609 -0.5108  0.3399
 3729SOL    HW114914   1.031   2.237   1.436  0.1640 -2.0821 -1.9611
 3729SOL    HW214915   1.135   2.152   1.504  0.6391 -0.6550 -0.8662
 3729SOL     MW14916   1.052   2.169   1.485  0.4449 -0.7417 -0.1320
 3730SOL     OW14917   4.948   1.950   2.933  0.0845 -0.0219  0.1149
 3730SOL    HW114918   4.998   1.920   3.009  0.3931 -0.0017 -0.0793
 3730SOL    HW214919   4.945   2.045   2.941 -0.8832 -0.0854  0.7241
 3730SOL     MW14920   4.954   1.959   2.944 -0.0042 -0.0277  0.1708
 3731SOL     OW14921   2.835   0.969   4.575  0.0270 -0.0419 -0.4118
 3731SOL    HW114922   2.860   1.060   4.594 -0.1923 -0.1904  0.6576
 3731SOL    HW214923   2.741   0.973   4.557  0.1036  0.0017 -0.8101
 3731SOL     MW14924   2.826   0.982   4.575  0.0078 -0.0560 -0.3215
 3732SOL     OW14925   2.880   3.589   0.916  0.5642  0.4082  0.2616
 3732SOL    HW114926   2.844   3.678   0.912  1.8384  0.9959  0.9918
 3732SOL    HW214927   2.898   3.574   1.009  1.4430 -0.1492  0.0164
 3732SOL     MW14928   2.878   3.599   0.928  0.8540  0.4123  0.3269
 3733SOL     OW14929   0.430   3.210   5.369  0.0925 -0.1109 -0.3436
 3733SOL    HW114930   0.436   3.149   5.295 -4.0611 -0.7538 -0.4099
 3733SOL    HW214931   0.419   3.154   5.446  0.2760  0.5772  0.1924
 3733SOL     MW14932   0.429   3.194   5.369 -0.4418 -0.1049 -0.2804
 3734SOL     OW14933   1.906   0.837   4.438 -0.5811  0.2971  0.1136
 3734SOL    HW114934   1.973   0.887   4.484  0.1759 -1.2943  0.8404
 3734SOL    HW214935   1.881   0.767   4.499 -2.2046  0.2663 -0.5230
 3734SOL     MW14936   1.912   0.834   4.453 -0.6977  0.0787  0.1258
 3735SOL     OW14937   2.073   4.223   3.022  0.2982  0.0374 -0.1043
 3735SOL    HW114938   2.006   4.171   2.977  1.0698 -0.9362 -0.1609
 3735SOL    HW214939   2.050   4.314   3.003 -2.0256 -0.1619  1.3116
 3735SOL     MW14940   2.061   4.228   3.013  0.0893 -0.1204  0.0786
 3736SOL     OW14941   2.070   0.709   4.899 -0.0194 -0.3330 -0.2274
 3736SOL    HW114942   2.139   0.696   4.964 -0.7541 -1.4048  0.3590
 3736SOL    HW214943   2.044   0.801   4.910  0.1470 -0.3900  0.7169
 3736SOL     MW14944   2.076   0.720   4.910 -0.0959 -0.4849 -0.0214
 3737SOL     OW14945   3.161   5.177   4.238  0.5173 -0.4322  0.1894
 3737SOL    HW114946   3.172   5.139   4.325 -1.0865 -1.3228  0.0347
 3737SOL    HW214947   3.195   5.112   4.178 -2.3241 -1.8231 -0.0822
 3737SOL     MW14948   3.167   5.163   4.242 -0.0809 -0.7393  0.1320
 3738SOL     OW14949   0.426   2.304   1.946 -0.0079  0.2229  0.3540
 3738SOL    HW114950   0.453   2.301   2.037 -0.0867 -1.1573  0.3523
 3738SOL    HW214951   0.442   2.394   1.919  0.2317  0.5880  1.6575
 3738SOL     MW14952   0.432   2.316   1.954  0.0137  0.0863  0.5292
 3739SOL     OW14953   1.885   5.489   4.292 -0.0077 -0.6109  0.0888
 3739SOL    HW114954   1.841   5.485   4.207 -0.5939 -2.3879  0.4490
 3739SOL    HW214955   1.978   5.488   4.270 -0.1376 -0.1180 -0.5474
 3739SOL     MW14956   1.891   5.489   4.277 -0.1041 -0.7837  0.0517
 3740SOL     OW14957   2.643   4.180   5.059 -0.1927 -0.0298 -0.0081
 3740SOL    HW114958   2.722   4.195   5.111  0.8354 -0.5871 -1.3513
 3740SOL    HW214959   2.605   4.100   5.097  0.3211 -0.2005  0.1601
 3740SOL     MW14960   2.648   4.171   5.071  0.0148 -0.1278 -0.1663
 3741SOL     OW14961   2.393   4.461   3.979  0.1774  0.2122 -0.0427
 3741SOL    HW114962   2.340   4.487   3.903 -0.6705  0.4021  0.5927
 3741SOL    HW214963   2.385   4.534   4.040  0.4556 -0.1414  0.4251
 3741SOL     MW14964   2.385   4.474   3.977  0.1007  0.1901  0.1058
 3742SOL     OW14965   3.171   3.576   2.555  0.3301 -0.1435  0.2635
 3742SOL    HW114966   3.131   3.537   2.478 -0.7198 -0.5016  0.9729
 3742SOL    HW214967   3.264   3.585   2.532  0.2905 -1.4942 -0.5267
 3742SOL     MW14968   3.178   3.572   2.542  0.1835 -0.3735  0.2526
 3743SOL     OW14969   5.350   5.393   4.339 -0.7574 -0.2786 -0.0677
 3743SOL    HW114970   5.369   5.464   4.400 -0.9129 -0.5130  0.2564
 3743SOL    HW214971   5.430   5.341   4.337 -0.5342  0.0765 -0.5444
 3743SOL     MW14972   5.363   5.396   4.347 -0.7483 -0.2624 -0.0883
 3744SOL     OW14973   3.642   3.061   1.393 -0.2021 -0.7347  0.7188
 3744SOL    HW114974   3.550   3.070   1.418 -0.2507 -0.7589  0.5504
 3744SOL    HW214975   3.686   3.135   1.433 -0.5800  0.2312 -0.5857
 3744SOL     MW14976   3.636   3.072   1.402 -0.2595 -0.6080  0.5205
 3745SOL     OW14977   4.326   0.414   0.110  0.2152 -0.2499  0.2085
 3745SOL    HW114978   4.322   0.406   0.205 -0.6746 -0.6171  0.1425
 3745SOL    HW214979   4.336   0.508   0.094  1.4425 -0.2803  0.6866
 3745SOL     MW14980   4.327   0.425   0.121  0.2606 -0.3034  0.2640
 3746SOL     OW14981   3.365   1.808   2.054  0.8998  0.6303 -0.4129
 3746SOL    HW114982   3.288   1.796   2.110  2.5346 -2.3341  1.4711
 3746SOL    HW214983   3.358   1.738   1.988  0.9048  1.7456 -1.6427
 3746SOL     MW14984   3.354   1.797   2.053  1.1205  0.3814 -0.3249
 3747SOL     OW14985   0.576   0.900   1.819  0.1499  0.2449  0.3105
 3747SOL    HW114986   0.506   0.913   1.883 -0.2791  1.5172 -0.3682
 3747SOL    HW214987   0.656   0.926   1.866 -0.0120  0.0823  0.6790
 3747SOL     MW14988   0.578   0.905   1.834  0.0704  0.3943  0.2688
 3748SOL     OW14989   1.666   5.030   3.420  0.4395  0.4335 -0.0388
 3748SOL    HW114990   1.660   4.964   3.350 -0.9908  0.1750  0.3021
 3748SOL    HW214991   1.635   5.111   3.380 -0.1698  0.3352  0.2239
 3748SOL     MW14992   1.661   5.032   3.405  0.1650  0.3855  0.0424
 3749SOL     OW14993   2.794   2.427   0.469 -0.0369 -0.0016  0.5387
 3749SOL    HW114994   2.710   2.422   0.514 -0.1888 -0.2579  0.2275
 3749SOL    HW214995   2.837   2.344   0.490 -1.0696 -1.1824 -1.6779
 3749SOL     MW14996   2.789   2.415   0.478 -0.1963 -0.1950  0.1985
 3750SOL     OW14997   0.426   2.911   2.962 -0.0900 -0.0884  0.4320
 3750SOL    HW114998   0.397   2.839   3.019 -1.4710 -0.9920 -1.2987
 3750SOL    HW214999   0.371   2.902   2.884  2.7177  0.1407 -1.7108
 3750SOL     MW15000   0.415   2.900   2.959  0.1020 -0.1792 -0.0893
 3751SOL     OW15001   3.662   2.428   5.404  0.1911  0.1838 -0.4323
 3751SOL    HW115002   3.742   2.375   5.397 -1.1277 -2.5529  2.5760
 3751SOL    HW215003   3.606   2.396   5.333  0.0713 -1.3052  0.2962
 3751SOL     MW15004   3.666   2.417   5.394 -0.0025 -0.3849  0.0706
 3752SOL     OW15005   4.655   2.402   3.269  0.3072  0.1495 -0.0763
 3752SOL    HW115006   4.605   2.466   3.218 -0.1185  0.0470  0.2027
 3752SOL    HW215007   4.714   2.454   3.323  0.1928  0.2930 -0.0906
 3752SOL     MW15008   4.656   2.417   3.269  0.2345  0.1551 -0.0406
 3753SOL     OW15009   4.800   3.019   1.505 -0.2290 -0.3563  0.0951
 3753SOL    HW115010   4.870   3.040   1.444 -1.1063 -0.0439 -0.8488
 3753SOL    HW215011   4.836   3.036   1.592  0.6033  0.5174 -0.4096
 3753SOL     MW15012   4.814   3.024   1.508 -0.2351 -0.1967 -0.0998
 3754SOL     OW15013   0.786   3.522   3.023  0.3613  0.0494 -0.1379
 3754SOL    HW115014   0.787   3.614   2.996 -0.7524 -0.1748 -0.9947
 3754SOL    HW215015   0.824   3.475   2.948 -0.9621 -0.3833 -0.5562
 3754SOL     MW15016   0.791   3.528   3.009  0.0333 -0.0390 -0.3095
 3755SOL     OW15017   2.530   3.171   2.716 -0.1181  0.0137 -0.0852
 3755SOL    HW115018   2.528   3.076   2.730 -0.7545 -0.2930 -2.0184
 3755SOL    HW215019   2.438   3.197   2.715 -0.0061  0.4114 -0.9301
 3755SOL     MW15020   2.517   3.162   2.718 -0.1887  0.0259 -0.4591
 3756SOL     OW15021   2.543   2.874   2.696  0.5906 -0.0900 -0.0862
 3756SOL    HW115022   2.511   2.829   2.617  0.1107  0.2751 -0.1083
 3756SOL    HW215023   2.633   2.897   2.675  1.0542 -1.5515  0.1474
 3756SOL     MW15024   2.551   2.871   2.683  0.5884 -0.2376 -0.0577
 3757SOL     OW15025   1.555   2.500   4.702 -0.0877 -0.1956  0.2336
 3757SOL    HW115026   1.611   2.453   4.763  2.0753  1.2386 -0.4986
 3757SOL    HW215027   1.616   2.533   4.635 -1.7938  1.5371 -0.5718
 3757SOL     MW15028   1.571   2.498   4.701 -0.0262  0.2306  0.0266
 3758SOL     OW15029   3.613   0.088   3.583  0.2337 -0.3488  0.2167
 3758SOL    HW115030   3.678   0.026   3.616 -0.4258 -1.3119 -0.2249
 3758SOL    HW215031   3.536   0.073   3.637 -0.3499 -0.8516 -0.7171
 3758SOL     MW15032   3.612   0.077   3.595  0.0664 -0.5461  0.0316
 3759SOL     OW15033   5.369   4.672   4.422  1.0444  0.4473 -0.1595
 3759SOL    HW115034   5.322   4.629   4.494 -0.9876  0.9776 -1.1163
 3759SOL    HW215035   5.366   4.609   4.350  0.4702  1.0813 -0.6966
 3759SOL     MW15036   5.363   4.658   4.422  0.6936  0.6040 -0.3605
 3760SOL     OW15037   3.554   2.161   0.920 -0.2707 -0.3056 -0.1917
 3760SOL    HW115038   3.636   2.177   0.966 -1.0224  2.2094  0.4229
 3760SOL    HW215039   3.529   2.071   0.945  0.6994  0.0279  2.1649
 3760SOL     MW15040   3.562   2.151   0.929 -0.2413  0.0778  0.2082
 3761SOL     OW15041   3.670   0.699   3.419  0.1204 -0.3261 -0.3065
 3761SOL    HW115042   3.747   0.747   3.389  0.4245 -1.4532 -1.4185
 3761SOL    HW215043   3.637   0.750   3.493  0.9334  1.0965 -0.8877
 3761SOL     MW15044   3.676   0.712   3.425  0.2707 -0.2863 -0.5344
 3762SOL     OW15045   2.279   1.734   2.376  0.2256  0.0563 -0.1024
 3762SOL    HW115046   2.211   1.730   2.309  0.5808  2.2304 -0.6880
 3762SOL    HW215047   2.358   1.699   2.334 -0.0560 -0.5796 -0.0986
 3762SOL     MW15048   2.281   1.729   2.361  0.2355  0.2633 -0.1807
 3763SOL     OW15049   4.345   4.734   0.100  0.0912  0.2446 -0.8050
 3763SOL    HW115050   4.278   4.802   0.089  0.5742  0.7715 -0.5183
 3763SOL    HW215051   4.347   4.717   0.194 -0.6241 -0.7895 -0.9578
 3763SOL     MW15052   4.336   4.741   0.111  0.0599  0.1763 -0.7870
 3764SOL     OW15053   2.662   0.391   3.737 -0.2054 -0.2985 -0.1599
 3764SOL    HW115054   2.727   0.325   3.712 -0.9257 -0.7911 -0.8090
 3764SOL    HW215055   2.586   0.372   3.680 -0.5274  0.9189 -0.1595
 3764SOL     MW15056   2.660   0.379   3.726 -0.3457 -0.2009 -0.2472
 3765SOL     OW15057   1.272   2.785   2.983 -0.9201 -0.3024  0.3481
 3765SOL    HW115058   1.256   2.698   3.019 -0.1530 -0.2849  0.7540
 3765SOL    HW215059   1.354   2.813   3.024 -0.7515  0.2888 -0.3786
 3765SOL     MW15060   1.281   2.777   2.993 -0.7942 -0.2205  0.3049
 3766SOL     OW15061   4.464   1.679   0.361  0.1467  0.2633  0.4940
 3766SOL    HW115062   4.450   1.773   0.352 -1.3834  0.1091  0.9995
 3766SOL    HW215063   4.432   1.642   0.279  1.1587  0.2150  0.1162
 3766SOL     MW15064   4.458   1.686   0.349  0.0770  0.2361  0.5112
 3767SOL     OW15065   1.228   2.184   2.707  0.4779  0.1596 -0.4140
 3767SOL    HW115066   1.209   2.110   2.649 -1.4069  1.1087 -1.1104
 3767SOL    HW215067   1.281   2.147   2.777 -1.4295 -2.1542 -0.0571
 3767SOL     MW15068   1.233   2.169   2.708 -0.0325 -0.0241 -0.4597
 3768SOL     OW15069   0.728   0.406   3.083 -0.0376 -0.6855 -0.2610
 3768SOL    HW115070   0.658   0.420   3.146 -0.6915 -0.0446 -1.1163
 3768SOL    HW215071   0.695   0.337   3.025  1.3000 -2.6236  1.1462
 3768SOL     MW15072   0.715   0.399   3.083  0.0544 -0.8601 -0.1867
 3769SOL     OW15073   1.599   3.704   5.119  0.3873  0.3848 -0.4967
 3769SOL    HW115074   1.549   3.635   5.076 -1.5069  2.2962 -1.5279
 3769SOL    HW215075   1.585   3.689   5.213  2.9846 -2.6760 -0.4554
 3769SOL     MW15076   1.590   3.693   5.126  0.4819  0.2301 -0.6299
 3770SOL     OW15077   1.153   5.120   1.561  0.2155  0.4750  0.3590
 3770SOL    HW115078   1.143   5.032   1.596  4.9172 -0.4042  0.0846
 3770SOL    HW215079   1.131   5.177   1.635 -1.4565 -0.8734  0.9843
 3770SOL     MW15080   1.148   5.116   1.575  0.6233  0.1752  0.4063
 3771SOL     OW15081   2.362   2.340   0.274  1.2356  0.0287  0.1583
 3771SOL    HW115082   2.434   2.404   0.277  0.6629  0.6885  0.2060
 3771SOL    HW215083   2.347   2.318   0.366  2.3296 -1.2263  0.0620
 3771SOL     MW15084   2.370   2.346   0.287  1.3058 -0.0514  0.1518
 3772SOL     OW15085   1.295   1.130   4.303 -0.4539  0.1977  0.0603
 3772SOL    HW115086   1.360   1.150   4.235 -1.0328  0.7741 -0.3358
 3772SOL    HW215087   1.298   1.034   4.311  0.3184  0.2015 -0.0694
 3772SOL     MW15088   1.304   1.119   4.295 -0.4279  0.2758 -0.0104
 3773SOL     OW15089   0.968   2.599   3.756  0.5920 -0.0227  0.0225
 3773SOL    HW115090   1.050   2.550   3.753  0.4069 -0.2655 -1.3152
 3773SOL    HW215091   0.915   2.552   3.821  1.3834 -0.0263  0.6899
 3773SOL     MW15092   0.972   2.586   3.765  0.6736 -0.0558 -0.0677
 3774SOL     OW15093   4.397   4.164   3.190  0.4529  0.2777  0.2013
 3774SOL    HW115094   4.308   4.194   3.169  0.1542  0.2540  1.4061
 3774SOL    HW215095   4.442   4.242   3.222  1.2615  0.5711 -1.5084
 3774SOL     MW15096   4.391   4.179   3.191  0.5215  0.3140  0.1333
 3775SOL     OW15097   2.805   1.001   4.180  0.6769 -0.5383  0.0807
 3775SOL    HW115098   2.832   0.937   4.114  2.0760  0.8516 -0.7612
 3775SOL    HW215099   2.710   1.007   4.170  0.7917 -0.8324 -1.3708
 3775SOL     MW15100   2.796   0.993   4.170  0.8806 -0.3908 -0.2280
 3776SOL     OW15101   0.067   4.415   4.211  0.1650 -0.0205  0.3714
 3776SOL    HW115102  -0.011   4.463   4.186 -0.2856 -0.5702  0.6876
 3776SOL    HW215103   0.102   4.382   4.129  0.1546  0.3594  0.2136
 3776SOL     MW15104   0.062   4.417   4.197  0.1030 -0.0434  0.3927
 3777SOL     OW15105   4.964   4.967   3.926  0.2279 -0.3970  0.1960
 3777SOL    HW115106   4.928   4.918   4.001  1.8010 -1.6169  0.2218
 3777SOL    HW215107   5.025   4.905   3.885  0.1532  0.6078 -1.5013
 3777SOL     MW15108   4.968   4.952   3.931  0.4295 -0.4259 -0.0289
 3778SOL     OW15109   5.043   2.791   2.094  0.2098 -0.1481 -0.1880
 3778SOL    HW115110   5.107   2.829   2.034  0.1155 -0.4792 -0.4965
 3778SOL    HW215111   4.981   2.863   2.111  0.3910  0.0276 -0.2633
 3778SOL     MW15112   5.043   2.806   2.089  0.2215 -0.1690 -0.2396
 3779SOL     OW15113   0.390   4.000   0.223  0.2420 -0.8123  0.6617
 3779SOL    HW115114   0.467   3.953   0.193  1.5165  1.9680 -0.8038
 3779SOL    HW215115   0.407   4.018   0.315  1.5733  0.1149  0.2549
 3779SOL     MW15116   0.403   3.996   0.232  0.5927 -0.3133  0.4097
 3780SOL     OW15117   3.992   4.992   1.804 -0.0361 -0.6725  0.4389
 3780SOL    HW115118   3.898   4.980   1.790  0.1237  0.2352 -1.8945
 3780SOL    HW215119   4.032   4.918   1.759  0.3882 -0.6882  0.8394
 3780SOL     MW15120   3.985   4.980   1.796  0.0425 -0.5524  0.1788
 3781SOL     OW15121   0.506   2.283   2.219 -0.0249  0.5465 -0.4452
 3781SOL    HW115122   0.417   2.285   2.254 -1.1028  1.6244 -2.9563
 3781SOL    HW215123   0.538   2.195   2.238 -0.6470  0.8683  2.6141
 3781SOL     MW15124   0.499   2.272   2.226 -0.2537  0.7348 -0.3714
 3782SOL     OW15125   4.585   5.309   1.826 -0.2247  0.4107 -0.3247
 3782SOL    HW115126   4.662   5.367   1.828  0.3502 -0.3112 -0.8910
 3782SOL    HW215127   4.621   5.223   1.807 -0.9755 -0.3272  1.4067
 3782SOL     MW15128   4.600   5.305   1.823 -0.2484  0.2142 -0.1679
 3783SOL     OW15129   1.848   3.241   2.197  0.0698  0.1559  0.1512
 3783SOL    HW115130   1.904   3.183   2.248  0.3591 -0.8701 -1.2812
 3783SOL    HW215131   1.875   3.329   2.223  0.1306 -0.3189  1.8119
 3783SOL     MW15132   1.859   3.245   2.207  0.1169 -0.0461  0.1819
 3784SOL     OW15133   2.931   3.027   1.373  0.0774  0.2447 -0.0082
 3784SOL    HW115134   3.024   3.015   1.352  0.0424 -0.8094  0.3653
 3784SOL    HW215135   2.886   3.021   1.289  0.3724  1.1919 -0.2470
 3784SOL     MW15136   2.938   3.025   1.359  0.1124  0.2303  0.0099
 3785SOL     OW15137   0.736   0.326   2.438 -0.6556  0.1006 -0.0702
 3785SOL    HW115138   0.738   0.318   2.534 -0.9393 -2.6408 -0.2134
 3785SOL    HW215139   0.825   0.304   2.411 -0.9142 -0.4619 -0.4798
 3785SOL     MW15140   0.748   0.322   2.447 -0.7286 -0.3440 -0.1446
 3786SOL     OW15141   1.311   3.827   3.589 -0.1439 -0.0631 -0.4658
 3786SOL    HW115142   1.346   3.916   3.597  0.8287 -0.2172 -2.3884
 3786SOL    HW215143   1.318   3.790   3.677 -0.7766  1.8189  0.4212
 3786SOL     MW15144   1.317   3.834   3.602 -0.0982  0.1694 -0.6051
 3787SOL     OW15145   1.644   1.373   3.217 -0.3791 -0.3783 -0.2104
 3787SOL    HW115146   1.708   1.302   3.221  0.6327  0.5339  0.6902
 3787SOL    HW215147   1.670   1.424   3.140 -0.6746 -0.5900 -0.4520
 3787SOL     MW15148   1.656   1.371   3.207 -0.2827 -0.2840 -0.1217
 3788SOL     OW15149   1.963   4.106   4.301  0.1947 -0.0905 -0.2526
 3788SOL    HW115150   1.874   4.072   4.310  0.7579 -1.9983 -1.3113
 3788SOL    HW215151   1.975   4.163   4.377 -0.7515 -2.5590  1.8889
 3788SOL     MW15152   1.953   4.109   4.312  0.1431 -0.6795 -0.1069
 3789SOL     OW15153   4.030   4.463   1.727 -0.0435 -0.0219  0.3998
 3789SOL    HW115154   4.068   4.432   1.644  0.3177  1.8342 -0.1771
 3789SOL    HW215155   4.087   4.427   1.795  1.4543  0.8552 -0.3372
 3789SOL     MW15156   4.043   4.454   1.725  0.2067  0.3459  0.2230
 3790SOL     OW15157   4.222   2.666   1.766 -0.1600  0.1882  0.5466
 3790SOL    HW115158   4.197   2.573   1.762 -0.5326  0.2835  0.6517
 3790SOL    HW215159   4.304   2.670   1.717 -0.2716 -0.1517  0.3250
 3790SOL     MW15160   4.230   2.654   1.759 -0.2252  0.1553  0.5309
 3791SOL     OW15161   3.733   3.114   2.450  0.2852 -0.2509 -0.9750
 3791SOL    HW115162   3.737   3.019   2.464 -2.6864 -0.3356  0.0295
 3791SOL    HW215163   3.813   3.148   2.491 -0.6018 -1.9973  2.5283
 3791SOL     MW15164   3.744   3.106   2.457 -0.2341 -0.4974 -0.3683
 3792SOL     OW15165   2.705   5.282   1.295 -0.1435 -0.4139  0.3033
 3792SOL    HW115166   2.657   5.230   1.360 -1.2742  0.2462  0.0204
 3792SOL    HW215167   2.725   5.364   1.341 -1.0025  0.0798 -0.1830
 3792SOL     MW15168   2.702   5.286   1.310 -0.4113 -0.2586  0.1998
 3793SOL     OW15169   1.910   3.974   4.963 -0.0497  0.1010 -0.7983
 3793SOL    HW115170   1.832   3.995   4.911 -0.8486 -0.7902  0.0079
 3793SOL    HW215171   1.932   4.057   5.006 -1.3162  0.0741 -0.0511
 3793SOL     MW15172   1.902   3.988   4.962 -0.3277 -0.0226 -0.5893
 3794SOL     OW15173   0.390   0.684   3.030 -0.1299 -0.7155 -0.7381
 3794SOL    HW115174   0.361   0.775   3.033 -0.8692 -0.9639  0.4194
 3794SOL    HW215175   0.340   0.641   3.099  0.6974 -1.8662 -0.8319
 3794SOL     MW15176   0.379   0.691   3.039 -0.1180 -0.9038 -0.5949
 3795SOL     OW15177   3.623   0.949   3.043 -0.1118  0.0504 -0.1681
 3795SOL    HW115178   3.642   0.860   3.073 -1.2336 -0.4070 -0.7755
 3795SOL    HW215179   3.583   0.992   3.119 -1.9620 -0.7736 -0.6416
 3795SOL     MW15180   3.620   0.943   3.058 -0.5118 -0.1220 -0.3136
 3796SOL     OW15181   4.267   4.126   2.167  0.3302 -0.0088  0.0687
 3796SOL    HW115182   4.279   4.218   2.193 -1.2875  0.0806  0.6019
 3796SOL    HW215183   4.246   4.130   2.074 -0.0856  0.2000  0.1690
 3796SOL     MW15184   4.265   4.139   2.158  0.0566  0.0313  0.1540
 3797SOL     OW15185   1.833   3.802   5.336  0.4107 -0.2180 -0.0172
 3797SOL    HW115186   1.874   3.788   5.251  0.4178  1.6950 -0.3886
 3797SOL    HW215187   1.865   3.731   5.390  2.2485 -0.2063 -0.9889
 3797SOL     MW15188   1.843   3.791   5.332  0.6590  0.0410 -0.1979
 3798SOL     OW15189   2.506   3.703   2.287 -0.2723  0.0909 -0.4408
 3798SOL    HW115190   2.560   3.776   2.318  0.6833 -1.3694  1.6094
 3798SOL    HW215191   2.569   3.639   2.255 -0.8656 -0.9204  0.3455
 3798SOL     MW15192   2.521   3.704   2.287 -0.2236 -0.2417 -0.0591
 3799SOL     OW15193   4.035   3.522   0.430 -0.2571 -0.1522 -0.3571
 3799SOL    HW115194   3.986   3.447   0.465  0.3805 -0.6768 -0.5663
 3799SOL    HW215195   4.042   3.504   0.336  0.0223  0.1050 -0.3869
 3799SOL     MW15196   4.030   3.509   0.422 -0.1337 -0.1882 -0.3892
 3800SOL     OW15197   3.019   5.003   3.945 -0.2530 -0.1410  0.8867
 3800SOL    HW115198   3.035   4.955   3.863 -2.0072  1.3203 -0.4008
 3800SOL    HW215199   2.946   4.957   3.985  0.6223 -0.8699  1.6899
 3800SOL     MW15200   3.012   4.990   3.939 -0.3713 -0.0424  0.8215
 3801SOL     OW15201   3.633   3.957   0.915 -0.0845 -0.5479 -0.6250
 3801SOL    HW115202   3.681   3.921   0.840  0.7685  0.0418 -0.3724
 3801SOL    HW215203   3.544   3.923   0.904  0.5137 -2.1481 -0.7771
 3801SOL     MW15204   3.627   3.948   0.903  0.1108 -0.6839 -0.6115
 3802SOL     OW15205   0.309   0.809   1.597 -0.2509 -0.2529 -0.0833
 3802SOL    HW115206   0.382   0.872   1.593 -1.5262  1.3883  0.9825
 3802SOL    HW215207   0.263   0.831   1.679 -1.6299 -1.5970 -0.4519
 3802SOL     MW15208   0.313   0.821   1.608 -0.6081 -0.2129  0.0105
 3803SOL     OW15209   0.530   5.428   3.090 -0.0950 -0.1846  0.2788
 3803SOL    HW115210   0.487   5.387   3.015 -0.9521 -1.2527  1.3065
 3803SOL    HW215211   0.460   5.474   3.136  0.5287  0.9367  0.1313
 3803SOL     MW15212   0.515   5.428   3.086 -0.1264 -0.1774  0.3973
 3804SOL     OW15213   4.135   1.048   3.050  0.4764  0.5944 -0.0033
 3804SOL    HW115214   4.146   1.129   3.099 -1.2521 -0.2288  1.8899
 3804SOL    HW215215   4.046   1.053   3.015  0.6614 -0.1216 -0.6191
 3804SOL     MW15216   4.125   1.060   3.052  0.2687  0.3873  0.1686
 3805SOL     OW15217   2.116   3.961   1.423 -0.3079  0.2161  0.5015
 3805SOL    HW115218   2.180   3.937   1.490 -0.4833 -1.3621  0.1439
 3805SOL    HW215219   2.167   3.965   1.342 -0.3676  0.6135  0.4826
 3805SOL     MW15220   2.132   3.958   1.421 -0.3395  0.0572  0.4509
 3806SOL     OW15221   2.010   5.250   2.735 -0.0047  0.4295  0.3944
 3806SOL    HW115222   1.946   5.214   2.797  1.7387 -1.7995  1.0432
 3806SOL    HW215223   2.017   5.342   2.759 -2.0878  0.4799  1.0370
 3806SOL     MW15224   2.002   5.257   2.747 -0.0504  0.1363  0.5682
 3807SOL     OW15225   3.403   2.455   3.701 -0.2977 -0.3544  0.1252
 3807SOL    HW115226   3.459   2.453   3.779 -0.8766  0.8160  0.5952
 3807SOL    HW215227   3.354   2.372   3.705 -0.6594 -0.1044  1.2786
 3807SOL     MW15228   3.404   2.443   3.712 -0.4243 -0.1633  0.3437
 3808SOL     OW15229   1.879   1.193   3.240 -0.1328  0.3246  0.3677
 3808SOL    HW115230   1.963   1.210   3.284 -0.6360  2.0117  0.7606
 3808SOL    HW215231   1.854   1.106   3.270  1.4547 -0.2061  0.2619
 3808SOL     MW15232   1.887   1.183   3.250  0.0131  0.4802  0.4063
 3809SOL     OW15233   1.088   0.075   2.437 -0.7171  0.0804 -0.0782
 3809SOL    HW115234   1.029   0.048   2.508 -1.5311 -0.7875 -1.0324
 3809SOL    HW215235   1.175   0.072   2.475 -1.1121 -0.6787  0.8025
 3809SOL     MW15236   1.092   0.071   2.452 -0.8798 -0.1385 -0.0881
 3810SOL     OW15237   2.603   5.252   3.795 -0.4473  0.2471  0.1440
 3810SOL    HW115238   2.508   5.243   3.801 -0.8070  2.7483 -0.6300
 3810SOL    HW215239   2.635   5.228   3.882 -1.6205 -1.7525  0.0863
 3810SOL     MW15240   2.595   5.248   3.808 -0.6536  0.3146  0.0321
 3811SOL     OW15241   4.230   5.084   1.963 -0.2558 -0.2084  0.1188
 3811SOL    HW115242   4.176   5.018   1.919 -1.3861  1.0609 -0.4457
 3811SOL    HW215243   4.167   5.147   1.998  0.8663  1.5842 -0.9817
 3811SOL     MW15244   4.214   5.083   1.962 -0.2569  0.2037 -0.1053
 3812SOL     OW15245   0.693   4.730   0.479  0.2069 -0.1860  0.0849
 3812SOL    HW115246   0.650   4.798   0.532 -0.7457 -0.8484  0.1892
 3812SOL    HW215247   0.778   4.768   0.456  0.3319  0.4383  1.4309
 3812SOL     MW15248   0.699   4.745   0.483  0.0955 -0.1912  0.2801
 3813SOL     OW15249   5.364   1.493   1.583  0.2702  0.2158  0.4336
 3813SOL    HW115250   5.273   1.478   1.555  0.4814 -2.1573  0.7787
 3813SOL    HW215251   5.401   1.548   1.515 -1.0675  0.1293 -0.4145
 3813SOL     MW15252   5.357   1.498   1.570  0.1186 -0.1152  0.3659
 3814SOL     OW15253   4.297   5.286   1.768 -1.0423 -0.4441 -0.1993
 3814SOL    HW115254   4.273   5.211   1.823 -0.3283 -0.7247 -0.2492
 3814SOL    HW215255   4.391   5.299   1.786 -0.7649 -0.6211 -1.4266
 3814SOL     MW15256   4.307   5.278   1.778 -0.9089 -0.5057 -0.3712
 3815SOL     OW15257   3.125   2.138   0.761  0.3201  0.0082  0.5218
 3815SOL    HW115258   3.069   2.065   0.787  1.2410 -0.1844  2.0783
 3815SOL    HW215259   3.186   2.100   0.698 -0.0886 -0.2221  0.2599
 3815SOL     MW15260   3.126   2.123   0.756  0.3891 -0.0487  0.6960
 3816SOL     OW15261   5.227   0.097   1.163  0.2181 -0.0352 -0.3741
 3816SOL    HW115262   5.227   0.188   1.193 -0.3959  0.4672 -1.8216
 3816SOL    HW215263   5.313   0.085   1.122 -0.6159  0.7326 -2.4828
 3816SOL     MW15264   5.238   0.108   1.161  0.0232  0.1358 -0.8527
 3817SOL     OW15265   2.150   3.758   3.633 -0.2058 -0.0957  0.0712
 3817SOL    HW115266   2.118   3.831   3.580  0.1816  1.0943  1.4197
 3817SOL    HW215267   2.234   3.788   3.667 -0.2995 -0.9557  1.0994
 3817SOL     MW15268   2.157   3.772   3.630 -0.1662 -0.0513  0.3911
 3818SOL     OW15269   4.963   2.409   4.099  0.7416  0.1035  0.0491
 3818SOL    HW115270   4.874   2.436   4.076  1.0617  1.1790  0.0234
 3818SOL    HW215271   5.020   2.458   4.040  1.3874 -0.0605  0.5157
 3818SOL     MW15272   4.959   2.419   4.088  0.8716  0.2262  0.1084
 3819SOL     OW15273   0.439   2.253   0.829  0.0575 -0.0469 -0.0524
 3819SOL    HW115274   0.492   2.176   0.850  0.5175 -0.0163 -1.0426
 3819SOL    HW215275   0.475   2.323   0.884  0.0275 -0.3960  0.4129
 3819SOL     MW15276   0.451   2.252   0.839  0.1154 -0.0898 -0.1230
 3820SOL     OW15277   2.788   3.090   3.399 -0.4685 -0.1034 -0.0032
 3820SOL    HW115278   2.842   3.064   3.325  2.3935 -1.6541  2.4319
 3820SOL    HW215279   2.732   3.159   3.364  2.3902  0.9675 -3.0206
 3820SOL     MW15280   2.788   3.096   3.385  0.3014 -0.1680 -0.0816
 3821SOL     OW15281   4.609   0.751   0.337 -0.2545  0.5806  0.4219
 3821SOL    HW115282   4.595   0.787   0.249 -0.3887  1.2451  0.7102
 3821SOL    HW215283   4.699   0.717   0.335  0.0745  1.4293  0.3022
 3821SOL     MW15284   4.619   0.752   0.325 -0.2283  0.7842  0.4446
 3822SOL     OW15285   3.452   2.776   3.139 -0.1391  0.0760 -0.3040
 3822SOL    HW115286   3.419   2.865   3.149 -0.8850 -0.2068 -0.2220
 3822SOL    HW215287   3.387   2.720   3.180  0.4901 -0.4905 -0.0442
 3822SOL     MW15288   3.439   2.780   3.146 -0.1548 -0.0383 -0.2580
 3823SOL     OW15289   2.408   4.273   4.236  0.3268  0.1634  0.3931
 3823SOL    HW115290   2.492   4.316   4.219 -0.7375  2.0673 -0.3065
 3823SOL    HW215291   2.381   4.240   4.150 -0.9277  2.0654  0.0042
 3823SOL     MW15292   2.416   4.274   4.222  0.0147  0.6756  0.2466
 3824SOL     OW15293   4.069   4.083   1.115  0.2797  0.0971  0.8404
 3824SOL    HW115294   4.033   4.106   1.029  0.6044  1.9059  1.1499
 3824SOL    HW215295   4.135   4.017   1.096 -1.1317 -1.1113 -0.0505
 3824SOL     MW15296   4.073   4.077   1.101  0.1334  0.1779  0.7621
 3825SOL     OW15297   1.484   5.471   3.810 -0.5261 -0.3076  0.2670
 3825SOL    HW115298   1.530   5.399   3.767 -1.4796 -1.1119  0.5499
 3825SOL    HW215299   1.441   5.518   3.739 -0.1115 -0.1622  0.1082
 3825SOL     MW15300   1.485   5.467   3.795 -0.5986 -0.3963  0.2837
 3826SOL     OW15301   0.551   0.358   0.794 -0.1572  0.5214  0.0460
 3826SOL    HW115302   0.545   0.442   0.839  1.0261  1.4941 -1.5340
 3826SOL    HW215303   0.467   0.315   0.813  0.4771  0.5383  3.6866
 3826SOL     MW15304   0.539   0.364   0.803  0.0874  0.6546  0.3233
 3827SOL     OW15305   0.968   3.685   0.895  0.5884 -0.2498 -0.4633
 3827SOL    HW115306   0.947   3.685   0.988  0.6428  2.2385 -0.4028
 3827SOL    HW215307   1.063   3.700   0.892  0.6649 -0.7781 -0.9347
 3827SOL     MW15308   0.978   3.687   0.907  0.6060  0.0140 -0.5186
 3828SOL     OW15309   3.676   4.385   5.392  0.4732 -0.3304  0.1772
 3828SOL    HW115310   3.609   4.357   5.329  1.2538 -1.7782 -0.0299
 3828SOL    HW215311   3.643   4.355   5.477  1.2667 -1.8480 -0.0339
 3828SOL     MW15312   3.662   4.378   5.395  0.6850 -0.7295  0.1209
 3829SOL     OW15313   0.071   3.336   3.307  0.5254  0.2440  0.2601
 3829SOL    HW115314   0.097   3.409   3.251  1.5755  0.0880  0.5103
 3829SOL    HW215315  -0.006   3.300   3.265  0.5560  0.9089 -0.3934
 3829SOL     MW15316   0.064   3.341   3.294  0.6708  0.3125  0.2058
 3830SOL     OW15317   2.607   4.551   1.951 -0.4632 -0.3135  0.0520
 3830SOL    HW115318   2.679   4.610   1.928  0.0191 -1.0175 -0.2559
 3830SOL    HW215319   2.568   4.591   2.029  0.8548 -0.4171  0.7953
 3830SOL     MW15320   2.612   4.564   1.959 -0.2209 -0.4222  0.1106
 3831SOL     OW15321   3.394   3.365   0.176 -0.2076  0.2036 -0.4516
 3831SOL    HW115322   3.488   3.364   0.192 -0.2522 -0.5677 -0.2026
 3831SOL    HW215323   3.359   3.426   0.241  0.2888  1.8257 -1.6306
 3831SOL     MW15324   3.401   3.373   0.187 -0.1468  0.3181 -0.5767
 3832SOL     OW15325   1.588   2.311   0.231 -0.2059  0.5453  0.0005
 3832SOL    HW115326   1.645   2.338   0.159  0.1711  0.1435  0.1419
 3832SOL    HW215327   1.537   2.238   0.195  0.0705  0.2632  0.1751
 3832SOL     MW15328   1.589   2.305   0.217 -0.1179  0.4533  0.0431
 3833SOL     OW15329   0.910   1.574   5.053  0.1011 -0.2234 -0.2795
 3833SOL    HW115330   0.993   1.606   5.020  0.7467 -0.8436  0.6802
 3833SOL    HW215331   0.899   1.489   5.011 -0.1960 -0.0217 -0.6182
 3833SOL     MW15332   0.919   1.567   5.043  0.1480 -0.2797 -0.1959
 3834SOL     OW15333   2.269   1.825   1.965 -0.0506 -0.1367  0.1878
 3834SOL    HW115334   2.176   1.848   1.969 -0.3999 -1.1755 -1.2045
 3834SOL    HW215335   2.270   1.729   1.967  1.1635 -0.1484  2.6325
 3834SOL     MW15336   2.257   1.815   1.966  0.0658 -0.2780  0.3294
 3835SOL     OW15337   4.352   4.901   2.815  0.2036  0.3622  0.2109
 3835SOL    HW115338   4.326   4.988   2.848  1.6730  1.1497 -0.6167
 3835SOL    HW215339   4.289   4.883   2.745 -1.0033  0.0773  1.3201
 3835SOL     MW15340   4.340   4.910   2.810  0.2389  0.4299  0.2488
 3836SOL     OW15341   2.942   0.768   0.806 -0.3574 -0.6222 -0.1223
 3836SOL    HW115342   2.900   0.770   0.892  1.9210 -0.5950  1.0680
 3836SOL    HW215343   2.915   0.849   0.764 -0.8503 -0.2341  0.9202
 3836SOL     MW15344   2.933   0.779   0.812 -0.1171 -0.5663  0.1782
 3837SOL     OW15345   0.656   2.793   0.881 -0.3734  0.4486 -0.2185
 3837SOL    HW115346   0.699   2.718   0.840 -1.5510 -1.7968  2.3385
 3837SOL    HW215347   0.603   2.831   0.811  0.7703 -0.6629 -1.7663
 3837SOL     MW15348   0.655   2.788   0.866 -0.3779 -0.0032 -0.0826
 3838SOL     OW15349   4.760   2.943   5.372 -0.5320 -0.5271 -0.0922
 3838SOL    HW115350   4.731   2.950   5.281 -1.1932  1.2867  0.2230
 3838SOL    HW215351   4.753   2.850   5.392 -0.4862 -0.9509 -1.8446
 3838SOL     MW15352   4.755   2.931   5.362 -0.6148 -0.3401 -0.2856
 3839SOL     OW15353   1.259   2.735   1.893 -0.2251 -0.2733  0.5518
 3839SOL    HW115354   1.341   2.764   1.934  0.1471  0.2917 -0.5491
 3839SOL    HW215355   1.242   2.799   1.824  0.1010 -2.0671 -1.2995
 3839SOL     MW15356   1.268   2.747   1.889 -0.1311 -0.4387  0.1545
 3840SOL     OW15357   1.501   0.734   3.277 -0.1593  0.1314  0.2649
 3840SOL    HW115358   1.581   0.742   3.224  0.2489 -1.4270  0.5782
 3840SOL    HW215359   1.527   0.761   3.365 -0.1393  0.2148  0.2332
 3840SOL     MW15360   1.515   0.739   3.282 -0.1017 -0.0671  0.3028
 3841SOL     OW15361   3.276   5.163   4.522 -0.1997  0.4785 -0.3028
 3841SOL    HW115362   3.335   5.203   4.586 -0.5616  1.2249 -0.4218
 3841SOL    HW215363   3.271   5.071   4.548 -0.0592  0.6959  0.5259
 3841SOL     MW15364   3.283   5.156   4.534 -0.2295  0.6082 -0.2073
 3842SOL     OW15365   3.275   1.650   4.023  0.0481 -0.6866  0.0184
 3842SOL    HW115366   3.289   1.560   4.051  0.5758 -0.3279  0.9685
 3842SOL    HW215367   3.259   1.645   3.929  1.2640 -1.6481 -0.1450
 3842SOL     MW15368   3.274   1.637   4.014  0.2828 -0.7677  0.1243
 3843SOL     OW15369   0.982   4.784   3.691  0.2630  0.6761  0.5304
 3843SOL    HW115370   0.946   4.793   3.779 -0.0438 -1.8965  0.7222
 3843SOL    HW215371   0.944   4.704   3.656  1.0666  1.1437 -1.6378
 3843SOL     MW15372   0.972   4.775   3.698  0.3299  0.3928  0.2644
 3844SOL     OW15373   2.635   4.625   2.728 -0.2532  0.3362 -0.0936
 3844SOL    HW115374   2.574   4.679   2.678 -1.4699  0.8933  1.9023
 3844SOL    HW215375   2.603   4.629   2.818  1.6615 -0.8934  0.7035
 3844SOL     MW15376   2.623   4.633   2.733 -0.1593  0.2457  0.2823
 3845SOL     OW15377   3.361   4.258   2.291  0.0386  0.4465 -0.6051
 3845SOL    HW115378   3.380   4.181   2.238 -0.9367 -0.1715 -0.0837
 3845SOL    HW215379   3.267   4.253   2.308  0.0977  1.3454  0.0656
 3845SOL     MW15380   3.351   4.247   2.286 -0.0847  0.4843 -0.4447
 3846SOL     OW15381   3.533   4.958   2.362  0.2066 -0.2457  0.0839
 3846SOL    HW115382   3.469   4.894   2.395 -0.7369  1.4197  1.6875
 3846SOL    HW215383   3.514   4.965   2.269 -2.2031  0.3914  0.5457
 3846SOL     MW15384   3.521   4.950   2.354 -0.2446  0.0642  0.3619
 3847SOL     OW15385   2.049   3.542   1.119 -0.5234  0.1216 -0.7834
 3847SOL    HW115386   2.059   3.453   1.084 -2.7824 -0.8583  0.8390
 3847SOL    HW215387   2.131   3.558   1.166 -0.7521 -1.8619  0.4027
 3847SOL     MW15388   2.062   3.532   1.121 -0.8582 -0.2772 -0.4055
 3848SOL     OW15389   1.640   3.399   5.484 -0.6326 -0.0591  0.1204
 3848SOL    HW115390   1.707   3.374   5.420  0.7463  0.3784  1.3426
 3848SOL    HW215391   1.569   3.335   5.471 -1.4485  1.3417 -3.3433
 3848SOL     MW15392   1.639   3.387   5.474 -0.5569  0.1883 -0.1813
 3849SOL     OW15393   3.719   3.710   0.061  0.3371  0.1094 -0.4594
 3849SOL    HW115394   3.636   3.663   0.053 -1.2582  2.8115 -1.2448
 3849SOL    HW215395   3.779   3.662   0.005 -0.8822 -1.5153 -0.4476
 3849SOL     MW15396   3.716   3.697   0.052 -0.0417  0.2544 -0.5635
 3850SOL     OW15397   2.707   1.486   2.340  0.1642  0.5317  0.0289
 3850SOL    HW115398   2.699   1.414   2.402 -0.3226  1.1520  0.7051
 3850SOL    HW215399   2.617   1.507   2.316  0.3253  0.6253 -0.5183
 3850SOL     MW15400   2.694   1.479   2.345  0.1203  0.6278  0.0463
 3851SOL     OW15401   3.156   5.280   5.081  0.1135  0.0953 -0.4079
 3851SOL    HW115402   3.173   5.294   4.988  1.5321 -0.9474 -0.3228
 3851SOL    HW215403   3.218   5.337   5.126  1.6194 -1.6682 -0.1197
 3851SOL     MW15404   3.166   5.290   5.074  0.5070 -0.2823 -0.3577
 3852SOL     OW15405   2.961   0.595   4.382 -0.2671  0.1138  0.0815
 3852SOL    HW115406   3.008   0.679   4.384 -1.7508  1.0043 -0.2674
 3852SOL    HW215407   2.894   0.608   4.314  0.1239 -1.7396 -0.7134
 3852SOL     MW15408   2.958   0.608   4.373 -0.4142 -0.0158 -0.0724
 3853SOL     OW15409   4.095   4.727   1.763  0.4667  0.3527 -0.0689
 3853SOL    HW115410   4.087   4.745   1.856  3.1359 -1.4491  0.6358
 3853SOL    HW215411   4.047   4.645   1.750  1.1823 -0.0895  0.0268
 3853SOL     MW15412   4.088   4.718   1.774  0.9222  0.0507  0.0388
 3854SOL     OW15413   3.362   4.796   0.489 -0.0197 -0.3106  0.2930
 3854SOL    HW115414   3.408   4.713   0.505 -0.6992 -1.3340 -2.4180
 3854SOL    HW215415   3.364   4.806   0.394 -1.2377  2.0672  0.4569
 3854SOL     MW15416   3.368   4.786   0.478 -0.2751 -0.1283 -0.0498
 3855SOL     OW15417   4.410   3.032   2.610  0.0528 -0.0501  0.2933
 3855SOL    HW115418   4.382   3.079   2.688 -1.2487  0.7705 -0.6183
 3855SOL    HW215419   4.349   3.062   2.541  0.3659 -1.6804 -0.7428
 3855SOL     MW15420   4.398   3.043   2.611 -0.0802 -0.1590  0.0312
 3856SOL     OW15421   5.460   3.981   2.446  0.0535 -0.3488 -0.5392
 3856SOL    HW115422   5.445   3.905   2.390 -0.2235 -0.2889 -0.5487
 3856SOL    HW215423   5.388   3.979   2.509  0.9406 -1.0141  0.4858
 3856SOL     MW15424   5.448   3.970   2.447  0.1356 -0.4303 -0.4025
 3857SOL     OW15425   0.911   2.477   2.296  0.0426 -0.3087 -0.1369
 3857SOL    HW115426   0.943   2.547   2.354 -0.2890 -0.0670 -0.2465
 3857SOL    HW215427   0.957   2.493   2.213 -1.1371  0.6771 -0.6278
 3857SOL     MW15428   0.922   2.489   2.292 -0.1608 -0.1435 -0.2177
 3858SOL     OW15429   2.454   3.168   5.126  0.6780 -0.0330 -0.3419
 3858SOL    HW115430   2.508   3.171   5.204  1.1594  0.6177 -0.6891
 3858SOL    HW215431   2.370   3.132   5.155  0.2649  1.7856  0.8165
 3858SOL     MW15432   2.450   3.163   5.140  0.6872  0.2993 -0.2327
 3859SOL     OW15433   0.736   4.418   4.709  0.3170 -0.0780  0.2906
 3859SOL    HW115434   0.826   4.394   4.689  0.8566  0.9025  1.4616
 3859SOL    HW215435   0.692   4.334   4.726  1.1424 -0.5143  0.3096
 3859SOL     MW15436   0.742   4.403   4.709  0.5007 -0.0047  0.4507
 3860SOL     OW15437   0.807   2.563   0.795  0.1592 -0.3071  0.6190
 3860SOL    HW115438   0.754   2.489   0.764 -0.6105  0.3551  0.3156
 3860SOL    HW215439   0.870   2.578   0.725  0.8119 -1.1415  1.0088
 3860SOL     MW15440   0.808   2.555   0.781  0.1434 -0.3302  0.6306
 3861SOL     OW15441   4.037   5.255   2.099  0.7300  0.6581 -0.2152
 3861SOL    HW115442   3.984   5.202   2.159 -0.3042 -0.2112 -1.8220
 3861SOL    HW215443   4.072   5.325   2.154 -2.5449  1.6439  0.8568
 3861SOL     MW15444   4.034   5.257   2.115  0.1500  0.6738 -0.2872
 3862SOL     OW15445   0.921   4.117   5.461 -0.6640  0.3641 -0.2515
 3862SOL    HW115446   0.898   4.209   5.454 -1.5288  0.5096  3.1259
 3862SOL    HW215447   1.016   4.117   5.475 -0.6133  0.7017 -0.5780
 3862SOL     MW15448   0.931   4.129   5.462 -0.7736  0.4291  0.1591
 3863SOL     OW15449   0.488   1.659   1.431  0.1471  0.6591 -0.3644
 3863SOL    HW115450   0.581   1.673   1.448  0.6944 -2.3807 -0.3378
 3863SOL    HW215451   0.454   1.622   1.513 -0.3096 -1.2362 -1.3553
 3863SOL     MW15452   0.496   1.656   1.444  0.1593 -0.0050 -0.4942
 3864SOL     OW15453   1.023   2.237   2.432  0.0209  0.1397  0.1787
 3864SOL    HW115454   0.992   2.319   2.392 -0.2226 -0.0310  0.0107
 3864SOL    HW215455   0.998   2.170   2.369  0.5207 -0.0300  0.1585
 3864SOL     MW15456   1.016   2.239   2.418  0.0554  0.0939  0.1534
 3865SOL     OW15457   1.442   0.162   1.855  0.4419 -0.4060 -0.0046
 3865SOL    HW115458   1.503   0.140   1.926  0.2923 -0.6650  0.0418
 3865SOL    HW215459   1.451   0.257   1.846  1.3897 -0.5286 -0.4819
 3865SOL     MW15460   1.452   0.172   1.864  0.5493 -0.4573 -0.0626
 3866SOL     OW15461   3.128   1.307   5.286 -0.0057  0.4329 -0.4839
 3866SOL    HW115462   3.037   1.298   5.313 -0.0410  1.1794 -0.3384
 3866SOL    HW215463   3.173   1.345   5.361  0.7307 -1.2106 -0.0461
 3866SOL     MW15464   3.122   1.311   5.299  0.0886  0.3122 -0.4054
 3867SOL     OW15465   4.330   2.838   5.019 -0.1375  0.0117  0.1104
 3867SOL    HW115466   4.379   2.801   5.092 -1.4816 -0.5989  0.7176
 3867SOL    HW215467   4.268   2.898   5.059 -0.3056  0.3311 -0.6069
 3867SOL     MW15468   4.329   2.841   5.034 -0.3410 -0.0275  0.0956
 3868SOL     OW15469   4.815   1.074   0.644 -0.1426  0.1147 -0.3005
 3868SOL    HW115470   4.792   1.038   0.730  0.6348  1.2563  0.4118
 3868SOL    HW215471   4.830   1.167   0.660 -0.1383  0.3852 -1.7187
 3868SOL     MW15472   4.814   1.081   0.658 -0.0374  0.3047 -0.3955
 3869SOL     OW15473   4.250   4.940   4.984 -0.6715  0.2338 -0.1062
 3869SOL    HW115474   4.282   5.029   4.965 -1.0352  0.2320 -0.7580
 3869SOL    HW215475   4.323   4.898   5.030 -0.8917  1.2058  1.1883
 3869SOL     MW15476   4.264   4.947   4.988 -0.7501  0.3644 -0.0197
 3870SOL     OW15477   0.948   5.484   3.360 -0.3443  0.6788 -0.3145
 3870SOL    HW115478   1.010   5.545   3.319  1.6100 -1.1877 -0.3184
 3870SOL    HW215479   0.903   5.443   3.287  1.0302 -0.5196 -0.5350
 3870SOL     MW15480   0.950   5.487   3.345  0.1037  0.2663 -0.3447
 3871SOL     OW15481   3.250   0.584   0.144  0.0054  0.0971 -0.3104
 3871SOL    HW115482   3.282   0.543   0.064  0.3363 -0.7822  0.2581
 3871SOL    HW215483   3.313   0.558   0.211 -0.5804  0.3446  0.3481
 3871SOL     MW15484   3.263   0.575   0.142 -0.0289  0.0121 -0.1453
 3872SOL     OW15485   1.638   4.984   4.171  0.3037  0.0878 -0.1190
 3872SOL    HW115486   1.617   4.997   4.078 -1.4552 -1.8297 -0.0710
 3872SOL    HW215487   1.655   5.072   4.204  1.4626  0.7771 -2.3404
 3872SOL     MW15488   1.638   4.998   4.163  0.2229 -0.0775 -0.4115
 3873SOL     OW15489   0.589   0.169   2.966  0.4756  0.1462 -0.3300
 3873SOL    HW115490   0.573   0.137   2.877  0.8178  0.6444 -0.5751
 3873SOL    HW215491   0.608   0.090   3.017 -0.7107 -0.2535 -0.4725
 3873SOL     MW15492   0.589   0.154   2.961  0.3620  0.1595 -0.3821
 3874SOL     OW15493   2.728   3.830   0.866 -0.6846 -0.3119 -0.7767
 3874SOL    HW115494   2.721   3.908   0.921  1.5176  0.0503 -0.9091
 3874SOL    HW215495   2.728   3.864   0.777  0.2918 -0.4470 -0.8345
 3874SOL     MW15496   2.727   3.845   0.861 -0.2568 -0.2814 -0.8023
 3875SOL     OW15497   5.070   0.429   1.936 -0.0303 -0.3230 -0.1263
 3875SOL    HW115498   4.991   0.376   1.945 -0.0717 -0.0197  1.9028
 3875SOL    HW215499   5.042   0.505   1.885 -0.8299 -0.6505 -0.1905
 3875SOL     MW15500   5.055   0.432   1.930 -0.1435 -0.3262  0.1381
 3876SOL     OW15501   0.970   3.662   1.164 -0.0683 -0.1202  0.5802
 3876SOL    HW115502   1.028   3.588   1.184  0.4732 -0.0161 -0.4920
 3876SOL    HW215503   0.899   3.655   1.227  0.4742 -0.9961  1.1140
 3876SOL     MW15504   0.969   3.651   1.175  0.0776 -0.2240  0.5078
 3877SOL     OW15505   0.648   4.060   1.559 -0.0260  0.1734 -0.4207
 3877SOL    HW115506   0.610   3.973   1.572  1.0952 -0.1634  0.9251
 3877SOL    HW215507   0.585   4.121   1.597 -0.7024 -0.0579 -1.1525
 3877SOL     MW15508   0.635   4.057   1.566  0.0339  0.0969 -0.3380
 3878SOL     OW15509   5.328   4.764   2.143 -0.4880 -0.3256 -0.0202
 3878SOL    HW115510   5.342   4.847   2.188  1.9354 -1.3495  1.3481
 3878SOL    HW215511   5.317   4.788   2.051 -0.5179  1.5291  0.4220
 3878SOL     MW15512   5.329   4.778   2.137 -0.1659 -0.2138  0.2235
 3879SOL     OW15513   4.474   1.114   0.525 -0.0098  0.2883 -0.8115
 3879SOL    HW115514   4.424   1.049   0.474 -0.7833  1.8041 -2.0543
 3879SOL    HW215515   4.475   1.078   0.614  1.5322 -2.5350 -1.8371
 3879SOL     MW15516   4.467   1.100   0.530  0.0936  0.1124 -1.1168
 3880SOL     OW15517   4.797   3.548   0.431 -0.4606 -0.1935 -0.4123
 3880SOL    HW115518   4.773   3.501   0.511  0.0114  3.5927  2.2484
 3880SOL    HW215519   4.892   3.536   0.423 -0.3256  0.2818  0.3195
 3880SOL     MW15520   4.807   3.540   0.441 -0.3789  0.3800  0.0443
 3881SOL     OW15521   0.230   2.313   2.747  0.1707  0.0988 -0.3744
 3881SOL    HW115522   0.232   2.398   2.703 -0.4822  1.0315  1.3187
 3881SOL    HW215523   0.292   2.259   2.697  1.4788  1.9012 -0.7968
 3881SOL     MW15524   0.239   2.317   2.734  0.2589  0.4669 -0.2034
 3882SOL     OW15525   1.250   1.876   3.351  0.4744  0.4023  0.1309
 3882SOL    HW115526   1.331   1.826   3.337 -0.3251 -0.5180 -1.4784
 3882SOL    HW215527   1.253   1.945   3.285  0.1556  0.6523  0.3770
 3882SOL     MW15528   1.261   1.879   3.340  0.3239  0.3121 -0.0526
 3883SOL     OW15529   5.128   1.195   0.899  0.3390 -0.3026 -0.1567
 3883SOL    HW115530   5.193   1.184   0.830  1.9323  0.7061  1.1076
 3883SOL    HW215531   5.087   1.279   0.879  0.1854 -0.4235 -0.3528
 3883SOL     MW15532   5.131   1.205   0.887  0.5327 -0.1831 -0.0129
 3884SOL     OW15533   2.312   2.915   2.271  0.3289  0.2110  0.4082
 3884SOL    HW115534   2.394   2.899   2.317 -0.0957 -0.1237  1.0670
 3884SOL    HW215535   2.306   3.010   2.265  0.6471  0.2424  0.5730
 3884SOL     MW15536   2.322   2.925   2.276  0.3146  0.1702  0.5190
 3885SOL     OW15537   2.682   3.657   1.847  0.0019 -0.1192 -0.0454
 3885SOL    HW115538   2.612   3.671   1.911  0.5503 -1.1618  0.8119
 3885SOL    HW215539   2.674   3.565   1.822  0.0457  0.1778 -1.1932
 3885SOL     MW15540   2.671   3.647   1.853  0.0816 -0.2195 -0.0845
 3886SOL     OW15541   1.052   4.152   2.260  0.2344  0.1725 -0.1681
 3886SOL    HW115542   1.071   4.235   2.216 -1.5670  0.2125 -0.9944
 3886SOL    HW215543   1.125   4.094   2.237 -0.3815  0.3514 -2.9032
 3886SOL     MW15544   1.064   4.155   2.251 -0.0909  0.2019 -0.6474
 3887SOL     OW15545   1.597   3.142   2.211 -0.0399  0.4251 -0.2605
 3887SOL    HW115546   1.556   3.229   2.217  0.4323  0.5717  1.2990
 3887SOL    HW215547   1.691   3.160   2.214  0.1545 -0.0112 -2.3056
 3887SOL     MW15548   1.604   3.156   2.212  0.0498  0.3861 -0.3258
 3888SOL     OW15549   2.084   5.398   3.523 -0.2584 -0.2384 -0.1038
 3888SOL    HW115550   2.111   5.439   3.605 -0.6203 -0.2765  0.0385
 3888SOL    HW215551   2.163   5.358   3.489  0.8342  2.8953 -1.6702
 3888SOL     MW15552   2.098   5.398   3.530 -0.1601  0.1782 -0.2955
 3889SOL     OW15553   5.422   3.485   4.034  0.1715 -0.1020 -0.4803
 3889SOL    HW115554   5.468   3.557   3.992 -2.0064  2.1285  0.7442
 3889SOL    HW215555   5.475   3.465   4.111 -0.3069  1.7920  0.4014
 3889SOL     MW15556   5.435   3.492   4.039 -0.1860  0.4531 -0.1969
 3890SOL     OW15557   0.036   0.891   0.317 -0.4424 -0.7307  0.1189
 3890SOL    HW115558  -0.017   0.944   0.257 -0.9915 -1.8315 -0.4068
 3890SOL    HW215559   0.003   0.914   0.404  0.9280  1.5033  0.1297
 3890SOL     MW15560   0.024   0.901   0.321 -0.3318 -0.5782  0.0496
 3891SOL     OW15561   2.614   3.455   4.781  0.0433  0.7126  0.6760
 3891SOL    HW115562   2.563   3.457   4.861  0.4865  0.1945  0.9767
 3891SOL    HW215563   2.593   3.537   4.736 -3.1242 -0.6076 -0.5167
 3891SOL     MW15564   2.604   3.466   4.785 -0.3233  0.4652  0.5559
 3892SOL     OW15565   0.473   4.766   0.875  0.3472  0.1723  0.1660
 3892SOL    HW115566   0.559   4.746   0.912 -0.1090  0.1712  1.2723
 3892SOL    HW215567   0.412   4.709   0.923 -0.3641  0.7333 -0.0439
 3892SOL     MW15568   0.476   4.756   0.887  0.1901  0.2476  0.2866
 3893SOL     OW15569   3.091   5.419   0.659  0.0019  0.0907 -1.0699
 3893SOL    HW115570   3.051   5.385   0.740 -0.3347 -0.0072 -1.2746
 3893SOL    HW215571   3.017   5.449   0.607  0.1441 -0.7395 -1.7568
 3893SOL     MW15572   3.076   5.419   0.663 -0.0243 -0.0342 -1.1899
 3894SOL     OW15573   1.635   5.337   2.048 -0.3606  0.3945  0.1202
 3894SOL    HW115574   1.714   5.303   2.090 -1.4844 -2.1917  0.3599
 3894SOL    HW215575   1.662   5.360   1.960  0.2986 -2.6467 -0.5929
 3894SOL     MW15576   1.649   5.335   2.042 -0.4232 -0.3628  0.0565
 3895SOL     OW15577   2.980   4.807   4.517  0.0860 -0.5419 -0.0535
 3895SOL    HW115578   2.955   4.882   4.571 -1.6156 -0.3268 -1.0663
 3895SOL    HW215579   2.947   4.731   4.565  0.1299 -0.4947  0.0515
 3895SOL     MW15580   2.972   4.807   4.531 -0.1371 -0.5066 -0.1756
 3896SOL     OW15581   2.567   0.614   4.505 -0.2832  0.0827  0.4234
 3896SOL    HW115582   2.561   0.669   4.427  1.4943 -0.4597 -0.1399
 3896SOL    HW215583   2.532   0.529   4.478  1.2857 -0.4222 -0.1560
 3896SOL     MW15584   2.561   0.610   4.491  0.1672 -0.0582  0.2696
 3897SOL     OW15585   1.849   5.464   1.297  0.2470  0.2365 -0.7028
 3897SOL    HW115586   1.938   5.499   1.291  0.9663 -1.3575  0.0960
 3897SOL    HW215587   1.815   5.470   1.208  1.9637 -1.1604 -1.5135
 3897SOL     MW15588   1.856   5.470   1.284  0.5749 -0.1660 -0.7044
 3898SOL     OW15589   5.237   2.831   5.315  0.3195  0.2055 -0.1763
 3898SOL    HW115590   5.293   2.870   5.248 -0.1933  0.4884 -0.4368
 3898SOL    HW215591   5.176   2.901   5.339 -0.9091 -0.5642 -0.9724
 3898SOL     MW15592   5.237   2.846   5.310  0.0852  0.1400 -0.3185
 3899SOL     OW15593   2.610   1.302   4.166 -0.4847  0.1697  0.3295
 3899SOL    HW115594   2.682   1.294   4.229  1.8399  0.1186 -2.1445
 3899SOL    HW215595   2.575   1.214   4.158  2.1489 -0.8433 -1.5379
 3899SOL     MW15596   2.615   1.289   4.173  0.1826  0.0265 -0.2548
 3900SOL     OW15597   3.062   3.394   2.060  0.3150 -0.0563 -0.2435
 3900SOL    HW115598   3.138   3.426   2.012 -0.4817  0.5698 -1.1235
 3900SOL    HW215599   2.995   3.461   2.046 -0.7781 -1.1589 -0.4782
 3900SOL     MW15600   3.063   3.408   2.052  0.0607 -0.1204 -0.3935
 3901SOL     OW15601   1.137   1.046   2.808  0.1792 -0.3804 -0.2178
 3901SOL    HW115602   1.104   1.065   2.896  2.1867 -1.0193  0.7326
 3901SOL    HW215603   1.131   0.951   2.800 -2.9590 -0.1479 -2.0916
 3901SOL     MW15604   1.132   1.036   2.819  0.0270 -0.4351 -0.3421
 3902SOL     OW15605   4.108   0.146   3.360  0.2248  0.3479  0.6202
 3902SOL    HW115606   4.013   0.135   3.353 -0.0559  1.9519  1.2667
 3902SOL    HW215607   4.145   0.088   3.295 -1.1827 -0.7378  0.7581
 3902SOL     MW15608   4.100   0.137   3.351 -0.0024  0.4176  0.7257
 3903SOL     OW15609   2.757   1.438   2.081  0.3985  0.2593 -0.2726
 3903SOL    HW115610   2.773   1.347   2.055 -1.9794 -0.0265 -0.9957
 3903SOL    HW215611   2.760   1.437   2.176  2.1414 -0.1784 -0.3028
 3903SOL     MW15612   2.759   1.425   2.090  0.3131  0.1619 -0.3740
 3904SOL     OW15613   4.035   2.134   2.050  0.8005 -0.0095  0.2671
 3904SOL    HW115614   4.120   2.147   2.091  1.2790 -0.2131 -0.6349
 3904SOL    HW215615   3.971   2.158   2.117  1.5128 -2.1198  1.7935
 3904SOL     MW15616   4.038   2.139   2.064  0.9608 -0.3209  0.3511
 3905SOL     OW15617   3.698   0.716   1.709  0.0327  0.4727  0.1433
 3905SOL    HW115618   3.680   0.791   1.765 -0.5640 -0.6129  1.4763
 3905SOL    HW215619   3.783   0.684   1.739  0.1509  0.4473 -0.2202
 3905SOL     MW15620   3.707   0.721   1.721 -0.0317  0.3232  0.2738
 3906SOL     OW15621   3.617   0.174   0.532  0.1722  0.1210 -0.3375
 3906SOL    HW115622   3.539   0.210   0.575 -0.1807  0.4947 -1.2614
 3906SOL    HW215623   3.637   0.237   0.462  0.7388 -0.4554 -0.7047
 3906SOL     MW15624   3.609   0.187   0.528  0.2009  0.0937 -0.5112
 3907SOL     OW15625   1.466   3.388   2.221  0.0918 -0.4517  0.1709
 3907SOL    HW115626   1.482   3.442   2.144  1.2139 -1.2422 -0.1689
 3907SOL    HW215627   1.372   3.369   2.218  0.2640 -1.2093 -1.5296
 3907SOL     MW15628   1.455   3.392   2.210  0.2660 -0.6600 -0.1037
 3908SOL     OW15629   1.377   1.566   2.556  0.1780 -0.2057 -0.2586
 3908SOL    HW115630   1.364   1.471   2.549 -0.4170 -0.1304 -0.2148
 3908SOL    HW215631   1.382   1.596   2.465 -0.6865 -0.1424 -0.2915
 3908SOL     MW15632   1.376   1.557   2.543 -0.0184 -0.1870 -0.2572
 3909SOL     OW15633   2.359   1.127   0.218  0.1946 -0.1107  0.3316
 3909SOL    HW115634   2.352   1.223   0.218  2.7577  0.1611  0.3053
 3909SOL    HW215635   2.326   1.101   0.304 -2.0845  0.5776 -0.2661
 3909SOL     MW15636   2.354   1.136   0.230  0.2328  0.0185  0.2476
 3910SOL     OW15637   4.033   1.268   2.237 -0.3066  0.2251  0.1311
 3910SOL    HW115638   4.112   1.234   2.278 -1.2559 -2.5348 -0.0991
 3910SOL    HW215639   4.062   1.298   2.151  0.7065  0.5106  0.5613
 3910SOL     MW15640   4.047   1.267   2.231 -0.2980 -0.1079  0.1580
 3911SOL     OW15641   2.028   4.200   1.459  0.2146 -0.5210  0.0482
 3911SOL    HW115642   2.062   4.113   1.442  3.0146  0.4783 -0.0390
 3911SOL    HW215643   2.040   4.248   1.377 -3.6806 -0.6146 -0.7665
 3911SOL     MW15644   2.034   4.195   1.446  0.0672 -0.3991 -0.0732
 3912SOL     OW15645   2.596   4.931   5.272 -0.8272  0.1414 -0.6354
 3912SOL    HW115646   2.548   5.013   5.261  0.5530  0.7474 -2.7368
 3912SOL    HW215647   2.687   4.958   5.285 -0.5677 -1.0464  0.2037
 3912SOL     MW15648   2.602   4.946   5.272 -0.6065  0.0631 -0.8053
 3913SOL     OW15649   2.212   0.594   4.719  0.3676 -0.2064 -0.4906
 3913SOL    HW115650   2.169   0.643   4.789  0.3854 -0.9264  0.0261
 3913SOL    HW215651   2.300   0.578   4.752  0.7463  0.4486 -1.1588
 3913SOL     MW15652   2.218   0.599   4.733  0.4209 -0.2151 -0.5110
 3914SOL     OW15653   0.435   4.275   0.938  0.0983  0.5517  0.2440
 3914SOL    HW115654   0.424   4.180   0.926 -3.2130  0.9164 -0.7711
 3914SOL    HW215655   0.461   4.307   0.851 -0.0599  0.6889  0.2456
 3914SOL     MW15656   0.437   4.266   0.925 -0.3687  0.6193  0.1076
 3915SOL     OW15657  -0.006   3.876   5.407 -0.6735 -0.0571 -0.1483
 3915SOL    HW115658   0.081   3.843   5.431 -1.2678 -1.5590  0.0428
 3915SOL    HW215659  -0.003   3.882   5.312 -0.8752 -1.7085 -0.2840
 3915SOL     MW15660   0.006   3.872   5.398 -0.7806 -0.4815 -0.1409
 3916SOL     OW15661   0.036   1.292   4.067 -0.0284  0.5803 -0.1347
 3916SOL    HW115662   0.029   1.266   3.975 -1.4725 -1.3407  0.4622
 3916SOL    HW215663  -0.005   1.220   4.116  1.3730  1.1794  2.0759
 3916SOL     MW15664   0.030   1.279   4.061 -0.0342  0.4024  0.2432
 3917SOL     OW15665   0.829   2.195   0.262  0.5095 -0.0513 -0.2327
 3917SOL    HW115666   0.831   2.166   0.353  0.0078 -3.2225 -1.1307
 3917SOL    HW215667   0.754   2.150   0.224  0.0970  1.9900 -2.0224
 3917SOL     MW15668   0.819   2.185   0.269  0.3865 -0.2034 -0.5944
 3918SOL     OW15669   3.330   4.768   2.417 -0.5496 -0.2954 -0.0971
 3918SOL    HW115670   3.242   4.795   2.391 -1.3693 -2.0978  0.6387
 3918SOL    HW215671   3.362   4.714   2.345 -0.1841  0.0497 -0.1994
 3918SOL     MW15672   3.323   4.764   2.404 -0.6107 -0.4915 -0.0118
 3919SOL     OW15673   3.302   3.814   4.296 -0.2856 -0.4934  0.0856
 3919SOL    HW115674   3.357   3.736   4.307  0.8311  0.2446 -0.0644
 3919SOL    HW215675   3.344   3.881   4.349  0.8641  0.9988 -2.4939
 3919SOL     MW15676   3.315   3.813   4.305  0.0194 -0.1932 -0.2817
 3920SOL     OW15677   4.548   0.873   0.069 -0.3134  0.2298 -0.3561
 3920SOL    HW115678   4.501   0.954   0.088  1.7333  0.8881  2.5426
 3920SOL    HW215679   4.572   0.879  -0.023 -1.4162  2.2201 -0.5605
 3920SOL     MW15680   4.545   0.885   0.059 -0.1864  0.5863  0.0065
 3921SOL     OW15681   0.838   0.197   0.258  0.0891 -0.4135 -0.1183
 3921SOL    HW115682   0.841   0.164   0.348 -0.3588 -0.2223 -0.0298
 3921SOL    HW215683   0.800   0.125   0.208  0.6966 -0.6671 -0.2291
 3921SOL     MW15684   0.834   0.183   0.264  0.1106 -0.4219 -0.1213
 3922SOL     OW15685   3.638   3.920   3.618 -0.2219 -0.6416  0.1072
 3922SOL    HW115686   3.601   3.999   3.658 -0.2306 -0.6233  0.0640
 3922SOL    HW215687   3.728   3.945   3.596 -0.7382 -0.0614 -1.4919
 3922SOL     MW15688   3.645   3.934   3.620 -0.2925 -0.5610 -0.1138
 3923SOL     OW15689   3.516   0.576   0.796 -0.2357 -0.3576 -0.0258
 3923SOL    HW115690   3.600   0.534   0.779 -0.3684 -1.1550  1.1215
 3923SOL    HW215691   3.538   0.660   0.835  0.0358 -0.2003 -0.5218
 3923SOL     MW15692   3.530   0.581   0.799 -0.2170 -0.4438  0.0619
 3924SOL     OW15693   2.029   3.222   0.521 -0.3403  0.2871  0.4524
 3924SOL    HW115694   2.023   3.304   0.472 -0.6789 -1.0886 -1.9734
 3924SOL    HW215695   1.942   3.211   0.559 -0.0301  1.4577  1.5493
 3924SOL     MW15696   2.016   3.231   0.519 -0.3441  0.2595  0.2736
 3925SOL     OW15697   4.311   2.074   4.456  0.1324 -0.3331 -0.0079
 3925SOL    HW115698   4.300   2.035   4.369 -1.4414 -0.5282  0.2610
 3925SOL    HW215699   4.271   2.011   4.516  0.6601  0.0880  0.8098
 3925SOL     MW15700   4.304   2.060   4.452 -0.0084 -0.3027  0.1384
 3926SOL     OW15701   1.243   3.834   2.408 -0.5666 -0.0685 -0.2532
 3926SOL    HW115702   1.150   3.820   2.390 -0.7193  0.8366 -0.2077
 3926SOL    HW215703   1.279   3.746   2.422 -1.9356 -0.2848  2.4187
 3926SOL     MW15704   1.236   3.820   2.407 -0.7714  0.0242  0.1125
 3927SOL     OW15705   3.017   1.748   0.911 -0.0583 -0.0865 -0.1722
 3927SOL    HW115706   3.089   1.711   0.860 -0.3527  0.0011 -0.6580
 3927SOL    HW215707   2.957   1.675   0.925 -1.1160  0.3779 -1.9646
 3927SOL     MW15708   3.019   1.733   0.906 -0.2403 -0.0122 -0.4788
 3928SOL     OW15709   4.347   3.104   4.320  0.5671  0.5928 -0.0879
 3928SOL    HW115710   4.342   3.053   4.401  0.9496  0.4764 -0.1369
 3928SOL    HW215711   4.258   3.100   4.284  0.6873 -0.3722 -0.2926
 3928SOL     MW15712   4.334   3.097   4.327  0.6347  0.4473 -0.1220
 3929SOL     OW15713   3.511   3.672   4.915  0.2390 -0.0971  0.6034
 3929SOL    HW115714   3.431   3.621   4.926  0.4435 -0.1993  1.8601
 3929SOL    HW215715   3.517   3.689   4.821 -0.3176 -1.5970  0.2741
 3929SOL     MW15716   3.501   3.668   4.904  0.1916 -0.3127  0.7282
 3930SOL     OW15717   1.008   4.379   5.083  0.1341  0.2685 -0.2416
 3930SOL    HW115718   1.078   4.354   5.144 -0.5398 -0.6063  0.2057
 3930SOL    HW215719   0.929   4.383   5.138 -0.2776  0.6254 -0.8511
 3930SOL     MW15720   1.007   4.376   5.099 -0.0120  0.1988 -0.2635
 3931SOL     OW15721   2.898   1.008   0.645  0.0848  0.2060 -0.4318
 3931SOL    HW115722   2.919   1.094   0.608  0.7695  0.2257 -0.0072
 3931SOL    HW215723   2.945   0.946   0.590  0.9849  0.2259  0.3033
 3931SOL     MW15724   2.907   1.011   0.632  0.2981  0.2114 -0.2757
 3932SOL     OW15725   2.679   1.837   4.143  0.0279 -0.5721  0.1139
 3932SOL    HW115726   2.600   1.838   4.198 -0.4020  1.8220 -0.4663
 3932SOL    HW215727   2.751   1.852   4.204 -0.0415 -1.6188  0.4828
 3932SOL     MW15728   2.678   1.839   4.158 -0.0393 -0.3907  0.0855
 3933SOL     OW15729   4.674   4.950   2.571 -0.5058 -0.2051  0.0739
 3933SOL    HW115730   4.636   5.036   2.552  0.4631  0.2349  0.0858
 3933SOL    HW215731   4.762   4.953   2.534  0.8312  0.0751  3.0191
 3933SOL     MW15732   4.681   4.962   2.564 -0.1955 -0.1082  0.4718
 3934SOL     OW15733   1.500   3.256   2.912  0.1242  0.4443  0.6146
 3934SOL    HW115734   1.582   3.302   2.897  2.6267 -3.6720  0.1200
 3934SOL    HW215735   1.509   3.219   3.001  1.4632 -4.2811 -1.1564
 3934SOL     MW15736   1.512   3.257   2.922  0.6412 -0.7456  0.3097
 3935SOL     OW15737   2.014   3.436   0.353  0.3261 -0.7657  0.6249
 3935SOL    HW115738   1.937   3.464   0.304  0.3595 -1.1856  0.3283
 3935SOL    HW215739   2.087   3.483   0.312  0.1904 -0.0893  1.1376
 3935SOL     MW15740   2.013   3.446   0.341  0.3123 -0.7312  0.6540
 3936SOL     OW15741   1.603   1.640   5.011  0.8766  0.2200 -0.0767
 3936SOL    HW115742   1.549   1.718   5.006  1.0387  0.2639 -1.5269
 3936SOL    HW215743   1.682   1.668   5.058 -0.8908 -0.2218  3.4664
 3936SOL     MW15744   1.607   1.654   5.017  0.6606  0.1665  0.2050
 3937SOL     OW15745   4.844   2.451   0.887 -0.1141 -0.0161 -0.1345
 3937SOL    HW115746   4.776   2.403   0.935  1.6659 -2.1656  0.4127
 3937SOL    HW215747   4.925   2.433   0.935  1.1654  0.8459 -1.8471
 3937SOL     MW15748   4.846   2.442   0.900  0.2976 -0.1894 -0.2914
 3938SOL     OW15749   1.072   5.404   0.450  0.1563  0.3006  0.0407
 3938SOL    HW115750   1.137   5.475   0.456  0.3718  0.1084  0.0228
 3938SOL    HW215751   1.081   5.356   0.533 -0.6244  0.8302  0.4341
 3938SOL     MW15752   1.082   5.407   0.462  0.0802  0.3460  0.0912
 3939SOL     OW15753   2.592   1.242   0.690  0.2075 -0.1787 -0.1435
 3939SOL    HW115754   2.606   1.302   0.764  0.4533 -0.9378  0.4292
 3939SOL    HW215755   2.613   1.156   0.725  1.2040 -0.4504 -1.3590
 3939SOL     MW15756   2.597   1.239   0.705  0.3747 -0.3174 -0.2300
 3940SOL     OW15757   4.414   1.317   4.181 -0.0225  0.6009  0.1802
 3940SOL    HW115758   4.492   1.288   4.228 -0.7479 -1.9066 -0.0401
 3940SOL    HW215759   4.444   1.389   4.126  2.4374 -1.0894 -0.8074
 3940SOL     MW15760   4.428   1.323   4.180  0.2109  0.0359  0.0177
 3941SOL     OW15761   4.516   4.146   5.348 -0.1485 -0.3225  0.1765
 3941SOL    HW115762   4.437   4.127   5.398  0.0417 -1.7184 -0.0026
 3941SOL    HW215763   4.565   4.207   5.402 -1.5990  1.0341  0.0290
 3941SOL     MW15764   4.512   4.151   5.362 -0.3181 -0.3278  0.1325
 3942SOL     OW15765   3.666   1.920   1.534  0.4251  0.1269 -0.6633
 3942SOL    HW115766   3.725   1.850   1.562 -0.4860 -0.9703 -1.3825
 3942SOL    HW215767   3.668   1.984   1.605  1.4813 -0.5105 -0.1095
 3942SOL     MW15768   3.674   1.919   1.547  0.4446 -0.1065 -0.6856
 3943SOL     OW15769   3.303   2.412   4.432  0.6520 -0.0840 -0.2002
 3943SOL    HW115770   3.315   2.436   4.340 -0.3888 -1.4189 -0.7165
 3943SOL    HW215771   3.295   2.316   4.432 -2.2264  0.0215  0.8676
 3943SOL     MW15772   3.303   2.402   4.420  0.1246 -0.2495 -0.1260
 3944SOL     OW15773   2.203   2.819   4.392 -0.0040 -0.1280 -0.1960
 3944SOL    HW115774   2.163   2.879   4.456  1.7045  1.0612 -0.1783
 3944SOL    HW215775   2.181   2.732   4.424  0.1404  0.4538  1.6044
 3944SOL     MW15776   2.194   2.815   4.405  0.2453  0.1104  0.0487
 3945SOL     OW15777   3.802   4.090   4.257  0.3797 -0.5266 -0.0263
 3945SOL    HW115778   3.890   4.075   4.294  0.7064  1.2942  0.0467
 3945SOL    HW215779   3.818   4.143   4.179 -0.6242 -0.8117 -0.4366
 3945SOL     MW15780   3.816   4.095   4.252  0.2885 -0.3199 -0.0717
 3946SOL     OW15781   4.809   4.554   1.420  0.0162  0.3161 -0.1191
 3946SOL    HW115782   4.749   4.480   1.432 -0.2643  0.3805 -1.0622
 3946SOL    HW215783   4.825   4.557   1.325  0.2408  1.2966 -0.0573
 3946SOL     MW15784   4.803   4.545   1.409  0.0086  0.4567 -0.2377
 3947SOL     OW15785   0.407   1.440   1.305  0.3143 -0.6210 -0.2467
 3947SOL    HW115786   0.445   1.514   1.352  1.8699 -0.7236 -1.2768
 3947SOL    HW215787   0.320   1.471   1.278 -0.1178 -0.1381  1.5682
 3947SOL     MW15788   0.400   1.454   1.308  0.4655 -0.5698 -0.1410
 3948SOL     OW15789   0.670   1.603   3.177  0.3414  0.0261  0.1662
 3948SOL    HW115790   0.675   1.558   3.261  0.3807 -0.4078 -0.0661
 3948SOL    HW215791   0.598   1.666   3.188  0.0305 -0.3586  0.3705
 3948SOL     MW15792   0.661   1.606   3.189  0.3048 -0.0841  0.1625
 3949SOL     OW15793   0.395   3.365   1.715 -0.2825  0.0905  0.4401
 3949SOL    HW115794   0.329   3.433   1.704 -1.9142 -1.3926  0.6780
 3949SOL    HW215795   0.360   3.289   1.668  0.5093 -1.2133  1.8435
 3949SOL     MW15796   0.381   3.364   1.707 -0.3955 -0.2846  0.6610
 3950SOL     OW15797   3.484   3.331   1.839  0.1709  0.1204 -0.4945
 3950SOL    HW115798   3.429   3.399   1.878  1.9672  1.5387 -0.2953
 3950SOL    HW215799   3.487   3.261   1.905  0.7650  1.1942  0.6480
 3950SOL     MW15800   3.477   3.331   1.853  0.4926  0.4558 -0.3140
 3951SOL     OW15801   2.867   3.447   5.274 -0.5054  0.0501 -0.2325
 3951SOL    HW115802   2.881   3.500   5.195 -1.6862  0.0831 -0.4402
 3951SOL    HW215803   2.878   3.508   5.347 -1.2570  0.4615 -0.4491
 3951SOL     MW15804   2.870   3.462   5.273 -0.7655  0.1099 -0.2896
 3952SOL     OW15805   4.039   0.866   5.284 -1.1432 -0.3140 -0.0973
 3952SOL    HW115806   4.118   0.890   5.236 -0.7501 -0.4727  0.4630
 3952SOL    HW215807   3.972   0.926   5.252 -0.4201  0.8740  0.5624
 3952SOL     MW15808   4.041   0.877   5.273 -0.9930 -0.1755  0.0669
 3953SOL     OW15809   5.200   1.993   4.429 -0.1513  0.6083  0.3602
 3953SOL    HW115810   5.287   1.953   4.432  0.6243  2.1849  0.0386
 3953SOL    HW215811   5.143   1.929   4.471  0.9775 -0.8947 -0.2659
 3953SOL     MW15812   5.204   1.979   4.435  0.1050  0.6182  0.2327
 3954SOL     OW15813   0.693   2.713   3.095 -0.4969 -0.2356 -0.1711
 3954SOL    HW115814   0.770   2.701   3.151 -0.0985  2.2046 -0.0805
 3954SOL    HW215815   0.689   2.808   3.080 -2.5566 -0.4745 -1.5214
 3954SOL     MW15816   0.703   2.724   3.100 -0.7205  0.0607 -0.3407
 3955SOL     OW15817   5.461   5.040   3.055 -0.4755  0.1084 -0.5306
 3955SOL    HW115818   5.526   4.977   3.084 -1.0802 -0.4513 -0.3601
 3955SOL    HW215819   5.494   5.125   3.086 -0.2054 -0.2573  0.2104
 3955SOL     MW15820   5.474   5.043   3.063 -0.5206 -0.0161 -0.4079
 3956SOL     OW15821   0.947   1.436   4.564  0.0704 -0.4575  0.2306
 3956SOL    HW115822   0.879   1.394   4.617 -0.3020  0.0445  0.1582
 3956SOL    HW215823   0.973   1.368   4.501 -0.2435 -0.7063  0.3644
 3956SOL     MW15824   0.941   1.421   4.563 -0.0220 -0.4234  0.2389
 3957SOL     OW15825   4.476   3.251   1.526  0.2625 -0.2148  0.4331
 3957SOL    HW115826   4.490   3.161   1.498 -0.3165 -0.4029  0.7269
 3957SOL    HW215827   4.516   3.305   1.458  0.4178 -0.6926  0.1488
 3957SOL     MW15828   4.483   3.246   1.513  0.2055 -0.3044  0.4343
 3958SOL     OW15829   4.298   2.347   0.723 -0.2827 -0.1235  0.2179
 3958SOL    HW115830   4.265   2.385   0.642 -0.9552 -0.4863  0.3086
 3958SOL    HW215831   4.294   2.252   0.709 -1.8073 -0.2404  1.1867
 3958SOL     MW15832   4.293   2.339   0.710 -0.5784 -0.1881  0.3605
 3959SOL     OW15833   0.298   0.272   2.656 -0.6503  0.1873  0.6886
 3959SOL    HW115834   0.382   0.286   2.698 -0.7537  0.1775  0.9012
 3959SOL    HW215835   0.240   0.243   2.727 -0.9309  0.5726  0.6180
 3959SOL     MW15836   0.301   0.270   2.671 -0.7020  0.2379  0.7077
 3960SOL     OW15837   1.936   3.629   0.521  0.1101 -0.1647 -0.2035
 3960SOL    HW115838   1.978   3.568   0.460  2.1070 -0.0157  0.9119
 3960SOL    HW215839   2.007   3.688   0.548 -1.3732  1.6245  0.0303
 3960SOL     MW15840   1.951   3.629   0.516  0.1792  0.0961 -0.0220
 3961SOL     OW15841   1.672   0.380   4.169 -0.2600 -0.5100 -0.8349
 3961SOL    HW115842   1.581   0.350   4.173 -0.4419 -0.0985 -1.6831
 3961SOL    HW215843   1.676   0.453   4.231 -0.3184 -0.9871 -0.2606
 3961SOL     MW15844   1.660   0.386   4.178 -0.2923 -0.5188 -0.8718
 3962SOL     OW15845   5.407   4.778   3.442  0.1364 -0.4676  0.1488
 3962SOL    HW115846   5.316   4.747   3.442 -0.2819  0.5420 -2.1277
 3962SOL    HW215847   5.403   4.863   3.398  2.2677 -0.6358 -0.4459
 3962SOL     MW15848   5.394   4.785   3.436  0.3669 -0.3544 -0.2376
 3963SOL     OW15849   1.463   4.032   0.548  0.2116  0.0815  0.4560
 3963SOL    HW115850   1.500   4.079   0.473 -0.5117 -0.5323 -0.3003
 3963SOL    HW215851   1.539   4.000   0.596  0.6948 -1.0718 -1.0180
 3963SOL     MW15852   1.478   4.034   0.544  0.1793 -0.1563  0.1558
 3964SOL     OW15853   0.420   3.582   3.833 -0.5743  0.8873  0.7453
 3964SOL    HW115854   0.395   3.492   3.855  1.6478  0.1953  0.7557
 3964SOL    HW215855   0.498   3.572   3.779 -0.1751  2.8276  0.8925
 3964SOL     MW15856   0.427   3.568   3.829 -0.2215  1.0553  0.7665
 3965SOL     OW15857   0.193   5.161   0.072 -0.3152 -0.3017 -0.1520
 3965SOL    HW115858   0.183   5.125   0.160 -1.0595 -0.8962 -0.4674
 3965SOL    HW215859   0.108   5.200   0.052  0.6029  2.1006  0.3575
 3965SOL     MW15860   0.180   5.161   0.081 -0.2918 -0.0585 -0.1258
 3966SOL     OW15861   4.251   2.309   3.282  0.0162 -0.1721 -0.2132
 3966SOL    HW115862   4.222   2.249   3.350  0.7123  1.2488  1.4041
 3966SOL    HW215863   4.313   2.258   3.229 -1.3612 -1.6098 -0.4843
 3966SOL     MW15864   4.256   2.294   3.284 -0.0755 -0.1744 -0.0320
 3967SOL     OW15865   5.065   0.572   2.602 -0.2686 -0.4191  0.2268
 3967SOL    HW115866   5.139   0.620   2.565 -0.0381 -0.3463  0.7860
 3967SOL    HW215867   5.104   0.514   2.668 -0.8223  0.3393  1.2375
 3967SOL     MW15868   5.081   0.570   2.606 -0.3121 -0.3072  0.4381
 3968SOL     OW15869   1.173   2.920   0.499  0.1878 -0.4155 -0.4338
 3968SOL    HW115870   1.144   3.010   0.492  0.9957 -0.1561 -0.5505
 3968SOL    HW215871   1.155   2.881   0.414 -1.6234 -0.8289  0.0976
 3968SOL     MW15872   1.167   2.927   0.487  0.0528 -0.4363 -0.3780
 3969SOL     OW15873   3.392   0.701   0.460 -0.3888 -0.1775 -0.0058
 3969SOL    HW115874   3.458   0.636   0.485  0.4192  0.0342 -1.4338
 3969SOL    HW215875   3.396   0.767   0.529 -0.2823 -0.9860  0.7772
 3969SOL     MW15876   3.402   0.701   0.472 -0.2657 -0.2578 -0.0926
 3970SOL     OW15877   5.323   2.357   0.630 -0.3567  0.2467 -0.0516
 3970SOL    HW115878   5.291   2.434   0.675  0.3129  0.7597 -0.4357
 3970SOL    HW215879   5.402   2.332   0.677  0.5005  0.9466 -1.0651
 3970SOL     MW15880   5.329   2.364   0.642 -0.1512  0.4100 -0.2397
 3971SOL     OW15881   3.085   1.822   2.198  0.5231 -0.5797 -0.2107
 3971SOL    HW115882   3.097   1.763   2.272 -0.1451 -1.0360 -0.4642
 3971SOL    HW215883   2.992   1.817   2.177  0.4851  0.4083 -0.3661
 3971SOL     MW15884   3.074   1.814   2.205  0.4281 -0.5082 -0.2657
 3972SOL     OW15885   1.370   4.623   3.400  0.1596 -0.5746  0.4368
 3972SOL    HW115886   1.275   4.611   3.401  0.1744 -0.6658  1.2443
 3972SOL    HW215887   1.399   4.574   3.323 -0.4284 -0.7171  0.2983
 3972SOL     MW15888   1.361   4.615   3.390  0.0824 -0.6061  0.5268
 3973SOL     OW15889   3.377   3.076   1.441  1.1622  0.5492  0.1374
 3973SOL    HW115890   3.359   3.146   1.504  1.1261  0.0116  0.7321
 3973SOL    HW215891   3.370   2.995   1.492 -0.1149  0.0160 -0.8138
 3973SOL     MW15892   3.373   3.074   1.456  0.9855  0.4051  0.0895
 3974SOL     OW15893   3.393   1.987   3.685 -0.1374 -0.0202 -0.0426
 3974SOL    HW115894   3.338   2.061   3.657  0.8133  0.1038 -1.7558
 3974SOL    HW215895   3.412   1.940   3.603 -1.6125 -2.8600  1.0845
 3974SOL     MW15896   3.388   1.991   3.670 -0.2080 -0.3857 -0.1215
 3975SOL     OW15897   1.391   0.826   2.472  0.3590  0.0054 -0.5988
 3975SOL    HW115898   1.473   0.871   2.493  0.5558 -0.6292  0.0463
 3975SOL    HW215899   1.417   0.753   2.417  0.0527  0.5922 -1.5506
 3975SOL     MW15900   1.406   0.822   2.467  0.3443 -0.0011 -0.6400
 3976SOL     OW15901   0.712   0.032   0.023  0.6873 -0.2271 -0.2229
 3976SOL    HW115902   0.632   0.015   0.072  1.0959 -0.2774  0.4442
 3976SOL    HW215903   0.682   0.057  -0.064 -0.1219  1.2580  0.4393
 3976SOL     MW15904   0.697   0.033   0.018  0.6334 -0.0340 -0.0440
 3977SOL     OW15905   5.251   1.186   0.643  0.0543 -0.0261 -0.0955
 3977SOL    HW115906   5.268   1.280   0.635  0.0059  0.0782  0.8521
 3977SOL    HW215907   5.324   1.144   0.598  0.2457  0.4630 -0.2442
 3977SOL     MW15908   5.263   1.193   0.636  0.0735  0.0538  0.0120
 3978SOL     OW15909   1.023   3.991   0.345 -1.0147  0.1532  0.3687
 3978SOL    HW115910   1.016   4.086   0.358  0.2938  0.1023  1.5974
 3978SOL    HW215911   0.952   3.971   0.284 -0.2857  2.1686 -1.2739
 3978SOL     MW15912   1.012   4.001   0.338 -0.7405  0.4176  0.3130
 3979SOL     OW15913   0.772   4.695   0.886 -0.0034 -0.3470 -0.5639
 3979SOL    HW115914   0.864   4.677   0.868 -0.0620 -0.3312 -0.9034
 3979SOL    HW215915   0.755   4.653   0.970  0.8940  1.6334  0.6600
 3979SOL     MW15916   0.782   4.687   0.895  0.1095 -0.0783 -0.4449
 3980SOL     OW15917   2.139   0.146   0.732  0.2220 -0.6122 -0.0390
 3980SOL    HW115918   2.226   0.124   0.699  0.7150  1.7407 -0.4676
 3980SOL    HW215919   2.080   0.126   0.659  0.4419 -1.6482  0.0461
 3980SOL     MW15920   2.143   0.140   0.718  0.3179 -0.4350 -0.0852
 3981SOL     OW15921   4.685   2.215   1.719 -0.2918  0.2372 -0.2509
 3981SOL    HW115922   4.679   2.242   1.627 -1.1950 -0.8068 -0.5128
 3981SOL    HW215923   4.598   2.184   1.741  0.4867 -1.7085  0.2721
 3981SOL     MW15924   4.673   2.215   1.709 -0.3086 -0.1651 -0.2158
 3982SOL     OW15925   2.377   2.312   0.551 -0.5177 -0.5006 -0.1792
 3982SOL    HW115926   2.298   2.339   0.597  0.4765  1.0060  0.7152
 3982SOL    HW215927   2.379   2.217   0.561 -2.0613 -0.5402 -0.0057
 3982SOL     MW15928   2.367   2.303   0.559 -0.5917 -0.3032 -0.0355
 3983SOL     OW15929   0.114   4.802   1.078  0.0902 -0.5533 -0.1435
 3983SOL    HW115930   0.151   4.890   1.081 -0.2493 -0.3669 -1.2113
 3983SOL    HW215931   0.117   4.772   1.169 -0.2183  0.7313  0.3034
 3983SOL     MW15932   0.120   4.810   1.091  0.0030 -0.3553 -0.2270
 3984SOL     OW15933   3.400   2.311   0.566  0.0107 -0.2012 -0.4927
 3984SOL    HW115934   3.465   2.315   0.495  0.4604 -0.0152 -0.0806
 3984SOL    HW215935   3.392   2.401   0.596 -0.0644 -0.2990 -0.2118
 3984SOL     MW15936   3.408   2.323   0.561  0.0611 -0.1894 -0.3995
 3985SOL     OW15937   3.392   0.885   0.665 -0.1978 -0.0452 -0.4262
 3985SOL    HW115938   3.311   0.896   0.715 -0.3251  0.2591 -0.6925
 3985SOL    HW215939   3.457   0.858   0.730 -0.4319  0.0494 -0.1494
 3985SOL     MW15940   3.389   0.883   0.681 -0.2464  0.0085 -0.4248
 3986SOL     OW15941   2.488   0.878   0.355 -0.3073  0.1404 -0.4156
 3986SOL    HW115942   2.495   0.812   0.286  0.4702  1.1448 -1.3320
 3986SOL    HW215943   2.542   0.845   0.426  1.4217  0.5123 -1.4950
 3986SOL     MW15944   2.496   0.865   0.355  0.0301  0.3256 -0.6842
 3987SOL     OW15945   1.029   2.347   4.709  0.0241  0.4772 -0.3224
 3987SOL    HW115946   1.050   2.370   4.618  1.9353  1.1311  0.2288
 3987SOL    HW215947   0.946   2.300   4.703 -0.5728  1.6246 -2.2646
 3987SOL     MW15948   1.021   2.344   4.696  0.2010  0.7196 -0.5096
 3988SOL     OW15949   4.025   4.520   2.193  0.2603 -0.2578  0.0333
 3988SOL    HW115950   4.055   4.532   2.283 -0.3445  0.5347  0.1477
 3988SOL    HW215951   4.025   4.609   2.156 -1.1856 -0.3297 -0.1895
 3988SOL     MW15952   4.029   4.534   2.200 -0.0157 -0.1608  0.0187
 3989SOL     OW15953   0.414   2.748   4.759  0.4997  0.6780  0.3436
 3989SOL    HW115954   0.384   2.772   4.672 -1.4592 -1.4448  0.3406
 3989SOL    HW215955   0.397   2.825   4.813  0.8944  1.6827 -0.9250
 3989SOL     MW15956   0.408   2.762   4.755  0.2892  0.5275  0.1725
 3990SOL     OW15957   4.115   0.284   2.038 -0.3768  0.1170  0.4016
 3990SOL    HW115958   4.044   0.344   2.060  0.2821  0.6530  1.1355
 3990SOL    HW215959   4.148   0.254   2.123  1.0393  0.7966  0.1217
 3990SOL     MW15960   4.110   0.288   2.052 -0.0975  0.2806  0.4627
 3991SOL     OW15961   4.491   2.804   0.621  0.2247  0.0677 -0.0963
 3991SOL    HW115962   4.541   2.778   0.543  0.0846  0.7723 -0.4300
 3991SOL    HW215963   4.534   2.883   0.651  0.1030 -0.0476  0.3800
 3991SOL     MW15964   4.503   2.811   0.614  0.1895  0.1470 -0.0771
 3992SOL     OW15965   2.194  -0.007   5.249 -0.1181 -0.8013  0.1883
 3992SOL    HW115966   2.234   0.080   5.237 -1.2150 -0.1630  0.9790
 3992SOL    HW215967   2.219  -0.033   5.338 -2.6392  0.2978  1.3018
 3992SOL     MW15968   2.203   0.001   5.259 -0.6050 -0.5675  0.4446
 3993SOL     OW15969   1.339   3.306   4.319  0.6477 -0.1836 -0.5444
 3993SOL    HW115970   1.401   3.248   4.276  0.1245 -0.2396 -1.2621
 3993SOL    HW215971   1.353   3.391   4.277  0.6241 -0.0696 -0.3209
 3993SOL     MW15972   1.349   3.310   4.307  0.5741 -0.1758 -0.6109
 3994SOL     OW15973   0.148   1.529   1.249 -0.2567 -0.0637  0.4492
 3994SOL    HW115974   0.110   1.441   1.249 -1.1474  0.3081 -0.3875
 3994SOL    HW215975   0.161   1.550   1.156  1.5266  0.0383  0.6749
 3994SOL     MW15976   0.145   1.520   1.236 -0.1366  0.0000  0.3670
 3995SOL     OW15977   2.447   3.645   3.307  0.2251  0.0005 -0.2090
 3995SOL    HW115978   2.452   3.579   3.237  0.9879  0.4951 -0.6357
 3995SOL    HW215979   2.532   3.641   3.349 -0.7468 -1.4422  1.8051
 3995SOL     MW15980   2.459   3.636   3.303  0.1970 -0.1271  0.0047
 3996SOL     OW15981   1.536   2.878   4.261 -0.1046  0.1930 -0.1023
 3996SOL    HW115982   1.607   2.841   4.208  0.9123  0.0676  1.2902
 3996SOL    HW215983   1.461   2.823   4.242  0.5392 -0.5573 -0.5350
 3996SOL     MW15984   1.536   2.866   4.251  0.1189  0.0751  0.0269
 3997SOL     OW15985   2.243   3.082   4.093  0.0482 -0.4201 -0.3912
 3997SOL    HW115986   2.198   2.998   4.104  0.7355 -0.9283 -1.3512
 3997SOL    HW215987   2.221   3.110   4.004 -1.4853  1.2447  0.4347
 3997SOL     MW15988   2.234   3.075   4.083 -0.0657 -0.2644 -0.4092
 3998SOL     OW15989   2.807   3.023   0.855  0.4641 -0.7743  0.0130
 3998SOL    HW115990   2.721   3.045   0.819  0.0921 -1.4298  0.4832
 3998SOL    HW215991   2.869   3.059   0.792 -0.0730  2.3319  1.1168
 3998SOL     MW15992   2.804   3.031   0.842  0.3418 -0.4445  0.2249
 3999SOL     OW15993   1.090   5.220   0.680  0.2611 -0.0740  0.2779
 3999SOL    HW115994   1.062   5.263   0.760 -0.7797  1.1637 -0.7156
 3999SOL    HW215995   1.086   5.126   0.700 -1.6525  0.1576  1.1470
 3999SOL     MW15996   1.086   5.213   0.693 -0.1365  0.1237  0.2612
 4000SOL     OW15997   2.803   0.095   0.863 -0.1562  0.1961 -0.0853
 4000SOL    HW115998   2.864   0.145   0.807 -0.9609  1.6448  0.2864
 4000SOL    HW215999   2.821   0.126   0.952  0.8441 -1.8134  0.4792
 4000SOL     MW16000   2.814   0.106   0.867 -0.1299  0.1207  0.0407
 4001SOL     OW16001   3.862   1.897   5.226 -0.0175 -0.1952 -0.1906
 4001SOL    HW116002   3.783   1.875   5.176  1.1156 -2.5047 -1.1150
 4001SOL    HW216003   3.833   1.899   5.317 -1.4392  0.6756 -0.6244
 4001SOL     MW16004   3.847   1.895   5.231 -0.0564 -0.3889 -0.3734
 4002SOL     OW16005   0.173   0.099   2.478  0.4508 -0.5405  0.2654
 4002SOL    HW116006   0.189   0.130   2.388 -0.8594 -1.7377 -0.4183
 4002SOL    HW216007   0.199   0.172   2.533 -2.5997  1.8808 -1.2408
 4002SOL     MW16008   0.179   0.113   2.473 -0.1361 -0.3757 -0.0293
 4003SOL     OW16009   3.374   4.740   5.244 -0.1861  0.0109 -0.2057
 4003SOL    HW116010   3.461   4.778   5.236  0.8859 -2.3243 -0.4361
 4003SOL    HW216011   3.330   4.793   5.311  2.7665 -1.0015  2.7992
 4003SOL     MW16012   3.380   4.752   5.252  0.3555 -0.4396  0.1677
 4004SOL     OW16013   4.229   4.999   4.242 -0.6366 -0.1516  0.7273
 4004SOL    HW116014   4.307   5.053   4.233  0.5561 -2.0144 -1.0121
 4004SOL    HW216015   4.171   5.028   4.171 -1.1994  0.6579  1.4973
 4004SOL     MW16016   4.231   5.010   4.231 -0.5518 -0.2934  0.5969
 4005SOL     OW16017   0.531   1.428   4.779  0.5574  0.1791 -0.1551
 4005SOL    HW116018   0.459   1.372   4.751  0.1577  0.8740 -0.5638
 4005SOL    HW216019   0.608   1.372   4.775  0.1669 -0.3479 -0.5287
 4005SOL     MW16020   0.532   1.413   4.774  0.4511  0.2017 -0.2604
 4006SOL     OW16021   2.384   2.365   1.090 -0.1928  0.2057 -0.3142
 4006SOL    HW116022   2.457   2.307   1.068  1.7274  1.9269  1.0605
 4006SOL    HW216023   2.346   2.327   1.168  0.0130 -0.0770 -0.3497
 4006SOL     MW16024   2.389   2.352   1.097  0.0933  0.3993 -0.1339
 4007SOL     OW16025   1.954   2.345   1.566 -0.1559  0.1815 -0.0324
 4007SOL    HW116026   1.952   2.393   1.483  1.5122 -1.2633 -0.9798
 4007SOL    HW216027   1.949   2.252   1.540 -2.0240 -0.2442  1.6563
 4007SOL     MW16028   1.953   2.339   1.551 -0.1828 -0.0702  0.0674
 4008SOL     OW16029   4.863   5.336   1.153  0.2681  0.2854 -0.2360
 4008SOL    HW116030   4.841   5.250   1.188 -1.3674 -0.0373 -1.9003
 4008SOL    HW216031   4.879   5.390   1.230  0.8842 -1.3781  0.8547
 4008SOL     MW16032   4.862   5.332   1.168  0.1309  0.0181 -0.3132
 4009SOL     OW16033   0.386   0.798   3.435  0.3416 -0.5971 -0.3414
 4009SOL    HW116034   0.463   0.769   3.385 -0.8028 -2.8908 -0.9001
 4009SOL    HW216035   0.395   0.893   3.439  3.3668 -0.7805 -0.0881
 4009SOL     MW16036   0.398   0.806   3.429  0.5947 -0.9304 -0.3825
 4010SOL     OW16037   2.828   2.321   3.654  0.6477  0.1000 -0.1808
 4010SOL    HW116038   2.890   2.253   3.627  0.6367  0.5689 -1.4490
 4010SOL    HW216039   2.744   2.293   3.616  0.3517  0.1166  0.4545
 4010SOL     MW16040   2.825   2.308   3.645  0.6064  0.1653 -0.2660
 4011SOL     OW16041   2.013   2.214   2.035  0.1201 -0.3509  0.2220
 4011SOL    HW116042   1.983   2.257   2.115  0.9217 -1.8215  1.3687
 4011SOL    HW216043   2.105   2.239   2.027  0.1511 -0.5340 -0.0306
 4011SOL     MW16044   2.022   2.224   2.044  0.2321 -0.5735  0.3423
 4012SOL     OW16045   5.130   5.104   1.656  0.3537 -0.1360 -0.0707
 4012SOL    HW116046   5.061   5.047   1.623  0.4351 -1.2602  1.5572
 4012SOL    HW216047   5.098   5.134   1.741  1.9683 -0.9544  0.8804
 4012SOL     MW16048   5.116   5.100   1.663  0.5820 -0.3974  0.2763
 4013SOL     OW16049   1.993   2.181   3.786 -0.0515  0.3737  0.6260
 4013SOL    HW116050   2.080   2.207   3.816 -0.3675  0.0840  1.8222
 4013SOL    HW216051   2.007   2.156   3.694  1.0461  0.7120  0.6819
 4013SOL     MW16052   2.007   2.181   3.778  0.0537  0.3802  0.7945
 4014SOL     OW16053   0.461   5.252   2.071 -0.2637 -0.4293  0.6614
 4014SOL    HW116054   0.417   5.297   1.999  2.2517 -1.1164 -1.4379
 4014SOL    HW216055   0.520   5.318   2.108  0.8498 -0.9648 -0.1107
 4014SOL     MW16056   0.463   5.267   2.066  0.2247 -0.5938  0.2749
 4015SOL     OW16057   2.493   4.340   1.800  0.1889  0.3868 -0.0391
 4015SOL    HW116058   2.550   4.415   1.813 -1.9672  2.1664 -0.3636
 4015SOL    HW216059   2.475   4.307   1.889 -0.0417  1.2039  0.2217
 4015SOL     MW16060   2.498   4.345   1.814 -0.1323  0.7363 -0.0477
 4016SOL     OW16061   3.736   0.450   3.728  0.1087  0.1406  0.1260
 4016SOL    HW116062   3.767   0.379   3.785 -1.3120  0.9095  1.9389
 4016SOL    HW216063   3.652   0.419   3.695  1.3946 -0.7893 -2.6227
 4016SOL     MW16064   3.729   0.436   3.731  0.0906  0.1189  0.0000
 4017SOL     OW16065   2.972   1.334   3.893  0.1471 -0.2782 -0.0709
 4017SOL    HW116066   2.888   1.363   3.930  2.5771  2.8887  3.8158
 4017SOL    HW216067   2.985   1.389   3.816 -0.9136 -0.1553 -0.1719
 4017SOL     MW16068   2.962   1.345   3.888  0.3314  0.1645  0.4386
 4018SOL     OW16069   5.280   1.628   4.265  0.5799 -0.2350  0.0832
 4018SOL    HW116070   5.195   1.586   4.258  0.1653  0.7014 -0.7247
 4018SOL    HW216071   5.338   1.574   4.212 -0.3810  1.2293 -2.6650
 4018SOL     MW16072   5.277   1.615   4.257  0.3948  0.0881 -0.3954
 4019SOL     OW16073   5.014   0.430   5.380 -0.5199  0.5679 -0.1541
 4019SOL    HW116074   5.038   0.370   5.450 -0.7638 -0.2041 -0.7137
 4019SOL    HW216075   5.095   0.473   5.355 -0.4846  1.0770  0.8029
 4019SOL     MW16076   5.028   0.428   5.386 -0.5480  0.5325 -0.1006
 4020SOL     OW16077   4.266   2.099   0.619  0.1558 -0.3258  0.0249
 4020SOL    HW116078   4.190   2.123   0.566 -0.9206 -3.0733  0.1547
 4020SOL    HW216079   4.230   2.080   0.705  1.3277  0.3466  0.6864
 4020SOL     MW16080   4.251   2.100   0.623  0.1687 -0.6050  0.1314
 4021SOL     OW16081   1.182   2.673   4.844 -0.1770  0.4792 -0.6157
 4021SOL    HW116082   1.193   2.727   4.922  1.0383 -1.1746  0.4285
 4021SOL    HW216083   1.131   2.597   4.874 -0.0895  0.0359 -1.5331
 4021SOL     MW16084   1.177   2.670   4.859 -0.0017  0.1970 -0.5986
 4022SOL     OW16085   3.129   3.059   2.293  0.3897 -0.2921  0.1282
 4022SOL    HW116086   3.110   2.979   2.342  1.0465 -0.8294 -0.4761
 4022SOL    HW216087   3.104   3.037   2.203 -0.6141  0.6136  0.1629
 4022SOL     MW16088   3.123   3.045   2.287  0.3430 -0.2425  0.0515
 4023SOL     OW16089   2.953   4.309   0.085  0.9634  0.1271 -0.2504
 4023SOL    HW116090   2.878   4.341   0.134 -1.5300 -1.8980 -2.4197
 4023SOL    HW216091   2.947   4.352  -0.000  0.7922 -1.7924 -1.2820
 4023SOL     MW16092   2.942   4.319   0.080  0.6048 -0.4038 -0.6812
 4024SOL     OW16093   3.811   2.950   3.361 -0.3308 -0.1961  0.1036
 4024SOL    HW116094   3.794   3.034   3.404 -1.1435  0.2209 -0.9736
 4024SOL    HW216095   3.843   2.974   3.274 -0.5615 -1.0006 -0.2079
 4024SOL     MW16096   3.813   2.965   3.355 -0.4713 -0.2483 -0.0833
 4025SOL     OW16097   1.982   4.581   2.419 -0.1757 -0.1661  0.1703
 4025SOL    HW116098   1.943   4.647   2.362  2.4570 -0.3858 -2.1091
 4025SOL    HW216099   1.945   4.498   2.388 -1.7729 -0.0211  1.5455
 4025SOL     MW16100   1.972   4.578   2.407 -0.0364 -0.1762  0.0486
 4026SOL     OW16101   4.303   4.164   0.389 -0.5910 -0.3203 -0.2893
 4026SOL    HW116102   4.220   4.148   0.435 -0.7837 -2.2230 -1.1593
 4026SOL    HW216103   4.369   4.117   0.440 -0.2907  0.0350 -0.3480
 4026SOL     MW16104   4.300   4.155   0.402 -0.5765 -0.5286 -0.4143
 4027SOL     OW16105   2.009   0.103   0.504 -0.3752  0.3219  0.4560
 4027SOL    HW116106   2.077   0.058   0.453  0.5312  1.5125  0.5660
 4027SOL    HW216107   1.927   0.078   0.462  0.1719 -0.6304 -0.0905
 4027SOL     MW16108   2.007   0.094   0.492 -0.1796  0.3539  0.3972
 4028SOL     OW16109   3.711   0.288   4.136 -0.1626  0.3701  0.8298
 4028SOL    HW116110   3.721   0.383   4.131  0.9724  0.2116 -0.5160
 4028SOL    HW216111   3.639   0.268   4.076  1.3740  0.1624 -1.0113
 4028SOL     MW16112   3.703   0.298   4.128  0.1970  0.3208  0.4009
 4029SOL     OW16113   2.199   1.234   4.479 -0.7188 -0.6705 -0.5806
 4029SOL    HW116114   2.179   1.302   4.543 -2.8385 -1.2686 -0.5622
 4029SOL    HW216115   2.294   1.241   4.467 -0.8366  2.3178 -0.6253
 4029SOL     MW16116   2.209   1.244   4.486 -1.0199 -0.3488 -0.5842
 4030SOL     OW16117   3.810   3.695   1.017 -0.2262 -0.3940 -0.4761
 4030SOL    HW116118   3.737   3.659   0.966 -1.0947 -0.8681  1.0236
 4030SOL    HW216119   3.769   3.761   1.073  0.5792 -0.3549  0.0823
 4030SOL     MW16120   3.795   3.699   1.018 -0.2347 -0.4525 -0.1991
 4031SOL     OW16121   0.523   4.060   3.151  0.2457 -0.0802 -0.1073
 4031SOL    HW116122   0.504   4.125   3.218  2.8407 -0.6079  1.2772
 4031SOL    HW216123   0.508   4.106   3.068 -0.1433  1.5593  0.8433
 4031SOL     MW16124   0.519   4.075   3.149  0.5426  0.0694  0.2069
 4032SOL     OW16125   3.375   4.836   3.691 -0.1611 -0.1642 -1.2144
 4032SOL    HW116126   3.403   4.927   3.680  1.4980 -0.1960  1.6777
 4032SOL    HW216127   3.280   4.842   3.705  0.2312  1.5353  1.5458
 4032SOL     MW16128   3.366   4.849   3.692  0.1150  0.0602 -0.4537
 4033SOL     OW16129   5.169   5.218   3.514 -0.0974  0.6647 -0.0150
 4033SOL    HW116130   5.238   5.220   3.581  0.3026  0.1467 -0.3993
 4033SOL    HW216131   5.154   5.125   3.498 -1.2606  0.7611  0.4326
 4033SOL     MW16132   5.176   5.206   3.521 -0.2001  0.6080 -0.0065
 4034SOL     OW16133   5.299   4.976   5.384 -0.1754 -0.6792 -0.1129
 4034SOL    HW116134   5.316   4.891   5.424 -0.4063  0.0448  1.6104
 4034SOL    HW216135   5.238   5.019   5.443  1.2024  1.3253 -0.0251
 4034SOL     MW16136   5.293   4.970   5.397 -0.0211 -0.3120  0.1309
 4035SOL     OW16137   2.445   5.307   2.737 -0.3267  0.8239 -0.0226
 4035SOL    HW116138   2.382   5.235   2.736  1.7544 -1.1157 -0.7798
 4035SOL    HW216139   2.509   5.280   2.803  1.0656  1.4432 -1.0881
 4035SOL     MW16140   2.445   5.294   2.746  0.1408  0.6462 -0.2679
 4036SOL     OW16141   0.573   3.782   2.554 -0.1144  0.2267  0.0926
 4036SOL    HW116142   0.549   3.795   2.646  0.7766 -1.5319  0.6290
 4036SOL    HW216143   0.503   3.727   2.519  0.2039 -0.1793  0.0867
 4036SOL     MW16144   0.560   3.776   2.562  0.0484 -0.0646  0.1640
 4037SOL     OW16145   4.827   3.019   2.091  0.0946 -0.2002 -0.0945
 4037SOL    HW116146   4.796   3.028   2.181  0.1358  0.3202 -0.1323
 4037SOL    HW216147   4.828   3.108   2.057 -1.3360 -0.5319 -1.0796
 4037SOL     MW16148   4.823   3.032   2.099 -0.0924 -0.1748 -0.2321
 4038SOL     OW16149   2.874   1.001   5.166  0.7190 -0.0114 -0.2601
 4038SOL    HW116150   2.965   1.005   5.138  0.5450  1.3482 -0.6770
 4038SOL    HW216151   2.827   0.966   5.090  0.6593  0.9243 -0.6614
 4038SOL     MW16152   2.880   0.997   5.152  0.6876  0.2975 -0.3703
 4039SOL     OW16153   3.608   0.810   4.235 -0.2582  0.0953  0.5531
 4039SOL    HW116154   3.647   0.832   4.320 -0.9028  0.9444  0.6468
 4039SOL    HW216155   3.537   0.749   4.256  0.8917 -1.3330  0.3980
 4039SOL     MW16156   3.603   0.805   4.249 -0.1902  0.0174  0.5449
 4040SOL     OW16157   1.379   1.190   2.798  0.1823  0.0921 -0.2755
 4040SOL    HW116158   1.365   1.248   2.722 -0.5797  0.9210  0.4753
 4040SOL    HW216159   1.298   1.141   2.807  1.3275 -2.2450 -1.7948
 4040SOL     MW16160   1.366   1.191   2.789  0.2339 -0.1108 -0.3789
 4041SOL     OW16161   3.337   4.271   0.713 -0.5292  0.2357 -0.2657
 4041SOL    HW116162   3.408   4.283   0.775 -0.0842  0.8917 -0.8810
 4041SOL    HW216163   3.295   4.357   0.707 -1.4566 -0.1676  0.1768
 4041SOL     MW16164   3.341   4.284   0.721 -0.5941  0.2697 -0.2890
 4042SOL     OW16165   3.645   1.776   1.894  0.3641  0.3103 -0.1660
 4042SOL    HW116166   3.652   1.849   1.955 -0.8705  1.0323 -0.8262
 4042SOL    HW216167   3.713   1.715   1.920  0.2044  0.8361  1.5906
 4042SOL     MW16168   3.655   1.777   1.906  0.1764  0.4783 -0.0185
 4043SOL     OW16169   3.512   0.360   3.610 -0.2099  0.7820 -0.7304
 4043SOL    HW116170   3.505   0.398   3.523  1.5870 -0.1824 -1.3492
 4043SOL    HW216171   3.556   0.276   3.596 -0.4785  0.3079  1.0378
 4043SOL     MW16172   3.517   0.354   3.597 -0.0042  0.5884 -0.5757
 4044SOL     OW16173   3.905   0.830   3.337  0.1635 -0.2917 -0.1195
 4044SOL    HW116174   3.914   0.925   3.347  0.2512 -0.5017  2.5856
 4044SOL    HW216175   3.978   0.804   3.281 -0.0475  1.2529 -1.1579
 4044SOL     MW16176   3.916   0.839   3.331  0.1469 -0.1121  0.1048
 4045SOL     OW16177   1.261   2.535   3.093 -0.2264  0.9792  0.3360
 4045SOL    HW116178   1.351   2.506   3.101 -0.4006  0.4080  0.2908
 4045SOL    HW216179   1.224   2.522   3.180 -0.5147  0.3403  0.1219
 4045SOL     MW16180   1.268   2.530   3.106 -0.2886  0.8163  0.3011
 4046SOL     OW16181   0.649   1.522   3.440 -0.7831  0.2546 -0.4526
 4046SOL    HW116182   0.644   1.440   3.490 -0.8249  0.0785 -0.7416
 4046SOL    HW216183   0.714   1.575   3.486 -1.2107  0.3089  0.0994
 4046SOL     MW16184   0.657   1.518   3.453 -0.8463  0.2382 -0.4172
 4047SOL     OW16185   3.787   0.791   1.329  0.3080 -0.1170  0.4458
 4047SOL    HW116186   3.723   0.856   1.297 -0.8746 -1.0712  0.7861
 4047SOL    HW216187   3.861   0.800   1.270 -0.6606  0.1566 -0.7818
 4047SOL     MW16188   3.788   0.801   1.317  0.0185 -0.2086  0.3264
 4048SOL     OW16189   3.461   3.826   5.151 -0.1603 -0.2380 -0.5292
 4048SOL    HW116190   3.490   3.796   5.064  0.6335 -0.5840 -0.1571
 4048SOL    HW216191   3.438   3.745   5.197  1.1568 -0.2321  0.1891
 4048SOL     MW16192   3.461   3.811   5.145  0.1238 -0.2838 -0.3825
 4049SOL     OW16193   3.282   1.392   4.112 -0.8670  0.0256 -0.0442
 4049SOL    HW116194   3.204   1.397   4.168 -0.2447 -1.9576  1.0746
 4049SOL    HW216195   3.355   1.416   4.170 -0.4422  0.1420 -0.6129
 4049SOL     MW16196   3.281   1.396   4.127 -0.7261 -0.2256  0.0298
 4050SOL     OW16197   2.624   1.684   3.901  0.2294  0.3809 -0.3441
 4050SOL    HW116198   2.659   1.598   3.924 -0.3863  0.1933 -0.0897
 4050SOL    HW216199   2.617   1.730   3.985  0.1081  0.5086 -0.4236
 4050SOL     MW16200   2.628   1.679   3.916  0.1302  0.3728 -0.3206
 4051SOL     OW16201   0.503   1.557   4.549  0.5750  0.0006  0.1812
 4051SOL    HW116202   0.512   1.504   4.469  0.2059  0.3680 -0.1047
 4051SOL    HW216203   0.511   1.493   4.620 -2.9232 -1.0226 -0.1539
 4051SOL     MW16204   0.505   1.541   4.548  0.0546 -0.0877  0.0976
 4052SOL     OW16205   5.312   4.978   0.655  0.9639  0.3141 -0.4267
 4052SOL    HW116206   5.318   5.018   0.568  2.4028  0.6121 -0.2194
 4052SOL    HW216207   5.294   5.052   0.713  0.6258  0.2083 -0.3971
 4052SOL     MW16208   5.310   4.993   0.651  1.1120  0.3400 -0.3948
 4053SOL     OW16209   4.793   2.969   3.523 -0.4513 -0.0712  0.1529
 4053SOL    HW116210   4.856   2.919   3.575  0.6985  2.1474  1.0063
 4053SOL    HW216211   4.713   2.915   3.525  0.9540 -2.2808  0.2250
 4053SOL     MW16212   4.791   2.955   3.531 -0.1074 -0.0700  0.2774
 4054SOL     OW16213   0.773   1.302   4.745 -0.2509  0.0299  0.4397
 4054SOL    HW116214   0.753   1.208   4.746  1.1871 -0.3389  2.3286
 4054SOL    HW216215   0.805   1.320   4.834  2.0147  1.7228 -0.6149
 4054SOL     MW16216   0.775   1.292   4.757  0.2475  0.2081  0.5520
 4055SOL     OW16217   1.292   4.880   4.437 -0.5332 -0.2103 -0.3275
 4055SOL    HW116218   1.335   4.888   4.352 -0.1210  1.4459 -0.0071
 4055SOL    HW216219   1.342   4.939   4.495 -2.1615  0.4341  0.4852
 4055SOL     MW16220   1.305   4.889   4.434 -0.6969  0.0993 -0.1750
 4056SOL     OW16221   3.505   0.825   5.026  0.0624  0.0360 -0.1213
 4056SOL    HW116222   3.440   0.755   5.023 -1.0378  1.0298 -0.5482
 4056SOL    HW216223   3.542   0.820   5.114 -1.6696  0.3567  0.6703
 4056SOL     MW16224   3.501   0.815   5.038 -0.3187  0.2129 -0.0723
 4057SOL     OW16225   2.335   1.377   1.754 -0.0926 -0.7832 -0.1002
 4057SOL    HW116226   2.274   1.354   1.684  1.1182 -1.5843 -0.9502
 4057SOL    HW216227   2.283   1.428   1.816 -1.2229 -0.0305 -1.5777
 4057SOL     MW16228   2.320   1.381   1.753 -0.0817 -0.7897 -0.4134
 4058SOL     OW16229   4.413   3.387   3.601 -0.6869  0.0544 -0.5353
 4058SOL    HW116230   4.358   3.463   3.583  0.0531  0.3722 -1.5419
 4058SOL    HW216231   4.375   3.316   3.549 -0.4526  0.1398 -0.8233
 4058SOL     MW16232   4.400   3.388   3.592 -0.5558  0.1087 -0.7096
 4059SOL     OW16233   1.411   5.242   2.710  0.1623  0.3662  0.0448
 4059SOL    HW116234   1.377   5.251   2.799 -0.3839  0.1420 -0.1346
 4059SOL    HW216235   1.416   5.147   2.696 -0.7214  0.3814 -0.5105
 4059SOL     MW16236   1.407   5.230   2.720 -0.0301  0.3381 -0.0541
 4060SOL     OW16237   0.762   3.403   4.220 -0.1869  0.3017  0.4043
 4060SOL    HW116238   0.696   3.333   4.225 -0.7456  0.8167  0.3503
 4060SOL    HW216239   0.727   3.472   4.276  0.8202  0.1753  1.2133
 4060SOL     MW16240   0.748   3.403   4.228 -0.1266  0.3540  0.5059
 4061SOL     OW16241   3.654   0.496   5.210 -0.2447 -0.0137 -0.1710
 4061SOL    HW116242   3.673   0.588   5.190 -0.9035  0.4290  1.0978
 4061SOL    HW216243   3.561   0.486   5.192 -0.4850 -0.0412  0.9804
 4061SOL     MW16244   3.644   0.507   5.205 -0.3657  0.0422  0.1547
 4062SOL     OW16245   2.514   4.890   4.666  0.2856  0.3781 -0.1240
 4062SOL    HW116246   2.484   4.825   4.729  0.3050  0.7952  0.3277
 4062SOL    HW216247   2.435   4.939   4.643  0.5529  1.3366  0.8981
 4062SOL     MW16248   2.499   4.888   4.672  0.3242  0.5632  0.0743
 4063SOL     OW16249   4.799   5.050   4.413 -0.4221 -0.1620 -0.4285
 4063SOL    HW116250   4.754   4.991   4.353  1.1917 -1.3277 -0.5799
 4063SOL    HW216251   4.741   5.057   4.488 -0.3392 -2.6969 -0.0240
 4063SOL     MW16252   4.785   5.043   4.415 -0.1938 -0.6600 -0.3945
 4064SOL     OW16253   2.902   0.214   2.573  0.3114 -0.1209  0.2336
 4064SOL    HW116254   2.855   0.211   2.490 -0.2364  1.9318  0.4070
 4064SOL    HW216255   2.926   0.307   2.584  1.0123 -0.4632  2.0028
 4064SOL     MW16256   2.899   0.226   2.563  0.3320  0.1093  0.4951
 4065SOL     OW16257   5.303   3.652   0.584  0.0989  0.0066 -0.1704
 4065SOL    HW116258   5.263   3.735   0.609  0.6808 -0.1998  1.5605
 4065SOL    HW216259   5.343   3.669   0.498  1.1954  1.8718  0.6589
 4065SOL     MW16260   5.303   3.665   0.576  0.3247  0.2299  0.1742
 4066SOL     OW16261   5.079   3.547   0.437  0.2500 -0.3112  0.5628
 4066SOL    HW116262   5.145   3.601   0.480  1.4754 -0.6235 -0.8526
 4066SOL    HW216263   5.129   3.481   0.389 -1.1090 -0.8859 -0.1193
 4066SOL     MW16264   5.095   3.545   0.436  0.2320 -0.4306  0.2805
 4067SOL     OW16265   0.809   3.738   5.325 -0.3750  0.3356 -0.1058
 4067SOL    HW116266   0.863   3.719   5.402 -0.3019 -0.9476 -0.4413
 4067SOL    HW216267   0.845   3.820   5.290  1.5235 -0.5790 -0.4245
 4067SOL     MW16268   0.821   3.746   5.331 -0.1096  0.0398 -0.1938
 4068SOL     OW16269   4.614   0.475   1.707  0.3531 -0.3689 -0.5915
 4068SOL    HW116270   4.532   0.510   1.671  0.0791  0.3170  0.6408
 4068SOL    HW216271   4.660   0.552   1.741  0.7696 -0.9331  0.1699
 4068SOL     MW16272   4.610   0.490   1.707  0.3723 -0.3525 -0.3232
 4069SOL     OW16273   1.560   3.907   0.216  0.1390  0.1916  0.8276
 4069SOL    HW116274   1.639   3.901   0.271  0.5927 -0.2609  0.1422
 4069SOL    HW216275   1.510   3.828   0.238  0.5506 -0.2423  0.2681
 4069SOL     MW16276   1.564   3.895   0.227  0.2554  0.0723  0.6601
 4070SOL     OW16277   1.907   5.177   4.472  0.4217 -0.5498 -0.1511
 4070SOL    HW116278   1.935   5.211   4.558 -1.3004 -1.5677  0.8712
 4070SOL    HW216279   1.985   5.184   4.417  1.7666 -0.4167  1.6714
 4070SOL     MW16280   1.922   5.182   4.476  0.3709 -0.6688  0.2318
 4071SOL     OW16281   2.334   0.259   1.630 -0.1835  0.2263 -0.8504
 4071SOL    HW116282   2.252   0.242   1.585 -0.3243  0.7516 -0.7946
 4071SOL    HW216283   2.327   0.349   1.661  0.6819  0.5021 -1.4243
 4071SOL     MW16284   2.322   0.269   1.628 -0.0860  0.3341 -0.9201
 4072SOL     OW16285   2.985   0.477   2.582  0.3507  0.4313 -0.5282
 4072SOL    HW116286   3.055   0.479   2.647 -0.5491 -0.7328  0.5368
 4072SOL    HW216287   2.934   0.556   2.599 -0.8065 -0.6445  1.3155
 4072SOL     MW16288   2.988   0.488   2.593  0.0738  0.1298 -0.1368
 4073SOL     OW16289   2.292   4.818   5.187 -0.0013  0.7977 -0.4540
 4073SOL    HW116290   2.314   4.877   5.114 -1.0416 -0.1184 -1.5371
 4073SOL    HW216291   2.197   4.808   5.182  0.0863 -0.4144  0.1555
 4073SOL     MW16292   2.282   4.825   5.177 -0.1295  0.5113 -0.5177
 4074SOL     OW16293   3.720   5.186   3.771 -0.2525 -0.4614 -0.1219
 4074SOL    HW116294   3.785   5.118   3.791  0.1578  0.1964  0.8511
 4074SOL    HW216295   3.675   5.200   3.854  0.8897  1.7292  0.1814
 4074SOL     MW16296   3.723   5.178   3.785 -0.0436 -0.0780  0.0499
 4075SOL     OW16297   1.470   0.204   5.040  0.1606  0.3533  0.1845
 4075SOL    HW116298   1.565   0.215   5.052  0.4814 -0.3304 -1.4357
 4075SOL    HW216299   1.434   0.292   5.049  1.1212  0.8271 -0.4752
 4075SOL     MW16300   1.478   0.217   5.043  0.3331  0.3251 -0.1223
 4076SOL     OW16301   0.686   5.026   1.718  0.3574  0.2809  0.1010
 4076SOL    HW116302   0.695   5.003   1.811  1.0905  1.2213  0.2809
 4076SOL    HW216303   0.607   4.980   1.690  0.4458 -0.4876  1.0375
 4076SOL     MW16304   0.676   5.017   1.727  0.4680  0.3040  0.2512
 4077SOL     OW16305   0.598   4.943   3.195  0.2818 -0.0156 -0.0339
 4077SOL    HW116306   0.583   4.862   3.146 -1.7922  0.0050  0.4576
 4077SOL    HW216307   0.650   4.916   3.270 -1.1657 -1.1168  0.6227
 4077SOL     MW16308   0.603   4.928   3.198 -0.1921 -0.1610  0.1206
 4078SOL     OW16309   2.835   0.170   3.663 -0.7811  0.1039  0.0916
 4078SOL    HW116310   2.815   0.076   3.662  0.3516 -0.1568  0.4722
 4078SOL    HW216311   2.915   0.177   3.715  0.0304  1.1061 -1.2292
 4078SOL     MW16312   2.843   0.158   3.670 -0.5194  0.2037 -0.0349
 4079SOL     OW16313   2.045   0.264   2.601 -0.4798  0.6961  0.3155
 4079SOL    HW116314   1.973   0.312   2.641  1.1237  2.1331  1.6075
 4079SOL    HW216315   2.114   0.263   2.667  1.2346  0.6172 -1.3758
 4079SOL     MW16316   2.045   0.270   2.615 -0.0333  0.8788  0.2618
 4080SOL     OW16317   3.069   2.517   5.451  0.2433 -0.2702  0.1055
 4080SOL    HW116318   3.107   2.429   5.459 -0.5651 -0.4991  1.7199
 4080SOL    HW216319   2.982   2.510   5.490 -0.8463  0.6707 -1.9624
 4080SOL     MW16320   3.063   2.504   5.457 -0.0122 -0.1743  0.0445
 4081SOL     OW16321   0.888   4.879   2.786 -0.5075 -0.2598  0.0169
 4081SOL    HW116322   0.878   4.792   2.826  1.9051 -0.3099  0.6555
 4081SOL    HW216323   0.876   4.864   2.692  1.2002 -1.5828 -0.0353
 4081SOL     MW16324   0.885   4.865   2.779  0.0470 -0.4446  0.0958
 4082SOL     OW16325   3.438   3.639   0.059  0.1284  0.2077 -0.1959
 4082SOL    HW116326   3.424   3.624  -0.034 -0.7500 -0.7102  0.0655
 4082SOL    HW216327   3.409   3.558   0.101  1.1064  0.3669  0.8293
 4082SOL     MW16328   3.432   3.626   0.052  0.1418  0.1056 -0.0227
 4083SOL     OW16329   4.003   0.875   2.294  0.0985  0.3747 -0.4613
 4083SOL    HW116330   3.914   0.864   2.258  1.1893  0.1928 -3.3559
 4083SOL    HW216331   4.006   0.966   2.323 -1.0462  0.3563 -0.2267
 4083SOL     MW16332   3.991   0.886   2.293  0.0912  0.3478 -0.8193
 4084SOL     OW16333   3.195   2.945   1.259 -0.2497  0.3669  0.4586
 4084SOL    HW116334   3.234   2.876   1.206 -1.4098  0.0387 -0.0095
 4084SOL    HW216335   3.268   2.983   1.308  0.4054 -1.2231  0.7750
 4084SOL     MW16336   3.210   2.941   1.259 -0.3177  0.1088  0.4382
 4085SOL     OW16337   3.784   1.141   2.263 -0.2372  0.2162  0.3599
 4085SOL    HW116338   3.783   1.052   2.226 -0.3475  0.2453  0.2925
 4085SOL    HW216339   3.870   1.176   2.240 -0.5257  0.4496 -0.3784
 4085SOL     MW16340   3.796   1.133   2.255 -0.2909  0.2515  0.2515
 4086SOL     OW16341   2.597   2.277   4.969 -0.3480  0.1678 -0.6202
 4086SOL    HW116342   2.587   2.256   5.062 -0.0351  0.1951 -0.5797
 4086SOL    HW216343   2.678   2.327   4.964 -0.2566 -0.0103 -0.9402
 4086SOL     MW16344   2.606   2.281   4.981 -0.2936  0.1475 -0.6578
 4087SOL     OW16345   1.394   1.302   4.479  0.8239  0.0734 -0.3075
 4087SOL    HW116346   1.351   1.243   4.418  0.6381 -0.8212  0.6571
 4087SOL    HW216347   1.367   1.390   4.451  2.4096 -0.1436 -2.7606
 4087SOL     MW16348   1.384   1.306   4.467  1.0123 -0.0762 -0.5078
 4088SOL     OW16349   0.245   4.305   0.150  0.1050  0.5247  0.5030
 4088SOL    HW116350   0.293   4.355   0.216  2.0881 -0.0419 -0.4026
 4088SOL    HW216351   0.201   4.236   0.199  1.7186 -0.0232  1.2682
 4088SOL     MW16352   0.246   4.302   0.165  0.5890  0.3747  0.4841
 4089SOL     OW16353   2.537   3.581   2.531 -0.0636  0.0852  0.5994
 4089SOL    HW116354   2.540   3.635   2.452 -0.6315  1.0537  1.2095
 4089SOL    HW216355   2.470   3.516   2.514 -0.1510  0.2599  0.2711
 4089SOL     MW16356   2.529   3.580   2.518 -0.1518  0.2390  0.6373
 4090SOL     OW16357   0.356   5.360   5.456  0.2201  0.1985  0.2050
 4090SOL    HW116358   0.291   5.297   5.486  0.7691 -0.6343 -0.3301
 4090SOL    HW216359   0.390   5.399   5.536 -0.0796 -0.2286  0.5457
 4090SOL     MW16360   0.352   5.357   5.470  0.2537  0.0290  0.1789
 4091SOL     OW16361   2.871   3.848   1.548  0.0819 -0.7523  0.0597
 4091SOL    HW116362   2.871   3.840   1.643  0.9635 -0.7685  0.0668
 4091SOL    HW216363   2.875   3.942   1.531  1.2190 -0.7855  0.0596
 4091SOL     MW16364   2.871   3.860   1.558  0.3536 -0.7590  0.0606
 4092SOL     OW16365   0.838   2.039   3.977 -0.0266 -0.2930  0.7610
 4092SOL    HW116366   0.805   2.049   3.888  1.9024 -0.3817  0.0042
 4092SOL    HW216367   0.787   2.103   4.028 -0.8367  0.0790 -0.4667
 4092SOL     MW16368   0.827   2.049   3.972  0.1240 -0.2549  0.4939
 4093SOL     OW16369   3.602   5.164   1.528 -0.1055 -0.3150  0.6674
 4093SOL    HW116370   3.587   5.071   1.543  0.4116 -0.2887  1.4189
 4093SOL    HW216371   3.627   5.198   1.614  0.6929  0.3218  0.2019
 4093SOL     MW16372   3.603   5.156   1.541  0.0715 -0.2258  0.7059
 4094SOL     OW16373   4.976   1.019   0.300 -0.3074  0.0183 -0.1191
 4094SOL    HW116374   4.885   1.038   0.320 -0.4508  0.0223 -0.7535
 4094SOL    HW216375   5.018   1.007   0.385 -0.3317  2.5138  0.2955
 4094SOL     MW16376   4.969   1.020   0.314 -0.3300  0.3547 -0.1487
 4095SOL     OW16377   2.564   3.313   2.961  0.1436  0.0428 -0.0415
 4095SOL    HW116378   2.504   3.247   2.996  0.3225  0.0042  0.1942
 4095SOL    HW216379   2.584   3.283   2.872 -1.2117  0.7412 -0.6139
 4095SOL     MW16380   2.559   3.300   2.953 -0.0147  0.1316 -0.0868
 4096SOL     OW16381   1.618   1.951   0.291  0.0114 -0.2734  0.5164
 4096SOL    HW116382   1.603   1.869   0.338  0.6788 -0.5944  0.1953
 4096SOL    HW216383   1.597   2.020   0.354  1.3182 -0.6865  1.4599
 4096SOL     MW16384   1.613   1.949   0.306  0.2771 -0.3722  0.6002
 4097SOL     OW16385   2.069   3.837   0.199  0.1796 -0.6330  0.5448
 4097SOL    HW116386   2.121   3.838   0.279  2.2265 -0.8684 -0.7126
 4097SOL    HW216387   2.039   3.927   0.188  3.0810  0.3270 -0.3293
 4097SOL     MW16388   2.072   3.849   0.208  0.8455 -0.5355  0.2579
 4098SOL     OW16389   0.239   3.712   4.099  0.0133  0.0332 -0.0024
 4098SOL    HW116390   0.197   3.699   4.014  0.7377  0.0806 -0.3755
 4098SOL    HW216391   0.319   3.659   4.095  0.8902  1.3094  0.0234
 4098SOL     MW16392   0.244   3.703   4.087  0.2288  0.2113 -0.0492
 4099SOL     OW16393   2.070   1.679   5.103 -0.0077  0.7394 -0.1367
 4099SOL    HW116394   2.138   1.715   5.047  0.9474 -0.9495 -0.1213
 4099SOL    HW216395   2.033   1.606   5.053 -0.2472  0.2210  0.7740
 4099SOL     MW16396   2.074   1.674   5.089  0.0886  0.4423 -0.0121
 4100SOL     OW16397   1.313   2.867   0.954 -0.0217 -0.2529 -0.3724
 4100SOL    HW116398   1.238   2.818   0.987  0.8084 -0.8226  0.7503
 4100SOL    HW216399   1.276   2.950   0.925 -1.1834 -0.8083 -0.5289
 4100SOL     MW16400   1.298   2.872   0.955 -0.0663 -0.4043 -0.2424
 4101SOL     OW16401   4.154   4.454   4.994 -0.2124 -0.0005 -0.1182
 4101SOL    HW116402   4.135   4.533   4.942  3.9553 -0.1956 -2.2955
 4101SOL    HW216403   4.213   4.484   5.063  0.5768 -1.0048 -0.3291
 4101SOL     MW16404   4.159   4.469   4.996  0.4547 -0.1619 -0.4396
 4102SOL     OW16405   5.038   2.777   4.104  0.1420  0.1357 -0.6194
 4102SOL    HW116406   5.062   2.807   4.191  2.3938  1.2670 -1.5364
 4102SOL    HW216407   4.954   2.818   4.086  0.1885  0.7943  0.5959
 4102SOL     MW16408   5.030   2.786   4.113  0.4513  0.3766 -0.5793
 4103SOL     OW16409   2.573   0.994   4.495  0.5800  0.4714  0.2063
 4103SOL    HW116410   2.553   0.929   4.427 -1.2852 -0.8249  1.8601
 4103SOL    HW216411   2.542   1.077   4.459 -2.9036 -0.5850  0.3348
 4103SOL     MW16412   2.566   0.997   4.481 -0.1398  0.1548  0.4462
 4104SOL     OW16413   4.874   1.942   0.415 -0.6015  0.0818  0.2234
 4104SOL    HW116414   4.838   1.984   0.337 -0.1420 -0.2459 -0.1751
 4104SOL    HW216415   4.836   1.854   0.414  1.1342 -0.7119 -0.9013
 4104SOL     MW16416   4.864   1.936   0.404 -0.3061 -0.0691  0.0184
 4105SOL     OW16417   4.169   3.236   0.637  0.1859  0.0719 -0.4149
 4105SOL    HW116418   4.252   3.216   0.594 -0.2111 -1.5657 -0.4831
 4105SOL    HW216419   4.194   3.277   0.720  1.0598 -0.3951 -0.4392
 4105SOL     MW16420   4.183   3.239   0.642  0.2501 -0.2114 -0.4273
 4106SOL     OW16421   2.492   3.695   4.700 -0.2328 -0.1524  0.1254
 4106SOL    HW116422   2.419   3.707   4.761  1.0978 -0.6984  1.8922
 4106SOL    HW216423   2.539   3.778   4.702 -0.4822  0.0227 -0.6290
 4106SOL     MW16424   2.489   3.708   4.708 -0.0873 -0.2023  0.2616
 4107SOL     OW16425   2.958   0.243   2.110  0.2619  0.1116  0.2296
 4107SOL    HW116426   3.020   0.177   2.081 -0.3067 -0.2908 -0.0830
 4107SOL    HW216427   2.979   0.321   2.059  0.0132 -0.2511 -0.4304
 4107SOL     MW16428   2.969   0.245   2.099  0.1519  0.0086  0.0987
 4108SOL     OW16429   5.451   1.010   3.845  0.1519 -0.6637 -0.1780
 4108SOL    HW116430   5.386   0.940   3.838  0.7608 -1.2913  0.3458
 4108SOL    HW216431   5.534   0.969   3.823  0.2765  0.3608 -1.8069
 4108SOL     MW16432   5.453   0.995   3.841  0.2506 -0.6103 -0.3267
 4109SOL     OW16433   2.171   5.456   0.329 -0.0951 -0.8089  0.2255
 4109SOL    HW116434   2.173   5.465   0.233 -0.5557  0.0174  0.2783
 4109SOL    HW216435   2.262   5.465   0.356 -0.0736 -0.0349 -0.0702
 4109SOL     MW16436   2.183   5.459   0.319 -0.1542 -0.5936  0.1928
 4110SOL     OW16437   1.108   1.838   4.736 -0.2338  0.2871  0.1428
 4110SOL    HW116438   1.122   1.788   4.816 -1.2240  0.6081  0.5295
 4110SOL    HW216439   1.195   1.871   4.713  0.6981 -2.4662 -0.7423
 4110SOL     MW16440   1.121   1.836   4.743 -0.2417 -0.0402  0.0757
 4111SOL     OW16441   1.125   0.777   2.801  0.4821  0.4649  0.3542
 4111SOL    HW116442   1.114   0.733   2.885  2.3179  0.8186  0.8290
 4111SOL    HW216443   1.192   0.726   2.756  0.7487  1.2642 -0.1737
 4111SOL     MW16444   1.133   0.765   2.806  0.7650  0.6201  0.3471
 4112SOL     OW16445   4.502   3.362   0.998  0.6942 -0.1023 -0.3155
 4112SOL    HW116446   4.426   3.338   1.051  0.6534  0.9023  0.1027
 4112SOL    HW216447   4.467   3.375   0.910  0.0761  1.8195  0.1673
 4112SOL     MW16448   4.487   3.360   0.993  0.6056  0.2915 -0.1942
 4113SOL     OW16449   4.593   4.700   4.478 -0.4881  0.0527  0.4438
 4113SOL    HW116450   4.530   4.746   4.532 -1.2074 -0.3147 -0.0616
 4113SOL    HW216451   4.543   4.627   4.439  0.4344 -0.7241  0.6680
 4113SOL     MW16452   4.578   4.696   4.480 -0.4608 -0.1013  0.4060
 4114SOL     OW16453   5.023   0.121   3.844  0.6611  0.5737 -0.0358
 4114SOL    HW116454   4.980   0.201   3.874  0.3573  0.1806  0.5920
 4114SOL    HW216455   4.968   0.050   3.876  1.4166  0.0835  0.2090
 4114SOL     MW16456   5.010   0.122   3.853  0.7219  0.4548  0.0816
 4115SOL     OW16457   5.388   0.997   3.041  0.4385 -0.0596  0.0680
 4115SOL    HW116458   5.396   1.007   2.946 -2.5799  2.5330 -0.0629
 4115SOL    HW216459   5.335   0.918   3.052  0.0326  0.1330 -0.4477
 4115SOL     MW16460   5.382   0.988   3.029 -0.0223  0.3152 -0.0190
 4116SOL     OW16461   5.416   2.862   2.348 -0.3517 -0.5377  0.2226
 4116SOL    HW116462   5.392   2.938   2.296  0.7362  0.9950  1.8696
 4116SOL    HW216463   5.484   2.818   2.295  2.6154  2.3907  1.2571
 4116SOL     MW16464   5.422   2.866   2.334  0.1940  0.0627  0.5835
 4117SOL     OW16465   1.922   0.538   0.902  0.0460  0.1283  0.1162
 4117SOL    HW116466   1.908   0.633   0.903  0.4376  0.1836  0.3016
 4117SOL    HW216467   1.916   0.511   0.993  2.3591  0.3411  0.3950
 4117SOL     MW16468   1.919   0.547   0.914  0.4100  0.1644  0.1787
 4118SOL     OW16469   2.832   0.285   4.616 -0.4600  0.1046  0.4185
 4118SOL    HW116470   2.837   0.379   4.630  0.4952 -0.1277  1.8972
 4118SOL    HW216471   2.764   0.255   4.676 -0.1137 -0.2467  0.6460
 4118SOL     MW16472   2.824   0.293   4.626 -0.2849  0.0261  0.6481
 4119SOL     OW16473   1.037   1.921   1.361  0.1207 -0.3095 -0.5681
 4119SOL    HW116474   1.032   2.010   1.397 -0.5349 -0.3854 -0.4620
 4119SOL    HW216475   1.102   1.877   1.415 -0.0559 -0.0979 -0.1786
 4119SOL     MW16476   1.045   1.927   1.373  0.0087 -0.2913 -0.5014
 4120SOL     OW16477   2.081   2.968   4.591  0.2478  0.1190 -0.0228
 4120SOL    HW116478   1.988   2.942   4.595  0.4762 -0.8495 -0.5770
 4120SOL    HW216479   2.109   2.970   4.682 -0.4255  0.8679  0.1872
 4120SOL     MW16480   2.072   2.965   4.604  0.1880  0.0894 -0.0692
 4121SOL     OW16481   4.074   3.235   0.084 -0.4455 -0.2245  0.0200
 4121SOL    HW116482   4.056   3.235  -0.010  1.0536 -0.8128 -0.2934
 4121SOL    HW216483   4.168   3.250   0.091 -0.7987  1.9433  1.5296
 4121SOL     MW16484   4.084   3.237   0.072 -0.2913 -0.0120  0.1810
 4122SOL     OW16485   0.958   4.437   4.064 -0.2176 -0.1489 -0.1912
 4122SOL    HW116486   0.935   4.524   4.097 -2.2295 -0.4294 -0.6756
 4122SOL    HW216487   1.002   4.394   4.137 -0.3371  0.8471  0.4919
 4122SOL     MW16488   0.961   4.443   4.078 -0.5045 -0.0526 -0.1645
 4123SOL     OW16489   0.333   4.835   3.491 -0.1851 -0.0504 -0.7393
 4123SOL    HW116490   0.384   4.862   3.567 -0.7711  1.4480 -0.8368
 4123SOL    HW216491   0.263   4.780   3.526 -0.1657  0.2292 -0.2530
 4123SOL     MW16492   0.331   4.831   3.506 -0.2614  0.1889 -0.6870
 4124SOL     OW16493   3.379   1.956   4.223  0.2338 -0.5842 -0.2149
 4124SOL    HW116494   3.313   1.890   4.244 -1.4709  1.2160  0.3935
 4124SOL    HW216495   3.385   1.955   4.127  1.1416 -2.3808 -0.1896
 4124SOL     MW16496   3.371   1.947   4.213  0.1266 -0.5837 -0.1296
 4125SOL     OW16497   1.655   3.934   2.560  0.4750 -0.3695 -0.8205
 4125SOL    HW116498   1.615   3.915   2.645 -0.1483  0.8179 -0.8390
 4125SOL    HW216499   1.597   3.999   2.520  1.0316 -0.5511 -1.9511
 4125SOL     MW16500   1.642   3.940   2.566  0.4660 -0.2342 -0.9752
 4126SOL     OW16501   1.480   4.700   0.964  0.1812 -0.5247 -0.0568
 4126SOL    HW116502   1.524   4.677   1.045  1.3317 -0.2248 -0.5749
 4126SOL    HW216503   1.507   4.632   0.901  1.1013  0.4766 -0.7679
 4126SOL     MW16504   1.489   4.688   0.966  0.4598 -0.3496 -0.2222
 4127SOL     OW16505   5.156   3.103   2.348 -0.8035 -0.1779 -0.4369
 4127SOL    HW116506   5.087   3.169   2.340  0.3654  1.1145 -0.2706
 4127SOL    HW216507   5.113   3.028   2.390 -1.8954  0.9040  0.4616
 4127SOL     MW16508   5.141   3.102   2.352 -0.7931  0.1417 -0.2936
 4128SOL     OW16509   4.936   0.982   2.925 -0.3189 -0.0968 -0.1750
 4128SOL    HW116510   5.006   1.030   2.880 -0.5513  2.8418  2.2718
 4128SOL    HW216511   4.855   1.016   2.886 -0.4544 -0.5316 -0.2766
 4128SOL     MW16512   4.935   0.993   2.913 -0.3684  0.2402  0.1406
 4129SOL     OW16513   2.117   3.922   4.753 -0.0366  0.0248 -0.3051
 4129SOL    HW116514   2.202   3.961   4.772 -0.5328  1.3560 -0.6887
 4129SOL    HW216515   2.059   3.956   4.821 -0.4453 -0.2049 -0.5322
 4129SOL     MW16516   2.121   3.932   4.765 -0.1584  0.1731 -0.3873
 4130SOL     OW16517   1.980   5.373   3.103 -0.2516  0.2406  0.2979
 4130SOL    HW116518   1.992   5.420   3.185 -1.1383 -0.5887  0.9336
 4130SOL    HW216519   2.039   5.298   3.109  0.6533  0.8610 -0.4172
 4130SOL     MW16520   1.990   5.369   3.115 -0.2491  0.2125  0.2872
 4131SOL     OW16521   3.120   4.684   2.877 -0.3255 -0.1419 -0.0425
 4131SOL    HW116522   3.196   4.696   2.820 -0.1861 -1.3040 -0.1418
 4131SOL    HW216523   3.106   4.589   2.877  1.2274 -0.5419  3.8764
 4131SOL     MW16524   3.129   4.673   2.869 -0.0978 -0.3521  0.4716
 4132SOL     OW16525   4.875   0.241   1.934  0.0954  0.2728 -0.9833
 4132SOL    HW116526   4.920   0.185   1.871 -0.4227 -1.3166 -0.0078
 4132SOL    HW216527   4.785   0.209   1.935  0.3474 -0.6071  1.3971
 4132SOL     MW16528   4.869   0.229   1.926  0.0596 -0.0595 -0.5317
 4133SOL     OW16529   4.852   1.004   2.577  0.5231  0.3950 -0.1410
 4133SOL    HW116530   4.822   1.092   2.552  0.5120  0.4260 -0.0212
 4133SOL    HW216531   4.804   0.945   2.519 -1.5661  0.2768  1.5668
 4133SOL     MW16532   4.842   1.008   2.566  0.2405  0.3833  0.1050
 4134SOL     OW16533   4.177   0.112   1.408 -0.1299  0.1216 -0.1355
 4134SOL    HW116534   4.147   0.059   1.335 -0.2328  0.2505 -0.1866
 4134SOL    HW216535   4.161   0.058   1.486  0.2208 -0.1211 -0.2293
 4134SOL     MW16536   4.171   0.098   1.409 -0.0966  0.1063 -0.1550
 4135SOL     OW16537   3.973   2.296   0.096 -0.0721 -0.2908  0.0729
 4135SOL    HW116538   3.902   2.261   0.043  0.5024 -0.9693 -0.2667
 4135SOL    HW216539   4.017   2.218   0.132  0.8767  0.0850 -0.2333
 4135SOL     MW16540   3.970   2.281   0.094  0.1329 -0.3315 -0.0140
 4136SOL     OW16541   3.084   3.327   4.288 -0.2169 -0.2623  0.7478
 4136SOL    HW116542   3.125   3.383   4.222 -3.5164 -0.0599 -1.3848
 4136SOL    HW216543   3.132   3.244   4.283  0.5361  0.2325 -0.8847
 4136SOL     MW16544   3.096   3.323   4.279 -0.5596 -0.1685  0.2411
 4137SOL     OW16545   1.101   4.858   3.430 -0.3795 -0.3385  0.2650
 4137SOL    HW116546   1.194   4.868   3.449 -0.4317  1.2527 -0.2127
 4137SOL    HW216547   1.059   4.862   3.516 -0.0006 -1.4120  0.5151
 4137SOL     MW16548   1.108   4.860   3.445 -0.3355 -0.2688  0.2344
 4138SOL     OW16549   3.881   0.289   0.396 -0.0590  0.7534 -0.0111
 4138SOL    HW116550   3.924   0.372   0.373 -0.7403  1.0309 -0.3200
 4138SOL    HW216551   3.858   0.250   0.311 -0.1131  0.4452  0.1459
 4138SOL     MW16552   3.884   0.295   0.381 -0.1580  0.7493 -0.0315
 4139SOL     OW16553   2.714   2.606   4.139  0.2269 -0.2207  0.1058
 4139SOL    HW116554   2.731   2.649   4.055 -0.5555 -0.3475 -0.1214
 4139SOL    HW216555   2.625   2.633   4.163  0.2220 -0.6594  0.6034
 4139SOL     MW16556   2.704   2.615   4.131  0.1209 -0.2968  0.1422
 4140SOL     OW16557   4.327   0.234   0.954 -0.3291 -0.1695 -0.0763
 4140SOL    HW116558   4.419   0.219   0.975  0.7114  3.1088 -1.6181
 4140SOL    HW216559   4.312   0.326   0.977 -3.1620 -0.5281 -0.1455
 4140SOL     MW16560   4.338   0.245   0.960 -0.5703  0.2234 -0.2931
 4141SOL     OW16561   2.606   1.978   2.297 -0.1382 -0.3121  0.2245
 4141SOL    HW116562   2.619   2.072   2.311 -1.3458 -0.0465 -0.3418
 4141SOL    HW216563   2.663   1.936   2.361 -1.1351  0.8149  1.9203
 4141SOL     MW16564   2.616   1.985   2.307 -0.4349 -0.1247  0.3765
 4142SOL     OW16565   1.656   1.259   1.430  0.0267  0.7006 -0.6166
 4142SOL    HW116566   1.574   1.290   1.468  0.8583  3.7066 -1.0264
 4142SOL    HW216567   1.712   1.336   1.425  2.7400 -1.1082 -0.8763
 4142SOL     MW16568   1.653   1.273   1.434  0.5038  0.8617 -0.7067
 4143SOL     OW16569   3.865   4.071   5.063 -0.2449  0.1553 -0.3088
 4143SOL    HW116570   3.919   4.091   4.987 -1.0099 -1.1244 -1.2256
 4143SOL    HW216571   3.885   3.980   5.084  0.3549  0.6385  1.3892
 4143SOL     MW16572   3.875   4.062   5.055 -0.2671  0.0481 -0.2037
 4144SOL     OW16573   3.638   3.855   1.853 -0.0720  0.8493 -0.1463
 4144SOL    HW116574   3.667   3.768   1.825 -1.1996  0.4801 -0.1917
 4144SOL    HW216575   3.664   3.912   1.781  1.5969  0.7516  0.3206
 4144SOL     MW16576   3.646   3.851   1.840  0.0009  0.7865 -0.0896
 4145SOL     OW16577   5.150   5.108   0.070  0.0809 -0.0114 -0.4040
 4145SOL    HW116578   5.202   5.173   0.117  3.0309 -1.2910 -1.7023
 4145SOL    HW216579   5.127   5.043   0.137  0.6542  0.2879  0.0921
 4145SOL     MW16580   5.154   5.108   0.085  0.5551 -0.1433 -0.5120
 4146SOL     OW16581   1.427   0.200   2.634 -0.1202 -0.0207  0.4937
 4146SOL    HW116582   1.386   0.116   2.613 -1.6532  0.6142  0.8353
 4146SOL    HW216583   1.438   0.198   2.730  0.2303  0.0093  0.4571
 4146SOL     MW16584   1.423   0.188   2.644 -0.2793  0.0688  0.5347
 4147SOL     OW16585   4.119   3.962   2.354 -0.1998 -0.5658 -0.4752
 4147SOL    HW116586   4.149   4.035   2.300  3.5404 -0.5067  1.3933
 4147SOL    HW216587   4.138   3.884   2.302  1.8545 -0.4303 -0.0169
 4147SOL     MW16588   4.125   3.962   2.340  0.5800 -0.5396 -0.1620
 4148SOL     OW16589   0.869   4.638   2.916  0.7021 -0.3654  0.3902
 4148SOL    HW116590   0.819   4.576   2.863  1.4818 -1.3698  0.7804
 4148SOL    HW216591   0.879   4.594   3.000  1.5508  0.1509  0.5706
 4148SOL     MW16592   0.864   4.624   2.920  0.9213 -0.4311  0.4670
 4149SOL     OW16593   3.839   1.901   3.172  0.3085 -0.1509 -0.0835
 4149SOL    HW116594   3.910   1.910   3.235 -0.0956 -2.8850  0.8730
 4149SOL    HW216595   3.767   1.951   3.211  0.4945 -0.6577  0.9530
 4149SOL     MW16596   3.839   1.909   3.186  0.2791 -0.5871  0.1847
 4150SOL     OW16597   0.253   1.924   0.913 -0.3993 -0.0466  0.1526
 4150SOL    HW116598   0.330   1.922   0.970  0.0196 -2.4691 -0.3956
 4150SOL    HW216599   0.288   1.920   0.824 -1.1497  0.1029 -0.1637
 4150SOL     MW16600   0.268   1.923   0.909 -0.4439 -0.3525  0.0363
 4151SOL     OW16601   0.827   0.182   3.543  0.0894  0.0817 -0.4626
 4151SOL    HW116602   0.885   0.135   3.483  0.3456 -0.5797  0.2947
 4151SOL    HW216603   0.864   0.271   3.547  1.0594 -0.3242 -0.0103
 4151SOL     MW16604   0.840   0.188   3.536  0.2544 -0.0619 -0.2998
 4152SOL     OW16605   1.773   5.119   2.512 -0.0758 -0.0321  0.0052
 4152SOL    HW116606   1.863   5.144   2.491  0.6929 -1.8488  0.8776
 4152SOL    HW216607   1.743   5.185   2.574 -0.6223  2.5428 -2.7891
 4152SOL     MW16608   1.781   5.131   2.518 -0.0459  0.0700 -0.2534
 4153SOL     OW16609   4.002   3.522   2.280  0.1083 -0.1750 -0.3167
 4153SOL    HW116610   4.042   3.438   2.303  0.2125 -0.2666 -0.8162
 4153SOL    HW216611   3.972   3.510   2.190  0.2131  0.3573 -0.4257
 4153SOL     MW16612   4.004   3.509   2.271  0.1364 -0.1157 -0.3986
 4154SOL     OW16613   1.040   4.636   0.837 -0.2229  0.4083 -0.2651
 4154SOL    HW116614   1.075   4.645   0.749  1.2924 -0.0901  0.2617
 4154SOL    HW216615   1.053   4.544   0.860 -1.8338  0.2135 -0.0016
 4154SOL     MW16616   1.046   4.625   0.829 -0.2358  0.3150 -0.1587
 4155SOL     OW16617   2.653   2.178   1.893  0.3837 -0.2882  0.0382
 4155SOL    HW116618   2.573   2.129   1.876 -0.0460 -0.1086  1.4179
 4155SOL    HW216619   2.639   2.263   1.853 -0.0084 -0.3506  0.0471
 4155SOL     MW16620   2.641   2.182   1.885  0.2731 -0.2724  0.2251
 4156SOL     OW16621   1.313   5.469   2.546 -0.0584  0.7387  0.0477
 4156SOL    HW116622   1.309   5.401   2.613 -0.1567  0.8409  0.1487
 4156SOL    HW216623   1.373   5.436   2.480  1.4665  1.4117  1.0577
 4156SOL     MW16624   1.320   5.456   2.546  0.1336  0.8430  0.1972
 4157SOL     OW16625   3.900   0.396   2.165 -0.1048 -0.0180  0.4459
 4157SOL    HW116626   3.957   0.472   2.155 -0.4558  0.1753 -0.1262
 4157SOL    HW216627   3.840   0.401   2.090 -0.8888 -0.2014  1.0419
 4157SOL     MW16628   3.899   0.407   2.154 -0.2576 -0.0167  0.4491
 4158SOL     OW16629   2.814   1.482   3.603 -0.0671  0.3398 -0.0630
 4158SOL    HW116630   2.783   1.480   3.513  1.5925  0.0569 -0.6614
 4158SOL    HW216631   2.864   1.563   3.610  0.2213  0.1259  0.4660
 4158SOL     MW16632   2.816   1.493   3.592  0.1950  0.2729 -0.0724
 4159SOL     OW16633   3.584   3.489   3.875 -0.2890  0.1525 -0.1716
 4159SOL    HW116634   3.540   3.516   3.795  0.7751  1.4715 -0.3364
 4159SOL    HW216635   3.588   3.568   3.929  2.1174  0.1876 -0.2880
 4159SOL     MW16636   3.578   3.503   3.872  0.1781  0.3348 -0.2095
 4160SOL     OW16637   0.974   1.650   1.816  0.0356  0.4404  0.4019
 4160SOL    HW116638   0.904   1.701   1.775  0.8656  0.8812 -0.5024
 4160SOL    HW216639   0.955   1.559   1.793 -0.4979  0.5038  0.5741
 4160SOL     MW16640   0.962   1.645   1.807  0.0755  0.5083  0.3034
 4161SOL     OW16641   1.194   4.039   3.308 -0.4329  0.4001 -0.4057
 4161SOL    HW116642   1.147   3.966   3.349  0.0253  0.5248  0.3574
 4161SOL    HW216643   1.144   4.116   3.335 -1.4804  0.3198 -1.9969
 4161SOL     MW16644   1.181   4.039   3.317 -0.5122  0.4061 -0.5171
 4162SOL     OW16645   5.020   0.698   2.955 -0.9710  0.2055  0.0631
 4162SOL    HW116646   5.111   0.715   2.978 -0.3512 -0.4066 -1.7157
 4162SOL    HW216647   4.982   0.785   2.940 -0.2532  0.4258 -0.5759
 4162SOL     MW16648   5.027   0.712   2.956 -0.7910  0.1527 -0.2623
 4163SOL     OW16649   5.271   5.278   3.987 -0.2624 -0.1800  0.6283
 4163SOL    HW116650   5.308   5.192   4.003 -1.7051 -0.8810  0.3220
 4163SOL    HW216651   5.199   5.285   4.049 -1.6717 -0.1951 -0.9433
 4163SOL     MW16652   5.267   5.268   3.997 -0.6462 -0.2763  0.3756
 4164SOL     OW16653   2.386   2.037   3.323  0.0960  0.6125  1.0246
 4164SOL    HW116654   2.292   2.054   3.313  0.0896  0.5087  0.8988
 4164SOL    HW216655   2.429   2.112   3.283  0.0693  0.2146  0.2250
 4164SOL     MW16656   2.379   2.049   3.317  0.0915  0.5450  0.9001
 4165SOL     OW16657   0.254   1.010   0.086 -0.8515 -0.2022 -0.2105
 4165SOL    HW116658   0.309   1.063   0.029 -0.5060  0.5019  0.7578
 4165SOL    HW216659   0.304   1.000   0.167 -1.6748 -0.4844  0.2808
 4165SOL     MW16660   0.268   1.016   0.089 -0.9158 -0.1455 -0.0140
 4166SOL     OW16661   1.079   3.182   2.716 -0.3365 -0.0975 -0.2853
 4166SOL    HW116662   1.039   3.097   2.735 -0.4209 -0.4531 -1.9516
 4166SOL    HW216663   1.153   3.162   2.659  1.4094  0.7049  1.5702
 4166SOL     MW16664   1.084   3.168   2.711 -0.1129 -0.0374 -0.2598
 4167SOL     OW16665   3.950   3.091   0.950  0.0853  0.2404 -0.0370
 4167SOL    HW116666   4.015   3.062   0.886  1.1236  0.7851  0.7406
 4167SOL    HW216667   3.950   3.023   1.017 -0.6754 -0.1060 -0.3761
 4167SOL     MW16668   3.959   3.078   0.950  0.1226  0.2671  0.0220
 4168SOL     OW16669   4.014   2.283   4.720  0.2968 -0.1980  0.3032
 4168SOL    HW116670   4.036   2.316   4.807  0.7701  2.3147 -0.6941
 4168SOL    HW216671   4.094   2.292   4.669 -0.7449  1.3841 -1.1922
 4168SOL     MW16672   4.028   2.289   4.725  0.2203  0.3531 -0.0323
 4169SOL     OW16673   4.306   1.728   1.429  0.5361 -0.5067 -0.5950
 4169SOL    HW116674   4.250   1.764   1.360  0.6448  1.2590  0.1741
 4169SOL    HW216675   4.255   1.657   1.468 -0.1368 -0.5360 -1.5181
 4169SOL     MW16676   4.291   1.723   1.425  0.4602 -0.2730 -0.6157
 4170SOL     OW16677   2.315   2.038   0.890  0.0851 -0.4525 -0.2093
 4170SOL    HW116678   2.407   2.053   0.911  0.4129 -0.6330 -1.4646
 4170SOL    HW216679   2.276   2.126   0.889  0.7856 -0.1100 -2.0221
 4170SOL     MW16680   2.322   2.052   0.893  0.2235 -0.4307 -0.6222
 4171SOL     OW16681   3.913   5.462   2.921  0.4950  0.1699 -0.3343
 4171SOL    HW116682   3.893   5.479   2.829  0.4166 -1.2106 -0.5921
 4171SOL    HW216683   3.872   5.378   2.939  1.2908 -0.0071  0.7126
 4171SOL     MW16684   3.905   5.453   2.911  0.5915 -0.0397 -0.2281
 4172SOL     OW16685   3.714   3.588   1.466 -0.2980 -0.3187  0.5782
 4172SOL    HW116686   3.692   3.645   1.392  0.3285  1.0592  1.4092
 4172SOL    HW216687   3.765   3.518   1.427  0.9724  0.9661 -0.1908
 4172SOL     MW16688   3.718   3.587   1.451 -0.0427  0.0396  0.5866
 4173SOL     OW16689   0.354   4.458   4.537  0.0437  0.0353  0.3830
 4173SOL    HW116690   0.294   4.484   4.607 -1.2592  1.8355 -1.2975
 4173SOL    HW216691   0.330   4.514   4.463  1.2701 -1.8675 -1.5660
 4173SOL     MW16692   0.343   4.469   4.537  0.0334  0.0215 -0.1055
 4174SOL     OW16693   0.910   4.841   4.566  0.0585 -0.1688 -0.3048
 4174SOL    HW116694   0.932   4.770   4.627 -0.0796  0.3326  0.3389
 4174SOL    HW216695   0.947   4.813   4.482 -0.2293 -1.1279 -0.1228
 4174SOL     MW16696   0.918   4.828   4.563  0.0012 -0.2304 -0.1937
 4175SOL     OW16697   0.339   1.383   0.899  0.4480 -0.2341  0.3777
 4175SOL    HW116698   0.401   1.452   0.875  0.0941 -0.2325 -0.5693
 4175SOL    HW216699   0.393   1.305   0.910  0.6362 -0.2036 -0.3192
 4175SOL     MW16700   0.355   1.382   0.897  0.4257 -0.2298  0.1565
 4176SOL     OW16701   3.815   4.223   3.431 -0.4870  0.0351  0.2693
 4176SOL    HW116702   3.739   4.186   3.388  0.1271 -1.0062  0.0551
 4176SOL    HW216703   3.789   4.313   3.453 -1.7640 -0.3092  0.2136
 4176SOL     MW16704   3.801   4.230   3.428 -0.5762 -0.1514  0.2330
 4177SOL     OW16705   4.073   3.453   1.334 -0.0203  0.1708 -0.1274
 4177SOL    HW116706   3.984   3.422   1.348 -0.2910  0.4556 -1.1746
 4177SOL    HW216707   4.129   3.380   1.361 -0.5530  0.0111  0.5825
 4177SOL     MW16708   4.069   3.439   1.340 -0.1284  0.1877 -0.1728
 4178SOL     OW16709   1.737   0.080   2.833 -0.4190 -0.4022 -0.0233
 4178SOL    HW116710   1.827   0.051   2.847 -0.7149 -2.4997 -1.8686
 4178SOL    HW216711   1.745   0.172   2.807  1.2144 -0.6026 -0.3210
 4178SOL     MW16712   1.750   0.089   2.832 -0.2390 -0.7114 -0.3117
 4179SOL     OW16713   3.732   0.953   0.631 -0.1398 -0.1322  0.3219
 4179SOL    HW116714   3.730   0.966   0.536  0.0423 -0.3629  0.2861
 4179SOL    HW216715   3.668   1.015   0.665  0.4441  0.5948  0.1204
 4179SOL     MW16716   3.723   0.963   0.623 -0.0367 -0.0654  0.2899
 4180SOL     OW16717   1.468   5.121   0.910  0.5606  0.1614 -0.2357
 4180SOL    HW116718   1.445   5.179   0.837  1.2509  0.6535 -0.0744
 4180SOL    HW216719   1.522   5.054   0.870  0.4709  0.1107 -0.2728
 4180SOL     MW16720   1.472   5.120   0.895  0.6415  0.2208 -0.2190
 4181SOL     OW16721   5.150   5.019   4.236 -0.6850  0.2384  0.5828
 4181SOL    HW116722   5.186   4.995   4.322  0.6569  0.1554  0.0300
 4181SOL    HW216723   5.226   5.018   4.178 -1.9561 -2.6898 -1.2773
 4181SOL     MW16724   5.165   5.015   4.240 -0.6755 -0.1668  0.2580
 4182SOL     OW16725   0.027   2.393   0.261 -0.3679  0.3470 -0.0358
 4182SOL    HW116726   0.104   2.403   0.318  1.8628 -0.1510 -2.7417
 4182SOL    HW216727  -0.012   2.481   0.260  0.2644  0.6745  1.2400
 4182SOL     MW16728   0.032   2.406   0.269  0.0174  0.3241 -0.2283
 4183SOL     OW16729   1.682   2.898   2.847 -0.8322 -0.5456  0.4538
 4183SOL    HW116730   1.640   2.905   2.933 -1.3332  2.3173  0.1016
 4183SOL    HW216731   1.623   2.946   2.789  0.8226 -0.0890 -0.9263
 4183SOL     MW16732   1.668   2.905   2.851 -0.6769 -0.0989  0.2207
 4184SOL     OW16733   1.741   2.589   5.066 -0.5361 -0.2038 -0.0410
 4184SOL    HW116734   1.760   2.644   4.989  1.9645 -0.0097  0.6452
 4184SOL    HW216735   1.653   2.617   5.093 -0.0278  2.3017 -0.7129
 4184SOL     MW16736   1.731   2.600   5.059 -0.1312  0.1595 -0.0391
 4185SOL     OW16737   2.149   2.290   4.531 -0.1233 -0.4810  0.3111
 4185SOL    HW116738   2.162   2.385   4.534  0.8220 -0.5901 -0.0288
 4185SOL    HW216739   2.171   2.265   4.442  0.2250 -1.1011  0.5623
 4185SOL     MW16740   2.154   2.300   4.520  0.0508 -0.5791  0.2992
 4186SOL     OW16741   3.913   1.059   4.357 -0.0535 -0.1795 -0.0614
 4186SOL    HW116742   3.833   1.058   4.409  0.9148  1.8531  1.5943
 4186SOL    HW216743   3.917   1.147   4.321  1.1226 -0.4457 -0.6331
 4186SOL     MW16744   3.903   1.071   4.359  0.2351  0.0582  0.0845
 4187SOL     OW16745   0.164   0.952   0.768 -0.3391  0.1652  0.3254
 4187SOL    HW116746   0.254   0.977   0.747 -0.3753  1.2797  1.3578
 4187SOL    HW216747   0.164   0.857   0.764  0.7866  0.1603 -0.0739
 4187SOL     MW16748   0.176   0.943   0.765 -0.1924  0.3146  0.4106
 4188SOL     OW16749   5.521   2.796   0.843  0.1874  0.2487 -0.2718
 4188SOL    HW116750   5.544   2.708   0.873  2.2743  0.1658 -1.9314
 4188SOL    HW216751   5.432   2.809   0.875  0.2486 -1.9885  1.0262
 4188SOL     MW16752   5.512   2.785   0.852  0.4765 -0.0635 -0.3205
 4189SOL     OW16753   2.456   5.383   2.228  0.0460  0.3891  0.0491
 4189SOL    HW116754   2.550   5.391   2.245  0.7765 -1.5236 -2.5005
 4189SOL    HW216755   2.435   5.292   2.251 -0.7270  0.2165 -1.2328
 4189SOL     MW16756   2.466   5.372   2.233  0.0403  0.1084 -0.4665
 4190SOL     OW16757   2.003   1.566   4.293  0.0136  0.5242  0.0745
 4190SOL    HW116758   2.054   1.489   4.264 -0.2953  0.5488 -0.5646
 4190SOL    HW216759   2.047   1.640   4.251  0.3603  0.7042  0.7583
 4190SOL     MW16760   2.016   1.565   4.283  0.0187  0.5517  0.0805
 4191SOL     OW16761   4.731   0.510   4.240 -0.4853  0.0578  0.1351
 4191SOL    HW116762   4.774   0.426   4.258 -0.5859 -0.4348 -1.7462
 4191SOL    HW216763   4.655   0.510   4.299 -0.7532 -1.3994 -0.1697
 4191SOL     MW16764   4.726   0.498   4.250 -0.5349 -0.2046 -0.1591
 4192SOL     OW16765   1.724   3.219   4.350 -0.6281  0.3250 -0.1956
 4192SOL    HW116766   1.741   3.249   4.261 -1.3843  0.2771 -0.3642
 4192SOL    HW216767   1.693   3.296   4.396 -0.9093  0.1951 -0.1652
 4192SOL     MW16768   1.722   3.233   4.344 -0.7677  0.3010 -0.2142
 4193SOL     OW16769   2.254   0.971   4.146 -0.6399 -0.5704  1.0541
 4193SOL    HW116770   2.181   1.032   4.149 -0.7462 -0.6554  0.2630
 4193SOL    HW216771   2.226   0.901   4.087  0.4850 -0.0477 -0.1568
 4193SOL     MW16772   2.241   0.970   4.138 -0.5028 -0.5115  0.7847
 4194SOL     OW16773   1.300   5.064   2.221 -0.0531  0.4861  0.3594
 4194SOL    HW116774   1.391   5.092   2.217  0.0027  0.3056  0.3376
 4194SOL    HW216775   1.281   5.056   2.314  1.2976 -3.7127  0.4909
 4194SOL     MW16776   1.309   5.067   2.233  0.1362 -0.1033  0.3742
 4195SOL     OW16777   0.865   4.859   3.916  0.0307 -0.3374  0.2211
 4195SOL    HW116778   0.869   4.948   3.950 -1.2960 -0.4588  0.7763
 4195SOL    HW216779   0.883   4.803   3.992  1.9675 -0.5637 -0.3456
 4195SOL     MW16780   0.868   4.863   3.931  0.1128 -0.3842  0.2195
 4196SOL     OW16781   4.586   0.385   2.347  0.5619  0.7461 -0.1936
 4196SOL    HW116782   4.645   0.402   2.421  2.6587 -1.2104 -1.2801
 4196SOL    HW216783   4.576   0.290   2.346 -2.0555  0.9680 -0.5522
 4196SOL     MW16784   4.593   0.374   2.357  0.4918  0.5127 -0.3881
 4197SOL     OW16785   5.173   4.292   3.335  0.6499 -0.2148  0.5312
 4197SOL    HW116786   5.230   4.256   3.403  0.6201 -2.3352 -0.4748
 4197SOL    HW216787   5.085   4.264   3.361  0.3221  1.0613  0.8614
 4197SOL     MW16788   5.169   4.283   3.348  0.6018 -0.3284  0.4402
 4198SOL     OW16789   2.910   4.195   3.225 -0.7205  0.3294  0.4048
 4198SOL    HW116790   2.910   4.126   3.291 -0.1324  0.8928  1.0129
 4198SOL    HW216791   2.881   4.273   3.272 -0.6332  0.6575 -0.0841
 4198SOL     MW16792   2.906   4.196   3.240 -0.6296  0.4494  0.4209
 4199SOL     OW16793   0.292   4.850   2.049 -0.3974  0.5040  0.0318
 4199SOL    HW116794   0.344   4.809   1.980 -1.0903  0.3373 -0.4015
 4199SOL    HW216795   0.356   4.895   2.104  0.1153  1.1304 -1.0475
 4199SOL     MW16796   0.307   4.851   2.047 -0.4217  0.5659 -0.1717
 4200SOL     OW16797   2.636   3.376   1.867  0.0925  0.3009 -0.0410
 4200SOL    HW116798   2.688   3.336   1.796  0.1156 -0.3269  0.3161
 4200SOL    HW216799   2.548   3.382   1.831 -0.0054 -0.4813  0.0366
 4200SOL     MW16800   2.631   3.371   1.853  0.0824  0.1111  0.0175
 4201SOL     OW16801   3.459   1.058   2.448 -0.0467 -0.0042  0.4161
 4201SOL    HW116802   3.414   1.054   2.533  0.5258 -0.4715  0.7042
 4201SOL    HW216803   3.545   1.096   2.468 -0.1878  0.5884 -0.0832
 4201SOL     MW16804   3.464   1.062   2.462  0.0113  0.0127  0.3877
 4202SOL     OW16805   1.499   5.025   0.049  0.2538 -0.0271  0.3792
 4202SOL    HW116806   1.571   5.072   0.092 -1.4102  2.6669  0.4789
 4202SOL    HW216807   1.440   5.002   0.121  0.5964 -1.5106  0.2098
 4202SOL     MW16808   1.501   5.028   0.065  0.0760  0.1358  0.3698
 4203SOL     OW16809   2.905   4.235   4.086  0.2846  0.4868 -0.4531
 4203SOL    HW116810   2.984   4.202   4.130 -0.7544 -0.7606  0.5402
 4203SOL    HW216811   2.887   4.171   4.017 -1.2712 -0.6420  0.9499
 4203SOL     MW16812   2.914   4.222   4.082 -0.0646  0.1670 -0.1306
 4204SOL     OW16813   0.200   3.173   2.811 -0.1200  0.5780 -0.0680
 4204SOL    HW116814   0.231   3.148   2.725  0.4109 -0.7803  0.4967
 4204SOL    HW216815   0.119   3.222   2.794 -0.0990  0.2029 -1.3221
 4204SOL     MW16816   0.193   3.176   2.797 -0.0457  0.3448 -0.1608
 4205SOL     OW16817   4.989   0.669   1.803 -0.3668  0.1830 -0.4362
 4205SOL    HW116818   4.897   0.687   1.782 -0.1037 -0.1205 -1.9932
 4205SOL    HW216819   5.029   0.755   1.813 -0.5002  0.3581 -1.3354
 4205SOL     MW16820   4.982   0.683   1.801 -0.3493  0.1657 -0.7667
 4206SOL     OW16821   0.189   1.635   0.983 -0.0436  0.0480 -0.8075
 4206SOL    HW116822   0.232   1.566   0.932  1.2718  0.3526 -0.1599
 4206SOL    HW216823   0.221   1.716   0.943  0.5900  0.2833  0.1559
 4206SOL     MW16824   0.199   1.637   0.971  0.2187  0.1206 -0.5907
 4207SOL     OW16825   2.396   1.554   3.865 -0.1915  0.4155  0.2824
 4207SOL    HW116826   2.480   1.598   3.880 -0.5715  1.5633 -0.7736
 4207SOL    HW216827   2.334   1.625   3.848 -1.2008 -0.4569  0.2085
 4207SOL     MW16828   2.399   1.570   3.864 -0.3784  0.4525  0.1303
 4208SOL     OW16829   2.134   4.829   1.396  0.1592  0.0251  0.2392
 4208SOL    HW116830   2.105   4.910   1.439 -0.5866  1.5108 -2.7527
 4208SOL    HW216831   2.063   4.768   1.409  0.3382  0.1122  1.7943
 4208SOL     MW16832   2.121   4.832   1.403  0.0829  0.2367  0.0459
 4209SOL     OW16833   3.637   2.284   4.186 -0.0782 -0.5079 -0.2747
 4209SOL    HW116834   3.690   2.282   4.106  0.5217 -0.0192  0.0973
 4209SOL    HW216835   3.550   2.308   4.157  0.5201  1.4237 -0.6039
 4209SOL     MW16836   3.633   2.287   4.172  0.0831 -0.1822 -0.2689
 4210SOL     OW16837   1.611   2.767   3.540  0.1128  0.5749 -0.3540
 4210SOL    HW116838   1.527   2.742   3.580  0.5954  0.2067  0.4437
 4210SOL    HW216839   1.674   2.706   3.578  1.0924  2.1175  0.5675
 4210SOL     MW16840   1.608   2.755   3.550  0.3096  0.7330 -0.1226
 4211SOL     OW16841   2.700   1.028   1.320  0.3001 -0.4516  0.5835
 4211SOL    HW116842   2.756   1.093   1.362 -0.7323 -0.1559  1.5347
 4211SOL    HW216843   2.761   0.961   1.289  1.1623 -0.2723  1.8214
 4211SOL     MW16844   2.716   1.028   1.321  0.2772 -0.3876  0.8781
 4212SOL     OW16845   1.475   3.500   4.996 -0.0735 -0.7904 -0.0720
 4212SOL    HW116846   1.539   3.457   4.939  1.8560  2.6692 -0.8175
 4212SOL    HW216847   1.392   3.496   4.948  0.2406 -2.7489 -0.4991
 4212SOL     MW16848   1.472   3.494   4.982  0.2284 -0.5884 -0.2298
 4213SOL     OW16849   1.553   4.587   4.009 -0.2962 -0.5518 -0.1562
 4213SOL    HW116850   1.477   4.643   3.992  0.8593  0.5725 -1.8253
 4213SOL    HW216851   1.537   4.553   4.097 -2.8249 -0.5151 -0.5121
 4213SOL     MW16852   1.541   4.590   4.019 -0.4810 -0.3955 -0.4287
 4214SOL     OW16853   2.141   0.858   0.778  0.1779  0.4909 -0.1708
 4214SOL    HW116854   2.226   0.817   0.792  0.9531  1.8256 -0.7968
 4214SOL    HW216855   2.153   0.949   0.807 -1.2913  0.4823  0.5492
 4214SOL     MW16856   2.154   0.865   0.784  0.0845  0.6694 -0.1581
 4215SOL     OW16857   0.323   2.103   1.786  0.0827 -0.0214 -0.2724
 4215SOL    HW116858   0.365   2.177   1.829 -0.3148  0.4950 -0.7610
 4215SOL    HW216859   0.266   2.065   1.853 -0.4878  0.7390 -0.3205
 4215SOL     MW16860   0.321   2.108   1.801 -0.0476  0.1504 -0.3446
 4216SOL     OW16861   1.486   2.270   3.828  0.2755  0.3867  0.2166
 4216SOL    HW116862   1.394   2.264   3.854  0.1564  1.0336 -0.0217
 4216SOL    HW216863   1.491   2.223   3.745 -0.1826  1.6535 -0.5619
 4216SOL     MW16864   1.474   2.263   3.820  0.1978  0.6443  0.0798
 4217SOL     OW16865   4.733   4.086   0.922 -0.9047  0.0765 -0.1847
 4217SOL    HW116866   4.774   4.018   0.976 -0.3261  0.4990 -0.0836
 4217SOL    HW216867   4.765   4.168   0.959 -1.4171  0.3995 -0.4544
 4217SOL     MW16868   4.742   4.088   0.935 -0.8958  0.1769 -0.2074
 4218SOL     OW16869   1.625   5.261   3.695 -0.2855  0.1555  0.5060
 4218SOL    HW116870   1.619   5.186   3.755  1.0656  0.3406  0.8890
 4218SOL    HW216871   1.708   5.303   3.717  0.3815  0.0855 -1.6724
 4218SOL     MW16872   1.635   5.256   3.706 -0.0139  0.1710  0.2644
 4219SOL     OW16873   2.284   4.152   2.844 -0.1026 -0.0419  0.2776
 4219SOL    HW116874   2.211   4.194   2.889 -1.3828 -2.1934  0.3650
 4219SOL    HW216875   2.357   4.214   2.853 -1.9810  2.3970 -0.2010
 4219SOL     MW16876   2.284   4.166   2.851 -0.5277 -0.0032  0.2249
 4220SOL     OW16877   0.672   2.836   3.921 -0.0655 -0.2608 -0.3982
 4220SOL    HW116878   0.667   2.932   3.921 -0.4192 -0.2072  2.1255
 4220SOL    HW216879   0.679   2.813   3.828  0.6478  2.2178 -1.0649
 4220SOL     MW16880   0.673   2.846   3.908 -0.0171  0.0800 -0.1483
 4221SOL     OW16881   1.209   2.041   4.353  0.1785 -0.5252  0.2554
 4221SOL    HW116882   1.124   2.081   4.373  0.2839  0.1992 -0.6693
 4221SOL    HW216883   1.187   1.954   4.320 -0.2737 -0.1188 -0.5787
 4221SOL     MW16884   1.194   2.035   4.351  0.1318 -0.3730  0.0187
 4222SOL     OW16885   1.779   0.599   2.007  0.2069  0.3691  0.1094
 4222SOL    HW116886   1.718   0.655   2.055  1.7155  2.3103 -0.1324
 4222SOL    HW216887   1.762   0.616   1.915  0.3719  0.0758  0.0197
 4222SOL     MW16888   1.769   0.609   2.001  0.4321  0.5909  0.0648
 4223SOL     OW16889   3.774   4.964   0.401  0.2071  0.1198 -0.4162
 4223SOL    HW116890   3.860   4.982   0.363  1.4581  0.6040  2.4108
 4223SOL    HW216891   3.730   5.049   0.402  0.6974  0.3775  0.3564
 4223SOL     MW16892   3.780   4.978   0.396  0.4415  0.2196  0.0683
 4224SOL     OW16893   1.409   0.594   5.275  0.3834  0.0866  0.2107
 4224SOL    HW116894   1.421   0.511   5.321 -0.4928 -0.5143 -0.6061
 4224SOL    HW216895   1.329   0.631   5.312 -0.3924 -0.4570 -0.8688
 4224SOL     MW16896   1.400   0.588   5.286  0.1611 -0.0675 -0.0445
 4225SOL     OW16897   5.414   4.219   1.902 -0.3378  0.0281 -0.1855
 4225SOL    HW116898   5.455   4.247   1.820  0.5459 -2.2406 -0.6192
 4225SOL    HW216899   5.323   4.247   1.895  0.1540  1.4974 -1.1070
 4225SOL     MW16900   5.408   4.226   1.890 -0.1527 -0.0795 -0.3678
 4226SOL     OW16901   0.331   0.658   4.594  0.1674 -0.0753  0.0360
 4226SOL    HW116902   0.259   0.711   4.626 -0.4196 -2.0107  2.1282
 4226SOL    HW216903   0.299   0.621   4.512 -0.0289  1.4121 -0.5901
 4226SOL     MW16904   0.317   0.660   4.587  0.0620 -0.1356  0.2333
 4227SOL     OW16905   2.586   2.457   0.647  0.2543  0.1113  0.0532
 4227SOL    HW116906   2.498   2.426   0.625 -0.8342  1.9120  1.5331
 4227SOL    HW216907   2.581   2.552   0.633  1.5772  0.3944  1.3483
 4227SOL     MW16908   2.573   2.466   0.642  0.2858  0.3917  0.4267
 4228SOL     OW16909   5.166   3.622   1.995 -0.1138 -0.1969 -0.3774
 4228SOL    HW116910   5.207   3.540   1.966 -0.7140 -0.8588  0.5799
 4228SOL    HW216911   5.239   3.680   2.013  0.3199 -0.4799 -1.1663
 4228SOL     MW16912   5.181   3.619   1.994 -0.1362 -0.3241 -0.3548
 4229SOL     OW16913   3.857   0.289   2.417 -0.0271 -0.1926 -0.0340
 4229SOL    HW116914   3.764   0.311   2.425 -0.2628 -1.0855 -0.1723
 4229SOL    HW216915   3.880   0.316   2.328  0.0591  0.7546  0.2661
 4229SOL     MW16916   3.847   0.295   2.406 -0.0472 -0.1853 -0.0122
 4230SOL     OW16917   1.530   2.172   2.327 -0.0355 -0.2174  0.3113
 4230SOL    HW116918   1.562   2.234   2.392  0.1466  1.5567 -1.3996
 4230SOL    HW216919   1.441   2.201   2.307  0.2008 -0.2260 -0.8205
 4230SOL     MW16920   1.522   2.184   2.333  0.0208  0.0202 -0.0712
 4231SOL     OW16921   2.772   3.619   3.838  0.4159 -0.5614  0.3966
 4231SOL    HW116922   2.753   3.640   3.929 -0.2039  2.1394 -0.2546
 4231SOL    HW216923   2.840   3.682   3.813 -1.7895  1.1697 -1.8495
 4231SOL     MW16924   2.778   3.630   3.847  0.0357  0.0351  0.0067
 4232SOL     OW16925   1.512   3.216   0.620  0.4985 -0.2448  0.2707
 4232SOL    HW116926   1.503   3.306   0.651  0.9917 -0.8727  2.4274
 4232SOL    HW216927   1.606   3.199   0.625  0.2966 -1.2261  1.0030
 4232SOL     MW16928   1.524   3.226   0.625  0.5377 -0.4614  0.6595
 4233SOL     OW16929   1.135   3.784   1.968 -0.6184  0.1123  0.2787
 4233SOL    HW116930   1.163   3.826   1.887  0.4702  1.5037  1.3449
 4233SOL    HW216931   1.167   3.694   1.961 -0.1255  0.3513 -0.6370
 4233SOL     MW16932   1.143   3.777   1.956 -0.4055  0.3317  0.2989
 4234SOL     OW16933   3.174   5.320   1.071  0.1587 -0.1265 -0.0107
 4234SOL    HW116934   3.145   5.380   1.140 -0.9651 -0.8776  0.1965
 4234SOL    HW216935   3.096   5.306   1.018 -0.6853 -4.0466  1.8893
 4234SOL     MW16936   3.160   5.326   1.073 -0.1061 -0.7552  0.2729
 4235SOL     OW16937   5.092   3.307   2.719 -0.3017  0.2906  0.0558
 4235SOL    HW116938   5.057   3.265   2.798 -0.5410  1.4985  0.6122
 4235SOL    HW216939   5.018   3.357   2.684  0.3248  1.3510  0.1937
 4235SOL     MW16940   5.077   3.308   2.725 -0.2496  0.5959  0.1492
 4236SOL     OW16941   0.173   1.636   4.977 -0.1274  0.1209  0.0573
 4236SOL    HW116942   0.211   1.691   4.908 -1.9960 -0.9447 -1.9957
 4236SOL    HW216943   0.128   1.697   5.035 -1.5460  0.9251 -1.7660
 4236SOL     MW16944   0.172   1.652   4.975 -0.5698  0.0857 -0.4644
 4237SOL     OW16945   2.085   2.578   4.008 -0.5441  0.1693 -0.0624
 4237SOL    HW116946   2.169   2.591   3.964 -1.1131 -1.0856 -1.5938
 4237SOL    HW216947   2.093   2.493   4.050 -0.3871  0.8982  1.4549
 4237SOL     MW16948   2.097   2.569   4.008 -0.5995  0.0985 -0.0643
 4238SOL     OW16949   3.424   3.272   3.793  0.6632  0.2423 -0.0863
 4238SOL    HW116950   3.496   3.328   3.822  1.6100 -1.4604  1.0361
 4238SOL    HW216951   3.347   3.310   3.835  1.3136  0.5692  0.8555
 4238SOL     MW16952   3.423   3.285   3.803  0.8781  0.0571  0.1915
 4239SOL     OW16953   4.119   2.397   4.953 -0.4128  0.1975 -0.1680
 4239SOL    HW116954   4.174   2.472   4.931 -0.3387 -0.1143 -1.1238
 4239SOL    HW216955   4.178   2.335   4.995 -0.3082  0.3625 -0.0708
 4239SOL     MW16956   4.134   2.399   4.956 -0.3887  0.1777 -0.2836
 4240SOL     OW16957   3.190   3.173   1.092  0.3944 -0.2093 -0.2209
 4240SOL    HW116958   3.284   3.179   1.072  0.9657 -1.5618  1.8159
 4240SOL    HW216959   3.182   3.097   1.149 -1.5510  1.4355  1.9054
 4240SOL     MW16960   3.202   3.164   1.097  0.2095 -0.1699  0.3393
 4241SOL     OW16961   1.465   0.815   4.532 -0.0497  0.5401  0.2247
 4241SOL    HW116962   1.402   0.852   4.470 -0.2312  0.6430  0.4684
 4241SOL    HW216963   1.474   0.724   4.506 -1.2374  0.1996  0.9375
 4241SOL     MW16964   1.458   0.808   4.520 -0.2339  0.5082  0.3534
 4242SOL     OW16965   4.440   4.067   4.604 -0.6832  0.0300 -0.5761
 4242SOL    HW116966   4.376   4.137   4.601 -0.5935  0.2846  1.7827
 4242SOL    HW216967   4.514   4.099   4.551 -0.7858  1.5568  0.1644
 4242SOL     MW16968   4.441   4.080   4.596 -0.6849  0.2697 -0.1590
 4243SOL     OW16969   4.206   2.858   1.989  0.3325  0.2873 -0.3112
 4243SOL    HW116970   4.284   2.907   1.966  1.2929 -1.2969 -0.5584
 4243SOL    HW216971   4.196   2.794   1.919 -0.0602 -0.7921  0.7074
 4243SOL     MW16972   4.215   2.856   1.977  0.4089 -0.0711 -0.2074
 4244SOL     OW16973   5.203   2.583   4.700  0.2739 -0.2249  0.5565
 4244SOL    HW116974   5.203   2.595   4.795 -0.8176 -0.5334  0.5998
 4244SOL    HW216975   5.295   2.591   4.675  0.3339  1.9894  1.3582
 4244SOL     MW16976   5.216   2.585   4.709  0.1351  0.0316  0.6702
 4245SOL     OW16977   1.592   4.871   1.707  0.1439  0.1445  0.5339
 4245SOL    HW116978   1.547   4.901   1.786 -3.0357  1.1029 -1.4359
 4245SOL    HW216979   1.562   4.931   1.638 -0.5023 -2.9468 -2.1502
 4245SOL     MW16980   1.582   4.883   1.708 -0.3710 -0.1426 -0.0924
 4246SOL     OW16981   4.940   5.296   4.441  0.3163  0.1005 -0.0252
 4246SOL    HW116982   4.876   5.242   4.395  1.0524 -0.6429 -0.2048
 4246SOL    HW216983   5.015   5.300   4.383  0.1910  1.5387 -0.1113
 4246SOL     MW16984   4.941   5.289   4.427  0.3985  0.1940 -0.0610
 4247SOL     OW16985   4.348   4.527   5.189  0.0362 -0.1676 -0.3102
 4247SOL    HW116986   4.325   4.513   5.281  0.7160  2.3662  0.3324
 4247SOL    HW216987   4.429   4.478   5.177  0.0536 -0.3605  0.5257
 4247SOL     MW16988   4.356   4.519   5.200  0.1300  0.1474 -0.1112
 4248SOL     OW16989   0.096   1.962   3.792 -0.8119 -0.2734  0.3234
 4248SOL    HW116990   0.042   1.950   3.871 -1.8900 -2.2610 -0.6503
 4248SOL    HW216991   0.041   2.015   3.734 -0.8332 -0.4887  0.1481
 4248SOL     MW16992   0.081   1.968   3.795 -0.9599 -0.5698  0.1688
 4249SOL     OW16993   4.732   1.102   3.276  0.1351 -0.0295 -0.0383
 4249SOL    HW116994   4.664   1.035   3.270  0.2351 -0.0036 -2.2115
 4249SOL    HW216995   4.812   1.059   3.245  0.3245  0.8970 -0.9118
 4249SOL     MW16996   4.734   1.087   3.271  0.1740  0.0987 -0.4483
 4250SOL     OW16997   1.503   5.367   2.348  0.5677  0.6810  0.1586
 4250SOL    HW116998   1.584   5.409   2.377  0.5741  0.3778  0.5926
 4250SOL    HW216999   1.524   5.274   2.344  0.3828  0.6544 -0.2130
 4250SOL     MW17000   1.517   5.360   2.352  0.5437  0.6366  0.1670
 4251SOL     OW17001   1.753   0.180   5.052 -0.0272  0.3176  0.7846
 4251SOL    HW117002   1.819   0.141   5.110  1.6348 -0.3318 -1.4184
 4251SOL    HW217003   1.742   0.116   4.981 -1.5896  1.3109  0.0622
 4251SOL     MW17004   1.760   0.166   5.050 -0.0138  0.3639  0.3909
 4252SOL     OW17005   4.975   2.464   1.461 -0.3856 -0.1839  0.0757
 4252SOL    HW117006   4.920   2.508   1.525 -0.3590 -0.9441  0.6279
 4252SOL    HW217007   4.983   2.374   1.493  0.5934 -0.2695 -0.3649
 4252SOL     MW17008   4.969   2.458   1.474 -0.2503 -0.2977  0.0907
 4253SOL     OW17009   1.014   1.384   1.662  0.2796  0.1572  0.3088
 4253SOL    HW117010   1.078   1.350   1.600  1.3348  0.3723  1.2288
 4253SOL    HW217011   0.937   1.329   1.651  1.1937 -1.1740  0.2792
 4253SOL     MW17012   1.012   1.372   1.652  0.5446  0.0070  0.4286
 4254SOL     OW17013   1.835   5.293   0.548  0.2798  0.2489 -0.4908
 4254SOL    HW117014   1.794   5.380   0.551  0.4622  0.3097  1.0059
 4254SOL    HW217015   1.872   5.281   0.635  0.6124 -1.1729 -0.8022
 4254SOL     MW17016   1.834   5.303   0.560  0.3491  0.0657 -0.3313
 4255SOL     OW17017   3.186   0.035   3.475  0.3944 -0.6160  0.0536
 4255SOL    HW117018   3.176   0.086   3.555 -1.8249 -2.2258  0.9241
 4255SOL    HW217019   3.209  -0.053   3.506 -2.3463 -1.7626 -0.8225
 4255SOL     MW17020   3.188   0.030   3.490 -0.2731 -0.9870  0.0529
 4256SOL     OW17021   4.696   0.815   2.450  0.4909 -0.3152 -0.0194
 4256SOL    HW117022   4.693   0.769   2.366 -1.1186 -2.8821  1.3065
 4256SOL    HW217023   4.728   0.750   2.512 -1.3515  0.4652  1.8932
 4256SOL     MW17024   4.700   0.800   2.447  0.0264 -0.5557  0.4164
 4257SOL     OW17025   0.819   1.706   3.555  0.5218  0.2184  0.1060
 4257SOL    HW117026   0.886   1.718   3.488 -0.3051  0.9032 -0.6328
 4257SOL    HW217027   0.750   1.767   3.530  0.0495  0.2427  1.4050
 4257SOL     MW17028   0.819   1.716   3.543  0.3470  0.3138  0.1814
 4258SOL     OW17029   4.077   0.038   0.039  0.0440  0.1146 -0.5995
 4258SOL    HW117030   4.166   0.021   0.069  0.1305  1.0260 -0.2901
 4258SOL    HW217031   4.040  -0.048   0.020  1.0668 -0.2578 -0.9468
 4258SOL     MW17032   4.084   0.024   0.040  0.1933  0.1871 -0.6046
 4259SOL     OW17033   3.008   4.073   0.964  0.6150 -0.0367  0.1784
 4259SOL    HW117034   3.020   4.167   0.974 -0.4950  0.1003  0.3205
 4259SOL    HW217035   3.048   4.052   0.879  0.3293  0.6598 -0.1304
 4259SOL     MW17036   3.015   4.083   0.954  0.4272  0.0755  0.1560
 4260SOL     OW17037   1.151   5.436   1.107  0.1213  0.2841  0.0177
 4260SOL    HW117038   1.114   5.431   1.196 -2.1419 -2.4832 -0.9274
 4260SOL    HW217039   1.213   5.364   1.104  0.5903  0.7066 -0.5083
 4260SOL     MW17040   1.154   5.426   1.119 -0.1201 -0.0315 -0.1803
 4261SOL     OW17041   0.622   1.262   2.105  0.1531 -0.3922 -0.0112
 4261SOL    HW117042   0.642   1.286   2.015 -2.0563 -1.8248 -0.9487
 4261SOL    HW217043   0.690   1.305   2.157  1.3976  0.5732 -2.3242
 4261SOL     MW17044   0.634   1.271   2.100  0.0233 -0.4550 -0.4486
 4262SOL     OW17045   3.365   4.386   2.034 -0.4707 -0.2992  0.3556
 4262SOL    HW117046   3.394   4.315   1.977 -1.3696 -0.9036  0.6387
 4262SOL    HW217047   3.356   4.346   2.120  1.6922  0.7917  1.1611
 4262SOL     MW17048   3.368   4.371   2.038 -0.3006 -0.2337  0.5021
 4263SOL     OW17049   3.553   2.149   2.012  0.1455 -0.4728  1.0843
 4263SOL    HW117050   3.628   2.094   2.037  1.4766 -0.5997 -2.5294
 4263SOL    HW217051   3.583   2.238   2.029  1.5712 -0.4695 -0.9668
 4263SOL     MW17052   3.567   2.153   2.017  0.5165 -0.4894  0.3220
 4264SOL     OW17053   3.352   0.105   4.200 -0.1677 -0.3491  0.4020
 4264SOL    HW117054   3.331   0.132   4.289  0.0013  0.4222  0.2171
 4264SOL    HW217055   3.282   0.044   4.177  0.8156 -2.0596  1.7134
 4264SOL     MW17056   3.340   0.101   4.209 -0.0127 -0.4755  0.5536
 4265SOL     OW17057   0.376   0.592   0.551 -0.5774  0.5715  0.2535
 4265SOL    HW117058   0.471   0.603   0.553  0.1394 -3.8279  0.3156
 4265SOL    HW217059   0.347   0.646   0.478  2.0598  1.4687 -0.2367
 4265SOL     MW17060   0.385   0.601   0.542 -0.1260  0.1002  0.1959
 4266SOL     OW17061   5.355   5.347   0.674 -0.6767 -0.1111 -0.4383
 4266SOL    HW117062   5.305   5.348   0.592  1.3781  0.0733 -1.7678
 4266SOL    HW217063   5.400   5.431   0.676  1.0100 -0.9640 -0.2705
 4266SOL     MW17064   5.354   5.358   0.663 -0.1732 -0.2010 -0.5947
 4267SOL     OW17065   4.544   2.005   5.168  0.1265  0.4955  0.0240
 4267SOL    HW117066   4.585   1.919   5.176 -0.4035  0.1902 -0.4842
 4267SOL    HW217067   4.610   2.066   5.200  0.0217 -0.2080  1.6860
 4267SOL     MW17068   4.559   2.002   5.173  0.0411  0.3597  0.1792
 4268SOL     OW17069   1.359   3.173   1.565 -0.2222 -0.0512 -0.2452
 4268SOL    HW117070   1.294   3.242   1.550  0.2957  0.7065  0.8029
 4268SOL    HW217071   1.308   3.097   1.593 -0.6536  0.6709  1.0066
 4268SOL     MW17072   1.344   3.172   1.567 -0.2106  0.1480  0.0643
 4269SOL     OW17073   5.193   5.359   4.835  0.3673 -0.1920 -0.2588
 4269SOL    HW117074   5.108   5.325   4.806  0.1228 -1.1700  1.4547
 4269SOL    HW217075   5.209   5.434   4.778 -1.4160 -0.2825 -0.9625
 4269SOL     MW17076   5.184   5.365   4.824  0.0944 -0.3358 -0.1229
 4270SOL     OW17077   5.410   2.634   0.607  0.1574  0.3053  0.5639
 4270SOL    HW117078   5.495   2.629   0.651 -0.0792 -0.3345  0.9601
 4270SOL    HW217079   5.405   2.552   0.557  0.1325  0.7209 -0.1255
 4270SOL     MW17080   5.421   2.622   0.606  0.1222  0.2751  0.5244
 4271SOL     OW17081   4.397   4.540   4.339  0.3496  0.1278 -0.0196
 4271SOL    HW117082   4.358   4.616   4.296  0.9613  0.6192  0.2869
 4271SOL    HW217083   4.327   4.507   4.396 -0.3169 -0.2656 -1.0351
 4271SOL     MW17084   4.382   4.546   4.341  0.3422  0.1410 -0.1150
 4272SOL     OW17085   3.704   0.682   3.060  0.2879 -0.1781 -0.1694
 4272SOL    HW117086   3.619   0.643   3.079  0.3735  0.0027  0.6418
 4272SOL    HW217087   3.766   0.610   3.066  0.4392  0.0338  1.2710
 4272SOL     MW17088   3.701   0.667   3.064  0.3198 -0.1253  0.1336
 4273SOL     OW17089   1.843   3.427   0.716 -0.5235 -0.5966  0.2699
 4273SOL    HW117090   1.831   3.492   0.647  1.2076 -1.1906 -0.6557
 4273SOL    HW217091   1.810   3.469   0.795 -0.3385  1.0186 -0.4740
 4273SOL     MW17092   1.837   3.441   0.717 -0.2656 -0.4592  0.0452
 4274SOL     OW17093   0.615   4.714   3.045 -0.1229  0.2499 -0.0148
 4274SOL    HW117094   0.704   4.684   3.024 -0.2025 -0.4471  0.5963
 4274SOL    HW217095   0.566   4.703   2.963  0.2723  0.3390 -0.2686
 4274SOL     MW17096   0.621   4.708   3.031 -0.0804  0.1681  0.0333
 4275SOL     OW17097   1.701   5.458   1.780 -0.2299 -0.0202 -0.1155
 4275SOL    HW117098   1.731   5.502   1.700  0.0831  0.8487  0.4563
 4275SOL    HW217099   1.616   5.421   1.757 -1.2856  2.2908 -0.1974
 4275SOL     MW17100   1.694   5.459   1.767 -0.3298  0.4078 -0.0496
 4276SOL     OW17101   1.950   1.890   4.867 -0.4068 -0.3125 -0.2933
 4276SOL    HW117102   1.926   1.844   4.948 -1.4037  1.9931  0.8160
 4276SOL    HW217103   1.882   1.956   4.856 -0.7057 -1.0078 -3.4819
 4276SOL     MW17104   1.937   1.893   4.877 -0.5812 -0.0958 -0.5732
 4277SOL     OW17105   1.375   4.207   4.623 -0.4092  0.2210 -0.0703
 4277SOL    HW117106   1.325   4.288   4.621 -1.6586 -0.4849  0.8970
 4277SOL    HW217107   1.310   4.139   4.603  0.7896 -0.4937 -1.8602
 4277SOL     MW17108   1.360   4.208   4.620 -0.4160  0.0299 -0.1810
 4278SOL     OW17109   5.136   2.571   2.239 -0.2626 -0.3212 -0.1897
 4278SOL    HW117110   5.089   2.641   2.193  1.2240  0.0241 -1.2781
 4278SOL    HW217111   5.155   2.607   2.325 -0.8746  0.0070 -0.1849
 4278SOL     MW17112   5.132   2.586   2.244 -0.1449 -0.2306 -0.3355
 4279SOL     OW17113   0.212   2.221   0.638  0.0668 -0.0364  0.2625
 4279SOL    HW117114   0.151   2.163   0.683 -0.5003  0.1730 -0.2293
 4279SOL    HW217115   0.288   2.225   0.696 -0.2238 -0.6105  0.6912
 4279SOL     MW17116   0.214   2.214   0.652 -0.0486 -0.0855  0.2540
 4280SOL     OW17117   5.042   3.976   3.598  0.2757  0.6539 -0.1976
 4280SOL    HW117118   5.050   3.925   3.518  1.0283  1.3456 -0.5791
 4280SOL    HW217119   5.042   3.912   3.669 -0.4127  0.0362 -0.7447
 4280SOL     MW17120   5.043   3.961   3.597  0.2843  0.6638 -0.3226
 4281SOL     OW17121   3.501   4.335   2.915  0.2827 -0.3667  0.1294
 4281SOL    HW117122   3.475   4.401   2.980 -1.6154 -0.4344 -0.5131
 4281SOL    HW217123   3.498   4.381   2.831 -2.5017 -1.5534 -0.5134
 4281SOL     MW17124   3.497   4.350   2.912 -0.3475 -0.5355 -0.0435
 4282SOL     OW17125   1.562   4.373   0.171 -0.2127  0.3761  0.1260
 4282SOL    HW117126   1.474   4.341   0.149  0.3217 -0.8500 -0.3536
 4282SOL    HW217127   1.568   4.458   0.128 -0.7932 -0.0038 -0.7483
 4282SOL     MW17128   1.551   4.380   0.162 -0.2189  0.1600 -0.0562
 4283SOL     OW17129   5.369   5.080   1.099  0.1132  0.3856 -0.2825
 4283SOL    HW117130   5.348   5.132   1.022 -0.8693  0.8394  0.2807
 4283SOL    HW217131   5.353   4.989   1.072 -0.2698  0.5428 -0.5909
 4283SOL     MW17132   5.364   5.075   1.085 -0.0706  0.4679 -0.2482
 4284SOL     OW17133   4.460   2.475   4.785  0.6199  0.0154  0.2319
 4284SOL    HW117134   4.476   2.480   4.690 -0.9097  1.6573  0.0002
 4284SOL    HW217135   4.381   2.528   4.798  0.5208 -0.5912  2.3761
 4284SOL     MW17136   4.451   2.483   4.774  0.4007  0.1547  0.4893
 4285SOL     OW17137   4.284   3.400   2.023 -0.1912 -0.3039  0.1790
 4285SOL    HW117138   4.324   3.475   2.067 -2.3154  1.6270 -0.9020
 4285SOL    HW217139   4.339   3.385   1.947 -0.3016  0.9375 -0.1768
 4285SOL     MW17140   4.297   3.408   2.019 -0.4920  0.1231 -0.0144
 4286SOL     OW17141   0.718   3.928   4.721  0.4161  0.1127 -0.0799
 4286SOL    HW117142   0.804   3.885   4.722  0.9368  1.1220 -0.1670
 4286SOL    HW217143   0.678   3.899   4.639 -0.1714 -1.9253  0.8541
 4286SOL     MW17144   0.724   3.918   4.710  0.4071 -0.0257  0.0341
 4287SOL     OW17145   1.961   0.913   3.312  0.5165  0.3542  0.6385
 4287SOL    HW117146   1.923   0.920   3.400 -0.2240 -1.2335  0.4671
 4287SOL    HW217147   1.900   0.858   3.264  1.6240  0.0688 -0.4817
 4287SOL     MW17148   1.948   0.907   3.318  0.5659  0.1021  0.4647
 4288SOL     OW17149   2.288   5.430   1.382 -0.8837 -0.2671  0.3344
 4288SOL    HW117150   2.307   5.354   1.327 -0.9815 -0.8310  1.0623
 4288SOL    HW217151   2.361   5.490   1.367 -1.7405  0.3657 -1.7226
 4288SOL     MW17152   2.300   5.428   1.372 -1.0121 -0.2578  0.1555
 4289SOL     OW17153   2.769   0.217   2.320  0.2512  0.2101 -0.4371
 4289SOL    HW117154   2.695   0.262   2.279  0.5529  0.1587 -1.0505
 4289SOL    HW217155   2.826   0.194   2.247 -0.1699 -1.6928 -0.2118
 4289SOL     MW17156   2.767   0.220   2.305  0.2351 -0.0529 -0.4893
 4290SOL     OW17157   3.441   0.131   1.906 -0.4025  0.7467 -0.0695
 4290SOL    HW117158   3.392   0.205   1.941 -3.3773 -0.7867 -0.6524
 4290SOL    HW217159   3.389   0.054   1.931  1.4379 -0.9950 -1.2645
 4290SOL     MW17160   3.427   0.130   1.914 -0.5552  0.3059 -0.3087
 4291SOL     OW17161   3.635   2.537   3.840 -0.6776  0.1678  0.5337
 4291SOL    HW117162   3.614   2.574   3.754 -0.0959 -2.1740 -0.6802
 4291SOL    HW217163   3.719   2.578   3.864  1.3947 -2.1579 -2.0685
 4291SOL     MW17164   3.644   2.548   3.832 -0.3205 -0.4604  0.0201
 4292SOL     OW17165   1.342   1.182   0.860 -0.3421  0.2344  0.2219
 4292SOL    HW117166   1.419   1.160   0.913 -0.7955 -0.0711  0.7774
 4292SOL    HW217167   1.306   1.260   0.902  0.9359  1.7887 -1.4052
 4292SOL     MW17168   1.348   1.190   0.873 -0.2311  0.4024  0.0777
 4293SOL     OW17169   5.307   2.004   2.581 -0.0246  0.5217 -0.9192
 4293SOL    HW117170   5.340   2.046   2.661  1.2432 -1.6047 -0.2386
 4293SOL    HW217171   5.213   1.997   2.595 -0.0227  1.5286 -0.2856
 4293SOL     MW17172   5.299   2.009   2.594  0.1463  0.3710 -0.7424
 4294SOL     OW17173   5.023   1.614   3.224  0.4987  0.1218  0.7362
 4294SOL    HW117174   5.066   1.539   3.183  0.8957  1.0793 -0.6832
 4294SOL    HW217175   5.028   1.596   3.318  0.6589 -1.5683  0.4379
 4294SOL     MW17176   5.030   1.602   3.231  0.5737  0.0232  0.5051
 4295SOL     OW17177   1.911   4.309   5.378 -0.4667 -0.3717 -0.3734
 4295SOL    HW117178   1.874   4.280   5.461 -0.7794  2.5422  0.6042
 4295SOL    HW217179   1.835   4.320   5.321 -0.6587  1.0851  0.1360
 4295SOL     MW17180   1.896   4.307   5.381 -0.5346  0.2165 -0.1733
 4296SOL     OW17181   0.548   2.315   2.507  0.0113  0.3597  0.1458
 4296SOL    HW117182   0.494   2.240   2.530  0.5902 -0.4520 -1.0007
 4296SOL    HW217183   0.552   2.312   2.411  2.9346 -0.2899  0.1716
 4296SOL     MW17184   0.541   2.304   2.497  0.4826  0.1630 -0.0051
 4297SOL     OW17185   0.910   1.018   0.390  0.0916 -0.1645 -0.3120
 4297SOL    HW117186   0.841   1.024   0.324 -0.8230  0.3614  0.6575
 4297SOL    HW217187   0.913   1.105   0.430  1.2688 -0.2081 -0.2681
 4297SOL     MW17188   0.901   1.030   0.387  0.1270 -0.0996 -0.1756
 4298SOL     OW17189   3.957   3.270   4.076 -0.0114 -0.2329  0.4322
 4298SOL    HW117190   4.018   3.298   4.007  0.8240 -2.3420  0.2564
 4298SOL    HW217191   3.974   3.331   4.148 -0.8572  1.9703 -1.1306
 4298SOL     MW17192   3.968   3.282   4.076 -0.0128 -0.2203  0.1982
 4299SOL     OW17193   1.159   1.954   0.881  0.1042  0.5922  0.0035
 4299SOL    HW117194   1.113   2.032   0.850  1.0767  0.9467 -0.5860
 4299SOL    HW217195   1.193   1.979   0.967 -0.5522  0.4189  0.3226
 4299SOL     MW17196   1.157   1.967   0.889  0.1468  0.6166 -0.0329
 4300SOL     OW17197   2.284   0.838   3.330 -0.5031  0.2591  0.5158
 4300SOL    HW117198   2.367   0.795   3.350 -0.8946 -0.7237  0.0973
 4300SOL    HW217199   2.256   0.876   3.413 -0.4694 -0.8804  1.0674
 4300SOL     MW17200   2.291   0.837   3.343 -0.5513 -0.0265  0.5337
 4301SOL     OW17201   4.376   0.149   4.269 -0.0842 -0.3537 -0.0220
 4301SOL    HW117202   4.350   0.237   4.240  0.2500 -0.5230 -0.8762
 4301SOL    HW217203   4.405   0.161   4.360 -0.6811  0.2939  0.0888
 4301SOL     MW17204   4.376   0.162   4.277 -0.1196 -0.2893 -0.1220
 4302SOL     OW17205   4.188   0.636   0.767 -0.3282  0.7547  0.0546
 4302SOL    HW117206   4.118   0.611   0.827 -0.4340  0.2276 -0.2789
 4302SOL    HW217207   4.203   0.557   0.714 -0.3074  1.2450 -0.6776
 4302SOL     MW17208   4.180   0.622   0.768 -0.3396  0.7498 -0.0888
 4303SOL     OW17209   1.867   4.260   3.303 -0.3280 -0.0354  0.0718
 4303SOL    HW117210   1.944   4.209   3.278 -0.6595 -0.1652 -0.6911
 4303SOL    HW217211   1.817   4.201   3.360  0.3120  0.1824  0.8782
 4303SOL     MW17212   1.871   4.245   3.308 -0.2865 -0.0235  0.0776
 4304SOL     OW17213   1.465   5.004   4.613 -0.0765 -0.5295  0.4760
 4304SOL    HW117214   1.482   5.087   4.568 -0.9950 -1.3088 -1.4203
 4304SOL    HW217215   1.544   4.951   4.597  0.3140 -0.2115  1.2886
 4304SOL     MW17216   1.478   5.008   4.605 -0.1476 -0.5916  0.3302
 4305SOL     OW17217   1.513   4.753   2.989 -0.0545  0.3457  0.0432
 4305SOL    HW117218   1.450   4.824   2.973 -0.1281 -0.2951 -3.3172
 4305SOL    HW217219   1.470   4.675   2.955  1.6430 -0.5398 -0.1739
 4305SOL     MW17220   1.499   4.752   2.982  0.1641  0.1403 -0.4382
 4306SOL     OW17221   3.396   2.209   2.375 -0.3459  0.4463 -0.0025
 4306SOL    HW117222   3.450   2.278   2.414 -0.5389  1.0609 -0.7853
 4306SOL    HW217223   3.323   2.198   2.436  0.0125  0.5065  0.4330
 4306SOL     MW17224   3.393   2.217   2.388 -0.3236  0.5371 -0.0492
 4307SOL     OW17225   0.662   5.413   2.173  0.0657 -0.6719 -0.2065
 4307SOL    HW117226   0.752   5.423   2.142  0.4149 -1.4316  0.5244
 4307SOL    HW217227   0.652   5.483   2.238 -0.9012  1.3892 -2.4167
 4307SOL     MW17228   0.673   5.424   2.178 -0.0174 -0.4967 -0.4056
 4308SOL     OW17229   1.989   4.195   5.105  0.2266 -0.2102  0.0357
 4308SOL    HW117230   1.986   4.226   5.196 -1.1829 -1.0302  0.2922
 4308SOL    HW217231   2.013   4.273   5.055 -1.0012  0.7791  0.8994
 4308SOL     MW17232   1.992   4.210   5.111 -0.1283 -0.1874  0.1864
 4309SOL     OW17233   2.990   2.016   2.402 -0.4277  0.0659 -0.0781
 4309SOL    HW117234   3.012   1.970   2.321  1.0566  0.1225  0.2748
 4309SOL    HW217235   2.924   1.960   2.444 -0.4528 -0.4844 -0.8320
 4309SOL     MW17236   2.984   2.002   2.397 -0.2314 -0.0005 -0.1321
 4310SOL     OW17237   5.082   1.288   4.678 -0.6513  0.2210  0.3230
 4310SOL    HW117238   5.150   1.225   4.704 -1.2721 -0.1002  1.2094
 4310SOL    HW217239   5.107   1.314   4.589 -0.7781 -1.8319 -0.3644
 4310SOL     MW17240   5.095   1.283   4.669 -0.7519 -0.0985  0.3498
 4311SOL     OW17241   2.667   4.425   5.472 -0.6138  0.0158 -0.1545
 4311SOL    HW117242   2.689   4.488   5.403 -0.4899  0.6677  0.4670
 4311SOL    HW217243   2.585   4.385   5.442 -0.7732  0.5785 -0.4966
 4311SOL     MW17244   2.659   4.428   5.459 -0.6186  0.1793 -0.1169
 4312SOL     OW17245   2.666   5.214   1.958  0.5873  0.0428  0.1165
 4312SOL    HW117246   2.676   5.186   2.049  0.7674 -0.4047 -0.0372
 4312SOL    HW217247   2.572   5.210   1.942  0.4602  1.0352  0.5630
 4312SOL     MW17248   2.655   5.210   1.968  0.5944  0.1161  0.1559
 4313SOL     OW17249   2.033   3.868   0.691  0.0757 -0.3523 -0.1544
 4313SOL    HW117250   2.012   3.960   0.701 -0.6033 -0.4625 -0.5668
 4313SOL    HW217251   2.083   3.846   0.770  0.6252  0.4702 -0.2651
 4313SOL     MW17252   2.037   3.877   0.703  0.0583 -0.2564 -0.2248
 4314SOL     OW17253   0.163   1.897   4.180  0.0039  0.0089  0.1671
 4314SOL    HW117254   0.130   1.948   4.254  0.5462 -1.0914  1.1998
 4314SOL    HW217255   0.086   1.881   4.126 -0.3367  1.1193  0.3108
 4314SOL     MW17256   0.148   1.902   4.183  0.0311  0.0103  0.3254
 4315SOL     OW17257   2.808   1.922   3.234  0.3121 -0.3620  0.2018
 4315SOL    HW117258   2.743   1.858   3.206  0.1708  0.2707 -0.9790
 4315SOL    HW217259   2.776   1.954   3.318 -1.1555  0.2677 -0.5703
 4315SOL     MW17260   2.795   1.918   3.242  0.0955 -0.1921 -0.0610
 4316SOL     OW17261   2.540   3.595   3.710  0.6400 -0.2896 -0.0681
 4316SOL    HW117262   2.506   3.514   3.749  0.7540  0.6614  2.1671
 4316SOL    HW217263   2.629   3.603   3.743  0.3962  1.0880  0.3442
 4316SOL     MW17264   2.547   3.585   3.720  0.6225  0.0238  0.2882
 4317SOL     OW17265   5.232   3.652   2.447  0.5111  0.2833  0.0579
 4317SOL    HW117266   5.226   3.680   2.538 -1.6169  0.4352 -0.0814
 4317SOL    HW217267   5.277   3.724   2.403 -0.3394  1.1935  0.6324
 4317SOL     MW17268   5.237   3.665   2.453  0.1102  0.4263  0.1165
 4318SOL     OW17269   0.288   2.066   1.525 -0.0405 -0.5234  0.3630
 4318SOL    HW117270   0.311   2.083   1.617  1.4542  0.0556 -0.0899
 4318SOL    HW217271   0.317   2.144   1.478  0.0959 -1.2135 -0.7317
 4318SOL     MW17272   0.295   2.079   1.531  0.1790 -0.5384  0.1547
 4319SOL     OW17273   2.000  -0.009   1.722 -0.1916 -0.0336 -0.3074
 4319SOL    HW117274   1.918   0.010   1.769 -0.2032 -0.2476 -0.2362
 4319SOL    HW217275   2.019   0.071   1.673  0.0226  0.3325  0.3575
 4319SOL     MW17276   1.991   0.004   1.722 -0.1643 -0.0131 -0.2083
 4320SOL     OW17277   1.053   2.456   4.468 -0.1663  0.0194 -0.0959
 4320SOL    HW117278   1.145   2.479   4.455  0.0099 -1.0930 -1.0801
 4320SOL    HW217279   1.015   2.532   4.511  1.2772  0.3820  0.6164
 4320SOL     MW17280   1.061   2.469   4.472  0.0517 -0.0815 -0.1325
 4321SOL     OW17281   4.741   4.200   4.846 -0.0239 -0.1969  0.6724
 4321SOL    HW117282   4.704   4.164   4.927  0.7473 -0.1372  1.0627
 4321SOL    HW217283   4.693   4.282   4.832 -0.7557 -0.6355  0.5926
 4321SOL     MW17284   4.730   4.206   4.855 -0.0186 -0.2479  0.7142
 4322SOL     OW17285   3.160   2.238   5.437  0.2267  0.5648  0.2046
 4322SOL    HW117286   3.097   2.193   5.381 -0.0676  0.5874  0.5142
 4322SOL    HW217287   3.242   2.191   5.423  0.4013  1.1786 -0.9928
 4322SOL     MW17288   3.162   2.225   5.428  0.2106  0.6504  0.0851
 4323SOL     OW17289   0.632   2.505   0.150  0.1497  0.3946  0.4094
 4323SOL    HW117290   0.548   2.503   0.106  0.5160  0.5008 -0.3011
 4323SOL    HW217291   0.621   2.445   0.225 -1.0546  1.6431  1.2720
 4323SOL     MW17292   0.619   2.496   0.154  0.0369  0.5770  0.4298
 4324SOL     OW17293   0.008   1.505   1.907  0.6041 -0.0236 -0.0154
 4324SOL    HW117294   0.092   1.541   1.879  0.3734  0.0803 -0.5943
 4324SOL    HW217295  -0.019   1.449   1.835  0.2972 -0.2639  0.2812
 4324SOL     MW17296   0.015   1.502   1.894  0.5318 -0.0420 -0.0534
 4325SOL     OW17297   2.040   0.684   0.131  0.1514 -0.3320  0.6291
 4325SOL    HW117298   2.100   0.757   0.144  1.1081 -0.9234 -0.3594
 4325SOL    HW217299   2.087   0.623   0.074 -1.7115 -0.3724 -0.9981
 4325SOL     MW17300   2.054   0.685   0.125  0.0294 -0.4170  0.2771
 4326SOL     OW17301   1.008   0.395   3.033  0.2950 -0.1602 -0.0608
 4326SOL    HW117302   0.912   0.403   3.037  0.3720  0.2960  1.4015
 4326SOL    HW217303   1.035   0.391   3.124  1.6031 -1.4417 -0.4726
 4326SOL     MW17304   0.999   0.396   3.045  0.4814 -0.2713  0.0805
 4327SOL     OW17305   2.060   5.485   2.478 -0.2330  0.1335  0.2520
 4327SOL    HW117306   2.029   5.573   2.498 -2.0130 -0.4417  0.2118
 4327SOL    HW217307   2.126   5.467   2.545  1.7198  2.2353 -0.9660
 4327SOL     MW17308   2.064   5.495   2.489 -0.2097  0.3389  0.0827
 4328SOL     OW17309   4.668   4.820   3.218  0.1177 -0.3253 -0.1084
 4328SOL    HW117310   4.725   4.768   3.276 -2.0081 -2.8048 -0.0787
 4328SOL    HW217311   4.684   4.910   3.245  2.1068 -1.0934  1.6287
 4328SOL     MW17312   4.678   4.825   3.229  0.0993 -0.7624  0.1294
 4329SOL     OW17313   3.319   1.071   2.682  0.2853 -0.0102 -0.3810
 4329SOL    HW117314   3.324   1.037   2.771  0.3107 -0.0246 -0.3878
 4329SOL    HW217315   3.256   1.014   2.638 -2.4239  2.0311  0.5416
 4329SOL     MW17316   3.311   1.059   2.688 -0.0759  0.2626 -0.2578
 4330SOL     OW17317   0.177   0.650   0.729  0.1037 -0.1053 -0.3696
 4330SOL    HW117318   0.236   0.626   0.658 -0.1063  0.8839 -0.8968
 4330SOL    HW217319   0.095   0.607   0.708 -0.1845  0.7821 -1.1532
 4330SOL     MW17320   0.174   0.641   0.717  0.0367  0.1472 -0.5460
 4331SOL     OW17321   5.140   4.569   2.814  0.5088 -0.1956  0.2234
 4331SOL    HW117322   5.127   4.521   2.731  0.4648 -0.8614  0.6070
 4331SOL    HW217323   5.080   4.526   2.875 -0.3881  1.1004  0.3002
 4331SOL     MW17324   5.130   4.556   2.811  0.3822 -0.1108  0.2854
 4332SOL     OW17325   0.912   0.014   4.068  0.1915 -0.6455  0.4141
 4332SOL    HW117326   0.980   0.056   4.121 -0.1623 -0.0901  0.4440
 4332SOL    HW217327   0.945   0.019   3.978 -0.2446  0.5553  0.2928
 4332SOL     MW17328   0.925   0.021   4.063  0.0852 -0.4092  0.4018
 4333SOL     OW17329   3.752   5.415   4.119 -0.0033  0.5073 -0.0713
 4333SOL    HW117330   3.796   5.337   4.154 -0.0982  0.6914  0.4715
 4333SOL    HW217331   3.804   5.489   4.152  0.6128  0.6560 -1.3252
 4333SOL     MW17332   3.765   5.414   4.128  0.0669  0.5521 -0.1670
 4334SOL     OW17333   5.197   5.435   5.107  0.5423  0.1185 -0.2295
 4334SOL    HW117334   5.191   5.415   5.013  1.0046 -0.9637 -0.0364
 4334SOL    HW217335   5.194   5.531   5.110  0.6620  0.1798 -1.3658
 4334SOL     MW17336   5.196   5.445   5.094  0.6206 -0.0189 -0.3565
 4335SOL     OW17337   1.494   3.246   0.347  0.5304  0.1179  0.3185
 4335SOL    HW117338   1.566   3.197   0.306  1.0498  0.5660  0.6728
 4335SOL    HW217339   1.499   3.223   0.439 -1.5231 -2.0053 -0.0090
 4335SOL     MW17340   1.504   3.237   0.354  0.3240 -0.1076  0.3221
 4336SOL     OW17341   2.582   1.486   0.037 -0.0388 -0.1364  0.1492
 4336SOL    HW117342   2.563   1.412  -0.020  0.3406 -0.0451 -0.0993
 4336SOL    HW217343   2.665   1.463   0.079  0.4217  0.4339 -0.4234
 4336SOL     MW17344   2.591   1.473   0.035  0.0743 -0.0474  0.0387
 4337SOL     OW17345   3.251   1.233   1.084 -0.0513  0.0340  0.0133
 4337SOL    HW117346   3.216   1.219   1.172 -0.5717 -1.6082 -0.4196
 4337SOL    HW217347   3.323   1.170   1.077 -0.9121 -0.8810 -1.1897
 4337SOL     MW17348   3.256   1.222   1.095 -0.2372 -0.3102 -0.2069
 4338SOL     OW17349   5.074   0.100   2.376 -0.1457 -0.2145 -0.2271
 4338SOL    HW117350   4.984   0.083   2.349  0.2031 -2.7211 -0.0624
 4338SOL    HW217351   5.077   0.077   2.468  0.1523  2.1925  0.4212
 4338SOL     MW17352   5.063   0.094   2.384 -0.0586 -0.2279 -0.1177
 4339SOL     OW17353   3.678   1.182   1.836  0.1786 -0.1045 -0.1962
 4339SOL    HW117354   3.686   1.218   1.925  0.8902  0.3803 -0.4424
 4339SOL    HW217355   3.625   1.246   1.789  0.3835 -0.0081 -0.2991
 4339SOL     MW17356   3.672   1.196   1.842  0.3019 -0.0263 -0.2432
 4340SOL     OW17357   0.305   4.115   3.887  0.1239  0.4095  0.1212
 4340SOL    HW117358   0.302   4.073   3.973 -0.1551  0.0614 -0.0572
 4340SOL    HW217359   0.390   4.159   3.885  0.4195 -0.1503  0.3064
 4340SOL     MW17360   0.316   4.116   3.898  0.1262  0.2873  0.1221
 4341SOL     OW17361   4.490   0.225   4.498 -0.5497 -0.3240  0.5270
 4341SOL    HW117362   4.568   0.170   4.489 -0.5249 -0.4022  1.2035
 4341SOL    HW217363   4.519   0.312   4.468 -0.5977 -0.6781 -0.5651
 4341SOL     MW17364   4.505   0.230   4.493 -0.5528 -0.3822  0.4711
 4342SOL     OW17365   2.575   0.230   0.749  0.7440  0.0488 -0.0599
 4342SOL    HW117366   2.652   0.181   0.778  1.4546  1.9523  1.4891
 4342SOL    HW217367   2.583   0.315   0.792 -1.2925  0.9564 -1.3259
 4342SOL     MW17368   2.587   0.235   0.759  0.5656  0.4271 -0.0218
 4343SOL     OW17369   4.727   2.632   3.750 -0.6588 -0.5017  0.6146
 4343SOL    HW117370   4.812   2.671   3.729 -0.5636 -0.5781  0.8501
 4343SOL    HW217371   4.669   2.707   3.764  0.0427 -0.3483  3.2472
 4343SOL     MW17372   4.731   2.647   3.749 -0.5516 -0.4913  1.0006
 4344SOL     OW17373   0.384   2.038   4.107 -0.1060  0.7182  0.0562
 4344SOL    HW117374   0.315   1.979   4.137  0.0573  0.2790 -0.4265
 4344SOL    HW217375   0.449   2.037   4.177 -0.6594  1.2650  0.5898
 4344SOL     MW17376   0.384   2.030   4.121 -0.1585  0.7327  0.0631
 4345SOL     OW17377   1.255   3.549   1.945  0.4480  0.0855 -0.4728
 4345SOL    HW117378   1.234   3.484   1.878 -0.9273  0.5612 -0.5450
 4345SOL    HW217379   1.349   3.565   1.935  0.2581  0.2381 -2.3920
 4345SOL     MW17380   1.265   3.542   1.935  0.2374  0.1701 -0.7408
 4346SOL     OW17381   4.692   0.815   5.085  0.1624  0.0763 -0.0099
 4346SOL    HW117382   4.697   0.739   5.027 -0.7195 -0.0557  0.0735
 4346SOL    HW217383   4.763   0.872   5.056  1.4476 -1.2042  0.5486
 4346SOL     MW17384   4.702   0.812   5.073  0.2167 -0.1138  0.0765
 4347SOL     OW17385   5.159   2.394   5.372 -0.2531 -0.1401  0.2064
 4347SOL    HW117386   5.085   2.454   5.381 -0.2881 -0.2324  0.5524
 4347SOL    HW217387   5.234   2.445   5.403  0.2545  0.7803 -2.3322
 4347SOL     MW17388   5.159   2.409   5.378 -0.1895 -0.0287 -0.0887
 4348SOL     OW17389   1.674   2.658   0.993  0.0787 -0.2774 -0.3643
 4348SOL    HW117390   1.648   2.749   1.008  1.8260  0.4878 -1.5077
 4348SOL    HW217391   1.691   2.623   1.080 -0.6601  0.4898  0.0989
 4348SOL     MW17392   1.673   2.666   1.007  0.2144 -0.0711 -0.4559
 4349SOL     OW17393   0.634   0.726   3.286 -0.0612 -0.7868 -0.4860
 4349SOL    HW117394   0.588   0.653   3.246  0.5204 -1.8071  0.6613
 4349SOL    HW217395   0.710   0.740   3.230  0.1464 -1.4518 -0.3675
 4349SOL     MW17396   0.638   0.718   3.273  0.0450 -1.0136 -0.3156
 4350SOL     OW17397   3.536   4.052   5.462 -0.0440  0.8005 -0.1847
 4350SOL    HW117398   3.445   4.069   5.483 -0.6728 -2.7256  0.6610
 4350SOL    HW217399   3.583   4.068   5.544  0.0270  1.9628 -0.4378
 4350SOL     MW17400   3.530   4.056   5.476 -0.1191  0.4823 -0.1050
 4351SOL     OW17401   4.721   1.726   4.889 -0.1235  0.6955 -0.2698
 4351SOL    HW117402   4.655   1.678   4.839  0.8950 -0.7621 -0.2762
 4351SOL    HW217403   4.768   1.659   4.939  1.7006  1.6048 -0.6563
 4351SOL     MW17404   4.719   1.711   4.889  0.2591  0.6217 -0.3227
 4352SOL     OW17405   4.720   4.178   0.447  0.3413 -0.5908  0.5447
 4352SOL    HW117406   4.647   4.136   0.493 -1.1183 -0.5793 -1.5968
 4352SOL    HW217407   4.702   4.161   0.355  2.1785  0.8819 -0.1353
 4352SOL     MW17408   4.707   4.170   0.441  0.3921 -0.3910  0.1650
 4353SOL     OW17409   3.728   1.965   2.071  0.2168 -0.0961 -0.0894
 4353SOL    HW117410   3.814   1.928   2.051  1.2940  1.1682  1.8431
 4353SOL    HW217411   3.692   1.906   2.137 -0.3174 -0.4793 -0.7106
 4353SOL     MW17412   3.735   1.952   2.077  0.2899  0.0225  0.0870
 4354SOL     OW17413   1.925   2.593   5.400 -0.2238  0.1941 -0.4547
 4354SOL    HW117414   1.892   2.660   5.340 -0.5806  0.1201 -0.3422
 4354SOL    HW217415   2.016   2.617   5.414  0.2097 -0.4723 -1.9584
 4354SOL     MW17416   1.933   2.606   5.394 -0.2135  0.0945 -0.6419
 4355SOL     OW17417   4.614   0.918   5.321 -0.5848 -0.3419 -0.0180
 4355SOL    HW117418   4.565   0.998   5.299 -2.0470 -1.1272  0.2378
 4355SOL    HW217419   4.644   0.884   5.237  1.5390  1.3231 -0.0290
 4355SOL     MW17420   4.611   0.924   5.307 -0.4957 -0.2235  0.0150
 4356SOL     OW17421   0.288   1.773   3.755  0.7719  0.3557 -0.3114
 4356SOL    HW117422   0.284   1.754   3.661  0.3424  1.1901 -0.4733
 4356SOL    HW217423   0.217   1.835   3.770 -1.0257 -1.8798  1.1235
 4356SOL     MW17424   0.278   1.779   3.744  0.4722  0.1671 -0.1401
 4357SOL     OW17425   2.736   0.493   1.543  0.5930 -0.3749 -0.9909
 4357SOL    HW117426   2.688   0.514   1.623  0.1689  0.6820 -1.5038
 4357SOL    HW217427   2.829   0.500   1.568  0.4625  0.1194 -0.6338
 4357SOL     MW17428   2.742   0.497   1.557  0.5183 -0.1661 -1.0119
 4358SOL     OW17429   5.018   1.448   0.903 -0.3137 -0.7828 -0.2949
 4358SOL    HW117430   4.954   1.426   0.835 -1.1928 -0.7490  0.4971
 4358SOL    HW217431   4.967   1.450   0.984  0.1163  2.0340  0.0033
 4358SOL     MW17432   5.002   1.445   0.905 -0.3741 -0.3992 -0.1482
 4359SOL     OW17433   1.982   1.160   1.764  0.0697 -0.5035  0.1892
 4359SOL    HW117434   1.891   1.159   1.735  0.1290 -0.3953 -0.0065
 4359SOL    HW217435   1.978   1.138   1.857 -0.2365  0.3842  0.4000
 4359SOL     MW17436   1.969   1.157   1.772  0.0364 -0.3695  0.1913
 4360SOL     OW17437   4.170   3.692   5.214 -0.0745  0.2604  0.1581
 4360SOL    HW117438   4.234   3.638   5.167 -0.1027 -0.0763  0.4988
 4360SOL    HW217439   4.213   3.776   5.225 -0.0400  0.3175 -0.4045
 4360SOL     MW17440   4.184   3.696   5.209 -0.0737  0.2228  0.1282
 4361SOL     OW17441   2.743   2.496   4.883  0.0860 -0.2074 -0.1702
 4361SOL    HW117442   2.800   2.574   4.884  2.0643 -1.4851 -2.0687
 4361SOL    HW217443   2.708   2.494   4.794  1.0323 -2.0852 -0.5446
 4361SOL     MW17444   2.746   2.507   4.871  0.4796 -0.6320 -0.4761
 4362SOL     OW17445   2.421   0.485   3.202 -0.0728 -0.1306 -0.5738
 4362SOL    HW117446   2.433   0.526   3.288 -1.4909 -1.5993  0.3572
 4362SOL    HW217447   2.464   0.400   3.209 -0.4610 -0.3892 -1.2332
 4362SOL     MW17448   2.429   0.479   3.214 -0.3159 -0.3631 -0.5372
 4363SOL     OW17449   1.995   1.316   0.470 -0.0174 -0.4453  0.1357
 4363SOL    HW117450   2.063   1.373   0.505 -1.0879  0.0684  1.4714
 4363SOL    HW217451   1.968   1.262   0.544  1.3012 -3.1176 -1.1870
 4363SOL     MW17452   2.001   1.316   0.485  0.0160 -0.7358  0.1375
 4364SOL     OW17453   3.837   1.499   4.574  0.7288  0.2506  0.1129
 4364SOL    HW117454   3.897   1.424   4.568  1.7017  0.7723  2.3821
 4364SOL    HW217455   3.891   1.570   4.610 -1.2772  0.6767  2.4941
 4364SOL     MW17456   3.853   1.498   4.578  0.5897  0.3782  0.7388
 4365SOL     OW17457   0.624   1.416   1.133 -0.4120 -0.2982  0.3891
 4365SOL    HW117458   0.599   1.344   1.075 -0.5124 -0.2659  0.3917
 4365SOL    HW217459   0.550   1.426   1.192 -0.6006  0.1175  0.0850
 4365SOL     MW17460   0.611   1.408   1.133 -0.4509 -0.2379  0.3485
 4366SOL     OW17461   4.647   0.060   2.070 -0.0943  0.2764  0.0691
 4366SOL    HW117462   4.601   0.132   2.026 -0.2483  0.7605  1.0005
 4366SOL    HW217463   4.585  -0.012   2.071 -0.2454  0.4056 -0.1263
 4366SOL     MW17464   4.633   0.060   2.064 -0.1353  0.3590  0.1682
 4367SOL     OW17465   2.451   2.604   1.207  0.2004 -0.3100  0.1649
 4367SOL    HW117466   2.461   2.528   1.150  1.2041 -0.8057  0.9614
 4367SOL    HW217467   2.523   2.596   1.270 -0.1032  0.9195  0.6995
 4367SOL     MW17468   2.462   2.593   1.208  0.2946 -0.2112  0.3440
 4368SOL     OW17469   5.147   1.672   1.201 -0.7692 -0.4560  0.2170
 4368SOL    HW117470   5.053   1.656   1.215 -0.8185 -0.6779 -0.3392
 4368SOL    HW217471   5.178   1.593   1.157 -0.4918 -0.0261 -0.3580
 4368SOL     MW17472   5.138   1.659   1.197 -0.7385 -0.4280  0.0647
 4369SOL     OW17473   1.160   0.629   4.964 -0.2281  0.2469 -0.1477
 4369SOL    HW117474   1.180   0.710   5.012  1.4362  0.0950 -0.5470
 4369SOL    HW217475   1.223   0.565   4.996  0.7620  0.0659 -2.3096
 4369SOL     MW17476   1.171   0.632   4.975  0.1291  0.2021 -0.4924
 4370SOL     OW17477   0.866   4.686   1.967  0.5822 -0.7109  0.2798
 4370SOL    HW117478   0.785   4.705   2.015  0.6843 -1.1433  0.6374
 4370SOL    HW217479   0.837   4.666   1.878  0.3436 -0.3625  0.2766
 4370SOL     MW17480   0.851   4.686   1.962  0.5638 -0.7222  0.3275
 4371SOL     OW17481   0.497   1.040   5.003 -0.0702 -0.1186 -0.7145
 4371SOL    HW117482   0.466   1.042   4.913 -1.5596  1.8461 -0.2295
 4371SOL    HW217483   0.428   1.085   5.053 -0.0779 -2.5307  1.6824
 4371SOL     MW17484   0.483   1.047   4.998 -0.2717 -0.1788 -0.3267
 4372SOL     OW17485   0.217   2.333   5.326 -0.3031 -0.3614  0.0269
 4372SOL    HW117486   0.271   2.398   5.281 -1.7871  1.4179  0.6931
 4372SOL    HW217487   0.241   2.343   5.419  0.2039 -1.5285  0.0384
 4372SOL     MW17488   0.228   2.343   5.333 -0.4345 -0.2790  0.1181
 4373SOL     OW17489   1.066   4.753   4.348  0.6717 -0.6748  0.2071
 4373SOL    HW117490   1.135   4.815   4.371  0.4125 -0.7569  1.2457
 4373SOL    HW217491   1.109   4.667   4.349  0.3798 -0.8344  1.7811
 4373SOL     MW17492   1.081   4.750   4.351  0.5976 -0.7073  0.5587
 4374SOL     OW17493   3.135   3.884   0.240 -0.2574  0.1608 -0.6615
 4374SOL    HW117494   3.124   3.919   0.329 -1.0606 -1.5583 -0.0277
 4374SOL    HW217495   3.227   3.860   0.235 -0.0888  0.7501 -0.4940
 4374SOL     MW17496   3.146   3.885   0.252 -0.3428  0.0088 -0.5537
 4375SOL     OW17497   5.419   3.126   5.518 -0.1634  0.2305  0.2683
 4375SOL    HW117498   5.327   3.125   5.541 -0.6319  1.4629 -1.3008
 4375SOL    HW217499   5.425   3.191   5.447  1.5657 -1.2223 -1.0291
 4375SOL     MW17500   5.408   3.135   5.511  0.0062  0.2008 -0.1174
 4376SOL     OW17501   2.916   5.316   4.161 -0.4186 -0.3960 -0.0496
 4376SOL    HW117502   3.003   5.277   4.164  0.4624  1.5004  0.1675
 4376SOL    HW217503   2.893   5.331   4.253 -0.8643 -0.6349 -0.1192
 4376SOL     MW17504   2.924   5.313   4.174 -0.3600 -0.1729 -0.0297
 4377SOL     OW17505   4.723   0.722   1.788 -0.0233  0.2668 -0.3458
 4377SOL    HW117506   4.704   0.782   1.716 -0.7851  0.0202 -0.3671
 4377SOL    HW217507   4.679   0.761   1.864 -0.5552 -0.2775 -0.3704
 4377SOL     MW17508   4.714   0.735   1.789 -0.1975  0.1604 -0.3520
 4378SOL     OW17509   0.373   4.443   3.664 -0.0674 -0.0230 -0.0712
 4378SOL    HW117510   0.379   4.492   3.581  0.9295  0.5021  0.2951
 4378SOL    HW217511   0.363   4.351   3.637  0.4414  0.1225 -0.7835
 4378SOL     MW17512   0.373   4.437   3.649  0.1353  0.0673 -0.1177
 4379SOL     OW17513   1.481   3.783   1.618  0.3091 -0.1701  0.3663
 4379SOL    HW117514   1.453   3.801   1.528 -0.8469  3.0319  1.2381
 4379SOL    HW217515   1.570   3.820   1.622 -0.5048  1.8786  1.0518
 4379SOL     MW17516   1.489   3.791   1.606  0.0440  0.5365  0.5759
 4380SOL     OW17517   2.399   4.410   3.003  0.2670  0.0222  0.5519
 4380SOL    HW117518   2.331   4.476   2.988 -0.3331 -1.0555 -2.0198
 4380SOL    HW217519   2.449   4.409   2.922  2.2031 -0.5726  1.6959
 4380SOL     MW17520   2.397   4.419   2.990  0.4468 -0.2029  0.3598
 4381SOL     OW17521   1.329   5.184   1.909  0.0960 -0.0904  0.2675
 4381SOL    HW117522   1.382   5.106   1.928 -0.4666 -0.1957  1.4898
 4381SOL    HW217523   1.330   5.234   1.990  0.4075  1.1747 -0.4879
 4381SOL     MW17524   1.336   5.180   1.922  0.0622  0.0657  0.3303
 4382SOL     OW17525   3.948   0.442   4.765  0.6818 -0.1231  0.3473
 4382SOL    HW117526   3.985   0.358   4.737  1.4554  0.3024  0.0619
 4382SOL    HW217527   3.910   0.479   4.686  1.7051  0.4810  0.1110
 4382SOL     MW17528   3.948   0.436   4.751  0.9236  0.0155  0.2770
 4383SOL     OW17529   0.254   2.721   3.498  0.7409  0.4114 -0.3104
 4383SOL    HW117530   0.217   2.787   3.440  2.7765  2.2676  0.3553
 4383SOL    HW217531   0.332   2.689   3.453  0.9627  0.0312  0.3181
 4383SOL     MW17532   0.259   2.725   3.484  1.0447  0.6101 -0.1362
 4384SOL     OW17533   2.587   5.394   5.400 -0.1426 -0.5384 -0.0756
 4384SOL    HW117534   2.558   5.481   5.374 -0.6058 -0.6315  0.1154
 4384SOL    HW217535   2.589   5.396   5.496  2.6843  0.1669 -0.0517
 4384SOL     MW17536   2.583   5.406   5.409  0.1755 -0.4560 -0.0467
 4385SOL     OW17537   4.278   3.361   4.679  0.4886 -0.1086  0.6034
 4385SOL    HW117538   4.365   3.335   4.647 -0.0864  0.6782 -1.8578
 4385SOL    HW217539   4.229   3.279   4.684  1.2966 -0.5472  1.9087
 4385SOL     MW17540   4.283   3.346   4.675  0.5199 -0.0618  0.4478
 4386SOL     OW17541   0.907   1.924   4.229  0.2656  0.1589  0.1216
 4386SOL    HW117542   0.865   1.951   4.147  0.2117 -0.1303  0.0532
 4386SOL    HW217543   0.845   1.863   4.269  0.1081  0.6168  0.5814
 4386SOL     MW17544   0.893   1.919   4.223  0.2371  0.1816  0.1743
 4387SOL     OW17545   1.494   1.143   1.259  0.2997 -0.8171 -0.0209
 4387SOL    HW117546   1.559   1.181   1.318  0.1412  1.3497 -1.1240
 4387SOL    HW217547   1.534   1.153   1.172 -1.9708  1.9184 -0.9044
 4387SOL     MW17548   1.508   1.150   1.255 -0.0272 -0.1574 -0.2883
 4388SOL     OW17549   3.993   3.184   4.934 -0.3933  0.2997 -0.0468
 4388SOL    HW117550   4.041   3.137   5.002 -2.4405  0.2342  1.4394
 4388SOL    HW217551   4.047   3.173   4.855  1.8467  0.0302  1.4271
 4388SOL     MW17552   4.007   3.176   4.933 -0.3673  0.2546  0.3516
 4389SOL     OW17553   0.340   1.271   4.640 -0.1706 -0.1827  0.1600
 4389SOL    HW117554   0.252   1.310   4.641 -1.5214 -2.9872  0.4826
 4389SOL    HW217555   0.352   1.241   4.550  0.9644  1.1102 -0.1504
 4389SOL     MW17556   0.330   1.273   4.628 -0.1996 -0.3861  0.1617
 4390SOL     OW17557   0.933   4.078   2.728  0.1943 -0.0492  0.2795
 4390SOL    HW117558   0.929   4.053   2.636 -0.3317 -0.4816  0.4199
 4390SOL    HW217559   0.859   4.034   2.769  0.4197  0.1455  0.9123
 4390SOL     MW17560   0.923   4.069   2.721  0.1538 -0.0812  0.3835
 4391SOL     OW17561   2.277   4.978   5.399 -0.2263 -0.1817 -0.1451
 4391SOL    HW117562   2.327   5.058   5.381 -1.1562  0.5520  0.3919
 4391SOL    HW217563   2.291   4.923   5.323  1.2447  0.0707 -0.0874
 4391SOL     MW17564   2.286   4.981   5.387 -0.1535 -0.0490 -0.0650
 4392SOL     OW17565   2.788   4.731   1.858  0.2746 -0.8995  0.1059
 4392SOL    HW117566   2.826   4.682   1.785 -1.1821 -0.9704 -0.6416
 4392SOL    HW217567   2.767   4.817   1.821  0.5700 -0.5389  0.7538
 4392SOL     MW17568   2.790   4.736   1.843  0.1183 -0.8605  0.0925
 4393SOL     OW17569   1.332   2.008   5.200 -0.3447 -0.2898  0.1294
 4393SOL    HW117570   1.250   2.050   5.175 -0.5534 -0.6812  0.1438
 4393SOL    HW217571   1.383   2.077   5.242 -0.3737  0.1366 -0.5206
 4393SOL     MW17572   1.328   2.023   5.202 -0.3767 -0.2851  0.0439
 4394SOL     OW17573   3.939   1.771   4.642  0.5216  0.3626 -0.1287
 4394SOL    HW117574   3.949   1.761   4.737 -0.6259  0.3495  0.0095
 4394SOL    HW217575   3.930   1.865   4.629  1.4480  0.4322 -0.3209
 4394SOL     MW17576   3.939   1.782   4.653  0.4918  0.3702 -0.1360
 4395SOL     OW17577   3.390   0.963   1.804  0.1611 -0.0454  0.3226
 4395SOL    HW117578   3.315   0.908   1.780  0.5951 -0.8179  0.6894
 4395SOL    HW217579   3.354   1.030   1.861 -0.5023  0.4854 -0.6773
 4395SOL     MW17580   3.375   0.964   1.808  0.1302 -0.0779  0.2374
 4396SOL     OW17581   2.121   2.679   4.968  0.1287 -0.4833  0.1182
 4396SOL    HW117582   2.164   2.671   4.883  0.6454  0.5761  0.2544
 4396SOL    HW217583   2.030   2.701   4.947  0.6074  1.3779 -0.1887
 4396SOL     MW17584   2.115   2.681   4.954  0.2627 -0.0903  0.0952
 4397SOL     OW17585   0.423   0.969   1.190  0.1984  0.5682 -0.2549
 4397SOL    HW117586   0.391   0.981   1.280 -0.6798 -1.2832 -0.2677
 4397SOL    HW217587   0.345   0.952   1.139  0.7311  1.3013 -1.3417
 4397SOL     MW17588   0.408   0.968   1.195  0.1519  0.4177 -0.4029
 4398SOL     OW17589   1.224   1.866   2.307  0.7303 -0.0813  0.1003
 4398SOL    HW117590   1.132   1.862   2.283  0.4594 -0.8087  1.1793
 4398SOL    HW217591   1.268   1.898   2.228 -0.4033  0.0221 -0.5129
 4398SOL     MW17592   1.218   1.870   2.293  0.5413 -0.1653  0.1630
 4399SOL     OW17593   5.377   1.448   2.144 -0.3430 -0.1989 -0.2306
 4399SOL    HW117594   5.418   1.467   2.228 -1.9451 -0.7076  0.7123
 4399SOL    HW217595   5.431   1.494   2.080  0.6058  0.6382  1.1207
 4399SOL     MW17596   5.390   1.456   2.146 -0.4310 -0.1547  0.0781
 4400SOL     OW17597   4.200   3.165   2.137 -0.0268 -0.1579  0.8806
 4400SOL    HW117598   4.143   3.119   2.075  0.3812 -1.2858  1.3279
 4400SOL    HW217599   4.219   3.248   2.093  0.7986 -1.1995 -0.8437
 4400SOL     MW17600   4.195   3.170   2.122  0.1392 -0.4499  0.7088
 4401SOL     OW17601   3.990   0.788   4.004  0.1924  0.0986 -0.3981
 4401SOL    HW117602   4.006   0.728   3.932  0.6607  0.7439 -0.8452
 4401SOL    HW217603   3.902   0.823   3.988 -0.6180 -1.4043  0.5655
 4401SOL     MW17604   3.981   0.785   3.992  0.1464 -0.0169 -0.3286
 4402SOL     OW17605   3.129   0.983   5.079  0.5384  0.1262 -0.1112
 4402SOL    HW117606   3.117   0.890   5.097 -0.7284  0.1473 -0.7580
 4402SOL    HW217607   3.187   1.014   5.149  0.4307 -1.0070  0.4973
 4402SOL     MW17608   3.135   0.975   5.091  0.3535 -0.0235 -0.1164
 4403SOL     OW17609   0.223   2.122   3.352 -0.0733 -0.0448 -0.1782
 4403SOL    HW117610   0.268   2.194   3.307  0.3359  0.1032  0.4502
 4403SOL    HW217611   0.289   2.086   3.411 -0.8398  0.3078  0.9139
 4403SOL     MW17612   0.238   2.127   3.354 -0.1214  0.0225  0.0534
 4404SOL     OW17613   3.068   0.817   0.498 -0.5967  0.0570  0.0035
 4404SOL    HW117614   3.107   0.818   0.411  0.5056  0.7319  0.4773
 4404SOL    HW217615   3.068   0.725   0.523  0.0741 -0.0285 -0.2879
 4404SOL     MW17616   3.073   0.805   0.490 -0.3581  0.1363  0.0281
 4405SOL     OW17617   0.781   3.249   1.597 -0.4257  0.1205  0.3176
 4405SOL    HW117618   0.700   3.298   1.585  0.3013  1.3978  0.4369
 4405SOL    HW217619   0.816   3.280   1.680 -1.0420 -2.2571  1.5588
 4405SOL     MW17620   0.775   3.260   1.606 -0.4108 -0.0276  0.5007
 4406SOL     OW17621   3.654   4.809   4.304  0.1849  0.3855  0.3696
 4406SOL    HW117622   3.683   4.768   4.386 -0.0690  1.8805  1.2513
 4406SOL    HW217623   3.698   4.894   4.303 -0.3961  0.6901 -0.6889
 4406SOL     MW17624   3.663   4.815   4.315  0.0725  0.6277  0.3458
 4407SOL     OW17625   2.535   1.042   4.089  0.5289  0.0257 -0.3368
 4407SOL    HW117626   2.448   1.004   4.103  0.4959  0.2842  0.1976
 4407SOL    HW217627   2.562   1.010   4.003 -0.1783  0.0988 -0.5924
 4407SOL     MW17628   2.527   1.033   4.079  0.4293  0.0703 -0.2993
 4408SOL     OW17629   5.525   2.925   3.589  0.1463  0.1328  0.4158
 4408SOL    HW117630   5.511   2.867   3.664 -1.2459  0.8665  0.7679
 4408SOL    HW217631   5.438   2.956   3.567  0.7137  1.0488 -0.6127
 4408SOL     MW17632   5.512   2.921   3.596  0.0353  0.3548  0.3247
 4409SOL     OW17633   2.272   0.839   4.595  0.4422 -0.0220  0.3544
 4409SOL    HW117634   2.357   0.841   4.640 -0.3468  0.1253  1.8781
 4409SOL    HW217635   2.225   0.767   4.637 -0.5789  0.5756  0.2484
 4409SOL     MW17636   2.277   0.830   4.607  0.1986  0.0783  0.5452
 4410SOL     OW17637   2.561   0.548   1.757 -0.5523 -0.5017 -0.3128
 4410SOL    HW117638   2.466   0.548   1.746 -0.4658 -0.3926 -1.1873
 4410SOL    HW217639   2.577   0.502   1.839 -1.6138  3.3394  2.3160
 4410SOL     MW17640   2.550   0.542   1.766 -0.6835  0.0299 -0.0767
 4411SOL     OW17641   4.562   4.297   1.788  0.4303  0.1284 -0.3251
 4411SOL    HW117642   4.485   4.346   1.817  0.1216 -0.7418  0.3287
 4411SOL    HW217643   4.634   4.332   1.841  0.2986  0.2035 -0.1950
 4411SOL     MW17644   4.561   4.309   1.799  0.3710  0.0214 -0.2196
 4412SOL     OW17645   1.588   2.699   3.269 -0.1812  0.3336 -1.0310
 4412SOL    HW117646   1.677   2.690   3.235 -0.3733 -0.5274 -1.3384
 4412SOL    HW217647   1.599   2.722   3.361  0.4214 -2.4382 -0.3128
 4412SOL     MW17648   1.601   2.701   3.277 -0.1260 -0.1553 -0.9758
 4413SOL     OW17649   2.619   0.624   2.207 -0.1633 -0.4480  0.7700
 4413SOL    HW117650   2.713   0.639   2.202 -0.4426  1.5032  0.6039
 4413SOL    HW217651   2.582   0.688   2.147 -1.5681 -1.7515  0.1918
 4413SOL     MW17652   2.627   0.634   2.198 -0.3899 -0.3608  0.6698
 4414SOL     OW17653   2.307   1.823   5.073  0.2347 -0.7838  0.7830
 4414SOL    HW117654   2.268   1.892   5.020  0.4400 -0.3911  1.1431
 4414SOL    HW217655   2.348   1.764   5.009 -0.1313 -0.6968  0.4649
 4414SOL     MW17656   2.307   1.824   5.057  0.2131 -0.7192  0.7886
 4415SOL     OW17657   2.335   3.602   1.525 -0.1774 -0.3587 -0.0044
 4415SOL    HW117658   2.243   3.593   1.547 -0.5222  1.4434 -0.5780
 4415SOL    HW217659   2.339   3.588   1.430  0.0780 -0.0394 -0.0445
 4415SOL     MW17660   2.323   3.599   1.515 -0.1894 -0.0732 -0.0870
 4416SOL     OW17661   4.371   0.381   0.381  0.2876  0.2920  0.5901
 4416SOL    HW117662   4.427   0.312   0.417  0.5003  0.7459  1.1311
 4416SOL    HW217663   4.383   0.455   0.440 -1.4883  0.1481  1.1779
 4416SOL     MW17664   4.380   0.382   0.394  0.0772  0.3337  0.7420
 4417SOL     OW17665   3.624   4.390   4.188 -0.0207 -0.0093 -0.6288
 4417SOL    HW117666   3.666   4.475   4.179 -0.4307  0.2058 -0.5458
 4417SOL    HW217667   3.647   4.361   4.276  0.3305 -0.1027 -0.7496
 4417SOL     MW17668   3.633   4.397   4.199 -0.0286  0.0071 -0.6339
 4418SOL     OW17669   5.245   0.436   4.010  0.2853  0.4537 -0.0513
 4418SOL    HW117670   5.191   0.455   3.934  1.3074 -1.8457 -1.4621
 4418SOL    HW217671   5.261   0.522   4.050 -1.1740  1.6075 -1.7786
 4418SOL     MW17672   5.240   0.450   4.005  0.2264  0.2995 -0.4736
 4419SOL     OW17673   5.258   0.688   2.094  0.0021 -0.4256  0.2825
 4419SOL    HW117674   5.285   0.597   2.084 -0.0087 -0.5236  1.1002
 4419SOL    HW217675   5.315   0.724   2.162  1.8968  0.9984 -1.9101
 4419SOL     MW17676   5.269   0.681   2.102  0.2557 -0.2472  0.0974
 4420SOL     OW17677   2.117   4.278   4.779  0.2544 -0.7204  0.5778
 4420SOL    HW117678   2.101   4.336   4.853 -0.5131 -2.4480  1.8128
 4420SOL    HW217679   2.211   4.286   4.763  0.2307  0.5620  0.9481
 4420SOL     MW17680   2.128   4.287   4.787  0.1479 -0.7803  0.7938
 4421SOL     OW17681   2.061   1.742   2.206 -0.5159  0.2767  0.1706
 4421SOL    HW117682   2.024   1.812   2.152 -2.8351  0.0185  1.2897
 4421SOL    HW217683   1.994   1.673   2.204  0.4383 -0.7250  1.4035
 4421SOL     MW17684   2.047   1.742   2.199 -0.6996  0.1071  0.4871
 4422SOL     OW17685   3.363   1.945   2.984 -0.0528  0.1840  0.0081
 4422SOL    HW117686   3.444   1.897   2.964 -0.5277 -1.6476  2.0423
 4422SOL    HW217687   3.392   2.021   3.034  0.4190 -1.7010  2.8582
 4422SOL     MW17688   3.378   1.949   2.988 -0.0532 -0.3162  0.6654
 4423SOL     OW17689   4.172   0.519   4.426  0.1177 -0.2722 -0.0457
 4423SOL    HW117690   4.178   0.464   4.504  0.6123  0.2115  0.2605
 4423SOL    HW217691   4.203   0.605   4.454 -0.1969  0.0442 -0.6414
 4423SOL     MW17692   4.177   0.523   4.440  0.1419 -0.1645 -0.0847
 4424SOL     OW17693   3.220   4.873   1.877  0.2461 -0.6681 -0.6328
 4424SOL    HW117694   3.285   4.804   1.867 -0.2155 -1.2592  0.2935
 4424SOL    HW217695   3.154   4.836   1.935 -0.6606  0.1050 -1.1368
 4424SOL     MW17696   3.220   4.859   1.884  0.0620 -0.6436 -0.5760
 4425SOL     OW17697   3.059   4.778   2.297 -0.6937 -0.2303 -0.3057
 4425SOL    HW117698   3.050   4.752   2.205  0.4734 -1.6651 -0.0570
 4425SOL    HW217699   2.972   4.809   2.322 -1.1896 -0.4054 -1.7157
 4425SOL     MW17700   3.046   4.778   2.288 -0.6034 -0.4470 -0.4620
 4426SOL     OW17701   0.407   4.701   1.262 -0.1469  0.4217 -0.5214
 4426SOL    HW117702   0.332   4.687   1.321  1.1601 -3.0962  0.5555
 4426SOL    HW217703   0.387   4.646   1.186  1.7498 -1.5491  0.3058
 4426SOL     MW17704   0.394   4.691   1.260  0.2843 -0.3169 -0.2651
 4427SOL     OW17705   5.102   1.595   1.882  0.1775  0.3596  0.2144
 4427SOL    HW117706   5.178   1.653   1.888  0.1777  0.4262 -0.3967
 4427SOL    HW217707   5.106   1.542   1.962  0.7510  0.5034  0.2858
 4427SOL     MW17708   5.113   1.595   1.894  0.2547  0.3879  0.1418
 4428SOL     OW17709   3.067   0.917   2.543  0.1931  0.2736 -0.7996
 4428SOL    HW117710   3.128   0.845   2.527  1.1875  1.1139 -0.9292
 4428SOL    HW217711   3.034   0.901   2.631 -2.3329 -2.2537 -2.0553
 4428SOL     MW17712   3.071   0.905   2.553 -0.0130  0.0465 -0.9860
 4429SOL     OW17713   0.093   0.176   3.720  0.3071 -0.0960  0.2865
 4429SOL    HW117714   0.174   0.135   3.751 -0.0831 -0.5868  0.6764
 4429SOL    HW217715   0.071   0.240   3.788 -0.3554 -0.9215  0.8798
 4429SOL     MW17716   0.101   0.179   3.734  0.1655 -0.2731  0.4188
 4430SOL     OW17717   5.274   5.167   0.864 -0.0246  0.0658  0.0994
 4430SOL    HW117718   5.314   5.227   0.801 -1.6098  0.1658 -0.8653
 4430SOL    HW217719   5.188   5.205   0.882  0.4916  0.2336  2.6399
 4430SOL     MW17720   5.268   5.180   0.858 -0.1685  0.1018  0.3114
 4431SOL     OW17721   5.166   0.999   1.447 -0.3301 -0.0423 -0.1745
 4431SOL    HW117722   5.256   1.030   1.452 -0.6123  1.2194 -1.8060
 4431SOL    HW217723   5.167   0.935   1.375 -0.6146 -0.4972  0.2238
 4431SOL     MW17724   5.178   0.995   1.438 -0.4064  0.0663 -0.3404
 4432SOL     OW17725   4.380   1.058   4.103  0.0559  0.1423 -0.2611
 4432SOL    HW117726   4.303   1.055   4.047  0.9259  1.2879 -1.6035
 4432SOL    HW217727   4.384   1.149   4.134  0.8535  0.0912 -0.1939
 4432SOL     MW17728   4.370   1.070   4.100  0.2803  0.2896 -0.4327
 4433SOL     OW17729   0.683   3.571   4.428  0.4496  0.0866 -0.2363
 4433SOL    HW117730   0.702   3.541   4.517 -0.7484 -2.2299 -0.6633
 4433SOL    HW217731   0.633   3.651   4.440 -0.2015 -0.4958  1.2409
 4433SOL     MW17732   0.679   3.577   4.442  0.2007 -0.3035 -0.0950
 4434SOL     OW17733   2.226   4.517   3.773 -0.1053  0.2635 -0.6049
 4434SOL    HW117734   2.156   4.550   3.830  1.1253 -0.6216  1.5370
 4434SOL    HW217735   2.252   4.593   3.721 -1.5371  1.0161 -0.2786
 4434SOL     MW17736   2.220   4.531   3.774 -0.1324  0.2457 -0.2728
 4435SOL     OW17737   3.150   5.206   3.071  0.2505  0.3617  0.3969
 4435SOL    HW117738   3.129   5.297   3.052  0.7799  0.3888 -0.1052
 4435SOL    HW217739   3.143   5.199   3.166  0.1757  0.9178  0.4382
 4435SOL     MW17740   3.146   5.217   3.081  0.3117  0.4402  0.3349
 4436SOL     OW17741   0.592   4.019   2.413  0.0962 -0.0316  0.2436
 4436SOL    HW117742   0.583   3.945   2.474 -2.4410  0.1493  0.1991
 4436SOL    HW217743   0.685   4.043   2.418  0.5028 -1.6902  2.0487
 4436SOL     MW17744   0.603   4.012   2.422 -0.1905 -0.2305  0.4805
 4437SOL     OW17745   5.355   2.661   4.371 -0.6474 -0.2031 -0.2295
 4437SOL    HW117746   5.298   2.601   4.323 -1.3794  0.3171 -0.0344
 4437SOL    HW217747   5.297   2.705   4.433  0.0990 -0.1519  0.4518
 4437SOL     MW17748   5.340   2.659   4.373 -0.6455 -0.1262 -0.1115
 4438SOL     OW17749   5.259   1.588   2.831  0.2012  0.0893  0.5443
 4438SOL    HW117750   5.270   1.500   2.866  0.6361 -0.1696 -0.2438
 4438SOL    HW217751   5.332   1.601   2.771 -0.5704  0.5012 -0.3399
 4438SOL     MW17752   5.270   1.578   2.828  0.1559  0.1099  0.3192
 4439SOL     OW17753   2.853   1.298   1.664 -0.3136  0.1704  0.2799
 4439SOL    HW117754   2.865   1.273   1.573 -1.0888 -1.9775  0.7103
 4439SOL    HW217755   2.934   1.271   1.707  0.2884  1.7042  0.1682
 4439SOL     MW17756   2.866   1.291   1.658 -0.3369  0.0878  0.3228
 4440SOL     OW17757   5.432   3.157   1.209 -0.4661 -0.2327  0.2548
 4440SOL    HW117758   5.375   3.175   1.283 -0.5258 -1.5342  0.5575
 4440SOL    HW217759   5.511   3.119   1.249 -0.7522 -1.5321 -0.3592
 4440SOL     MW17760   5.435   3.154   1.225 -0.5127 -0.5827  0.2129
 4441SOL     OW17761   1.079   3.066   4.593 -0.3006 -0.1550 -0.0237
 4441SOL    HW117762   1.087   3.140   4.533 -0.2326 -0.4075 -0.3234
 4441SOL    HW217763   1.099   2.989   4.541  0.1053 -0.3470  0.4099
 4441SOL     MW17764   1.083   3.066   4.578 -0.2368 -0.2148 -0.0056
 4442SOL     OW17765   1.364   2.692   3.660  0.0393  0.4483  0.5986
 4442SOL    HW117766   1.331   2.607   3.688 -0.4237  0.4225  0.0172
 4442SOL    HW217767   1.328   2.754   3.723  0.8424  0.1632  1.3571
 4442SOL     MW17768   1.355   2.689   3.672  0.0851  0.4064  0.6224
 4443SOL     OW17769   0.099   1.638   4.366 -0.5649  0.5065 -0.6905
 4443SOL    HW117770   0.058   1.605   4.286 -0.2674 -0.2983 -0.5288
 4443SOL    HW217771   0.081   1.570   4.432  0.4860  0.4263 -0.4645
 4443SOL     MW17772   0.091   1.624   4.364 -0.3834  0.3874 -0.6383
 4444SOL     OW17773   5.450   0.400   1.797 -0.1655 -0.5014 -0.9140
 4444SOL    HW117774   5.430   0.432   1.885  3.9511  0.8254 -0.2237
 4444SOL    HW217775   5.508   0.325   1.811  0.6671 -0.1871 -2.4774
 4444SOL     MW17776   5.455   0.394   1.811  0.5006 -0.2805 -1.0315
 4445SOL     OW17777   2.807   1.869   2.507 -0.5534  0.2695  0.4785
 4445SOL    HW117778   2.818   1.774   2.520  0.3384  0.5754  2.2156
 4445SOL    HW217779   2.803   1.905   2.595  0.9405  2.0556 -0.1341
 4445SOL     MW17780   2.808   1.861   2.521 -0.2323  0.5510  0.6299
 4446SOL     OW17781   2.924   0.808   3.983 -0.5371  0.4869  0.0140
 4446SOL    HW117782   2.910   0.879   3.921 -0.9519  1.1930  0.8985
 4446SOL    HW217783   3.009   0.826   4.022 -0.3343  0.1171 -0.2551
 4446SOL     MW17784   2.933   0.820   3.980 -0.5657  0.5321  0.0968
 4447SOL     OW17785   1.588   2.923   1.021  0.2202  0.1751  0.0060
 4447SOL    HW117786   1.599   3.001   1.074 -0.3857  0.3275 -0.0937
 4447SOL    HW217787   1.494   2.907   1.018  0.2757 -0.1005 -0.6272
 4447SOL     MW17788   1.577   2.931   1.028  0.1461  0.1585 -0.0926
 4448SOL     OW17789   1.507   1.676   0.078 -0.1462 -0.3815 -0.3726
 4448SOL    HW117790   1.592   1.645   0.109 -0.8481 -2.0359 -0.0099
 4448SOL    HW217791   1.519   1.687  -0.017 -0.0291 -2.5031 -0.6604
 4448SOL     MW17792   1.520   1.673   0.069 -0.2249 -0.8897 -0.3625
 4449SOL     OW17793   1.259   3.598   3.797 -0.6030  0.1058 -0.5744
 4449SOL    HW117794   1.166   3.620   3.788 -0.5214  0.2515 -1.0892
 4449SOL    HW217795   1.269   3.518   3.746 -0.4107  0.1866 -0.6627
 4449SOL     MW17796   1.248   3.590   3.789 -0.5661  0.1363 -0.6555
 4450SOL     OW17797   1.097   1.209   2.583  0.3047  0.3959  0.2786
 4450SOL    HW117798   1.003   1.227   2.571  0.4639  0.7841 -0.4421
 4450SOL    HW217799   1.100   1.150   2.658 -0.5002  0.5839  0.4769
 4450SOL     MW17800   1.085   1.204   2.592  0.2178  0.4735  0.2083
 4451SOL     OW17801   2.841   4.498   4.002  0.3036  0.0214 -0.1395
 4451SOL    HW117802   2.819   4.547   4.081  1.0401 -0.5750  0.4530
 4451SOL    HW217803   2.863   4.410   4.033 -0.0868 -0.4261 -1.0865
 4451SOL     MW17804   2.841   4.493   4.017  0.3502 -0.1191 -0.1872
 4452SOL     OW17805   5.047   5.263   1.450  0.6008 -0.3291  0.4573
 4452SOL    HW117806   5.090   5.347   1.462  2.7820 -1.2893 -0.1680
 4452SOL    HW217807   5.080   5.208   1.521  1.1018 -1.3424 -0.5293
 4452SOL     MW17808   5.057   5.267   1.461  0.9618 -0.5947  0.2404
 4453SOL     OW17809   3.136   4.110   4.230 -0.1859 -0.0547  0.1395
 4453SOL    HW117810   3.217   4.152   4.261  0.3525 -0.1537 -1.0976
 4453SOL    HW217811   3.113   4.049   4.300  1.8123 -1.3389 -0.2504
 4453SOL     MW17812   3.144   4.108   4.244  0.1555 -0.2409 -0.0795
 4454SOL     OW17813   5.114   1.498   4.878  0.4048 -0.1644  0.2271
 4454SOL    HW117814   5.087   1.448   4.801 -3.2445  1.1134  0.5070
 4454SOL    HW217815   5.148   1.580   4.843 -1.1908  0.3895 -0.0921
 4454SOL     MW17816   5.115   1.503   4.863 -0.3010  0.0821  0.2218
 4455SOL     OW17817   5.321   1.045   1.977  0.3490 -0.0431  0.0713
 4455SOL    HW117818   5.360   0.967   1.938 -0.5634 -0.7291  0.4903
 4455SOL    HW217819   5.256   1.011   2.039 -0.1273  1.0444  0.1949
 4455SOL     MW17820   5.317   1.030   1.980  0.1621  0.0109  0.1443
 4456SOL     OW17821   3.043   4.934   5.016  0.1997 -0.0808  0.5001
 4456SOL    HW117822   3.134   4.959   5.032 -0.0901  0.4202  1.4160
 4456SOL    HW217823   3.030   4.948   4.922  1.5761 -1.8371 -0.0107
 4456SOL     MW17824   3.053   4.939   5.006  0.3460 -0.2497  0.5546
 4457SOL     OW17825   3.692   3.141   2.923  0.1299  0.0252 -0.7319
 4457SOL    HW117826   3.731   3.211   2.871  0.1551  0.5421 -0.0372
 4457SOL    HW217827   3.600   3.167   2.934  0.7657  1.4563  1.9183
 4457SOL     MW17828   3.685   3.154   2.917  0.2188  0.2874 -0.2817
 4458SOL     OW17829   2.777   3.777   0.168 -0.2002 -0.0252 -0.1259
 4458SOL    HW117830   2.696   3.784   0.219 -1.2455  0.1195 -1.7318
 4458SOL    HW217831   2.799   3.867   0.145  0.4173 -0.0686  0.2676
 4458SOL     MW17832   2.769   3.790   0.172 -0.2578 -0.0116 -0.2890
 4459SOL     OW17833   1.961   0.155   4.794 -0.1006  0.6979  0.6078
 4459SOL    HW117834   1.889   0.093   4.801  0.8026 -0.4261  0.2697
 4459SOL    HW217835   1.934   0.216   4.725 -0.2870 -0.3462 -0.2694
 4459SOL     MW17836   1.948   0.155   4.786 -0.0042  0.4061  0.4443
 4460SOL     OW17837   0.942   5.418   5.437  0.3460 -0.0845 -0.1660
 4460SOL    HW117838   0.862   5.460   5.468  0.1030 -1.1037  0.6357
 4460SOL    HW217839   0.919   5.383   5.352 -0.3465 -1.1199  0.4223
 4460SOL     MW17840   0.928   5.419   5.430  0.2201 -0.3610  0.0211
 4461SOL     OW17841   0.946   0.799   0.552 -0.3466  0.0032 -0.0327
 4461SOL    HW117842   0.914   0.788   0.641  0.5065  1.2999  0.4609
 4461SOL    HW217843   0.909   0.883   0.523  0.0376 -0.0154 -0.5950
 4461SOL     MW17844   0.936   0.809   0.560 -0.1801  0.1752 -0.0419
 4462SOL     OW17845   2.965   5.056   1.932 -0.1579  0.0872 -0.6273
 4462SOL    HW117846   2.990   4.972   1.972 -0.2255 -0.0050 -0.7772
 4462SOL    HW217847   2.872   5.046   1.912 -0.0745  0.0516 -1.0076
 4462SOL     MW17848   2.956   5.043   1.935 -0.1557  0.0700 -0.6987
 4463SOL     OW17849   2.191   2.602   5.459 -0.8509 -0.1558  0.2650
 4463SOL    HW117850   2.253   2.542   5.418  0.5137  0.7578  0.9102
 4463SOL    HW217851   2.190   2.577   5.551  0.3874  1.3064  0.7091
 4463SOL     MW17852   2.199   2.591   5.466 -0.5006  0.1639  0.4116
 4464SOL     OW17853   3.082   3.199   0.830  0.2201  0.1784  0.3224
 4464SOL    HW117854   3.102   3.187   0.924 -1.0832 -0.1015  0.5734
 4464SOL    HW217855   3.000   3.248   0.829  0.2125  0.1554 -0.6895
 4464SOL     MW17856   3.074   3.204   0.843  0.0437  0.1376  0.2200
 4465SOL     OW17857   2.979   3.694   2.722 -0.0753  0.4832 -0.2870
 4465SOL    HW117858   2.902   3.642   2.700 -0.1909 -0.4962  2.1073
 4465SOL    HW217859   3.046   3.668   2.660 -1.3215  0.4959 -1.6706
 4465SOL     MW17860   2.978   3.684   2.711 -0.2586  0.3531 -0.1510
 4466SOL     OW17861   1.964   4.510   0.363 -0.2414  0.6813  0.3132
 4466SOL    HW117862   1.975   4.543   0.452 -1.1651 -2.7848  1.8673
 4466SOL    HW217863   2.051   4.483   0.336 -0.0024  1.5049  0.2341
 4466SOL     MW17864   1.977   4.511   0.371 -0.3335  0.3257  0.5117
 4467SOL     OW17865   4.268   5.043   4.520  0.0443  0.5388  0.4280
 4467SOL    HW117866   4.249   5.048   4.427 -0.5508  1.5230  0.5878
 4467SOL    HW217867   4.329   5.114   4.536 -0.0945  0.5696  0.8424
 4467SOL     MW17868   4.273   5.053   4.510 -0.0545  0.6754  0.5053
 4468SOL     OW17869   0.240   3.790   2.304  0.3979 -0.4675  0.2836
 4468SOL    HW117870   0.320   3.819   2.261 -0.4718  0.1647 -0.9744
 4468SOL    HW217871   0.222   3.858   2.368 -0.0981  0.3528 -0.6993
 4468SOL     MW17872   0.248   3.803   2.307  0.2141 -0.2720 -0.0180
 4469SOL     OW17873   0.885   3.186   3.322  0.0498  0.0200 -0.3389
 4469SOL    HW117874   0.892   3.191   3.418 -1.8065 -1.4040 -0.0556
 4469SOL    HW217875   0.851   3.272   3.296  0.7839  0.4994  0.2254
 4469SOL     MW17876   0.881   3.198   3.332 -0.1012 -0.1071 -0.2248
 4470SOL     OW17877   4.920   5.103   5.419  0.2263 -0.4929 -0.1751
 4470SOL    HW117878   4.958   5.132   5.336  1.3379 -0.7819  0.2269
 4470SOL    HW217879   4.991   5.108   5.482  0.0131 -2.4467  0.2809
 4470SOL     MW17880   4.935   5.107   5.416  0.3472 -0.7947 -0.0597
 4471SOL     OW17881   0.902   3.152   2.422 -0.2809 -0.6819 -0.4427
 4471SOL    HW117882   0.815   3.165   2.383 -0.0719 -0.1510 -0.7469
 4471SOL    HW217883   0.888   3.160   2.516 -0.4606  0.0278 -0.5257
 4471SOL     MW17884   0.888   3.155   2.429 -0.2769 -0.5149 -0.4948
 4472SOL     OW17885   1.934   4.511   2.713  0.3423 -0.1370 -0.0066
 4472SOL    HW117886   2.012   4.563   2.691  0.6620 -1.1266 -1.3065
 4472SOL    HW217887   1.952   4.424   2.678 -1.9929 -0.0035 -1.7353
 4472SOL     MW17888   1.947   4.507   2.706  0.0710 -0.2522 -0.4142
 4473SOL     OW17889   2.255   4.798   0.093 -0.3430  0.1736  0.0065
 4473SOL    HW117890   2.295   4.718   0.056 -1.2897 -0.7818  0.9890
 4473SOL    HW217891   2.262   4.862   0.023  0.8825 -0.6267 -0.6438
 4473SOL     MW17892   2.262   4.796   0.078 -0.3055 -0.0627  0.0512
 4474SOL     OW17893   2.619   4.981   4.405  0.3055 -0.2182 -0.6655
 4474SOL    HW117894   2.627   5.075   4.420  0.4869 -0.3663  0.2637
 4474SOL    HW217895   2.595   4.945   4.491 -0.0965 -0.9802 -1.0850
 4474SOL     MW17896   2.617   4.988   4.418  0.2758 -0.3406 -0.5969
 4475SOL     OW17897   4.449   3.691   0.480 -0.2873 -0.5400  0.2005
 4475SOL    HW117898   4.476   3.719   0.392  0.3575  0.6622  0.7524
 4475SOL    HW217899   4.383   3.756   0.506 -0.2003 -0.6706  0.7554
 4475SOL     MW17900   4.443   3.704   0.471 -0.1888 -0.3958  0.3494
 4476SOL     OW17901   3.811   1.560   0.187  0.2005 -0.1155 -0.3638
 4476SOL    HW117902   3.834   1.546   0.095  1.1795 -0.2040 -0.1250
 4476SOL    HW217903   3.741   1.625   0.185 -0.3572 -0.7234 -1.2089
 4476SOL     MW17904   3.805   1.567   0.174  0.2572 -0.2092 -0.4454
 4477SOL     OW17905   1.513   2.857   3.854  0.4261 -0.1380 -0.0201
 4477SOL    HW117906   1.552   2.940   3.829  0.0146 -0.1206 -0.6112
 4477SOL    HW217907   1.556   2.792   3.798  0.2195 -0.2330 -0.0674
 4477SOL     MW17908   1.524   2.859   3.843  0.3429 -0.1484 -0.1060
 4478SOL     OW17909   2.042   3.659   2.681  0.7040  0.1290  0.0764
 4478SOL    HW117910   1.996   3.592   2.630  0.6170  1.7178 -2.0747
 4478SOL    HW217911   2.104   3.610   2.734 -1.9291 -1.9274  1.5109
 4478SOL     MW17912   2.044   3.643   2.681  0.3379  0.0661 -0.0200
 4479SOL     OW17913   3.963   4.555   4.553 -0.3107 -0.2714  0.1095
 4479SOL    HW117914   3.974   4.554   4.458  0.9196  0.0854  0.2217
 4479SOL    HW217915   4.042   4.598   4.585  0.3828 -2.3576  1.4162
 4479SOL     MW17916   3.975   4.561   4.545 -0.0518 -0.5042  0.3005
 4480SOL     OW17917   4.198   4.956   3.431  0.1669 -0.2190 -0.1138
 4480SOL    HW117918   4.267   5.009   3.391 -0.6040  0.0118 -1.1813
 4480SOL    HW217919   4.190   4.880   3.373 -0.3026 -0.3621  0.1365
 4480SOL     MW17920   4.207   4.953   3.418 -0.0000 -0.2072 -0.2238
 4481SOL     OW17921   2.197   3.367   5.041 -0.3740 -0.3508 -0.8402
 4481SOL    HW117922   2.127   3.314   5.078  2.2606 -1.5706  2.9943
 4481SOL    HW217923   2.242   3.310   4.980  0.2175 -1.4061  0.5171
 4481SOL     MW17924   2.194   3.352   5.038  0.0602 -0.6569 -0.1415
 4482SOL     OW17925   4.780   4.257   2.538  0.0209 -0.7501  1.1389
 4482SOL    HW117926   4.757   4.305   2.618 -2.3154 -1.5438  1.0145
 4482SOL    HW217927   4.836   4.317   2.489 -2.8638  2.0119  0.9195
 4482SOL     MW17928   4.784   4.271   2.542 -0.6818 -0.4852  1.0926
 4483SOL     OW17929   1.029   1.239   4.386 -0.2194 -0.1643 -0.6882
 4483SOL    HW117930   1.113   1.198   4.364  0.6769  1.6235 -0.7533
 4483SOL    HW217931   0.964   1.172   4.365  1.1491 -1.4175 -1.1053
 4483SOL     MW17932   1.032   1.224   4.380  0.0854 -0.0924 -0.7531
 4484SOL     OW17933   2.719   0.094   2.724 -0.0251 -0.2504  0.7939
 4484SOL    HW117934   2.780   0.147   2.673 -0.3091  0.4557  1.1798
 4484SOL    HW217935   2.775   0.032   2.772  0.3855  0.3297  1.0761
 4484SOL     MW17936   2.735   0.092   2.724 -0.0080 -0.0773  0.8838
 4485SOL     OW17937   3.314   3.482   1.962 -0.0089 -0.5208 -0.5068
 4485SOL    HW117938   3.302   3.577   1.955 -0.2061 -0.5416 -0.4529
 4485SOL    HW217939   3.348   3.468   2.050  0.0927 -0.4930 -0.5417
 4485SOL     MW17940   3.317   3.493   1.973 -0.0218 -0.5198 -0.5042
 4486SOL     OW17941   4.465   2.820   0.224 -0.2801  0.3895 -0.5469
 4486SOL    HW117942   4.389   2.859   0.268 -0.1203  1.2811 -1.0404
 4486SOL    HW217943   4.445   2.726   0.219 -2.5018  0.8898 -2.8846
 4486SOL     MW17944   4.452   2.813   0.230 -0.5576  0.5769 -0.9279
 4487SOL     OW17945   4.973   1.730   0.833  0.0468 -0.0812  0.0973
 4487SOL    HW117946   5.033   1.791   0.876  1.0436 -1.1410  0.2742
 4487SOL    HW217947   4.990   1.646   0.876 -0.9878 -0.5760 -0.4274
 4487SOL     MW17948   4.983   1.727   0.844  0.0417 -0.2904  0.0505
 4488SOL     OW17949   3.884   2.742   4.500 -0.2704  0.0657 -0.0543
 4488SOL    HW117950   3.832   2.812   4.539  1.2111  0.5607  1.1066
 4488SOL    HW217951   3.884   2.762   4.406 -1.2435  0.6639  0.0642
 4488SOL     MW17952   3.877   2.754   4.492 -0.2020  0.2129  0.1179
 4489SOL     OW17953   1.494   4.964   1.939 -0.4380 -0.4584  0.4322
 4489SOL    HW117954   1.447   4.910   2.002 -1.1555  1.3108  1.4891
 4489SOL    HW217955   1.575   4.988   1.984  1.3847 -3.0704 -1.1861
 4489SOL     MW17956   1.499   4.960   1.954 -0.2893 -0.5718  0.3566
 4490SOL     OW17957   0.327   3.807   4.531 -0.4074  0.3412  0.0226
 4490SOL    HW117958   0.290   3.894   4.516  0.0627  0.4338 -0.6314
 4490SOL    HW217959   0.280   3.750   4.471  0.0291  0.3413 -0.3272
 4490SOL     MW17960   0.316   3.811   4.521 -0.2854  0.3536 -0.1125
 4491SOL     OW17961   0.774   4.239   3.949 -0.3177  0.1548  0.2948
 4491SOL    HW117962   0.820   4.300   4.005  0.6028  0.4080 -0.7067
 4491SOL    HW217963   0.787   4.154   3.990 -0.7807  0.4975  1.1683
 4491SOL     MW17964   0.782   4.236   3.962 -0.2561  0.2350  0.2776
 4492SOL     OW17965   2.985   3.203   5.236  0.6598 -0.3777 -0.1962
 4492SOL    HW117966   2.945   3.276   5.282  1.8247 -0.7145  1.4344
 4492SOL    HW217967   2.939   3.126   5.268  2.0196 -0.6933  1.0951
 4492SOL     MW17968   2.974   3.202   5.246  0.9995 -0.4655  0.1970
 4493SOL     OW17969   4.439   3.385   1.800  0.1065 -0.1043  0.3266
 4493SOL    HW117970   4.385   3.461   1.776 -0.3581  0.1351  2.0289
 4493SOL    HW217971   4.453   3.339   1.717  0.5161  1.8902 -0.8049
 4493SOL     MW17972   4.434   3.389   1.785  0.0991  0.1963  0.4034
 4494SOL     OW17973   3.607   1.434   1.403  0.1576  0.3918 -0.3100
 4494SOL    HW117974   3.694   1.473   1.403  0.0735  0.6378  1.1307
 4494SOL    HW217975   3.550   1.503   1.369  0.0676  1.4857  1.8590
 4494SOL     MW17976   3.611   1.449   1.399  0.1342  0.5722  0.1758
 4495SOL     OW17977   3.418   1.565   5.256 -0.3855  0.0929 -0.7548
 4495SOL    HW117978   3.435   1.646   5.305 -1.0264 -1.1427  1.7085
 4495SOL    HW217979   3.503   1.522   5.252 -0.6204 -0.6666  1.1032
 4495SOL     MW17980   3.432   1.571   5.262 -0.5033 -0.1756 -0.1733
 4496SOL     OW17981   0.518   1.175   0.967 -0.5560 -0.0014 -0.2037
 4496SOL    HW117982   0.478   1.106   1.020 -0.7973 -1.0165 -1.6308
 4496SOL    HW217983   0.609   1.146   0.954 -0.7812 -0.3393 -1.1920
 4496SOL     MW17984   0.525   1.162   0.972 -0.6188 -0.1835 -0.5288
 4497SOL     OW17985   3.184   4.108   2.597  0.2332  0.4367 -0.2975
 4497SOL    HW117986   3.263   4.060   2.621 -0.5657 -0.6466  0.2526
 4497SOL    HW217987   3.141   4.052   2.532  0.0958  1.1900 -0.8726
 4497SOL     MW17988   3.189   4.094   2.591  0.1072  0.3923 -0.3009
 4498SOL     OW17989   2.555   5.184   1.506  0.0658 -0.1247 -0.0294
 4498SOL    HW117990   2.496   5.110   1.522 -1.3284  0.8848 -0.3569
 4498SOL    HW217991   2.510   5.259   1.543  1.6695  0.5244  0.6949
 4498SOL     MW17992   2.541   5.184   1.513  0.0940  0.0985  0.0240
 4499SOL     OW17993   1.872   3.011   1.879  0.1054  0.1714 -0.3901
 4499SOL    HW117994   1.923   2.952   1.823 -1.2803 -1.1268 -0.3444
 4499SOL    HW217995   1.930   3.085   1.894  0.9324  0.0532 -2.6336
 4499SOL     MW17996   1.887   3.013   1.874  0.0302 -0.0192 -0.6858
 4500SOL     OW17997   2.972   3.415   3.075 -0.3714  0.2998 -0.1148
 4500SOL    HW117998   3.016   3.395   3.158 -1.1918  0.3883  0.3525
 4500SOL    HW217999   2.937   3.331   3.046  0.6858  0.0936 -0.8464
 4500SOL     MW18000   2.973   3.401   3.082 -0.3395  0.2839 -0.1504
 4501SOL     OW18001   0.563   3.001   0.256 -0.1134  0.1232  0.1469
 4501SOL    HW118002   0.531   3.050   0.332 -0.0003 -0.1611  0.3792
 4501SOL    HW218003   0.605   3.066   0.201  1.1737  0.1019  1.0534
 4501SOL     MW18004   0.564   3.016   0.259  0.0750  0.0820  0.3002
 4502SOL     OW18005   4.060   1.920   3.325 -0.3734  0.2951 -0.3739
 4502SOL    HW118006   4.093   1.997   3.371 -1.7009  0.7122 -0.0638
 4502SOL    HW218007   4.124   1.904   3.256 -0.3719  2.0557 -0.8280
 4502SOL     MW18008   4.073   1.928   3.322 -0.5519  0.5882 -0.3933
 4503SOL     OW18009   4.601   1.060   3.921 -0.1748 -0.2332  0.3452
 4503SOL    HW118010   4.651   1.141   3.915 -1.1680  0.2978 -1.2416
 4503SOL    HW218011   4.532   1.078   3.984 -0.7159  0.3518 -0.4043
 4503SOL     MW18012   4.599   1.073   3.929 -0.3813 -0.0830  0.0308
 4504SOL     OW18013   4.287   5.163   2.884 -0.1641  0.5386 -0.0079
 4504SOL    HW118014   4.299   5.188   2.975 -2.4713  0.8181  0.2902
 4504SOL    HW218015   4.277   5.246   2.837 -1.4349  0.3761 -0.0706
 4504SOL     MW18016   4.287   5.177   2.890 -0.6457  0.5543  0.0238
 4505SOL     OW18017   3.040   2.891   2.951  0.1612  0.1820 -0.4090
 4505SOL    HW118018   2.994   2.819   2.909 -0.9908 -0.2513  1.4822
 4505SOL    HW218019   3.001   2.970   2.912 -2.0517 -0.1760  0.8995
 4505SOL     MW18020   3.028   2.892   2.940 -0.2917  0.0755  0.0216
 4506SOL     OW18021   5.164   4.436   2.591  0.1365  0.3772 -0.2929
 4506SOL    HW118022   5.223   4.481   2.531 -0.3992 -0.1855 -1.2677
 4506SOL    HW218023   5.212   4.358   2.618  0.0221  0.1524 -0.7297
 4506SOL     MW18024   5.178   4.432   2.587  0.0490  0.2712 -0.4828
 4507SOL     OW18025   3.709   4.669   4.561 -0.7216 -0.1325 -0.1404
 4507SOL    HW118026   3.632   4.616   4.542 -0.1867 -0.1848 -2.5217
 4507SOL    HW218027   3.781   4.606   4.569 -0.6107  0.0313  0.1741
 4507SOL     MW18028   3.708   4.653   4.559 -0.6347 -0.1175 -0.4185
 4508SOL     OW18029   0.132   0.668   2.832  0.5243  0.2046  0.0510
 4508SOL    HW118030   0.068   0.650   2.900  0.9933  0.0507  0.4568
 4508SOL    HW218031   0.210   0.696   2.879  0.4462  1.3743 -0.4785
 4508SOL     MW18032   0.134   0.670   2.847  0.5769  0.3413  0.0343
 4509SOL     OW18033   4.026   2.481   2.272 -0.0088  0.4487 -0.4615
 4509SOL    HW118034   4.066   2.562   2.239 -0.2866  0.7594 -0.0470
 4509SOL    HW218035   4.091   2.445   2.333  0.2799  0.1532 -0.9411
 4509SOL     MW18036   4.040   2.487   2.276 -0.0073  0.4507 -0.4702
 4510SOL     OW18037   1.584   4.834   2.409 -0.3588  0.3146 -0.1015
 4510SOL    HW118038   1.580   4.926   2.384  1.1416  0.4447  0.0412
 4510SOL    HW218039   1.596   4.835   2.504  0.7262  0.0214 -0.2204
 4510SOL     MW18040   1.585   4.846   2.418 -0.0109  0.2927 -0.0983
 4511SOL     OW18041   5.417   3.666   3.617  0.1352 -0.1857  0.0408
 4511SOL    HW118042   5.450   3.755   3.607 -3.3982  1.0639 -2.3775
 4511SOL    HW218043   5.379   3.665   3.705  0.1818  0.7360  0.0854
 4511SOL     MW18044   5.416   3.678   3.628 -0.3341  0.1065 -0.2786
 4512SOL     OW18045   0.265   3.221   0.373 -0.1259  0.0723 -0.0533
 4512SOL    HW118046   0.215   3.258   0.446  0.2028 -0.3261  0.3767
 4512SOL    HW218047   0.203   3.165   0.327  0.2756 -1.5947  1.3380
 4512SOL     MW18048   0.250   3.218   0.377 -0.0276 -0.2057  0.1918
 4513SOL     OW18049   0.189   1.141   3.590  0.0965  0.3222  0.0596
 4513SOL    HW118050   0.138   1.172   3.515 -0.9075  1.0512  1.0133
 4513SOL    HW218051   0.280   1.138   3.558 -0.3201  0.5532 -1.1931
 4513SOL     MW18052   0.195   1.145   3.576 -0.0947  0.4514  0.0193
 4514SOL     OW18053   3.269   1.404   1.939 -0.1787  0.0122  0.5482
 4514SOL    HW118054   3.304   1.469   1.877  0.3963  0.6202  1.4858
 4514SOL    HW218055   3.182   1.436   1.960 -0.3713 -0.1877  0.0752
 4514SOL     MW18056   3.262   1.417   1.933 -0.1273  0.0672  0.6108
 4515SOL     OW18057   3.673   1.974   4.774  0.6066 -0.8224 -0.1040
 4515SOL    HW118058   3.758   2.000   4.738 -0.0398 -0.5577 -1.5020
 4515SOL    HW218059   3.622   2.055   4.776  0.4373 -0.9368  0.9376
 4515SOL     MW18060   3.678   1.988   4.770  0.4968 -0.8022 -0.1520
 4516SOL     OW18061   5.136   4.743   5.131 -0.7017 -0.2634 -0.5620
 4516SOL    HW118062   5.107   4.787   5.211 -0.3265 -0.3411 -0.3837
 4516SOL    HW218063   5.209   4.688   5.158 -0.0002  0.3788 -1.1105
 4516SOL     MW18064   5.142   4.742   5.145 -0.5568 -0.1874 -0.6118
 4517SOL     OW18065   2.562   2.537   0.313  0.1241  0.2028 -0.0916
 4517SOL    HW118066   2.652   2.507   0.328 -0.0128 -0.1283  0.0746
 4517SOL    HW218067   2.543   2.593   0.389  0.5795  1.1845 -0.6879
 4517SOL     MW18068   2.572   2.540   0.325  0.1670  0.2904 -0.1495
 4518SOL     OW18069   0.114   3.494   3.551  0.0803  0.1912  0.2889
 4518SOL    HW118070   0.049   3.565   3.554  0.8924  0.9272  0.9702
 4518SOL    HW218071   0.091   3.445   3.472 -0.6496  1.0665 -0.0745
 4518SOL     MW18072   0.102   3.497   3.541  0.0913  0.4080  0.3317
 4519SOL     OW18073   2.811   2.402   1.571  0.4962 -0.1165  0.2312
 4519SOL    HW118074   2.875   2.381   1.640 -0.0525 -0.1242  0.7440
 4519SOL    HW218075   2.731   2.423   1.618  0.2551  0.3916 -0.3904
 4519SOL     MW18076   2.809   2.402   1.587  0.3899 -0.0491  0.2166
 4520SOL     OW18077   4.797   2.580   5.178  0.1187 -0.0512 -0.0548
 4520SOL    HW118078   4.785   2.488   5.154 -0.5855  0.1498 -0.5275
 4520SOL    HW218079   4.769   2.628   5.100 -2.2735  0.6342  1.1226
 4520SOL     MW18080   4.792   2.574   5.164 -0.2980  0.0681  0.0401
 4521SOL     OW18081   1.084   3.178   0.463  0.2122  0.2461 -0.6282
 4521SOL    HW118082   0.991   3.172   0.441  0.0284 -0.7309  0.3596
 4521SOL    HW218083   1.127   3.193   0.379 -0.7122 -0.6903 -1.2893
 4521SOL     MW18084   1.078   3.179   0.449  0.0631 -0.0114 -0.5842
 4522SOL     OW18085   2.390   2.042   0.601  0.2298  0.6275  0.1478
 4522SOL    HW118086   2.371   2.015   0.691  1.0043 -1.2710 -0.1963
 4522SOL    HW218087   2.338   1.982   0.547  2.4640 -0.6760 -0.6834
 4522SOL     MW18088   2.380   2.030   0.606  0.6347  0.1966 -0.0104
 4523SOL     OW18089   3.074   0.246   1.759  0.5659 -0.0185  0.0431
 4523SOL    HW118090   2.997   0.242   1.702 -0.0461  1.1943  0.7391
 4523SOL    HW218091   3.147   0.267   1.701  0.1433  0.1115 -0.4450
 4523SOL     MW18092   3.073   0.248   1.743  0.4267  0.1622  0.0711
 4524SOL     OW18093   1.209   2.939   2.237 -0.2918  0.3809 -0.6426
 4524SOL    HW118094   1.119   2.965   2.258 -0.9808 -2.0112 -0.4142
 4524SOL    HW218095   1.239   3.007   2.177 -1.8659  1.8071  0.0887
 4524SOL     MW18096   1.201   2.952   2.232 -0.5963  0.2509 -0.5135
 4525SOL     OW18097   2.505   1.269   4.457 -0.1516  0.2633 -0.3821
 4525SOL    HW118098   2.529   1.278   4.549  0.8268  1.0417 -0.7043
 4525SOL    HW218099   2.533   1.350   4.416 -0.7464  0.0029 -1.3454
 4525SOL     MW18100   2.512   1.281   4.464 -0.0999  0.3330 -0.5551
 4526SOL     OW18101   1.891   0.815   0.929 -0.3138  0.5451  0.7712
 4526SOL    HW118102   1.896   0.840   1.022  0.6401 -2.6027  1.7037
 4526SOL    HW218103   1.980   0.825   0.897 -0.4523  0.7481  0.4459
 4526SOL     MW18104   1.904   0.820   0.937 -0.2040  0.1488  0.8529
 4527SOL     OW18105   4.647   1.290   4.317  0.2340 -0.6423 -0.0197
 4527SOL    HW118106   4.647   1.306   4.412 -0.6939  2.4952 -0.4424
 4527SOL    HW218107   4.715   1.349   4.283  0.4506 -1.6199 -1.3311
 4527SOL     MW18108   4.656   1.300   4.326  0.1383 -0.3516 -0.2531
 4528SOL     OW18109   4.960   4.542   2.191 -0.1965 -0.5907 -0.2641
 4528SOL    HW118110   5.023   4.513   2.125 -0.8491  0.8761 -1.6021
 4528SOL    HW218111   4.889   4.583   2.140 -0.5234  0.9746  1.3511
 4528SOL     MW18112   4.959   4.544   2.175 -0.3283 -0.1826 -0.2268
 4529SOL     OW18113   5.385   1.692   2.609 -0.1980 -0.0724  0.0470
 4529SOL    HW118114   5.351   1.779   2.585 -1.0504 -0.7320 -1.2615
 4529SOL    HW218115   5.429   1.662   2.530 -0.0239 -0.8968  0.4523
 4529SOL     MW18116   5.386   1.700   2.595 -0.2893 -0.2721 -0.0746
 4530SOL     OW18117   4.141   1.316   3.148  0.5087  0.1544  0.2079
 4530SOL    HW118118   4.185   1.336   3.065 -0.5888 -2.3885 -1.1002
 4530SOL    HW218119   4.072   1.381   3.155  0.8735  0.6505 -0.6720
 4530SOL     MW18120   4.138   1.327   3.137  0.4101 -0.1211 -0.0865
 4531SOL     OW18121   0.792   3.016   0.577  0.2459  0.1897 -0.3578
 4531SOL    HW118122   0.833   2.977   0.654 -0.1496  1.4424  0.5320
 4531SOL    HW218123   0.699   3.000   0.588  0.2532 -0.3061 -0.9857
 4531SOL     MW18124   0.785   3.009   0.589  0.1937  0.2916 -0.3226
 4532SOL     OW18125   1.330   4.210   4.911 -0.4397 -0.2781 -0.6962
 4532SOL    HW118126   1.348   4.185   4.820 -1.4309  0.1317 -1.0124
 4532SOL    HW218127   1.267   4.281   4.905 -0.1764  0.0629  0.3106
 4532SOL     MW18128   1.324   4.216   4.898 -0.5377 -0.1771 -0.6032
 4533SOL     OW18129   1.041   2.797   1.029 -0.2541 -0.1330 -0.5474
 4533SOL    HW118130   1.021   2.704   1.039 -0.9582 -0.1468 -1.9093
 4533SOL    HW218131   1.064   2.826   1.118 -0.0172 -1.5929 -0.1018
 4533SOL     MW18132   1.041   2.788   1.043 -0.3170 -0.3313 -0.6707
 4534SOL     OW18133   4.867   1.138   4.536 -0.1512  0.6170 -0.1706
 4534SOL    HW118134   4.935   1.181   4.589 -0.5368 -0.6174  1.3925
 4534SOL    HW218135   4.902   1.141   4.447  0.6515  2.5030  0.1520
 4534SOL     MW18136   4.881   1.144   4.531 -0.0951  0.7047  0.0832
 4535SOL     OW18137   4.473   4.757   2.237 -0.0692 -0.0537  0.2274
 4535SOL    HW118138   4.397   4.787   2.286  0.3277 -1.1017  1.5359
 4535SOL    HW218139   4.531   4.833   2.232  0.3175 -0.1543  2.2878
 4535SOL     MW18140   4.471   4.771   2.243  0.0363 -0.2083  0.6808
 4536SOL     OW18141   5.178   1.946   0.896  0.2763 -0.5680  0.1946
 4536SOL    HW118142   5.165   2.002   0.819 -0.2209  1.9465  1.9489
 4536SOL    HW218143   5.262   1.903   0.881  0.8265  0.8798 -1.1746
 4536SOL     MW18144   5.187   1.948   0.883  0.2834 -0.0348  0.2464
 4537SOL     OW18145   5.388   3.529   4.517 -0.4588  0.3348 -0.0107
 4537SOL    HW118146   5.354   3.497   4.433  1.3780 -0.3322 -0.5549
 4537SOL    HW218147   5.389   3.624   4.508 -1.6212  0.3403 -0.1839
 4537SOL     MW18148   5.384   3.538   4.504 -0.3680  0.2458 -0.1072
 4538SOL     OW18149   0.255   2.095   0.123 -0.1062 -0.1168  0.0574
 4538SOL    HW118150   0.250   2.087   0.219  1.9811  0.4147  0.2655
 4538SOL    HW218151   0.165   2.107   0.095 -0.7531 -0.1601  1.9805
 4538SOL     MW18152   0.243   2.096   0.132  0.0877 -0.0511  0.3442
 4539SOL     OW18153   2.560   3.919   2.694  0.2501 -0.4623  0.1886
 4539SOL    HW118154   2.524   3.837   2.728  1.4556 -0.9086  0.4306
 4539SOL    HW218155   2.555   3.980   2.767  1.8169 -1.1060  0.8828
 4539SOL     MW18156   2.554   3.916   2.708  0.6232 -0.6090  0.3146
 4540SOL     OW18157   0.452   0.841   2.680 -0.2229 -0.1830  0.2000
 4540SOL    HW118158   0.487   0.883   2.602 -1.3796  0.6399  0.1065
 4540SOL    HW218159   0.530   0.811   2.727  0.7490  2.6098  0.5691
 4540SOL     MW18160   0.467   0.843   2.676 -0.2478  0.3036  0.2371
 4541SOL     OW18161   1.609   4.793   5.461 -0.2415  0.6319  0.1496
 4541SOL    HW118162   1.592   4.887   5.466 -0.8961  0.4664  2.3365
 4541SOL    HW218163   1.594   4.762   5.550 -1.3197 -1.7662 -0.7901
 4541SOL     MW18164   1.605   4.802   5.474 -0.4747  0.2869  0.3174
 4542SOL     OW18165   4.573   4.055   5.090  0.1314  0.0819  0.0470
 4542SOL    HW118166   4.526   4.066   5.172 -2.1500  0.0577 -1.1583
 4542SOL    HW218167   4.506   4.026   5.028  1.4541  1.4447 -2.1620
 4542SOL     MW18168   4.558   4.053   5.093  0.0024  0.2621 -0.4125
 4543SOL     OW18169   0.915   5.238   4.755 -0.3331 -0.6162  0.5933
 4543SOL    HW118170   0.823   5.254   4.775 -0.8381 -1.2452 -1.0381
 4543SOL    HW218171   0.915   5.211   4.663  1.5203 -0.3006  0.4577
 4543SOL     MW18172   0.902   5.237   4.745 -0.1516 -0.6583  0.3555
 4544SOL     OW18173   2.889   1.227   1.403  0.3241 -0.2464 -0.6614
 4544SOL    HW118174   2.981   1.232   1.378  0.5620  0.2300  0.2710
 4544SOL    HW218175   2.842   1.272   1.332  0.9063  0.3941 -0.6504
 4544SOL     MW18176   2.895   1.234   1.390  0.4345 -0.0961 -0.5344
 4545SOL     OW18177   2.551   4.392   0.213 -0.0606  0.3254  0.2357
 4545SOL    HW118178   2.580   4.429   0.130 -0.1831 -0.1507 -0.0217
 4545SOL    HW218179   2.509   4.465   0.258 -0.5595  0.4347 -0.3906
 4545SOL     MW18180   2.549   4.407   0.208 -0.1442  0.2761  0.1167
 4546SOL     OW18181   4.435   3.373   0.746 -0.1640 -0.5167  0.5128
 4546SOL    HW118182   4.391   3.418   0.674 -1.3971 -1.0132  0.9357
 4546SOL    HW218183   4.521   3.351   0.711 -0.3486  0.1977 -0.4387
 4546SOL     MW18184   4.441   3.376   0.732 -0.3548 -0.4874  0.4417
 4547SOL     OW18185   1.191   1.218   5.250 -0.0739  0.1697  0.2234
 4547SOL    HW118186   1.220   1.306   5.227  2.6648 -0.8623 -0.6096
 4547SOL    HW218187   1.270   1.164   5.246 -1.2198 -1.9652  2.8375
 4547SOL     MW18188   1.205   1.222   5.247  0.1404 -0.2565  0.4631
 4548SOL     OW18189   3.086   1.039   2.995 -0.2580  0.0278  0.3131
 4548SOL    HW118190   3.177   1.064   3.014 -0.5701 -0.0207  2.0244
 4548SOL    HW218191   3.034   1.115   3.021 -0.7195  0.0946 -0.7550
 4548SOL     MW18192   3.092   1.052   3.002 -0.3621  0.0302  0.3997
 4549SOL     OW18193   3.362   5.192   2.743 -0.0152  0.2971  0.0228
 4549SOL    HW118194   3.307   5.266   2.718 -1.0134 -0.0962  0.9984
 4549SOL    HW218195   3.393   5.212   2.831  1.3601  0.4659 -0.4650
 4549SOL     MW18196   3.359   5.204   2.751  0.0355  0.2669  0.0884
 4550SOL     OW18197   0.936   5.222   1.927 -0.5355  0.4207 -0.1541
 4550SOL    HW118198   0.853   5.185   1.897 -0.5365  0.0008  0.3556
 4550SOL    HW218199   0.970   5.268   1.851 -1.0786  0.3198 -0.4660
 4550SOL     MW18200   0.929   5.223   1.913 -0.6087  0.3506 -0.1275
 4551SOL     OW18201   5.233   4.141   4.963  0.0411 -0.4105  0.3785
 4551SOL    HW118202   5.156   4.180   4.921 -0.9358 -0.3809  2.1208
 4551SOL    HW218203   5.203   4.055   4.992  0.5209 -0.2183  1.4781
 4551SOL     MW18204   5.219   4.135   4.961 -0.0258 -0.3806  0.7610
 4552SOL     OW18205   3.927   1.246   4.894  0.5575  0.0583  0.6527
 4552SOL    HW118206   4.017   1.215   4.905  2.1404  3.7843 -0.2550
 4552SOL    HW218207   3.901   1.214   4.808  1.3971 -0.1392  0.4645
 4552SOL     MW18208   3.936   1.237   4.884  0.8835  0.5332  0.5052
 4553SOL     OW18209   4.048   0.898   0.415  0.3614  0.1125 -0.3391
 4553SOL    HW118210   4.018   0.903   0.324 -0.5518  1.1710 -0.0019
 4553SOL    HW218211   4.010   0.974   0.457  0.7479 -0.3808  0.9561
 4553SOL     MW18212   4.039   0.909   0.409  0.2905  0.1886 -0.1194
 4554SOL     OW18213   3.912   1.473   3.202 -0.1738 -0.0357 -0.8349
 4554SOL    HW118214   3.888   1.549   3.149 -2.7834 -0.5339 -0.5036
 4554SOL    HW218215   3.895   1.500   3.292 -0.3752 -0.7660 -0.6487
 4554SOL     MW18216   3.907   1.487   3.207 -0.5521 -0.2010 -0.7653
 4555SOL     OW18217   4.256   4.587   3.730  0.9098  0.3228 -0.0980
 4555SOL    HW118218   4.316   4.517   3.756 -1.3510 -1.9224 -0.5452
 4555SOL    HW218219   4.313   4.654   3.691  3.0756 -1.7686 -0.7538
 4555SOL     MW18220   4.272   4.587   3.728  0.8970 -0.2608 -0.2464
 4556SOL     OW18221   5.482   1.871   0.900  0.3524  0.4102  0.1771
 4556SOL    HW118222   5.575   1.887   0.916  0.3006  1.8075 -0.7077
 4556SOL    HW218223   5.449   1.836   0.982  1.7421 -0.5495  0.3690
 4556SOL     MW18224   5.490   1.869   0.913  0.5325  0.4691  0.0839
 4557SOL     OW18225   4.183   4.742   3.247 -0.2465  0.6978  0.3809
 4557SOL    HW118226   4.119   4.765   3.179 -0.6449 -1.0513  0.1151
 4557SOL    HW218227   4.148   4.663   3.288  0.9881  0.5781  1.2844
 4557SOL     MW18228   4.170   4.734   3.243 -0.1340  0.4463  0.4667
 4558SOL     OW18229   3.196   2.370   0.874  0.8896  0.0743 -0.0607
 4558SOL    HW118230   3.179   2.282   0.841  0.0945 -0.3979  1.5282
 4558SOL    HW218231   3.254   2.409   0.808 -0.7769 -0.7175 -2.1135
 4558SOL     MW18232   3.202   2.363   0.861  0.5583 -0.0958 -0.1232
 4559SOL     OW18233   0.587   2.737   0.325  0.0465 -0.1167 -0.6646
 4559SOL    HW118234   0.589   2.828   0.295  1.4093 -0.5218 -1.9201
 4559SOL    HW218235   0.611   2.686   0.248  0.5292 -1.4638  0.3388
 4559SOL     MW18236   0.590   2.743   0.311  0.2949 -0.3525 -0.6985
 4560SOL     OW18237   1.702   1.760   1.952  0.1576  0.7271  0.7894
 4560SOL    HW118238   1.720   1.812   2.030  1.6115  1.4063  0.0347
 4560SOL    HW218239   1.767   1.789   1.888  0.5778 -1.5274  0.0991
 4560SOL     MW18240   1.713   1.771   1.954  0.4098  0.5151  0.5949
 4561SOL     OW18241   1.704   3.043   3.557  0.3296 -0.3204  0.1179
 4561SOL    HW118242   1.681   3.060   3.648 -1.9530 -0.5605 -0.3578
 4561SOL    HW218243   1.679   2.952   3.541 -0.5498  0.0970 -1.0747
 4561SOL     MW18244   1.698   3.033   3.567 -0.0960 -0.2966 -0.1066
 4562SOL     OW18245   0.993   1.439   3.355 -0.0635 -0.0522  0.4114
 4562SOL    HW118246   1.071   1.395   3.321 -1.7174 -0.6656 -2.9478
 4562SOL    HW218247   1.005   1.531   3.332 -0.6626 -0.2806 -0.8665
 4562SOL     MW18248   1.005   1.446   3.347 -0.3667 -0.1655 -0.2126
 4563SOL     OW18249   3.217   3.687   3.744 -0.0061 -0.9837  0.2733
 4563SOL    HW118250   3.192   3.595   3.732  0.9026 -1.2716  0.5682
 4563SOL    HW218251   3.145   3.725   3.795 -0.0117 -1.7223  0.8211
 4563SOL     MW18252   3.204   3.680   3.749  0.1154 -1.1218  0.3867
 4564SOL     OW18253   0.681   0.569   3.663 -0.2124 -0.3734 -0.4568
 4564SOL    HW118254   0.706   0.647   3.613 -2.3807  0.8683  0.2496
 4564SOL    HW218255   0.625   0.519   3.604 -2.3434  0.8312  0.4414
 4564SOL     MW18256   0.677   0.573   3.648 -0.7910 -0.0442 -0.2409
 4565SOL     OW18257   4.201   4.221   4.599  0.0021  0.0306 -0.2142
 4565SOL    HW118258   4.122   4.177   4.632  0.8097 -0.8741  0.5733
 4565SOL    HW218259   4.232   4.272   4.674 -0.8889  1.9436 -1.1010
 4565SOL     MW18260   4.194   4.222   4.614 -0.0091  0.1663 -0.2276
 4566SOL     OW18261   0.030   3.643   2.831 -0.3917 -0.4665 -0.1227
 4566SOL    HW118262   0.062   3.601   2.911  3.6823  1.1659 -0.5926
 4566SOL    HW218263  -0.019   3.719   2.862 -0.9297 -1.1514  0.7564
 4566SOL     MW18264   0.028   3.648   2.846  0.0842 -0.3390 -0.0676
 4567SOL     OW18265   4.982   3.673   2.342 -0.7444 -0.5444  0.2073
 4567SOL    HW118266   4.964   3.602   2.281 -1.6198 -1.6278  1.6543
 4567SOL    HW218267   5.072   3.659   2.370 -0.0059  0.5271 -1.5046
 4567SOL     MW18268   4.992   3.662   2.338 -0.7628 -0.5460  0.1716
 4568SOL     OW18269   0.418   2.969   4.280  0.0800 -0.3869  0.1944
 4568SOL    HW118270   0.498   3.022   4.282 -0.3533  0.2374  1.7262
 4568SOL    HW218271   0.404   2.942   4.371 -0.4877 -1.9905 -0.3237
 4568SOL     MW18272   0.427   2.972   4.292 -0.0547 -0.5187  0.3308
 4569SOL     OW18273   0.197   2.528   2.428  0.2599  0.4446  0.0876
 4569SOL    HW118274   0.281   2.561   2.460 -0.7090  1.1683  2.1072
 4569SOL    HW218275   0.219   2.454   2.373  2.2144  0.5042  0.7252
 4569SOL     MW18276   0.211   2.523   2.425  0.3926  0.5500  0.4452
 4570SOL     OW18277   3.424   4.089   0.501  0.1032 -0.3481 -0.5755
 4570SOL    HW118278   3.397   4.140   0.578 -1.0467 -0.0225 -1.1786
 4570SOL    HW218279   3.499   4.038   0.532  0.0781  0.2704  0.5779
 4570SOL     MW18280   3.430   4.089   0.516 -0.0549 -0.2210 -0.5015
 4571SOL     OW18281   3.402   5.329   0.371 -0.0130  0.6139 -0.2290
 4571SOL    HW118282   3.390   5.400   0.433  0.2045  0.9866 -0.6069
 4571SOL    HW218283   3.467   5.272   0.412  0.2097  0.9137 -0.1555
 4571SOL     MW18284   3.409   5.331   0.385  0.0463  0.7044 -0.2700
 4572SOL     OW18285   0.994   3.734   0.044 -0.5310 -0.6866 -0.5389
 4572SOL    HW118286   1.088   3.730   0.032 -0.2202  0.6631  1.0560
 4572SOL    HW218287   0.973   3.657   0.098 -0.1970 -0.4334 -0.0536
 4572SOL     MW18288   1.004   3.723   0.050 -0.4442 -0.4709 -0.2589
 4573SOL     OW18289   0.095   1.847   1.607 -0.5148 -0.3780 -0.3925
 4573SOL    HW118290   0.017   1.902   1.606  0.4538  1.0528 -0.7760
 4573SOL    HW218291   0.164   1.902   1.569  0.7734 -1.4480  0.2970
 4573SOL     MW18292   0.094   1.862   1.602 -0.2111 -0.3294 -0.3513
 4574SOL     OW18293   2.311   0.463   0.969  0.0419 -0.2087 -0.4321
 4574SOL    HW118294   2.281   0.552   0.988  0.3891  0.1503 -1.4936
 4574SOL    HW218295   2.250   0.431   0.901  0.7064 -0.2929 -0.9972
 4574SOL     MW18296   2.299   0.470   0.962  0.1780 -0.1717 -0.6510
 4575SOL     OW18297   5.285   0.146   0.344  0.5234 -0.2077  0.7158
 4575SOL    HW118298   5.229   0.207   0.391 -0.5864 -0.3417 -0.3651
 4575SOL    HW218299   5.225   0.101   0.283  1.2227 -2.5856  1.6658
 4575SOL     MW18300   5.269   0.148   0.342  0.4681 -0.5457  0.6982
 4576SOL     OW18301   5.483   2.798   3.852  0.1737 -0.5010 -0.5047
 4576SOL    HW118302   5.415   2.849   3.896  0.5700 -0.9637  0.7006
 4576SOL    HW218303   5.467   2.708   3.879  1.8009 -0.5132  0.6228
 4576SOL     MW18304   5.472   2.793   3.862  0.4460 -0.5649 -0.1908
 4577SOL     OW18305   1.723   0.643   4.876 -0.2879  0.4055 -0.2474
 4577SOL    HW118306   1.719   0.726   4.923 -1.5561  1.1095 -1.5075
 4577SOL    HW218307   1.740   0.577   4.944 -1.1561  1.4738  1.0518
 4577SOL     MW18308   1.725   0.645   4.891 -0.5754  0.6440 -0.2421
 4578SOL     OW18309   0.889   5.306   0.228  0.2075  0.0801 -0.0727
 4578SOL    HW118310   0.943   5.321   0.306  0.9723 -1.3627 -0.2867
 4578SOL    HW218311   0.950   5.312   0.155  0.0861 -1.4934 -0.3292
 4578SOL     MW18312   0.904   5.309   0.229  0.2941 -0.3258 -0.1360
 4579SOL     OW18313   1.275   0.543   1.289  0.1063 -0.2738  0.4134
 4579SOL    HW118314   1.296   0.603   1.361  0.5943 -0.1769  0.1955
 4579SOL    HW218315   1.302   0.457   1.320 -0.1803 -0.3171  0.5510
 4579SOL     MW18316   1.281   0.540   1.303  0.1334 -0.2666  0.4026
 4580SOL     OW18317   3.790   3.225   1.568  0.2987  0.3531 -0.0716
 4580SOL    HW118318   3.781   3.288   1.639  0.1678 -0.2092  0.4122
 4580SOL    HW218319   3.872   3.179   1.587  0.3274  0.2871 -0.3534
 4580SOL     MW18320   3.800   3.227   1.580  0.2849  0.2686 -0.0444
 4581SOL     OW18321   3.714   3.916   5.261  0.0163  0.8095 -0.0787
 4581SOL    HW118322   3.642   3.884   5.205 -0.2965 -0.5045  1.0189
 4581SOL    HW218323   3.671   3.948   5.340  0.5240  1.7863 -0.1824
 4581SOL     MW18324   3.698   3.916   5.264  0.0425  0.7641  0.0550
 4582SOL     OW18325   4.804   2.885   3.987  0.0565  0.4916  0.0415
 4582SOL    HW118326   4.834   2.974   4.005  0.5391  0.3463 -0.0230
 4582SOL    HW218327   4.738   2.868   4.054  1.2763  0.2401  1.2254
 4582SOL     MW18328   4.799   2.894   3.998  0.2856  0.4382  0.1921
 4583SOL     OW18329   3.650   2.526   0.976  0.4818 -0.2613  0.3284
 4583SOL    HW118330   3.683   2.469   0.906 -1.6230  0.4639 -1.3473
 4583SOL    HW218331   3.579   2.476   1.016  0.3573  0.1447  0.6227
 4583SOL     MW18332   3.645   2.511   0.972  0.1818 -0.1091  0.1425
 4584SOL     OW18333   2.065   1.217   2.722 -0.1869  0.0462 -0.4148
 4584SOL    HW118334   2.051   1.140   2.777 -0.4806 -0.3884 -1.0817
 4584SOL    HW218335   2.020   1.288   2.767  0.6905 -0.0032  0.5786
 4584SOL     MW18336   2.057   1.216   2.735 -0.1084 -0.0190 -0.3709
 4585SOL     OW18337   3.421   1.653   1.801 -0.4228 -0.2765 -0.2924
 4585SOL    HW118338   3.495   1.700   1.840 -0.3605 -0.1717 -0.5334
 4585SOL    HW218339   3.408   1.696   1.716 -0.4122 -0.6443 -0.4823
 4585SOL     MW18340   3.429   1.665   1.795 -0.4130 -0.3119 -0.3504
 4586SOL     OW18341   0.816   2.405   3.220 -0.0681  0.1502  0.6152
 4586SOL    HW118342   0.891   2.349   3.239 -0.4380 -0.1037  1.3629
 4586SOL    HW218343   0.852   2.494   3.224  0.1936  0.0347  1.0069
 4586SOL     MW18344   0.831   2.410   3.223 -0.0827  0.1005  0.7685
 4587SOL     OW18345   5.093   1.461   1.490 -0.3650  0.5484  0.2354
 4587SOL    HW118346   5.040   1.510   1.427 -0.2404  0.7310  0.2690
 4587SOL    HW218347   5.038   1.452   1.567  0.3414  2.5162  1.0402
 4587SOL     MW18348   5.079   1.466   1.492 -0.2532  0.8378  0.3483
 4588SOL     OW18349   2.804   4.417   0.290  0.1326  0.3936 -0.5311
 4588SOL    HW118350   2.821   4.510   0.276  2.6611  0.1486  0.2695
 4588SOL    HW218351   2.714   4.403   0.260  0.1893  2.7802 -2.0270
 4588SOL     MW18352   2.794   4.427   0.284  0.4805  0.6818 -0.6246
 4589SOL     OW18353   3.010   1.943   1.470 -0.6083  0.7154 -0.7260
 4589SOL    HW118354   3.082   1.996   1.505  0.0119 -0.4067 -0.2397
 4589SOL    HW218355   2.985   1.987   1.389  0.8651  0.9410 -1.0933
 4589SOL     MW18356   3.017   1.956   1.464 -0.3265  0.5947 -0.7100
 4590SOL     OW18357   4.020   1.979   1.603  0.0059  0.4042  0.1293
 4590SOL    HW118358   3.989   2.031   1.677 -2.9968  1.7565 -1.9181
 4590SOL    HW218359   3.968   1.899   1.607 -0.9812  0.9646 -1.1023
 4590SOL     MW18360   4.009   1.975   1.614 -0.5310  0.6616 -0.3120
 4591SOL     OW18361   3.452   4.243   5.265 -0.2275  0.2221  0.2602
 4591SOL    HW118362   3.517   4.229   5.196 -1.4512  0.9309 -1.0856
 4591SOL    HW218363   3.463   4.168   5.324  0.2241 -0.9097 -1.1996
 4591SOL     MW18364   3.463   4.231   5.263 -0.3314  0.1652 -0.1174
 4592SOL     OW18365   0.570   2.109   3.042  0.0046  0.0222 -0.0020
 4592SOL    HW118366   0.622   2.182   3.008 -0.6283 -0.0097 -1.1189
 4592SOL    HW218367   0.516   2.148   3.111  0.7330  0.2834  0.4210
 4592SOL     MW18368   0.570   2.124   3.047  0.0175  0.0531 -0.0954
 4593SOL     OW18369   4.158   0.425   1.805  0.1083  0.7285 -0.1182
 4593SOL    HW118370   4.150   0.388   1.893 -1.7375  1.5962  0.1266
 4593SOL    HW218371   4.234   0.380   1.767  0.2770 -0.4620  1.5064
 4593SOL     MW18372   4.167   0.414   1.812 -0.1174  0.6850  0.1334
 4594SOL     OW18373   3.244   4.171   3.947 -0.2492  0.6944 -0.4995
 4594SOL    HW118374   3.198   4.150   4.029  0.6633  0.1476 -0.1137
 4594SOL    HW218375   3.198   4.119   3.881  1.0123 -1.4452  0.2041
 4594SOL     MW18376   3.231   4.161   3.949  0.0434  0.3329 -0.3528
 4595SOL     OW18377   4.633   0.561   3.976 -0.2547  0.1118  0.2694
 4595SOL    HW118378   4.671   0.642   3.942 -0.8188  0.8060  1.2496
 4595SOL    HW218379   4.672   0.551   4.063  0.4241 -1.1107 -0.1609
 4595SOL     MW18380   4.643   0.571   3.983 -0.2393  0.0407  0.3434
 4596SOL     OW18381   0.585   1.227   2.852 -0.3060  0.5398  0.5854
 4596SOL    HW118382   0.508   1.171   2.842 -0.6456  0.9312  0.9563
 4596SOL    HW218383   0.646   1.175   2.904 -0.7252  0.6102  1.1593
 4596SOL     MW18384   0.583   1.212   2.857 -0.4082  0.6020  0.7126
 4597SOL     OW18385   1.099   3.438   1.267  0.1513 -0.6339 -0.5966
 4597SOL    HW118386   1.179   3.411   1.222  0.8683  0.9742 -0.3900
 4597SOL    HW218387   1.117   3.423   1.360  0.0450 -0.7075 -0.5885
 4597SOL     MW18388   1.112   3.433   1.274  0.2335 -0.4274 -0.5677
 4598SOL     OW18389   1.568   0.445   3.011  0.2016  0.1294  0.2217
 4598SOL    HW118390   1.583   0.517   2.949  0.5641 -0.5561 -0.4967
 4598SOL    HW218391   1.654   0.407   3.025 -0.0709 -0.5031  0.1902
 4598SOL     MW18392   1.582   0.450   3.005  0.2137 -0.0480  0.1208
 4599SOL     OW18393   3.277   5.042   5.138 -0.1105 -0.6867 -0.2088
 4599SOL    HW118394   3.244   5.131   5.134  0.0283 -0.6349 -0.2236
 4599SOL    HW218395   3.370   5.050   5.119 -0.0538 -0.8065  0.0172
 4599SOL     MW18396   3.285   5.055   5.135 -0.0842 -0.6958 -0.1804
 4600SOL     OW18397   1.786   4.482   3.589 -0.9102 -0.6352  0.0378
 4600SOL    HW118398   1.703   4.477   3.635 -0.2708  1.6032  1.5784
 4600SOL    HW218399   1.765   4.522   3.505 -1.3046  0.7615  0.7762
 4600SOL     MW18400   1.772   4.487   3.584 -0.8773 -0.1460  0.3445
 4601SOL     OW18401   3.247   4.974   4.078 -0.0965 -0.2143  0.3074
 4601SOL    HW118402   3.166   4.982   4.028 -0.5192 -0.7384  0.8864
 4601SOL    HW218403   3.310   4.938   4.016 -0.4082 -0.1338 -0.0554
 4601SOL     MW18404   3.245   4.970   4.063 -0.1953 -0.2740  0.3365
 4602SOL     OW18405   4.058   2.793   3.183  0.8772  0.4550  0.0269
 4602SOL    HW118406   4.002   2.807   3.107 -1.2074 -0.9940  1.2175
 4602SOL    HW218407   4.104   2.877   3.194  1.2779  0.7049 -2.7696
 4602SOL     MW18408   4.057   2.807   3.174  0.6506  0.2936 -0.1892
 4603SOL     OW18409   0.055   1.841   0.474  0.6068 -0.2398  0.0190
 4603SOL    HW118410   0.004   1.760   0.480  0.5361 -0.2863 -1.0500
 4603SOL    HW218411  -0.009   1.911   0.491 -0.1732 -0.2115 -2.6320
 4603SOL     MW18412   0.039   1.839   0.477  0.4923 -0.2422 -0.4817
 4604SOL     OW18413   0.366   1.842   0.669 -0.0698  0.0364 -0.3318
 4604SOL    HW118414   0.393   1.757   0.704  0.6259  0.9780  1.5494
 4604SOL    HW218415   0.313   1.820   0.592  0.2910 -2.0747 -0.0528
 4604SOL     MW18416   0.363   1.828   0.663  0.0724 -0.1210 -0.0410
 4605SOL     OW18417   5.111   1.174   0.132  0.0327  0.0556  0.1608
 4605SOL    HW118418   5.156   1.228   0.198 -0.3113 -0.1272  0.5454
 4605SOL    HW218419   5.057   1.114   0.183 -0.7534  0.3565 -0.3026
 4605SOL     MW18420   5.110   1.174   0.148 -0.1194  0.0715  0.1502
 4606SOL     OW18421   5.443   3.806   4.413 -0.3905  0.4815  0.3858
 4606SOL    HW118422   5.494   3.881   4.384  0.4068  0.3982  1.5054
 4606SOL    HW218423   5.380   3.841   4.475 -0.9870  0.4184 -0.1664
 4606SOL     MW18424   5.441   3.821   4.417 -0.3635  0.4618  0.4621
 4607SOL     OW18425   4.945   2.057   2.085  0.0688  0.3073  0.1541
 4607SOL    HW118426   4.972   1.974   2.125 -2.6949 -0.1648  1.2571
 4607SOL    HW218427   4.906   2.031   2.002 -1.6860  0.3351  0.9344
 4607SOL     MW18428   4.944   2.042   2.079 -0.5393  0.2475  0.4075
 4608SOL     OW18429   0.914   0.422   3.622  0.3885 -0.6169 -0.7123
 4608SOL    HW118430   0.828   0.463   3.632  1.1073  0.4961  1.3237
 4608SOL    HW218431   0.964   0.485   3.571  0.8421  0.1188  0.5936
 4608SOL     MW18432   0.909   0.436   3.616  0.5463 -0.3681 -0.2625
 4609SOL     OW18433   1.780   4.704   2.248  0.2812  0.1159  0.5962
 4609SOL    HW118434   1.702   4.734   2.296 -0.5611  1.6618 -1.5526
 4609SOL    HW218435   1.823   4.785   2.221  2.2829 -0.7198  1.0853
 4609SOL     MW18436   1.775   4.719   2.251  0.4373  0.2114  0.3728
 4610SOL     OW18437   1.713   2.142   4.589  0.1881  0.2654  0.2935
 4610SOL    HW118438   1.735   2.107   4.675  0.0116 -0.1316  0.1765
 4610SOL    HW218439   1.716   2.067   4.530  0.0551  0.4889 -0.0046
 4610SOL     MW18440   1.717   2.127   4.592  0.1464  0.2421  0.2376
 4611SOL     OW18441   3.954   0.501   3.108  0.4124 -0.3644 -0.2218
 4611SOL    HW118442   4.035   0.476   3.153  1.0939 -0.5213 -1.4806
 4611SOL    HW218443   3.885   0.482   3.171  1.3334 -0.3259  0.8524
 4611SOL     MW18444   3.956   0.495   3.123  0.6281 -0.3804 -0.2466
 4612SOL     OW18445   0.210   3.501   0.699 -0.2413 -0.0437  0.4167
 4612SOL    HW118446   0.198   3.418   0.654 -1.1678  0.3730 -0.1504
 4612SOL    HW218447   0.220   3.565   0.629 -1.2203  0.5499  0.7979
 4612SOL     MW18448   0.209   3.499   0.684 -0.4978  0.0923  0.3917
 4613SOL     OW18449   1.820   4.492   1.628  0.5252 -0.1692 -0.4989
 4613SOL    HW118450   1.729   4.492   1.658  0.3165  0.1526 -1.1140
 4613SOL    HW218451   1.868   4.539   1.698 -0.0706  1.2058 -0.9696
 4613SOL     MW18452   1.814   4.499   1.642  0.4169  0.0591 -0.6450
 4614SOL     OW18453   3.599   4.160   3.274 -0.3598  0.8984  0.1754
 4614SOL    HW118454   3.642   4.197   3.197  0.7968  1.0934  0.8910
 4614SOL    HW218455   3.598   4.065   3.257 -0.0117  0.9288 -0.0430
 4614SOL     MW18456   3.605   4.152   3.261 -0.1573  0.9287  0.2423
 4615SOL     OW18457   4.272   3.929   0.193 -0.0447  0.0615 -0.3451
 4615SOL    HW118458   4.258   3.988   0.267 -0.9683 -2.3508  1.5276
 4615SOL    HW218459   4.196   3.870   0.195  2.1065 -2.9044 -0.3840
 4615SOL     MW18460   4.260   3.929   0.203  0.1205 -0.6623 -0.0983
 4616SOL     OW18461   0.928   1.915   2.861  0.3839 -0.1943 -0.2263
 4616SOL    HW118462   0.917   1.904   2.955 -0.7389 -1.4450 -0.4749
 4616SOL    HW218463   1.000   1.857   2.837  0.0452 -0.5963 -0.2748
 4616SOL     MW18464   0.936   1.906   2.870  0.1872 -0.4167 -0.2663
 4617SOL     OW18465   3.265   0.877   4.274 -0.4755  0.0424 -0.1162
 4617SOL    HW118466   3.290   0.785   4.282 -0.0060  0.2257  0.7006
 4617SOL    HW218467   3.196   0.888   4.340  1.1173  0.8097  1.5128
 4617SOL     MW18468   3.259   0.866   4.284 -0.1980  0.1703  0.2130
 4618SOL     OW18469   4.683   1.241   0.218  0.2836 -0.1060 -0.1521
 4618SOL    HW118470   4.694   1.171   0.282  0.4590  0.1863  0.1410
 4618SOL    HW218471   4.733   1.212   0.142  1.4062  0.2714  0.4267
 4618SOL     MW18472   4.691   1.228   0.217  0.4583 -0.0159 -0.0348
 4619SOL     OW18473   5.320   4.201   0.840  0.4473 -0.3997  0.6751
 4619SOL    HW118474   5.289   4.193   0.749 -0.3450 -0.1956  0.9179
 4619SOL    HW218475   5.303   4.115   0.878  0.5880 -0.4208  0.6913
 4619SOL     MW18476   5.313   4.188   0.833  0.3596 -0.3751  0.7100
 4620SOL     OW18477   3.394   4.527   3.738  0.0551  0.9595  0.5024
 4620SOL    HW118478   3.383   4.622   3.738  0.6786  1.0337  1.0642
 4620SOL    HW218479   3.488   4.513   3.724 -0.2368  0.3895 -1.1869
 4620SOL     MW18480   3.405   4.538   3.736  0.0997  0.8927  0.3507
 4621SOL     OW18481   1.637   3.519   4.050 -0.8196 -0.9172 -0.3231
 4621SOL    HW118482   1.684   3.559   4.123 -0.4703 -0.2789 -0.8916
 4621SOL    HW218483   1.546   3.513   4.081 -0.6163 -0.9541  0.2848
 4621SOL     MW18484   1.631   3.523   4.064 -0.7452 -0.8362 -0.3178
 4622SOL     OW18485   4.654   5.060   3.341 -0.3999 -0.0731  0.0112
 4622SOL    HW118486   4.717   5.047   3.412 -0.5062 -0.4752  0.0334
 4622SOL    HW218487   4.696   5.125   3.284  0.3820 -0.8786 -0.3620
 4622SOL     MW18488   4.668   5.067   3.343 -0.3090 -0.2356 -0.0361
 4623SOL     OW18489   2.683   5.120   2.221 -0.1641 -0.0597 -0.6064
 4623SOL    HW118490   2.717   5.199   2.264  1.6720 -1.8438  1.4655
 4623SOL    HW218491   2.591   5.119   2.244  0.1055  0.7184  0.6141
 4623SOL     MW18492   2.675   5.131   2.230  0.1193 -0.1951 -0.1633
 4624SOL     OW18493   2.637   0.141   4.766 -0.0537  0.2862 -0.2771
 4624SOL    HW118494   2.553   0.187   4.772 -1.1200 -1.6238  0.5290
 4624SOL    HW218495   2.612   0.049   4.758  1.9843 -0.2645 -0.6687
 4624SOL     MW18496   2.622   0.135   4.766  0.0771 -0.0450 -0.2213
 4625SOL     OW18497   2.547   0.339   1.350 -0.5323 -0.3047 -0.7853
 4625SOL    HW118498   2.471   0.392   1.375  0.8312  1.6639 -0.5805
 4625SOL    HW218499   2.613   0.359   1.415  0.3230 -1.6694 -1.1929
 4625SOL     MW18500   2.545   0.349   1.362 -0.2337 -0.2234 -0.8126
 4626SOL     OW18501   0.429   1.708   5.438 -0.1662 -0.0160  0.6049
 4626SOL    HW118502   0.353   1.694   5.494 -0.4259  1.1884  0.5883
 4626SOL    HW218503   0.450   1.801   5.448  1.7667 -0.4741  1.1615
 4626SOL     MW18504   0.422   1.719   5.447  0.0590  0.0844  0.6776
 4627SOL     OW18505   1.857   1.435   1.327  0.2956  0.5128 -0.4009
 4627SOL    HW118506   1.936   1.454   1.378 -0.1632  1.3367  0.0206
 4627SOL    HW218507   1.820   1.521   1.308 -1.4502  0.0887  0.8894
 4627SOL     MW18508   1.863   1.449   1.331 -0.0011  0.5666 -0.1705
 4628SOL     OW18509   5.133   2.278   4.453  0.0406 -0.2420 -0.3881
 4628SOL    HW118510   5.134   2.303   4.545 -0.2287  0.5776 -0.6037
 4628SOL    HW218511   5.172   2.191   4.452  1.1985  0.2492  0.3475
 4628SOL     MW18512   5.138   2.270   4.465  0.1602 -0.0656 -0.3181
 4629SOL     OW18513   5.384   3.265   1.636  0.3549  0.0210  0.0391
 4629SOL    HW118514   5.323   3.273   1.563 -0.6939  0.2962  0.9064
 4629SOL    HW218515   5.417   3.354   1.650  1.5901 -0.2668 -0.9337
 4629SOL     MW18516   5.380   3.278   1.628  0.3800  0.0193  0.0249
 4630SOL     OW18517   3.513   3.177   3.369  0.0854  0.3254  0.7663
 4630SOL    HW118518   3.526   3.115   3.440  0.0782 -0.7085 -0.1160
 4630SOL    HW218519   3.602   3.201   3.342  0.1016 -0.0800  0.4490
 4630SOL     MW18520   3.527   3.172   3.375  0.0866  0.1317  0.6048
 4631SOL     OW18521   1.362   3.320   5.194  0.6934  0.5063 -0.1190
 4631SOL    HW118522   1.378   3.245   5.138  2.0249  0.2996  0.4954
 4631SOL    HW218523   1.410   3.392   5.153 -0.3426  0.9689 -0.5530
 4631SOL     MW18524   1.371   3.320   5.181  0.7331  0.5408 -0.0947
 4632SOL     OW18525   3.594   2.580   2.193  0.1473  0.4113  0.2954
 4632SOL    HW118526   3.646   2.576   2.273  1.1490  1.0106 -0.3146
 4632SOL    HW218527   3.627   2.657   2.146 -0.6477  0.2566 -0.5439
 4632SOL     MW18528   3.605   2.590   2.197  0.1751  0.4711  0.1003
 4633SOL     OW18529   2.102   0.612   5.278  0.2254 -0.3951 -0.1701
 4633SOL    HW118530   2.083   0.563   5.198  1.1679 -1.3819  0.1871
 4633SOL    HW218531   2.038   0.683   5.278  0.4767 -0.1113 -2.0204
 4633SOL     MW18532   2.091   0.615   5.267  0.3860 -0.4897 -0.3711
 4634SOL     OW18533   2.065   1.029   4.562 -0.5238  0.0344  0.0604
 4634SOL    HW118534   2.140   0.972   4.583  1.6006  2.2185 -1.0461
 4634SOL    HW218535   2.104   1.100   4.512 -3.1994  1.9757  0.5722
 4634SOL     MW18536   2.081   1.031   4.558 -0.5980  0.5896 -0.0196
 4635SOL     OW18537   4.977   4.542   5.012 -0.2070  0.0312  0.0717
 4635SOL    HW118538   5.040   4.596   5.060 -1.4824  1.3165  0.3613
 4635SOL    HW218539   4.927   4.605   4.960  0.1345 -1.1684 -1.8219
 4635SOL     MW18540   4.979   4.558   5.011 -0.3327  0.0428 -0.1442
 4636SOL     OW18541   1.737  -0.017   4.048 -0.9270 -0.4313  0.0094
 4636SOL    HW118542   1.643  -0.035   4.045 -1.0251  0.1805 -0.9353
 4636SOL    HW218543   1.747   0.068   4.004  0.2078 -1.1052 -1.0940
 4636SOL     MW18544   1.726  -0.008   4.042 -0.7875 -0.4397 -0.2662
 4637SOL     OW18545   1.906   3.712   2.021  0.0524 -0.9343  0.8810
 4637SOL    HW118546   1.966   3.756   2.083  1.0610 -1.3499  0.2291
 4637SOL    HW218547   1.819   3.736   2.051  0.4856 -1.6057  2.8386
 4637SOL     MW18548   1.903   3.721   2.033  0.2465 -1.0806  1.0567
 4638SOL     OW18549   1.573   2.147   4.264  0.1793 -0.1247  0.2384
 4638SOL    HW118550   1.481   2.168   4.250 -0.3657 -0.7773  2.4660
 4638SOL    HW218551   1.574   2.096   4.345  2.5754  0.5269  0.7006
 4638SOL     MW18552   1.561   2.143   4.273  0.4284 -0.1248  0.6004
 4639SOL     OW18553   3.239   1.726   0.156 -0.3695 -0.0744 -0.1436
 4639SOL    HW118554   3.301   1.752   0.087 -0.7720  1.1554 -0.0573
 4639SOL    HW218555   3.287   1.661   0.207  0.6136  0.3674 -0.4789
 4639SOL     MW18556   3.254   1.721   0.153 -0.2913  0.1506 -0.1771
 4640SOL     OW18557   1.687   0.493   1.417  0.1712 -0.5817  0.1635
 4640SOL    HW118558   1.645   0.437   1.352 -0.1345 -0.1000 -0.0563
 4640SOL    HW218559   1.776   0.459   1.423  1.4385  1.6601 -3.2869
 4640SOL     MW18560   1.693   0.481   1.409  0.3006 -0.2151 -0.3304
 4641SOL     OW18561   5.358   0.706   3.703  0.3203  0.0028 -0.4000
 4641SOL    HW118562   5.416   0.631   3.695 -0.1992 -0.6417  1.3470
 4641SOL    HW218563   5.289   0.691   3.640  0.3794 -0.8415 -0.2680
 4641SOL     MW18564   5.357   0.694   3.694  0.2584 -0.1976 -0.1471
 4642SOL     OW18565   4.457   4.851   4.640 -0.3945 -0.3728 -0.1349
 4642SOL    HW118566   4.508   4.932   4.647 -0.1566 -0.6363  1.5767
 4642SOL    HW218567   4.369   4.881   4.615 -0.4024  0.4708  0.8294
 4642SOL     MW18568   4.452   4.866   4.638 -0.3635 -0.2947  0.2252
 4643SOL     OW18569   1.146   0.406   3.296 -0.2059 -0.5711  0.1041
 4643SOL    HW118570   1.158   0.314   3.319  0.0231 -0.6956 -0.5196
 4643SOL    HW218571   1.232   0.435   3.267  0.0164  0.1598  1.3841
 4643SOL     MW18572   1.159   0.397   3.295 -0.1452 -0.4895  0.1924
 4644SOL     OW18573   5.134   0.951   4.199 -0.1921 -0.0828  0.0684
 4644SOL    HW118574   5.141   0.876   4.258 -1.0668 -0.1081  0.1593
 4644SOL    HW218575   5.083   1.015   4.249  2.1369  1.3556  0.7473
 4644SOL     MW18576   5.128   0.950   4.214  0.0036  0.1074  0.1720
 4645SOL     OW18577   0.313   3.373   4.544 -0.0115  0.2834 -0.2614
 4645SOL    HW118578   0.238   3.420   4.582  1.2341  1.8457  0.4054
 4645SOL    HW218579   0.386   3.394   4.602  1.1234 -0.5170 -1.3472
 4645SOL     MW18580   0.313   3.382   4.557  0.3088  0.3859 -0.3178
 4646SOL     OW18581   1.449   0.124   1.168 -0.0826  0.2040  0.5464
 4646SOL    HW118582   1.452   0.031   1.192  0.2231  0.5826  2.0748
 4646SOL    HW218583   1.388   0.163   1.230 -0.2675  1.0305 -0.1289
 4646SOL     MW18584   1.441   0.117   1.179 -0.0664  0.3662  0.6612
 4647SOL     OW18585   3.076   3.599   1.800  0.2263 -1.0341  0.0684
 4647SOL    HW118586   3.146   3.609   1.735 -1.7367  0.9855 -1.9172
 4647SOL    HW218587   3.102   3.657   1.872 -0.1432  1.1095 -1.4185
 4647SOL     MW18588   3.089   3.608   1.801 -0.0876 -0.4738 -0.3989
 4648SOL     OW18589   4.415   2.624   3.019  0.0997  0.3537  0.2724
 4648SOL    HW118590   4.332   2.576   3.019  0.5164 -0.4003 -0.6296
 4648SOL    HW218591   4.393   2.711   2.985 -0.1618 -0.1686 -0.9556
 4648SOL     MW18592   4.401   2.629   3.015  0.1206  0.1820 -0.0143
 4649SOL     OW18593   2.604   1.754   0.343 -0.5614 -0.2889  0.2655
 4649SOL    HW118594   2.547   1.812   0.293  0.4507  0.0953 -0.4789
 4649SOL    HW218595   2.627   1.805   0.421  0.2192  0.2773 -0.3217
 4649SOL     MW18596   2.599   1.769   0.347 -0.3201 -0.1610  0.0863
 4650SOL     OW18597   2.159   4.687   1.958  0.2276 -0.3333  0.3339
 4650SOL    HW118598   2.214   4.759   1.989 -1.4793  0.7745  0.8850
 4650SOL    HW218599   2.215   4.639   1.897  2.5627 -0.5672  2.4905
 4650SOL     MW18600   2.174   4.690   1.954  0.3122 -0.2157  0.6983
 4651SOL     OW18601   5.405   1.583   0.871  0.3204  0.4885 -0.0988
 4651SOL    HW118602   5.441   1.670   0.854 -1.1762  0.6689 -2.8503
 4651SOL    HW218603   5.481   1.524   0.867  0.8288  1.2265 -2.3273
 4651SOL     MW18604   5.420   1.587   0.868  0.1874  0.6121 -0.7690
 4652SOL     OW18605   4.533   4.701   0.746 -0.2517  0.4876 -0.0553
 4652SOL    HW118606   4.448   4.693   0.790 -0.9530  0.6768 -1.3142
 4652SOL    HW218607   4.550   4.613   0.711  0.8648  0.0357  1.5284
 4652SOL     MW18608   4.524   4.688   0.747 -0.1958  0.4523 -0.0116
 4653SOL     OW18609   4.796   0.545   2.935 -0.4665 -0.9049 -0.1543
 4653SOL    HW118610   4.886   0.578   2.945  0.1236 -2.0551 -1.4402
 4653SOL    HW218611   4.747   0.592   3.002  1.0359 -0.0433  0.4074
 4653SOL     MW18612   4.802   0.556   2.946 -0.1849 -0.9437 -0.2518
 4654SOL     OW18613   0.869   5.221   2.443 -0.1908 -0.7103 -0.5058
 4654SOL    HW118614   0.944   5.265   2.403  0.1819 -0.1755  0.7411
 4654SOL    HW218615   0.897   5.201   2.532 -1.7733  0.2300  0.2609
 4654SOL     MW18616   0.883   5.224   2.449 -0.3536 -0.5118 -0.2348
 4655SOL     OW18617   4.832   5.451   0.234 -0.0407 -0.3664  0.3088
 4655SOL    HW118618   4.793   5.537   0.219  0.3431 -0.4799 -1.4545
 4655SOL    HW218619   4.821   5.404   0.152 -0.7789 -2.2555  1.4093
 4655SOL     MW18620   4.825   5.456   0.221 -0.0884 -0.6359  0.2196
 4656SOL     OW18621   4.153   0.090   0.805  0.1800 -0.4972  0.1007
 4656SOL    HW118622   4.198   0.151   0.864 -0.5757  0.0223  0.1574
 4656SOL    HW218623   4.105   0.032   0.864  0.8273 -1.0916  0.0429
 4656SOL     MW18624   4.152   0.091   0.821  0.1654 -0.5073  0.1006
 4657SOL     OW18625   0.073   2.071   4.383 -0.1475  0.1606  0.1732
 4657SOL    HW118626   0.033   2.144   4.335 -1.0059  0.0824  0.7357
 4657SOL    HW218627   0.131   2.114   4.446  2.3101  0.2207 -1.9775
 4657SOL     MW18628   0.075   2.087   4.385  0.0677  0.1582 -0.0405
 4658SOL     OW18629   0.707   4.285   2.940  0.3660  0.1781  0.0437
 4658SOL    HW118630   0.658   4.305   3.019 -0.6937 -2.0210  0.0326
 4658SOL    HW218631   0.685   4.355   2.879 -0.9674  0.4622  0.8258
 4658SOL     MW18632   0.698   4.297   2.942  0.0439 -0.0796  0.1474
 4659SOL     OW18633   0.190   4.589   4.714 -0.4518 -0.1915 -0.1948
 4659SOL    HW118634   0.233   4.611   4.797 -0.8896  1.2804 -0.3289
 4659SOL    HW218635   0.106   4.551   4.740 -0.8852  0.9086  0.0471
 4659SOL     MW18636   0.185   4.587   4.729 -0.5691  0.1546 -0.1803
 4660SOL     OW18637   2.334   3.924   3.014 -0.0707 -0.1697  0.0605
 4660SOL    HW118638   2.399   3.947   3.081 -0.6363 -0.7524  0.8298
 4660SOL    HW218639   2.313   4.007   2.971 -0.4738  0.4022  1.3179
 4660SOL     MW18640   2.340   3.938   3.017 -0.2011 -0.1712  0.3332
 4661SOL     OW18641   2.068   1.087   3.827  0.0853  0.4484  0.0034
 4661SOL    HW118642   1.978   1.053   3.829  0.4987 -0.6707  0.5975
 4661SOL    HW218643   2.058   1.181   3.843 -0.9500  0.2491  0.6668
 4661SOL     MW18644   2.054   1.095   3.830  0.0016  0.2709  0.1727
 4662SOL     OW18645   4.525   3.239   4.930 -0.0606  0.1147  0.2037
 4662SOL    HW118646   4.535   3.211   5.021  0.3739 -2.2581 -0.4899
 4662SOL    HW218647   4.469   3.172   4.891 -0.9295  1.5497 -1.0851
 4662SOL     MW18648   4.519   3.226   4.937 -0.1191 -0.0115 -0.0631
 4663SOL     OW18649   0.221   4.812   4.906  0.4007  0.0865 -0.4888
 4663SOL    HW118650   0.193   4.890   4.858  1.7916 -0.0165 -1.5165
 4663SOL    HW218651   0.316   4.821   4.913  0.2884 -0.1325  1.8865
 4663SOL     MW18652   0.230   4.824   4.900  0.5728  0.0432 -0.3074
 4664SOL     OW18653   1.932   0.612   0.374 -0.8115 -0.2950  0.4006
 4664SOL    HW118654   1.994   0.546   0.404 -0.3672 -0.8117 -1.5085
 4664SOL    HW218655   1.970   0.645   0.292 -2.5888  0.0676 -0.3203
 4664SOL     MW18656   1.946   0.608   0.367 -0.9909 -0.3157  0.0466
 4665SOL     OW18657   0.801   3.991   3.194  0.2893 -0.3029  0.0296
 4665SOL    HW118658   0.800   3.978   3.289 -0.8390  1.0981  0.2492
 4665SOL    HW218659   0.709   4.000   3.171  0.6237  0.5164 -1.0306
 4665SOL     MW18660   0.788   3.990   3.204  0.1824 -0.0041 -0.0835
 4666SOL     OW18661   0.238   2.189   4.566  0.4745  0.3467 -0.2310
 4666SOL    HW118662   0.211   2.193   4.658  1.2368 -1.3918  0.1222
 4666SOL    HW218663   0.248   2.280   4.540 -0.8817  0.9078  1.0636
 4666SOL     MW18664   0.236   2.202   4.575  0.3946  0.1883 -0.0092
 4667SOL     OW18665   3.604   1.740   1.143  0.2257  0.0480 -0.0798
 4667SOL    HW118666   3.541   1.796   1.097  0.4570  0.7124  0.3915
 4667SOL    HW218667   3.570   1.734   1.232  0.2960 -0.4269 -0.0827
 4667SOL     MW18668   3.591   1.747   1.149  0.2663  0.0735 -0.0168
 4668SOL     OW18669   1.919   4.636   1.835 -0.4241 -0.6914 -0.1790
 4668SOL    HW118670   1.861   4.609   1.906 -0.1486  3.1965  1.7442
 4668SOL    HW218671   2.003   4.653   1.877 -0.2308  1.6801 -1.3616
 4668SOL     MW18672   1.922   4.634   1.850 -0.3610  0.1510 -0.0793
 4669SOL     OW18673   2.739   1.574   5.291  0.0794 -0.2150  0.6252
 4669SOL    HW118674   2.725   1.524   5.371  0.9029 -0.8914  0.3713
 4669SOL    HW218675   2.834   1.571   5.278 -0.0102  0.1962 -0.1748
 4669SOL     MW18676   2.750   1.567   5.300  0.1782 -0.2507  0.4834
 4670SOL     OW18677   4.319   4.372   2.256 -0.2932 -0.2884 -0.3990
 4670SOL    HW118678   4.391   4.337   2.309 -0.3899 -0.2192 -0.2214
 4670SOL    HW218679   4.260   4.412   2.319 -0.3714 -0.1351 -0.5683
 4670SOL     MW18680   4.321   4.372   2.272 -0.3167 -0.2584 -0.3979
 4671SOL     OW18681   5.365   2.642   3.501  0.1229  0.5095  0.3232
 4671SOL    HW118682   5.396   2.729   3.527  1.1356  0.3637 -0.3306
 4671SOL    HW218683   5.416   2.581   3.554 -0.0535  0.2939  0.2471
 4671SOL     MW18684   5.376   2.645   3.511  0.2354  0.4609  0.2250
 4672SOL     OW18685   2.993   1.647   0.026 -0.3734 -0.4320 -0.2976
 4672SOL    HW118686   3.079   1.646   0.067  0.3838 -2.1415 -1.8019
 4672SOL    HW218687   2.941   1.706   0.081  0.7343 -2.0345  2.6993
 4672SOL     MW18688   2.997   1.654   0.039 -0.1225 -0.8777 -0.0967
 4673SOL     OW18689   0.262   1.431   5.416 -0.1281  0.2188 -0.4652
 4673SOL    HW118690   0.168   1.416   5.425  0.0154 -1.0740 -0.7847
 4673SOL    HW218691   0.275   1.448   5.323  0.0304 -0.4495 -0.5772
 4673SOL     MW18692   0.251   1.431   5.404 -0.0875 -0.0452 -0.5232
 4674SOL     OW18693   2.637   5.376   3.336  0.6034  0.0008  0.0610
 4674SOL    HW118694   2.671   5.408   3.419 -1.6622 -1.2179  1.5888
 4674SOL    HW218695   2.602   5.289   3.357 -1.6362  0.3752 -1.7008
 4674SOL     MW18696   2.637   5.369   3.350 -0.0029 -0.1128  0.0295
 4675SOL     OW18697   1.131   1.749   2.795 -0.3690  0.0428 -0.0532
 4675SOL    HW118698   1.211   1.784   2.836  0.1424 -1.1941  0.0654
 4675SOL    HW218699   1.134   1.781   2.705  1.6421 -2.0176 -0.8211
 4675SOL     MW18700   1.142   1.758   2.788 -0.0295 -0.4010 -0.1406
 4676SOL     OW18701   2.266   0.319   2.763 -0.3172 -0.0072 -0.4607
 4676SOL    HW118702   2.306   0.400   2.794 -1.8373  0.1887  1.1555
 4676SOL    HW218703   2.335   0.253   2.770  0.1146  0.5644  1.0825
 4676SOL     MW18704   2.281   0.321   2.768 -0.4637  0.0961 -0.0355
 4677SOL     OW18705   1.427   2.917   2.417  0.6343 -0.2960 -0.2000
 4677SOL    HW118706   1.365   2.921   2.344  0.3684 -0.6828  0.0014
 4677SOL    HW218707   1.402   2.839   2.465 -1.5269  1.7640  2.3818
 4677SOL     MW18708   1.415   2.907   2.413  0.3076 -0.0708  0.1746
 4678SOL     OW18709   1.143   1.955   0.495 -0.4992  0.1209  0.3994
 4678SOL    HW118710   1.162   2.043   0.462 -0.5478  0.8274  2.1789
 4678SOL    HW218711   1.229   1.917   0.513 -0.5162  0.5504  1.4571
 4678SOL     MW18712   1.157   1.962   0.493 -0.5081  0.2738  0.7813
 4679SOL     OW18713   3.425   3.210   4.417 -0.2505  0.1472  0.1649
 4679SOL    HW118714   3.366   3.229   4.490  0.0097 -1.0980  0.7194
 4679SOL    HW218715   3.372   3.159   4.356 -0.1140  0.1618  0.0342
 4679SOL     MW18716   3.410   3.206   4.419 -0.1971 -0.0184  0.2219
 4680SOL     OW18717   0.792   2.688   4.967  0.0926  0.4643  0.1044
 4680SOL    HW118718   0.734   2.663   5.039 -0.1706 -0.7056 -0.4970
 4680SOL    HW218719   0.866   2.627   4.973 -0.4053 -0.2982 -1.1974
 4680SOL     MW18720   0.794   2.676   4.977 -0.0099  0.2042 -0.1517
 4681SOL     OW18721   2.132   5.200   4.266  0.0377  0.8528  0.1091
 4681SOL    HW118722   2.202   5.148   4.305 -1.2476 -0.0260  1.3759
 4681SOL    HW218723   2.094   5.143   4.199 -0.7543  0.5093  0.8347
 4681SOL     MW18724   2.136   5.185   4.262 -0.2419  0.6883  0.3772
 4682SOL     OW18725   3.137   2.800   0.248 -0.1544 -0.5168  0.0905
 4682SOL    HW118726   3.042   2.792   0.246 -0.1246 -0.8394 -0.1549
 4682SOL    HW218727   3.169   2.711   0.231  0.1914 -0.4627  0.4330
 4682SOL     MW18728   3.128   2.787   0.246 -0.1038 -0.5529  0.1035
 4683SOL     OW18729   0.686   2.939   2.936 -0.5383 -0.1467  0.7884
 4683SOL    HW118730   0.706   3.029   2.963  0.0410  1.1102 -3.0781
 4683SOL    HW218731   0.591   2.933   2.940 -0.5691  0.5985  1.2896
 4683SOL     MW18732   0.676   2.950   2.940 -0.4645  0.1227  0.3355
 4684SOL     OW18733   2.785   1.262   0.313  0.6040 -0.3533 -0.0973
 4684SOL    HW118734   2.735   1.314   0.377  0.0315 -1.1581  0.1189
 4684SOL    HW218735   2.819   1.327   0.252  0.4062  0.3442  0.5122
 4684SOL     MW18736   2.783   1.278   0.314  0.5004 -0.3677  0.0138
 4685SOL     OW18737   4.543   2.069   0.601  0.2318  0.3290  0.1083
 4685SOL    HW118738   4.448   2.077   0.614 -0.1038 -0.9339 -1.2311
 4685SOL    HW218739   4.552   2.033   0.512  1.7702 -3.0754  1.4689
 4685SOL     MW18740   4.531   2.065   0.591  0.3937 -0.2991  0.1112
 4686SOL     OW18741   3.816   2.976   1.167 -0.5425 -0.8743 -0.1699
 4686SOL    HW118742   3.830   2.882   1.159  0.9613 -0.6271 -0.7829
 4686SOL    HW218743   3.763   2.986   1.246 -1.1883 -2.2516 -0.3859
 4686SOL     MW18744   3.810   2.965   1.176 -0.4270 -1.0264 -0.2814
 4687SOL     OW18745   2.437   3.832   1.119 -0.0548  0.1068  0.0849
 4687SOL    HW118746   2.532   3.842   1.129 -0.0759  0.3388  0.0563
 4687SOL    HW218747   2.426   3.798   1.030 -0.1237  2.2345 -0.7860
 4687SOL     MW18748   2.449   3.829   1.108 -0.0669  0.4244 -0.0361
 4688SOL     OW18749   1.396   2.892   5.220  0.6882  0.0131 -0.2965
 4688SOL    HW118750   1.454   2.927   5.287  1.0631 -1.0643 -0.0467
 4688SOL    HW218751   1.428   2.803   5.204 -0.1125 -0.1520 -1.0687
 4688SOL     MW18752   1.408   2.885   5.227  0.6309 -0.1541 -0.3668
 4689SOL     OW18753   2.613   0.041   3.888 -0.6386 -0.2355 -0.0194
 4689SOL    HW118754   2.617   0.115   3.949 -0.6437  0.4776 -0.8626
 4689SOL    HW218755   2.702   0.005   3.890 -0.8618 -0.7776  1.0600
 4689SOL     MW18756   2.626   0.046   3.897 -0.6693 -0.2125  0.0124
 4690SOL     OW18757   1.664   3.094   3.838  0.5690  0.1817 -0.0438
 4690SOL    HW118758   1.733   3.041   3.878  1.2593  1.0107 -0.1296
 4690SOL    HW218759   1.665   3.176   3.886 -0.2464  0.2759 -0.1664
 4690SOL     MW18760   1.673   3.098   3.849  0.5521  0.3060 -0.0718
 4691SOL     OW18761   2.226   2.201   4.261 -0.2506 -0.7192 -0.1729
 4691SOL    HW118762   2.166   2.126   4.259 -0.4094 -0.5918 -0.1453
 4691SOL    HW218763   2.312   2.162   4.246 -0.5137 -0.7146 -1.8523
 4691SOL     MW18764   2.229   2.185   4.259 -0.3074 -0.7014 -0.3952
 4692SOL     OW18765   4.963   3.487   2.136  0.6495  0.0965  0.2525
 4692SOL    HW118766   4.902   3.540   2.086  1.8764 -0.5190 -2.0355
 4692SOL    HW218767   5.050   3.514   2.106  1.4658 -0.3087  2.0878
 4692SOL     MW18768   4.967   3.498   2.125  0.9244 -0.0409  0.1916
 4693SOL     OW18769   1.558   4.589   5.266 -0.4922  0.4707  0.1326
 4693SOL    HW118770   1.594   4.661   5.318 -0.5296  1.6690 -1.4022
 4693SOL    HW218771   1.475   4.567   5.309 -0.9210  1.9742  0.1431
 4693SOL     MW18772   1.552   4.596   5.279 -0.5549  0.8343 -0.0726
 4694SOL     OW18773   2.849   1.826   0.234 -0.0339  0.3687 -0.1447
 4694SOL    HW118774   2.843   1.921   0.225  0.3826  0.3189 -1.0652
 4694SOL    HW218775   2.759   1.797   0.248 -0.0710  0.9614  0.9774
 4694SOL     MW18776   2.836   1.835   0.235  0.0172  0.4418 -0.1176
 4695SOL     OW18777   0.864   2.108   2.226  0.4133  0.0476  0.0470
 4695SOL    HW118778   0.884   2.132   2.135 -0.4599 -0.4237 -0.2865
 4695SOL    HW218779   0.771   2.088   2.225  0.5040 -0.4690  0.9357
 4695SOL     MW18780   0.854   2.108   2.213  0.3080 -0.0854  0.1217
 4696SOL     OW18781   1.979   1.541   3.029 -0.2046  0.4596 -0.0923
 4696SOL    HW118782   1.971   1.635   3.045  1.4866  0.1310  3.9294
 4696SOL    HW218783   2.073   1.527   3.012 -0.3343 -0.5200 -0.0966
 4696SOL     MW18784   1.991   1.551   3.029  0.0056  0.2836  0.4484
 4697SOL     OW18785   0.953   0.331   1.847 -0.2533 -0.1120  0.1665
 4697SOL    HW118786   0.943   0.284   1.765  0.3789  0.2051 -0.1007
 4697SOL    HW218787   0.984   0.266   1.909  0.3227 -0.1160 -0.1230
 4697SOL     MW18788   0.956   0.316   1.844 -0.0907 -0.0699  0.0916
 4698SOL     OW18789   0.493   0.406   3.527 -0.5322 -0.0215  0.1769
 4698SOL    HW118790   0.433   0.453   3.585 -0.2761 -1.9439  2.1203
 4698SOL    HW218791   0.498   0.318   3.564  1.9885 -0.4834 -1.0611
 4698SOL     MW18792   0.485   0.401   3.539 -0.1585 -0.3424  0.2718
 4699SOL     OW18793   3.353   3.426   3.402  0.1553  0.5351  0.9414
 4699SOL    HW118794   3.395   3.342   3.386 -1.4094 -0.5953  2.3809
 4699SOL    HW218795   3.426   3.489   3.406  1.5306 -1.0189  1.5371
 4699SOL     MW18796   3.369   3.423   3.400  0.1298  0.1738  1.2153
 4700SOL     OW18797   2.603   1.319   3.668  0.3735  0.4248  0.5833
 4700SOL    HW118798   2.536   1.382   3.641 -0.5889 -0.7834  0.0575
 4700SOL    HW218799   2.686   1.362   3.648 -0.2708  0.7546 -1.6109
 4700SOL     MW18800   2.605   1.333   3.661  0.1573  0.3066  0.2173
 4701SOL     OW18801   2.730   4.226   1.271  0.6056 -0.0375 -0.0650
 4701SOL    HW118802   2.769   4.183   1.195  0.4942  0.0144 -0.1527
 4701SOL    HW218803   2.751   4.319   1.260  1.3835 -0.1438  0.4501
 4701SOL     MW18804   2.738   4.233   1.259  0.6953 -0.0448 -0.0075
 4702SOL     OW18805   2.517   3.967   5.209 -0.1964  0.5549  0.3257
 4702SOL    HW118806   2.532   3.885   5.162  1.1916 -0.8967  3.0227
 4702SOL    HW218807   2.426   3.989   5.191 -0.5670 -1.5436 -0.5936
 4702SOL     MW18808   2.507   3.959   5.200 -0.0595  0.0771  0.5650
 4703SOL     OW18809   1.526   3.584   2.005 -0.0729 -0.2607  0.0722
 4703SOL    HW118810   1.561   3.656   2.056  0.9374 -0.4605 -0.3195
 4703SOL    HW218811   1.583   3.578   1.928 -0.5524 -1.0340 -0.2446
 4703SOL     MW18812   1.538   3.593   2.002 -0.0015 -0.3917 -0.0232
 4704SOL     OW18813   2.707   1.427   3.913  0.2687  0.0779 -0.1782
 4704SOL    HW118814   2.663   1.384   3.986 -0.5862  0.3371 -0.5392
 4704SOL    HW218815   2.656   1.402   3.836 -0.1073  1.5599 -0.4250
 4704SOL     MW18816   2.694   1.418   3.912  0.1030  0.3122 -0.2600
 4705SOL     OW18817   2.207   1.458   0.571  0.2324 -0.1719  0.4916
 4705SOL    HW118818   2.281   1.493   0.521  0.6481 -2.2686 -0.4703
 4705SOL    HW218819   2.242   1.383   0.618 -0.9191 -0.2090  1.3393
 4705SOL     MW18820   2.221   1.453   0.570  0.1334 -0.4591  0.4762
 4706SOL     OW18821   2.541   3.325   0.887 -0.3772 -0.0142 -0.0071
 4706SOL    HW118822   2.513   3.354   0.974  0.3270  0.0329  0.2104
 4706SOL    HW218823   2.489   3.378   0.827 -0.1667  0.6507  0.3892
 4706SOL     MW18824   2.530   3.336   0.891 -0.2541  0.0816  0.0755
 4707SOL     OW18825   3.818   2.560   1.853  0.2267  0.1618 -0.2211
 4707SOL    HW118826   3.823   2.610   1.935 -2.8841  0.9365 -0.3884
 4707SOL    HW218827   3.839   2.623   1.785  1.3065 -0.0902 -0.1295
 4707SOL     MW18828   3.821   2.575   1.855 -0.0466  0.2322 -0.2313
 4708SOL     OW18829   2.518   3.198   3.609 -0.3873  0.0282 -0.4328
 4708SOL    HW118830   2.571   3.221   3.686  1.9276 -1.4264 -1.4762
 4708SOL    HW218831   2.525   3.103   3.603  0.5097  0.2089 -3.1085
 4708SOL     MW18832   2.526   3.189   3.619  0.0450 -0.1432 -0.9333
 4709SOL     OW18833   2.019   3.211   4.445  0.3617  0.0932  0.0132
 4709SOL    HW118834   1.930   3.213   4.409  0.3571  0.8312  0.0543
 4709SOL    HW218835   2.027   3.123   4.483 -0.7053  0.3533  0.8876
 4709SOL     MW18836   2.008   3.199   4.445  0.2174  0.2275  0.1364
 4710SOL     OW18837   0.242   1.493   3.050 -0.0072 -0.2366  0.3915
 4710SOL    HW118838   0.203   1.493   3.138  0.3635 -1.1307  0.5709
 4710SOL    HW218839   0.328   1.452   3.062 -0.1879 -0.8972 -0.4858
 4710SOL     MW18840   0.249   1.488   3.063  0.0184 -0.4458  0.2976
 4711SOL     OW18841   4.438   0.109   3.780 -0.9557 -0.2212 -0.5100
 4711SOL    HW118842   4.492   0.188   3.785 -3.2438  1.5069 -1.3676
 4711SOL    HW218843   4.370   0.130   3.716 -1.6848 -2.9163 -0.7581
 4711SOL     MW18844   4.436   0.122   3.772 -1.3617 -0.3514 -0.6588
 4712SOL     OW18845   3.406   3.056   0.015 -0.2211 -0.0941  0.7015
 4712SOL    HW118846   3.370   3.045   0.103 -2.0753  0.2039  0.0444
 4712SOL    HW218847   3.443   2.971  -0.007  0.9052  0.0333  2.0127
 4712SOL     MW18848   3.406   3.043   0.024 -0.3191 -0.0369  0.7895
 4713SOL     OW18849   0.206   1.653   1.778 -0.3532  0.1351  0.8083
 4713SOL    HW118850   0.233   1.711   1.849 -0.4119  0.1993  0.7785
 4713SOL    HW218851   0.148   1.707   1.724  1.4342  0.8270 -0.5443
 4713SOL     MW18852   0.202   1.668   1.780 -0.1205  0.2369  0.6223
 4714SOL     OW18853   4.043   1.228   0.089 -0.1546 -0.6508  0.1804
 4714SOL    HW118854   4.089   1.180   0.020 -0.7527  0.4005 -1.0054
 4714SOL    HW218855   3.981   1.165   0.126  2.4011 -2.2305  2.1060
 4714SOL     MW18856   4.041   1.213   0.085  0.1089 -0.7219  0.2800
 4715SOL     OW18857   4.506   3.037   5.372  0.4362 -0.2691  0.0765
 4715SOL    HW118858   4.589   2.995   5.395  0.9987 -0.7568 -2.5887
 4715SOL    HW218859   4.439   2.971   5.389  0.6079 -0.0956  1.6095
 4715SOL     MW18860   4.508   3.023   5.378  0.5350 -0.3114 -0.0759
 4716SOL     OW18861   3.094   0.435   5.246 -0.0107  0.5744 -0.0190
 4716SOL    HW118862   3.055   0.391   5.322 -0.0670  3.2522  1.6042
 4716SOL    HW218863   3.071   0.378   5.172 -2.2208 -0.8177  1.5974
 4716SOL     MW18864   3.085   0.421   5.246 -0.3157  0.7474  0.4170
 4717SOL     OW18865   3.728   2.407   3.539  0.5335 -0.8175  0.5926
 4717SOL    HW118866   3.657   2.358   3.580 -0.9322  0.0721 -0.7953
 4717SOL    HW218867   3.717   2.391   3.445  0.8708  1.0199  0.2077
 4717SOL     MW18868   3.717   2.398   3.532  0.3817 -0.4505  0.3540
 4718SOL     OW18869   1.418   4.041   2.448  0.1369  0.0191 -0.2487
 4718SOL    HW118870   1.351   4.104   2.473 -0.6055 -0.9611  0.2595
 4718SOL    HW218871   1.375   3.956   2.452  1.4067 -0.6364  0.0956
 4718SOL     MW18872   1.403   4.038   2.452  0.2079 -0.2010 -0.1340
 4719SOL     OW18873   1.303   4.805   5.430 -0.1401  0.2904 -0.5145
 4719SOL    HW118874   1.296   4.875   5.365  2.5493  0.3266 -0.8548
 4719SOL    HW218875   1.397   4.797   5.448 -0.5587 -1.6974  1.2196
 4719SOL     MW18876   1.315   4.813   5.423  0.1655  0.0277 -0.3269
 4720SOL     OW18877   1.622   0.747   0.125  1.1113 -0.2537 -0.0293
 4720SOL    HW118878   1.656   0.662   0.097 -0.7596 -1.3541  0.8574
 4720SOL    HW218879   1.700   0.802   0.136  2.2665 -1.3705 -2.0356
 4720SOL     MW18880   1.637   0.743   0.122  1.0150 -0.5521 -0.1800
 4721SOL     OW18881   5.073   3.416   3.419 -0.4982  0.4886  0.0914
 4721SOL    HW118882   4.990   3.458   3.399 -0.3240  0.7816 -0.0304
 4721SOL    HW218883   5.113   3.399   3.334 -0.2489  0.7286  0.1583
 4721SOL     MW18884   5.067   3.419   3.405 -0.4412  0.5603  0.0840
 4722SOL     OW18885   1.404   0.468   3.265 -0.2463 -0.2729 -0.7363
 4722SOL    HW118886   1.429   0.559   3.282 -1.1220 -0.1872  0.2042
 4722SOL    HW218887   1.451   0.444   3.185 -0.1167  1.0546 -1.0747
 4722SOL     MW18888   1.414   0.477   3.257 -0.3467 -0.0827 -0.6553
 4723SOL     OW18889   3.906   3.301   0.578 -0.0551 -0.0635 -0.1649
 4723SOL    HW118890   3.993   3.263   0.591  0.2434  0.7379  0.2051
 4723SOL    HW218891   3.878   3.328   0.665  0.3520  1.8582 -0.5825
 4723SOL     MW18892   3.914   3.300   0.591  0.0399  0.3030 -0.1713
 4724SOL     OW18893   1.194   2.518   1.539  0.0727  0.3277  0.4475
 4724SOL    HW118894   1.201   2.534   1.633  0.0027 -0.8906  0.6789
 4724SOL    HW218895   1.103   2.491   1.525  0.1369  0.2938  0.0630
 4724SOL     MW18896   1.183   2.517   1.549  0.0719  0.1592  0.4269
 4725SOL     OW18897   3.357   0.264   0.616 -0.0917 -0.1403  0.5375
 4725SOL    HW118898   3.304   0.274   0.536 -0.2570 -0.9490  0.5380
 4725SOL    HW218899   3.331   0.338   0.671 -0.2997  0.1768  0.0223
 4725SOL     MW18900   3.346   0.275   0.613 -0.1419 -0.2065  0.4682
 4726SOL     OW18901   1.657   2.084   3.988  0.1547 -0.1414  0.3129
 4726SOL    HW118902   1.617   2.157   3.940 -0.2861 -0.6767 -0.1542
 4726SOL    HW218903   1.632   2.098   4.079 -1.2542 -0.5529  0.0096
 4726SOL     MW18904   1.648   2.096   3.994 -0.0942 -0.2689  0.2092
 4727SOL     OW18905   2.461   3.752   0.865 -0.6775  0.4393 -0.6821
 4727SOL    HW118906   2.426   3.830   0.822  0.1886  1.5694  0.5447
 4727SOL    HW218907   2.556   3.764   0.862 -0.5324 -0.5256 -0.3656
 4727SOL     MW18908   2.469   3.764   0.859 -0.5414  0.4615 -0.4744
 4728SOL     OW18909   2.440   4.963   1.300  0.1571  0.6854  0.4637
 4728SOL    HW118910   2.532   4.945   1.279 -0.4151 -1.4091 -0.4484
 4728SOL    HW218911   2.390   4.913   1.236 -1.6494 -0.1765  2.4505
 4728SOL     MW18912   2.446   4.954   1.289 -0.1630  0.2875  0.6083
 4729SOL     OW18913  -0.010   2.503   5.371 -0.3297  0.1688  0.3935
 4729SOL    HW118914   0.062   2.439   5.374 -0.6905 -0.2758 -0.1366
 4729SOL    HW218915  -0.038   2.503   5.279 -1.0425  0.2864  0.6031
 4729SOL     MW18916  -0.004   2.494   5.359 -0.4742  0.1248  0.3504
 4730SOL     OW18917   5.340   5.428   2.687  0.2566 -0.0096  0.3822
 4730SOL    HW118918   5.380   5.472   2.611  1.0792 -0.3024  0.6320
 4730SOL    HW218919   5.380   5.341   2.687 -0.0297 -0.1406  0.9319
 4730SOL     MW18920   5.351   5.422   2.677  0.3288 -0.0667  0.4898
 4731SOL     OW18921   0.498   5.188   2.600  0.0164  0.9573  0.1762
 4731SOL    HW118922   0.495   5.261   2.539 -0.2913  1.2933  0.5890
 4731SOL    HW218923   0.545   5.119   2.553  0.0093  1.3015 -0.3389
 4731SOL     MW18924   0.504   5.189   2.586 -0.0260  1.0488  0.1625
 4732SOL     OW18925   4.821   4.934   1.975 -0.8461 -0.3058 -0.2140
 4732SOL    HW118926   4.800   4.977   1.893  0.7019 -3.3489 -2.4287
 4732SOL    HW218927   4.906   4.970   2.000 -1.1177  0.3162 -0.1790
 4732SOL     MW18928   4.830   4.945   1.967 -0.6743 -0.6316 -0.5073
 4733SOL     OW18929   0.923   1.026   1.110 -0.2978 -0.2578 -0.3417
 4733SOL    HW118930   1.013   1.024   1.079  0.0426  0.3270  0.5716
 4733SOL    HW218931   0.915   0.948   1.165 -0.4383 -0.4634 -0.6517
 4733SOL     MW18932   0.934   1.015   1.113 -0.2709 -0.2068 -0.2605
 4734SOL     OW18933   0.901   3.461   0.745  0.0796 -0.1077 -0.4623
 4734SOL    HW118934   0.921   3.532   0.805  1.3272 -1.3774  0.7113
 4734SOL    HW218935   0.811   3.437   0.764  0.0956  0.2624  0.1006
 4734SOL     MW18936   0.892   3.467   0.756  0.2497 -0.2288 -0.2286
 4735SOL     OW18937   1.740   5.222   4.263 -0.3806  0.3658  0.5766
 4735SOL    HW118938   1.759   5.315   4.249 -0.5749  0.2556 -0.5422
 4735SOL    HW218939   1.814   5.189   4.313  0.4272  0.8040 -0.3044
 4735SOL     MW18940   1.752   5.230   4.268 -0.2981  0.4099  0.3075
 4736SOL     OW18941   0.797   3.472   3.280 -0.4147  0.0010  0.0566
 4736SOL    HW118942   0.796   3.480   3.185  1.1529 -3.6674 -0.4253
 4736SOL    HW218943   0.874   3.523   3.307 -0.4493  0.4777 -0.7277
 4736SOL     MW18944   0.807   3.480   3.271 -0.2084 -0.4285 -0.1138
 4737SOL     OW18945   4.349   3.718   4.376  0.2025  0.1017  0.1296
 4737SOL    HW118946   4.313   3.629   4.375 -0.1305  0.2379  0.1120
 4737SOL    HW218947   4.300   3.764   4.443 -0.6236  0.6858 -0.8496
 4737SOL     MW18948   4.338   3.712   4.385  0.0465  0.1986 -0.0046
 4738SOL     OW18949   4.997   0.759   3.813  0.3019  0.9812 -0.2159
 4738SOL    HW118950   4.993   0.663   3.813  1.1753  0.9386 -0.5158
 4738SOL    HW218951   4.969   0.784   3.725 -0.7969  1.0571  0.1370
 4738SOL     MW18952   4.993   0.749   3.801  0.2716  0.9857 -0.2088
 4739SOL     OW18953   4.071   2.277   1.100  0.0118  0.4406 -0.0269
 4739SOL    HW118954   3.980   2.249   1.102 -0.3945  1.6354 -0.8037
 4739SOL    HW218955   4.085   2.309   1.011  1.2757  0.0408  0.0032
 4739SOL     MW18956   4.061   2.278   1.089  0.1272  0.5476 -0.1274
 4740SOL     OW18957   2.892   2.707   2.537  0.1121 -0.3006 -0.0521
 4740SOL    HW118958   2.967   2.749   2.495 -0.0094 -0.2292 -0.1986
 4740SOL    HW218959   2.890   2.619   2.500  0.2079 -0.3486  0.0571
 4740SOL     MW18960   2.902   2.701   2.527  0.1086 -0.2975 -0.0571
 4741SOL     OW18961   4.113   2.761   4.637 -0.0274 -0.2531  0.1792
 4741SOL    HW118962   4.155   2.688   4.591  1.7178  0.2102  0.9776
 4741SOL    HW218963   4.024   2.762   4.602 -0.1664 -2.8401  0.2090
 4741SOL     MW18964   4.107   2.751   4.626  0.1888 -0.5389  0.2906
 4742SOL     OW18965   0.566   0.329   1.267 -0.3468  0.2734  0.1299
 4742SOL    HW118966   0.547   0.238   1.243  1.8898 -0.5757  1.2470
 4742SOL    HW218967   0.592   0.324   1.359 -0.4754  2.1186  0.3015
 4742SOL     MW18968   0.567   0.316   1.277 -0.0631  0.4075  0.3034
 4743SOL     OW18969   4.991   0.792   0.136  0.0341  0.1219 -0.2863
 4743SOL    HW118970   4.981   0.865   0.197 -2.2480 -0.8302  0.5791
 4743SOL    HW218971   5.077   0.756   0.156  0.1487  1.0431  1.0248
 4743SOL     MW18972   5.001   0.797   0.147 -0.2576  0.1177  0.0066
 4744SOL     OW18973   3.578   1.579   3.955 -0.0800  0.1130 -0.1460
 4744SOL    HW118974   3.606   1.655   3.903 -1.0698  1.1976  0.8577
 4744SOL    HW218975   3.490   1.602   3.985 -0.0884 -1.1070  0.8214
 4744SOL     MW18976   3.570   1.592   3.952 -0.2143  0.0948  0.1193
 4745SOL     OW18977   3.887   1.309   3.520 -0.2656 -0.4836  0.1395
 4745SOL    HW118978   3.892   1.232   3.465  1.2690  0.5351 -1.2435
 4745SOL    HW218979   3.971   1.312   3.566 -0.6117 -0.0619  0.7662
 4745SOL     MW18980   3.899   1.299   3.519 -0.1057 -0.2898  0.0377
 4746SOL     OW18981   3.026   4.560   2.502  0.2951 -0.1357 -0.5339
 4746SOL    HW118982   3.008   4.624   2.571 -0.3911 -0.3512 -0.5071
 4746SOL    HW218983   3.045   4.614   2.425 -1.7530  0.1381 -0.9020
 4746SOL     MW18984   3.026   4.576   2.501 -0.0728 -0.1279 -0.5799
 4747SOL     OW18985   0.688   0.299   1.519 -0.4054 -0.5111  0.2454
 4747SOL    HW118986   0.765   0.266   1.565  0.0110 -1.8993 -1.3566
 4747SOL    HW218987   0.673   0.386   1.556  0.5885 -1.0898  2.1402
 4747SOL     MW18988   0.696   0.306   1.530 -0.2156 -0.7758  0.2848
 4748SOL     OW18989   0.174   4.266   3.292 -0.5665 -0.1354 -1.0537
 4748SOL    HW118990   0.267   4.287   3.281 -0.7263  1.9055  0.8192
 4748SOL    HW218991   0.172   4.171   3.296  1.6100 -0.2068  0.0138
 4748SOL     MW18992   0.186   4.256   3.291 -0.2951  0.1297 -0.6580
 4749SOL     OW18993   1.522   5.297   5.236 -0.0037  0.5390  0.0428
 4749SOL    HW118994   1.597   5.355   5.225 -0.0154  0.6661  0.6118
 4749SOL    HW218995   1.451   5.340   5.188  0.7613 -0.5469 -2.1928
 4749SOL     MW18996   1.523   5.311   5.228  0.0977  0.4100 -0.1815
 4750SOL     OW18997   2.067   0.976   1.583  0.6954  0.3013  0.5545
 4750SOL    HW118998   2.006   0.991   1.511  0.1340 -1.7360  0.5540
 4750SOL    HW218999   2.041   1.040   1.650 -0.9837 -0.0470  0.2755
 4750SOL     MW19000   2.055   0.987   1.582  0.3938 -0.0198  0.5169
 4751SOL     OW19001   3.318   1.242   3.087 -0.0167 -0.4499 -0.1524
 4751SOL    HW119002   3.246   1.304   3.081  0.5996  0.2838 -0.1108
 4751SOL    HW219003   3.384   1.275   3.025  0.8766 -0.2739  0.8524
 4751SOL     MW19004   3.318   1.255   3.078  0.1864 -0.3275 -0.0116
 4752SOL     OW19005   1.668   3.085   1.717 -0.0398 -0.2988  0.3997
 4752SOL    HW119006   1.745   3.043   1.756  0.0190  0.6454  1.3538
 4752SOL    HW219007   1.614   3.012   1.686 -0.9554 -1.2666  3.8638
 4752SOL     MW19008   1.671   3.070   1.718 -0.1551 -0.3020  0.9943
 4753SOL     OW19009   3.015   1.756   4.010 -0.4436 -0.1045  0.5197
 4753SOL    HW119010   3.108   1.735   4.000 -0.5994 -0.1662 -1.0796
 4753SOL    HW219011   3.004   1.772   4.103  1.6266  2.1167  0.4879
 4753SOL     MW19012   3.026   1.755   4.021 -0.1859  0.1861  0.3002
 4754SOL     OW19013   3.083   0.037   1.230 -0.3433  0.3276  0.0204
 4754SOL    HW119014   2.998   0.078   1.244  0.0569  1.1684  0.0610
 4754SOL    HW219015   3.121   0.030   1.317  0.4005  1.6899 -0.1728
 4754SOL     MW19016   3.077   0.041   1.244 -0.1894  0.6241 -0.0001
 4755SOL     OW19017   2.990   0.060   3.261 -0.3629 -0.1243 -0.0752
 4755SOL    HW119018   2.953  -0.028   3.259  0.6542 -0.5572 -0.9737
 4755SOL    HW219019   3.045   0.062   3.339 -0.2939 -0.3269 -0.1189
 4755SOL     MW19020   2.992   0.048   3.271 -0.2167 -0.2098 -0.2020
 4756SOL     OW19021   4.280   4.132  -0.003 -0.1831 -0.2649 -0.0615
 4756SOL    HW119022   4.209   4.115  -0.064  0.3358  1.9048 -1.3774
 4756SOL    HW219023   4.263   4.074   0.071 -3.7058  0.6495  0.0128
 4756SOL     MW19024   4.268   4.122  -0.001 -0.5873  0.1502 -0.2286
 4757SOL     OW19025   0.227   3.979   1.449  0.2576 -0.1704 -0.1199
 4757SOL    HW119026   0.206   4.039   1.521  1.0638 -0.8154  0.6794
 4757SOL    HW219027   0.142   3.947   1.419 -0.0972  0.1398  0.5265
 4757SOL     MW19028   0.213   3.983   1.455  0.3183 -0.2154  0.0747
 4758SOL     OW19029   3.655   1.151   4.053 -0.0545 -0.0018 -0.8135
 4758SOL    HW119030   3.584   1.124   4.112 -2.0852  0.3176 -2.9480
 4758SOL    HW219031   3.703   1.071   4.035  1.3147  0.0667  2.0095
 4758SOL     MW19032   3.652   1.137   4.059 -0.1435  0.0504 -0.7209
 4759SOL     OW19033   2.377   3.375   2.448  0.2398 -0.3304 -0.1368
 4759SOL    HW119034   2.353   3.328   2.527 -0.1982  1.0840  0.6047
 4759SOL    HW219035   2.467   3.348   2.431  0.7658  0.2345  1.5484
 4759SOL     MW19036   2.386   3.365   2.456  0.2516 -0.0640  0.1898
 4760SOL     OW19037   1.547   4.805   3.289 -0.2166 -0.1919  0.5043
 4760SOL    HW119038   1.534   4.783   3.197  0.7814  0.4978  0.1796
 4760SOL    HW219039   1.483   4.751   3.336 -0.6466 -0.6501 -0.5736
 4760SOL     MW19040   1.536   4.795   3.283 -0.1401 -0.1607  0.3155
 4761SOL     OW19041   3.776   1.905   0.301  0.4599 -1.0679  0.1217
 4761SOL    HW119042   3.847   1.872   0.244 -0.1118 -0.3165 -1.0630
 4761SOL    HW219043   3.720   1.956   0.242  0.2089  0.3115  1.5048
 4761SOL     MW19044   3.778   1.907   0.285  0.3492 -0.7811  0.1484
 4762SOL     OW19045   2.078   3.306   1.011  0.3795 -0.4010  0.6297
 4762SOL    HW119046   2.130   3.316   0.932 -0.3543 -1.3390  0.0029
 4762SOL    HW219047   2.136   3.261   1.072  0.4007 -1.2410  0.0133
 4762SOL     MW19048   2.093   3.301   1.009  0.2836 -0.6403  0.4624
 4763SOL     OW19049   2.073   0.203   1.546  0.4159  0.2724  0.5983
 4763SOL    HW119050   2.080   0.174   1.455  1.4395  1.6461  0.2029
 4763SOL    HW219051   2.047   0.295   1.540  1.9854  0.8295  1.6205
 4763SOL     MW19052   2.070   0.211   1.533  0.7649  0.5322  0.6826
 4764SOL     OW19053   4.358   1.612   3.475 -0.9088  0.0377 -0.3721
 4764SOL    HW119054   4.328   1.535   3.426 -1.0185 -0.9519  1.1841
 4764SOL    HW219055   4.401   1.666   3.409  1.9454 -2.7618 -1.0621
 4764SOL     MW19056   4.360   1.609   3.459 -0.5394 -0.4722 -0.2555
 4765SOL     OW19057   1.224   5.134   2.483  0.0358  0.3561  0.1658
 4765SOL    HW119058   1.157   5.125   2.550  1.4909  2.4137  2.0666
 4765SOL    HW219059   1.307   5.136   2.532  1.4528 -1.2447 -1.9970
 4765SOL     MW19060   1.226   5.133   2.499  0.4224  0.4176  0.1305
 4766SOL     OW19061   3.967   1.871   2.008  0.9044 -0.0229 -0.5175
 4766SOL    HW119062   3.998   1.820   2.084 -1.2282  0.1849  0.5629
 4766SOL    HW219063   3.986   1.962   2.031  0.3024  0.0363 -0.2416
 4766SOL     MW19064   3.974   1.876   2.022  0.5364  0.0130 -0.3350
 4767SOL     OW19065   4.614   4.451   0.648 -0.0791  0.2535  0.7092
 4767SOL    HW119066   4.555   4.434   0.574  0.1677 -0.4251  0.6563
 4767SOL    HW219067   4.701   4.431   0.614 -0.0424 -0.8669  1.4105
 4767SOL     MW19068   4.618   4.446   0.633 -0.0409  0.0114  0.7964
 4768SOL     OW19069   0.149   0.150   4.373  0.1690  0.0319  0.0702
 4768SOL    HW119070   0.233   0.191   4.393  0.5118 -0.4669 -0.3250
 4768SOL    HW219071   0.092   0.222   4.347  0.7456  0.2631 -0.5614
 4768SOL     MW19072   0.153   0.165   4.372  0.2927 -0.0041 -0.0680
 4769SOL     OW19073   1.536   5.072   1.527 -0.3434 -0.2270  0.3129
 4769SOL    HW119074   1.449   5.044   1.498 -0.2762 -0.5923  0.4538
 4769SOL    HW219075   1.584   5.090   1.447  0.1328 -2.0848  0.1213
 4769SOL     MW19076   1.531   5.070   1.513 -0.2703 -0.5262  0.3061
 4770SOL     OW19077   2.092   1.244   1.309  0.1722 -0.8123 -0.4324
 4770SOL    HW119078   2.180   1.254   1.274 -0.4553  2.0538 -1.5052
 4770SOL    HW219079   2.035   1.245   1.232 -0.8780 -1.1135  0.3164
 4770SOL     MW19080   2.096   1.246   1.294 -0.0536 -0.4671 -0.4760
 4771SOL     OW19081   4.436   1.081   0.792  0.1144 -0.4287  0.1820
 4771SOL    HW119082   4.350   1.038   0.788  0.6782 -1.5791 -0.2219
 4771SOL    HW219083   4.496   1.010   0.816  1.0352  0.2288 -0.1457
 4771SOL     MW19084   4.432   1.065   0.794  0.3142 -0.4951  0.0835
 4772SOL     OW19085   4.295   5.358   0.687  0.1828 -0.2350 -0.0159
 4772SOL    HW119086   4.215   5.306   0.683  0.2393 -0.5136  1.7271
 4772SOL    HW219087   4.265   5.447   0.704  0.2297 -0.2975  0.3994
 4772SOL     MW19088   4.280   5.363   0.689  0.1967 -0.2809  0.2746
 4773SOL     OW19089  -0.002   1.565   4.107  0.2640  0.0025  0.1406
 4773SOL    HW119090  -0.007   1.470   4.101 -0.3267  0.1079 -1.3470
 4773SOL    HW219091   0.050   1.592   4.031 -0.2520  0.9278  0.1021
 4773SOL     MW19092   0.005   1.556   4.096  0.1151  0.1412 -0.0648
 4774SOL     OW19093   1.849   2.014   0.132  0.3695  0.3229 -0.0564
 4774SOL    HW119094   1.838   1.960   0.054  2.3174  0.1188 -0.2469
 4774SOL    HW219095   1.769   2.001   0.182  0.8990 -3.1056  0.1150
 4774SOL     MW19096   1.837   2.005   0.128  0.7029 -0.1659 -0.0590
 4775SOL     OW19097   4.523   0.147   0.456 -0.3119 -0.3234  0.2262
 4775SOL    HW119098   4.508   0.052   0.463  2.1860 -0.8054 -0.0213
 4775SOL    HW219099   4.524   0.178   0.547 -0.2114 -0.7199  0.3641
 4775SOL     MW19100   4.521   0.138   0.469  0.0378 -0.4416  0.2114
 4776SOL     OW19101   2.333   2.919   3.826 -0.2537 -0.1628  0.1138
 4776SOL    HW119102   2.400   2.945   3.889  0.7793 -2.0971 -0.0870
 4776SOL    HW219103   2.378   2.920   3.742 -0.8571 -0.2070 -0.2116
 4776SOL     MW19104   2.348   2.922   3.823 -0.1959 -0.4290  0.0430
 4777SOL     OW19105   0.869   2.158   0.543 -0.3135 -0.0143  0.1139
 4777SOL    HW119106   0.957   2.196   0.551  0.1544 -1.0273 -0.0818
 4777SOL    HW219107   0.868   2.086   0.606 -1.2360  0.3789  0.5699
 4777SOL     MW19108   0.881   2.154   0.553 -0.3747 -0.0977  0.1489
 4778SOL     OW19109   3.949   2.068   3.003 -0.4815 -0.1942  0.1257
 4778SOL    HW119110   3.915   1.993   3.051 -2.5051 -0.6401 -1.8607
 4778SOL    HW219111   3.964   2.135   3.070  3.1098 -2.7692  2.2765
 4778SOL     MW19112   3.947   2.067   3.019 -0.2705 -0.6007  0.1478
 4779SOL     OW19113   3.473   5.301   2.200  0.0584 -0.2981  0.1413
 4779SOL    HW119114   3.557   5.346   2.208  0.3859 -1.0178  0.8345
 4779SOL    HW219115   3.430   5.344   2.126  1.7198 -0.9987 -1.3025
 4779SOL     MW19116   3.479   5.313   2.191  0.3261 -0.4892  0.0403
 4780SOL     OW19117   4.272   3.615   2.602 -0.3980 -0.1988  0.3022
 4780SOL    HW119118   4.187   3.638   2.640 -1.1521 -0.8332 -0.9308
 4780SOL    HW219119   4.306   3.697   2.568 -0.7425 -0.0171  0.3928
 4780SOL     MW19120   4.265   3.629   2.603 -0.5459 -0.2597  0.1485
 4781SOL     OW19121   3.208   0.864   5.376  0.5637  0.7827  0.2472
 4781SOL    HW119122   3.249   0.948   5.356  0.6219  0.9736  1.1465
 4781SOL    HW219123   3.121   0.886   5.408  0.0933  0.4236 -0.7317
 4781SOL     MW19124   3.202   0.878   5.378  0.5082  0.7601  0.2365
 4782SOL     OW19125   1.347   2.513   0.805 -0.2725  0.2549 -0.0843
 4782SOL    HW119126   1.317   2.493   0.893  2.3433 -0.5713  0.7171
 4782SOL    HW219127   1.296   2.590   0.779 -1.1819  0.4555  2.0760
 4782SOL     MW19128   1.336   2.521   0.813 -0.0428  0.1707  0.3143
 4783SOL     OW19129   3.635   3.947   0.592 -0.4225  0.4035  0.3115
 4783SOL    HW119130   3.709   4.007   0.588  0.0350 -0.0596  1.5076
 4783SOL    HW219131   3.672   3.862   0.567 -1.0302  0.5494 -1.2121
 4783SOL     MW19132   3.650   3.943   0.588 -0.4427  0.3608  0.2675
 4784SOL     OW19133   0.430   4.820   4.180 -0.4793  0.0520 -0.0506
 4784SOL    HW119134   0.507   4.767   4.201 -0.8158 -0.0261  1.0839
 4784SOL    HW219135   0.415   4.804   4.087  0.6365 -0.2361 -0.2013
 4784SOL     MW19136   0.438   4.810   4.170 -0.3744  0.0027  0.0818
 4785SOL     OW19137   0.990   0.639   3.451  0.7385 -0.4725  0.0074
 4785SOL    HW119138   0.967   0.615   3.361 -0.0381  0.2069  0.0072
 4785SOL    HW219139   1.073   0.685   3.444  0.9597 -0.9122 -0.2918
 4785SOL     MW19140   0.998   0.642   3.438  0.6637 -0.4402 -0.0329
 4786SOL     OW19141   3.051   5.449   3.006  0.0069  0.3833  0.0864
 4786SOL    HW119142   3.037   5.501   3.086 -1.6666  0.4585 -0.2189
 4786SOL    HW219143   3.070   5.514   2.939  0.1628  0.4187  0.1637
 4786SOL     MW19144   3.051   5.465   3.008 -0.1973  0.3982  0.0557
 4787SOL     OW19145   0.051   5.323   5.040  0.7268  0.1768 -0.0882
 4787SOL    HW119146   0.137   5.284   5.030 -0.3706 -1.8561 -2.7394
 4787SOL    HW219147  -0.010   5.258   5.004 -1.6627  2.5583 -0.7245
 4787SOL     MW19148   0.054   5.309   5.034  0.2575  0.2237 -0.5306
 4788SOL     OW19149   3.248   1.266   0.431 -0.2730  0.5579  0.3687
 4788SOL    HW119150   3.268   1.279   0.524 -0.8539 -1.7494  0.8904
 4788SOL    HW219151   3.285   1.180   0.411 -0.1423  1.0202 -1.5664
 4788SOL     MW19152   3.256   1.256   0.441 -0.3336  0.3096  0.1785
 4789SOL     OW19153   0.127   3.417   4.244 -0.2796  0.3752  0.5526
 4789SOL    HW119154   0.133   3.495   4.299  0.7007  1.1113 -0.5614
 4789SOL    HW219155   0.218   3.387   4.236 -0.6131 -0.7463  0.7504
 4789SOL     MW19156   0.140   3.423   4.250 -0.1925  0.3233  0.4293
 4790SOL     OW19157   1.681   5.086   0.610 -0.2745 -0.8715 -0.9846
 4790SOL    HW119158   1.741   5.153   0.577 -1.4622  0.8173  0.1462
 4790SOL    HW219159   1.735   5.007   0.618  1.7627  0.5364 -0.1652
 4790SOL     MW19160   1.696   5.084   0.606 -0.1602 -0.4547 -0.7222
 4791SOL     OW19161   3.684   4.500   3.770  0.1011 -0.1032 -0.0233
 4791SOL    HW119162   3.778   4.502   3.791  0.1714  2.2821 -0.3305
 4791SOL    HW219163   3.651   4.423   3.817  2.1543 -0.8715  0.2732
 4791SOL     MW19164   3.692   4.490   3.779  0.3869  0.1144 -0.0247
 4792SOL     OW19165   5.298   1.638   3.488 -0.0245 -0.0020 -0.1080
 4792SOL    HW119166   5.308   1.734   3.492 -1.2167  0.1352 -0.2317
 4792SOL    HW219167   5.311   1.609   3.578  1.4027  0.1401 -0.2318
 4792SOL     MW19168   5.301   1.647   3.501  0.0071  0.0356 -0.1413
 4793SOL     OW19169   3.278   2.605   3.249  0.0547  0.4697  0.1501
 4793SOL    HW119170   3.274   2.543   3.175 -0.1186  0.2364  0.3531
 4793SOL    HW219171   3.187   2.616   3.276  0.1740  0.0820  0.7165
 4793SOL     MW19172   3.265   2.598   3.243  0.0474  0.3862  0.2536
 4794SOL     OW19173   3.068   5.064   2.421  0.1342  0.3253 -0.2220
 4794SOL    HW119174   2.989   5.015   2.397  0.8352  0.0364 -2.1519
 4794SOL    HW219175   3.108   5.012   2.490 -1.6064  0.7664  1.1982
 4794SOL     MW19176   3.062   5.050   2.427 -0.0057  0.3458 -0.2906
 4795SOL     OW19177   1.794   4.683   0.201 -0.0560 -0.0108 -0.3435
 4795SOL    HW119178   1.828   4.615   0.259  0.0052  0.7605  0.5639
 4795SOL    HW219179   1.867   4.703   0.142  0.0278 -0.5024 -0.4124
 4795SOL     MW19180   1.809   4.677   0.201 -0.0365  0.0268 -0.2307
 4796SOL     OW19181   0.498   2.766   4.127 -0.2943 -0.2899  0.1398
 4796SOL    HW119182   0.542   2.800   4.048 -1.2345 -0.1561 -0.3442
 4796SOL    HW219183   0.478   2.845   4.178  0.0814 -0.3569  0.3955
 4796SOL     MW19184   0.501   2.781   4.123 -0.3703 -0.2809  0.1091
 4797SOL     OW19185   2.897   2.730   4.888  0.0266 -0.4104 -0.2197
 4797SOL    HW119186   2.967   2.723   4.823 -0.5939 -0.9253 -0.8616
 4797SOL    HW219187   2.870   2.822   4.885  1.0016 -0.0924  0.4009
 4797SOL     MW19188   2.903   2.742   4.879  0.0743 -0.4369 -0.2226
 4798SOL     OW19189   4.347   4.192   2.827  0.4884  0.0157 -0.3708
 4798SOL    HW119190   4.373   4.227   2.742  2.9668 -0.0774  0.2740
 4798SOL    HW219191   4.430   4.170   2.870 -0.7061 -0.2343  1.9426
 4798SOL     MW19192   4.362   4.193   2.822  0.6612 -0.0305  0.0273
 4799SOL     OW19193   1.454   2.348   0.484  0.7935 -0.2203 -0.1118
 4799SOL    HW119194   1.534   2.356   0.432  0.6810  2.1494 -0.0286
 4799SOL    HW219195   1.383   2.355   0.420  0.6316 -1.0368 -0.0356
 4799SOL     MW19196   1.455   2.350   0.468  0.7565 -0.0113 -0.0904
 4800SOL     OW19197   3.301   5.477   5.234 -0.0108 -0.1470 -0.3728
 4800SOL    HW119198   3.273   5.475   5.326 -1.1401 -0.4008 -0.7053
 4800SOL    HW219199   3.396   5.480   5.238 -0.0618  0.3894  0.8136
 4800SOL     MW19200   3.310   5.477   5.247 -0.1696 -0.1090 -0.2579
 4801SOL     OW19201   1.394   1.966   3.711 -0.0109  0.2102  0.5197
 4801SOL    HW119202   1.312   1.972   3.663  0.3242  1.7195  0.0837
 4801SOL    HW219203   1.456   2.018   3.660  0.4057  1.7304  2.4618
 4801SOL     MW19204   1.391   1.973   3.698  0.0903  0.6179  0.7224
 4802SOL     OW19205   1.168   1.030   3.284  0.1245  0.3297  0.1171
 4802SOL    HW119206   1.245   1.081   3.262  0.1988  0.0356 -0.3241
 4802SOL    HW219207   1.117   1.086   3.343  0.3700  0.7706 -0.0892
 4802SOL     MW19208   1.171   1.044   3.289  0.1675  0.3495  0.0300
 4803SOL     OW19209   4.463   0.313   3.495 -0.5620  0.1210  0.1750
 4803SOL    HW119210   4.519   0.301   3.571 -0.4171  0.0088  0.0495
 4803SOL    HW219211   4.464   0.229   3.450  0.3461  0.5462 -0.6262
 4803SOL     MW19212   4.471   0.300   3.499 -0.4203  0.1632  0.0503
 4804SOL     OW19213   0.788   3.734   1.362 -0.3871 -0.1467 -0.5458
 4804SOL    HW119214   0.814   3.731   1.454 -3.2662  0.1207  0.3884
 4804SOL    HW219215   0.738   3.653   1.349 -1.2941  0.5309 -1.4064
 4804SOL     MW19216   0.785   3.723   1.373 -0.8967 -0.0195 -0.5359
 4805SOL     OW19217   5.098   1.430   2.122 -0.4326  0.5303 -0.3763
 4805SOL    HW119218   5.066   1.340   2.125 -0.7282  0.6320 -0.4491
 4805SOL    HW219219   5.191   1.422   2.141 -0.5866  0.2800  0.3256
 4805SOL     MW19220   5.106   1.417   2.125 -0.4931  0.5103 -0.2916
 4806SOL     OW19221   4.776   2.585   1.611  0.3211  0.2673  0.0361
 4806SOL    HW119222   4.799   2.668   1.653 -0.9824  0.9890 -0.5966
 4806SOL    HW219223   4.788   2.519   1.679  0.2846  1.1260  0.9034
 4806SOL     MW19224   4.781   2.587   1.626  0.1408  0.4800  0.0677
 4807SOL     OW19225   3.567   1.227   0.309  0.1708 -0.8489 -0.1743
 4807SOL    HW119226   3.609   1.273   0.381 -3.0588  1.5778  0.3433
 4807SOL    HW219227   3.520   1.155   0.350 -0.0789 -0.6592 -0.1297
 4807SOL     MW19228   3.567   1.223   0.324 -0.2974 -0.4968 -0.0987
 4808SOL     OW19229   4.358   3.497   5.381  0.2555  0.3181 -0.0921
 4808SOL    HW119230   4.448   3.505   5.350  0.0268  1.1038 -0.5933
 4808SOL    HW219231   4.358   3.418   5.435  1.6492  1.1936  1.3102
 4808SOL     MW19232   4.370   3.488   5.384  0.4123  0.5416  0.0292
 4809SOL     OW19233   2.761   4.960   0.248  0.2836  0.2095 -0.1118
 4809SOL    HW119234   2.837   4.907   0.222  2.5969  3.6515 -1.1218
 4809SOL    HW219235   2.690   4.929   0.191  0.7253 -3.1873  0.9201
 4809SOL     MW19236   2.762   4.948   0.237  0.6544  0.2156 -0.1089
 4810SOL     OW19237   3.084   4.080   3.732 -0.2688 -0.0777  0.2099
 4810SOL    HW119238   3.090   4.163   3.685  0.3293  0.7670  1.7341
 4810SOL    HW219239   3.157   4.028   3.697 -0.1060  0.3706 -0.1221
 4810SOL     MW19240   3.095   4.084   3.721 -0.1664  0.0963  0.3703
 4811SOL     OW19241   2.362   1.083   1.009  0.2272 -0.0942 -0.0157
 4811SOL    HW119242   2.288   1.118   0.959  0.8654 -0.6519 -1.3876
 4811SOL    HW219243   2.394   1.158   1.059 -1.4347  0.0877  0.8462
 4811SOL     MW19244   2.356   1.098   1.009  0.0895 -0.1448 -0.0843
 4812SOL     OW19245   4.402   0.622   0.490  0.3459 -0.5195 -0.2116
 4812SOL    HW119246   4.436   0.638   0.578 -2.4577  0.3458  0.8190
 4812SOL    HW219247   4.470   0.656   0.432  0.5974  2.6693  1.7196
 4812SOL     MW19248   4.415   0.629   0.494  0.0024  0.0261  0.1870
 4813SOL     OW19249   0.245   3.592   0.419 -0.3156 -0.4228  0.1285
 4813SOL    HW119250   0.258   3.530   0.347 -1.2644  0.9973 -1.3203
 4813SOL    HW219251   0.330   3.594   0.464  1.3761  0.9753 -2.8645
 4813SOL     MW19252   0.259   3.584   0.415 -0.2156 -0.0435 -0.4693
 4814SOL     OW19253   2.877   3.078   0.453  0.0999 -0.6231 -0.0982
 4814SOL    HW119254   2.929   3.097   0.375  0.0455  0.0529  0.0252
 4814SOL    HW219255   2.938   3.033   0.512 -0.1536 -2.1435 -0.9547
 4814SOL     MW19256   2.892   3.075   0.450  0.0584 -0.7367 -0.1969
 4815SOL     OW19257   0.693   1.040   4.679  0.0861  0.1262  0.2252
 4815SOL    HW119258   0.738   0.964   4.714 -0.1630 -0.3315 -0.4208
 4815SOL    HW219259   0.720   1.043   4.587 -1.0068 -0.0194 -0.1164
 4815SOL     MW19260   0.703   1.030   4.671 -0.0945  0.0450  0.0923
 4816SOL     OW19261   3.674   0.051   3.896  0.1994  0.2064  0.6283
 4816SOL    HW119262   3.749   0.106   3.875  0.6555 -0.8696 -0.6288
 4816SOL    HW219263   3.707  -0.011   3.960  0.5156 -0.5451 -0.2503
 4816SOL     MW19264   3.688   0.050   3.902  0.3033 -0.0395  0.3409
 4817SOL     OW19265   5.382   4.966   2.786  0.1715 -0.2899  0.5347
 4817SOL    HW119266   5.415   4.981   2.875  1.2863  0.3567  0.0255
 4817SOL    HW219267   5.426   4.886   2.757  2.0359  1.0227 -0.4545
 4817SOL     MW19268   5.392   4.957   2.794  0.5724 -0.0262  0.3331
 4818SOL     OW19269   0.133   3.033   4.468 -0.3494  0.2034  0.1592
 4818SOL    HW119270   0.179   3.108   4.504 -0.9395  1.6973 -1.9797
 4818SOL    HW219271   0.096   3.065   4.385 -0.2955 -2.5575 -1.0517
 4818SOL     MW19272   0.134   3.047   4.461 -0.4216  0.0329 -0.2916
 4819SOL     OW19273   4.832   1.707   5.361 -0.0230 -0.2941  0.2731
 4819SOL    HW119274   4.776   1.745   5.293 -1.5725  0.8488  2.1012
 4819SOL    HW219275   4.772   1.661   5.420  1.0902 -0.1151  1.6046
 4819SOL     MW19276   4.816   1.706   5.360 -0.0817 -0.1162  0.6983
 4820SOL     OW19277   2.613   3.927   2.403  0.3803 -0.0717  0.7131
 4820SOL    HW119278   2.610   3.930   2.499  1.6343  0.0642  0.7618
 4820SOL    HW219279   2.679   3.991   2.379 -1.4624  1.5239 -0.3978
 4820SOL     MW19280   2.621   3.936   2.413  0.3010  0.1613  0.5702
 4821SOL     OW19281   2.295   0.558   1.706  0.4098 -0.1391 -0.1420
 4821SOL    HW119282   2.338   0.557   1.621 -0.5677  0.8109 -0.6649
 4821SOL    HW219283   2.222   0.619   1.696  0.0437 -0.3053  1.2631
 4821SOL     MW19284   2.291   0.566   1.694  0.2290 -0.0336 -0.0233
 4822SOL     OW19285   1.090   0.138   5.366 -0.4069 -0.3416 -0.1725
 4822SOL    HW119286   1.038   0.064   5.398 -0.4281  0.2206  1.1818
 4822SOL    HW219287   1.090   0.129   5.271  0.9666 -3.0144 -0.0018
 4822SOL     MW19288   1.083   0.127   5.357 -0.2249 -0.6256  0.0327
 4823SOL     OW19289   4.835   1.467   0.259  0.4252 -0.0483 -0.0399
 4823SOL    HW119290   4.775   1.393   0.254  2.2902 -1.5528 -2.2663
 4823SOL    HW219291   4.900   1.441   0.325 -0.4578  0.9181  1.2615
 4823SOL     MW19292   4.836   1.454   0.267  0.5574 -0.1207 -0.1644
 4824SOL     OW19293   4.504   2.302   4.987  0.1572  0.0146 -0.2130
 4824SOL    HW119294   4.476   2.364   4.919  0.9655  0.5890 -0.0296
 4824SOL    HW219295   4.484   2.216   4.950 -0.8953  0.3676 -0.5052
 4824SOL     MW19296   4.497   2.299   4.973  0.1243  0.1394 -0.2277
 4825SOL     OW19297   4.761   2.180   5.308 -0.2380  0.2977 -0.0047
 4825SOL    HW119298   4.819   2.116   5.350 -0.7035  0.0932  0.3329
 4825SOL    HW219299   4.757   2.252   5.370  0.6851  0.8857 -0.6070
 4825SOL     MW19300   4.768   2.181   5.322 -0.1764  0.3493 -0.0403
 4826SOL     OW19301   2.375   4.616   5.395  0.1112 -0.1631  0.0178
 4826SOL    HW119302   2.441   4.552   5.368  0.7229  0.2299  0.5409
 4826SOL    HW219303   2.374   4.681   5.324  0.7220  0.1405  0.2776
 4826SOL     MW19304   2.384   4.616   5.382  0.2758 -0.0694  0.1231
 4827SOL     OW19305   2.482   2.735   2.467  0.0850  0.0829  0.1348
 4827SOL    HW119306   2.413   2.670   2.481  0.1273  0.0223  0.0629
 4827SOL    HW219307   2.541   2.694   2.404 -1.7872  1.5370 -2.7825
 4827SOL     MW19308   2.480   2.721   2.460 -0.1613  0.2704 -0.2675
 4828SOL     OW19309   4.347   1.175   2.640  0.0503  0.3648  0.3063
 4828SOL    HW119310   4.401   1.108   2.596 -0.4011  0.8094 -0.9693
 4828SOL    HW219311   4.312   1.131   2.717 -0.9182 -1.1553 -0.9517
 4828SOL     MW19312   4.350   1.160   2.644 -0.1408  0.2200 -0.0347
 4829SOL     OW19313   0.962   1.154   1.344  0.3095 -0.3202 -0.3686
 4829SOL    HW119314   0.972   1.115   1.257 -0.6587 -2.0975  0.2581
 4829SOL    HW219315   0.874   1.128   1.371  0.3571  0.7518  0.8928
 4829SOL     MW19316   0.951   1.145   1.336  0.1856 -0.4151 -0.1145
 4830SOL     OW19317   3.240  -0.017   5.497  0.2482 -0.3571 -0.0023
 4830SOL    HW119318   3.282   0.061   5.532 -1.1364  0.5764 -0.3455
 4830SOL    HW219319   3.148   0.006   5.490 -0.1181 -1.8579 -0.5898
 4830SOL     MW19320   3.233  -0.003   5.500  0.0126 -0.4335 -0.1275
 4831SOL     OW19321   0.744   4.667   2.359  0.7624 -0.1804  0.4616
 4831SOL    HW119322   0.675   4.684   2.423 -0.0869 -0.4726 -0.3496
 4831SOL    HW219323   0.713   4.709   2.279  1.4681 -0.4258  0.0468
 4831SOL     MW19324   0.731   4.675   2.357  0.7431 -0.2527  0.2966
 4832SOL     OW19325   3.865   1.755   0.739  0.2306 -0.0449  0.2635
 4832SOL    HW119326   3.903   1.781   0.655  0.7631 -1.8147 -0.0722
 4832SOL    HW219327   3.773   1.781   0.733  0.6009  1.2473 -0.2261
 4832SOL     MW19328   3.858   1.762   0.727  0.3521 -0.1092  0.1525
 4833SOL     OW19329   5.178   2.244   4.089  0.0459 -0.1934 -0.3124
 4833SOL    HW119330   5.186   2.235   3.994  1.0498  1.4701 -0.4302
 4833SOL    HW219331   5.090   2.278   4.103 -0.3326 -1.0246 -0.5666
 4833SOL     MW19332   5.167   2.247   4.078  0.1301 -0.0814 -0.3625
 4834SOL     OW19333   2.586   5.416   0.186 -0.4878 -0.2470  0.5178
 4834SOL    HW119334   2.642   5.338   0.189 -1.7294 -1.3495 -2.2507
 4834SOL    HW219335   2.647   5.488   0.173  0.4630 -1.3976 -2.2371
 4834SOL     MW19336   2.602   5.415   0.185 -0.5269 -0.5502 -0.2255
 4835SOL     OW19337   4.096   2.124   5.244 -0.1064 -0.0057 -0.1554
 4835SOL    HW119338   4.168   2.186   5.231 -1.2821  1.1008 -1.9454
 4835SOL    HW219339   4.070   2.101   5.155 -1.0894 -1.4402  0.4802
 4835SOL     MW19340   4.102   2.129   5.230 -0.3969 -0.0498 -0.3108
 4836SOL     OW19341   0.784   2.181   2.603  0.0460 -0.6420 -0.1137
 4836SOL    HW119342   0.731   2.242   2.551 -1.2234 -0.5862  1.2133
 4836SOL    HW219343   0.874   2.204   2.581 -0.4405  0.4229 -1.1024
 4836SOL     MW19344   0.789   2.192   2.593 -0.1903 -0.4912 -0.0682
 4837SOL     OW19345   3.886   4.730   2.512 -0.3745  0.3708 -0.5156
 4837SOL    HW119346   3.844   4.784   2.579 -1.0429 -1.5261  0.6844
 4837SOL    HW219347   3.845   4.757   2.430 -0.7017  1.6314  0.0399
 4837SOL     MW19348   3.875   4.741   2.510 -0.5085  0.2851 -0.2793
 4838SOL     OW19349   0.955   1.842   2.280  0.4628 -0.1608  0.3048
 4838SOL    HW119350   0.933   1.832   2.372  0.5407  0.1697  0.3625
 4838SOL    HW219351   0.922   1.929   2.257 -1.8177 -1.2088 -0.6405
 4838SOL     MW19352   0.948   1.853   2.289  0.1664 -0.2574  0.1854
 4839SOL     OW19353   1.677   0.669   5.229 -0.0882  0.7299  0.6597
 4839SOL    HW119354   1.707   0.598   5.171 -0.9437 -0.3738  1.5406
 4839SOL    HW219355   1.583   0.658   5.234 -0.1496  1.5179  1.3803
 4839SOL     MW19356   1.669   0.658   5.222 -0.2116  0.6874  0.8752
 4840SOL     OW19357   3.216   4.376   2.595  0.6669  0.9744  0.6553
 4840SOL    HW119358   3.157   4.426   2.538 -1.2084  0.3597  1.9435
 4840SOL    HW219359   3.207   4.285   2.565  0.8643  0.8632  0.9242
 4840SOL     MW19360   3.207   4.370   2.583  0.4411  0.8767  0.8648
 4841SOL     OW19361   0.772   1.807   4.927 -0.0934  0.7633  0.6361
 4841SOL    HW119362   0.687   1.838   4.957 -0.1220 -0.0027  1.3555
 4841SOL    HW219363   0.797   1.738   4.988  0.8726  0.7089  0.2115
 4841SOL     MW19364   0.764   1.802   4.939  0.0328  0.6529  0.6758
 4842SOL     OW19365   0.619   4.108   1.281 -0.1186  0.6148 -0.7704
 4842SOL    HW119366   0.533   4.072   1.256 -0.0468  0.3020 -0.5593
 4842SOL    HW219367   0.626   4.092   1.375  0.8648 -0.8139 -1.0624
 4842SOL     MW19368   0.608   4.101   1.290  0.0234  0.3804 -0.7813
 4843SOL     OW19369   3.977   3.900   1.550  0.2959  0.5541  0.3857
 4843SOL    HW119370   4.050   3.962   1.560  0.9471  0.2712 -1.9416
 4843SOL    HW219371   4.019   3.818   1.525 -0.6974 -0.3350  1.4940
 4843SOL     MW19372   3.993   3.897   1.548  0.2499  0.3964  0.2216
 4844SOL     OW19373   1.653   2.330   1.320 -0.2882  0.3948  0.0765
 4844SOL    HW119374   1.606   2.307   1.240 -0.9277  1.2392  0.2003
 4844SOL    HW219375   1.584   2.347   1.385  0.2012  0.7300  0.5206
 4844SOL     MW19376   1.638   2.329   1.318 -0.3084  0.5535  0.1529
 4845SOL     OW19377   4.220   1.071   5.458  0.1357  0.2256  0.2258
 4845SOL    HW119378   4.162   0.995   5.464  0.0859  0.3705  2.2261
 4845SOL    HW219379   4.288   1.054   5.524  0.0488  1.9517  0.7984
 4845SOL     MW19380   4.221   1.058   5.468  0.1173  0.4774  0.5721
 4846SOL     OW19381   0.279   3.127   1.608 -0.2699  0.1358 -0.3433
 4846SOL    HW119382   0.227   3.116   1.528  1.2335  1.4636 -1.5648
 4846SOL    HW219383   0.328   3.046   1.616 -1.1905 -0.4184 -0.1671
 4846SOL     MW19384   0.278   3.115   1.598 -0.1915  0.2399 -0.4840
 4847SOL     OW19385   3.075   0.138   3.827  0.3334  0.1850  0.2884
 4847SOL    HW119386   3.055   0.194   3.902  1.2222  1.2088 -0.2158
 4847SOL    HW219387   3.137   0.189   3.775 -1.3912  0.1444 -1.9261
 4847SOL     MW19388   3.081   0.152   3.830  0.2209  0.3173 -0.0775
 4848SOL     OW19389   0.914   0.720   3.832  0.2784  0.1115  0.4954
 4848SOL    HW119390   0.846   0.676   3.781  0.8794 -0.3747  0.0989
 4848SOL    HW219391   0.958   0.649   3.879  2.7405 -0.0918 -1.8856
 4848SOL     MW19392   0.911   0.704   3.831  0.6906  0.0187  0.1216
 4849SOL     OW19393   0.259   1.823   1.999 -0.0129  0.3980 -0.4395
 4849SOL    HW119394   0.209   1.905   2.001 -0.4428  0.1373 -0.2288
 4849SOL    HW219395   0.249   1.787   2.087 -1.2023 -0.6863 -0.9798
 4849SOL     MW19396   0.251   1.829   2.011 -0.2308  0.2170 -0.4838
 4850SOL     OW19397   1.542   1.796   1.058 -0.2217 -0.4073 -0.1370
 4850SOL    HW119398   1.637   1.803   1.058 -0.1445 -1.2747  0.0411
 4850SOL    HW219399   1.521   1.758   0.973 -0.3940 -0.3644 -0.1142
 4850SOL     MW19400   1.552   1.792   1.047 -0.2345 -0.5182 -0.1099
 4851SOL     OW19401   1.111   1.067   1.544 -0.2730 -0.1272 -0.1291
 4851SOL    HW119402   1.189   1.025   1.509 -0.5903 -0.6112 -0.2701
 4851SOL    HW219403   1.065   1.101   1.467 -0.0105  0.5088 -0.0160
 4851SOL     MW19404   1.115   1.066   1.529 -0.2804 -0.1067 -0.1328
 4852SOL     OW19405   4.132   3.010   5.114  0.0245 -0.0651  0.4394
 4852SOL    HW119406   4.163   3.087   5.161 -0.4815  0.2962  0.1983
 4852SOL    HW219407   4.053   2.983   5.162  0.5908 -0.8613  0.9415
 4852SOL     MW19408   4.126   3.016   5.127  0.0326 -0.1236  0.4745
 4853SOL     OW19409   1.055   0.198   4.267  0.0021 -0.2047  0.3636
 4853SOL    HW119410   1.120   0.137   4.301  0.5272  0.6249  0.8827
 4853SOL    HW219411   1.099   0.242   4.194 -0.0125  0.2533  0.6242
 4853SOL     MW19412   1.070   0.196   4.262  0.0708 -0.0314  0.4686
 4854SOL     OW19413   5.473   5.189   2.642  0.1336  0.3690  0.4782
 4854SOL    HW119414   5.410   5.129   2.682  1.0874 -0.3740  0.8741
 4854SOL    HW219415   5.558   5.146   2.651  1.0259  2.3023  1.8440
 4854SOL     MW19416   5.476   5.175   2.648  0.3821  0.5292  0.7153
 4855SOL     OW19417   3.489   3.651   1.106  0.0315 -0.2920  0.2689
 4855SOL    HW119418   3.538   3.681   1.183  0.4370 -0.1553 -0.0377
 4855SOL    HW219419   3.446   3.570   1.136 -0.5860  0.2613  0.9156
 4855SOL     MW19420   3.490   3.644   1.121  0.0030 -0.1992  0.3147
 4856SOL     OW19421   4.270   5.410   2.755 -0.7225 -0.3435  0.0407
 4856SOL    HW119422   4.210   5.393   2.683 -0.2546  1.2239 -0.7659
 4856SOL    HW219423   4.218   5.459   2.819 -0.5934  0.0726 -0.1714
 4856SOL     MW19424   4.255   5.414   2.754 -0.6421 -0.0765 -0.0964
 4857SOL     OW19425   2.412   2.196   2.952  0.4245  0.3487 -0.6963
 4857SOL    HW119426   2.361   2.272   2.981 -0.2257 -0.2526 -0.2353
 4857SOL    HW219427   2.385   2.183   2.861  1.2923  1.2715 -1.1105
 4857SOL     MW19428   2.401   2.205   2.944  0.4538  0.3919 -0.6900
 4858SOL     OW19429   4.215   4.079   1.632  0.0575  0.5081 -0.7848
 4858SOL    HW119430   4.178   4.162   1.603 -2.0109 -0.7239 -1.8829
 4858SOL    HW219431   4.272   4.052   1.560 -0.2441  0.4018 -0.9874
 4858SOL     MW19432   4.218   4.087   1.618 -0.2615  0.3280 -0.9599
 4859SOL     OW19433   4.870   2.816   1.749  0.0138  0.1596 -0.6096
 4859SOL    HW119434   4.933   2.757   1.790  1.2594  1.0702 -1.1751
 4859SOL    HW219435   4.919   2.896   1.731 -0.9817  0.4633 -2.1706
 4859SOL     MW19436   4.885   2.819   1.752  0.0474  0.3230 -0.8957
 4860SOL     OW19437   1.977   1.810   3.103  0.1131  0.2975 -0.1158
 4860SOL    HW119438   2.072   1.814   3.113  0.0469 -0.1017  0.7556
 4860SOL    HW219439   1.942   1.834   3.189 -0.5568 -0.3101 -0.2027
 4860SOL     MW19440   1.985   1.814   3.116  0.0140  0.1620 -0.0102
 4861SOL     OW19441   3.700   2.115   2.939 -0.7131 -0.5724 -0.6276
 4861SOL    HW119442   3.693   2.161   2.854  1.5599  0.0509 -0.5427
 4861SOL    HW219443   3.794   2.101   2.950 -0.9942 -0.8817  1.6825
 4861SOL     MW19444   3.712   2.119   2.929 -0.4450 -0.5301 -0.3053
 4862SOL     OW19445   5.371   5.009   4.052  0.4320 -0.4595  0.0636
 4862SOL    HW119446   5.349   4.916   4.041  1.5554 -0.6521 -0.6115
 4862SOL    HW219447   5.441   5.009   4.117  1.2051 -0.1854 -0.7562
 4862SOL     MW19448   5.377   4.996   4.059  0.6872 -0.4485 -0.1376
 4863SOL     OW19449   1.862   2.615   2.245  0.7372 -0.4162  0.2183
 4863SOL    HW119450   1.770   2.601   2.225  0.7831 -0.8514  0.2965
 4863SOL    HW219451   1.884   2.697   2.201  0.4331 -0.5515 -0.1921
 4863SOL     MW19452   1.853   2.624   2.236  0.7025 -0.4930  0.1736
 4864SOL     OW19453   3.647   5.283   1.782  0.0501 -0.0515  0.2979
 4864SOL    HW119454   3.580   5.236   1.830  1.2793 -1.4193  0.7720
 4864SOL    HW219455   3.715   5.301   1.846  0.7830 -0.0281 -0.4591
 4864SOL     MW19456   3.647   5.279   1.797  0.3142 -0.2324  0.2598
 4865SOL     OW19457   2.428   1.557   0.420  0.5678 -0.2837  0.1816
 4865SOL    HW119458   2.416   1.498   0.345 -2.2060  2.0418 -1.3988
 4865SOL    HW219459   2.488   1.625   0.388  0.0256  0.2746  0.3226
 4865SOL     MW19460   2.435   1.558   0.405  0.1215  0.1044 -0.0121
 4866SOL     OW19461   2.877   5.443   3.894 -0.2651  0.0777 -0.4504
 4866SOL    HW119462   2.938   5.515   3.878  0.2693 -0.1787  0.3385
 4866SOL    HW219463   2.898   5.414   3.983  0.0163 -1.5236 -1.0063
 4866SOL     MW19464   2.888   5.448   3.904 -0.1553 -0.1723 -0.4190
 4867SOL     OW19465   2.152   3.407   4.595  0.5028 -0.1276 -0.1693
 4867SOL    HW119466   2.130   3.348   4.523 -0.0153 -1.3366  0.9457
 4867SOL    HW219467   2.068   3.429   4.635  0.7499  0.8499 -0.1493
 4867SOL     MW19468   2.138   3.402   4.591  0.4663 -0.1587 -0.0165
 4868SOL     OW19469   1.128   0.671   4.029 -0.3551  0.1799 -0.1019
 4868SOL    HW119470   1.048   0.662   4.081  0.4284 -1.0341  0.9356
 4868SOL    HW219471   1.121   0.603   3.962 -0.3748  0.3536 -0.2778
 4868SOL     MW19472   1.116   0.661   4.027 -0.2523  0.0399  0.0140
 4869SOL     OW19473   3.796   3.300   2.070 -0.4666  0.1692  0.1598
 4869SOL    HW119474   3.874   3.354   2.058 -0.5562  0.0866 -0.8388
 4869SOL    HW219475   3.750   3.340   2.144 -1.7676  2.9392 -1.9923
 4869SOL     MW19476   3.800   3.313   2.079 -0.6538  0.5309 -0.2642
 4870SOL     OW19477   4.547   1.095   4.998 -0.0105 -0.0198 -0.5630
 4870SOL    HW119478   4.638   1.119   5.017 -0.4346  0.3613  1.1403
 4870SOL    HW219479   4.508   1.081   5.084 -1.1230 -1.9060 -1.3210
 4870SOL     MW19480   4.554   1.096   5.012 -0.2173 -0.2224 -0.4358
 4871SOL     OW19481   1.698   4.354   5.209 -0.4896  0.0366 -0.3347
 4871SOL    HW119482   1.629   4.289   5.197  0.4827 -1.3957  1.4216
 4871SOL    HW219483   1.651   4.431   5.243 -1.2878 -0.7754  0.4634
 4871SOL     MW19484   1.682   4.356   5.212 -0.4662 -0.2655  0.0091
 4872SOL     OW19485   2.053   0.729   2.775 -0.0057  0.5859 -0.2970
 4872SOL    HW119486   1.970   0.704   2.734 -0.3509  1.4589 -0.1542
 4872SOL    HW219487   2.118   0.720   2.706 -0.3173  0.4904 -0.5803
 4872SOL     MW19488   2.050   0.724   2.760 -0.0941  0.6905 -0.3159
 4873SOL     OW19489   1.144   3.768   2.885  0.2619  0.1192 -0.0854
 4873SOL    HW119490   1.196   3.796   2.961  0.1097  0.2541 -0.0279
 4873SOL    HW219491   1.053   3.779   2.914  0.2034  0.1018 -0.2622
 4873SOL     MW19492   1.139   3.774   2.899  0.2335  0.1350 -0.1014
 4874SOL     OW19493   1.181   2.322   5.356 -0.3310 -0.2470 -0.2530
 4874SOL    HW119494   1.106   2.351   5.304 -0.3568 -0.5430 -0.3816
 4874SOL    HW219495   1.143   2.270   5.427 -0.3637  0.7833  0.5260
 4874SOL     MW19496   1.166   2.319   5.359 -0.3389 -0.1482 -0.1654
 4875SOL     OW19497   3.365   4.252   4.303  0.3450 -0.5224  0.1428
 4875SOL    HW119498   3.394   4.255   4.394 -0.5308 -0.4915  0.4297
 4875SOL    HW219499   3.369   4.343   4.274 -3.1955  0.1715  1.4140
 4875SOL     MW19500   3.370   4.264   4.311 -0.2493 -0.4249  0.3525
 4876SOL     OW19501   3.427   4.055   2.121 -0.5863  0.4942 -0.2082
 4876SOL    HW119502   3.387   3.986   2.173 -0.3518  1.9446  2.0029
 4876SOL    HW219503   3.520   4.032   2.119 -0.3384  1.2353  1.4179
 4876SOL     MW19504   3.434   4.042   2.128 -0.5214  0.7891  0.3082
 4877SOL     OW19505   4.963   1.380   0.035  0.0851 -0.1524  0.2344
 4877SOL    HW119506   5.011   1.301   0.060  1.8563  1.3632  2.0348
 4877SOL    HW219507   4.909   1.400   0.111  0.2870  0.7864  0.1424
 4877SOL     MW19508   4.962   1.372   0.049  0.3506  0.1779  0.4643
 4878SOL     OW19509   5.456   1.319   1.240  0.1345  0.0669  0.8584
 4878SOL    HW119510   5.472   1.245   1.183  0.6153  0.8723 -0.0805
 4878SOL    HW219511   5.394   1.374   1.191  0.4716  0.7159  1.1442
 4878SOL     MW19512   5.450   1.317   1.226  0.2446  0.2626  0.7705
 4879SOL     OW19513   4.533   3.250   5.210  0.3514 -0.0551 -0.3654
 4879SOL    HW119514   4.446   3.289   5.201  0.7169  0.7820 -0.3814
 4879SOL    HW219515   4.518   3.170   5.260 -0.2253  0.9009  1.0764
 4879SOL     MW19516   4.519   3.245   5.216  0.3230  0.1862 -0.1735
 4880SOL     OW19517   0.172   1.329   3.795  0.0051  0.2266 -0.3102
 4880SOL    HW119518   0.170   1.278   3.714 -0.3066 -3.2812  1.7056
 4880SOL    HW219519   0.256   1.307   3.836 -0.7477  0.1766  1.3074
 4880SOL     MW19520   0.183   1.320   3.790 -0.1381 -0.2522  0.1788
 4881SOL     OW19521   3.522   1.091   1.571 -0.5418  0.3307  0.2315
 4881SOL    HW119522   3.612   1.118   1.555 -0.1525 -0.7593  0.5398
 4881SOL    HW219523   3.525   1.044   1.654 -1.3367 -0.0067  0.0750
 4881SOL     MW19524   3.534   1.089   1.580 -0.5964  0.1386  0.2520
 4882SOL     OW19525   1.865   5.145   1.866  0.3262 -0.7208  0.2221
 4882SOL    HW119526   1.792   5.187   1.821  0.0199 -1.6252 -0.1698
 4882SOL    HW219527   1.891   5.074   1.806 -0.0924 -1.9677  1.4595
 4882SOL     MW19528   1.859   5.141   1.852  0.2286 -1.0103  0.3359
 4883SOL     OW19529   4.321   3.528   3.990 -0.0222 -0.6271  0.2317
 4883SOL    HW119530   4.391   3.503   3.930 -0.2508 -0.6828 -0.0142
 4883SOL    HW219531   4.331   3.469   4.065  1.0361  0.2598  0.8212
 4883SOL     MW19532   4.332   3.517   3.992  0.0895 -0.5152  0.2780
 4884SOL     OW19533   1.471   1.212   2.299  0.2014  0.4315  0.0119
 4884SOL    HW119534   1.389   1.164   2.292  0.3570  0.0282  0.7918
 4884SOL    HW219535   1.462   1.285   2.239 -0.4966  0.0638 -0.3378
 4884SOL     MW19536   1.459   1.215   2.290  0.1284  0.3277  0.0698
 4885SOL     OW19537   4.695   2.809   1.951 -0.2775 -0.0839 -0.4913
 4885SOL    HW119538   4.744   2.864   2.012  0.7476  0.1247 -1.4627
 4885SOL    HW219539   4.745   2.813   1.869 -0.6928 -1.6935 -0.8692
 4885SOL     MW19540   4.708   2.817   1.948 -0.1954 -0.2724 -0.6729
 4886SOL     OW19541   0.963   2.436   5.234 -0.8175 -0.5016  0.2415
 4886SOL    HW119542   0.892   2.403   5.291 -1.8832  0.6715 -0.3607
 4886SOL    HW219543   0.980   2.524   5.266 -0.0664 -0.5399 -0.0447
 4886SOL     MW19544   0.955   2.443   5.246 -0.8599 -0.3489  0.1220
 4887SOL     OW19545   4.527   4.247   2.377  0.1282  0.4791  0.7149
 4887SOL    HW119546   4.604   4.240   2.434 -0.6645 -0.3751  1.6995
 4887SOL    HW219547   4.534   4.172   2.318 -0.6814 -0.4235  1.7380
 4887SOL     MW19548   4.539   4.236   2.377 -0.0874  0.2427  0.9851
 4888SOL     OW19549   4.001   2.719   0.898 -0.8268  0.3256 -0.3282
 4888SOL    HW119550   3.945   2.725   0.975  0.2008  0.1479  0.4546
 4888SOL    HW219551   4.063   2.792   0.907  0.0451 -0.3935 -0.3627
 4888SOL     MW19552   4.002   2.730   0.909 -0.5712  0.2049 -0.2275
 4889SOL     OW19553   4.008   3.411   4.308 -0.3794  0.0500 -0.1072
 4889SOL    HW119554   3.990   3.503   4.289 -0.3883 -0.2109 -1.4993
 4889SOL    HW219555   3.947   3.389   4.378 -1.3541  0.7369 -0.7155
 4889SOL     MW19556   3.997   3.421   4.315 -0.5118  0.1074 -0.3764
 4890SOL     OW19557   4.606   0.877   0.875 -0.1628 -0.0445 -0.1834
 4890SOL    HW119558   4.539   0.838   0.930 -0.5831 -0.9467 -1.3029
 4890SOL    HW219559   4.670   0.913   0.937 -0.6670 -0.9272  0.8797
 4890SOL     MW19560   4.606   0.877   0.891 -0.2872 -0.2847 -0.1910
 4891SOL     OW19561   5.390   5.499   1.671  0.0212 -0.2353  0.6453
 4891SOL    HW119562   5.406   5.405   1.672  0.0289 -0.2618 -0.3950
 4891SOL    HW219563   5.304   5.508   1.629 -0.3612  0.1734  1.5061
 4891SOL     MW19564   5.380   5.488   1.665 -0.0293 -0.1839  0.6211
 4892SOL     OW19565   0.851   2.301   3.777 -0.1084  0.3011  0.0876
 4892SOL    HW119566   0.792   2.227   3.767  1.5595 -1.2148  0.8872
 4892SOL    HW219567   0.847   2.323   3.870 -0.6449  1.2841 -0.1560
 4892SOL     MW19568   0.843   2.294   3.788  0.0439  0.2294  0.1624
 4893SOL     OW19569   2.574   3.853   3.191  0.2930 -0.6338 -0.0996
 4893SOL    HW119570   2.528   3.775   3.223 -0.2070 -0.1931  0.2864
 4893SOL    HW219571   2.659   3.821   3.162 -0.7871 -1.7422 -2.2971
 4893SOL     MW19572   2.579   3.838   3.192  0.0803 -0.7237 -0.3434
 4894SOL     OW19573   1.444   1.879   3.968 -1.1679 -0.0766 -0.2182
 4894SOL    HW119574   1.392   1.925   3.902 -0.8860 -0.7866 -0.9528
 4894SOL    HW219575   1.524   1.930   3.976 -2.2417  1.4664  1.4828
 4894SOL     MW19576   1.447   1.892   3.961 -1.2745  0.0355 -0.0882
 4895SOL     OW19577   3.433   3.258   2.997 -0.5664  0.0727  0.4807
 4895SOL    HW119578   3.462   3.321   3.063 -1.4654  1.0611 -0.0362
 4895SOL    HW219579   3.398   3.185   3.048 -2.9599  1.5949  1.1928
 4895SOL     MW19580   3.432   3.257   3.013 -1.0095  0.4106  0.5070
 4896SOL     OW19581   2.592   4.690   0.203  1.0607  0.2409 -0.1906
 4896SOL    HW119582   2.593   4.765   0.144 -1.1882  0.3411 -0.2011
 4896SOL    HW219583   2.684   4.667   0.215  1.6357  0.0690 -3.8960
 4896SOL     MW19584   2.604   4.697   0.197  0.8355  0.2312 -0.6907
 4897SOL     OW19585   4.969   4.502   3.029 -0.1322 -0.4233 -0.1034
 4897SOL    HW119586   4.899   4.557   2.993  0.6377  0.3232 -0.5138
 4897SOL    HW219587   5.023   4.564   3.079  2.0731 -0.2729 -2.4602
 4897SOL     MW19588   4.967   4.518   3.031  0.2682 -0.3026 -0.4758
 4898SOL     OW19589   4.799   0.660   2.684 -0.1643 -0.6460 -0.1206
 4898SOL    HW119590   4.889   0.632   2.665 -0.1277 -0.5363 -0.1069
 4898SOL    HW219591   4.782   0.627   2.772 -0.4927 -1.5520 -0.5028
 4898SOL     MW19592   4.809   0.652   2.693 -0.2036 -0.7532 -0.1702
 4899SOL     OW19593   4.884   2.708   0.798  0.4719  0.4141 -0.2638
 4899SOL    HW119594   4.825   2.716   0.723 -1.5643 -0.0808  1.2003
 4899SOL    HW219595   4.864   2.622   0.836  1.9174  0.3740  0.5013
 4899SOL     MW19596   4.874   2.697   0.793  0.3924  0.3421  0.0362
 4900SOL     OW19597   5.395   4.548   2.882 -0.0701  0.8730 -0.1657
 4900SOL    HW119598   5.304   4.531   2.858  0.3862 -1.3500 -0.5012
 4900SOL    HW219599   5.391   4.574   2.974 -1.0078  0.4270 -0.0690
 4900SOL     MW19600   5.382   4.549   2.891 -0.1349  0.5138 -0.1978
 4901SOL     OW19601   2.779   4.908   4.033 -0.2561  0.1919  0.7265
 4901SOL    HW119602   2.741   4.996   4.045 -1.0662 -0.2862  1.7884
 4901SOL    HW219603   2.811   4.883   4.120  1.0536 -0.1011  0.1874
 4901SOL     MW19604   2.778   4.917   4.046 -0.1888  0.0881  0.7969
 4902SOL     OW19605   3.856   3.939   2.447  0.3590 -0.7251 -0.2865
 4902SOL    HW119606   3.945   3.922   2.416 -0.6110 -1.4091 -2.9668
 4902SOL    HW219607   3.839   4.030   2.423 -0.5593 -1.3915 -2.4535
 4902SOL     MW19608   3.866   3.949   2.440  0.1049 -0.9069 -0.9388
 4903SOL     OW19609   5.071   2.977   2.990  0.0873 -0.1732  0.1490
 4903SOL    HW119610   5.159   3.013   2.980  0.0813 -0.2522 -0.1943
 4903SOL    HW219611   5.015   3.054   3.001  0.3353 -0.1669  1.4569
 4903SOL     MW19612   5.075   2.992   2.990  0.1199 -0.1829  0.2788
 4904SOL     OW19613   1.102   4.817   1.954  0.4599 -0.1416  0.0383
 4904SOL    HW119614   1.028   4.757   1.953 -0.3810  0.8137  1.2542
 4904SOL    HW219615   1.073   4.890   2.009  2.2855  0.2971  0.4892
 4904SOL     MW19616   1.088   4.819   1.961  0.5924  0.0460  0.2626
 4905SOL     OW19617   4.043   4.924   5.172  0.2154 -0.0206  0.1886
 4905SOL    HW119618   4.118   4.908   5.115  0.0612 -0.8486  0.1978
 4905SOL    HW219619   4.009   5.009   5.144  0.6680 -0.0143 -0.3596
 4905SOL     MW19620   4.048   4.933   5.161  0.2555 -0.1312  0.1161
 4906SOL     OW19621   5.236   4.346   3.958 -0.0632 -0.1543 -0.1784
 4906SOL    HW119622   5.241   4.271   3.899 -0.5991  0.6645 -1.3091
 4906SOL    HW219623   5.286   4.415   3.914 -0.1053  0.3447  0.5334
 4906SOL     MW19624   5.244   4.345   3.944 -0.1410  0.0231 -0.2348
 4907SOL     OW19625   2.789   2.187   0.795  0.2924 -0.1629 -0.4876
 4907SOL    HW119626   2.846   2.110   0.799  0.7952  0.2450  0.9167
 4907SOL    HW219627   2.837   2.255   0.844 -0.7049  0.6638 -0.6169
 4907SOL     MW19628   2.803   2.186   0.803  0.2259  0.0033 -0.3160
 4908SOL     OW19629   4.534   0.905   2.940  0.5639  0.0139 -0.4916
 4908SOL    HW119630   4.511   0.822   2.898  0.4605 -0.1875 -0.0399
 4908SOL    HW219631   4.513   0.892   3.032 -1.4903  1.2488 -0.7204
 4908SOL     MW19632   4.528   0.892   2.947  0.2736  0.1530 -0.4616
 4909SOL     OW19633   1.882   0.148   0.234  0.0196  0.3922 -0.4765
 4909SOL    HW119634   1.926   0.156   0.150  2.3084 -0.5383  0.5509
 4909SOL    HW219635   1.854   0.238   0.255  1.1243  0.9684 -1.3709
 4909SOL     MW19636   1.884   0.161   0.226  0.4763  0.3445 -0.4586
 4910SOL     OW19637   2.282   2.126   2.385  0.1455  0.0322 -0.2673
 4910SOL    HW119638   2.284   2.087   2.298  0.5289 -0.6748  0.0494
 4910SOL    HW219639   2.248   2.215   2.371 -0.5912 -0.3574 -1.0212
 4910SOL     MW19640   2.278   2.133   2.372  0.0979 -0.1154 -0.3262
 4911SOL     OW19641   0.590   2.947   1.333 -0.2485 -0.6395  0.0110
 4911SOL    HW119642   0.613   2.877   1.272 -0.8097 -1.9728  1.2521
 4911SOL    HW219643   0.671   2.996   1.345  0.5345 -1.8918  0.0997
 4911SOL     MW19644   0.604   2.944   1.326 -0.2187 -0.9875  0.1900
 4912SOL     OW19645   3.577   0.377   2.352 -0.2571 -0.1832 -0.2705
 4912SOL    HW119646   3.579   0.324   2.273  3.8062 -1.1055  0.2505
 4912SOL    HW219647   3.565   0.313   2.423  1.2282 -0.0482  0.1309
 4912SOL     MW19648   3.576   0.361   2.351  0.4896 -0.2892 -0.1464
 4913SOL     OW19649   1.199   0.954   1.041 -0.2335  0.1105 -0.5960
 4913SOL    HW119650   1.278   0.984   0.996  0.6159 -1.6910 -0.3896
 4913SOL    HW219651   1.181   0.868   1.003 -1.5147  0.0564  0.0845
 4913SOL     MW19652   1.207   0.946   1.030 -0.2916 -0.1393 -0.4766
 4914SOL     OW19653   2.035   4.931   2.481 -0.0120 -0.8198  0.0411
 4914SOL    HW119654   1.973   4.908   2.550  0.4409 -1.7371  0.1517
 4914SOL    HW219655   2.029   5.027   2.474  0.2553 -0.6581  1.6528
 4914SOL     MW19656   2.026   4.941   2.489  0.0850 -0.9214  0.2729
 4915SOL     OW19657   3.147   1.174   1.325 -0.0106 -0.1980 -0.2053
 4915SOL    HW119658   3.216   1.203   1.385  0.2940  0.9084 -1.0560
 4915SOL    HW219659   3.158   1.079   1.319 -0.3399 -0.3987  1.8203
 4915SOL     MW19660   3.158   1.165   1.332 -0.0139 -0.0761 -0.0472
 4916SOL     OW19661   0.248   3.439   0.193 -0.7634  0.4017 -0.2308
 4916SOL    HW119662   0.250   3.363   0.251  0.6261 -1.2906 -2.3466
 4916SOL    HW219663   0.337   3.472   0.193 -0.1736 -0.9478 -2.9198
 4916SOL     MW19664   0.260   3.433   0.201 -0.4970 -0.0077 -0.8775
 4917SOL     OW19665   3.003   5.031   2.924  0.1631 -0.0283 -0.6097
 4917SOL    HW119666   3.058   4.992   2.856  0.2483 -0.8349 -0.0938
 4917SOL    HW219667   3.059   5.094   2.968  0.3207 -0.0175 -0.8268
 4917SOL     MW19668   3.018   5.034   2.921  0.1958 -0.1354 -0.5695
 4918SOL     OW19669   4.411   0.665   5.261 -0.6551 -0.1197 -0.1204
 4918SOL    HW119670   4.374   0.578   5.246  0.1289 -0.6865  1.0427
 4918SOL    HW219671   4.505   0.649   5.272 -0.4000  0.9706 -0.5708
 4918SOL     MW19672   4.419   0.651   5.260 -0.5153 -0.0493 -0.0245
 4919SOL     OW19673   1.255   1.624   0.139  0.2506 -0.0100  0.3986
 4919SOL    HW119674   1.212   1.631   0.054 -0.3333  0.0512  0.6961
 4919SOL    HW219675   1.348   1.635   0.119  0.1460 -0.2392 -0.2618
 4919SOL     MW19676   1.262   1.626   0.125  0.1579 -0.0326  0.3497
 4920SOL     OW19677   1.702   3.353   4.871 -0.0206  0.3165  0.1488
 4920SOL    HW119678   1.788   3.343   4.911  0.0846  2.0501  0.4120
 4920SOL    HW219679   1.717   3.404   4.791 -0.6136 -0.6906 -0.6387
 4920SOL     MW19680   1.715   3.358   4.865 -0.0862  0.4143  0.0783
 4921SOL     OW19681   1.813   3.851   0.394 -0.1577  0.2303  0.6636
 4921SOL    HW119682   1.895   3.854   0.344 -0.0154  1.7990  0.9600
 4921SOL    HW219683   1.815   3.766   0.438  1.1704  0.1217  0.4252
 4921SOL     MW19684   1.824   3.840   0.393  0.0402  0.4268  0.6714
 4922SOL     OW19685   3.236   3.434  -0.028  0.0373 -0.0377 -0.3776
 4922SOL    HW119686   3.288   3.384   0.036 -0.2467 -0.6136 -0.5896
 4922SOL    HW219687   3.157   3.459   0.020 -0.5168 -1.1121 -0.7135
 4922SOL     MW19688   3.233   3.431  -0.013 -0.0755 -0.2598 -0.4513
 4923SOL     OW19689   5.372   2.118   4.848  0.0295  0.1396 -0.1407
 4923SOL    HW119690   5.300   2.158   4.800 -0.2980  0.8116  0.8852
 4923SOL    HW219691   5.448   2.171   4.825 -0.1661  0.5866  0.2315
 4923SOL     MW19692   5.373   2.130   4.838 -0.0409  0.2902  0.0475
 4924SOL     OW19693   2.087   2.876   2.722 -0.6069  0.0426  0.3976
 4924SOL    HW119694   2.085   2.862   2.627  1.6605 -0.9986  0.4646
 4924SOL    HW219695   2.040   2.959   2.734  0.9295  1.3497 -1.8899
 4924SOL     MW19696   2.080   2.886   2.711 -0.0950  0.0784  0.0988
 4925SOL     OW19697   3.977   3.634   5.417 -0.0884 -0.0980  0.1022
 4925SOL    HW119698   4.066   3.640   5.383 -0.4373 -0.1413 -0.8305
 4925SOL    HW219699   3.926   3.596   5.346 -0.9532  0.4043  0.4342
 4925SOL     MW19700   3.982   3.630   5.403 -0.2518 -0.0363  0.0214
 4926SOL     OW19701   3.123   3.404   1.255  0.2348 -0.6089  0.7083
 4926SOL    HW119702   3.064   3.364   1.319  2.5350 -2.7883  1.6437
 4926SOL    HW219703   3.133   3.337   1.187 -0.6561  0.9267 -1.0482
 4926SOL     MW19704   3.116   3.390   1.254  0.4244 -0.6955  0.5978
 4927SOL     OW19705   4.307   0.501   2.432 -0.4737  0.0814 -0.1615
 4927SOL    HW119706   4.387   0.456   2.407  0.5779  0.5223  2.1209
 4927SOL    HW219707   4.336   0.574   2.486 -2.3935  0.2662  0.7313
 4927SOL     MW19708   4.322   0.504   2.436 -0.5905  0.1656  0.2658
 4928SOL     OW19709   0.263   2.445   4.465  0.3787  0.3456 -0.1537
 4928SOL    HW119710   0.347   2.489   4.472 -0.2399  1.4055  1.2097
 4928SOL    HW219711   0.222   2.483   4.387  0.8941  0.3087 -0.4408
 4928SOL     MW19712   0.269   2.456   4.456  0.3648  0.4833 -0.0089
 4929SOL     OW19713   4.561   1.312   3.389 -0.6164  0.3096  0.5737
 4929SOL    HW119714   4.636   1.267   3.350 -1.0525 -1.5282  1.7065
 4929SOL    HW219715   4.598   1.392   3.427  0.5600 -0.0130  0.1442
 4929SOL     MW19716   4.576   1.317   3.389 -0.5168  0.0188  0.6683
 4930SOL     OW19717   1.460   1.348   3.433  0.6935  0.5974  0.1497
 4930SOL    HW119718   1.458   1.435   3.473 -0.8099  0.7880 -0.2952
 4930SOL    HW219719   1.521   1.358   3.359 -0.0346  1.5077 -0.3565
 4930SOL     MW19720   1.468   1.361   3.428  0.3932  0.7456  0.0217
 4931SOL     OW19721   1.344   1.479   1.774  0.6054  0.1292  0.1270
 4931SOL    HW119722   1.334   1.574   1.773 -0.9768  0.0811 -2.8964
 4931SOL    HW219723   1.267   1.447   1.822 -0.7755  0.4006 -1.7574
 4931SOL     MW19724   1.332   1.488   1.780  0.2066  0.1592 -0.5335
 4932SOL     OW19725   3.808   3.275   3.257 -0.3134 -0.3010 -0.8730
 4932SOL    HW119726   3.845   3.197   3.216  1.5097  0.7684 -1.3878
 4932SOL    HW219727   3.860   3.287   3.337 -1.1102 -0.0633 -0.3823
 4932SOL     MW19728   3.820   3.266   3.262 -0.1752 -0.1251 -0.8762
 4933SOL     OW19729   4.887   1.452   2.337 -0.0557 -0.0052  0.2988
 4933SOL    HW119730   4.840   1.535   2.332 -1.5393 -0.7422  1.4525
 4933SOL    HW219731   4.935   1.447   2.255 -0.4870  1.6634 -0.0926
 4933SOL     MW19732   4.887   1.463   2.325 -0.3134  0.1202  0.4014
 4934SOL     OW19733   4.724   2.541   4.024 -0.1141  0.4106  0.1950
 4934SOL    HW119734   4.764   2.592   3.954  0.4392  0.5547  0.6060
 4934SOL    HW219735   4.696   2.606   4.088  0.0036  0.2410  0.4216
 4934SOL     MW19736   4.726   2.557   4.024 -0.0238  0.4072  0.2808
 4935SOL     OW19737   3.022   3.648   0.303  0.1423 -0.0482 -0.1849
 4935SOL    HW119738   3.021   3.739   0.274 -0.4745 -0.3461 -1.1489
 4935SOL    HW219739   2.942   3.639   0.355 -0.5188 -0.3681 -1.2189
 4935SOL     MW19740   3.011   3.659   0.306 -0.0297 -0.1313 -0.4538
 4936SOL     OW19741   3.797   3.777   0.308 -0.2816 -0.3583 -0.1355
 4936SOL    HW119742   3.890   3.794   0.292 -0.6548  0.6012 -1.4086
 4936SOL    HW219743   3.765   3.740   0.225 -0.9424 -1.1408  0.4519
 4936SOL     MW19744   3.805   3.774   0.294 -0.4208 -0.3345 -0.2278
 4937SOL     OW19745   1.817   2.783   4.875 -0.6086 -0.6685  0.1901
 4937SOL    HW119746   1.790   2.874   4.890  0.1448 -0.5916  1.1882
 4937SOL    HW219747   1.799   2.768   4.783  0.1920  0.8144 -0.2411
 4937SOL     MW19748   1.811   2.793   4.865 -0.3995 -0.4586  0.2664
 4938SOL     OW19749   2.335   3.178   2.200 -0.2239  0.3552  0.4461
 4938SOL    HW119750   2.308   3.136   2.118  1.9300  0.1595 -0.2070
 4938SOL    HW219751   2.423   3.210   2.183  0.2621  0.3446  2.6788
 4938SOL     MW19752   2.343   3.176   2.187  0.1314  0.3274  0.6587
 4939SOL     OW19753   3.424   3.933   2.643  0.0408 -0.0592  0.0431
 4939SOL    HW119754   3.421   3.904   2.734  0.3185 -0.9228 -0.2092
 4939SOL    HW219755   3.488   4.005   2.643 -0.2618  0.2166  0.5914
 4939SOL     MW19756   3.433   3.939   2.655  0.0374 -0.1383  0.0829
 4940SOL     OW19757   5.081   0.575   1.557 -0.0388  0.4559  0.3781
 4940SOL    HW119758   5.027   0.575   1.637  2.5544 -0.0824  2.2423
 4940SOL    HW219759   5.166   0.607   1.586  1.2699 -0.6498 -2.0134
 4940SOL     MW19760   5.085   0.580   1.572  0.4863  0.2347  0.3072
 4941SOL     OW19761   1.939   2.260   2.529 -0.9985  0.1998 -0.9155
 4941SOL    HW119762   1.936   2.282   2.436 -1.3228 -0.9389 -1.1925
 4941SOL    HW219763   1.983   2.175   2.532 -0.1064  0.6752  0.0714
 4941SOL     MW19764   1.944   2.252   2.517 -0.9221  0.1105 -0.8200
 4942SOL     OW19765   2.389   3.896   3.970  0.0762 -0.2611  0.1734
 4942SOL    HW119766   2.352   3.981   3.992  0.2001 -0.3203  0.6324
 4942SOL    HW219767   2.331   3.832   4.012  1.0215 -0.3328  1.4359
 4942SOL     MW19768   2.377   3.899   3.978  0.2201 -0.2787  0.4051
 4943SOL     OW19769   3.903   3.816   0.785 -0.5756 -0.1808 -0.4183
 4943SOL    HW119770   3.965   3.754   0.748 -0.7204 -0.0236 -0.9255
 4943SOL    HW219771   3.869   3.772   0.863  0.0393 -0.3379 -0.2291
 4943SOL     MW19772   3.907   3.801   0.791 -0.5123 -0.1808 -0.4611
 4944SOL     OW19773   0.022   0.740   1.245  0.3855  0.1877  0.3820
 4944SOL    HW119774   0.076   0.817   1.262  0.9748 -0.0091 -0.5395
 4944SOL    HW219775   0.024   0.690   1.327 -0.4869  1.4202  1.1956
 4944SOL     MW19776   0.030   0.744   1.258  0.3474  0.3271  0.3675
 4945SOL     OW19777   5.271   5.077   0.389 -0.3609  0.1335  0.4255
 4945SOL    HW119778   5.204   5.140   0.415 -0.3965 -0.2624  1.3158
 4945SOL    HW219779   5.222   5.004   0.349 -0.2789  0.9309 -1.2323
 4945SOL     MW19780   5.255   5.075   0.387 -0.3547  0.1876  0.3222
 4946SOL     OW19781   0.468   4.944   3.712  0.7062 -0.1053  0.4235
 4946SOL    HW119782   0.402   4.911   3.773  0.9511  2.9037  2.5654
 4946SOL    HW219783   0.548   4.896   3.735  0.3510 -0.3369  1.2157
 4946SOL     MW19784   0.470   4.933   3.724  0.6913  0.2685  0.8184
 4947SOL     OW19785   0.215   5.300   3.593  0.4261  0.8050  0.5798
 4947SOL    HW119786   0.175   5.217   3.567  2.1818  0.0033  0.2924
 4947SOL    HW219787   0.299   5.275   3.632  0.5574  2.3975  1.3995
 4947SOL     MW19788   0.221   5.286   3.595  0.6801  0.9115  0.6514
 4948SOL     OW19789   0.871   0.005   4.490 -0.0210 -0.5267 -0.6592
 4948SOL    HW119790   0.966   0.011   4.486 -0.0271 -0.4273 -0.6467
 4948SOL    HW219791   0.844  -0.011   4.399  0.0159 -0.6730 -0.6444
 4948SOL     MW19792   0.880   0.004   4.477 -0.0168 -0.5330 -0.6555
 4949SOL     OW19793   3.448   4.956   2.108 -0.6300  0.5636 -0.0005
 4949SOL    HW119794   3.482   5.003   2.032 -0.9317  0.3222 -0.2866
 4949SOL    HW219795   3.366   5.000   2.128 -1.1229 -0.0930 -0.5257
 4949SOL     MW19796   3.442   4.968   2.100 -0.7369  0.4427 -0.1097
 4950SOL     OW19797   1.909   1.301   0.207  0.2348 -0.3111 -0.3318
 4950SOL    HW119798   1.929   1.326   0.297 -0.8449  0.2888 -0.2383
 4950SOL    HW219799   1.850   1.369   0.176 -0.2273 -1.0649 -1.1597
 4950SOL     MW19800   1.904   1.314   0.215  0.0273 -0.3318 -0.4306
 4951SOL     OW19801   4.821   4.771   5.511  0.3631 -0.7792  0.3428
 4951SOL    HW119802   4.856   4.791   5.424  0.5570 -1.2717  0.2993
 4951SOL    HW219803   4.891   4.720   5.553  0.0435 -1.0271  0.5741
 4951SOL     MW19804   4.835   4.767   5.505  0.3462 -0.8789  0.3681
 4952SOL     OW19805   3.770   4.303   0.295 -0.6935  0.4312 -0.8957
 4952SOL    HW119806   3.845   4.311   0.235 -0.6819  2.5115 -0.6838
 4952SOL    HW219807   3.786   4.371   0.361 -1.6952 -0.5369  0.3796
 4952SOL     MW19808   3.782   4.313   0.296 -0.8267  0.5809 -0.6956
 4953SOL     OW19809   5.133   3.964   2.082  0.2793 -0.1097  0.2143
 4953SOL    HW119810   5.094   4.004   2.160  0.6280  0.3435  0.1605
 4953SOL    HW219811   5.058   3.941   2.027  0.0858  2.2784 -0.6502
 4953SOL     MW19812   5.118   3.967   2.085  0.3002  0.2727  0.0907
 4954SOL     OW19813   3.960   1.586   1.142  0.4828  0.2405  0.2814
 4954SOL    HW119814   3.884   1.613   1.091  0.7322  0.4980  0.0465
 4954SOL    HW219815   4.009   1.667   1.158  0.7699  0.0599  0.3287
 4954SOL     MW19816   3.956   1.600   1.137  0.5550  0.2508  0.2562
 4955SOL     OW19817   3.620   0.309   4.593 -0.6978 -0.2382  0.0782
 4955SOL    HW119818   3.671   0.381   4.555 -2.2411  0.7259 -0.2824
 4955SOL    HW219819   3.620   0.327   4.687 -0.1670 -0.3944  0.1124
 4955SOL     MW19820   3.627   0.321   4.600 -0.8341 -0.1295  0.0343
 4956SOL     OW19821   0.156   1.983   2.502  0.2299  0.2302  0.3096
 4956SOL    HW119822   0.103   2.063   2.504  0.8546  0.6909 -0.7848
 4956SOL    HW219823   0.130   1.935   2.581 -1.6756  0.5140 -0.0961
 4956SOL     MW19824   0.145   1.987   2.513  0.0576  0.3304  0.1077
 4957SOL     OW19825   5.362   3.168   4.008 -0.3017 -0.4868  0.1633
 4957SOL    HW119826   5.419   3.164   4.084  0.3804 -0.4443 -0.3385
 4957SOL    HW219827   5.282   3.211   4.040  0.7653  1.4246  0.3755
 4957SOL     MW19828   5.359   3.173   4.022 -0.0663 -0.2238  0.1243
 4958SOL     OW19829   3.912   0.065   4.515  0.0656  0.5250 -0.1610
 4958SOL    HW119830   3.971  -0.007   4.492  0.2522  0.9738 -1.1716
 4958SOL    HW219831   3.827   0.023   4.528  0.6461 -0.1738  1.6843
 4958SOL     MW19832   3.909   0.050   4.513  0.1688  0.4913 -0.0487
 4959SOL     OW19833   4.500   0.023   2.660  0.1392  0.3301 -0.2345
 4959SOL    HW119834   4.517   0.108   2.699  1.1454  0.0693 -0.0768
 4959SOL    HW219835   4.414  -0.003   2.695  0.4346  0.6800  0.7902
 4959SOL     MW19836   4.491   0.031   2.670  0.3144  0.3421 -0.0754
 4960SOL     OW19837   2.428   2.666   4.184  0.2706 -0.7059  0.3954
 4960SOL    HW119838   2.434   2.752   4.226  0.2144  0.2393 -1.4392
 4960SOL    HW219839   2.410   2.606   4.256 -1.5864  1.0676  1.5218
 4960SOL     MW19840   2.426   2.669   4.200  0.0132 -0.3400  0.3001
 4961SOL     OW19841   4.138   3.719   4.085 -0.5223 -0.1502 -0.3111
 4961SOL    HW119842   4.209   3.663   4.053  0.3545  0.9086 -0.2501
 4961SOL    HW219843   4.181   3.799   4.113 -2.0667  2.0440 -3.6230
 4961SOL     MW19844   4.153   3.722   4.085 -0.6122  0.2876 -0.7486
 4962SOL     OW19845   1.990   4.812   1.020  0.0666 -0.3385 -0.1040
 4962SOL    HW119846   1.964   4.898   0.988 -0.3056 -0.2603  0.3821
 4962SOL    HW219847   2.076   4.827   1.061  0.4909 -0.4200 -0.9567
 4962SOL     MW19848   1.998   4.826   1.021  0.0736 -0.3389 -0.1534
 4963SOL     OW19849   2.634   3.909   4.099  0.6803 -0.1257 -0.0619
 4963SOL    HW119850   2.606   3.947   4.182  0.1409 -1.8627  0.5904
 4963SOL    HW219851   2.554   3.897   4.049  0.9476  0.4479 -0.6371
 4963SOL     MW19852   2.620   3.912   4.104  0.6437 -0.2823 -0.0516
 4964SOL     OW19853   2.585   0.127   1.660 -0.0550  0.0908  0.8549
 4964SOL    HW119854   2.613   0.149   1.748  1.1062 -0.7850  0.7170
 4964SOL    HW219855   2.508   0.182   1.645 -2.0275 -1.7161  3.4496
 4964SOL     MW19856   2.578   0.138   1.670 -0.1642 -0.2702  1.1855
 4965SOL     OW19857   3.693   4.441   4.872 -0.2991 -0.0241 -0.3254
 4965SOL    HW119858   3.601   4.431   4.847  0.0418 -0.1885 -1.5841
 4965SOL    HW219859   3.698   4.530   4.907 -1.1394 -0.3814  0.7677
 4965SOL     MW19860   3.681   4.452   4.874 -0.3663 -0.0943 -0.3477
 4966SOL     OW19861   3.272   3.785   0.725  0.6765 -0.5664  0.0703
 4966SOL    HW119862   3.193   3.734   0.707  0.4277 -0.4765  0.8549
 4966SOL    HW219863   3.331   3.765   0.653 -0.6710  0.6416 -1.4578
 4966SOL     MW19864   3.269   3.776   0.713  0.4616 -0.3917 -0.0297
 4967SOL     OW19865   3.477   1.074   4.228 -0.2030  0.3511  0.0139
 4967SOL    HW119866   3.386   1.045   4.239 -0.3081  0.3236 -0.8467
 4967SOL    HW219867   3.529   0.995   4.237 -0.5667 -0.4956 -3.5872
 4967SOL     MW19868   3.472   1.059   4.230 -0.2661  0.2334 -0.5866
 4968SOL     OW19869   3.187   1.586   2.823 -0.0492 -0.1924  0.0662
 4968SOL    HW119870   3.092   1.581   2.814 -0.0544  0.5472 -0.3462
 4968SOL    HW219871   3.218   1.499   2.797 -0.6966 -0.9109  1.5600
 4968SOL     MW19872   3.178   1.574   2.818 -0.1370 -0.1896  0.2117
 4969SOL     OW19873   3.543   3.897   3.225  0.5370 -0.0585 -0.0511
 4969SOL    HW119874   3.521   3.901   3.132  0.7261 -0.3788 -0.1105
 4969SOL    HW219875   3.470   3.848   3.264  0.4944  0.0131 -0.0389
 4969SOL     MW19876   3.530   3.891   3.218  0.5567 -0.0920 -0.0574
 4970SOL     OW19877   3.050   4.653   4.901 -0.0502 -0.4061 -0.1495
 4970SOL    HW119878   3.030   4.737   4.943 -1.4902 -0.3553 -0.8788
 4970SOL    HW219879   3.146   4.651   4.897  0.0296  0.8494  0.5717
 4970SOL     MW19880   3.061   4.664   4.906 -0.2333 -0.2303 -0.1506
 4971SOL     OW19881   4.690   3.807   0.053 -0.4880 -0.0705 -0.4029
 4971SOL    HW119882   4.673   3.837  -0.036 -1.1735 -0.8023 -0.5320
 4971SOL    HW219883   4.726   3.719   0.043  0.0341  0.0867  0.0213
 4971SOL     MW19884   4.693   3.799   0.040 -0.5100 -0.1478 -0.3632
 4972SOL     OW19885   4.655   3.389   4.210 -0.3088 -0.1862  0.3449
 4972SOL    HW119886   4.688   3.458   4.268  0.4054  0.2067 -0.5064
 4972SOL    HW219887   4.560   3.392   4.221 -0.1821 -0.3050  1.6855
 4972SOL     MW19888   4.647   3.399   4.219 -0.1956 -0.1493  0.4108
 4973SOL     OW19889   3.450   0.123   4.868  0.4592 -0.0221  0.1606
 4973SOL    HW119890   3.380   0.090   4.811  1.4206 -0.9344 -0.5442
 4973SOL    HW219891   3.456   0.216   4.848 -0.9654  0.2104  0.7046
 4973SOL     MW19892   3.441   0.131   4.858  0.3968 -0.1136  0.1389
 4974SOL     OW19893   4.566   4.874   5.471 -0.1003  0.4764 -0.2356
 4974SOL    HW119894   4.500   4.822   5.517  0.4526 -0.2598 -0.2470
 4974SOL    HW219895   4.642   4.816   5.466  0.8838  1.6528  0.6416
 4974SOL     MW19896   4.567   4.859   5.476  0.1065  0.5356 -0.1191
 4975SOL     OW19897   5.416   4.102   4.769 -0.2057  0.0222  0.0320
 4975SOL    HW119898   5.383   4.018   4.736  1.1580 -0.0977 -1.1170
 4975SOL    HW219899   5.351   4.129   4.834 -0.9141 -1.7016  0.1073
 4975SOL     MW19900   5.403   4.094   4.773 -0.1175 -0.2259 -0.1125
 4976SOL     OW19901   2.058   4.962   3.385  0.8599  0.8903  0.0263
 4976SOL    HW119902   2.035   5.030   3.448 -0.2131 -0.4598  1.1684
 4976SOL    HW219903   2.076   4.885   3.439 -0.1139 -0.3282 -1.3086
 4976SOL     MW19904   2.057   4.961   3.401  0.5844  0.5446  0.0003
 4977SOL     OW19905   2.544   3.748   0.324 -0.5583 -0.2544  0.0790
 4977SOL    HW119906   2.480   3.729   0.256  0.6435 -0.6120 -0.9902
 4977SOL    HW219907   2.568   3.662   0.359 -0.3954 -0.1494  0.2244
 4977SOL     MW19908   2.539   3.734   0.320 -0.3746 -0.2884 -0.0454
 4978SOL     OW19909   3.768   4.771   2.013  0.7247  0.3716 -0.5462
 4978SOL    HW119910   3.710   4.704   1.978 -0.7214  2.1820 -1.8197
 4978SOL    HW219911   3.756   4.766   2.108  0.5942 -1.0807 -0.6248
 4978SOL     MW19912   3.758   4.762   2.021  0.5125  0.4198 -0.7281
 4979SOL     OW19913   4.280   0.529   1.023 -0.2120 -0.4639  0.0865
 4979SOL    HW119914   4.243   0.559   0.939  0.8227  1.9175  0.4106
 4979SOL    HW219915   4.218   0.559   1.089 -0.3145 -1.0957  0.2845
 4979SOL     MW19916   4.267   0.537   1.020 -0.0866 -0.2284  0.1567
 4980SOL     OW19917   1.639   5.255   1.076 -0.0666 -0.2870  0.8322
 4980SOL    HW119918   1.651   5.193   1.148 -0.3791 -1.1334  0.1747
 4980SOL    HW219919   1.577   5.212   1.018 -0.6395  0.8447  0.5750
 4980SOL     MW19920   1.632   5.241   1.078 -0.1858 -0.2486  0.7091
 4981SOL     OW19921   0.092   3.589   2.551  0.1309 -0.3548  0.1483
 4981SOL    HW119922   0.063   3.578   2.641  0.6558 -0.9460  0.2524
 4981SOL    HW219923   0.021   3.553   2.498 -0.2913  0.2326  0.3139
 4981SOL     MW19924   0.079   3.583   2.556  0.1447 -0.3553  0.1846
 4982SOL     OW19925   0.819   1.794   1.438  0.2467 -0.3835  0.5137
 4982SOL    HW119926   0.843   1.701   1.439  0.9652 -0.2788 -1.3352
 4982SOL    HW219927   0.898   1.839   1.406 -0.6787  0.6165 -0.4897
 4982SOL     MW19928   0.833   1.788   1.434  0.2188 -0.2349  0.1299
 4983SOL     OW19929   1.601   0.830   3.520 -0.2538  0.2107 -0.2849
 4983SOL    HW119930   1.674   0.890   3.534 -0.4771  0.8885 -1.8106
 4983SOL    HW219931   1.566   0.814   3.608  0.5330  1.3858  0.2709
 4983SOL     MW19932   1.606   0.836   3.534 -0.1779  0.4601 -0.4154
 4984SOL     OW19933   4.974   2.418   3.105  0.3313  0.2164  0.1363
 4984SOL    HW119934   5.045   2.477   3.077  1.0427 -1.1389 -1.0469
 4984SOL    HW219935   4.937   2.461   3.182  1.8322  1.4341  0.2406
 4984SOL     MW19936   4.979   2.432   3.112  0.6291  0.1979 -0.0089
 4985SOL     OW19937   4.050   2.192   0.473  0.1976 -0.2486 -0.5753
 4985SOL    HW119938   3.961   2.180   0.508  0.2301 -0.2204 -0.4839
 4985SOL    HW219939   4.051   2.282   0.440  0.4473  0.0284  0.1639
 4985SOL     MW19940   4.038   2.202   0.473  0.2356 -0.2075 -0.4635
 4986SOL     OW19941   2.862   1.532   4.697  0.2575 -0.8554  0.2907
 4986SOL    HW119942   2.855   1.451   4.648  0.9958 -0.1051 -1.1057
 4986SOL    HW219943   2.815   1.597   4.644  2.0316  0.2253 -0.0313
 4986SOL     MW19944   2.855   1.530   4.683  0.5956 -0.6090  0.0594
 4987SOL     OW19945   2.825   4.841   4.287  0.2785 -0.0968  0.3782
 4987SOL    HW119946   2.891   4.836   4.356 -0.1193 -1.2817  0.6906
 4987SOL    HW219947   2.751   4.887   4.328  0.2215 -0.3823  0.5997
 4987SOL     MW19948   2.824   4.847   4.302  0.2173 -0.2946  0.4501
 4988SOL     OW19949   2.475   1.546   1.573  0.1758  0.1636  0.1424
 4988SOL    HW119950   2.542   1.580   1.631  2.2040 -2.6982 -0.3092
 4988SOL    HW219951   2.425   1.484   1.626 -0.8101  0.7385 -0.0794
 4988SOL     MW19952   2.477   1.542   1.588  0.3160 -0.1442  0.0518
 4989SOL     OW19953   1.509   5.084   4.889  0.4174 -0.2927  0.0716
 4989SOL    HW119954   1.421   5.099   4.923  0.4682  1.0621 -0.3488
 4989SOL    HW219955   1.496   5.030   4.812 -0.2217  1.1709 -0.8910
 4989SOL     MW19956   1.495   5.079   4.883  0.3382  0.0866 -0.1145
 4990SOL     OW19957   4.408   3.599   2.145 -0.3420  0.0335  0.0547
 4990SOL    HW119958   4.452   3.550   2.215 -0.6209 -1.2322 -0.6259
 4990SOL    HW219959   4.332   3.640   2.188 -0.3147 -0.4441  0.5672
 4990SOL     MW19960   4.403   3.598   2.161 -0.3759 -0.2011  0.0321
 4991SOL     OW19961   5.022   2.632   5.369  0.2875 -0.4974 -0.2670
 4991SOL    HW119962   5.098   2.690   5.365 -0.5424  0.7681  1.1979
 4991SOL    HW219963   4.972   2.652   5.290  0.9840 -0.6556 -0.7585
 4991SOL     MW19964   5.025   2.643   5.358  0.2696 -0.3484 -0.1360
 4992SOL     OW19965   1.456   3.549   2.734 -0.1065  0.0966 -0.2594
 4992SOL    HW119966   1.413   3.484   2.789  1.8029 -0.4800  0.6680
 4992SOL    HW219967   1.550   3.530   2.743  0.7240  4.0313  1.4876
 4992SOL     MW19968   1.463   3.538   2.742  0.2622  0.5485  0.1005
 4993SOL     OW19969   1.701   2.628   2.786 -0.1172  0.0770  0.0582
 4993SOL    HW119970   1.698   2.627   2.690 -2.8522 -0.5950  0.0803
 4993SOL    HW219971   1.697   2.721   2.809 -0.0999  0.2129 -0.4652
 4993SOL     MW19972   1.700   2.641   2.776 -0.4829  0.0049 -0.0093
 4994SOL     OW19973   0.448   1.580   1.707 -0.0776  0.3321  0.4805
 4994SOL    HW119974   0.356   1.602   1.724 -0.1183 -0.4650  1.3695
 4994SOL    HW219975   0.498   1.641   1.762 -0.1573 -0.7806  1.8523
 4994SOL     MW19976   0.442   1.591   1.717 -0.0938  0.0751  0.7848
 4995SOL     OW19977   4.751   2.885   0.282  0.1461 -0.4707  0.2946
 4995SOL    HW119978   4.670   2.855   0.242  0.1245 -2.1367  1.4599
 4995SOL    HW219979   4.820   2.850   0.226  0.1538  2.5599 -1.8061
 4995SOL     MW19980   4.749   2.876   0.269  0.1442 -0.2871  0.1687
 4996SOL     OW19981   3.347   2.837   2.059 -0.1655 -0.7672 -0.1666
 4996SOL    HW119982   3.283   2.897   2.021  0.4915 -0.4448 -0.7776
 4996SOL    HW219983   3.295   2.764   2.092 -0.8939 -0.2690 -0.1893
 4996SOL     MW19984   3.332   2.835   2.059 -0.1751 -0.6568 -0.2519
 4997SOL     OW19985   2.686   3.495   2.225  0.9725  0.0046 -0.0996
 4997SOL    HW119986   2.734   3.551   2.164  0.0212  1.5603  0.5195
 4997SOL    HW219987   2.754   3.465   2.286  1.5904  0.0463 -0.7446
 4997SOL     MW19988   2.702   3.499   2.225  0.9277  0.2196 -0.1031
 4998SOL     OW19989   4.804   2.419   1.863 -0.0302  0.3075 -0.1504
 4998SOL    HW119990   4.768   2.344   1.816  0.3698 -1.1338  1.7146
 4998SOL    HW219991   4.737   2.441   1.928 -0.6138  2.3078 -1.3500
 4998SOL     MW19992   4.790   2.412   1.866 -0.0549  0.3827 -0.0608
 4999SOL     OW19993   2.639   4.460   4.449 -0.2179 -0.2704  0.1487
 4999SOL    HW119994   2.661   4.456   4.542 -1.0630 -0.6773  0.3411
 4999SOL    HW219995   2.675   4.380   4.411  0.7370  0.2204 -0.0295
 4999SOL     MW19996   2.647   4.449   4.456 -0.2031 -0.2591  0.1506
 5000SOL     OW19997   0.566   4.724   2.573 -0.3771 -0.1078 -0.3213
 5000SOL    HW119998   0.540   4.704   2.663 -0.8182  1.4753 -0.0698
 5000SOL    HW219999   0.487   4.712   2.522 -0.7299  1.2084 -0.1186
 5000SOL     MW20000   0.552   4.720   2.579 -0.4840  0.2824 -0.2602
 5001SOL     OW20001   3.055   4.130   2.865  0.2436  0.3721  0.4351
 5001SOL    HW120002   3.072   4.125   2.771 -0.2043 -0.7915  0.3962
 5001SOL    HW220003   3.138   4.104   2.906  0.5659  1.2911  0.3751
 5001SOL     MW20004   3.068   4.126   2.858  0.2267  0.3392  0.4218
 5002SOL     OW20005   1.130   4.452   2.617 -0.3105  0.3490  0.0787
 5002SOL    HW120006   1.150   4.528   2.672 -1.2172  0.8468 -0.2573
 5002SOL    HW220007   1.035   4.443   2.623 -0.3624  0.0860 -0.9851
 5002SOL     MW20008   1.120   4.461   2.626 -0.4395  0.3806 -0.1097
 5003SOL     OW20009   0.260   2.060   0.395 -0.0648  0.5737  0.0227
 5003SOL    HW120010   0.198   1.995   0.430  0.9343 -0.0472  0.6867
 5003SOL    HW220011   0.238   2.141   0.440  0.0376  0.1960  0.7701
 5003SOL     MW20012   0.248   2.062   0.406  0.0834  0.4393  0.2126
 5004SOL     OW20013   1.223   5.115   3.250  0.0295 -0.5929  0.1325
 5004SOL    HW120014   1.220   5.040   3.309 -0.5600 -2.0135 -1.6284
 5004SOL    HW220015   1.314   5.119   3.220  0.3120  0.0839  1.0373
 5004SOL     MW20016   1.235   5.106   3.254 -0.0118 -0.6930  0.0173
 5005SOL     OW20017   0.912   2.486   1.533  0.2727  0.4542 -0.1536
 5005SOL    HW120018   0.889   2.522   1.448 -0.7081 -1.2253 -0.6374
 5005SOL    HW220019   0.845   2.420   1.551 -0.2167  1.5121  2.4397
 5005SOL     MW20020   0.900   2.482   1.524  0.0748  0.3705  0.1303
 5006SOL     OW20021   5.482   1.875   4.769 -0.2681  0.2271  0.4474
 5006SOL    HW120022   5.458   1.958   4.810  2.7534  1.4398 -0.0071
 5006SOL    HW220023   5.464   1.888   4.676 -1.5998 -0.3786  0.6007
 5006SOL     MW20024   5.476   1.888   4.762 -0.0406  0.3088  0.4069
 5007SOL     OW20025   4.688   3.500   1.809  0.1675 -0.4276  0.2043
 5007SOL    HW120026   4.602   3.459   1.825  0.1492 -0.2487  0.5658
 5007SOL    HW220027   4.749   3.448   1.862 -0.0967  1.0251  2.0219
 5007SOL     MW20028   4.684   3.487   1.818  0.1295 -0.2080  0.4976
 5008SOL     OW20029   4.848   4.318   2.800  0.2111 -0.1452 -0.4157
 5008SOL    HW120030   4.842   4.401   2.754  0.9724  0.8347  1.1896
 5008SOL    HW220031   4.767   4.312   2.850  0.2717 -0.2462 -0.3297
 5008SOL     MW20032   4.836   4.328   2.800  0.3217 -0.0269 -0.1881
 5009SOL     OW20033   1.787   2.017   0.814 -0.1130 -0.2301 -0.2131
 5009SOL    HW120034   1.745   2.099   0.840 -1.5515 -0.6832 -0.9816
 5009SOL    HW220035   1.847   2.043   0.744  1.0926  0.4614  1.0449
 5009SOL     MW20036   1.789   2.032   0.808 -0.1443 -0.1980 -0.1472
 5010SOL     OW20037   4.634   1.355   0.569 -0.1897  0.2414  0.0625
 5010SOL    HW120038   4.591   1.280   0.528  0.7818  0.1868 -0.9181
 5010SOL    HW220039   4.563   1.417   0.586 -0.8870 -0.5491  0.0974
 5010SOL     MW20040   4.619   1.353   0.565 -0.1528  0.1277 -0.0648
 5011SOL     OW20041   0.289   5.290   2.284  0.4398  0.5385  0.1197
 5011SOL    HW120042   0.335   5.351   2.341  0.6734  0.1510  0.3509
 5011SOL    HW220043   0.340   5.289   2.203  1.2218 -0.3767  0.6020
 5011SOL     MW20044   0.302   5.298   2.281  0.5765  0.3632  0.2157
 5012SOL     OW20045   5.028   4.074   0.212 -0.1429  0.0612 -0.4614
 5012SOL    HW120046   5.072   4.155   0.189  0.1001  0.1014  0.1270
 5012SOL    HW220047   5.035   4.069   0.307 -0.1648 -0.6410 -0.4887
 5012SOL     MW20048   5.035   4.084   0.222 -0.1131 -0.0279 -0.3859
 5013SOL     OW20049   3.213   0.245   1.093 -0.2937  0.3716  0.2072
 5013SOL    HW120050   3.267   0.175   1.056  1.0177  0.4066  1.9238
 5013SOL    HW220051   3.152   0.199   1.152  0.3172  0.6047  1.0451
 5013SOL     MW20052   3.212   0.229   1.096 -0.0350  0.4077  0.5510
 5014SOL     OW20053   3.944   5.351   3.247 -0.0300  0.1031 -0.5314
 5014SOL    HW120054   3.894   5.433   3.250 -0.3601 -0.1229  0.3305
 5014SOL    HW220055   3.977   5.339   3.336 -1.5356 -1.6349 -0.1477
 5014SOL     MW20056   3.942   5.360   3.259 -0.2771 -0.1612 -0.3637
 5015SOL     OW20057   5.286   0.828   4.594 -0.0556  0.0462  0.3957
 5015SOL    HW120058   5.261   0.918   4.617 -1.8276 -0.3958  0.3493
 5015SOL    HW220059   5.236   0.773   4.655 -0.1815 -0.9578 -0.5857
 5015SOL     MW20060   5.276   0.833   4.605 -0.3110 -0.1484  0.2574
 5016SOL     OW20061   4.402   3.693   4.980  0.2578 -0.3939 -0.4100
 5016SOL    HW120062   4.476   3.633   4.971 -0.6332 -1.4877 -0.6347
 5016SOL    HW220063   4.438   3.779   4.958  2.5658 -0.0547  3.7933
 5016SOL     MW20064   4.417   3.697   4.976  0.4485 -0.4955  0.1255
 5017SOL     OW20065   4.550   1.631   1.350  0.3119  0.2547 -0.0728
 5017SOL    HW120066   4.612   1.665   1.415  0.2836 -1.1119  0.7067
 5017SOL    HW220067   4.465   1.662   1.380  0.4843  1.2124 -0.5336
 5017SOL     MW20068   4.547   1.640   1.363  0.3313  0.1996 -0.0299
 5018SOL     OW20069   1.075   2.490   2.888  0.2488 -0.1254  0.2933
 5018SOL    HW120070   1.120   2.477   2.972 -0.3954 -1.1651  0.4913
 5018SOL    HW220071   1.048   2.402   2.862  0.8905  0.1242 -1.2701
 5018SOL     MW20072   1.077   2.477   2.896  0.2484 -0.2317  0.1096
 5019SOL     OW20073   3.184   3.749   2.016 -0.2827 -0.4054 -0.2608
 5019SOL    HW120074   3.162   3.702   2.096  0.1598  1.4947  1.0533
 5019SOL    HW220075   3.181   3.841   2.041  0.1722  0.2342 -2.3694
 5019SOL     MW20076   3.181   3.755   2.030 -0.1619 -0.0636 -0.3677
 5020SOL     OW20077   2.186   3.274   3.844  0.3296  0.4766  0.2984
 5020SOL    HW120078   2.130   3.308   3.914  1.4401  1.2489  0.8501
 5020SOL    HW220079   2.151   3.313   3.764 -0.7756 -0.1861  0.4455
 5020SOL     MW20080   2.174   3.284   3.842  0.3303  0.4913  0.3925
 5021SOL     OW20081   2.411   4.287   4.712  0.2764 -0.0462  0.0151
 5021SOL    HW120082   2.494   4.334   4.711 -0.9609  2.2666 -1.8816
 5021SOL    HW220083   2.412   4.235   4.632  0.3090 -0.8604  0.5315
 5021SOL     MW20084   2.422   4.286   4.701  0.1143  0.1554 -0.1707
 5022SOL     OW20085   3.549   2.098   0.634  0.2205  0.1619  0.1493
 5022SOL    HW120086   3.495   2.168   0.598  0.3831  1.0157  1.5392
 5022SOL    HW220087   3.570   2.125   0.723 -1.3948 -2.5451  1.5073
 5022SOL     MW20088   3.545   2.111   0.641  0.0250 -0.0875  0.5191
 5023SOL     OW20089   3.451   2.893   4.829 -0.2046  0.1698 -0.2413
 5023SOL    HW120090   3.474   2.919   4.739  0.4920 -1.5465 -0.5965
 5023SOL    HW220091   3.365   2.933   4.844 -0.0241  1.0562 -1.4098
 5023SOL     MW20092   3.442   2.902   4.819 -0.0865  0.0581 -0.4463
 5024SOL     OW20093   2.123   1.131   3.374  0.3146  0.5976 -0.3129
 5024SOL    HW120094   2.082   1.045   3.373  0.6637  0.4171  0.2834
 5024SOL    HW220095   2.187   1.129   3.304 -0.5188  0.8020 -1.1020
 5024SOL     MW20096   2.126   1.119   3.365  0.2494  0.6008 -0.3388
 5025SOL     OW20097   2.232   4.861   1.147  0.8547  0.0997  0.5711
 5025SOL    HW120098   2.191   4.841   1.231  0.1363  0.2339  0.2595
 5025SOL    HW220099   2.281   4.781   1.125  0.9495  0.0207  1.0526
 5025SOL     MW20100   2.233   4.848   1.155  0.7708  0.1071  0.5940
 5026SOL     OW20101   3.666   4.546   1.916  0.2651 -0.1713  0.4721
 5026SOL    HW120102   3.702   4.512   1.998  1.7499 -0.5979 -0.3217
 5026SOL    HW220103   3.706   4.492   1.848  1.3499  1.9922 -0.7226
 5026SOL     MW20104   3.676   4.534   1.918  0.6109  0.0625  0.2045
 5027SOL     OW20105   3.863   0.059   2.663 -0.4946  0.2207 -0.0707
 5027SOL    HW120106   3.849   0.154   2.663  2.1662  0.8070 -3.0921
 5027SOL    HW220107   3.798   0.025   2.601 -1.2059  0.0743  0.7359
 5027SOL     MW20108   3.852   0.067   2.655 -0.2322  0.2799 -0.3688
 5028SOL     OW20109   3.581   0.846   3.630 -0.1409 -0.2920  0.2551
 5028SOL    HW120110   3.485   0.845   3.626 -0.1275 -2.3446 -0.9310
 5028SOL    HW220111   3.602   0.791   3.706  0.0653 -1.5250 -0.6544
 5028SOL     MW20112   3.571   0.838   3.640 -0.1114 -0.7342 -0.0269
 5029SOL     OW20113   2.808   2.963   2.610  0.3341 -0.1450 -0.0095
 5029SOL    HW120114   2.841   2.879   2.581  1.6979 -0.0157  1.0885
 5029SOL    HW220115   2.814   3.020   2.533 -0.5557 -1.0079 -0.7397
 5029SOL     MW20116   2.813   2.960   2.596  0.3979 -0.2437  0.0400
 5030SOL     OW20117   3.646   1.336   2.666  0.0317 -0.0376  0.2461
 5030SOL    HW120118   3.720   1.385   2.702  0.4084  0.3888 -1.0375
 5030SOL    HW220119   3.607   1.396   2.602  0.5959 -1.4268 -1.4798
 5030SOL     MW20120   3.651   1.351   2.662  0.1583 -0.1671 -0.1589
 5031SOL     OW20121   3.035   1.204   2.430 -0.0668 -0.3701  0.8817
 5031SOL    HW120122   2.958   1.216   2.375 -0.0265  0.6728  1.0293
 5031SOL    HW220123   3.004   1.155   2.506 -0.2892 -1.1335  0.3043
 5031SOL     MW20124   3.021   1.199   2.433 -0.0913 -0.3325  0.8239
 5032SOL     OW20125   4.905   0.728   0.583 -0.2866 -0.4202  0.2680
 5032SOL    HW120126   4.987   0.775   0.600  0.3712 -1.3924 -0.1316
 5032SOL    HW220127   4.913   0.647   0.634 -0.4591 -1.0802 -0.7332
 5032SOL     MW20128   4.917   0.723   0.592 -0.2213 -0.6398  0.0795
 5033SOL     OW20129   2.088   1.541   3.285 -0.3907 -0.1351 -0.1620
 5033SOL    HW120130   2.029   1.519   3.212  0.2769  1.8578 -1.3573
 5033SOL    HW220131   2.132   1.621   3.257  1.6529 -0.6320  1.4391
 5033SOL     MW20132   2.086   1.549   3.271 -0.0258  0.0662 -0.1074
 5034SOL     OW20133   1.143   0.834   1.880  0.0877 -0.6337  0.0374
 5034SOL    HW120134   1.222   0.782   1.895 -0.8035 -1.9847  0.1788
 5034SOL    HW220135   1.176   0.922   1.860  1.6009 -1.0277  0.6549
 5034SOL     MW20136   1.158   0.839   1.879  0.1714 -0.8685  0.1395
 5035SOL     OW20137   1.627   5.030   5.137 -0.1788 -0.2583  0.6185
 5035SOL    HW120138   1.615   5.020   5.042 -0.3927 -0.7251  0.6888
 5035SOL    HW220139   1.594   5.117   5.156 -1.5064 -0.7019  0.4715
 5035SOL     MW20140   1.621   5.040   5.126 -0.3862 -0.3808  0.6082
 5036SOL     OW20141   3.354   3.038   0.544  0.9601 -0.3849  0.3523
 5036SOL    HW120142   3.352   3.056   0.450  2.1704  1.1781  0.5728
 5036SOL    HW220143   3.372   2.944   0.551 -0.2913 -0.7491 -0.9458
 5036SOL     MW20144   3.356   3.028   0.532  0.9545 -0.2236  0.2073
 5037SOL     OW20145   1.163   1.987   3.589 -0.5026  0.0493  0.5439
 5037SOL    HW120146   1.187   1.945   3.506  0.1053  1.5754 -0.0990
 5037SOL    HW220147   1.145   1.915   3.648  1.8167 -1.1534 -0.1032
 5037SOL     MW20148   1.163   1.972   3.586 -0.1086  0.0928  0.3703
 5038SOL     OW20149   4.950   1.217   1.440 -0.5752  0.2076 -0.1804
 5038SOL    HW120150   5.011   1.288   1.460 -1.6163  1.3755 -1.0156
 5038SOL    HW220151   5.001   1.138   1.455  0.0381  1.0292  2.7946
 5038SOL     MW20152   4.965   1.216   1.445 -0.6328  0.4753  0.1076
 5039SOL     OW20153   3.502   4.418   2.646  0.1084  0.8849  0.0250
 5039SOL    HW120154   3.541   4.457   2.568  2.0968 -1.0669 -0.0598
 5039SOL    HW220155   3.408   4.418   2.628  0.3927  1.7782 -1.7240
 5039SOL     MW20156   3.495   4.423   2.633  0.4143  0.7425 -0.2218
 5040SOL     OW20157   4.790   5.242   1.542  0.6599  0.4877 -0.4706
 5040SOL    HW120158   4.872   5.253   1.494 -0.1223  0.6140 -1.8152
 5040SOL    HW220159   4.721   5.257   1.477 -0.4758  2.5951  1.1156
 5040SOL     MW20160   4.792   5.245   1.527  0.4017  0.7883 -0.4381
 5041SOL     OW20161   3.932   1.150   2.686  0.0439 -0.5987  0.0504
 5041SOL    HW120162   3.947   1.244   2.674  4.1593 -0.9501  0.8289
 5041SOL    HW220163   3.861   1.129   2.626 -0.0564  2.7448 -1.2303
 5041SOL     MW20164   3.924   1.160   2.676  0.5843 -0.1961 -0.0172
 5042SOL     OW20165   3.566   0.250   2.950  0.3206 -0.0324  0.0967
 5042SOL    HW120166   3.475   0.228   2.932  0.6295 -1.1433 -0.1910
 5042SOL    HW220167   3.583   0.329   2.899 -0.8785  1.0510  1.2900
 5042SOL     MW20168   3.556   0.257   2.941  0.2008 -0.0361  0.2186
 5043SOL     OW20169   3.331   5.319   3.900  0.0351 -0.1056 -0.1816
 5043SOL    HW120170   3.259   5.277   3.853  0.9755  0.8873 -2.6272
 5043SOL    HW220171   3.388   5.246   3.927 -0.0280 -0.6437 -1.4619
 5043SOL     MW20172   3.329   5.304   3.898  0.1531 -0.0444 -0.6830
 5044SOL     OW20173   0.459   1.663   2.862  0.2081  0.7943  0.5521
 5044SOL    HW120174   0.405   1.623   2.793  0.2445 -1.0166  1.5104
 5044SOL    HW220175   0.538   1.692   2.817 -0.8027  1.9635 -0.5796
 5044SOL     MW20176   0.462   1.662   2.847  0.0770  0.7079  0.5288
 5045SOL     OW20177   3.928   3.127   4.497 -0.2189 -0.0950 -0.3758
 5045SOL    HW120178   3.869   3.062   4.533 -1.6790  1.3104 -0.1279
 5045SOL    HW220179   3.880   3.210   4.504  1.3846  0.9452 -1.0940
 5045SOL     MW20180   3.914   3.130   4.503 -0.1996  0.2341 -0.4391
 5046SOL     OW20181   0.133   4.735   1.347  0.0304  0.2245  0.0751
 5046SOL    HW120182   0.069   4.668   1.372  0.1281  0.4037  0.8397
 5046SOL    HW220183   0.130   4.798   1.419  0.5435  0.6105 -0.2395
 5046SOL     MW20184   0.124   4.734   1.360  0.1126  0.3006  0.1357
 5047SOL     OW20185   4.526   1.947   0.335 -0.2283  0.5448  0.9756
 5047SOL    HW120186   4.455   2.006   0.307 -0.1996  0.3092  0.3920
 5047SOL    HW220187   4.603   1.978   0.287 -0.3294 -0.2903  0.2432
 5047SOL     MW20188   4.527   1.959   0.325 -0.2381  0.4007  0.7985
 5048SOL     OW20189   0.804   0.312   3.999  0.1744  0.1835 -0.3218
 5048SOL    HW120190   0.740   0.357   4.054 -0.6189 -0.2331 -0.8872
 5048SOL    HW220191   0.822   0.230   4.045 -0.0603  0.0871 -0.4021
 5048SOL     MW20192   0.798   0.307   4.012  0.0360  0.1144 -0.4087
 5049SOL     OW20193   0.792   2.064   3.264 -0.7171 -0.4380 -1.0453
 5049SOL    HW120194   0.739   2.098   3.192 -0.2804  0.4895 -0.9439
 5049SOL    HW220195   0.866   2.124   3.270 -0.4842 -0.7963 -0.1512
 5049SOL     MW20196   0.795   2.077   3.256 -0.6270 -0.3614 -0.9113
 5050SOL     OW20197   2.224   2.390   2.321 -0.2386 -0.2121 -0.2282
 5050SOL    HW120198   2.286   2.410   2.251 -0.2852 -2.4270 -0.9906
 5050SOL    HW220199   2.226   2.467   2.378  0.1066  1.4832 -2.4082
 5050SOL     MW20200   2.233   2.403   2.319 -0.1984 -0.2820 -0.6242
 5051SOL     OW20201   5.360   3.214   0.507  0.4026 -0.2244 -0.4163
 5051SOL    HW120202   5.362   3.119   0.512  1.7067 -0.2143 -0.3040
 5051SOL    HW220203   5.327   3.242   0.593  1.5477 -0.5532  0.1528
 5051SOL     MW20204   5.356   3.205   0.519  0.7322 -0.2673 -0.3246
 5052SOL     OW20205   2.365   2.885   0.977 -0.2399 -0.4876 -0.4484
 5052SOL    HW120206   2.384   2.944   0.905  1.8959 -1.4198 -0.7350
 5052SOL    HW220207   2.437   2.898   1.039 -0.8283 -1.3074  0.4538
 5052SOL     MW20208   2.378   2.895   0.976 -0.0316 -0.7234 -0.3656
 5053SOL     OW20209   5.427   2.733   5.498  0.5391 -0.3070 -0.0461
 5053SOL    HW120210   5.374   2.771   5.428  1.0962 -1.3185 -1.0584
 5053SOL    HW220211   5.455   2.648   5.463  1.7083 -0.3769  0.9917
 5053SOL     MW20212   5.423   2.727   5.484  0.7714 -0.4525 -0.0427
 5054SOL     OW20213   1.584   2.824   2.197 -0.1019  0.5203  0.6054
 5054SOL    HW120214   1.589   2.728   2.195  0.2203  0.5399 -1.0047
 5054SOL    HW220215   1.533   2.844   2.275 -1.0830 -1.0111  0.3966
 5054SOL     MW20216   1.578   2.814   2.207 -0.1906  0.3169  0.3606
 5055SOL     OW20217   5.314   0.119   4.154 -0.2051  0.0214 -1.0693
 5055SOL    HW120218   5.285   0.096   4.066  1.8293 -0.6517 -1.6256
 5055SOL    HW220219   5.345   0.037   4.191 -0.2493  0.4543 -0.0414
 5055SOL     MW20220   5.315   0.105   4.147  0.0628 -0.0109 -1.0058
 5056SOL     OW20221   0.026   0.056   0.715  0.2018 -0.1531 -0.6488
 5056SOL    HW120222   0.096   0.044   0.651 -0.3151  1.2147 -1.5120
 5056SOL    HW220223  -0.003   0.146   0.702  0.5713  0.4200  2.0239
 5056SOL     MW20224   0.031   0.066   0.705  0.1819  0.1081 -0.4053
 5057SOL     OW20225   0.988   3.296   2.977  0.1987  0.0256 -0.6754
 5057SOL    HW120226   1.027   3.221   3.022  1.1280  0.2221 -1.1546
 5057SOL    HW220227   1.032   3.300   2.893 -0.9564  0.1662 -1.2936
 5057SOL     MW20228   0.999   3.286   2.972  0.1683  0.0709 -0.8231
 5058SOL     OW20229   1.003   2.155   0.034 -0.0130 -0.0313  0.1041
 5058SOL    HW120230   0.946   2.181   0.106  0.7805  1.1867  0.3463
 5058SOL    HW220231   0.944   2.137  -0.039 -0.7263  0.9698  0.4095
 5058SOL     MW20232   0.988   2.156   0.033 -0.0022  0.2673  0.1777
 5059SOL     OW20233   0.100   4.256   0.519 -0.3656  0.5524 -0.4353
 5059SOL    HW120234   0.121   4.202   0.443 -0.7991 -0.2956  0.0291
 5059SOL    HW220235   0.149   4.337   0.506  1.3035 -0.4293 -0.5300
 5059SOL     MW20236   0.109   4.259   0.507 -0.1993  0.3061 -0.3855
 5060SOL     OW20237   2.726   0.900   1.666  0.1903  0.3304  0.0292
 5060SOL    HW120238   2.705   0.847   1.589  0.0771 -0.9418  0.9035
 5060SOL    HW220239   2.697   0.988   1.644  0.8486  0.1464 -1.6690
 5060SOL     MW20240   2.719   0.904   1.653  0.2636  0.1344 -0.0817
 5061SOL     OW20241   1.878   3.709   5.069 -0.2278  0.0396 -0.5347
 5061SOL    HW120242   1.785   3.705   5.091 -0.2430  1.4782 -0.2221
 5061SOL    HW220243   1.886   3.786   5.012  0.8774  0.4445  0.1274
 5061SOL     MW20244   1.867   3.719   5.064 -0.0811  0.2877 -0.4036
 5062SOL     OW20245   2.304   0.808   5.337 -0.0263  0.0911  0.5392
 5062SOL    HW120246   2.244   0.739   5.310  2.7807 -1.9407 -0.9865
 5062SOL    HW220247   2.368   0.765   5.394  0.1422  2.1173  2.0037
 5062SOL     MW20248   2.305   0.793   5.341  0.3741  0.0904  0.5310
 5063SOL     OW20249   4.361   2.744   2.645 -0.2855  0.2888 -0.2989
 5063SOL    HW120250   4.444   2.698   2.635  0.4458  1.3775  0.5588
 5063SOL    HW220251   4.382   2.835   2.624 -1.0630  0.7240  0.7557
 5063SOL     MW20252   4.375   2.750   2.641 -0.2917  0.4939 -0.0416
 5064SOL     OW20253   4.913   4.940   2.419  0.3986  0.3448  0.5653
 5064SOL    HW120254   4.978   5.009   2.411  0.8140 -0.1893 -1.1443
 5064SOL    HW220255   4.954   4.874   2.476  1.0554  0.3466  0.0983
 5064SOL     MW20256   4.927   4.940   2.426  0.5429  0.2732  0.2723
 5065SOL     OW20257   2.561   3.019   4.890  0.5150  0.3394 -0.2354
 5065SOL    HW120258   2.527   3.056   4.971 -0.1609 -1.7922  0.5332
 5065SOL    HW220259   2.535   3.081   4.822 -0.7664  1.1224  0.9207
 5065SOL     MW20260   2.553   3.032   4.892  0.2516  0.1579  0.0237
 5066SOL     OW20261   0.437   1.190   0.516 -0.1706  0.4785 -0.2741
 5066SOL    HW120262   0.504   1.256   0.534  0.4401  0.2291 -1.5467
 5066SOL    HW220263   0.436   1.136   0.596  1.8198 -0.0620 -0.5603
 5066SOL     MW20264   0.446   1.191   0.529  0.1794  0.3722 -0.4839
 5067SOL     OW20265   1.237   1.128   0.608 -0.2015  1.0673 -0.2585
 5067SOL    HW120266   1.275   1.131   0.696  0.7011 -1.8055 -0.4193
 5067SOL    HW220267   1.303   1.170   0.553 -0.0017  1.4257  0.2442
 5067SOL     MW20268   1.251   1.134   0.613 -0.0531  0.7289 -0.2125
 5068SOL     OW20269   2.696   3.924   1.252 -0.3261  0.1290  0.4884
 5068SOL    HW120270   2.630   3.966   1.307 -0.6479  0.1239  0.1187
 5068SOL    HW220271   2.700   3.834   1.284 -1.0941 -0.0917 -0.0011
 5068SOL     MW20272   2.688   3.918   1.264 -0.4728  0.0986  0.3727
 5069SOL     OW20273   1.830   1.042   2.342  0.1590 -0.2354 -0.1633
 5069SOL    HW120274   1.854   1.132   2.364  2.2111 -0.5881 -0.6791
 5069SOL    HW220275   1.741   1.047   2.308  1.4209  2.2576 -3.6912
 5069SOL     MW20276   1.822   1.054   2.340  0.6050  0.0527 -0.7075
 5070SOL     OW20277   4.142   0.039   4.031  0.7000 -0.6294  0.2353
 5070SOL    HW120278   4.201  -0.010   4.088 -0.2476 -0.7692  1.1114
 5070SOL    HW220279   4.071   0.068   4.088  0.3699  0.3112 -0.6150
 5070SOL     MW20280   4.141   0.037   4.046  0.5280 -0.5216  0.2388
 5071SOL     OW20281   3.347   3.657   3.037 -0.0733 -0.0162 -0.1018
 5071SOL    HW120282   3.281   3.625   2.975  0.1902  0.1274 -0.4653
 5071SOL    HW220283   3.405   3.582   3.050 -0.1483 -0.0567 -0.0070
 5071SOL     MW20284   3.346   3.642   3.030 -0.0479 -0.0023 -0.1380
 5072SOL     OW20285   4.055   2.453   0.840  0.0017 -0.5300  0.0763
 5072SOL    HW120286   4.066   2.543   0.872 -1.0387  0.1475 -1.3667
 5072SOL    HW220287   4.138   2.433   0.797 -0.6086  0.7117 -1.7868
 5072SOL     MW20288   4.068   2.462   0.839 -0.2204 -0.2717 -0.3686
 5073SOL     OW20289   2.227   4.415   0.718  0.2020 -0.4676 -0.3093
 5073SOL    HW120290   2.160   4.348   0.708 -1.1557  0.7792 -0.0015
 5073SOL    HW220291   2.252   4.411   0.810 -1.7296  1.0334  0.3661
 5073SOL     MW20292   2.221   4.406   0.729 -0.2407 -0.0978 -0.1770
 5074SOL     OW20293   4.122   3.135   4.690 -0.2660 -0.1113  0.2201
 5074SOL    HW120294   4.053   3.132   4.624  0.7322  0.4491 -0.8870
 5074SOL    HW220295   4.178   3.061   4.669 -0.0271 -0.0291  0.5534
 5074SOL     MW20296   4.120   3.124   4.678 -0.0995 -0.0249  0.1160
 5075SOL     OW20297   4.959   0.846   3.548 -0.6158 -0.1538 -0.0807
 5075SOL    HW120298   4.865   0.828   3.541 -0.8980  1.8150 -2.3440
 5075SOL    HW220299   4.999   0.790   3.481 -0.5105  0.9272 -0.9457
 5075SOL     MW20300   4.952   0.836   3.538 -0.6396  0.2567 -0.5017
 5076SOL     OW20301   3.690   2.411   4.839 -0.1186 -0.1106 -0.5745
 5076SOL    HW120302   3.771   2.451   4.808 -0.5022  2.3845  1.3803
 5076SOL    HW220303   3.620   2.471   4.811 -1.0093 -0.7773  0.1396
 5076SOL     MW20304   3.691   2.424   4.831 -0.2901  0.1355 -0.2153
 5077SOL     OW20305   4.067   0.527   1.200 -0.4947  0.3727  0.3318
 5077SOL    HW120306   4.038   0.439   1.224 -0.0431 -0.0588 -0.6683
 5077SOL    HW220307   3.998   0.561   1.144  0.3110 -0.1930 -1.0565
 5077SOL     MW20308   4.054   0.520   1.196 -0.3255  0.2385  0.0104
 5078SOL     OW20309   4.027   0.932   1.723 -0.0938  0.2544  0.7467
 5078SOL    HW120310   4.049   0.860   1.782  0.7563  1.0536  1.4382
 5078SOL    HW220311   4.111   0.956   1.682 -0.4519  0.5369  0.1634
 5078SOL     MW20312   4.041   0.925   1.726 -0.0276  0.4000  0.7613
 5079SOL     OW20313   3.745   1.874   5.472 -0.0758 -0.5960 -0.5730
 5079SOL    HW120314   3.714   1.785   5.488 -3.1221  0.0358 -2.2161
 5079SOL    HW220315   3.675   1.930   5.504  1.3203  1.2205 -0.4986
 5079SOL     MW20316   3.732   1.869   5.479 -0.2979 -0.2665 -0.7841
 5080SOL     OW20317   0.274   0.750   0.350 -0.1148 -0.6711  0.6987
 5080SOL    HW120318   0.336   0.823   0.345 -0.5563 -0.3915 -2.2097
 5080SOL    HW220319   0.189   0.792   0.362 -0.3967 -0.6115 -1.1906
 5080SOL     MW20320   0.271   0.766   0.351 -0.2122 -0.6255  0.0530
 5081SOL     OW20321   0.308   0.076   3.848  0.1589  0.7009  0.2167
 5081SOL    HW120322   0.364   0.104   3.776 -0.0138  0.9000  0.1608
 5081SOL    HW220323   0.321   0.142   3.916  0.2543  0.5615  0.3337
 5081SOL     MW20324   0.317   0.089   3.848  0.1485  0.7089  0.2249
 5082SOL     OW20325   5.257   2.854   0.960 -0.1337  0.0434 -0.0478
 5082SOL    HW120326   5.203   2.828   0.885 -1.2914 -0.3292  0.8858
 5082SOL    HW220327   5.265   2.949   0.953  0.5630 -0.0824 -1.1505
 5082SOL     MW20328   5.250   2.863   0.949 -0.1957 -0.0236 -0.0706
 5083SOL     OW20329   2.724   3.683   1.368 -0.3857  0.0320 -0.3091
 5083SOL    HW120330   2.770   3.742   1.427 -0.3401  1.5666 -1.8134
 5083SOL    HW220331   2.794   3.642   1.316 -0.5504  0.4716 -0.8865
 5083SOL     MW20332   2.740   3.685   1.369 -0.4018  0.2977 -0.5893
 5084SOL     OW20333   4.814   4.549   2.647  0.2121 -0.2988 -0.2474
 5084SOL    HW120334   4.878   4.613   2.616 -1.0376  1.6596  0.9900
 5084SOL    HW220335   4.734   4.570   2.599 -0.3583 -0.6156  0.5398
 5084SOL     MW20336   4.812   4.560   2.636 -0.0328 -0.0779  0.0251
 5085SOL     OW20337   1.569   0.742   2.091 -0.2588 -0.3158  0.3741
 5085SOL    HW120338   1.497   0.735   2.029  1.0194 -1.1488 -1.0777
 5085SOL    HW220339   1.570   0.834   2.116 -0.3998  0.2025 -1.3840
 5085SOL     MW20340   1.560   0.753   2.086 -0.1058 -0.3582 -0.0579
 5086SOL     OW20341   5.232   3.357   0.311  0.1814 -0.4397  0.0581
 5086SOL    HW120342   5.299   3.398   0.257 -0.0978 -2.1978 -1.7129
 5086SOL    HW220343   5.281   3.303   0.374  0.4653  0.1675  0.3602
 5086SOL     MW20344   5.247   3.355   0.312  0.1820 -0.5946 -0.1396
 5087SOL     OW20345   0.260   2.487   0.994 -0.6730  0.4908 -0.0799
 5087SOL    HW120346   0.170   2.518   1.010 -0.8302 -0.8954  2.1939
 5087SOL    HW220347   0.252   2.392   0.989  0.7214  0.3213  0.5949
 5087SOL     MW20348   0.247   2.478   0.996 -0.5065  0.2814  0.3169
 5088SOL     OW20349   4.873   2.235   4.395  0.1502  0.5963 -0.0136
 5088SOL    HW120350   4.882   2.143   4.370 -2.2190  0.0693  0.8624
 5088SOL    HW220351   4.963   2.265   4.406  1.0451 -1.1055 -1.9997
 5088SOL     MW20352   4.887   2.226   4.393 -0.0482  0.2964 -0.1630
 5089SOL     OW20353   2.686   4.623   1.422  0.3127  0.1936 -0.1718
 5089SOL    HW120354   2.741   4.626   1.501  0.6089 -1.7641 -0.2632
 5089SOL    HW220355   2.596   4.619   1.455  0.3944  0.1696  0.0487
 5089SOL     MW20356   2.681   4.623   1.437  0.3635 -0.0731 -0.1544
 5090SOL     OW20357   4.382   1.933   1.962  0.3993  0.1303  0.5327
 5090SOL    HW120358   4.404   1.858   1.908  0.1135  1.0358 -0.8873
 5090SOL    HW220359   4.397   2.009   1.906 -0.1717  1.0947  1.6317
 5090SOL     MW20360   4.387   1.933   1.948  0.2840  0.3820  0.4895
 5091SOL     OW20361   3.400   1.547   4.795 -0.0797  0.4202 -0.2303
 5091SOL    HW120362   3.489   1.518   4.778 -0.0601 -1.3428  2.3665
 5091SOL    HW220363   3.351   1.467   4.812 -1.9833  1.4229 -0.6574
 5091SOL     MW20364   3.405   1.533   4.795 -0.3332  0.3179  0.0617
 5092SOL     OW20365   0.898   5.114   4.494  0.4520  0.0506  0.1492
 5092SOL    HW120366   0.905   5.023   4.522 -0.6015 -0.6462 -1.6855
 5092SOL    HW220367   0.989   5.142   4.481  0.7892 -0.6842  0.8574
 5092SOL     MW20368   0.911   5.106   4.496  0.3556 -0.1420 -0.0024
 5093SOL     OW20369   1.181   5.234   4.432  0.4495 -0.0454  1.2354
 5093SOL    HW120370   1.177   5.329   4.445 -0.7057  0.1559 -0.3461
 5093SOL    HW220371   1.212   5.200   4.516  0.1255  1.6585  2.0941
 5093SOL     MW20372   1.185   5.242   4.445  0.2505  0.2110  1.1381
 5094SOL     OW20373   2.361   1.320   2.129 -0.4673 -0.0600  0.1996
 5094SOL    HW120374   2.396   1.257   2.066  0.9220  0.0407  0.8215
 5094SOL    HW220375   2.331   1.265   2.202 -0.9528 -0.1053 -0.0327
 5094SOL     MW20376   2.362   1.304   2.130 -0.3457 -0.0525  0.2521
 5095SOL     OW20377   3.319   0.817   3.655 -0.0088  0.3667  0.3562
 5095SOL    HW120378   3.277   0.902   3.669 -1.7028 -0.4486  0.5169
 5095SOL    HW220379   3.261   0.772   3.593  1.2840 -0.3860 -0.3503
 5095SOL     MW20380   3.305   0.822   3.648 -0.0628  0.1557  0.2828
 5096SOL     OW20381   0.497   0.414   4.957  0.3655 -0.0577 -0.2525
 5096SOL    HW120382   0.566   0.470   4.922 -0.4595  0.3713 -1.2409
 5096SOL    HW220383   0.417   0.447   4.918 -0.3628 -0.8147  0.5477
 5096SOL     MW20384   0.496   0.426   4.947  0.1565 -0.1019 -0.2778
 5097SOL     OW20385   5.455   3.746   3.316 -0.2738  0.4630  0.0530
 5097SOL    HW120386   5.423   3.836   3.303  0.4625  1.0181  1.8128
 5097SOL    HW220387   5.381   3.700   3.356  0.0630  0.9275  1.2630
 5097SOL     MW20388   5.440   3.752   3.320 -0.1294  0.6003  0.4527
 5098SOL     OW20389   4.344   0.696   0.017  0.2717  0.4064  0.0991
 5098SOL    HW120390   4.412   0.753   0.053  0.4641  0.5620 -0.5101
 5098SOL    HW220391   4.367   0.686  -0.075 -0.5269  0.4550 -0.1127
 5098SOL     MW20392   4.356   0.703   0.010  0.1901  0.4339 -0.0114
 5099SOL     OW20393   0.131   0.072   4.988 -0.2070  0.2602 -0.0804
 5099SOL    HW120394   0.076   0.124   4.930 -0.9593 -0.5432 -0.1156
 5099SOL    HW220395   0.091  -0.015   4.986  0.6056 -0.1353  0.5215
 5099SOL     MW20396   0.118   0.067   4.980 -0.1989  0.0989 -0.0041
 5100SOL     OW20397   2.833   4.930   2.363  0.1382 -0.3000 -0.7202
 5100SOL    HW120398   2.809   4.957   2.452  1.6365 -1.4619  0.0788
 5100SOL    HW220399   2.784   4.990   2.306 -1.4224 -0.0009  0.8472
 5100SOL     MW20400   2.823   4.942   2.367  0.1299 -0.4161 -0.4017
 5101SOL     OW20401   2.093   2.031   2.557 -0.1871 -0.0266 -0.5767
 5101SOL    HW120402   2.163   2.054   2.497  0.5807 -0.5860  0.0858
 5101SOL    HW220403   2.041   1.966   2.510  1.5247 -1.9241  0.0353
 5101SOL     MW20404   2.095   2.025   2.543  0.1466 -0.3572 -0.4052
 5102SOL     OW20405   5.220   3.654   3.427  0.1691 -0.0427 -0.6110
 5102SOL    HW120406   5.268   3.660   3.509 -0.3857 -2.2155 -0.0406
 5102SOL    HW220407   5.175   3.569   3.432 -2.3417  1.0916 -1.8341
 5102SOL     MW20408   5.220   3.643   3.439 -0.2435 -0.1824 -0.6988
 5103SOL     OW20409   5.400   0.803   5.125  0.4174 -0.1090 -0.1428
 5103SOL    HW120410   5.465   0.742   5.161 -0.3365 -0.4188  0.7341
 5103SOL    HW220411   5.450   0.882   5.104  1.6949 -1.4443 -2.6170
 5103SOL     MW20412   5.416   0.805   5.127  0.4878 -0.3304 -0.3578
 5104SOL     OW20413   4.322   1.239   1.735  0.3947 -0.1299 -0.3128
 5104SOL    HW120414   4.395   1.288   1.696  0.5185  1.9679  2.2331
 5104SOL    HW220415   4.353   1.219   1.823 -1.4013 -0.8993  0.1637
 5104SOL     MW20416   4.336   1.243   1.742  0.1696  0.0489  0.0940
 5105SOL     OW20417   0.062   1.751   5.205 -0.4280  0.4267 -0.0263
 5105SOL    HW120418  -0.000   1.680   5.221 -1.1634  0.1130 -3.4640
 5105SOL    HW220419   0.013   1.830   5.227 -0.3336  0.0427  1.7703
 5105SOL     MW20420   0.047   1.752   5.210 -0.5142  0.3328 -0.2472
 5106SOL     OW20421   0.519   1.924   4.398 -0.4696  0.1659  0.6373
 5106SOL    HW120422   0.458   1.854   4.423 -0.0942  0.3660  2.2426
 5106SOL    HW220423   0.507   1.991   4.466  0.2656  0.9927 -0.0236
 5106SOL     MW20424   0.509   1.924   4.410 -0.3202  0.3041  0.7644
 5107SOL     OW20425   2.877   3.633   5.055  0.5781  0.1073  0.9230
 5107SOL    HW120426   2.901   3.575   4.984  0.1603  2.3931 -1.2105
 5107SOL    HW220427   2.960   3.658   5.096  0.8916 -0.5645  0.7077
 5107SOL     MW20428   2.891   3.629   5.051  0.5641  0.3245  0.6069
 5108SOL     OW20429   2.887   5.312   3.271  0.1233 -0.1071  0.0329
 5108SOL    HW120430   2.795   5.324   3.295  0.4849  1.6499  0.7278
 5108SOL    HW220431   2.928   5.279   3.351  0.2608  0.0068  0.0090
 5108SOL     MW20432   2.880   5.309   3.285  0.1905  0.1447  0.1232
 5109SOL     OW20433   4.062   5.404   3.614  0.3316  0.2566 -0.5849
 5109SOL    HW120434   4.078   5.498   3.624 -2.7401  0.8746 -0.5960
 5109SOL    HW220435   4.071   5.370   3.703 -0.0949  0.8794 -0.2879
 5109SOL     MW20436   4.065   5.412   3.627 -0.1392  0.4236 -0.5464
 5110SOL     OW20437   1.456   0.900   0.910  0.4771  0.0799  0.3647
 5110SOL    HW120438   1.423   0.850   0.834 -0.8643 -0.4606  1.2623
 5110SOL    HW220439   1.454   0.837   0.982  1.9698  0.5300  0.8229
 5110SOL     MW20440   1.451   0.885   0.909  0.4975  0.0678  0.5472
 5111SOL     OW20441   3.300   2.397   3.073  0.9708  0.1776 -0.8944
 5111SOL    HW120442   3.349   2.423   2.994  0.9348  0.6341 -0.7688
 5111SOL    HW220443   3.344   2.317   3.103  1.4711  0.4286 -0.9423
 5111SOL     MW20444   3.313   2.390   3.066  1.0333  0.2728 -0.8839
 5112SOL     OW20445   4.065   3.754   0.263  0.1791  0.4172 -0.0492
 5112SOL    HW120446   4.054   3.710   0.348 -1.6814 -0.0288 -0.4645
 5112SOL    HW220447   4.116   3.692   0.211 -2.2136 -1.2633 -0.5475
 5112SOL     MW20448   4.070   3.739   0.268 -0.3933  0.1310 -0.1721
 5113SOL     OW20449   2.281   5.471   2.988 -0.1487  0.5329 -0.3911
 5113SOL    HW120450   2.356   5.507   2.941  0.4436 -1.0803 -0.7464
 5113SOL    HW220451   2.308   5.383   3.013 -1.2706  0.5511  1.0602
 5113SOL     MW20452   2.295   5.464   2.985 -0.2200  0.3183 -0.2436
 5114SOL     OW20453   5.291   0.767   0.547  0.2417 -0.2841  0.1492
 5114SOL    HW120454   5.223   0.830   0.569  0.7739  0.5866 -0.6464
 5114SOL    HW220455   5.261   0.726   0.466 -0.4140 -1.5473  0.9998
 5114SOL     MW20456   5.278   0.770   0.539  0.2251 -0.3369  0.1566
 5115SOL     OW20457   2.658   3.971   3.665 -0.2574  0.6105 -0.3027
 5115SOL    HW120458   2.627   4.062   3.666  1.4943  1.2324  0.0154
 5115SOL    HW220459   2.580   3.920   3.688 -1.4842  1.9388 -1.2945
 5115SOL     MW20460   2.643   3.977   3.668 -0.1868  0.8730 -0.3934
 5116SOL     OW20461   3.038   1.661   1.462  0.3796  0.0489 -0.3690
 5116SOL    HW120462   3.036   1.756   1.461 -0.6428  0.0384  0.0288
 5116SOL    HW220463   2.990   1.636   1.540 -0.6431 -0.8097 -1.2308
 5116SOL     MW20464   3.032   1.670   1.472  0.1044 -0.0681 -0.4315
 5117SOL     OW20465   2.251   3.683   4.108  0.1432 -0.5150  0.2335
 5117SOL    HW120466   2.219   3.678   4.198  0.6271  0.2577  0.4604
 5117SOL    HW220467   2.319   3.616   4.104  1.3408  0.6057  0.9857
 5117SOL     MW20468   2.256   3.673   4.119  0.3695 -0.2602  0.3653
 5118SOL     OW20469   1.810   2.184   3.205 -0.1885 -0.2773  0.0794
 5118SOL    HW120470   1.889   2.205   3.154 -0.9572  0.3869 -0.8727
 5118SOL    HW220471   1.738   2.206   3.147 -1.1293 -3.4875 -0.1440
 5118SOL     MW20472   1.811   2.190   3.190 -0.4185 -0.6199 -0.0788
 5119SOL     OW20473   1.324   0.753   0.726 -0.4315  0.2634 -0.1451
 5119SOL    HW120474   1.298   0.790   0.642  0.3454 -1.1578 -1.0688
 5119SOL    HW220475   1.392   0.689   0.703  0.7462  0.7812  1.7036
 5119SOL     MW20476   1.330   0.749   0.711 -0.1685  0.1418 -0.0206
 5120SOL     OW20477   0.425   5.392   0.674 -0.1270 -0.3272  0.8843
 5120SOL    HW120478   0.462   5.313   0.636 -2.9586 -0.6365 -1.6075
 5120SOL    HW220479   0.488   5.461   0.652  0.3189 -1.2179 -0.7742
 5120SOL     MW20480   0.438   5.391   0.666 -0.4481 -0.4887  0.3258
 5121SOL     OW20481   0.982   0.393   4.650 -0.5147  0.0666  0.0780
 5121SOL    HW120482   0.935   0.400   4.567 -0.7585  0.3413  0.2354
 5121SOL    HW220483   0.947   0.314   4.691  1.5420 -1.6408 -1.2734
 5121SOL     MW20484   0.971   0.383   4.644 -0.2707 -0.1262 -0.0827
 5122SOL     OW20485   1.451   2.283   4.582  0.5411  0.2078 -0.1277
 5122SOL    HW120486   1.521   2.220   4.562  1.2958  1.3863 -1.3153
 5122SOL    HW220487   1.496   2.361   4.613 -0.1782  1.1544 -1.3478
 5122SOL     MW20488   1.467   2.285   4.583  0.5458  0.4938 -0.4517
 5123SOL     OW20489   0.428   2.100   3.806 -0.2881  0.4310 -0.6462
 5123SOL    HW120490   0.427   2.196   3.809  2.2298  0.4864  0.8742
 5123SOL    HW220491   0.386   2.073   3.887  0.9558  0.3356 -0.0090
 5123SOL     MW20492   0.422   2.109   3.817  0.2181  0.4256 -0.3558
 5124SOL     OW20493   1.911   0.898   4.177 -0.3490 -0.1988 -0.2591
 5124SOL    HW120494   1.831   0.950   4.171 -0.7329 -0.7383  0.1568
 5124SOL    HW220495   1.922   0.880   4.270 -0.4840 -1.2583 -0.4309
 5124SOL     MW20496   1.902   0.902   4.189 -0.4188 -0.4140 -0.2263
 5125SOL     OW20497   5.157   4.305   0.086  0.3834  0.1710  0.3701
 5125SOL    HW120498   5.086   4.316   0.023  0.4309  0.8888  0.4383
 5125SOL    HW220499   5.234   4.289   0.032 -0.1861 -3.0642  0.3182
 5125SOL     MW20500   5.158   4.304   0.070  0.3131 -0.1678  0.3723
 5126SOL     OW20501   5.283   3.125   0.967 -0.0950 -0.0279  0.0727
 5126SOL    HW120502   5.212   3.174   1.010  0.6238  0.4458  0.7384
 5126SOL    HW220503   5.355   3.128   1.030  1.7186  2.4373 -1.9193
 5126SOL     MW20504   5.283   3.132   0.981  0.2458  0.3676 -0.1058
 5127SOL     OW20505   4.729   2.352   3.678 -0.0935  0.6171  0.2674
 5127SOL    HW120506   4.675   2.327   3.604 -0.4707  0.1957  0.6817
 5127SOL    HW220507   4.704   2.442   3.697 -0.5729  0.4576  0.3911
 5127SOL     MW20508   4.718   2.361   3.671 -0.2088  0.5389  0.3398
 5128SOL     OW20509   1.804   0.292   1.692  0.1289 -0.1978  0.0052
 5128SOL    HW120510   1.798   0.204   1.656  0.8422 -0.2002 -0.1392
 5128SOL    HW220511   1.820   0.279   1.786  1.1470 -0.2578 -0.1572
 5128SOL     MW20512   1.806   0.279   1.700  0.3619 -0.2062 -0.0361
 5129SOL     OW20513   0.703   2.672   2.818 -0.2631  0.1261 -0.3719
 5129SOL    HW120514   0.652   2.593   2.799  0.1161 -0.0907 -0.5017
 5129SOL    HW220515   0.699   2.681   2.913  2.6770 -2.1304  0.0935
 5129SOL     MW20516   0.695   2.663   2.828  0.1836 -0.2068 -0.3268
 5130SOL     OW20517   5.100   0.291   0.108 -0.0716 -0.3303  0.1817
 5130SOL    HW120518   5.123   0.200   0.091 -1.8466 -0.6471 -0.7309
 5130SOL    HW220519   5.183   0.332   0.135  0.8960 -2.0327 -0.0712
 5130SOL     MW20520   5.114   0.285   0.109 -0.1803 -0.6020  0.0248
 5131SOL     OW20521   1.179   1.113   0.267  0.0226 -0.4259  0.0773
 5131SOL    HW120522   1.104   1.076   0.313 -0.4027  0.6010  0.2466
 5131SOL    HW220523   1.221   1.169   0.332  0.7138 -0.6843 -0.1381
 5131SOL     MW20524   1.175   1.116   0.282  0.0584 -0.3225  0.0711
 5132SOL     OW20525   0.816   1.858   1.721  0.1824  0.0610 -0.5063
 5132SOL    HW120526   0.837   1.951   1.714  0.5677  0.1576  1.3552
 5132SOL    HW220527   0.809   1.828   1.631 -1.2953  2.1816 -1.1813
 5132SOL     MW20528   0.818   1.866   1.708  0.0354  0.3594 -0.3466
 5133SOL     OW20529   4.108   1.698   3.942  0.2208  0.3061 -0.2315
 5133SOL    HW120530   4.148   1.632   3.884  0.7811  1.3702 -1.0968
 5133SOL    HW220531   4.024   1.660   3.968  1.5898 -1.8598  1.3574
 5133SOL     MW20532   4.102   1.684   3.938  0.4805  0.1578 -0.1341
 5134SOL     OW20533   4.070   5.104   4.046 -0.3359 -0.2563 -0.3851
 5134SOL    HW120534   4.089   5.178   3.987 -0.8183  1.0231  1.0176
 5134SOL    HW220535   4.012   5.047   3.995  0.1088  0.2652 -1.5161
 5134SOL     MW20536   4.065   5.106   4.031 -0.3410 -0.0140 -0.3486
 5135SOL     OW20537   4.218   4.613   4.651  0.3390  1.0619  0.1711
 5135SOL    HW120538   4.258   4.540   4.698 -0.8124 -0.2260 -0.7662
 5135SOL    HW220539   4.168   4.660   4.718 -1.9572 -1.2267  0.2402
 5135SOL     MW20540   4.217   4.610   4.666 -0.1250  0.5806  0.0543
 5136SOL     OW20541   0.605   3.178   4.236  0.5205  0.1972 -0.0896
 5136SOL    HW120542   0.667   3.144   4.301  0.8530 -1.0464 -1.0144
 5136SOL    HW220543   0.641   3.149   4.151 -1.4411 -0.8092 -0.6494
 5136SOL     MW20544   0.618   3.169   4.233  0.3013 -0.1056 -0.2894
 5137SOL     OW20545   1.279   4.344   3.005 -0.4488 -0.2867 -0.0137
 5137SOL    HW120546   1.186   4.341   2.982 -0.5188 -0.9222  0.3407
 5137SOL    HW220547   1.310   4.255   2.991 -1.1246 -1.5776  4.9105
 5137SOL     MW20548   1.271   4.332   3.000 -0.5492 -0.5459  0.6967
 5138SOL     OW20549   4.503   4.965   3.837  0.3575 -0.0789 -0.3471
 5138SOL    HW120550   4.520   4.895   3.900  0.4340 -0.1925 -0.4919
 5138SOL    HW220551   4.472   4.919   3.759  0.5011  0.0415 -0.4758
 5138SOL     MW20552   4.501   4.949   3.835  0.3871 -0.0780 -0.3839
 5139SOL     OW20553   2.692   0.745   1.443 -0.2635 -0.4625 -0.0161
 5139SOL    HW120554   2.780   0.766   1.413 -0.6534 -1.5962 -2.1317
 5139SOL    HW220555   2.699   0.660   1.485 -0.5827 -1.3575 -1.6968
 5139SOL     MW20556   2.705   0.737   1.444 -0.3589 -0.7355 -0.5270
 5140SOL     OW20557   2.109   2.477   1.743 -0.1141  0.7467  0.4162
 5140SOL    HW120558   2.056   2.440   1.672  1.8576 -0.2316 -0.6182
 5140SOL    HW220559   2.180   2.524   1.698  0.9343  0.4843  1.7420
 5140SOL     MW20560   2.111   2.479   1.727  0.2924  0.5797  0.4554
 5141SOL     OW20561   5.332   0.845   5.455  0.3705 -0.0373  0.1824
 5141SOL    HW120562   5.354   0.912   5.390 -0.0720  0.2191  0.2902
 5141SOL    HW220563   5.416   0.804   5.476  0.6754  0.6000  0.2414
 5141SOL     MW20564   5.346   0.849   5.449  0.3520  0.0829  0.2048
 5142SOL     OW20565   0.088   1.416   2.810 -0.6659  0.0339  0.1863
 5142SOL    HW120566   0.002   1.395   2.846 -0.1652 -0.4629  1.1331
 5142SOL    HW220567   0.146   1.416   2.886  0.3584 -0.6304 -0.5716
 5142SOL     MW20568   0.084   1.413   2.825 -0.4607 -0.1224  0.2117
 5143SOL     OW20569   2.194   2.981   1.574  0.6643  0.1464  0.4061
 5143SOL    HW120570   2.115   2.929   1.590  0.0926  0.3255 -1.5117
 5143SOL    HW220571   2.253   2.921   1.529  0.9852  0.4488  0.4206
 5143SOL     MW20572   2.191   2.966   1.570  0.6306  0.2112  0.1500
 5144SOL     OW20573   2.838   0.577   5.192  0.7589 -0.2638 -0.0174
 5144SOL    HW120574   2.934   0.581   5.197  0.7764 -1.5061  1.0507
 5144SOL    HW220575   2.816   0.486   5.213 -0.6821  0.1127  0.2423
 5144SOL     MW20576   2.848   0.566   5.196  0.5674 -0.3803  0.1613
 5145SOL     OW20577   5.339   1.319   2.912 -0.2166  0.1498  0.2451
 5145SOL    HW120578   5.269   1.341   2.974 -0.4360  0.4125 -0.0890
 5145SOL    HW220579   5.305   1.243   2.865 -0.2662  0.2565  0.1064
 5145SOL     MW20580   5.325   1.312   2.914 -0.2528  0.1995  0.1815
 5146SOL     OW20581   4.845   3.561   3.371  0.5284 -0.3419 -0.2453
 5146SOL    HW120582   4.780   3.497   3.400 -3.7096  2.8044 -1.7545
 5146SOL    HW220583   4.868   3.611   3.449  1.0605 -1.3519  0.2622
 5146SOL     MW20584   4.840   3.559   3.385  0.0297 -0.0544 -0.3801
 5147SOL     OW20585   1.666   2.548   1.615 -0.5077  0.2650 -0.5602
 5147SOL    HW120586   1.745   2.503   1.645  1.0449  1.3151 -2.7744
 5147SOL    HW220587   1.652   2.617   1.681  0.4544  0.0858 -0.1421
 5147SOL     MW20588   1.675   2.551   1.628 -0.1692  0.3822 -0.8019
 5148SOL     OW20589   2.751   4.203   4.318 -0.1908  0.2409 -0.2769
 5148SOL    HW120590   2.798   4.199   4.235  0.4405 -1.0090  0.1139
 5148SOL    HW220591   2.722   4.113   4.333  0.4484  0.2637  1.2764
 5148SOL     MW20592   2.753   4.190   4.309 -0.0198  0.0757 -0.0153
 5149SOL     OW20593   0.266   4.670   5.441  0.0851 -0.5222 -0.3908
 5149SOL    HW120594   0.301   4.682   5.353  2.2624  1.2469  0.6363
 5149SOL    HW220595   0.212   4.747   5.457 -1.0123 -1.2457 -0.4208
 5149SOL     MW20596   0.263   4.682   5.432  0.2304 -0.3815 -0.2566
 5150SOL     OW20597   1.447   1.639   4.657 -0.4782  0.1389 -0.1493
 5150SOL    HW120598   1.534   1.629   4.697 -0.9153 -1.2340  0.5035
 5150SOL    HW220599   1.466   1.650   4.564  0.3630 -1.8928 -0.2720
 5150SOL     MW20600   1.461   1.639   4.650 -0.4238 -0.3193 -0.0780
 5151SOL     OW20601   1.695   2.202   2.668 -0.2899  0.0211  0.1995
 5151SOL    HW120602   1.787   2.208   2.641  0.2648  0.2494  2.0224
 5151SOL    HW220603   1.661   2.126   2.621  0.6865  0.2025 -0.8506
 5151SOL     MW20604   1.703   2.193   2.658 -0.0838  0.0763  0.3035
 5152SOL     OW20605   1.427   4.204   3.374 -0.5739 -0.4563  0.0541
 5152SOL    HW120606   1.358   4.144   3.345  0.6438 -0.8308 -2.3372
 5152SOL    HW220607   1.509   4.158   3.354  0.3884  1.5439 -0.8992
 5152SOL     MW20608   1.429   4.190   3.367 -0.2805 -0.2375 -0.3961
 5153SOL     OW20609   1.471   2.536   4.134  0.4854 -0.1603 -0.2334
 5153SOL    HW120610   1.404   2.482   4.175  0.9336 -1.1032 -0.7136
 5153SOL    HW220611   1.539   2.545   4.201 -0.5610  1.7095  0.6495
 5153SOL     MW20612   1.471   2.530   4.149  0.4049 -0.0356 -0.1792
 5154SOL     OW20613   2.348   5.262   0.145 -0.4564 -0.7736 -0.0436
 5154SOL    HW120614   2.434   5.304   0.153 -0.5382 -0.5336 -0.4146
 5154SOL    HW220615   2.353   5.186   0.203 -1.0613  0.9351  2.4233
 5154SOL     MW20616   2.361   5.257   0.154 -0.5488 -0.5114  0.2385
 5155SOL     OW20617   5.082   3.684   5.491  0.2947 -0.2943 -0.0478
 5155SOL    HW120618   5.005   3.628   5.498  0.0254 -0.2117 -1.8425
 5155SOL    HW220619   5.047   3.773   5.493  0.2918 -0.2615 -1.2051
 5155SOL     MW20620   5.067   3.689   5.492  0.2581 -0.2788 -0.4451
 5156SOL     OW20621   4.210   2.667   4.068 -0.1927  0.0688  0.3556
 5156SOL    HW120622   4.160   2.595   4.108 -1.0086 -0.3351 -1.3105
 5156SOL    HW220623   4.162   2.688   3.988  0.3529  2.1083  0.5046
 5156SOL     MW20624   4.197   2.660   4.063 -0.2291  0.2889  0.1514
 5157SOL     OW20625   1.733   4.190   1.521  0.7090 -0.4032  0.4296
 5157SOL    HW120626   1.799   4.257   1.505  1.1477 -0.9224  0.0184
 5157SOL    HW220627   1.763   4.146   1.601 -1.0672  1.6824  2.3582
 5157SOL     MW20628   1.746   4.193   1.530  0.5290 -0.1924  0.6338
 5158SOL     OW20629   0.143   1.352   2.364 -0.2910 -0.1057 -0.5153
 5158SOL    HW120630   0.156   1.303   2.446  0.5955 -0.3973 -0.8151
 5158SOL    HW220631   0.219   1.329   2.310 -0.3055  0.9324 -1.0048
 5158SOL     MW20632   0.155   1.342   2.368 -0.1737 -0.0053 -0.6215
 5159SOL     OW20633   3.160   4.501   1.928  0.1359 -0.1547 -0.1574
 5159SOL    HW120634   3.234   4.448   1.957 -0.4558 -0.9248 -0.0319
 5159SOL    HW220635   3.083   4.457   1.964 -0.3836  0.6573 -0.2544
 5159SOL     MW20636   3.159   4.488   1.936 -0.0136 -0.1490 -0.1536
 5160SOL     OW20637   2.375   1.495   4.678  0.2431 -0.8365  0.2222
 5160SOL    HW120638   2.289   1.455   4.665  0.0661 -0.6215  0.7039
 5160SOL    HW220639   2.365   1.547   4.758  0.9828 -1.2718  0.6055
 5160SOL     MW20640   2.362   1.496   4.687  0.3188 -0.8662  0.3386
 5161SOL     OW20641   4.989   0.163   4.598 -0.4881  0.7122  0.1421
 5161SOL    HW120642   5.078   0.127   4.601 -0.1573  1.3587 -1.0792
 5161SOL    HW220643   5.002   0.257   4.585 -1.3288  0.5827 -1.9615
 5161SOL     MW20644   5.003   0.171   4.597 -0.5567  0.7817 -0.3054
 5162SOL     OW20645   2.436   3.371   3.878  0.0691  0.5544  0.1226
 5162SOL    HW120646   2.491   3.293   3.874 -0.9465 -0.1316 -1.7588
 5162SOL    HW220647   2.352   3.343   3.842 -2.1169  1.1443  4.2139
 5162SOL     MW20648   2.432   3.357   3.872 -0.3618  0.5415  0.4200
 5163SOL     OW20649   3.017   1.529   5.157  0.1989 -0.3338 -0.5072
 5163SOL    HW120650   3.057   1.455   5.203 -0.8027 -0.5717  0.0144
 5163SOL    HW220651   3.053   1.525   5.069 -0.6778 -2.1205 -0.8234
 5163SOL     MW20652   3.027   1.519   5.151 -0.0538 -0.6063 -0.4796
 5164SOL     OW20653   1.743   0.056   1.532 -0.3130 -0.0207 -0.1232
 5164SOL    HW120654   1.652   0.077   1.513 -0.0828  0.4887 -0.7021
 5164SOL    HW220655   1.778   0.023   1.449  0.3683  1.0133 -0.2671
 5164SOL     MW20656   1.736   0.054   1.518 -0.1904  0.1870 -0.2205
 5165SOL     OW20657   3.691   4.491   0.729  0.1703 -0.2064 -0.4289
 5165SOL    HW120658   3.718   4.551   0.799  0.1477 -1.0978  0.3667
 5165SOL    HW220659   3.658   4.414   0.775  0.8992 -1.1462 -1.4116
 5165SOL     MW20660   3.690   4.489   0.744  0.2654 -0.4529 -0.4541
 5166SOL     OW20661   4.734   0.801   3.890  0.1057  0.0843 -0.5821
 5166SOL    HW120662   4.825   0.803   3.860  0.2547 -0.5710 -0.1817
 5166SOL    HW220663   4.723   0.882   3.939  1.3825 -1.1877  1.9753
 5166SOL     MW20664   4.745   0.812   3.892  0.2976 -0.1751 -0.1840
 5167SOL     OW20665   3.991   1.483   0.365  0.2253  0.3946 -0.1081
 5167SOL    HW120666   4.051   1.432   0.311 -0.4650 -1.6201  0.9120
 5167SOL    HW220667   3.925   1.514   0.304 -0.3891 -1.5930 -0.5407
 5167SOL     MW20668   3.990   1.480   0.350  0.0497 -0.1440 -0.0290
 5168SOL     OW20669   3.853   5.201   2.554 -0.4947 -0.1850 -0.2618
 5168SOL    HW120670   3.764   5.220   2.524  0.0757 -0.1568 -2.1094
 5168SOL    HW220671   3.844   5.124   2.610 -1.6768 -0.2907 -0.5659
 5168SOL     MW20672   3.840   5.193   2.557 -0.5770 -0.1954 -0.5514
 5169SOL     OW20673   2.965   0.859   3.386  0.2692  0.5387  0.3552
 5169SOL    HW120674   2.881   0.823   3.412  0.3435 -0.0080 -0.1538
 5169SOL    HW220675   3.028   0.790   3.407  0.4716  0.5620 -0.1813
 5169SOL     MW20676   2.962   0.845   3.393  0.3064  0.4683  0.2145
 5170SOL     OW20677   0.333   5.389   4.264 -0.6476  0.3912  0.6494
 5170SOL    HW120678   0.333   5.357   4.173  0.0863  0.0597  0.7566
 5170SOL    HW220679   0.245   5.372   4.295 -0.6259 -0.4121  0.3063
 5170SOL     MW20680   0.321   5.382   4.256 -0.5459  0.2385  0.6177
 5171SOL     OW20681   2.664   0.960   0.775 -0.0582  0.5324 -0.6146
 5171SOL    HW120682   2.740   0.973   0.720  0.3734  0.6606 -0.0004
 5171SOL    HW220683   2.694   0.982   0.863 -0.7614  0.4396 -0.3427
 5171SOL     MW20684   2.678   0.965   0.780 -0.0947  0.5372 -0.4954
 5172SOL     OW20685   3.746   5.424   0.501  0.2017 -0.0974  0.5907
 5172SOL    HW120686   3.697   5.506   0.507 -0.3961 -0.4393  0.4652
 5172SOL    HW220687   3.833   5.445   0.537  0.0619  0.5893  0.5401
 5172SOL     MW20688   3.751   5.438   0.507  0.1024 -0.0510  0.5670
 5173SOL     OW20689   2.396   0.699   0.149  0.1869 -0.3469  0.7140
 5173SOL    HW120690   2.343   0.778   0.137  1.4640  0.6863  1.5038
 5173SOL    HW220691   2.343   0.642   0.204 -0.3776  0.3584  0.9225
 5173SOL     MW20692   2.382   0.702   0.154  0.2828 -0.1129  0.8484
 5174SOL     OW20693   1.027   2.674   2.474 -0.2236  0.3467  0.6122
 5174SOL    HW120694   1.001   2.758   2.436  0.0822  0.1818  0.0403
 5174SOL    HW220695   0.994   2.678   2.564  0.2112  1.2868  0.7512
 5174SOL     MW20696   1.019   2.686   2.481 -0.1240  0.4510  0.5539
 5175SOL     OW20697   3.066   5.055   0.583 -0.0978  0.0595 -0.0045
 5175SOL    HW120698   3.149   5.027   0.622 -1.1284 -1.4727  1.2243
 5175SOL    HW220699   3.014   5.085   0.657 -1.0180  0.0201 -0.6191
 5175SOL     MW20700   3.070   5.055   0.598 -0.3603 -0.1520  0.0782
 5176SOL     OW20701   1.689   1.545   2.992  0.0078  0.2244  0.6952
 5176SOL    HW120702   1.783   1.555   3.003  0.0939 -0.8524  1.0897
 5176SOL    HW220703   1.677   1.529   2.898  0.5015 -1.9928  0.9417
 5176SOL     MW20704   1.700   1.544   2.981  0.0859 -0.2189  0.7814
 5177SOL     OW20705   1.148   5.272   5.321 -0.0139  0.0544 -0.3743
 5177SOL    HW120706   1.236   5.281   5.357  0.2208  0.8409 -1.1121
 5177SOL    HW220707   1.090   5.299   5.393  0.2652 -1.6510  0.5229
 5177SOL     MW20708   1.152   5.277   5.336  0.0553 -0.0693 -0.3528
 5178SOL     OW20709   2.104   1.264   5.168  0.2875 -0.1930 -0.0477
 5178SOL    HW120710   2.043   1.191   5.176 -2.2426  1.9098  1.8622
 5178SOL    HW220711   2.147   1.269   5.254  0.0761  0.7927  0.0182
 5178SOL     MW20712   2.101   1.255   5.181 -0.0815  0.2227  0.2182
 5179SOL     OW20713   0.529   5.151   0.550 -0.3755  0.1315  0.1080
 5179SOL    HW120714   0.517   5.167   0.456  1.9766  1.2715 -0.0716
 5179SOL    HW220715   0.513   5.057   0.560  1.5729 -0.4921 -1.9068
 5179SOL     MW20716   0.525   5.140   0.538  0.2033  0.2010 -0.1873
 5180SOL     OW20717   2.370   2.458   5.317  0.1060 -0.1719 -0.0991
 5180SOL    HW120718   2.398   2.366   5.315  0.6468 -0.0184  0.4358
 5180SOL    HW220719   2.338   2.474   5.228  1.2115 -0.5066 -0.5750
 5180SOL     MW20720   2.370   2.448   5.305  0.3275 -0.1963 -0.0911
 5181SOL     OW20721   3.512   4.104   4.811 -0.1512 -0.1342  0.2674
 5181SOL    HW120722   3.590   4.055   4.784  0.4005  0.3253  0.9923
 5181SOL    HW220723   3.536   4.143   4.895 -0.6001  1.3073 -0.2432
 5181SOL     MW20724   3.526   4.103   4.819 -0.1374  0.1216  0.2962
 5182SOL     OW20725   4.876   4.426   0.551 -0.1545 -0.0758  0.3744
 5182SOL    HW120726   4.891   4.343   0.506 -0.8174  0.2026 -0.4101
 5182SOL    HW220727   4.868   4.490   0.480 -2.5490  0.1754  0.7556
 5182SOL     MW20728   4.877   4.423   0.535 -0.5660 -0.0046  0.3201
 5183SOL     OW20729   4.070   1.465   4.808  0.3993 -0.1582 -0.1155
 5183SOL    HW120730   3.995   1.418   4.845 -1.3532  2.1871 -0.4486
 5183SOL    HW220731   4.086   1.422   4.724 -2.1796  0.6848 -1.1414
 5183SOL     MW20732   4.062   1.453   4.802 -0.1836  0.2709 -0.2984
 5184SOL     OW20733   1.682   1.170   5.084 -0.5123 -0.0611  0.0246
 5184SOL    HW120734   1.629   1.156   5.162 -2.3349 -0.1883 -1.1771
 5184SOL    HW220735   1.633   1.234   5.032 -0.1896 -1.1385 -1.7144
 5184SOL     MW20736   1.668   1.176   5.087 -0.7142 -0.2232 -0.3711
 5185SOL     OW20737   2.785   0.150   5.034 -0.0233 -0.0259  0.6853
 5185SOL    HW120738   2.760   0.060   5.058  1.5158 -1.1018 -1.3978
 5185SOL    HW220739   2.743   0.164   4.949 -1.3120  1.7654  1.5743
 5185SOL     MW20740   2.776   0.140   5.025  0.0104  0.0703  0.5246
 5186SOL     OW20741   1.744   5.248   4.955 -0.3782 -0.2687  0.0291
 5186SOL    HW120742   1.782   5.188   5.020  0.4283 -0.2504 -0.4167
 5186SOL    HW220743   1.670   5.200   4.918 -0.0305 -0.7965  0.0147
 5186SOL     MW20744   1.739   5.234   4.959 -0.2229 -0.3373 -0.0328
 5187SOL     OW20745   1.118   5.330   2.330  0.1773  0.5992 -0.1778
 5187SOL    HW120746   1.163   5.275   2.394  1.0796 -0.1547 -1.4050
 5187SOL    HW220747   1.102   5.413   2.376 -1.6545 -0.7718  1.8899
 5187SOL     MW20748   1.122   5.334   2.345  0.0522  0.3132 -0.0647
 5188SOL     OW20749   1.523   4.691   4.511  0.2410 -0.2025 -0.1943
 5188SOL    HW120750   1.499   4.661   4.599 -0.0609 -1.1971 -0.5943
 5188SOL    HW220751   1.445   4.738   4.480  0.2680 -0.0358 -0.0111
 5188SOL     MW20752   1.509   4.693   4.519  0.2040 -0.3139 -0.2235
 5189SOL     OW20753   2.898   5.050   0.818 -0.2572 -0.1960 -0.5177
 5189SOL    HW120754   2.948   5.003   0.885  0.1625  1.5954  0.4770
 5189SOL    HW220755   2.819   4.997   0.806 -0.6736 -0.2277  1.9273
 5189SOL     MW20756   2.894   5.036   0.825 -0.2567  0.0408 -0.0548
 5190SOL     OW20757   3.168   0.538   0.526 -0.3009  0.0840  0.6302
 5190SOL    HW120758   3.190   0.524   0.618  0.3866 -1.2316  0.2959
 5190SOL    HW220759   3.242   0.589   0.492  1.2722 -2.3825  0.0487
 5190SOL     MW20760   3.181   0.543   0.534  0.0033 -0.4250  0.5069
 5191SOL     OW20761   4.736   2.404   5.481 -0.3770 -0.2140  0.2825
 5191SOL    HW120762   4.717   2.497   5.489 -0.1893 -0.0480 -1.0394
 5191SOL    HW220763   4.790   2.384   5.558 -0.4222  0.7545  0.5829
 5191SOL     MW20764   4.740   2.414   5.493 -0.3578 -0.0613  0.1450
 5192SOL     OW20765   5.008   4.737   2.560 -0.3897 -0.2743  0.0298
 5192SOL    HW120766   5.046   4.762   2.644 -0.2729 -0.4679  0.0359
 5192SOL    HW220767   5.084   4.726   2.502 -0.5521  1.5705 -0.5899
 5192SOL     MW20768   5.024   4.739   2.564 -0.3959 -0.0520 -0.0528
 5193SOL     OW20769   5.418   2.422   3.329 -0.0959  0.0703  0.1298
 5193SOL    HW120770   5.463   2.377   3.401 -0.2966  0.0919  0.2708
 5193SOL    HW220771   5.389   2.505   3.367  1.0620  0.7303 -0.3795
 5193SOL     MW20772   5.420   2.427   3.344  0.0330  0.1620  0.0802
 5194SOL     OW20773   1.114   4.858   1.673  0.5193  0.0331 -0.5398
 5194SOL    HW120774   1.129   4.870   1.767  1.5227  1.0362 -0.8095
 5194SOL    HW220775   1.178   4.792   1.647  0.7401  0.2997 -0.6661
 5194SOL     MW20776   1.124   4.851   1.682  0.6840  0.2040 -0.5931
 5195SOL     OW20777   0.702   5.454   0.338 -0.3542 -0.3217  0.1984
 5195SOL    HW120778   0.765   5.393   0.299  0.1899  0.6867 -0.5559
 5195SOL    HW220779   0.742   5.479   0.421 -0.0810 -0.1907  0.0278
 5195SOL     MW20780   0.716   5.449   0.344 -0.2442 -0.1684  0.0739
 5196SOL     OW20781   2.285   5.171   0.967 -0.1225  0.0793 -0.1243
 5196SOL    HW120782   2.226   5.101   0.939  0.7657 -0.4577 -0.7127
 5196SOL    HW220783   2.279   5.172   1.062  0.5342 -1.4356 -0.0370
 5196SOL     MW20784   2.277   5.162   0.976  0.0854 -0.1969 -0.1918
 5197SOL     OW20785   0.645   5.295   4.866  0.0000 -0.8737 -0.0992
 5197SOL    HW120786   0.602   5.219   4.828  0.4463 -1.1032 -0.1551
 5197SOL    HW220787   0.638   5.363   4.799  0.6209 -1.2194 -0.5237
 5197SOL     MW20788   0.639   5.294   4.852  0.1436 -0.9511 -0.1638
 5198SOL     OW20789   4.640   2.899   2.911  0.7382 -0.5655  0.1349
 5198SOL    HW120790   4.680   2.964   2.968  0.7882 -0.8915  0.4789
 5198SOL    HW220791   4.667   2.923   2.822  0.8335 -0.1792  0.2702
 5198SOL     MW20792   4.649   2.911   2.907  0.7577 -0.5574  0.1994
 5199SOL     OW20793   5.266   4.463   1.194 -0.0802  0.1199 -0.0390
 5199SOL    HW120794   5.354   4.466   1.156 -0.6455 -1.5900 -1.5836
 5199SOL    HW220795   5.229   4.549   1.173  0.8030  0.4206 -0.4241
 5199SOL     MW20796   5.273   4.475   1.186 -0.0374 -0.0698 -0.2987
 5200SOL     OW20797   0.561   3.407   0.137 -0.0400 -0.1470  0.0807
 5200SOL    HW120798   0.557   3.490   0.089 -1.0815 -0.9417 -1.2591
 5200SOL    HW220799   0.606   3.429   0.219  0.7238  1.4895 -0.7425
 5200SOL     MW20800   0.567   3.421   0.142 -0.0773 -0.0337 -0.2104
 5201SOL     OW20801   3.836   0.848   0.871  0.2328  0.6162 -0.1296
 5201SOL    HW120802   3.850   0.910   0.942 -0.7215  0.5405  0.1398
 5201SOL    HW220803   3.813   0.902   0.796 -0.7199  0.6063  0.1359
 5201SOL     MW20804   3.834   0.863   0.871 -0.0238  0.6047 -0.0576
 5202SOL     OW20805   0.871   1.402   1.235 -0.5779  0.2972 -0.4830
 5202SOL    HW120806   0.781   1.404   1.204 -0.2513  0.7300 -1.4256
 5202SOL    HW220807   0.882   1.315   1.272 -1.1549 -0.0166 -1.0358
 5202SOL     MW20808   0.860   1.391   1.236 -0.6116  0.3132 -0.6843
 5203SOL     OW20809   0.317   0.337   4.482  0.4049 -0.1367 -0.3203
 5203SOL    HW120810   0.268   0.411   4.446  0.5173  0.2546  0.3235
 5203SOL    HW220811   0.395   0.331   4.426  0.6719  0.5855 -0.0362
 5203SOL     MW20812   0.321   0.346   4.469  0.4559  0.0132 -0.1954
 5204SOL     OW20813   1.768   1.702   1.335 -0.1296 -0.0932 -0.0407
 5204SOL    HW120814   1.790   1.750   1.255 -1.8541 -0.1117 -0.5740
 5204SOL    HW220815   1.773   1.767   1.404  0.1585  0.2201 -0.3543
 5204SOL     MW20816   1.771   1.717   1.333 -0.3229 -0.0535 -0.1547
 5205SOL     OW20817   4.372   0.429   3.801 -0.1667  0.5201 -0.3875
 5205SOL    HW120818   4.363   0.520   3.830 -0.0676  0.2784  0.4438
 5205SOL    HW220819   4.305   0.382   3.850  0.3986  0.0017 -0.0900
 5205SOL     MW20820   4.362   0.435   3.812 -0.0773  0.4178 -0.2356
 5206SOL     OW20821   1.904   2.718   1.464 -0.3175 -0.2885 -0.4760
 5206SOL    HW120822   1.871   2.791   1.413 -1.2582 -0.6210 -0.3583
 5206SOL    HW220823   1.969   2.676   1.407  0.0812  0.5122 -0.6174
 5206SOL     MW20824   1.908   2.722   1.449 -0.3904 -0.2255 -0.4792
 5207SOL     OW20825   0.235   3.947   1.975  0.1570 -0.0545  0.0796
 5207SOL    HW120826   0.279   4.031   1.971  1.4104 -0.6701  0.5420
 5207SOL    HW220827   0.283   3.891   1.913  0.2148 -0.8142  0.7892
 5207SOL     MW20828   0.247   3.951   1.966  0.3334 -0.2396  0.2373
 5208SOL     OW20829   1.650   3.978   3.658  0.0255 -0.2063 -0.2451
 5208SOL    HW120830   1.704   4.040   3.706  0.1238 -0.6017  0.1700
 5208SOL    HW220831   1.560   4.009   3.669  0.1780  0.5775 -1.1239
 5208SOL     MW20832   1.645   3.990   3.666  0.0593 -0.1541 -0.3075
 5209SOL     OW20833   4.529   4.681   1.231 -0.6206 -0.0577 -0.1114
 5209SOL    HW120834   4.562   4.662   1.143  1.0187 -0.6072  0.5727
 5209SOL    HW220835   4.450   4.628   1.240  1.4072 -3.3025  0.1518
 5209SOL     MW20836   4.523   4.672   1.220 -0.1271 -0.5683  0.0161
 5210SOL     OW20837   0.640   2.793   1.743  0.4563 -0.5470  0.1362
 5210SOL    HW120838   0.699   2.748   1.682  0.7764 -0.3339  0.2919
 5210SOL    HW220839   0.678   2.879   1.756 -0.4424 -0.0182 -0.5783
 5210SOL     MW20840   0.653   2.798   1.737  0.3784 -0.4471  0.0610
 5211SOL     OW20841   1.067   1.472   2.831 -0.5335 -0.0623 -0.4589
 5211SOL    HW120842   1.082   1.566   2.828 -0.9626  0.0647  0.7584
 5211SOL    HW220843   0.982   1.462   2.874 -1.2023 -0.9672 -1.8783
 5211SOL     MW20844   1.057   1.483   2.836 -0.6813 -0.1670 -0.4861
 5212SOL     OW20845   3.091   0.027   1.942 -0.4445 -0.5615 -0.5158
 5212SOL    HW120846   3.080   0.074   1.859  1.1133 -0.8103 -0.9047
 5212SOL    HW220847   3.014  -0.030   1.947 -0.8671 -0.1127 -1.5016
 5212SOL     MW20848   3.079   0.026   1.931 -0.2918 -0.5346 -0.7008
 5213SOL     OW20849   0.406   2.666   1.502 -0.3041  0.0058  0.1847
 5213SOL    HW120850   0.400   2.760   1.519  0.0962  0.2244 -0.8388
 5213SOL    HW220851   0.398   2.658   1.407  0.5738 -0.9197  0.1725
 5213SOL     MW20852   0.404   2.678   1.491 -0.1321 -0.0893  0.0453
 5214SOL     OW20853   1.088   3.452   0.535 -0.5720  0.0657 -0.3731
 5214SOL    HW120854   1.044   3.454   0.619  2.3931 -1.1134  1.3743
 5214SOL    HW220855   1.078   3.362   0.504  1.3026 -0.5104  0.5459
 5214SOL     MW20856   1.081   3.440   0.542  0.0793 -0.1705 -0.0143
 5215SOL     OW20857   1.653   3.831   0.882 -0.4324  0.1100  0.2157
 5215SOL    HW120858   1.686   3.852   0.795  0.1859  1.2957  0.7217
 5215SOL    HW220859   1.726   3.850   0.941 -1.0819  0.0244  1.0698
 5215SOL     MW20860   1.667   3.836   0.878 -0.4366  0.2580  0.3988
 5216SOL     OW20861   0.898   4.400   5.480  0.0440 -0.0656  0.2306
 5216SOL    HW120862   0.871   4.489   5.457 -0.4105  0.0430  1.1515
 5216SOL    HW220863   0.954   4.410   5.557 -1.1795 -0.6703  1.2401
 5216SOL     MW20864   0.902   4.413   5.487 -0.1818 -0.1323  0.4904
 5217SOL     OW20865   4.407   0.622   4.105 -0.2881 -0.2517 -0.2579
 5217SOL    HW120866   4.341   0.645   4.039 -0.2638 -0.3167 -0.3050
 5217SOL    HW220867   4.484   0.600   4.054 -0.2721 -0.3118 -0.2072
 5217SOL     MW20868   4.408   0.622   4.089 -0.2827 -0.2685 -0.2574
 5218SOL     OW20869   0.206   3.952   2.520  0.1400 -0.1334  0.5517
 5218SOL    HW120870   0.203   3.870   2.570 -0.3923 -0.3211  0.2153
 5218SOL    HW220871   0.115   3.976   2.505  0.2797  0.9492  1.3192
 5218SOL     MW20872   0.193   3.944   2.524  0.0872 -0.0130  0.6097
 5219SOL     OW20873   1.103   3.203   5.267 -0.5651  0.0527 -0.2666
 5219SOL    HW120874   1.018   3.186   5.227 -0.5699  0.8411 -0.6041
 5219SOL    HW220875   1.154   3.245   5.198 -0.4040  0.9632  0.3899
 5219SOL     MW20876   1.099   3.206   5.253 -0.5441  0.2813 -0.2237
 5220SOL     OW20877   1.152   1.570   2.124 -0.2396  0.1756  0.1481
 5220SOL    HW120878   1.139   1.498   2.062  1.2862  1.2217 -1.4864
 5220SOL    HW220879   1.119   1.647   2.078  0.7155  0.9449  0.7112
 5220SOL     MW20880   1.146   1.570   2.109  0.0943  0.4199  0.0039
 5221SOL     OW20881   0.720   3.771   4.159  0.1225  0.1390  0.2034
 5221SOL    HW120882   0.746   3.757   4.068 -0.7025  1.5541 -0.2868
 5221SOL    HW220883   0.653   3.705   4.176  1.3625 -1.1246  0.2935
 5221SOL     MW20884   0.715   3.760   4.149  0.1783  0.1594  0.1496
 5222SOL     OW20885   0.286   1.214   1.415 -0.6795  0.4017 -0.0063
 5222SOL    HW120886   0.312   1.290   1.362  0.0082 -0.3404 -0.7518
 5222SOL    HW220887   0.318   1.235   1.503  0.4647  0.5042 -0.4338
 5222SOL     MW20888   0.293   1.227   1.420 -0.4330  0.3156 -0.1642
 5223SOL     OW20889   1.877   0.393   1.153  0.2959  0.0729  0.0800
 5223SOL    HW120890   1.782   0.396   1.145  0.4578  0.2463 -2.4645
 5223SOL    HW220891   1.904   0.323   1.093  1.8406  0.9800 -0.3414
 5223SOL     MW20892   1.868   0.384   1.144  0.5256  0.2183 -0.3192
 5224SOL     OW20893   2.473   2.115   4.226  0.3119 -0.2546 -0.0900
 5224SOL    HW120894   2.517   2.114   4.311  0.2555 -2.2232 -0.0565
 5224SOL    HW220895   2.510   2.191   4.181  1.6999 -0.2549  0.9939
 5224SOL     MW20896   2.484   2.125   4.231  0.4911 -0.5195  0.0604
 5225SOL     OW20897   2.083   2.315   5.382  0.2628 -0.6650 -0.5004
 5225SOL    HW120898   2.088   2.295   5.289  0.3365 -0.4934 -0.5340
 5225SOL    HW220899   2.044   2.403   5.386 -1.2842 -1.3326 -0.3048
 5225SOL     MW20900   2.078   2.324   5.370  0.0645 -0.7317 -0.4786
 5226SOL     OW20901   1.339   5.413   1.513  0.2431 -0.1017 -0.2435
 5226SOL    HW120902   1.386   5.363   1.446 -1.0229  0.0369 -1.2511
 5226SOL    HW220903   1.365   5.370   1.595  0.9137 -1.0079 -0.8986
 5226SOL     MW20904   1.349   5.400   1.515  0.1630 -0.2050 -0.4673
 5227SOL     OW20905   2.400   0.285   4.802  0.0047 -0.4053 -0.3549
 5227SOL    HW120906   2.438   0.373   4.800 -0.7663 -0.0676 -0.7864
 5227SOL    HW220907   2.378   0.267   4.711 -0.8305 -0.6029 -0.1193
 5227SOL     MW20908   2.402   0.294   4.789 -0.2114 -0.3864 -0.3812
 5228SOL     OW20909   4.559   3.054   0.691  0.4798  0.6070 -0.5733
 5228SOL    HW120910   4.472   3.080   0.661  0.3370 -1.2872 -1.9815
 5228SOL    HW220911   4.615   3.066   0.614  1.2840  0.9159  0.0492
 5228SOL     MW20912   4.555   3.059   0.677  0.5688  0.3937 -0.6790
 5229SOL     OW20913   4.193   1.065   4.487 -0.0675 -0.4842 -0.1361
 5229SOL    HW120914   4.213   1.018   4.407 -0.6222 -0.2296 -0.4274
 5229SOL    HW220915   4.100   1.048   4.503  0.2372 -1.2691  0.9416
 5229SOL     MW20916   4.183   1.057   4.479 -0.1012 -0.5556 -0.0303
 5230SOL     OW20917   1.755   4.947   4.548  0.0059  0.0124 -0.3199
 5230SOL    HW120918   1.787   5.027   4.505 -0.0050 -0.4665 -1.2415
 5230SOL    HW220919   1.773   4.877   4.485 -0.9303 -0.5653  0.0380
 5230SOL     MW20920   1.762   4.949   4.534 -0.1216 -0.1298 -0.3958
 5231SOL     OW20921   4.429   2.528   1.416 -0.5824 -0.5640 -0.4392
 5231SOL    HW120922   4.490   2.487   1.355  0.5380  1.1056 -0.5006
 5231SOL    HW220923   4.359   2.563   1.361  0.0241  0.2485 -0.7116
 5231SOL     MW20924   4.428   2.527   1.401 -0.3500 -0.2299 -0.4841
 5232SOL     OW20925   4.630   4.889   2.830  0.9805  0.3906 -0.0066
 5232SOL    HW120926   4.535   4.882   2.840  0.9675  1.0567  0.3885
 5232SOL    HW220927   4.643   4.911   2.738  0.8497 -1.2908 -0.4553
 5232SOL     MW20928   4.619   4.891   2.819  0.9612  0.2540 -0.0138
 5233SOL     OW20929   1.491   2.264   1.105 -0.1532 -0.0054 -0.4501
 5233SOL    HW120930   1.563   2.270   1.042  1.7414 -1.4784  1.4169
 5233SOL    HW220931   1.475   2.170   1.114 -0.5404  0.1817  1.0370
 5233SOL     MW20932   1.499   2.252   1.098  0.0497 -0.1784  0.0013
 5234SOL     OW20933   1.954   4.934   2.219  0.2991  0.2575 -0.1082
 5234SOL    HW120934   2.028   4.979   2.179  1.4626 -1.0156  0.5097
 5234SOL    HW220935   1.976   4.930   2.312  0.9834 -2.7935 -0.2998
 5234SOL     MW20936   1.967   4.940   2.226  0.5478 -0.3244 -0.0508
 5235SOL     OW20937   3.478   2.984   4.586 -0.0018  0.0317  0.0666
 5235SOL    HW120938   3.467   3.051   4.519  0.5249  0.2088  0.1543
 5235SOL    HW220939   3.434   2.907   4.550 -1.2224  0.6049  0.2683
 5235SOL     MW20940   3.471   2.982   4.572 -0.0952  0.1327  0.1056
 5236SOL     OW20941   4.567   4.415   4.850  0.6327  0.5216  0.2195
 5236SOL    HW120942   4.571   4.410   4.946  0.5862  2.6784  0.3766
 5236SOL    HW220943   4.557   4.508   4.831 -1.1224 -0.0085 -1.8455
 5236SOL     MW20944   4.566   4.427   4.861  0.3902  0.7405 -0.0373
 5237SOL     OW20945   4.337   4.666   1.658  0.5765  0.0052  0.0991
 5237SOL    HW120946   4.324   4.615   1.578 -1.0989 -0.1320  0.4056
 5237SOL    HW220947   4.249   4.697   1.681  1.1647  0.8301  1.3700
 5237SOL     MW20948   4.323   4.663   1.650  0.4302  0.0978  0.3114
 5238SOL     OW20949   2.253   0.936   3.613  0.0906 -0.4926  0.1040
 5238SOL    HW120950   2.183   0.997   3.634  1.1421  0.1540  1.9251
 5238SOL    HW220951   2.331   0.990   3.608  0.7012 -1.4056 -0.4280
 5238SOL     MW20952   2.254   0.951   3.615  0.3143 -0.5284  0.2775
 5239SOL     OW20953   5.046   0.086   0.888  0.0998 -0.0365 -0.0425
 5239SOL    HW120954   5.054  -0.006   0.866  0.2884 -0.6257  2.2219
 5239SOL    HW220955   5.055   0.089   0.983 -0.9319  2.2088  0.0552
 5239SOL     MW20956   5.049   0.074   0.898 -0.0137  0.1864  0.2754
 5240SOL     OW20957   2.506   0.026   1.044 -0.0108  0.0819 -0.2162
 5240SOL    HW120958   2.573  -0.029   1.003 -0.0706 -0.5871  0.5545
 5240SOL    HW220959   2.423  -0.007   1.009 -0.0345 -0.1914  0.0947
 5240SOL     MW20960   2.504   0.014   1.033 -0.0221 -0.0449 -0.0706
 5241SOL     OW20961   3.752   2.674   0.056 -0.0531 -0.5596 -0.5047
 5241SOL    HW120962   3.741   2.601  -0.005  4.3568 -3.1791  1.3631
 5241SOL    HW220963   3.825   2.724   0.022 -1.0244  1.2397 -0.0965
 5241SOL     MW20964   3.760   2.670   0.043  0.4096 -0.6700 -0.1984
 5242SOL     OW20965   2.240   0.905   3.056  0.2302 -0.0131  0.7069
 5242SOL    HW120966   2.299   0.869   2.990  3.1350  2.4253  1.6915
 5242SOL    HW220967   2.254   0.851   3.134  0.3820 -0.0694  0.6405
 5242SOL     MW20968   2.250   0.893   3.058  0.6415  0.3075  0.8305
 5243SOL     OW20969   1.945   3.766   1.475 -0.0178  0.4161  0.4617
 5243SOL    HW120970   1.891   3.743   1.399 -2.8022  2.3001  1.7042
 5243SOL    HW220971   2.003   3.835   1.443  0.3859 -0.2927 -0.4149
 5243SOL     MW20972   1.946   3.772   1.460 -0.3382  0.5743  0.5110
 5244SOL     OW20973   2.008   1.836   0.527  0.2223  0.3579  0.5053
 5244SOL    HW120974   1.982   1.783   0.452  0.1779  0.3649  0.5158
 5244SOL    HW220975   2.015   1.772   0.599 -0.9968  0.5312  0.8067
 5244SOL     MW20976   2.005   1.820   0.527  0.0523  0.3822  0.5473
 5245SOL     OW20977   1.296   3.870   3.083  0.0432 -0.8076 -0.1701
 5245SOL    HW120978   1.249   3.942   3.125  0.8372 -1.2904  1.6434
 5245SOL    HW220979   1.365   3.913   3.032  1.7587 -0.2271  2.4391
 5245SOL     MW20980   1.299   3.886   3.082  0.3809 -0.7944  0.4251
 5246SOL     OW20981   0.558   1.577   5.030  0.3418 -0.1448  0.3523
 5246SOL    HW120982   0.528   1.664   5.006  1.9097  0.2010 -0.4675
 5246SOL    HW220983   0.521   1.519   4.963  0.4496  0.0964  0.0845
 5246SOL     MW20984   0.549   1.581   5.018  0.5673 -0.0658  0.2059
 5247SOL     OW20985   4.408   0.490   3.030  0.0861  0.0936  0.1666
 5247SOL    HW120986   4.465   0.414   3.044  1.1200  0.8960  0.4445
 5247SOL    HW220987   4.327   0.467   3.076  0.9141 -0.2586  1.5357
 5247SOL     MW20988   4.405   0.477   3.038  0.3367  0.1542  0.3882
 5248SOL     OW20989   4.120   0.780   3.167  0.6179  0.7008  0.4085
 5248SOL    HW120990   4.103   0.867   3.133  0.1554  0.7348  0.7157
 5248SOL    HW220991   4.072   0.721   3.109  1.5221  0.5752 -0.2452
 5248SOL     MW20992   4.111   0.784   3.155  0.6773  0.6885  0.3619
 5249SOL     OW20993   0.727   3.196   3.066  0.2751 -0.6051 -0.4612
 5249SOL    HW120994   0.651   3.234   3.023 -0.0626 -1.7119 -0.8801
 5249SOL    HW220995   0.802   3.242   3.028 -0.1868  1.9755  1.4313
 5249SOL     MW20996   0.727   3.207   3.055  0.1675 -0.4067 -0.2629
 5250SOL     OW20997   4.769   4.935   3.743 -0.0155  0.2653 -0.0473
 5250SOL    HW120998   4.833   4.976   3.801  1.5881 -1.8720 -0.1755
 5250SOL    HW220999   4.684   4.957   3.781  0.9106  0.7433  1.8621
 5250SOL     MW21000   4.766   4.943   3.756  0.3250  0.0420  0.1924
 5251SOL     OW21001   1.269   3.626   3.204  0.5720 -0.5847 -0.1376
 5251SOL    HW121002   1.277   3.555   3.141 -1.9235 -0.8595 -0.2548
 5251SOL    HW221003   1.292   3.705   3.155  0.4547 -0.9948 -0.8669
 5251SOL     MW21004   1.273   3.627   3.189  0.2203 -0.6768 -0.2515
 5252SOL     OW21005   4.016   2.349   3.872  0.2361 -0.0132  0.0747
 5252SOL    HW121006   3.925   2.332   3.896  0.1618  0.9160  0.4833
 5252SOL    HW221007   4.067   2.327   3.950  0.4644 -1.3053 -0.4094
 5252SOL     MW21008   4.011   2.344   3.885  0.2568 -0.0620  0.0646
 5253SOL     OW21009   1.275   3.244   1.114 -0.1090 -0.1502 -0.3190
 5253SOL    HW121010   1.306   3.178   1.176 -2.0441 -1.5539 -0.7901
 5253SOL    HW221011   1.264   3.198   1.031  0.7081  1.3091 -1.2956
 5253SOL     MW21012   1.278   3.229   1.111 -0.2595 -0.1427 -0.5138
 5254SOL     OW21013   2.662   2.604   2.298  0.4814 -0.0258  0.8873
 5254SOL    HW121014   2.605   2.534   2.267  0.2897  0.3921  0.2806
 5254SOL    HW221015   2.733   2.558   2.345 -0.1966 -0.5572  1.4111
 5254SOL     MW21016   2.664   2.588   2.300  0.3643 -0.0411  0.8762
 5255SOL     OW21017   4.505   3.309   3.858 -0.1152 -0.3916  0.0632
 5255SOL    HW121018   4.471   3.330   3.771  0.1649  0.2006  0.0928
 5255SOL    HW221019   4.488   3.215   3.868  0.1010 -0.5258 -0.7399
 5255SOL     MW21020   4.498   3.299   3.848 -0.0484 -0.3300 -0.0409
 5256SOL     OW21021   0.188   4.968   5.173  0.0101 -0.0852  0.3972
 5256SOL    HW121022   0.250   4.902   5.142 -0.1252  0.5855 -1.4321
 5256SOL    HW221023   0.203   5.044   5.116  0.0530  1.4405  2.3158
 5256SOL     MW21024   0.198   4.969   5.161 -0.0023  0.2104  0.4092
 5257SOL     OW21025   1.627   4.302   4.822  0.2500 -0.2979 -0.2038
 5257SOL    HW121026   1.633   4.207   4.818  0.2444 -0.4756  2.4722
 5257SOL    HW221027   1.532   4.319   4.820  0.2691 -0.2545 -1.5685
 5257SOL     MW21028   1.615   4.292   4.821  0.2518 -0.3159 -0.0273
 5258SOL     OW21029   4.764   1.246   2.494 -0.0616 -0.3402 -0.0916
 5258SOL    HW121030   4.675   1.278   2.508  0.0792 -0.5625  1.5140
 5258SOL    HW221031   4.796   1.296   2.419 -1.4051  0.0060 -0.4529
 5258SOL     MW21032   4.756   1.257   2.486 -0.2234 -0.3235  0.0758
 5259SOL     OW21033   1.868   3.693   4.487  0.3003 -0.1860  0.0936
 5259SOL    HW121034   1.824   3.671   4.404 -1.4821  1.2021  0.6070
 5259SOL    HW221035   1.961   3.699   4.464  0.1315 -1.9773 -1.3157
 5259SOL     MW21036   1.874   3.691   4.472  0.0377 -0.2403 -0.0270
 5260SOL     OW21037   0.584   1.958   5.433  0.0710 -0.2454  0.2523
 5260SOL    HW121038   0.576   2.052   5.419  0.8912 -0.2881 -0.6288
 5260SOL    HW221039   0.670   1.936   5.397 -0.8050 -1.5897 -1.1407
 5260SOL     MW21040   0.595   1.968   5.426  0.0635 -0.4321 -0.0537
 5261SOL     OW21041   2.801   0.673   2.641  0.0469  0.1186  0.2576
 5261SOL    HW121042   2.762   0.727   2.572 -2.0507 -0.2098  1.1214
 5261SOL    HW221043   2.825   0.736   2.709  2.1542  0.4482 -0.6900
 5261SOL     MW21044   2.799   0.689   2.641  0.0482  0.1187  0.2463
 5262SOL     OW21045   0.154   2.378   1.768 -0.0267  0.1466  0.5324
 5262SOL    HW121046   0.181   2.286   1.776 -2.8197 -0.5639  4.1169
 5262SOL    HW221047   0.062   2.374   1.743  0.4053  2.1623 -1.7841
 5262SOL     MW21048   0.146   2.365   1.765 -0.3445  0.3222  0.7031
 5263SOL     OW21049   0.406   0.032   4.854  0.4109 -0.1704 -0.0880
 5263SOL    HW121050   0.314   0.051   4.873  0.7035 -0.0090  1.2673
 5263SOL    HW221051   0.404  -0.053   4.812 -0.3012 -0.6227  0.8099
 5263SOL     MW21052   0.393   0.023   4.851  0.3545 -0.2095  0.2152
 5264SOL     OW21053   4.226   4.422   0.708 -0.0717 -0.1173  0.0505
 5264SOL    HW121054   4.142   4.384   0.734 -0.0518  1.2912  2.4776
 5264SOL    HW221055   4.290   4.352   0.724 -0.7682 -1.5258 -2.6950
 5264SOL     MW21056   4.224   4.407   0.714 -0.1628 -0.1173  0.0076
 5265SOL     OW21057   0.407   0.518   2.106  0.4883 -0.4500 -0.1252
 5265SOL    HW121058   0.462   0.527   2.184 -0.0173 -1.4425  0.3639
 5265SOL    HW221059   0.431   0.593   2.051  0.2855  0.7449  1.3264
 5265SOL     MW21060   0.418   0.529   2.109  0.3929 -0.4228  0.1360
 5266SOL     OW21061   2.611   0.294   3.995  0.0870 -0.2864 -0.4772
 5266SOL    HW121062   2.619   0.331   3.907 -0.1175 -0.0314 -0.3894
 5266SOL    HW221063   2.684   0.332   4.043 -0.8211  0.9608 -0.0544
 5266SOL     MW21064   2.622   0.304   3.989 -0.0628 -0.0842 -0.4085
 5267SOL     OW21065   2.886   3.598   2.048 -0.4519  1.1184 -0.0827
 5267SOL    HW121066   2.917   3.686   2.071 -1.4021  1.0165  1.7835
 5267SOL    HW221067   2.833   3.612   1.970  1.0325  1.8662 -1.0110
 5267SOL     MW21068   2.883   3.612   2.041 -0.3800  1.2053  0.0435
 5268SOL     OW21069   1.021   2.886   1.509  0.4451 -0.0784  0.4317
 5268SOL    HW121070   0.951   2.948   1.489  1.0630  0.5749  0.2426
 5268SOL    HW221071   0.978   2.814   1.554 -0.2727  0.5481  0.7630
 5268SOL     MW21072   1.006   2.885   1.512  0.4316  0.0938  0.4508
 5269SOL     OW21073   0.231   4.483   0.750 -0.2680  0.1351  0.3651
 5269SOL    HW121074   0.172   4.410   0.766  0.1004  0.1115  1.7606
 5269SOL    HW221075   0.301   4.446   0.697 -1.4420  0.1601 -1.2855
 5269SOL     MW21076   0.233   4.468   0.745 -0.3764  0.1353  0.3308
 5270SOL     OW21077   4.758   4.678   2.996  0.1720  0.0411  0.4049
 5270SOL    HW121078   4.737   4.732   3.072 -0.9642 -1.4319  1.1865
 5270SOL    HW221079   4.726   4.729   2.921  1.2741  1.4834  0.8767
 5270SOL     MW21080   4.751   4.692   2.996  0.1674  0.0370  0.5736
 5271SOL     OW21081   1.392   2.124   2.922  0.0060  0.0502  0.1368
 5271SOL    HW121082   1.469   2.161   2.966 -0.3182 -0.1909  0.9125
 5271SOL    HW221083   1.407   2.029   2.924 -0.6748 -0.0460  0.9739
 5271SOL     MW21084   1.405   2.116   2.928 -0.1293  0.0048  0.3538
 5272SOL     OW21085   1.873   1.260   1.125  0.2422 -0.2137 -0.6510
 5272SOL    HW121086   1.869   1.327   1.193  0.2210 -1.1682  0.3194
 5272SOL    HW221087   1.783   1.252   1.094  0.2666  0.2823 -0.8505
 5272SOL     MW21088   1.860   1.268   1.130  0.2426 -0.2754 -0.5473
 5273SOL     OW21089   4.729   2.178   3.905  0.2188 -0.2786  0.8399
 5273SOL    HW121090   4.739   2.241   3.833 -4.7532 -0.6427 -0.5621
 5273SOL    HW221091   4.794   2.111   3.888  2.1796  1.8590 -0.6765
 5273SOL     MW21092   4.739   2.178   3.893 -0.1865 -0.0399  0.4471
 5274SOL     OW21093   0.460   1.833   4.951 -0.0617  0.2160  0.1954
 5274SOL    HW121094   0.418   1.859   5.033 -0.3637 -0.5266  0.2760
 5274SOL    HW221095   0.387   1.823   4.889  0.1122  0.1721 -0.0026
 5274SOL     MW21096   0.444   1.835   4.954 -0.0789  0.1101  0.1796
 5275SOL     OW21097   0.972   3.237   4.335  0.1572 -0.5069 -0.3793
 5275SOL    HW121098   1.032   3.225   4.262 -1.3018  0.1325 -1.7298
 5275SOL    HW221099   0.920   3.314   4.312  0.5442  0.5222  1.9620
 5275SOL     MW21100   0.973   3.246   4.322  0.0130 -0.2824 -0.2460
 5276SOL     OW21101   5.488   2.122   0.782  0.1394 -0.4148  0.1434
 5276SOL    HW121102   5.471   2.194   0.843  0.7023  0.1731 -0.3635
 5276SOL    HW221103   5.465   2.043   0.830 -1.5933  0.1592  0.3238
 5276SOL     MW21104   5.483   2.121   0.796 -0.0181 -0.2584  0.0995
 5277SOL     OW21105   1.201   0.749   3.297 -0.4733  0.2872  0.2642
 5277SOL    HW121106   1.293   0.741   3.272 -0.6295  0.2746 -0.3292
 5277SOL    HW221107   1.176   0.838   3.270 -0.3581  0.6792  1.3815
 5277SOL     MW21108   1.210   0.760   3.290 -0.4788  0.3383  0.3347
 5278SOL     OW21109   3.258   1.139   2.276  0.3743 -0.3501 -0.0604
 5278SOL    HW121110   3.329   1.112   2.335  2.1384  2.6640 -0.6213
 5278SOL    HW221111   3.192   1.177   2.333  0.9356  0.2487  0.2061
 5278SOL     MW21112   3.259   1.140   2.292  0.6873  0.1361 -0.1000
 5279SOL     OW21113   0.614   3.883   0.496 -0.7043 -0.0145  0.2717
 5279SOL    HW121114   0.615   3.865   0.403  0.2396  0.5951  0.1489
 5279SOL    HW221115   0.706   3.877   0.523 -0.7820  1.1049  0.8786
 5279SOL     MW21116   0.626   3.880   0.487 -0.5878  0.2182  0.3368
 5280SOL     OW21117   4.534   0.857   4.707 -0.1592 -0.7001 -0.1019
 5280SOL    HW121118   4.519   0.948   4.682  1.1232 -0.1953  0.8516
 5280SOL    HW221119   4.479   0.844   4.784 -2.8787 -1.7809 -2.0461
 5280SOL     MW21120   4.525   0.867   4.714 -0.3526 -0.7776 -0.2352
 5281SOL     OW21121   3.321   1.101   5.279  0.2444  0.0095 -0.2129
 5281SOL    HW121122   3.359   1.103   5.191  0.8329  0.0915  0.0389
 5281SOL    HW221123   3.273   1.183   5.285  0.1768 -0.0089 -0.4693
 5281SOL     MW21124   3.320   1.112   5.268  0.3145  0.0181 -0.2135
 5282SOL     OW21125   0.059   3.825   1.029  0.0263 -0.1378  0.6414
 5282SOL    HW121126   0.025   3.908   1.063  0.5707  0.2114  0.3466
 5282SOL    HW221127   0.052   3.834   0.934 -1.0917 -0.9389  0.6225
 5282SOL     MW21128   0.053   3.838   1.021 -0.0509 -0.1986  0.5992
 5283SOL     OW21129   4.755   2.057   0.193 -0.1265 -0.5450  0.0082
 5283SOL    HW121130   4.805   2.029   0.117  1.7778  1.6335  0.3129
 5283SOL    HW221131   4.788   2.145   0.212 -3.7268  0.8514  0.6388
 5283SOL     MW21132   4.766   2.065   0.186 -0.3548 -0.0639  0.1341
 5284SOL     OW21133   0.387   2.286   3.203  0.8921  0.1269 -0.6743
 5284SOL    HW121134   0.444   2.347   3.250  0.3899  0.5824 -0.6422
 5284SOL    HW221135   0.377   2.325   3.116 -0.2252  0.6153 -0.3422
 5284SOL     MW21136   0.393   2.300   3.198  0.6741  0.2539 -0.6253
 5285SOL     OW21137   4.348   2.288   1.503  0.2893 -0.0989 -0.3393
 5285SOL    HW121138   4.374   2.377   1.480  0.6349 -0.1172 -0.0250
 5285SOL    HW221139   4.253   2.286   1.488  0.0657  0.6886  0.8341
 5285SOL     MW21140   4.338   2.300   1.498  0.3057  0.0046 -0.1391
 5286SOL     OW21141   2.307   1.306   5.005 -0.1144  0.4762  0.3824
 5286SOL    HW121142   2.241   1.299   5.074 -0.6672 -0.1139 -0.1933
 5286SOL    HW221143   2.292   1.231   4.948  1.1204  0.2739  0.2806
 5286SOL     MW21144   2.296   1.295   5.006 -0.0226  0.3696  0.2912
 5287SOL     OW21145   0.945   0.464   5.005 -0.2353 -0.3537 -0.1035
 5287SOL    HW121146   0.921   0.490   5.094  0.2519  0.1420 -0.1126
 5287SOL    HW221147   1.007   0.531   4.976  0.2822 -0.9902 -0.4984
 5287SOL     MW21148   0.950   0.477   5.013 -0.1001 -0.3727 -0.1579
 5288SOL     OW21149   0.856   0.826   3.146 -0.6671 -0.5270  0.3930
 5288SOL    HW121150   0.921   0.770   3.105  0.3843  0.8166  0.1403
 5288SOL    HW221151   0.805   0.861   3.073  1.2303  1.8976  0.0778
 5288SOL     MW21152   0.858   0.823   3.131 -0.2703 -0.0199  0.3166
 5289SOL     OW21153   3.159   4.607   0.199  0.4325  0.1739 -0.2117
 5289SOL    HW121154   3.204   4.549   0.260  2.9593 -0.8011 -2.7681
 5289SOL    HW221155   3.217   4.684   0.192  0.2606  0.2084 -1.4211
 5289SOL     MW21156   3.173   4.610   0.206  0.7494  0.0473 -0.7185
 5290SOL     OW21157   4.048   4.710   4.877 -0.3641 -0.8535  0.5884
 5290SOL    HW121158   4.090   4.787   4.917 -0.7201  0.2039 -0.9845
 5290SOL    HW221159   3.959   4.710   4.912 -0.8329  0.3639 -0.5181
 5290SOL     MW21160   4.042   4.721   4.887 -0.4751 -0.5473  0.2278
 5291SOL     OW21161   1.435   3.588   2.433  0.0344 -0.6205  0.0909
 5291SOL    HW121162   1.422   3.549   2.519 -1.3422  0.2427  0.3084
 5291SOL    HW221163   1.445   3.514   2.374 -0.3966 -1.2506  0.7921
 5291SOL     MW21164   1.435   3.573   2.437 -0.2088 -0.5891  0.2146
 5292SOL     OW21165   3.274   0.487   0.783  0.4393  0.3102 -0.3593
 5292SOL    HW121166   3.358   0.526   0.807  1.2356 -1.4931  0.0024
 5292SOL    HW221167   3.223   0.488   0.864  1.4235 -1.6389  0.3549
 5292SOL     MW21168   3.278   0.492   0.797  0.6789 -0.1948 -0.2145
 5293SOL     OW21169   5.238   0.599   3.474  0.8295 -0.6111  0.3890
 5293SOL    HW121170   5.328   0.582   3.447  1.4946  2.7968 -0.1112
 5293SOL    HW221171   5.206   0.662   3.409 -1.3744 -0.5238  1.4612
 5293SOL     MW21172   5.246   0.605   3.461  0.6224 -0.1407  0.4660
 5294SOL     OW21173   4.341   0.654   2.191 -0.2629  0.3921 -0.3738
 5294SOL    HW121174   4.256   0.624   2.157 -1.5274  1.5477  1.5995
 5294SOL    HW221175   4.349   0.612   2.276  0.3526  1.6036  0.1851
 5294SOL     MW21176   4.331   0.644   2.198 -0.3502  0.7107 -0.0330
 5295SOL     OW21177   4.649   2.874   4.864  0.2548 -0.4580 -0.1337
 5295SOL    HW121178   4.699   2.895   4.785  0.7327 -1.7489 -0.2118
 5295SOL    HW221179   4.629   2.781   4.855 -3.0263  0.1821 -0.5568
 5295SOL     MW21180   4.653   2.864   4.852 -0.1224 -0.5456 -0.2012
 5296SOL     OW21181   5.431   1.093   5.317 -0.1577 -0.3221 -0.0796
 5296SOL    HW121182   5.441   1.179   5.358  0.3801 -1.0071  1.2802
 5296SOL    HW221183   5.502   1.088   5.253  0.4507 -0.1578  0.5695
 5296SOL     MW21184   5.442   1.104   5.314 -0.0034 -0.3922  0.1908
 5297SOL     OW21185   5.402   2.988   4.660  0.5035  0.1469  0.1790
 5297SOL    HW121186   5.474   3.008   4.600  0.9803  0.1215  0.7353
 5297SOL    HW221187   5.437   2.921   4.719 -0.3038 -0.6017 -0.1652
 5297SOL     MW21188   5.417   2.982   4.660  0.4590  0.0427  0.2075
 5298SOL     OW21189   0.304   0.911   2.302  0.8478  0.1382  0.0649
 5298SOL    HW121190   0.384   0.929   2.351 -0.0668  0.0038  1.6716
 5298SOL    HW221191   0.332   0.908   2.210  2.7500 -0.3908  0.6213
 5298SOL     MW21192   0.318   0.913   2.296  0.9807  0.0489  0.3560
 5299SOL     OW21193   1.852   3.321   5.292 -0.0942 -0.0191 -0.0394
 5299SOL    HW121194   1.920   3.387   5.295  0.0463  0.0093 -2.3738
 5299SOL    HW221195   1.864   3.270   5.373  0.8565  1.7027  0.9593
 5299SOL     MW21196   1.863   3.323   5.304  0.0526  0.2165 -0.2191
 5300SOL     OW21197   5.263   1.030   1.065 -0.0439  0.4419 -0.1931
 5300SOL    HW121198   5.348   1.070   1.081  0.1146  0.0648 -0.0995
 5300SOL    HW221199   5.215   1.096   1.016 -0.2834  1.3386  1.1893
 5300SOL     MW21200   5.268   1.044   1.061 -0.0548  0.5119  0.0055
 5301SOL     OW21201   1.708   3.939   0.637 -0.5261 -0.6098  0.2383
 5301SOL    HW121202   1.763   4.012   0.666 -1.2446  0.1817 -0.3583
 5301SOL    HW221203   1.743   3.915   0.551 -1.1031 -0.0941 -0.1498
 5301SOL     MW21204   1.720   3.946   0.630 -0.7004 -0.4339  0.1058
 5302SOL     OW21205   5.131   4.408   0.890 -0.2079  0.3882  0.1609
 5302SOL    HW121206   5.166   4.319   0.883  1.2263  0.9562 -0.2117
 5302SOL    HW221207   5.167   4.441   0.973 -0.5059  0.7250  0.1577
 5302SOL     MW21208   5.141   4.401   0.900 -0.0550  0.5100  0.1103
 5303SOL     OW21209   0.049   2.737   3.099 -0.5629  0.6369 -0.2975
 5303SOL    HW121210   0.086   2.774   3.179 -0.6389  0.7107 -0.2962
 5303SOL    HW221211   0.057   2.643   3.109  0.3034  0.6690 -0.6155
 5303SOL     MW21212   0.055   2.730   3.111 -0.4566  0.6511 -0.3401
 5304SOL     OW21213   5.097   2.557   3.534  0.1382 -0.0480  0.7907
 5304SOL    HW121214   5.191   2.573   3.535  0.5330 -1.6345 -1.7925
 5304SOL    HW221215   5.081   2.505   3.612  1.2841  0.6977  1.5559
 5304SOL     MW21216   5.108   2.552   3.544  0.3456 -0.1612  0.5460
 5305SOL     OW21217   2.918   2.404   2.906  0.1699 -0.5406  0.4973
 5305SOL    HW121218   3.006   2.368   2.896  1.4137  2.1679  0.6748
 5305SOL    HW221219   2.887   2.369   2.989  1.4824 -0.8025  0.8962
 5305SOL     MW21220   2.926   2.394   2.916  0.5139 -0.2114  0.5749
 5306SOL     OW21221   0.844   4.964   0.893 -0.0188  0.4494 -0.1344
 5306SOL    HW121222   0.806   4.879   0.917 -2.0119  1.3015 -0.1324
 5306SOL    HW221223   0.804   4.985   0.809  2.5427  0.1841 -1.5478
 5306SOL     MW21224   0.834   4.955   0.885  0.0577  0.5284 -0.3244
 5307SOL     OW21225   3.264   1.428   2.437  0.2038  0.4867  0.1834
 5307SOL    HW121226   3.235   1.373   2.510  0.2260 -1.3688 -1.1237
 5307SOL    HW221227   3.349   1.462   2.465  0.3154 -0.3700  0.9348
 5307SOL     MW21228   3.272   1.425   2.451  0.2218  0.1217  0.1086
 5308SOL     OW21229   2.194   2.700   1.290 -0.2072 -0.2750 -0.2997
 5308SOL    HW121230   2.275   2.664   1.254  0.1854  0.8666 -0.5922
 5308SOL    HW221231   2.174   2.775   1.235 -0.8414  0.1494  0.4824
 5308SOL     MW21232   2.202   2.705   1.278 -0.2397 -0.0643 -0.2338
 5309SOL     OW21233   4.810   5.522   3.266 -0.7366  0.2107 -0.1043
 5309SOL    HW121234   4.863   5.498   3.341  0.0950  1.1310 -0.3734
 5309SOL    HW221235   4.786   5.439   3.225  2.0026 -0.2182 -0.9956
 5309SOL     MW21236   4.814   5.508   3.270 -0.2560  0.2768 -0.2605
 5310SOL     OW21237   1.736   4.386   1.162 -0.3870 -0.9359  0.8290
 5310SOL    HW121238   1.695   4.360   1.080 -2.2167 -0.6193  1.6045
 5310SOL    HW221239   1.765   4.303   1.201  0.8759 -1.0546 -0.2912
 5310SOL     MW21240   1.735   4.371   1.156 -0.4633 -0.9092  0.7826
 5311SOL     OW21241   2.534   4.366   2.772 -0.0836 -0.0672 -0.1913
 5311SOL    HW121242   2.609   4.410   2.732  0.2317  1.3405  1.7926
 5311SOL    HW221243   2.572   4.292   2.819 -0.0013  0.2854  0.3044
 5311SOL     MW21244   2.549   4.362   2.773 -0.0301  0.1697  0.1424
 5312SOL     OW21245   5.109   2.979   1.460 -0.0467 -0.3965 -0.1111
 5312SOL    HW121246   5.075   2.985   1.371 -0.4509  2.6813  0.1245
 5312SOL    HW221247   5.201   2.957   1.449  0.0377  0.4658 -1.3656
 5312SOL     MW21248   5.117   2.977   1.447 -0.0897  0.1338 -0.2483
 5313SOL     OW21249   4.981   1.409   1.735 -0.2810  0.3777  0.1863
 5313SOL    HW121250   5.032   1.330   1.753  0.6274  0.9195  0.0670
 5313SOL    HW221251   5.022   1.476   1.790 -1.3419  0.6615  0.6458
 5313SOL     MW21252   4.994   1.407   1.745 -0.3015  0.4888  0.2321
 5314SOL     OW21253   4.134   4.299   4.331 -0.3077  0.2411  0.1832
 5314SOL    HW121254   4.159   4.295   4.423 -0.4471  0.8658  0.2512
 5314SOL    HW221255   4.099   4.212   4.312 -0.9695  0.3315  0.9267
 5314SOL     MW21256   4.132   4.287   4.341 -0.4155  0.3374  0.2924
 5315SOL     OW21257   2.142   3.717   4.411 -0.1934 -0.5801  0.0964
 5315SOL    HW121258   2.212   3.665   4.450 -0.6556 -0.6294  0.8822
 5315SOL    HW221259   2.165   3.808   4.433 -1.0997 -0.6885  1.5952
 5315SOL     MW21260   2.154   3.722   4.419 -0.3776 -0.6013  0.4039
 5316SOL     OW21261   5.112   2.915   3.803 -0.2012 -0.1192 -0.2180
 5316SOL    HW121262   5.154   2.910   3.889  1.4626  1.2226 -0.8891
 5316SOL    HW221263   5.057   2.994   3.809 -2.1462 -1.4306  0.3923
 5316SOL     MW21264   5.110   2.925   3.815 -0.2390 -0.1151 -0.2261
 5317SOL     OW21265   1.757   1.364   2.578  0.1083 -0.3525 -0.3459
 5317SOL    HW121266   1.706   1.302   2.630  0.8635 -0.5901  0.1227
 5317SOL    HW221267   1.831   1.387   2.634  0.4825  0.0395 -0.9944
 5317SOL     MW21268   1.760   1.359   2.592  0.2603 -0.3317 -0.3701
 5318SOL     OW21269   2.974   2.313   4.155  1.0809  0.5523 -0.6408
 5318SOL    HW121270   2.890   2.296   4.112  1.2609 -0.4405 -0.6218
 5318SOL    HW221271   2.984   2.408   4.152 -0.2440  0.7102 -0.2538
 5318SOL     MW21272   2.964   2.324   4.149  0.9268  0.4399 -0.5862
 5319SOL     OW21273   0.650   1.610   3.960 -0.3405 -0.0228 -0.0071
 5319SOL    HW121274   0.588   1.682   3.946 -2.0198 -1.5017 -0.6335
 5319SOL    HW221275   0.662   1.608   4.055 -0.1862  1.1264  0.0182
 5319SOL     MW21276   0.643   1.620   3.971 -0.5457 -0.0672 -0.0880
 5320SOL     OW21277   2.331   5.009   4.334 -0.1814  0.9997 -0.1225
 5320SOL    HW121278   2.425   5.007   4.351 -0.3780 -0.4943  1.0072
 5320SOL    HW221279   2.320   4.956   4.255 -0.1121  0.7919  0.0057
 5320SOL     MW21280   2.342   5.002   4.325 -0.1985  0.7707  0.0468
 5321SOL     OW21281   4.736   2.022   0.938 -0.4929  0.2929  0.0775
 5321SOL    HW121282   4.803   2.013   0.870 -1.0777  0.2266 -0.5043
 5321SOL    HW221283   4.664   1.966   0.909 -0.6623  0.0732  0.8822
 5321SOL     MW21284   4.735   2.014   0.925 -0.5944  0.2544  0.1075
 5322SOL     OW21285   3.784   2.398   0.777 -0.3306  0.1976 -0.1201
 5322SOL    HW121286   3.872   2.425   0.803 -0.2844 -0.1490  0.0864
 5322SOL    HW221287   3.756   2.465   0.715  0.3605 -0.0731 -0.7385
 5322SOL     MW21288   3.792   2.410   0.772 -0.2313  0.1145 -0.1755
 5323SOL     OW21289   2.082   0.241   2.973  0.1103 -0.1199  0.5014
 5323SOL    HW121290   2.135   0.272   2.899 -0.1617 -0.9786 -0.0760
 5323SOL    HW221291   2.037   0.164   2.939 -1.2857  0.4180  1.0734
 5323SOL     MW21292   2.083   0.235   2.958 -0.1142 -0.1631  0.5007
 5324SOL     OW21293   0.334   4.732   2.385  0.6435  0.1441 -0.0486
 5324SOL    HW121294   0.306   4.823   2.398 -0.1229 -0.2925  1.6166
 5324SOL    HW221295   0.263   4.680   2.422  0.7220 -1.1905 -1.6547
 5324SOL     MW21296   0.321   4.737   2.391  0.5509 -0.0943 -0.0406
 5325SOL     OW21297   0.161   0.691   2.390 -0.3107 -0.2059 -0.1194
 5325SOL    HW121298   0.229   0.750   2.357  0.5492 -1.4308 -0.6087
 5325SOL    HW221299   0.080   0.721   2.348  0.2644  0.1053 -1.0324
 5325SOL     MW21300   0.159   0.703   2.380 -0.1176 -0.3289 -0.3081
 5326SOL     OW21301   3.648   2.653   3.597  0.1204 -0.5628 -0.5759
 5326SOL    HW121302   3.698   2.579   3.563  1.3902  0.5074 -1.1394
 5326SOL    HW221303   3.621   2.701   3.519  0.3750  0.2287 -0.1846
 5326SOL     MW21304   3.652   2.649   3.582  0.3256 -0.3123 -0.5991
 5327SOL     OW21305   0.379   3.182   3.018 -0.4651  0.1540  0.4673
 5327SOL    HW121306   0.416   3.097   2.995 -0.1817  0.3350  0.2438
 5327SOL    HW221307   0.296   3.186   2.970 -0.0200  0.4046 -0.2866
 5327SOL     MW21308   0.373   3.171   3.008 -0.3670  0.2121  0.3358
 5328SOL     OW21309   3.946   5.242   4.243  0.0153 -0.6042  0.1766
 5328SOL    HW121310   3.988   5.187   4.178  0.7177 -1.1104  1.0422
 5328SOL    HW221311   3.871   5.191   4.274 -0.9359  0.0634 -0.9563
 5328SOL     MW21312   3.941   5.228   4.239 -0.0182 -0.5825  0.1406
 5329SOL     OW21313   3.382   3.409   1.238  0.3439 -0.1125  0.3370
 5329SOL    HW121314   3.422   3.442   1.319  0.3324  0.8328 -0.0268
 5329SOL    HW221315   3.288   3.420   1.252  0.2720 -1.0505  0.6497
 5329SOL     MW21316   3.375   3.415   1.251  0.3327 -0.1115  0.3301
 5330SOL     OW21317   5.313   4.264   4.560 -0.4687 -0.1950 -0.5485
 5330SOL    HW121318   5.319   4.352   4.597  0.1900  0.9155 -3.0785
 5330SOL    HW221319   5.339   4.206   4.631  3.6077  1.9322 -0.0139
 5330SOL     MW21320   5.317   4.268   4.574  0.1686  0.2407 -0.8170
 5331SOL     OW21321   0.297   1.192   5.118 -0.0676  0.5988 -0.0484
 5331SOL    HW121322   0.329   1.153   5.199  1.0548  0.8020 -0.3785
 5331SOL    HW221323   0.316   1.286   5.127 -0.1446  0.6555 -0.4542
 5331SOL     MW21324   0.304   1.200   5.130  0.0731  0.6338 -0.1474
 5332SOL     OW21325   3.709   3.837   2.814  0.0903 -0.2461  0.1997
 5332SOL    HW121326   3.726   3.792   2.731  1.7193  1.1663 -0.2854
 5332SOL    HW221327   3.763   3.791   2.878 -0.6127 -0.8795  0.3531
 5332SOL     MW21328   3.718   3.825   2.811  0.2149 -0.1412  0.1551
 5333SOL     OW21329   2.522   1.987   1.598  0.4190  0.4223 -0.6580
 5333SOL    HW121330   2.614   1.989   1.622  0.0662 -1.2597  1.0820
 5333SOL    HW221331   2.476   2.013   1.678 -0.6551  0.5604 -1.3009
 5333SOL     MW21332   2.528   1.991   1.612  0.2270  0.2145 -0.5104
 5334SOL     OW21333   2.609   0.668   0.492 -0.1222 -0.1784  0.2018
 5334SOL    HW121334   2.683   0.648   0.550 -0.6949 -0.3970  0.8812
 5334SOL    HW221335   2.540   0.609   0.522  0.0217 -1.3966 -1.7008
 5334SOL     MW21336   2.610   0.657   0.504 -0.1799 -0.3718  0.0372
 5335SOL     OW21337   3.491   1.597   0.534  0.0498  0.5957 -0.3009
 5335SOL    HW121338   3.424   1.573   0.471  1.2446  1.3590 -1.9569
 5335SOL    HW221339   3.516   1.686   0.509  1.8264  0.2552  0.0967
 5335SOL     MW21340   3.485   1.606   0.522  0.4497  0.6526 -0.4702
 5336SOL     OW21341   5.479   5.099   1.427 -0.1035 -0.2954 -0.6538
 5336SOL    HW121342   5.415   5.068   1.363 -0.4174 -0.0816 -0.4484
 5336SOL    HW221343   5.495   5.190   1.402 -0.2703 -0.1934 -0.3969
 5336SOL     MW21344   5.472   5.107   1.415 -0.1682 -0.2529 -0.5916
 5337SOL     OW21345   1.486   4.559   1.447 -0.0145 -0.5029 -0.3774
 5337SOL    HW121346   1.430   4.609   1.506  1.8462  1.3054 -0.0166
 5337SOL    HW221347   1.472   4.468   1.471 -0.3108  0.1048  1.9472
 5337SOL     MW21348   1.477   4.553   1.458  0.1960 -0.1778 -0.0160
 5338SOL     OW21349   5.101   4.688   3.461 -0.3587  0.5117  0.0126
 5338SOL    HW121350   5.103   4.783   3.470  2.0354  0.5400 -0.4233
 5338SOL    HW221351   5.099   4.672   3.367 -1.0477  0.1103  0.0860
 5338SOL     MW21352   5.101   4.699   3.450 -0.1292  0.4615 -0.0362
 5339SOL     OW21353   1.991   0.209   5.490 -0.0678 -0.3196 -0.5808
 5339SOL    HW121354   2.062   0.146   5.496 -0.4764 -0.6369  2.4530
 5339SOL    HW221355   2.033   0.294   5.509 -0.5949 -0.7399  3.5095
 5339SOL     MW21356   2.006   0.212   5.494 -0.1937 -0.4189  0.3779
 5340SOL     OW21357   0.537   2.901   3.522  0.0263 -0.3248  0.2667
 5340SOL    HW121358   0.542   2.860   3.436  1.3587  0.4433 -0.0647
 5340SOL    HW221359   0.567   2.991   3.506  1.8915 -0.6094  1.7816
 5340SOL     MW21360   0.542   2.908   3.508  0.4566 -0.2597  0.4259
 5341SOL     OW21361   3.988   3.773   4.816 -0.6671  0.2684  0.4785
 5341SOL    HW121362   3.972   3.780   4.910 -0.7823 -0.4581  0.5181
 5341SOL    HW221363   4.022   3.684   4.803 -1.5223  0.0281 -0.2745
 5341SOL     MW21364   3.990   3.762   4.827 -0.7977  0.1383  0.3825
 5342SOL     OW21365   0.032   0.377   3.172 -0.0451  0.1086 -0.6529
 5342SOL    HW121366  -0.017   0.304   3.136  0.2256 -0.7579  0.6438
 5342SOL    HW221367   0.017   0.371   3.267  1.3203  0.7325 -0.3727
 5342SOL     MW21368   0.023   0.367   3.180  0.1751  0.0759 -0.4406
 5343SOL     OW21369   3.335   4.678   4.944 -0.5571 -0.3648 -0.5523
 5343SOL    HW121370   3.386   4.597   4.948  1.4396  0.8537  0.3883
 5343SOL    HW221371   3.320   4.701   5.036 -1.4249  0.1572 -0.8171
 5343SOL     MW21372   3.340   4.670   4.957 -0.4052 -0.1306 -0.4613
 5344SOL     OW21373   3.631   5.083   3.151  0.3912 -0.5272  0.4322
 5344SOL    HW121374   3.637   5.122   3.238  1.4096 -2.1301  1.1417
 5344SOL    HW221375   3.555   5.125   3.111  0.7607  1.3061  1.5257
 5344SOL     MW21376   3.621   5.094   3.157  0.5780 -0.4962  0.6749
 5345SOL     OW21377   2.761   2.699   3.902  0.2153 -0.2833  0.1955
 5345SOL    HW121378   2.702   2.682   3.829  0.4823  1.1735 -0.3826
 5345SOL    HW221379   2.803   2.782   3.881  0.6331 -0.0494  1.7847
 5345SOL     MW21380   2.759   2.708   3.890  0.3075 -0.0558  0.3316
 5346SOL     OW21381   1.345   0.294   1.356 -0.3607 -0.1811 -0.6295
 5346SOL    HW121382   1.254   0.282   1.385 -0.3422  0.4783 -0.2732
 5346SOL    HW221383   1.398   0.255   1.425 -0.3229  1.2173  0.1697
 5346SOL     MW21384   1.340   0.287   1.369 -0.3531  0.0958 -0.4740
 5347SOL     OW21385   5.430   3.510   0.143  0.2533  0.1532  0.0322
 5347SOL    HW121386   5.522   3.487   0.133  0.2343  0.3574 -0.7193
 5347SOL    HW221387   5.406   3.547   0.058  0.0739  2.1823  0.9050
 5347SOL     MW21388   5.439   3.512   0.130  0.2266  0.4537  0.0485
 5348SOL     OW21389   2.931   0.473   3.085 -0.2659 -0.7017  0.3822
 5348SOL    HW121390   2.924   0.547   3.025 -0.0197 -0.9970 -0.0183
 5348SOL    HW221391   2.861   0.414   3.060  0.3788 -1.2346 -0.2032
 5348SOL     MW21392   2.921   0.475   3.074 -0.1460 -0.8132  0.2495
 5349SOL     OW21393   4.444   4.265   0.764  0.2335  0.7997 -0.6338
 5349SOL    HW121394   4.520   4.318   0.738 -0.9584  2.1106 -1.5782
 5349SOL    HW221395   4.456   4.251   0.858  1.3134  1.5540 -0.6392
 5349SOL     MW21396   4.456   4.270   0.773  0.2184  1.0776 -0.7616
 5350SOL     OW21397   0.896   0.779   2.008 -0.1398 -0.6563 -0.0396
 5350SOL    HW121398   0.884   0.684   2.012 -0.0562 -0.6594  0.1452
 5350SOL    HW221399   0.989   0.792   1.989 -0.0719 -0.6067  0.3220
 5350SOL     MW21400   0.907   0.768   2.006 -0.1194 -0.6501  0.0340
 5351SOL     OW21401   4.063   2.506   5.429  0.2347 -0.1725  0.0735
 5351SOL    HW121402   4.043   2.437   5.493 -0.7969  0.3001  0.2741
 5351SOL    HW221403   4.044   2.588   5.474  1.0028  0.2404 -0.3267
 5351SOL     MW21404   4.058   2.507   5.444  0.1992 -0.0533  0.0466
 5352SOL     OW21405   0.657   5.285   2.813  0.7641  0.2902  0.7233
 5352SOL    HW121406   0.666   5.218   2.881 -1.4758 -0.8508 -0.0060
 5352SOL    HW221407   0.617   5.239   2.740 -0.5950  2.3731  0.0812
 5352SOL     MW21408   0.653   5.270   2.812  0.2798  0.4170  0.5387
 5353SOL     OW21409   3.894   0.756   2.847 -0.2394 -0.7068  0.0411
 5353SOL    HW121410   3.829   0.752   2.917 -0.5294  3.7033  0.2984
 5353SOL    HW221411   3.842   0.766   2.767  0.1254 -1.3264 -0.2765
 5353SOL     MW21412   3.878   0.757   2.846 -0.2293 -0.1966  0.0330
 5354SOL     OW21413   0.387   4.246   4.982 -0.0563 -0.0587 -0.2513
 5354SOL    HW121414   0.418   4.172   5.034 -2.2922  0.4902  2.0541
 5354SOL    HW221415   0.306   4.215   4.941 -0.6448  0.8779  0.1775
 5354SOL     MW21416   0.380   4.232   4.983 -0.4364  0.1412  0.1167
 5355SOL     OW21417   2.703   1.840   5.242  0.3303  0.3394 -0.0735
 5355SOL    HW121418   2.613   1.862   5.263  0.1393 -0.5486  0.0967
 5355SOL    HW221419   2.712   1.749   5.270  1.5981  0.7469  0.9420
 5355SOL     MW21420   2.692   1.831   5.248  0.4752  0.2747  0.0861
 5356SOL     OW21421   5.146   3.130   4.305 -0.2550 -0.6319 -0.0810
 5356SOL    HW121422   5.109   3.044   4.327 -1.9536 -0.4119 -1.7667
 5356SOL    HW221423   5.115   3.146   4.216 -0.6883  2.1109  0.4904
 5356SOL     MW21424   5.137   3.120   4.296 -0.5419 -0.2331 -0.2310
 5357SOL     OW21425   0.662   1.649   0.435  0.2697  0.1332 -0.1950
 5357SOL    HW121426   0.648   1.728   0.488  2.6703  0.2501  0.3986
 5357SOL    HW221427   0.728   1.675   0.370  0.0197 -1.0004 -0.9259
 5357SOL     MW21428   0.669   1.663   0.434  0.5591 -0.0036 -0.2135
 5358SOL     OW21429   5.449   4.206   5.180 -0.0138  0.2153  0.1070
 5358SOL    HW121430   5.413   4.222   5.268 -0.3391  0.1589 -0.0145
 5358SOL    HW221431   5.372   4.197   5.124  0.2015  0.8394 -0.2919
 5358SOL     MW21432   5.434   4.207   5.185 -0.0286  0.2917  0.0369
 5359SOL     OW21433   5.304   4.054   0.475 -0.6254  0.1187  0.0765
 5359SOL    HW121434   5.309   4.150   0.467  0.3037  0.0552 -0.1944
 5359SOL    HW221435   5.228   4.039   0.532 -0.3972  1.0448  0.6561
 5359SOL     MW21436   5.295   4.065   0.482 -0.4697  0.2348  0.1181
 5360SOL     OW21437   4.506   2.468   0.819 -0.0375 -0.1460 -0.2599
 5360SOL    HW121438   4.520   2.421   0.902  0.5487  1.5740  0.6618
 5360SOL    HW221439   4.422   2.433   0.786 -1.1189  0.2465  1.8803
 5360SOL     MW21440   4.496   2.457   0.826 -0.1041  0.1383  0.1522
 5361SOL     OW21441   4.721   5.066   1.764 -0.1302  0.2471 -0.1540
 5361SOL    HW121442   4.753   5.096   1.679  1.7450 -0.0397  0.3873
 5361SOL    HW221443   4.664   4.993   1.744 -1.9469  1.8733 -1.2904
 5361SOL     MW21444   4.718   5.060   1.750 -0.1223  0.4274 -0.2341
 5362SOL     OW21445   4.569   4.153   2.967  0.1025  0.4493 -0.0968
 5362SOL    HW121446   4.530   4.152   3.054  0.3919  0.3882  0.0326
 5362SOL    HW221447   4.567   4.245   2.941  0.2671  0.5057  0.0882
 5362SOL     MW21448   4.563   4.165   2.975  0.1636  0.4487 -0.0545
 5363SOL     OW21449   3.193   4.281   1.725 -0.4930  0.2035 -0.0249
 5363SOL    HW121450   3.230   4.211   1.778 -1.0451 -0.6348 -0.7220
 5363SOL    HW221451   3.164   4.347   1.788 -0.5383 -0.4756  0.6751
 5363SOL     MW21452   3.194   4.281   1.741 -0.5734 -0.0007 -0.0245
 5364SOL     OW21453   1.113   5.005   0.180  0.1637  0.6967 -0.3091
 5364SOL    HW121454   1.119   5.096   0.152 -0.8396  0.6425 -0.7045
 5364SOL    HW221455   1.198   4.988   0.222  0.7333  1.5112 -1.0951
 5364SOL     MW21456   1.126   5.015   0.182  0.1053  0.7990 -0.4681
 5365SOL     OW21457   1.813   4.214   3.711  0.3742 -0.2353 -0.3173
 5365SOL    HW121458   1.819   4.282   3.643 -1.2008 -1.0750 -1.3526
 5365SOL    HW221459   1.904   4.184   3.721  0.9477  1.2916 -0.5763
 5365SOL     MW21460   1.826   4.219   3.703  0.2394 -0.1428 -0.4915
 5366SOL     OW21461   3.052   1.845   3.357 -0.0061  0.3522  0.0836
 5366SOL    HW121462   3.063   1.796   3.438  1.9104  0.5509 -0.0279
 5366SOL    HW221463   2.961   1.828   3.332 -0.4346 -0.2824  1.8811
 5366SOL     MW21464   3.041   1.836   3.365  0.1942  0.2935  0.3105
 5367SOL     OW21465   4.595   5.199   2.939 -0.0872  0.0789  0.0693
 5367SOL    HW121466   4.510   5.219   2.978 -0.1817 -0.6408  0.2452
 5367SOL    HW221467   4.591   5.105   2.919  1.3751 -0.4437  1.9156
 5367SOL     MW21468   4.583   5.189   2.941  0.0969 -0.0883  0.3415
 5368SOL     OW21469   3.446   4.583   5.459 -0.1913 -0.2979 -0.0018
 5368SOL    HW121470   3.517   4.519   5.452  0.0234 -0.1350  0.5742
 5368SOL    HW221471   3.432   4.615   5.370  1.6724  0.9640  0.1096
 5368SOL     MW21472   3.454   4.579   5.446  0.0884 -0.1061  0.0907
 5369SOL     OW21473   3.941   1.492   2.379 -0.1857  0.1985  0.1000
 5369SOL    HW121474   3.860   1.524   2.340 -0.4697 -0.1420  0.4004
 5369SOL    HW221475   3.961   1.412   2.330 -0.3979 -0.0832  0.4690
 5369SOL     MW21476   3.933   1.485   2.367 -0.2525  0.1147  0.1901
 5370SOL     OW21477   0.398   4.022   0.894  0.3441 -0.2472 -0.0158
 5370SOL    HW121478   0.322   4.023   0.836  2.8828 -0.2973 -3.7116
 5370SOL    HW221479   0.402   3.932   0.926 -0.9784 -0.3049  0.0591
 5370SOL     MW21480   0.388   4.010   0.891  0.5078 -0.2617 -0.5031
 5371SOL     OW21481   2.358   2.157   2.691  0.0447  0.0444  0.0726
 5371SOL    HW121482   2.267   2.181   2.671  0.0852  1.3531  1.2584
 5371SOL    HW221483   2.376   2.081   2.636 -1.5096  0.2486 -0.7719
 5371SOL     MW21484   2.348   2.150   2.681 -0.1591  0.2480  0.1185
 5372SOL     OW21485   1.235   4.884   3.762  0.0552  0.2770  0.2605
 5372SOL    HW121486   1.291   4.812   3.734  0.3136  0.8042 -0.6178
 5372SOL    HW221487   1.149   4.862   3.727  0.2970  0.7489 -0.6752
 5372SOL     MW21488   1.231   4.872   3.754  0.1225  0.4114  0.0164
 5373SOL     OW21489   1.393   4.297   3.832  0.3854  0.4469  0.1670
 5373SOL    HW121490   1.439   4.362   3.779 -1.2967  0.8229 -0.9136
 5373SOL    HW221491   1.325   4.347   3.877 -0.5260 -0.4488 -0.1850
 5373SOL     MW21492   1.390   4.313   3.831  0.0363  0.3770 -0.0258
 5374SOL     OW21493   2.806   3.752   4.260  0.3718  0.6795  0.0128
 5374SOL    HW121494   2.755   3.827   4.229  1.1972  2.0473  1.7644
 5374SOL    HW221495   2.778   3.679   4.205 -1.2983  2.0221 -1.0075
 5374SOL     MW21496   2.795   3.752   4.248  0.2581  1.0443  0.1112
 5375SOL     OW21497   1.501   2.537   3.862 -0.6344  0.5148  0.2508
 5375SOL    HW121498   1.497   2.531   3.957  2.1638 -0.9492  0.3798
 5375SOL    HW221499   1.489   2.447   3.831  1.0515  0.5252 -0.5635
 5375SOL     MW21500   1.499   2.524   3.870 -0.0310  0.3192  0.1586
 5376SOL     OW21501   4.158   4.964   2.203 -0.0916  0.0670  0.0097
 5376SOL    HW121502   4.210   4.966   2.283 -0.4935  1.6383  0.2716
 5376SOL    HW221503   4.220   4.984   2.133  0.0239 -0.0184  0.0882
 5376SOL     MW21504   4.173   4.967   2.204 -0.1301  0.2670  0.0555
 5377SOL     OW21505   4.837   3.456   2.917 -0.0879  0.2132  0.5378
 5377SOL    HW121506   4.897   3.381   2.924 -0.2984  0.1329  2.0029
 5377SOL    HW221507   4.778   3.434   2.845  0.6568 -0.4307  0.1113
 5377SOL     MW21508   4.837   3.443   2.909 -0.0160  0.1157  0.6776
 5378SOL     OW21509   3.655   2.886   1.831 -0.5315 -0.0422 -0.2044
 5378SOL    HW121510   3.563   2.861   1.824 -0.3910 -1.2088  1.4833
 5378SOL    HW221511   3.653   2.979   1.853 -1.4519 -0.5382  2.1579
 5378SOL     MW21512   3.642   2.895   1.833 -0.6364 -0.2660  0.3407
 5379SOL     OW21513   0.428   0.911   3.837 -0.7137 -0.6834 -0.5052
 5379SOL    HW121514   0.497   0.953   3.785 -0.4595 -0.0307  0.3310
 5379SOL    HW221515   0.434   0.953   3.923 -0.8723 -1.9926  0.1812
 5379SOL     MW21516   0.438   0.922   3.842 -0.7008 -0.7717 -0.3003
 5380SOL     OW21517   1.255   3.132   2.018  0.0628 -0.0270  0.2233
 5380SOL    HW121518   1.222   3.217   2.048  2.1453  0.3722  1.6066
 5380SOL    HW221519   1.341   3.152   1.980  0.5866 -1.5109  0.5642
 5380SOL     MW21520   1.262   3.146   2.017  0.4136 -0.1729  0.4554
 5381SOL     OW21521   1.074   5.276   2.934  0.4728 -0.1251  0.1726
 5381SOL    HW121522   1.029   5.358   2.909 -0.1261 -0.4091  0.3041
 5381SOL    HW221523   1.164   5.303   2.950 -0.0720  0.8487  1.9308
 5381SOL     MW21524   1.080   5.291   2.933  0.3189 -0.0322  0.4269
 5382SOL     OW21525   1.120   4.887   2.975 -0.0681 -0.4806  0.6256
 5382SOL    HW121526   1.071   4.890   3.058 -1.3951 -1.2404 -0.0889
 5382SOL    HW221527   1.053   4.902   2.908  1.0655  0.5895 -0.3013
 5382SOL     MW21528   1.104   4.889   2.977 -0.0941 -0.4388  0.4047
 5383SOL     OW21529   5.098   4.955   3.458 -0.1002 -0.4262  0.2002
 5383SOL    HW121530   5.123   4.963   3.367  0.9623  0.8691  0.5730
 5383SOL    HW221531   5.005   4.980   3.460 -0.4666 -1.6140 -0.6535
 5383SOL     MW21532   5.089   4.959   3.446 -0.0065 -0.4118  0.1355
 5384SOL     OW21533   0.456   0.632   1.440 -0.7548 -0.0508  0.6002
 5384SOL    HW121534   0.517   0.598   1.505  0.1995 -1.5733 -0.9956
 5384SOL    HW221535   0.410   0.704   1.485  1.3089  0.3402  2.2499
 5384SOL     MW21536   0.458   0.637   1.455 -0.3486 -0.2031  0.6074
 5385SOL     OW21537   1.152   4.398   2.081  0.8342 -0.0213 -0.5159
 5385SOL    HW121538   1.226   4.400   2.020  1.6057  0.6040  0.4055
 5385SOL    HW221539   1.190   4.424   2.165 -0.0601 -1.5192  0.4020
 5385SOL     MW21540   1.167   4.402   2.084  0.8177 -0.1387 -0.2684
 5386SOL     OW21541   3.895   2.542   4.702 -0.7811 -0.1742 -0.0584
 5386SOL    HW121542   3.883   2.580   4.614  3.9132  0.4990 -0.6763
 5386SOL    HW221543   3.950   2.465   4.687  0.7979  0.3991  2.2870
 5386SOL     MW21544   3.901   2.537   4.688  0.0632 -0.0065  0.1741
 5387SOL     OW21545   0.629   1.752   1.897  0.2822  0.1186  0.6074
 5387SOL    HW121546   0.584   1.836   1.908  1.7539  0.7726  1.9623
 5387SOL    HW221547   0.704   1.773   1.841  0.6092 -0.3193  0.8819
 5387SOL     MW21548   0.633   1.766   1.891  0.5243  0.1477  0.8267
 5388SOL     OW21549   0.862   3.790   1.608  0.1132  0.1506 -0.2313
 5388SOL    HW121550   0.851   3.869   1.662 -1.4320  0.8220 -1.4371
 5388SOL    HW221551   0.956   3.780   1.600  0.3560  1.6356  0.3366
 5388SOL     MW21552   0.873   3.799   1.614 -0.0621  0.4408 -0.3171
 5389SOL     OW21553   2.796   3.027   2.067 -0.2700  0.2528 -0.4250
 5389SOL    HW121554   2.716   3.077   2.052 -0.1352  0.0050 -2.2698
 5389SOL    HW221555   2.765   2.938   2.087 -0.4765  0.5253  0.4644
 5389SOL     MW21556   2.781   3.022   2.067 -0.2796  0.2561 -0.5536
 5390SOL     OW21557   2.026   4.419   1.263 -0.1769  0.4342 -0.3500
 5390SOL    HW121558   2.122   4.420   1.261 -0.1361 -1.0739 -0.2863
 5390SOL    HW221559   2.003   4.494   1.318  1.0913 -0.9189  2.2296
 5390SOL     MW21560   2.036   4.429   1.270 -0.0007  0.0491  0.0057
 5391SOL     OW21561   1.381   2.319   1.979 -0.0685 -0.2135 -0.2103
 5391SOL    HW121562   1.329   2.307   2.058  0.2040 -0.4138 -0.0587
 5391SOL    HW221563   1.463   2.272   1.997  0.4303  0.6456 -0.1781
 5391SOL     MW21564   1.385   2.311   1.992  0.0353 -0.1249 -0.1856
 5392SOL     OW21565   1.676   1.797   0.686  0.3392 -0.0044 -0.1505
 5392SOL    HW121566   1.708   1.880   0.723  0.8155 -0.3106  0.1339
 5392SOL    HW221567   1.594   1.780   0.732  0.2593  0.2903 -0.1831
 5392SOL     MW21568   1.669   1.806   0.697  0.3926 -0.0060 -0.1166
 5393SOL     OW21569   1.231   3.414   1.543  0.4981 -0.3165 -0.5155
 5393SOL    HW121570   1.228   3.509   1.536 -0.2861 -0.2740  0.2071
 5393SOL    HW221571   1.196   3.395   1.630 -0.0170 -1.2931 -0.9128
 5393SOL     MW21572   1.226   3.424   1.554  0.3233 -0.4422 -0.4717
 5394SOL     OW21573   2.548   5.129   3.469 -0.3664 -0.1581  0.4461
 5394SOL    HW121574   2.511   5.043   3.447  2.3685 -1.6738  1.3810
 5394SOL    HW221575   2.629   5.110   3.516  0.0288  2.9683  1.2851
 5394SOL     MW21576   2.554   5.115   3.472  0.0548  0.0586  0.6848
 5395SOL     OW21577   0.500   2.363   4.877  0.4338 -0.2545 -0.0128
 5395SOL    HW121578   0.577   2.359   4.933 -0.5421 -0.9993  1.3378
 5395SOL    HW221579   0.481   2.271   4.856 -2.1230 -0.4752  2.6598
 5395SOL     MW21580   0.508   2.350   4.882 -0.0416 -0.3845  0.5286
 5396SOL     OW21581   1.576   0.936   2.972  0.1839  0.2211 -0.0644
 5396SOL    HW121582   1.640   1.005   2.954 -0.5586  0.8581 -0.2915
 5396SOL    HW221583   1.521   0.971   3.042  0.7985 -0.7940  0.9521
 5396SOL     MW21584   1.577   0.950   2.979  0.1667  0.1702  0.0419
 5397SOL     OW21585   1.526   0.432   1.901  0.0883  0.1314 -0.4336
 5397SOL    HW121586   1.597   0.489   1.930  0.2079  0.8333 -1.9740
 5397SOL    HW221587   1.530   0.437   1.805 -1.7159 -0.2123 -0.5601
 5397SOL     MW21588   1.536   0.440   1.892 -0.1384  0.1796 -0.6580
 5398SOL     OW21589   0.029   2.797   4.809 -0.3234  0.4423 -0.3693
 5398SOL    HW121590   0.102   2.856   4.829  0.0436  0.4937 -1.7579
 5398SOL    HW221591   0.003   2.761   4.894  1.5671  0.1105  0.0987
 5398SOL     MW21592   0.035   2.800   4.823 -0.0196  0.4046 -0.4932
 5399SOL     OW21593   4.725   1.016   0.389 -0.2675  0.2697  0.2664
 5399SOL    HW121594   4.742   1.043   0.480 -0.3216 -0.7276  0.5818
 5399SOL    HW221595   4.659   0.947   0.396  1.0721 -1.1336 -0.3646
 5399SOL     MW21596   4.719   1.010   0.403 -0.0945 -0.0534  0.2239
 5400SOL     OW21597   0.562   3.613   5.304 -0.1257 -0.0220  0.0056
 5400SOL    HW121598   0.639   3.668   5.321 -0.2425 -0.4549  2.1698
 5400SOL    HW221599   0.595   3.524   5.307 -0.1431 -0.1783 -2.4380
 5400SOL     MW21600   0.576   3.609   5.307 -0.1437 -0.1013 -0.0320
 5401SOL     OW21601   3.545   2.761   2.588 -0.3504  0.3835 -0.0285
 5401SOL    HW121602   3.458   2.750   2.551 -0.1302  1.4046 -0.8836
 5401SOL    HW221603   3.539   2.720   2.675 -1.7629  0.7192  0.0565
 5401SOL     MW21604   3.532   2.754   2.595 -0.5108  0.5661 -0.1321
 5402SOL     OW21605   5.275   3.455   2.856  0.2900 -0.1486 -0.4815
 5402SOL    HW121606   5.284   3.545   2.824  1.7486 -1.0930 -3.0182
 5402SOL    HW221607   5.208   3.416   2.800 -0.7573 -0.5307  0.9891
 5402SOL     MW21608   5.268   3.462   2.844  0.3454 -0.3272 -0.6250
 5403SOL     OW21609   0.317   4.470   0.403  0.3224  0.4974 -0.3412
 5403SOL    HW121610   0.320   4.557   0.363  1.5360  1.9995  2.6864
 5403SOL    HW221611   0.409   4.447   0.415  0.0120 -0.0497  1.1240
 5403SOL     MW21612   0.330   4.479   0.399  0.4440  0.6260  0.2634
 5404SOL     OW21613   3.034   5.264   2.137 -0.1287 -0.1010  0.2032
 5404SOL    HW121614   3.118   5.232   2.171  0.0033  0.2272  0.1921
 5404SOL    HW221615   3.009   5.199   2.071  0.0284 -0.2953  0.3337
 5404SOL     MW21616   3.042   5.251   2.132 -0.0898 -0.0830  0.2193
 5405SOL     OW21617   0.247   0.546   4.857 -0.0702  0.1468 -0.3285
 5405SOL    HW121618   0.176   0.607   4.877 -0.2493  0.7308 -2.5167
 5405SOL    HW221619   0.275   0.569   4.769  0.5499 -2.2924 -0.8512
 5405SOL     MW21620   0.241   0.557   4.848 -0.0108 -0.1029 -0.6933
 5406SOL     OW21621   4.841   3.468   5.067  0.0456 -0.3659  0.1896
 5406SOL    HW121622   4.844   3.372   5.071  0.3543 -0.3219  1.3188
 5406SOL    HW221623   4.933   3.494   5.071  0.2063 -0.0674 -2.8249
 5406SOL     MW21624   4.854   3.459   5.068  0.1088 -0.3198 -0.0641
 5407SOL     OW21625   1.044   0.929   3.719  0.4353  0.1987 -0.0436
 5407SOL    HW121626   0.989   0.855   3.747 -0.0814  0.3872 -0.5334
 5407SOL    HW221627   1.118   0.889   3.675  0.5871 -0.0560  0.4399
 5407SOL     MW21628   1.046   0.914   3.717  0.3862  0.1898 -0.0444
 5408SOL     OW21629   3.115   3.704   5.171 -0.0033 -0.2529  0.0725
 5408SOL    HW121630   3.165   3.689   5.251 -1.0992  0.7333  0.9741
 5408SOL    HW221631   3.140   3.792   5.144 -1.0337  0.1541  0.3979
 5408SOL     MW21632   3.125   3.714   5.178 -0.2895 -0.0654  0.2376
 5409SOL     OW21633   5.461   2.605   4.619 -0.3034 -0.1928 -0.2642
 5409SOL    HW121634   5.441   2.627   4.528 -2.8733  0.1837  0.3311
 5409SOL    HW221635   5.497   2.685   4.656 -1.3083  0.3417 -0.4075
 5409SOL     MW21636   5.463   2.619   4.611 -0.7845 -0.0702 -0.2033
 5410SOL     OW21637   0.610   5.526   2.706  0.1725  0.1061 -0.3383
 5410SOL    HW121638   0.561   5.501   2.628  1.7114 -0.7613 -1.0739
 5410SOL    HW221639   0.632   5.443   2.748  0.4160  0.5118  0.3546
 5410SOL     MW21640   0.606   5.512   2.701  0.4124  0.0440 -0.3440
 5411SOL     OW21641   3.539   1.538   2.495  0.3266  0.7221  0.4248
 5411SOL    HW121642   3.588   1.544   2.413 -0.1247 -1.2439 -0.0226
 5411SOL    HW221643   3.533   1.629   2.525 -0.6157  1.6865 -2.3659
 5411SOL     MW21644   3.545   1.551   2.488  0.1390  0.5873 -0.0110
 5412SOL     OW21645   4.555   0.514   2.620 -0.1632 -0.3641  0.5439
 5412SOL    HW121646   4.641   0.556   2.620 -0.5996  0.5466  0.8092
 5412SOL    HW221647   4.506   0.558   2.689 -0.7489 -1.0875  0.6065
 5412SOL     MW21648   4.560   0.526   2.629 -0.3007 -0.3389  0.5880
 5413SOL     OW21649   5.235   4.629   1.520  0.3889 -0.1205  0.1712
 5413SOL    HW121650   5.203   4.702   1.468  1.0410  1.2392  1.5905
 5413SOL    HW221651   5.318   4.605   1.479  0.1710 -0.0660 -0.3030
 5413SOL     MW21652   5.242   4.636   1.508  0.4473  0.0698  0.2984
 5414SOL     OW21653   1.827   1.792   1.086 -0.3505 -0.2253 -0.5791
 5414SOL    HW121654   1.843   1.725   1.019 -0.2253 -1.3730  0.5658
 5414SOL    HW221655   1.903   1.850   1.080  0.5134 -1.3070 -0.2770
 5414SOL     MW21656   1.840   1.791   1.076 -0.2174 -0.5254 -0.3844
 5415SOL     OW21657   2.052   2.804   3.179 -0.5605  0.2016 -0.0105
 5415SOL    HW121658   2.009   2.889   3.189  0.6816  0.6818  1.7410
 5415SOL    HW221659   2.050   2.766   3.266 -1.2365 -1.6928 -0.7993
 5415SOL     MW21660   2.046   2.811   3.192 -0.4843  0.0112  0.1191
 5416SOL     OW21661   2.784   1.302   1.157 -0.5036 -0.5216 -0.1681
 5416SOL    HW121662   2.793   1.233   1.092 -0.2516 -1.0846  0.4543
 5416SOL    HW221663   2.806   1.383   1.110  0.6507 -1.0296 -0.5363
 5416SOL     MW21664   2.788   1.304   1.142 -0.3143 -0.6658 -0.1339
 5417SOL     OW21665   4.177   2.045   0.873  0.0819 -0.6419  0.6369
 5417SOL    HW121666   4.207   1.955   0.883 -0.0451 -0.5184  2.3057
 5417SOL    HW221667   4.082   2.039   0.865  0.0036 -0.6176  1.4868
 5417SOL     MW21668   4.169   2.032   0.873  0.0543 -0.6220  0.9758
 5418SOL     OW21669   4.395   5.417   1.219  0.0603  0.1465 -0.0884
 5418SOL    HW121670   4.396   5.497   1.272  1.2019  0.1463 -0.0724
 5418SOL    HW221671   4.477   5.421   1.170 -1.0260  0.2280 -1.9825
 5418SOL     MW21672   4.406   5.429   1.219  0.0677  0.1575 -0.3411
 5419SOL     OW21673   2.894   2.182   0.552 -0.4493 -0.0026  0.2643
 5419SOL    HW121674   2.856   2.182   0.640  1.1153 -1.9185  1.0446
 5419SOL    HW221675   2.981   2.220   0.564 -0.0032 -0.8098 -0.3071
 5419SOL     MW21676   2.901   2.187   0.566 -0.1787 -0.3691  0.2924
 5420SOL     OW21677   5.248   1.741   4.827  0.4112  0.0233  0.7314
 5420SOL    HW121678   5.238   1.703   4.740  1.5153  1.7629 -0.2095
 5420SOL    HW221679   5.338   1.774   4.829  0.5549 -0.3459  2.7036
 5420SOL     MW21680   5.259   1.740   4.815  0.5791  0.2078  0.8702
 5421SOL     OW21681   1.232   2.739   0.731 -0.1522  0.5524  0.1688
 5421SOL    HW121682   1.196   2.803   0.668  1.2039  0.5912 -0.6019
 5421SOL    HW221683   1.272   2.792   0.799 -1.4241  0.5081  0.9801
 5421SOL     MW21684   1.232   2.755   0.732 -0.1409  0.5517  0.1743
 5422SOL     OW21685   0.192   4.552   3.317 -0.2016 -0.1436  0.2596
 5422SOL    HW121686   0.155   4.592   3.397 -0.9485 -1.9231  0.8623
 5422SOL    HW221687   0.158   4.463   3.318  2.5113 -1.2466 -0.2930
 5422SOL     MW21688   0.182   4.546   3.328  0.0630 -0.5315  0.2663
 5423SOL     OW21689   0.505   0.477   3.254  0.2206 -0.0338 -0.1598
 5423SOL    HW121690   0.493   0.446   3.344 -0.7766 -0.1248 -0.3205
 5423SOL    HW221691   0.417   0.478   3.216  0.5121  0.8621 -0.8615
 5423SOL     MW21692   0.492   0.473   3.261  0.1256  0.0745 -0.2759
 5424SOL     OW21693   1.611   4.514   0.808 -0.1749  0.6993  0.0670
 5424SOL    HW121694   1.582   4.446   0.868  2.5934 -0.3932  0.3006
 5424SOL    HW221695   1.547   4.513   0.737 -1.0572 -1.0495  0.8403
 5424SOL     MW21696   1.598   4.505   0.806  0.0790  0.3169  0.2025
 5425SOL     OW21697   2.128   4.628   3.161  0.5287 -0.1682  0.1774
 5425SOL    HW121698   2.112   4.574   3.238 -0.4266 -2.1813 -1.3663
 5425SOL    HW221699   2.092   4.578   3.088  1.5895  1.5710 -1.6322
 5425SOL     MW21700   2.121   4.614   3.161  0.5429 -0.2051 -0.2739
 5426SOL     OW21701   3.657   1.219   1.232  0.0563 -0.0016  0.1250
 5426SOL    HW121702   3.731   1.177   1.275 -0.3234 -0.4951  0.3024
 5426SOL    HW221703   3.630   1.288   1.293 -0.6095 -0.8310  0.7934
 5426SOL     MW21704   3.663   1.223   1.246 -0.0844 -0.1797  0.2388
 5427SOL     OW21705   0.280   0.252   0.777 -0.6250 -0.2552 -0.4583
 5427SOL    HW121706   0.248   0.164   0.794 -3.8246  1.0707  1.1924
 5427SOL    HW221707   0.220   0.287   0.711 -0.6888  1.3544  0.4062
 5427SOL     MW21708   0.268   0.245   0.770 -1.0642  0.1399 -0.1198
 5428SOL     OW21709   0.878   2.668   1.967  0.5689 -0.2216 -0.1786
 5428SOL    HW121710   0.826   2.735   2.011 -0.4715 -0.2248 -1.3536
 5428SOL    HW221711   0.963   2.671   2.010  0.2720  1.2810  0.3386
 5428SOL     MW21712   0.882   2.677   1.978  0.3889 -0.0198 -0.2671
 5429SOL     OW21713   2.454   3.384   1.133  0.4341 -0.2326 -0.1127
 5429SOL    HW121714   2.537   3.369   1.178 -0.2402 -0.3449  1.1400
 5429SOL    HW221715   2.395   3.318   1.170  0.0504 -0.8551 -1.7599
 5429SOL     MW21716   2.457   3.373   1.144  0.2917 -0.3315 -0.1658
 5430SOL     OW21717   2.173   4.824   0.652 -0.4033  0.4071  0.0544
 5430SOL    HW121718   2.108   4.824   0.582 -0.6456  0.6369  0.2763
 5430SOL    HW221719   2.191   4.917   0.667 -0.3990  0.3600  0.3383
 5430SOL     MW21720   2.166   4.837   0.645 -0.4353  0.4317  0.1225
 5431SOL     OW21721   1.083   5.356   1.707 -0.0016  0.2392  0.5326
 5431SOL    HW121722   1.153   5.395   1.759 -0.4312  0.2671  1.0978
 5431SOL    HW221723   1.045   5.429   1.659  0.1508  0.2742  0.4640
 5431SOL     MW21724   1.087   5.371   1.707 -0.0389  0.2477  0.5994
 5432SOL     OW21725   3.707   2.376   2.027 -0.2956  0.2516 -0.1866
 5432SOL    HW121726   3.669   2.445   2.080 -0.5339 -0.6111  0.8047
 5432SOL    HW221727   3.750   2.422   1.955 -0.8383  1.3926  0.1896
 5432SOL     MW21728   3.708   2.391   2.024 -0.4007  0.2891 -0.0025
 5433SOL     OW21729   1.746   4.204   0.066 -0.1674 -1.1033 -0.6616
 5433SOL    HW121730   1.703   4.125   0.033 -0.3776 -0.8108 -1.0909
 5433SOL    HW221731   1.676   4.253   0.109 -0.2165 -0.7477 -1.1383
 5433SOL     MW21732   1.731   4.200   0.068 -0.2023 -1.0160 -0.7836
 5434SOL     OW21733   2.200   2.272   0.906  0.5197 -0.1724  0.9221
 5434SOL    HW121734   2.177   2.311   0.822  3.9353 -1.2320 -0.6816
 5434SOL    HW221735   2.250   2.340   0.951 -0.2811 -0.0303  1.6316
 5434SOL     MW21736   2.203   2.286   0.901  0.8716 -0.2959  0.8018
 5435SOL     OW21737   4.367   2.078   0.157 -0.1721  0.1422  0.0878
 5435SOL    HW121738   4.349   2.055   0.066  0.2139  0.8091 -0.1614
 5435SOL    HW221739   4.281   2.086   0.197 -0.3323 -0.7499 -0.0644
 5435SOL     MW21740   4.353   2.076   0.150 -0.1417  0.1119  0.0338
 5436SOL     OW21741   1.871   0.369   3.452 -0.2621 -0.0573  0.2128
 5436SOL    HW121742   1.965   0.381   3.464 -0.4068  1.4901 -0.0517
 5436SOL    HW221743   1.847   0.300   3.515  1.1759 -1.0923 -0.3258
 5436SOL     MW21744   1.880   0.361   3.462 -0.0881  0.0116  0.1047
 5437SOL     OW21745   3.364   0.935   2.934  0.3366  0.3496 -0.6027
 5437SOL    HW121746   3.344   0.842   2.943  0.4323  0.5128  2.0134
 5437SOL    HW221747   3.446   0.946   2.983  1.3946  1.5161 -2.5037
 5437SOL     MW21748   3.373   0.924   2.942  0.4919  0.5285 -0.5065
 5438SOL     OW21749   1.412   0.516   4.572 -0.0601 -0.1018  0.3546
 5438SOL    HW121750   1.436   0.519   4.664 -0.4161 -0.0719  0.4498
 5438SOL    HW221751   1.357   0.438   4.565  1.1290 -0.9282 -0.1201
 5438SOL     MW21752   1.408   0.506   4.583  0.0520 -0.2090  0.3035
 5439SOL     OW21753   2.581   4.584   3.658 -0.7479  0.1927 -0.4092
 5439SOL    HW121754   2.595   4.523   3.586  1.8735  0.5669 -0.3022
 5439SOL    HW221755   2.617   4.540   3.735 -0.3416  1.1987 -0.0071
 5439SOL     MW21756   2.587   4.570   3.659 -0.3404  0.3784 -0.3407
 5440SOL     OW21757   3.073   4.200   2.284  0.5395 -0.1504 -0.0010
 5440SOL    HW121758   3.043   4.248   2.206 -0.1224  1.5720  1.2558
 5440SOL    HW221759   2.999   4.203   2.344  0.9324 -1.7288  0.6069
 5440SOL     MW21760   3.059   4.207   2.281  0.5033 -0.1310  0.2500
 5441SOL     OW21761   5.331   1.529   3.756 -0.2626 -0.3133 -0.8758
 5441SOL    HW121762   5.354   1.437   3.745  0.7070 -0.0011 -1.5271
 5441SOL    HW221763   5.408   1.568   3.798 -0.0621  0.5004 -1.9685
 5441SOL     MW21764   5.344   1.522   3.760 -0.1051 -0.1618 -1.1105
 5442SOL     OW21765   0.136   0.510   2.175  0.0801  0.0655 -0.2073
 5442SOL    HW121766   0.147   0.581   2.239  0.5368 -1.5000  1.5221
 5442SOL    HW221767   0.225   0.486   2.151 -0.0868  0.9230 -1.8327
 5442SOL     MW21768   0.149   0.516   2.181  0.1191 -0.0298 -0.1933
 5443SOL     OW21769   2.982   5.325   2.522 -0.0711  0.1539  0.3806
 5443SOL    HW121770   2.906   5.298   2.575 -0.6636  0.0409 -0.5007
 5443SOL    HW221771   3.010   5.245   2.478  1.0307  0.0405  1.2513
 5443SOL     MW21772   2.975   5.310   2.524 -0.0025  0.1234  0.3792
 5444SOL     OW21773   2.637   3.701   5.455 -1.0467 -0.3072  0.1938
 5444SOL    HW121774   2.676   3.755   5.386 -0.4402 -1.0885 -0.0897
 5444SOL    HW221775   2.702   3.699   5.525 -0.6732 -1.3691 -0.1585
 5444SOL     MW21776   2.651   3.708   5.455 -0.9148 -0.5553  0.1082
 5445SOL     OW21777   4.116   3.300   2.815 -0.4310 -0.2975  0.2634
 5445SOL    HW121778   4.100   3.360   2.888 -0.8263 -0.5007  0.3464
 5445SOL    HW221779   4.090   3.214   2.848  0.9821 -0.6844  0.4571
 5445SOL     MW21780   4.110   3.297   2.829 -0.2940 -0.3769  0.3006
 5446SOL     OW21781   3.803   4.179   0.561 -0.5348 -0.5090  0.0724
 5446SOL    HW121782   3.781   4.252   0.620  1.5784  1.2548 -1.1892
 5446SOL    HW221783   3.799   4.217   0.474 -1.0268 -2.3957 -0.7791
 5446SOL     MW21784   3.799   4.194   0.558 -0.3166 -0.5255 -0.2120
 5447SOL     OW21785   0.618   2.020   0.892  0.2381 -0.3017 -0.4807
 5447SOL    HW121786   0.582   1.972   0.967  0.3254  0.1552 -0.1407
 5447SOL    HW221787   0.707   1.986   0.882  1.0287  1.2018  1.0429
 5447SOL     MW21788   0.625   2.009   0.901  0.3563 -0.0379 -0.2299
 5448SOL     OW21789   3.592   1.698   3.516 -0.4092 -0.1748  0.3873
 5448SOL    HW121790   3.525   1.630   3.510 -1.1846  0.7101 -2.5321
 5448SOL    HW221791   3.672   1.654   3.487 -1.1371  0.3328 -2.6320
 5448SOL     MW21792   3.594   1.683   3.512 -0.6116  0.0126 -0.4120
 5449SOL     OW21793   0.777   1.061   3.284  0.1353  0.4187 -0.2407
 5449SOL    HW121794   0.820   0.992   3.234 -1.4083 -1.1992  0.5689
 5449SOL    HW221795   0.821   1.059   3.370 -0.8534 -0.5783  0.2639
 5449SOL     MW21796   0.789   1.052   3.289 -0.2055  0.0668 -0.0638
 5450SOL     OW21797   5.101   3.257   4.053 -0.1829  0.0356  0.3446
 5450SOL    HW121798   5.051   3.227   3.978 -0.1158  0.1444  0.2551
 5450SOL    HW221799   5.057   3.337   4.081  1.4887  1.6667 -1.4140
 5450SOL     MW21800   5.089   3.264   4.047  0.0511  0.2698  0.0959
 5451SOL     OW21801   0.311   2.572   4.938  0.1676 -0.2955  0.0094
 5451SOL    HW121802   0.354   2.496   4.899  2.1846  0.8334 -0.1559
 5451SOL    HW221803   0.330   2.644   4.877 -0.3055  0.6448  0.9365
 5451SOL     MW21804   0.320   2.572   4.924  0.3754 -0.0170  0.1120
 5452SOL     OW21805   3.639   1.312   0.967 -0.4162 -0.0565  0.4249
 5452SOL    HW121806   3.641   1.273   1.054 -1.4735 -0.5497  0.2399
 5452SOL    HW221807   3.685   1.396   0.977  1.0724 -0.9034  1.0407
 5452SOL     MW21808   3.646   1.318   0.980 -0.3582 -0.2369  0.4829
 5453SOL     OW21809   2.483   0.583   4.775  0.7336  0.7214  1.0155
 5453SOL    HW121810   2.535   0.608   4.698  0.3916  2.0625  1.1875
 5453SOL    HW221811   2.537   0.611   4.849 -0.2777  2.3114  1.1919
 5453SOL     MW21812   2.498   0.590   4.775  0.5515  1.1159  1.0624
 5454SOL     OW21813   2.759   5.292   4.867 -0.0374  0.1956  0.2813
 5454SOL    HW121814   2.717   5.321   4.948  0.7283 -1.4070  1.2902
 5454SOL    HW221815   2.749   5.197   4.868 -2.1753  0.2422 -2.7444
 5454SOL     MW21816   2.752   5.283   4.878 -0.2220 -0.0138  0.0099
 5455SOL     OW21817   2.962   5.312   0.893  0.8931 -0.5938  0.1340
 5455SOL    HW121818   2.935   5.223   0.870 -0.1882 -0.2694  0.1004
 5455SOL    HW221819   2.883   5.353   0.926  1.3808  0.3737  0.1210
 5455SOL     MW21820   2.948   5.305   0.894  0.8132 -0.4199  0.1277
 5456SOL     OW21821   4.682   2.048   4.753 -0.3677 -0.3441 -0.2049
 5456SOL    HW121822   4.762   2.011   4.790 -0.3765  0.6796  0.9119
 5456SOL    HW221823   4.658   1.988   4.682  1.5758 -0.4654 -0.8043
 5456SOL     MW21824   4.689   2.035   4.749 -0.1073 -0.2226 -0.1353
 5457SOL     OW21825   2.042   1.653   5.401 -0.0684  0.2680  0.1703
 5457SOL    HW121826   2.081   1.647   5.314  0.7261 -0.4332  0.5556
 5457SOL    HW221827   2.094   1.719   5.447 -0.6539  0.8312  0.0383
 5457SOL     MW21828   2.054   1.661   5.396 -0.0403  0.2494  0.2044
 5458SOL     OW21829   0.957   4.908   3.198 -0.1229 -0.2262 -0.0125
 5458SOL    HW121830   0.945   5.002   3.208 -0.5153 -0.3727  1.0649
 5458SOL    HW221831   0.995   4.880   3.281  2.6299 -0.6258 -1.2946
 5458SOL     MW21832   0.960   4.917   3.211  0.1947 -0.2997 -0.0401
 5459SOL     OW21833   5.214   2.565   0.793 -0.2154  0.0726 -0.2113
 5459SOL    HW121834   5.145   2.552   0.728  1.1063  1.5883 -2.0340
 5459SOL    HW221835   5.270   2.632   0.755  2.0355 -0.7862  1.4012
 5459SOL     MW21836   5.212   2.572   0.779  0.2654  0.1610 -0.2396
 5460SOL     OW21837   2.425   1.728   0.018  0.1325 -0.6020  0.3865
 5460SOL    HW121838   2.399   1.781   0.094 -1.4949 -0.0504 -0.5154
 5460SOL    HW221839   2.470   1.653   0.056  0.6467  0.3746  1.8148
 5460SOL     MW21840   2.427   1.725   0.033 -0.0173 -0.3964  0.4573
 5461SOL     OW21841   2.473   1.581   2.212  0.2383  0.1330 -0.3615
 5461SOL    HW121842   2.506   1.621   2.131 -0.2787 -0.0484 -0.6673
 5461SOL    HW221843   2.431   1.500   2.183  2.5071 -1.4350  0.3846
 5461SOL     MW21844   2.472   1.576   2.197  0.4740 -0.1024 -0.3023
 5462SOL     OW21845   0.184   4.055   0.715  0.8729  1.0427  0.2966
 5462SOL    HW121846   0.166   3.964   0.693  1.4537  0.5933  1.5681
 5462SOL    HW221847   0.161   4.104   0.636  1.5367 -0.3089 -0.7827
 5462SOL     MW21848   0.178   4.050   0.701  1.0404  0.8003  0.3225
 5463SOL     OW21849   1.766   1.463   0.463 -0.3731 -0.2553  0.5153
 5463SOL    HW121850   1.855   1.430   0.473  0.1082  0.5331 -0.9027
 5463SOL    HW221851   1.716   1.417   0.530  0.8910 -1.4556  0.6829
 5463SOL     MW21852   1.771   1.452   0.474 -0.1382 -0.3107  0.3470
 5464SOL     OW21853   3.938   5.010   3.557 -0.2994  0.3150 -0.3213
 5464SOL    HW121854   4.023   5.003   3.514 -0.1354  0.4055 -0.0154
 5464SOL    HW221855   3.957   5.003   3.651 -0.6167  0.4306 -0.2447
 5464SOL     MW21856   3.952   5.008   3.564 -0.3200  0.3428 -0.2698
 5465SOL     OW21857   5.186   2.302   4.737 -0.4012  0.4035 -0.0644
 5465SOL    HW121858   5.098   2.306   4.774  0.4012  0.9234  1.9220
 5465SOL    HW221859   5.215   2.393   4.736  0.4954  0.1311  0.2980
 5465SOL     MW21860   5.178   2.315   4.742 -0.1726  0.4368  0.2517
 5466SOL     OW21861   2.601   0.462   0.866 -0.6564 -0.4617  0.2476
 5466SOL    HW121862   2.510   0.491   0.861 -0.1732  0.9754 -2.4036
 5466SOL    HW221863   2.646   0.513   0.798  1.9560 -1.7714  0.8542
 5466SOL     MW21864   2.595   0.473   0.856 -0.2398 -0.4446 -0.0275
 5467SOL     OW21865   1.735   2.277   0.932 -0.2054 -0.4335 -0.1741
 5467SOL    HW121866   1.706   2.349   0.876  0.9177 -0.4904 -0.8743
 5467SOL    HW221867   1.804   2.315   0.986 -1.0457 -0.4704  0.9567
 5467SOL     MW21868   1.741   2.291   0.932 -0.1674 -0.4462 -0.1161
 5468SOL     OW21869   0.578   2.511   4.009  0.5611  0.5292  0.2946
 5468SOL    HW121870   0.546   2.591   4.050 -0.3873  1.2078 -1.6467
 5468SOL    HW221871   0.508   2.485   3.950  0.0383 -2.7941  2.1462
 5468SOL     MW21872   0.564   2.518   4.006  0.3631  0.1733  0.2825
 5469SOL     OW21873   4.353   1.130   2.026 -0.2931  0.2499  0.3805
 5469SOL    HW121874   4.434   1.174   2.051 -0.2995 -0.4713  1.7277
 5469SOL    HW221875   4.355   1.046   2.071  0.5639 -2.0729 -3.5112
 5469SOL     MW21876   4.364   1.125   2.035 -0.1786 -0.1598  0.0380
 5470SOL     OW21877   4.503   4.744   4.036  0.0606 -0.0344  0.7162
 5470SOL    HW121878   4.540   4.673   3.983 -3.2864 -2.6251  1.4800
 5470SOL    HW221879   4.568   4.759   4.105  1.9532 -0.5824 -0.8753
 5470SOL     MW21880   4.517   4.736   4.038 -0.1352 -0.4568  0.6048
 5471SOL     OW21881   0.265   1.195   2.033 -0.2486 -0.0068 -0.4251
 5471SOL    HW121882   0.320   1.212   2.109  0.8751  0.5323 -1.3182
 5471SOL    HW221883   0.176   1.201   2.066  0.1836 -1.9255  1.3028
 5471SOL     MW21884   0.261   1.198   2.048 -0.0392 -0.1925 -0.3128
 5472SOL     OW21885   3.853   5.199   3.038  0.0575  0.2779  0.2355
 5472SOL    HW121886   3.771   5.167   3.076  0.2352  1.1799  1.4329
 5472SOL    HW221887   3.890   5.257   3.105  1.6800 -0.1042 -0.2806
 5472SOL     MW21888   3.847   5.202   3.052  0.2998  0.3479  0.3272
 5473SOL     OW21889   2.543   4.415   3.414 -0.1966 -0.1531 -0.0393
 5473SOL    HW121890   2.558   4.333   3.461  0.1029 -0.2311 -0.2672
 5473SOL    HW221891   2.626   4.433   3.369 -0.5553 -0.2180 -0.7472
 5473SOL     MW21892   2.556   4.407   3.414 -0.2045 -0.1723 -0.1653
 5474SOL     OW21893   2.605   1.990   2.935 -0.3019  0.1091 -0.4501
 5474SOL    HW121894   2.552   2.069   2.931 -0.4081  0.0092 -1.0714
 5474SOL    HW221895   2.570   1.942   3.010 -0.8651  0.2064 -0.6458
 5474SOL     MW21896   2.593   1.994   2.945 -0.3920  0.1087 -0.5601
 5475SOL     OW21897   1.509   0.536   1.635 -0.1215  0.1173 -0.4491
 5475SOL    HW121898   1.439   0.590   1.598  0.8434  1.9108  0.2352
 5475SOL    HW221899   1.567   0.518   1.561 -1.0961 -1.1020 -0.9481
 5475SOL     MW21900   1.508   0.541   1.620 -0.1228  0.1946 -0.4241
 5476SOL     OW21901   4.887   1.974   3.564 -0.0592 -0.2193 -0.5120
 5476SOL    HW121902   4.930   2.011   3.487  1.3504  0.3650  0.5262
 5476SOL    HW221903   4.794   1.992   3.550  0.4386  2.6006 -0.6756
 5476SOL     MW21904   4.880   1.981   3.552  0.1975  0.2388 -0.3943
 5477SOL     OW21905   4.592   4.251   4.117 -0.2580 -0.1491 -0.2810
 5477SOL    HW121906   4.596   4.199   4.037  0.7108  1.5081 -1.3612
 5477SOL    HW221907   4.510   4.299   4.111 -0.3257 -0.2403 -0.1147
 5477SOL     MW21908   4.582   4.250   4.106 -0.1367  0.0617 -0.4040
 5478SOL     OW21909   2.100   3.854   5.339 -0.0844  0.2018 -0.1762
 5478SOL    HW121910   2.141   3.900   5.413 -0.7069 -0.8579  0.8673
 5478SOL    HW221911   2.006   3.868   5.352 -0.1817  0.3457 -1.0150
 5478SOL     MW21912   2.093   3.862   5.351 -0.1813  0.0785 -0.1487
 5479SOL     OW21913   2.975   4.406   4.992  0.3303  0.2357 -0.2310
 5479SOL    HW121914   3.005   4.494   4.969  2.1197  0.1213  1.3800
 5479SOL    HW221915   2.990   4.354   4.913  0.3535  1.1322 -0.8267
 5479SOL     MW21916   2.981   4.411   4.978  0.5743  0.3410 -0.0944
 5480SOL     OW21917   1.669   3.869   2.976  0.3055  0.3986  0.1040
 5480SOL    HW121918   1.729   3.799   2.949 -1.2075 -0.9265 -0.0385
 5480SOL    HW221919   1.597   3.863   2.913 -1.4677 -0.1986  2.0780
 5480SOL     MW21920   1.667   3.858   2.963 -0.1367  0.1399  0.3505
 5481SOL     OW21921   1.713   2.622   1.280  0.3302 -0.0718  0.5821
 5481SOL    HW121922   1.774   2.636   1.353  0.4566 -1.1312  0.7037
 5481SOL    HW221923   1.673   2.536   1.299  0.2446 -0.2817 -0.5131
 5481SOL     MW21924   1.716   2.612   1.293  0.3357 -0.2426  0.4511
 5482SOL     OW21925   5.084   4.026   1.156 -0.0392 -0.0823 -0.6053
 5482SOL    HW121926   5.129   3.961   1.209  0.5613 -0.2003 -1.2379
 5482SOL    HW221927   5.004   3.982   1.126 -0.4762  0.0472  0.3198
 5482SOL     MW21928   5.079   4.012   1.159 -0.0172 -0.0808 -0.5659
 5483SOL     OW21929   0.474   4.145   2.622 -0.0732 -0.5548  0.2089
 5483SOL    HW121930   0.385   4.113   2.606  0.2542 -0.8573 -1.1212
 5483SOL    HW221931   0.522   4.124   2.542  0.5693  1.8367 -0.1097
 5483SOL     MW21932   0.469   4.138   2.609  0.0573 -0.2736 -0.0130
 5484SOL     OW21933   0.393   1.909   2.357  0.0079  0.0673  0.2537
 5484SOL    HW121934   0.424   1.853   2.428 -1.4278 -0.1943  0.7037
 5484SOL    HW221935   0.312   1.948   2.391 -1.4586 -1.1038 -1.6871
 5484SOL     MW21936   0.386   1.906   2.371 -0.3827 -0.1255  0.0531
 5485SOL     OW21937   4.331   4.175   1.215 -0.6114 -0.0065 -0.4239
 5485SOL    HW121938   4.239   4.165   1.192 -0.3496 -0.7811 -1.1485
 5485SOL    HW221939   4.339   4.136   1.302 -1.3049  1.6172  0.3997
 5485SOL     MW21940   4.320   4.169   1.224 -0.6695  0.1077 -0.4105
 5486SOL     OW21941   1.219   4.301   5.242 -0.0229  0.0045  0.2069
 5486SOL    HW121942   1.251   4.376   5.291  0.8343  0.6672 -1.2924
 5486SOL    HW221943   1.298   4.256   5.212 -0.4921 -0.1800 -0.8294
 5486SOL     MW21944   1.234   4.305   5.244  0.0293  0.0689 -0.1343
 5487SOL     OW21945   4.268   5.412   4.247 -0.4147 -0.2485 -0.0846
 5487SOL    HW121946   4.324   5.487   4.269  1.7560 -2.2445  1.7182
 5487SOL    HW221947   4.223   5.391   4.329  0.8729 -2.3033  0.1736
 5487SOL     MW21948   4.270   5.419   4.261  0.0507 -0.7936  0.1928
 5488SOL     OW21949   0.615   3.067   4.943  0.8071  0.1171 -0.1471
 5488SOL    HW121950   0.621   3.160   4.964  1.2398  0.3086 -1.0678
 5488SOL    HW221951   0.657   3.059   4.858  1.0908 -0.9886  0.0821
 5488SOL     MW21952   0.621   3.078   4.934  0.9035 -0.0059 -0.2401
 5489SOL     OW21953   0.271   2.357   0.404  0.1833 -0.0464 -0.3658
 5489SOL    HW121954   0.252   2.321   0.490  1.9392  0.9018  0.4567
 5489SOL    HW221955   0.366   2.367   0.401 -0.0360  2.7188 -1.2327
 5489SOL     MW21956   0.281   2.354   0.415  0.3901  0.4534 -0.3717
 5490SOL     OW21957   1.282   0.434   2.569  0.3283 -0.1247  0.5345
 5490SOL    HW121958   1.195   0.434   2.609 -0.0176 -0.9034 -0.1772
 5490SOL    HW221959   1.318   0.348   2.590  0.9290  0.1968  0.8296
 5490SOL     MW21960   1.275   0.422   2.577  0.3626 -0.1862  0.4784
 5491SOL     OW21961   3.613   4.819   3.249  0.2407 -0.7358  0.4194
 5491SOL    HW121962   3.549   4.814   3.320  1.1992  0.2763  1.3958
 5491SOL    HW221963   3.629   4.912   3.237  1.2442 -0.9570 -0.0692
 5491SOL     MW21964   3.606   4.831   3.257  0.5048 -0.6293  0.4850
 5492SOL     OW21965   4.087   5.228   0.208  0.8034 -0.4877 -0.0676
 5492SOL    HW121966   4.069   5.141   0.245  0.6783 -0.3039  0.3042
 5492SOL    HW221967   4.137   5.273   0.276  1.0940 -0.3593 -0.3668
 5492SOL     MW21968   4.091   5.222   0.222  0.8257 -0.4457 -0.0578
 5493SOL     OW21969   4.201   1.038   3.679 -0.1588 -0.0440 -0.0484
 5493SOL    HW121970   4.282   1.066   3.635  0.6127 -2.1431 -0.1138
 5493SOL    HW221971   4.222   1.041   3.772 -1.0522  2.2720  0.1236
 5493SOL     MW21972   4.215   1.042   3.686 -0.1752 -0.0148 -0.0340
 5494SOL     OW21973   3.537   5.145   0.766 -0.3732 -0.8854 -0.8486
 5494SOL    HW121974   3.584   5.102   0.838  0.0191 -0.8987 -1.1136
 5494SOL    HW221975   3.543   5.238   0.785 -0.2534 -0.8878 -0.8740
 5494SOL     MW21976   3.544   5.151   0.778 -0.3043 -0.8875 -0.8877
 5495SOL     OW21977   3.815   2.171   0.638  0.0880 -0.3488 -0.2139
 5495SOL    HW121978   3.723   2.156   0.618  0.0149 -1.5160  0.9023
 5495SOL    HW221979   3.816   2.249   0.693 -0.3627 -0.9621  0.6865
 5495SOL     MW21980   3.803   2.180   0.643  0.0175 -0.5884  0.0575
 5496SOL     OW21981   1.841   2.066   0.531 -0.4746  0.3283 -0.2035
 5496SOL    HW121982   1.894   1.986   0.531 -0.6836  0.1883 -0.1481
 5496SOL    HW221983   1.751   2.034   0.540 -0.5658  0.5655 -0.2849
 5496SOL     MW21984   1.836   2.051   0.532 -0.5150  0.3414 -0.2070
 5497SOL     OW21985   3.846   1.101   3.364 -0.1329  0.0773 -0.2050
 5497SOL    HW121986   3.763   1.101   3.413  0.0332 -1.6598  0.1313
 5497SOL    HW221987   3.830   1.162   3.292 -1.5310  0.1587  0.1329
 5497SOL     MW21988   3.832   1.109   3.361 -0.2987 -0.1455 -0.1143
 5498SOL     OW21989   3.243   4.078   1.919 -0.1069  0.5512 -0.0885
 5498SOL    HW121990   3.288   4.074   2.003  0.4587  1.2830 -0.3430
 5498SOL    HW221991   3.286   4.010   1.866 -0.8466 -0.2984  0.3785
 5498SOL     MW21992   3.255   4.068   1.923 -0.1303  0.5353 -0.0599
 5499SOL     OW21993   3.775   4.744   0.867 -0.4732  0.1630  0.2334
 5499SOL    HW121994   3.827   4.779   0.939  0.3143  0.5057 -0.4778
 5499SOL    HW221995   3.785   4.808   0.796 -1.9565  0.2836  0.0954
 5499SOL     MW21996   3.783   4.757   0.867 -0.5669  0.2253  0.1191
 5500SOL     OW21997   1.519   0.474   3.612  0.7585 -0.5296 -0.1275
 5500SOL    HW121998   1.516   0.462   3.707 -0.5375  3.0180  0.4258
 5500SOL    HW221999   1.602   0.518   3.596  0.3193  0.2287 -0.3848
 5500SOL     MW22000   1.530   0.478   3.623  0.5250  0.0499 -0.0877
   5.50603   5.50603   5.50603
