Single water molecule with virtual site
22000
    1SOL     OW    1   5.891   0.639   7.112  0.7319 -0.1000  0.5517
    1SOL    HW1    2   5.953   0.566   7.107 -1.6663 -2.3379  1.2537
    1SOL    HW2    3   5.902   0.673   7.201  1.0245 -0.4248  0.6421
    1SOL     MW    4   5.901   0.634   7.124  0.4485 -0.4449  0.6584
    2SOL     OW    5   7.016   0.638   0.637 -0.2547 -0.8284 -0.0809
    2SOL    HW1    6   6.938   0.584   0.652 -1.8424  1.5353  0.8093
    2SOL    HW2    7   6.982   0.724   0.611  2.0723  0.1992 -0.0346
    2SOL     MW    8   7.001   0.643   0.636 -0.1552 -0.3720  0.0451
    3SOL     OW    9   5.255   9.529   7.708  0.3123 -0.0409 -0.1337
    3SOL    HW1   10   5.299   9.509   7.626 -0.2863  1.9750 -1.0047
    3SOL    HW2   11   5.180   9.583   7.683  0.1784  0.7396  1.7285
    3SOL     MW   12   5.251   9.534   7.694  0.2137  0.3355 -0.0003
    4SOL     OW   13   4.843   0.232   9.424 -0.1740 -0.1365 -0.0432
    4SOL    HW1   14   4.929   0.251   9.463 -0.2989 -2.2982  1.4791
    4SOL    HW2   15   4.838   0.137   9.423 -2.3583 -0.0698 -0.6230
    4SOL     MW   16   4.854   0.222   9.429 -0.4848 -0.4185  0.0836
    5SOL     OW   17   7.871   0.312   3.231  0.2335  0.0222  0.2657
    5SOL    HW1   18   7.908   0.233   3.272 -1.3538 -1.6238 -1.2581
    5SOL    HW2   19   7.892   0.383   3.291  2.2244 -1.4541  1.4411
    5SOL     MW   20   7.879   0.311   3.244  0.2878 -0.3980  0.2188
    6SOL     OW   21   7.059   1.359   8.520 -0.8124 -0.1539 -0.1569
    6SOL    HW1   22   6.974   1.394   8.543 -0.2282  1.6607 -0.5846
    6SOL    HW2   23   7.044   1.311   8.438 -1.4589 -0.0306 -0.1104
    6SOL     MW   24   7.046   1.357   8.512 -0.8208  0.1069 -0.2082
    7SOL     OW   25   5.252   8.073   7.396  0.3069  0.5302  0.4397
    7SOL    HW1   26   5.278   7.983   7.416  1.3099  0.6777 -0.1170
    7SOL    HW2   27   5.157   8.075   7.409  0.2851 -0.5892  0.5052
    7SOL     MW   28   5.243   8.061   7.401  0.4389  0.3994  0.3736
    8SOL     OW   29   6.821   8.116   1.441 -0.2555 -0.1579  0.4241
    8SOL    HW1   30   6.872   8.150   1.515  1.6293 -1.8069 -0.0462
    8SOL    HW2   31   6.768   8.190   1.413  1.4192  1.4830  1.3560
    8SOL     MW   32   6.821   8.131   1.447  0.2235 -0.1590  0.4862
    9SOL     OW   33   5.852   0.519   8.040 -0.0186  0.0310 -0.4254
    9SOL    HW1   34   5.831   0.539   8.131  1.8503  0.1851  0.0118
    9SOL    HW2   35   5.806   0.587   7.989 -1.9478 -0.6871  0.2786
    9SOL     MW   36   5.843   0.531   8.045 -0.0267 -0.0449 -0.2718
   10SOL     OW   37   7.223   8.758   7.088 -0.0446 -0.5771  0.2884
   10SOL    HW1   38   7.277   8.826   7.048 -2.6747  0.7478 -1.2658
   10SOL    HW2   39   7.206   8.790   7.176  0.7006 -0.4237  0.3829
   10SOL     MW   40   7.228   8.771   7.094 -0.2983 -0.3781  0.0920
   11SOL     OW   41   6.644   8.591   6.945  0.6196  0.5492  0.3746
   11SOL    HW1   42   6.565   8.538   6.938  1.9196 -1.3292 -1.1506
   11SOL    HW2   43   6.639   8.650   6.869 -0.2482  1.8634  1.4100
   11SOL     MW   44   6.632   8.592   6.934  0.6777  0.4733  0.3086
   12SOL     OW   45   5.924   9.186   3.188  0.2502 -0.6745 -0.0302
   12SOL    HW1   46   6.002   9.132   3.201  0.7224  0.0569  0.1879
   12SOL    HW2   47   5.873   9.174   3.268  1.4929  1.0640  1.0914
   12SOL     MW   48   5.928   9.177   3.200  0.4810 -0.3421  0.1501
   13SOL     OW   49   4.469   0.084   3.010  0.1796 -0.2060  0.0483
   13SOL    HW1   50   4.378   0.109   2.996 -0.5210 -0.4992  3.2083
   13SOL    HW2   51   4.465  -0.007   3.039  1.7471 -0.9232 -1.7535
   13SOL     MW   52   4.456   0.075   3.012  0.2963 -0.3420  0.2310
   14SOL     OW   53   6.777   1.220   0.695 -0.1899 -0.1001 -0.0209
   14SOL    HW1   54   6.700   1.242   0.643 -1.3375  0.7524  1.8903
   14SOL    HW2   55   6.775   1.125   0.702 -0.6347 -0.1406 -0.6095
   14SOL     MW   56   6.766   1.210   0.689 -0.4042  0.0091  0.1571
   15SOL     OW   57   5.897   8.299   1.429 -0.1850 -0.1626  0.4601
   15SOL    HW1   58   5.966   8.310   1.365 -0.4299 -1.6772 -0.1214
   15SOL    HW2   59   5.840   8.375   1.417  0.0709 -0.1423 -0.7467
   15SOL     MW   60   5.898   8.310   1.419 -0.1836 -0.3637  0.2195
   16SOL     OW   61   6.112   8.015   6.714 -0.0047  0.1271  0.2665
   16SOL    HW1   62   6.093   7.996   6.622  2.4493  1.1211 -0.5275
   16SOL    HW2   63   6.081   7.937   6.761  0.1343 -1.1096 -1.5780
   16SOL     MW   64   6.105   8.002   6.708  0.3442  0.0945 -0.0886
   17SOL     OW   65   3.664   9.514   1.926  0.5066 -0.1863  0.3511
   17SOL    HW1   66   3.652   9.591   1.871 -1.8026 -0.2268  0.7122
   17SOL    HW2   67   3.653   9.546   2.016  1.1186 -0.6671  0.6043
   17SOL     MW   68   3.661   9.528   1.931  0.2782 -0.2565  0.4338
   18SOL     OW   69   7.992   0.312   9.947  0.3761 -0.2008 -0.0349
   18SOL    HW1   70   8.002   0.374   9.875 -0.2056 -0.8353 -0.6765
   18SOL    HW2   71   7.945   0.360  10.014 -0.1008  0.0505 -0.5379
   18SOL     MW   72   7.987   0.327   9.946  0.2336 -0.2523 -0.1889
   19SOL     OW   73   7.206   9.278   3.130  0.1228 -0.1625 -0.3763
   19SOL    HW1   74   7.211   9.189   3.094  1.0079 -0.2725  0.0027
   19SOL    HW2   75   7.268   9.329   3.077 -0.9811  0.4378 -1.1326
   19SOL     MW   76   7.215   9.273   3.118  0.0933 -0.0965 -0.4271
   20SOL     OW   77   4.513   8.112   9.723 -0.1119 -0.5239 -0.7805
   20SOL    HW1   78   4.424   8.148   9.727  0.2813  0.4906 -0.6493
   20SOL    HW2   79   4.550   8.133   9.809  0.6710  0.2200 -1.2872
   20SOL     MW   80   4.506   8.120   9.735  0.0464 -0.2873 -0.8311
   21SOL     OW   81   5.263   1.353   2.878 -0.1764  0.4998  0.1823
   21SOL    HW1   82   5.259   1.275   2.933  0.4385 -0.3556 -0.9393
   21SOL    HW2   83   5.357   1.370   2.868 -0.2885  2.7378  2.2175
   21SOL     MW   84   5.275   1.345   2.884 -0.1087  0.6859  0.3052
   22SOL     OW   85   5.892   7.811   0.252 -0.1063  0.0407 -0.1982
   22SOL    HW1   86   5.984   7.811   0.223  0.2917  1.6778  0.8966
   22SOL    HW2   87   5.897   7.793   0.346 -0.8539  0.8291 -0.0018
   22SOL     MW   88   5.905   7.808   0.261 -0.1533  0.3671 -0.0244
   23SOL     OW   89   7.893   9.844   9.098 -0.1256 -0.4435  0.9965
   23SOL    HW1   90   7.842   9.907   9.149  1.3294 -0.2062  2.2716
   23SOL    HW2   91   7.912   9.773   9.159 -1.2353 -1.8763 -0.2525
   23SOL     MW   92   7.889   9.843   9.113 -0.0791 -0.6044  1.0000
   24SOL     OW   93   7.409   1.057  10.038 -0.2554  0.0789 -0.0165
   24SOL    HW1   94   7.326   1.035  10.078 -1.3308  2.3499 -0.8110
   24SOL    HW2   95   7.446   1.125  10.095 -0.6256  1.5554 -1.4827
   24SOL     MW   96   7.403   1.063  10.051 -0.4500  0.5833 -0.3208
   25SOL     OW   97   7.390   0.021   7.036  0.4252 -0.2100  0.4258
   25SOL    HW1   98   7.423   0.110   7.029 -0.4948  0.1558  0.6141
   25SOL    HW2   99   7.369  -0.004   6.947 -2.2447  0.9277  0.6528
   25SOL     MW  100   7.392   0.029   7.023 -0.0579 -0.0077  0.4817
   26SOL     OW  101   5.490   9.856   9.570 -0.0089  0.0304 -0.1031
   26SOL    HW1  102   5.556   9.856   9.500  0.2014  0.2670  0.0928
   26SOL    HW2  103   5.541   9.862   9.651 -0.2960  1.0537  0.0176
   26SOL     MW  104   5.506   9.857   9.571 -0.0192  0.1999 -0.0605
   27SOL     OW  105   7.664   0.954   4.596 -0.1164 -0.6552  0.0920
   27SOL    HW1  106   7.656   1.023   4.530  2.7892 -0.0936  0.2006
   27SOL    HW2  107   7.648   0.997   4.679 -0.5548 -0.6346 -0.0016
   27SOL     MW  108   7.661   0.969   4.598  0.2156 -0.5769  0.0940
   28SOL     OW  109   4.915   8.058   2.093  0.6702  0.3254  0.1572
   28SOL    HW1  110   4.928   8.039   2.000 -1.0830 -1.0294  0.1296
   28SOL    HW2  111   4.915   7.972   2.135  2.9504  0.9895  1.6974
   28SOL     MW  112   4.917   8.044   2.086  0.7411  0.2324  0.3608
   29SOL     OW  113   7.530   1.032   5.381 -0.1578 -0.1405  0.0054
   29SOL    HW1  114   7.586   0.954   5.388 -0.0621 -0.0383  0.4206
   29SOL    HW2  115   7.452   1.002   5.334  0.8423  0.0411 -1.8734
   29SOL     MW  116   7.527   1.017   5.376 -0.0103 -0.1023 -0.1916
   30SOL     OW  117   4.978   9.306   2.988 -0.1245  0.1285 -0.8625
   30SOL    HW1  118   5.066   9.326   3.020 -0.5197  0.7913 -0.1587
   30SOL    HW2  119   4.968   9.212   3.003  0.2121  0.1739 -0.3188
   30SOL     MW  120   4.989   9.296   2.994 -0.1324  0.2238 -0.6946
   31SOL     OW  121   5.562   9.091   5.530 -0.0195 -0.5266 -0.2370
   31SOL    HW1  122   5.603   9.041   5.459 -0.2653  0.2410 -0.9276
   31SOL    HW2  123   5.471   9.062   5.530 -0.3013  0.3391 -1.0234
   31SOL     MW  124   5.555   9.080   5.521 -0.0905 -0.3068 -0.4358
   32SOL     OW  125   5.490   9.892   4.015 -0.1508  0.4955 -0.5951
   32SOL    HW1  126   5.417   9.855   3.964  0.3648  0.5974 -1.4195
   32SOL    HW2  127   5.507   9.826   4.082  0.3565 -0.5080 -1.6802
   32SOL     MW  128   5.482   9.878   4.018 -0.0131  0.3742 -0.8521
   33SOL     OW  129   4.603   0.569   0.421 -0.0599  0.2563 -0.0472
   33SOL    HW1  130   4.675   0.568   0.484 -0.4265 -0.5545  0.3833
   33SOL    HW2  131   4.553   0.490   0.442 -0.7124  0.4751 -0.7550
   33SOL     MW  132   4.606   0.558   0.433 -0.1971  0.1766 -0.0845
   34SOL     OW  133   5.606   9.593   1.675  0.0421  0.3240  0.2275
   34SOL    HW1  134   5.696   9.583   1.707  0.3459  2.3301  0.1463
   34SOL    HW2  135   5.615   9.596   1.579 -0.5018 -2.4588  0.0166
   34SOL     MW  136   5.619   9.592   1.666  0.0098  0.2195  0.1882
   35SOL     OW  137   5.120   9.244   8.820 -0.1254  0.1934 -0.4388
   35SOL    HW1  138   5.148   9.319   8.768 -0.3295  0.6740  0.1327
   35SOL    HW2  139   5.057   9.281   8.882 -0.4872 -0.5142 -0.3780
   35SOL     MW  140   5.115   9.259   8.821 -0.2016  0.1628 -0.3537
   36SOL     OW  141   7.719   9.063   5.209 -0.2878  0.4763 -0.1367
   36SOL    HW1  142   7.703   9.007   5.285  1.1083  0.6043  0.2664
   36SOL    HW2  143   7.637   9.112   5.198 -0.7503 -0.0448  0.8451
   36SOL     MW  144   7.706   9.062   5.217 -0.1621  0.4234  0.0496
   37SOL     OW  145   4.541   8.172   0.613 -0.4458 -0.4434 -0.5187
   37SOL    HW1  146   4.571   8.187   0.703  0.8934  0.9792 -1.1523
   37SOL    HW2  147   4.463   8.226   0.604 -0.1332  0.0198 -0.4438
   37SOL     MW  148   4.535   8.181   0.624 -0.2235 -0.1896 -0.5939
   38SOL     OW  149   3.758  10.106   9.349  0.6403 -0.2295  0.4478
   38SOL    HW1  150   3.731  10.141   9.434  0.3361  0.4822  0.0739
   38SOL    HW2  151   3.746  10.180   9.288 -1.1701 -1.3108 -0.5915
   38SOL     MW  152   3.753  10.121   9.352  0.3557 -0.2793  0.2576
   39SOL     OW  153   4.084  10.048   9.141 -0.0254 -0.0379 -0.6550
   39SOL    HW1  154   4.159   9.989   9.144  0.3085  0.4201  0.3442
   39SOL    HW2  155   4.008   9.992   9.158  0.3084 -0.1576  0.4693
   39SOL     MW  156   4.084  10.033   9.143  0.0645  0.0077 -0.3692
   40SOL     OW  157   6.559  10.071   6.055 -0.8432  0.2238 -0.0630
   40SOL    HW1  158   6.472  10.035   6.040 -1.4674  1.1305  1.2047
   40SOL    HW2  159   6.608   9.999   6.096 -1.6692  0.3378  1.1907
   40SOL     MW  160   6.554  10.056   6.059 -1.0384  0.3612  0.2763
   41SOL     OW  161   6.328   9.155   8.312 -0.2268 -0.2923 -0.2312
   41SOL    HW1  162   6.364   9.162   8.224 -0.1964 -1.1220 -0.2931
   41SOL    HW2  163   6.404   9.159   8.370 -0.0064 -2.0802 -0.3629
   41SOL     MW  164   6.343   9.157   8.308 -0.1931 -0.6446 -0.2573
   42SOL     OW  165   5.970   9.979   8.563  0.7207  0.1872 -0.0873
   42SOL    HW1  166   5.940   9.889   8.557  1.0572  0.0675  0.0311
   42SOL    HW2  167   5.967   9.999   8.657  0.8216  0.2417 -0.0952
   42SOL     MW  168   5.965   9.970   8.575  0.7796  0.1784 -0.0724
   43SOL     OW  169   3.880   8.786   6.418 -0.0757  0.2936 -0.0243
   43SOL    HW1  170   3.807   8.848   6.417 -1.1437 -0.9113 -0.1575
   43SOL    HW2  171   3.838   8.700   6.414  1.2751 -0.5344  2.0001
   43SOL     MW  172   3.864   8.783   6.417 -0.0377  0.0200  0.2302
   44SOL     OW  173   4.070   9.363   8.331  0.0774  0.0052 -0.3216
   44SOL    HW1  174   4.055   9.315   8.249 -0.5691 -1.4667  0.6114
   44SOL    HW2  175   3.983   9.369   8.371  0.1909  1.7246 -0.2417
   44SOL     MW  176   4.056   9.357   8.325  0.0057  0.0385 -0.1853
   45SOL     OW  177   7.503   0.307   3.568  1.3070 -0.0265  0.1461
   45SOL    HW1  178   7.500   0.356   3.486  1.4637 -1.1516 -0.5597
   45SOL    HW2  179   7.441   0.235   3.555  0.7261  0.2380  1.3350
   45SOL     MW  180   7.494   0.304   3.555  1.2500 -0.1423  0.2111
   46SOL     OW  181   6.992   8.494   0.773 -0.0022  0.3413 -0.1253
   46SOL    HW1  182   6.906   8.489   0.815 -0.7338 -1.5950 -1.7080
   46SOL    HW2  183   7.046   8.542   0.836 -1.8046  0.2366  1.6205
   46SOL     MW  184   6.988   8.500   0.787 -0.3432  0.0666 -0.1033
   47SOL     OW  185   5.763   7.641   0.084 -0.3882  0.2463 -0.2469
   47SOL    HW1  186   5.818   7.703   0.133  0.4715 -0.0663 -0.7817
   47SOL    HW2  187   5.807   7.557   0.097 -1.1798 -0.1425 -0.0697
   47SOL     MW  188   5.776   7.638   0.093 -0.3790  0.1519 -0.2950
   48SOL     OW  189   6.204   7.947   9.896  0.3972  0.4503  0.2733
   48SOL    HW1  190   6.283   7.934   9.948 -0.2968  0.0607  1.2653
   48SOL    HW2  191   6.144   7.993   9.955 -0.8479 -1.0977  0.2597
   48SOL     MW  192   6.207   7.952   9.911  0.1362  0.1896  0.4050
   49SOL     OW  193   5.646   9.391   2.525  0.2036  0.0467  0.1719
   49SOL    HW1  194   5.637   9.405   2.619  2.1696  1.1722  0.2562
   49SOL    HW2  195   5.651   9.296   2.515 -0.2930 -0.0924  1.1681
   49SOL     MW  196   5.645   9.380   2.536  0.4014  0.1794  0.3173
   50SOL     OW  197   6.906   1.337   3.758  0.3783  0.1499  0.2734
   50SOL    HW1  198   6.866   1.410   3.806  2.2380  0.4608  1.4615
   50SOL    HW2  199   6.889   1.261   3.814 -0.2456 -0.0878 -0.2220
   50SOL     MW  200   6.898   1.337   3.772  0.5446  0.1598  0.3666
   51SOL     OW  201   5.350   0.847   3.003  0.0803 -0.1670  0.1773
   51SOL    HW1  202   5.325   0.935   3.030 -2.4558 -0.9836  0.7203
   51SOL    HW2  203   5.287   0.823   2.935  1.2741 -1.2617 -0.6041
   51SOL     MW  204   5.338   0.856   2.998 -0.1004 -0.4242  0.1452
   52SOL     OW  205   7.153   9.272   4.414 -0.3599  0.0943 -0.1125
   52SOL    HW1  206   7.222   9.247   4.476 -0.5047 -0.2320 -0.0827
   52SOL    HW2  207   7.173   9.223   4.335  0.7276  1.6691 -0.8756
   52SOL     MW  208   7.165   9.262   4.412 -0.2330  0.2623 -0.2112
   53SOL     OW  209   4.379   9.424   4.125  0.3466  0.9179  0.2322
   53SOL    HW1  210   4.424   9.478   4.190  0.2962  0.8362  0.3344
   53SOL    HW2  211   4.331   9.359   4.176 -1.3123  2.0822  0.2197
   53SOL     MW  212   4.379   9.423   4.141  0.1166  1.0636  0.2443
   54SOL     OW  213   3.347   9.379   4.284  1.0064  0.8032 -0.5048
   54SOL    HW1  214   3.391   9.296   4.304 -0.2534  0.5596  1.4844
   54SOL    HW2  215   3.279   9.356   4.221  0.7144  0.3047 -0.0219
   54SOL     MW  216   3.344   9.364   4.278  0.7975  0.7034 -0.1721
   55SOL     OW  217   6.766   1.477   0.246 -0.0665  0.1605 -0.4153
   55SOL    HW1  218   6.759   1.381   0.251  0.3925  0.1998  1.8573
   55SOL    HW2  219   6.677   1.508   0.262 -0.1161  0.1510 -0.6532
   55SOL     MW  220   6.753   1.468   0.249 -0.0114  0.1645 -0.1415
   56SOL     OW  221   6.585   8.260   3.746 -0.5413 -0.1852  0.4132
   56SOL    HW1  222   6.597   8.166   3.733 -0.8917 -0.0762 -0.9204
   56SOL    HW2  223   6.580   8.295   3.657 -0.2874  1.1147  0.8919
   56SOL     MW  224   6.586   8.252   3.732 -0.5543  0.0044  0.2981
   57SOL     OW  225   7.764   8.910   8.396 -0.0131  0.2656  0.0474
   57SOL    HW1  226   7.853   8.929   8.425  0.2616  0.8264 -1.0793
   57SOL    HW2  227   7.752   8.817   8.413  0.7997  0.1775  0.1841
   57SOL     MW  228   7.775   8.900   8.402  0.1332  0.3292 -0.0858
   58SOL     OW  229   6.096   9.750   8.085 -0.4792  0.1399 -0.3196
   58SOL    HW1  230   6.180   9.716   8.054  0.0598  0.1707  1.0260
   58SOL    HW2  231   6.092   9.723   8.177 -2.4813 -0.8507 -0.6521
   58SOL     MW  232   6.107   9.742   8.094 -0.6761  0.0107 -0.1833
   59SOL     OW  233   4.458   9.080   8.599 -0.6070 -0.2660  0.2071
   59SOL    HW1  234   4.467   9.160   8.651 -0.0635 -1.5049  2.1136
   59SOL    HW2  235   4.374   9.091   8.554 -0.9197  1.0383  1.0475
   59SOL     MW  236   4.448   9.092   8.600 -0.5759 -0.2572  0.5767
   60SOL     OW  237   4.058   8.986   3.651  0.1348  0.5761 -0.0704
   60SOL    HW1  238   4.128   8.922   3.663 -1.2031 -0.5264  3.3201
   60SOL    HW2  239   4.082   9.058   3.709 -0.9264  0.7029  0.2293
   60SOL     MW  240   4.071   8.987   3.661 -0.1881  0.4448  0.4262
   61SOL     OW  241   5.830   0.440   6.466 -0.1178 -0.6378  0.2559
   61SOL    HW1  242   5.792   0.470   6.384  1.6657 -0.8317 -0.6801
   61SOL    HW2  243   5.795   0.499   6.532 -1.4764 -0.3932 -0.6463
   61SOL     MW  244   5.820   0.452   6.464 -0.0606 -0.6310  0.0085
   62SOL     OW  245   5.059   9.729   9.461 -0.2237 -0.1635 -0.2399
   62SOL    HW1  246   5.149   9.725   9.493 -0.5036  0.3904  0.6749
   62SOL    HW2  247   5.067   9.757   9.369  0.5432 -0.3547 -0.2360
   62SOL     MW  248   5.072   9.732   9.453 -0.1582 -0.1147 -0.1163
   63SOL     OW  249   4.773   9.869   3.476 -0.1101  0.0506 -0.2197
   63SOL    HW1  250   4.704   9.808   3.450 -0.0129 -0.3022  0.3476
   63SOL    HW2  251   4.854   9.829   3.446  0.0131 -0.4095  0.6961
   63SOL     MW  252   4.775   9.856   3.469 -0.0804 -0.0588 -0.0201
   64SOL     OW  253   5.710   1.491   1.696  0.3228 -0.2441 -0.3805
   64SOL    HW1  254   5.667   1.464   1.777 -0.3055 -0.1136 -0.6617
   64SOL    HW2  255   5.797   1.519   1.723 -0.3507  1.1529  0.4747
   64SOL     MW  256   5.716   1.491   1.710  0.1476 -0.0385 -0.3032
   65SOL     OW  257   7.353   9.058   0.809 -0.6779  0.0925  0.4043
   65SOL    HW1  258   7.339   9.137   0.757 -0.1781  0.3019  0.5739
   65SOL    HW2  259   7.385   8.993   0.747  2.3499  1.0476  0.7717
   65SOL     MW  260   7.356   9.060   0.794 -0.2032  0.2492  0.4765
   66SOL     OW  261   5.727   0.346   8.949 -0.2818  0.0368 -0.5461
   66SOL    HW1  262   5.732   0.420   8.888  0.0516 -1.0415 -1.8654
   66SOL    HW2  263   5.724   0.387   9.036  0.5625  1.5798 -1.2020
   66SOL     MW  264   5.727   0.361   8.953 -0.1233  0.0993 -0.8119
   67SOL     OW  265   7.091   8.253   3.942  0.4114 -0.1423  0.0779
   67SOL    HW1  266   7.099   8.247   4.037  2.0662 -2.4211 -0.1042
   67SOL    HW2  267   7.000   8.278   3.926 -0.8061 -2.6752  2.2427
   67SOL     MW  268   7.080   8.256   3.952  0.4703 -0.7899  0.3447
   68SOL     OW  269   6.232   1.701   4.884  0.1880  0.5914  0.6728
   68SOL    HW1  270   6.240   1.696   4.789  0.7209  1.1749  0.6802
   68SOL    HW2  271   6.180   1.780   4.900  0.4215  0.7045  0.8806
   68SOL     MW  272   6.226   1.711   4.874  0.2911  0.6851  0.7018
   69SOL     OW  273   5.175   9.482   8.271  0.1622  0.3045  0.2423
   69SOL    HW1  274   5.188   9.418   8.202 -1.7514 -0.6872  0.7203
   69SOL    HW2  275   5.086   9.516   8.256 -0.1175  0.4114  1.9073
   69SOL     MW  276   5.165   9.478   8.260 -0.1330  0.1854  0.5307
   70SOL     OW  277   6.510   8.797   5.239 -0.1548 -0.4204 -0.2976
   70SOL    HW1  278   6.576   8.795   5.309 -0.2247 -0.1066 -0.2239
   70SOL    HW2  279   6.454   8.722   5.259 -0.0947 -0.4139 -0.0931
   70SOL     MW  280   6.511   8.786   5.251 -0.1561 -0.3773 -0.2602
   71SOL     OW  281   8.153   9.652   4.398  0.7765 -0.0334  0.1751
   71SOL    HW1  282   8.147   9.580   4.335 -0.4173  0.3171 -0.1289
   71SOL    HW2  283   8.142   9.731   4.345  0.0612  0.2820  0.7850
   71SOL     MW  284   8.151   9.653   4.382  0.5196  0.0562  0.2162
   72SOL     OW  285   4.595   9.804   0.327  0.4915  0.3263  0.4775
   72SOL    HW1  286   4.599   9.826   0.234  0.2013 -2.1703 -0.1917
   72SOL    HW2  287   4.510   9.838   0.356 -1.0348 -1.8999 -1.0938
   72SOL     MW  288   4.584   9.812   0.319  0.2470 -0.3093  0.1760
   73SOL     OW  289   5.605   1.572   2.002 -0.2598  0.4741 -0.3236
   73SOL    HW1  290   5.668   1.641   1.980  0.1604  0.0162 -0.5840
   73SOL    HW2  291   5.526   1.595   1.955 -0.0345  0.6286 -0.6293
   73SOL     MW  292   5.603   1.584   1.993 -0.1729  0.4333 -0.3998
   74SOL     OW  293   6.312   9.107   1.176  0.1040  0.1696  0.5299
   74SOL    HW1  294   6.349   9.088   1.262 -0.5740 -0.8187  0.6225
   74SOL    HW2  295   6.382   9.084   1.115 -0.0182 -0.8595  0.7467
   74SOL     MW  296   6.327   9.101   1.179 -0.0037 -0.1019  0.5715
   75SOL     OW  297   6.375   8.274   9.161 -0.3540 -0.2605  0.7422
   75SOL    HW1  298   6.433   8.349   9.145  0.7917 -1.2597 -0.0144
   75SOL    HW2  299   6.294   8.312   9.194  0.5214  1.2387  1.2439
   75SOL     MW  300   6.372   8.289   9.163 -0.0820 -0.1932  0.7079
   76SOL     OW  301   7.250   1.001   7.450 -0.3208 -0.2409  0.3289
   76SOL    HW1  302   7.200   0.964   7.376  1.3514 -1.1604 -0.3940
   76SOL    HW2  303   7.261   0.928   7.510  0.9062 -0.3016  0.0508
   76SOL     MW  304   7.244   0.986   7.448  0.0693 -0.3728  0.1942
   77SOL     OW  305   5.329   1.444   0.934 -0.5525  0.1928 -0.0891
   77SOL    HW1  306   5.237   1.466   0.917 -0.4106  1.3207  0.5650
   77SOL    HW2  307   5.335   1.437   1.029 -0.1833 -0.9589 -0.1807
   77SOL     MW  308   5.318   1.446   0.944 -0.4837  0.1896 -0.0134
   78SOL     OW  309   5.477   0.010   4.573 -0.1507 -0.0771 -0.1377
   78SOL    HW1  310   5.411  -0.003   4.641  0.1685  1.5390  0.5318
   78SOL    HW2  311   5.442   0.082   4.519  0.7439  0.3635 -0.1544
   78SOL     MW  312   5.464   0.018   4.575  0.0127  0.1997 -0.0498
   79SOL     OW  313   3.886   8.806   8.297 -0.3234  0.5705 -0.1077
   79SOL    HW1  314   3.967   8.787   8.250 -0.4506  0.9711 -0.5003
   79SOL    HW2  315   3.903   8.889   8.342 -0.1967  0.1821  0.5831
   79SOL     MW  316   3.899   8.815   8.297 -0.3235  0.5722 -0.0676
   80SOL     OW  317   6.297   0.678   4.361  0.4505  0.1096  0.7087
   80SOL    HW1  318   6.229   0.683   4.293  1.1576  0.7567  0.0335
   80SOL    HW2  319   6.367   0.626   4.321 -0.5917 -2.6601  2.2589
   80SOL     MW  320   6.297   0.672   4.346  0.4054 -0.1760  0.8264
   81SOL     OW  321   7.898   0.555   3.994  0.0579  0.3125 -0.0750
   81SOL    HW1  322   7.855   0.636   4.021  1.4245  0.9791  0.1883
   81SOL    HW2  323   7.982   0.583   3.959  0.1885 -0.9322 -0.8188
   81SOL     MW  324   7.904   0.570   3.993  0.2594  0.2347 -0.1397
   82SOL     OW  325   5.670   8.512   5.084 -0.0032  0.3362  0.3960
   82SOL    HW1  326   5.677   8.479   5.173  0.9931 -0.2550  0.1059
   82SOL    HW2  327   5.760   8.512   5.051 -0.3221  0.8477 -0.5081
   82SOL     MW  328   5.683   8.508   5.091  0.0879  0.3255  0.2353
   83SOL     OW  329   4.821   0.829   4.770  0.5160  0.5290 -0.4643
   83SOL    HW1  330   4.779   0.778   4.839  1.6462  2.2751  1.6361
   83SOL    HW2  331   4.754   0.839   4.703 -0.6554 -1.1566  0.3844
   83SOL     MW  332   4.806   0.823   4.770  0.5105  0.5371 -0.0674
   84SOL     OW  333   5.466   1.615   8.983 -0.3213 -0.0688  0.5543
   84SOL    HW1  334   5.496   1.646   8.898 -1.0356 -0.2385  0.2336
   84SOL    HW2  335   5.372   1.602   8.972 -0.3583 -0.4455  1.2636
   84SOL     MW  336   5.458   1.618   8.970 -0.4224 -0.1423  0.6066
   85SOL     OW  337   5.427   0.571   8.586  0.1140 -0.3452  0.5597
   85SOL    HW1  338   5.401   0.484   8.613  1.5074 -0.9684 -0.0075
   85SOL    HW2  339   5.398   0.577   8.494  0.7845 -0.5548  0.3283
   85SOL     MW  340   5.419   0.560   8.577  0.3918 -0.4573  0.4522
   86SOL     OW  341   4.388  10.172   0.160  0.0615  0.0128 -0.3638
   86SOL    HW1  342   4.349  10.088   0.137  0.1393  0.6162 -3.1137
   86SOL    HW2  343   4.482  10.160   0.145  0.3114  0.1203  0.9723
   86SOL     MW  344   4.396  10.159   0.155  0.1056  0.1085 -0.5541
   87SOL     OW  345   5.603   7.900   6.408  0.5939  0.6009 -0.6635
   87SOL    HW1  346   5.688   7.941   6.391  0.5535  0.3049 -1.6770
   87SOL    HW2  347   5.606   7.819   6.357  0.9117 -1.0072  1.7716
   87SOL     MW  348   5.615   7.895   6.398  0.6313  0.3447 -0.4722
   88SOL     OW  349   5.082   0.599   7.065 -0.1568 -0.8146 -0.7127
   88SOL    HW1  350   5.035   0.570   6.987  0.8739 -1.5622 -1.0794
   88SOL    HW2  351   5.169   0.561   7.056  1.1301  1.9513 -0.9364
   88SOL     MW  352   5.087   0.590   7.054  0.1551 -0.5430 -0.7922
   89SOL     OW  353   6.742   9.058   6.359  0.1692 -0.0294  0.4870
   89SOL    HW1  354   6.660   9.102   6.380 -0.7092 -1.3468 -0.0705
   89SOL    HW2  355   6.758   9.000   6.434  0.5042  0.0978  0.5149
   89SOL     MW  356   6.733   9.056   6.372  0.0961 -0.1896  0.4157
   90SOL     OW  357   5.420   0.773   1.747  0.1817 -0.2643  0.4903
   90SOL    HW1  358   5.466   0.846   1.707 -0.9047 -0.2293 -0.7683
   90SOL    HW2  359   5.379   0.810   1.825  1.4355 -0.0786  1.0810
   90SOL     MW  360   5.420   0.787   1.752  0.2042 -0.2346  0.4004
   91SOL     OW  361   7.620   9.878   9.886  0.0478 -0.2478  0.3113
   91SOL    HW1  362   7.599   9.826   9.963  1.4820  1.0088  1.6083
   91SOL    HW2  363   7.551   9.943   9.880 -0.5130 -0.8527  0.0110
   91SOL     MW  364   7.608   9.880   9.895  0.1653 -0.1601  0.4454
   92SOL     OW  365   7.129   1.181   2.310  0.3877  0.1430 -0.4392
   92SOL    HW1  366   7.066   1.215   2.374 -0.0069 -0.5450 -0.4450
   92SOL    HW2  367   7.105   1.222   2.227 -0.7000 -0.8628 -0.6441
   92SOL     MW  368   7.117   1.191   2.308  0.1882 -0.0849 -0.4676
   93SOL     OW  369   7.435   9.839   0.561 -0.0787  0.3411 -0.1108
   93SOL    HW1  370   7.365   9.862   0.622 -0.2788  0.3671 -0.3506
   93SOL    HW2  371   7.407   9.875   0.477  0.1829  0.2790 -0.2260
   93SOL     MW  372   7.422   9.847   0.558 -0.0704  0.3363 -0.1586
   94SOL     OW  373   7.844   0.154   3.809 -0.3388  0.1151 -0.0686
   94SOL    HW1  374   7.910   0.182   3.746  0.3631  1.0624  1.0487
   94SOL    HW2  375   7.776   0.113   3.756  0.9606 -0.5497 -1.2793
   94SOL     MW  376   7.844   0.152   3.794 -0.0695  0.1531 -0.0812
   95SOL     OW  377   6.540   0.395   5.225 -0.1918 -0.0502  0.2013
   95SOL    HW1  378   6.457   0.421   5.187 -0.1389  0.1459  0.2164
   95SOL    HW2  379   6.529   0.409   5.319 -0.3186 -0.5223  0.2611
   95SOL     MW  380   6.528   0.400   5.233 -0.2017 -0.0873  0.2114
   96SOL     OW  381   4.608   9.323   0.212 -0.7309  0.5610  0.1499
   96SOL    HW1  382   4.683   9.312   0.154  1.1298 -0.2840  2.5335
   96SOL    HW2  383   4.623   9.408   0.255 -0.2265 -0.2948  1.7557
   96SOL     MW  384   4.620   9.333   0.210 -0.4126  0.3321  0.6868
   97SOL     OW  385   4.089  10.136   8.283 -0.3498 -0.0761  0.3135
   97SOL    HW1  386   4.113  10.228   8.297 -0.1427 -0.3323  1.8170
   97SOL    HW2  387   4.083  10.099   8.372  0.2285 -1.6925 -0.2932
   97SOL     MW  388   4.091  10.144   8.297 -0.2441 -0.3281  0.4342
   98SOL     OW  389   6.965   0.946   4.473  0.2037  0.3011 -0.4293
   98SOL    HW1  390   6.881   0.991   4.469  0.2183  0.3764 -0.0160
   98SOL    HW2  391   6.944   0.858   4.504  0.0178 -0.4381 -2.5011
   98SOL     MW  392   6.951   0.940   4.477  0.1806  0.2118 -0.6525
   99SOL     OW  393   6.631   0.183   3.957  0.0037 -0.1965 -0.0761
   99SOL    HW1  394   6.690   0.258   3.962 -0.3550  0.1149 -0.4765
   99SOL    HW2  395   6.550   0.212   3.996 -0.0189 -0.4951  0.1035
   99SOL     MW  396   6.628   0.197   3.963 -0.0476 -0.1948 -0.1058
  100SOL     OW  397   5.401   7.928   4.447 -0.5185 -0.1992  0.1346
  100SOL    HW1  398   5.332   7.933   4.514 -2.1053 -0.0903 -1.4433
  100SOL    HW2  399   5.384   8.003   4.390  0.2661 -0.7924 -0.9049
  100SOL     MW  400   5.390   7.939   4.449 -0.6265 -0.2644 -0.2176
  101SOL     OW  401   4.061   9.429   2.280  0.3230  0.1062 -0.3287
  101SOL    HW1  402   4.082   9.403   2.369 -1.1279  0.5227  0.1664
  101SOL    HW2  403   4.140   9.471   2.247  0.4819  1.0889  1.2049
  101SOL     MW  404   4.074   9.431   2.287  0.1491  0.2945 -0.0557
  102SOL     OW  405   7.209   8.449   9.818  0.0671 -0.2317  0.7903
  102SOL    HW1  406   7.296   8.459   9.856  0.2809 -0.4945  0.3824
  102SOL    HW2  407   7.151   8.439   9.893  0.1094  1.9242  1.1613
  102SOL     MW  408   7.213   8.449   9.833  0.1016  0.0231  0.7853
  103SOL     OW  409   6.522   1.081   8.201 -0.2769  0.4167  0.0410
  103SOL    HW1  410   6.535   0.992   8.168 -1.4772  1.0571 -2.4426
  103SOL    HW2  411   6.427   1.089   8.210 -0.2729  1.7437 -0.8132
  103SOL     MW  412   6.511   1.070   8.198 -0.4379  0.6815 -0.4082
  104SOL     OW  413   6.863   9.159   8.808 -0.0954  0.1174 -0.0130
  104SOL    HW1  414   6.861   9.063   8.800  1.1380  0.1922 -1.5516
  104SOL    HW2  415   6.770   9.183   8.816 -0.4473 -1.1771  0.1588
  104SOL     MW  416   6.850   9.149   8.808  0.0232 -0.0467 -0.1969
  105SOL     OW  417   4.964   8.814   7.418  0.1052 -0.5519 -0.4872
  105SOL    HW1  418   4.945   8.836   7.509 -0.2124 -1.6322 -0.2788
  105SOL    HW2  419   4.879   8.816   7.375  0.4174  1.3681 -1.1103
  105SOL     MW  420   4.950   8.817   7.425  0.1044 -0.4389 -0.5430
  106SOL     OW  421   7.782   0.203   7.677 -0.1175 -0.0497 -0.3294
  106SOL    HW1  422   7.796   0.188   7.583 -1.4004 -0.2065 -0.5174
  106SOL    HW2  423   7.786   0.298   7.686 -2.3759  0.1768 -1.0102
  106SOL     MW  424   7.784   0.214   7.665 -0.5941 -0.0404 -0.4464
  107SOL     OW  425   5.541   0.267   5.921  0.5699  0.1012  0.3821
  107SOL    HW1  426   5.595   0.326   5.868 -0.1537  0.2139 -0.2557
  107SOL    HW2  427   5.586   0.182   5.915  0.3648  0.0455 -0.6570
  107SOL     MW  428   5.554   0.263   5.913  0.4449  0.1089  0.1564
  108SOL     OW  429   4.179   0.159   6.042  0.4736  0.2359 -0.1129
  108SOL    HW1  430   4.231   0.080   6.056 -1.2903 -1.0728 -0.5735
  108SOL    HW2  431   4.149   0.184   6.130 -0.0732 -0.4071 -0.1163
  108SOL     MW  432   4.182   0.152   6.056  0.1626 -0.0267 -0.1754
  109SOL     OW  433   3.986   0.886   4.652  0.0074  0.1537  0.0572
  109SOL    HW1  434   3.971   0.840   4.734 -0.6558 -1.1769 -0.7747
  109SOL    HW2  435   3.971   0.820   4.584  2.6579  0.6188 -1.1052
  109SOL     MW  436   3.982   0.871   4.654  0.2749  0.0372 -0.2112
  110SOL     OW  437   3.689   9.787   8.462 -0.0895 -0.0770  0.1130
  110SOL    HW1  438   3.719   9.877   8.448  0.1961 -0.0851  0.6412
  110SOL    HW2  439   3.680   9.780   8.557  0.3897 -0.7629  0.1158
  110SOL     MW  440   3.692   9.798   8.473  0.0134 -0.1704  0.1845
  111SOL     OW  441   5.816   8.930   2.808 -0.0477  0.1309 -0.0781
  111SOL    HW1  442   5.847   9.016   2.837  0.4541  0.7097 -2.1581
  111SOL    HW2  443   5.844   8.924   2.717 -2.4253 -1.1057 -0.8167
  111SOL     MW  444   5.824   8.941   2.800 -0.3001  0.0424 -0.4574
  112SOL     OW  445   4.943   0.290   5.459  0.0841  0.2443 -0.7386
  112SOL    HW1  446   4.913   0.345   5.386  0.3355  1.3707 -0.0097
  112SOL    HW2  447   4.991   0.349   5.516  0.6270 -0.8072 -0.0766
  112SOL     MW  448   4.945   0.305   5.457  0.1910  0.2544 -0.5514
  113SOL     OW  449   5.534   8.122   5.693  0.7133 -0.1714 -0.6410
  113SOL    HW1  450   5.513   8.206   5.733  1.1171  0.6450 -2.0604
  113SOL    HW2  451   5.455   8.069   5.705 -0.6176  1.3553 -2.0744
  113SOL     MW  452   5.520   8.126   5.700  0.5885  0.1439 -1.0249
  114SOL     OW  453   6.013   9.576   7.378 -0.1214 -0.3654 -0.2364
  114SOL    HW1  454   6.098   9.617   7.390  0.4999 -1.2394 -1.4128
  114SOL    HW2  455   5.952   9.649   7.368  0.8717  0.3169 -1.7746
  114SOL     MW  456   6.016   9.591   7.378  0.0959 -0.3912 -0.6018
  115SOL     OW  457   4.799   0.606   7.572 -0.4160  0.2040 -0.0296
  115SOL    HW1  458   4.815   0.687   7.620 -1.8872  0.8565 -0.5711
  115SOL    HW2  459   4.804   0.537   7.638  1.2076  0.6829  0.3745
  115SOL     MW  460   4.802   0.608   7.587 -0.3955  0.3563 -0.0481
  116SOL     OW  461   4.517   8.212   9.465  0.6280  0.8574  0.0458
  116SOL    HW1  462   4.602   8.254   9.457  0.7972  0.4321 -0.4680
  116SOL    HW2  463   4.521   8.165   9.548  1.6663 -0.8382 -0.9154
  116SOL     MW  464   4.529   8.211   9.475  0.7905  0.5720 -0.1527
  117SOL     OW  465   7.667   9.824   1.877 -0.1440 -0.4954 -0.0880
  117SOL    HW1  466   7.602   9.817   1.947  0.8525 -1.1657  0.7961
  117SOL    HW2  467   7.679   9.919   1.866 -1.1029 -0.3628 -0.1202
  117SOL     MW  468   7.660   9.836   1.885 -0.1390 -0.5678  0.0267
  118SOL     OW  469   4.382   1.349   0.064 -0.0155 -0.6255 -0.1362
  118SOL    HW1  470   4.457   1.292   0.081  0.0100 -0.7277 -0.5740
  118SOL    HW2  471   4.373   1.400   0.144 -1.0296 -2.3459  0.9174
  118SOL     MW  472   4.391   1.348   0.077 -0.1486 -0.8708 -0.0533
  119SOL     OW  473   4.995   1.401   4.408  0.2067 -0.1611 -0.3285
  119SOL    HW1  474   5.046   1.429   4.484 -0.2186 -0.5627  0.1078
  119SOL    HW2  475   5.042   1.325   4.374  1.1450  0.8121 -1.2811
  119SOL     MW  476   5.008   1.395   4.413  0.2758 -0.0842 -0.3980
  120SOL     OW  477   6.953   1.659   1.104  0.1852 -0.1412  0.5371
  120SOL    HW1  478   6.986   1.593   1.044 -0.8255 -2.6404  2.5559
  120SOL    HW2  479   6.947   1.614   1.188 -3.4426  1.5996  1.3790
  120SOL     MW  480   6.957   1.644   1.107 -0.4391 -0.2433  0.9221
  121SOL     OW  481   6.811   9.001   6.101 -0.5741 -0.4457  0.2938
  121SOL    HW1  482   6.780   9.004   6.192  0.3636  0.0066  0.6114
  121SOL    HW2  483   6.807   9.092   6.072  2.4911  0.0660  1.0864
  121SOL     MW  484   6.806   9.014   6.110 -0.0354 -0.3160  0.4432
  122SOL     OW  485   6.478   1.223   5.133  0.0625 -0.1048 -0.0629
  122SOL    HW1  486   6.572   1.237   5.133 -0.2122  2.2316  1.1722
  122SOL    HW2  487   6.465   1.140   5.179  1.5180 -0.7388 -0.7510
  122SOL     MW  488   6.489   1.214   5.139  0.2214  0.1243  0.0107
  123SOL     OW  489   6.927   8.554   3.996  0.2422 -0.3284  0.1661
  123SOL    HW1  490   7.018   8.575   3.976 -0.3677  2.6906 -0.0247
  123SOL    HW2  491   6.931   8.509   4.081  1.9148 -0.4103  0.0858
  123SOL     MW  492   6.940   8.551   4.005  0.3852  0.0669  0.1296
  124SOL     OW  493   4.831   8.235   1.681 -0.3196 -0.1419 -0.1553
  124SOL    HW1  494   4.829   8.146   1.715  0.9595 -1.1093 -2.4462
  124SOL    HW2  495   4.920   8.265   1.699  0.2121 -0.4815 -2.0831
  124SOL     MW  496   4.843   8.227   1.688 -0.0759 -0.3178 -0.7231
  125SOL     OW  497   4.902   0.852   2.937  0.0630 -0.0960 -0.2933
  125SOL    HW1  498   4.913   0.789   3.008 -0.5778  0.5053  0.3425
  125SOL    HW2  499   4.832   0.816   2.883 -0.9177  0.4920  0.5568
  125SOL     MW  500   4.894   0.839   2.939 -0.1552  0.0640 -0.0933
  126SOL     OW  501   5.874  10.001   6.674  0.3581 -0.5433 -0.3887
  126SOL    HW1  502   5.833   9.946   6.607  0.0062 -0.7899  0.0239
  126SOL    HW2  503   5.948  10.042   6.630 -0.9227  0.7151 -1.4672
  126SOL     MW  504   5.878   9.999   6.659  0.1383 -0.4071 -0.4783
  127SOL     OW  505   4.860  10.101   1.510 -0.1756 -0.1300  0.4129
  127SOL    HW1  506   4.852  10.156   1.588  0.1725  0.5517 -0.0263
  127SOL    HW2  507   4.863  10.012   1.544  0.2340  0.1752  1.1991
  127SOL     MW  508   4.859  10.096   1.525 -0.0736  0.0028  0.4596
  128SOL     OW  509   3.416   9.602   4.426 -0.2787 -0.6878  0.4576
  128SOL    HW1  510   3.467   9.649   4.360 -0.3026 -1.4662 -0.1315
  128SOL    HW2  511   3.382   9.526   4.380 -1.3804 -0.5643  1.0347
  128SOL     MW  512   3.418   9.598   4.411 -0.4302 -0.7760  0.4560
  129SOL     OW  513   6.195   8.528   3.747 -0.4427 -0.2443 -0.1364
  129SOL    HW1  514   6.180   8.572   3.831  1.6701 -0.7676  0.5541
  129SOL    HW2  515   6.186   8.435   3.767  0.6661 -0.4055 -0.3279
  129SOL     MW  516   6.191   8.521   3.761 -0.0092 -0.3364 -0.0693
  130SOL     OW  517   6.328   1.065   2.144 -0.4996 -0.5038 -0.7681
  130SOL    HW1  518   6.406   1.045   2.092  0.8188 -1.5196  1.4870
  130SOL    HW2  519   6.286   0.980   2.157 -1.0415 -0.1986 -0.5210
  130SOL     MW  520   6.333   1.051   2.138 -0.3951 -0.5994 -0.4314
  131SOL     OW  521   7.495   9.209   4.343  0.4344 -0.8909 -0.2498
  131SOL    HW1  522   7.471   9.298   4.320  0.6164 -0.5507  0.8060
  131SOL    HW2  523   7.464   9.156   4.270 -1.1745 -0.1600 -0.1448
  131SOL     MW  524   7.488   9.214   4.330  0.2423 -0.7468 -0.0936
  132SOL     OW  525   6.643   0.216   8.290 -0.4142 -0.0153 -0.0379
  132SOL    HW1  526   6.556   0.254   8.279 -0.3611  0.5894  1.4390
  132SOL    HW2  527   6.649   0.197   8.384  1.7935  1.8648  0.2812
  132SOL     MW  528   6.632   0.218   8.301 -0.1100  0.3191  0.2038
  133SOL     OW  529   5.202   8.180   5.413  0.1409 -0.1540  0.1498
  133SOL    HW1  530   5.163   8.110   5.360  1.0591 -0.9709  0.5324
  133SOL    HW2  531   5.286   8.198   5.372 -0.8727  2.1227 -1.1079
  133SOL     MW  532   5.208   8.173   5.400  0.1280  0.0425  0.0321
  134SOL     OW  533   7.175   1.191   9.217  0.0845 -0.2488 -0.3381
  134SOL    HW1  534   7.143   1.150   9.136  0.1033 -1.2342  0.1345
  134SOL    HW2  535   7.166   1.123   9.283  0.7449  0.3073  0.3451
  134SOL     MW  536   7.170   1.176   9.215  0.1759 -0.3066 -0.1826
  135SOL     OW  537   7.397   9.369   1.822 -0.1473 -0.0269 -0.5634
  135SOL    HW1  538   7.428   9.278   1.815 -1.2803 -0.4301 -0.6033
  135SOL    HW2  539   7.457   9.419   1.768  0.3046 -0.8058 -0.8053
  135SOL     MW  540   7.409   9.363   1.814 -0.2390 -0.1860 -0.6013
  136SOL     OW  541   4.303   8.290   2.894  0.0882 -0.2197 -0.3710
  136SOL    HW1  542   4.213   8.319   2.881  0.0278 -0.9525 -1.7988
  136SOL    HW2  543   4.356   8.359   2.855 -0.0668 -1.9891 -4.1122
  136SOL     MW  544   4.298   8.303   2.887  0.0592 -0.5565 -1.0667
  137SOL     OW  545   4.284   9.867   5.971  0.3513  0.3185 -0.0383
  137SOL    HW1  546   4.296   9.939   6.033 -0.1182 -1.1450  1.8366
  137SOL    HW2  547   4.373   9.835   5.954  0.3523 -0.8673  1.9243
  137SOL     MW  548   4.298   9.872   5.977  0.2883 -0.0381  0.4781
  138SOL     OW  549   4.819   0.145   6.897  0.3288 -0.2996  0.1927
  138SOL    HW1  550   4.893   0.103   6.854  0.4418 -0.7464  0.8013
  138SOL    HW2  551   4.745   0.086   6.880  0.1695  0.0153 -0.2001
  138SOL     MW  552   4.819   0.131   6.889  0.3225 -0.3173  0.2218
  139SOL     OW  553   3.880   9.376   0.487 -0.0704  0.7204  0.0819
  139SOL    HW1  554   3.880   9.369   0.582  1.3464  1.1456  0.1244
  139SOL    HW2  555   3.874   9.471   0.470  2.5349  0.9083 -0.1734
  139SOL     MW  556   3.879   9.388   0.498  0.4709  0.8029  0.0533
  140SOL     OW  557   6.231   7.678   5.896  0.3998  0.7269  0.3111
  140SOL    HW1  558   6.204   7.590   5.869 -0.3989  1.2501 -0.6391
  140SOL    HW2  559   6.192   7.736   5.832  1.3203  1.7567  0.6505
  140SOL     MW  560   6.222   7.674   5.884  0.4162  0.9359  0.2289
  141SOL     OW  561   7.408   8.751   2.960 -0.2254 -0.1596 -0.1542
  141SOL    HW1  562   7.494   8.712   2.941 -0.4337  0.3015 -2.3407
  141SOL    HW2  563   7.428   8.840   2.986 -0.0355  0.1451 -1.2849
  141SOL     MW  564   7.423   8.757   2.961 -0.2279 -0.0565 -0.6007
  142SOL     OW  565   4.734   1.336   0.835  0.4124  0.2294  0.0792
  142SOL    HW1  566   4.656   1.282   0.850 -0.2212  1.0393 -0.2536
  142SOL    HW2  567   4.765   1.357   0.923  0.7720 -0.7997  0.2208
  142SOL     MW  568   4.728   1.331   0.849  0.3755  0.1999  0.0535
  143SOL     OW  569   5.154   1.036   7.426 -0.5455 -0.1584 -0.1771
  143SOL    HW1  570   5.096   0.963   7.406 -0.9053 -0.3309  1.4049
  143SOL    HW2  571   5.095   1.107   7.451 -0.1201 -0.6061  2.3383
  143SOL     MW  572   5.138   1.036   7.426 -0.5366 -0.2419  0.3743
  144SOL     OW  573   4.044   0.185   6.269  0.4639  0.2126  0.1034
  144SOL    HW1  574   3.976   0.118   6.262 -1.3054  2.0085 -0.6875
  144SOL    HW2  575   4.012   0.246   6.334  1.9668  0.4446  0.6818
  144SOL     MW  576   4.031   0.184   6.277  0.4280  0.4855  0.0748
  145SOL     OW  577   3.563   9.742   4.229 -0.6214 -0.3181  0.4043
  145SOL    HW1  578   3.568   9.697   4.144 -1.1205 -2.1120  1.2615
  145SOL    HW2  579   3.653   9.744   4.260 -0.5751 -0.6857  0.3065
  145SOL     MW  580   3.576   9.736   4.222 -0.6823 -0.6090  0.5065
  146SOL     OW  581   5.826   0.256   4.420  0.0950  0.1419  0.4065
  146SOL    HW1  582   5.764   0.282   4.352  1.2428  1.8019 -0.0626
  146SOL    HW2  583   5.875   0.183   4.381 -1.0732 -0.7364  0.5344
  146SOL     MW  584   5.825   0.249   4.406  0.0922  0.2471  0.3605
  147SOL     OW  585   3.557  10.027   4.234 -0.0589 -0.5443 -0.2780
  147SOL    HW1  586   3.574   9.933   4.236 -1.7461 -0.9601 -2.1134
  147SOL    HW2  587   3.572  10.052   4.143  0.8573  1.0979  0.2855
  147SOL     MW  588   3.561  10.017   4.222 -0.1627 -0.3792 -0.4492
  148SOL     OW  589   5.190   0.632   1.142 -0.4578  0.5886  0.5618
  148SOL    HW1  590   5.096   0.652   1.151 -0.4329  1.6167 -0.9265
  148SOL    HW2  591   5.202   0.617   1.048  0.8320  0.2007  0.7701
  148SOL     MW  592   5.179   0.633   1.130 -0.2809  0.6748  0.3895
  149SOL     OW  593   5.237   9.055   1.906  0.3013 -0.2706 -0.5917
  149SOL    HW1  594   5.290   9.119   1.858  1.8403 -1.5883 -0.7327
  149SOL    HW2  595   5.242   8.975   1.854 -2.7233 -0.2190 -1.1356
  149SOL     MW  596   5.245   9.053   1.893  0.1014 -0.4410 -0.6839
  150SOL     OW  597   3.967   9.577   6.778 -0.0819  0.0093 -0.3741
  150SOL    HW1  598   3.998   9.630   6.704  0.6005 -0.0352 -0.1279
  150SOL    HW2  599   4.024   9.500   6.776 -0.8325 -0.5443 -0.5113
  150SOL     MW  600   3.979   9.574   6.768 -0.0911 -0.0712 -0.3595
  151SOL     OW  601   4.993   8.359   4.799  0.3317  0.1477  0.4158
  151SOL    HW1  602   5.072   8.307   4.783 -0.0711 -0.3682  0.0715
  151SOL    HW2  603   5.021   8.426   4.860  1.6090  1.3722 -1.4053
  151SOL     MW  604   5.007   8.361   4.805  0.4494  0.2431  0.1244
  152SOL     OW  605   5.913   8.631   4.253 -0.0655 -0.3512  0.4071
  152SOL    HW1  606   5.890   8.567   4.321  1.8005 -1.4650  0.0566
  152SOL    HW2  607   5.973   8.692   4.297 -0.5832  0.2289  0.3191
  152SOL     MW  608   5.918   8.631   4.268  0.1160 -0.4230  0.3481
  153SOL     OW  609   7.051   8.476   9.428  0.3895 -0.1019  0.2603
  153SOL    HW1  610   7.013   8.540   9.367  0.0846 -0.4656  0.0601
  153SOL    HW2  611   6.982   8.410   9.438  1.1386 -1.0237 -0.4883
  153SOL     MW  612   7.036   8.476   9.421  0.4493 -0.2749  0.1326
  154SOL     OW  613   5.655   9.526   3.231  0.0233 -0.0633 -1.2222
  154SOL    HW1  614   5.747   9.502   3.219  0.1602  0.3041 -0.9323
  154SOL    HW2  615   5.618   9.454   3.282  0.7092  0.8537  0.6521
  154SOL     MW  616   5.663   9.513   3.236  0.1341  0.1095 -0.9309
  155SOL     OW  617   3.892   9.212   6.538 -0.0334  0.1605 -0.2919
  155SOL    HW1  618   3.981   9.180   6.528 -0.2170 -0.7185  0.6780
  155SOL    HW2  619   3.892   9.257   6.623 -0.2615  1.0556 -0.7596
  155SOL     MW  620   3.904   9.214   6.548 -0.0888  0.1627 -0.2243
  156SOL     OW  621   6.046   1.197   6.424  0.4042 -0.0535  0.2912
  156SOL    HW1  622   6.084   1.188   6.512 -0.3719  3.1436  1.1104
  156SOL    HW2  623   6.121   1.212   6.367  0.7774 -0.0385  0.7786
  156SOL     MW  624   6.061   1.198   6.428  0.3499  0.3788  0.4670
  157SOL     OW  625   5.174   8.792   4.527 -0.1968  0.6185 -0.0071
  157SOL    HW1  626   5.157   8.810   4.619  1.4323  1.3080  0.1958
  157SOL    HW2  627   5.220   8.708   4.527 -2.8324 -0.9609 -0.5019
  157SOL     MW  628   5.178   8.783   4.539 -0.3322  0.4987 -0.0464
  158SOL     OW  629   4.982   0.081   0.487 -0.6170 -0.1830 -0.1260
  158SOL    HW1  630   4.980   0.048   0.397 -0.0396 -0.9749  0.1378
  158SOL    HW2  631   4.939   0.013   0.538 -1.7905  0.6860  0.0896
  158SOL     MW  632   4.976   0.068   0.482 -0.6972 -0.1726 -0.0615
  159SOL     OW  633   5.819   0.187   6.580 -0.1052 -0.4415 -0.1354
  159SOL    HW1  634   5.906   0.149   6.576 -0.5698 -1.4185 -2.4512
  159SOL    HW2  635   5.830   0.275   6.544 -0.0464 -0.5418 -0.3679
  159SOL     MW  636   5.832   0.194   6.574 -0.1598 -0.5865 -0.4783
  160SOL     OW  637   5.854   7.944   0.699  0.2640  0.3358  0.0390
  160SOL    HW1  638   5.806   7.899   0.768 -0.7773  0.4730 -0.5672
  160SOL    HW2  639   5.799   8.018   0.676  1.4435  1.3146  0.2692
  160SOL     MW  640   5.840   7.948   0.705  0.2826  0.4860 -0.0116
  161SOL     OW  641   6.524   9.525   7.671  0.3246  0.1123  0.2160
  161SOL    HW1  642   6.578   9.458   7.628  2.4093  0.7950  1.5967
  161SOL    HW2  643   6.572   9.546   7.751 -1.1308  2.0818  0.6426
  161SOL     MW  644   6.538   9.518   7.676  0.4093  0.4692  0.4592
  162SOL     OW  645   5.821   8.668   7.696 -0.8795 -0.0958 -0.9843
  162SOL    HW1  646   5.739   8.619   7.695 -1.9606  1.5405  0.7276
  162SOL    HW2  647   5.795   8.760   7.704  1.0600  0.3694  1.7092
  162SOL     MW  648   5.807   8.674   7.697 -0.7640  0.1870 -0.3914
  163SOL     OW  649   6.426   8.289   0.507  0.3625 -0.4754  0.1694
  163SOL    HW1  650   6.390   8.313   0.422  0.4401  0.0729  0.2878
  163SOL    HW2  651   6.514   8.328   0.507  1.2497 -2.3073 -0.3742
  163SOL     MW  652   6.433   8.297   0.495  0.4923 -0.6481  0.1122
  164SOL     OW  653   7.966   9.411   9.298 -0.1440  0.5308  0.1249
  164SOL    HW1  654   7.921   9.494   9.313 -0.5416  0.0016  2.0522
  164SOL    HW2  655   7.955   9.361   9.379 -0.4925 -1.6925 -1.1803
  164SOL     MW  656   7.958   9.415   9.311 -0.2444  0.1603  0.2087
  165SOL     OW  657   7.910   0.544   8.349  0.3628 -0.0856 -0.0317
  165SOL    HW1  658   7.893   0.452   8.328  0.2324  0.1364 -0.9417
  165SOL    HW2  659   7.875   0.555   8.438 -2.5069 -0.1581 -1.0416
  165SOL     MW  660   7.903   0.533   8.358 -0.0410 -0.0655 -0.2900
  166SOL     OW  661   6.876   0.857   0.509  0.2037 -0.8118 -0.1577
  166SOL    HW1  662   6.921   0.940   0.492  0.6861 -1.1461 -0.5380
  166SOL    HW2  663   6.812   0.878   0.578 -1.2090  0.3800 -1.7642
  166SOL     MW  664   6.873   0.871   0.516  0.0785 -0.6964 -0.4251
  167SOL     OW  665   4.396   8.438   2.265 -0.4509  0.2682 -0.1704
  167SOL    HW1  666   4.440   8.356   2.240 -1.3872  0.1847 -1.6798
  167SOL    HW2  667   4.466   8.495   2.296  0.2021 -1.1476  1.0830
  167SOL     MW  668   4.411   8.434   2.266 -0.4890  0.0665 -0.2048
  168SOL     OW  669   4.091   9.806   4.944  0.6417  0.4657  0.0604
  168SOL    HW1  670   4.099   9.852   4.861 -0.6845 -0.1106 -0.4162
  168SOL    HW2  671   4.009   9.840   4.982  0.4225 -0.4140  0.3917
  168SOL     MW  672   4.081   9.817   4.938  0.4337  0.2698  0.0409
  169SOL     OW  673   7.024   0.233   3.122  0.2346  0.5340 -0.2773
  169SOL    HW1  674   7.012   0.319   3.163 -1.5645  0.0767  0.2100
  169SOL    HW2  675   6.993   0.246   3.032 -0.6251  0.2407 -0.0250
  169SOL     MW  676   7.019   0.247   3.115 -0.1232  0.4330 -0.1778
  170SOL     OW  677   6.821   9.491   0.161 -0.5846  0.1945  0.2552
  170SOL    HW1  678   6.885   9.458   0.224 -0.8430  1.8515  1.4423
  170SOL    HW2  679   6.856   9.575   0.132 -2.2741  1.2353  1.0833
  170SOL     MW  680   6.835   9.498   0.165 -0.8467  0.5576  0.5264
  171SOL     OW  681   3.849  10.142   8.163 -0.3177 -0.1075  0.3048
  171SOL    HW1  682   3.856  10.144   8.067  0.6186 -1.8175  0.3039
  171SOL    HW2  683   3.939  10.143   8.194 -0.6035 -0.0620  1.1685
  171SOL     MW  684   3.862  10.143   8.154 -0.2302 -0.3315  0.4209
  172SOL     OW  685   5.549   1.949   6.258 -0.0104  0.1608  0.4141
  172SOL    HW1  686   5.642   1.926   6.266  0.1880  0.8510  0.1522
  172SOL    HW2  687   5.539   2.025   6.315  0.5759  2.7918 -2.7097
  172SOL     MW  688   5.560   1.956   6.267  0.0952  0.6078 -0.0415
  173SOL     OW  689   4.783  -0.009   5.969 -0.4459  0.1700 -0.4611
  173SOL    HW1  690   4.824   0.074   5.991 -1.0575  0.4129 -0.2016
  173SOL    HW2  691   4.714   0.014   5.906 -0.1497 -0.2333 -0.9380
  173SOL     MW  692   4.779   0.005   5.963 -0.4884  0.1484 -0.4903
  174SOL     OW  693   4.565   8.547   8.510 -0.6890 -0.6891 -0.2703
  174SOL    HW1  694   4.499   8.560   8.578  0.2317 -2.5640  1.0533
  174SOL    HW2  695   4.631   8.614   8.527 -0.7479 -0.7862  0.3432
  174SOL     MW  696   4.565   8.558   8.521 -0.5730 -0.9545 -0.0096
  175SOL     OW  697   6.696   1.284   2.791  0.5767 -0.2991  0.3528
  175SOL    HW1  698   6.697   1.332   2.875 -0.5030 -0.5624  0.5289
  175SOL    HW2  699   6.783   1.243   2.786  1.0720  0.6714  0.7835
  175SOL     MW  700   6.708   1.285   2.802  0.4980 -0.2039  0.4345
  176SOL     OW  701   6.102   7.683   8.298  0.5055 -0.3953 -0.0075
  176SOL    HW1  702   6.137   7.633   8.371  1.0316  0.9684  0.7163
  176SOL    HW2  703   6.132   7.773   8.314 -0.3324  0.1432 -1.2932
  176SOL     MW  704   6.111   7.689   8.310  0.4636 -0.1393 -0.0831
  177SOL     OW  705   4.678   9.724   5.120  0.8461  0.0733  0.2211
  177SOL    HW1  706   4.646   9.741   5.031  0.1792  0.0821  0.4570
  177SOL    HW2  707   4.602   9.691   5.167  0.5273  2.3576  1.4684
  177SOL     MW  708   4.664   9.722   5.114  0.7134  0.3819  0.4207
  178SOL     OW  709   6.452   0.700   2.194  0.1549  0.1017  0.6099
  178SOL    HW1  710   6.526   0.728   2.140 -0.5991  1.8615  0.4266
  178SOL    HW2  711   6.485   0.706   2.284  0.0321  1.6329  0.5749
  178SOL     MW  712   6.466   0.704   2.199  0.0369  0.5446  0.5805
  179SOL     OW  713   5.303   0.117   9.529 -0.2571  0.1660 -0.1423
  179SOL    HW1  714   5.386   0.165   9.528 -0.3915  0.4853  1.3876
  179SOL    HW2  715   5.328   0.028   9.555 -0.0914 -0.4704 -2.3174
  179SOL     MW  716   5.318   0.111   9.532 -0.2529  0.1233 -0.2291
  180SOL     OW  717   4.392   7.989   7.248 -0.6548  0.4561  0.0090
  180SOL    HW1  718   4.323   8.043   7.210 -0.1581 -0.8320 -2.9683
  180SOL    HW2  719   4.348   7.939   7.316 -1.9577  1.7727  0.1962
  180SOL     MW  720   4.377   7.990   7.252 -0.7633  0.4599 -0.3665
  181SOL     OW  721   4.956   7.942   9.466  0.1075 -0.7796  0.2840
  181SOL    HW1  722   4.970   8.033   9.440 -0.6334 -0.8037 -0.2244
  181SOL    HW2  723   4.883   7.945   9.528 -0.4375 -1.1045 -0.3304
  181SOL     MW  724   4.948   7.954   9.471 -0.0656 -0.8266  0.1329
  182SOL     OW  725   4.936   1.238   9.145 -0.5754  0.5463  0.0493
  182SOL    HW1  726   4.985   1.165   9.183  0.1666  1.3240  0.6523
  182SOL    HW2  727   4.859   1.247   9.201 -1.6169 -0.8716 -1.0769
  182SOL     MW  728   4.932   1.230   9.158 -0.6157  0.4601 -0.0211
  183SOL     OW  729   4.722   9.868   6.898 -0.2490 -0.0343  0.2322
  183SOL    HW1  730   4.796   9.839   6.845  1.2255  2.2338  0.8996
  183SOL    HW2  731   4.732   9.820   6.981  0.5248  0.2650  0.3258
  183SOL     MW  732   4.733   9.858   6.902  0.0536  0.3112  0.3346
  184SOL     OW  733   4.081   9.863   4.676  0.3736 -0.6261 -0.4265
  184SOL    HW1  734   3.995   9.862   4.634 -0.4918  2.0610  1.0273
  184SOL    HW2  735   4.124   9.941   4.641  0.8696 -0.0766  1.3331
  184SOL     MW  736   4.075   9.873   4.665  0.3239 -0.1905  0.0059
  185SOL     OW  737   4.374   9.442   3.229  0.1350 -0.1933  0.2816
  185SOL    HW1  738   4.368   9.364   3.175  5.2927 -0.6143 -0.2074
  185SOL    HW2  739   4.417   9.412   3.310  0.0104  1.7479  1.1291
  185SOL     MW  740   4.379   9.428   3.233  0.8124  0.0113  0.3298
  186SOL     OW  741   6.495   0.088   4.693 -0.1407  0.4526  1.0664
  186SOL    HW1  742   6.458   0.158   4.639  0.2959 -0.4915 -0.5457
  186SOL    HW2  743   6.556   0.132   4.751  0.0934  1.4332  0.1196
  186SOL     MW  744   6.498   0.103   4.693 -0.0504  0.4575  0.7220
  187SOL     OW  745   6.384   0.612   2.965 -0.2331  0.5056  0.7296
  187SOL    HW1  746   6.456   0.656   2.920  0.9355  0.0478  2.0685
  187SOL    HW2  747   6.383   0.652   3.052  0.4694 -1.6033  1.7831
  187SOL     MW  748   6.394   0.623   2.971  0.0187  0.1602  1.0516
  188SOL     OW  749   7.056   1.348   9.908 -0.0121  0.0006 -0.6409
  188SOL    HW1  750   7.021   1.377   9.824 -0.1282  0.9623 -0.2754
  188SOL    HW2  751   7.145   1.320   9.889  0.5024  1.6597 -0.8397
  188SOL     MW  752   7.063   1.348   9.894  0.0415  0.3533 -0.6184
  189SOL     OW  753   5.140   1.084   3.890 -0.2197  0.0547  0.6066
  189SOL    HW1  754   5.118   1.173   3.916 -1.9737  0.4000 -1.6949
  189SOL    HW2  755   5.220   1.093   3.838 -1.5095  0.6809 -1.3817
  189SOL     MW  756   5.148   1.097   3.886 -0.6293  0.1854  0.0292
  190SOL     OW  757   4.755   0.228   2.086 -0.5403  0.5826  0.3912
  190SOL    HW1  758   4.720   0.317   2.088 -0.0398  0.7976  2.6803
  190SOL    HW2  759   4.730   0.191   2.171  0.0409 -1.1570 -0.1531
  190SOL     MW  760   4.747   0.235   2.098 -0.3947  0.3774  0.6261
  191SOL     OW  761   3.974   9.255   4.500  0.3089 -0.1158  0.8096
  191SOL    HW1  762   4.056   9.304   4.507  0.0478  0.3231  0.8081
  191SOL    HW2  763   4.001   9.168   4.471  0.7503  0.1194  0.4983
  191SOL     MW  764   3.989   9.250   4.497  0.3332 -0.0251  0.7675
  192SOL     OW  765   3.828   9.113   3.106  0.0293  0.3093 -0.1796
  192SOL    HW1  766   3.776   9.109   3.186 -0.5195 -0.9408 -0.5748
  192SOL    HW2  767   3.866   9.201   3.106 -1.5236  1.0081  0.4739
  192SOL     MW  768   3.826   9.124   3.117 -0.2536  0.2351 -0.1448
  193SOL     OW  769   4.647   9.458   1.291  0.0597  0.4790 -0.1148
  193SOL    HW1  770   4.659   9.553   1.292  1.3447  0.3852 -1.8586
  193SOL    HW2  771   4.556   9.446   1.265  0.2942  1.2737 -1.4304
  193SOL     MW  772   4.636   9.469   1.287  0.2642  0.5734 -0.5265
  194SOL     OW  773   6.753   1.227   4.159 -0.4109  0.0051  0.1140
  194SOL    HW1  774   6.774   1.299   4.218  0.8106  0.5293 -0.9091
  194SOL    HW2  775   6.762   1.148   4.212  2.9708  0.2802  0.1349
  194SOL     MW  776   6.757   1.226   4.174  0.2086  0.1126 -0.0209
  195SOL     OW  777   4.582   0.037   1.448 -0.1708 -0.1246  0.8604
  195SOL    HW1  778   4.672   0.013   1.470 -0.3596  0.2666  2.1268
  195SOL    HW2  779   4.528  -0.024   1.497 -0.6118 -0.2851  0.1926
  195SOL     MW  780   4.587   0.025   1.458 -0.2555 -0.0936  0.9410
  196SOL     OW  781   6.241   1.854   7.777  0.0975 -0.0949  0.2446
  196SOL    HW1  782   6.192   1.909   7.839  1.3137 -0.3868  1.5138
  196SOL    HW2  783   6.215   1.887   7.691 -0.4087  1.4356  0.9338
  196SOL     MW  784   6.231   1.866   7.774  0.1930  0.0718  0.5081
  197SOL     OW  785   4.901   9.820   5.422  0.1602  0.0735 -0.1458
  197SOL    HW1  786   4.907   9.903   5.469 -0.9097 -0.2071  0.5126
  197SOL    HW2  787   4.980   9.772   5.446 -0.9756 -0.6255  2.5005
  197SOL     MW  788   4.912   9.825   5.431 -0.1366 -0.0583  0.2990
  198SOL     OW  789   4.829   0.143   7.493  0.1562 -0.2167 -0.5266
  198SOL    HW1  790   4.820   0.128   7.399  0.0625 -1.9973 -0.2575
  198SOL    HW2  791   4.809   0.236   7.504 -2.3945 -0.5218 -1.9465
  198SOL     MW  792   4.825   0.154   7.482 -0.1997 -0.4974 -0.6815
  199SOL     OW  793   4.153   9.335   1.475 -0.2509 -0.2841 -0.0897
  199SOL    HW1  794   4.197   9.250   1.477  0.2121 -0.0543  1.3859
  199SOL    HW2  795   4.100   9.336   1.555 -1.9332 -0.0094 -1.1531
  199SOL     MW  796   4.152   9.324   1.486 -0.4150 -0.2162 -0.0342
  200SOL     OW  797   5.953   8.589   0.870  0.6070  0.3952  0.3446
  200SOL    HW1  798   5.928   8.497   0.873  0.3440  0.4804  0.8436
  200SOL    HW2  799   5.979   8.604   0.779 -0.8203  0.2071 -0.1157
  200SOL     MW  800   5.953   8.579   0.858  0.3795  0.3813  0.3498
  201SOL     OW  801   5.490   9.667   4.468  0.3320  0.1050  0.4744
  201SOL    HW1  802   5.571   9.617   4.459  0.2441  0.2080 -1.3852
  201SOL    HW2  803   5.519   9.756   4.487  0.5196 -0.3909  2.7667
  201SOL     MW  804   5.505   9.673   4.469  0.3454  0.0521  0.5326
  202SOL     OW  805   4.354   8.482   7.342 -0.5557 -0.4579 -0.2900
  202SOL    HW1  806   4.361   8.562   7.394 -0.3019 -0.3081 -0.5533
  202SOL    HW2  807   4.445   8.455   7.327 -0.5004  0.7989 -2.6782
  202SOL     MW  808   4.367   8.489   7.347 -0.5141 -0.2686 -0.6468
  203SOL     OW  809   4.004   0.025   2.247 -0.3627  0.0033 -0.0027
  203SOL    HW1  810   3.964   0.111   2.261 -1.6002 -0.1338 -2.2907
  203SOL    HW2  811   4.088   0.043   2.206 -0.8709  0.1440 -1.0156
  203SOL     MW  812   4.010   0.039   2.244 -0.5976  0.0038 -0.4469
  204SOL     OW  813   5.073   8.826   6.175 -0.1513 -0.0326  0.0339
  204SOL    HW1  814   5.048   8.918   6.178 -1.0395 -0.2839  0.5688
  204SOL    HW2  815   5.058   8.794   6.264  1.1536 -0.4439  0.1220
  204SOL     MW  816   5.068   8.834   6.187 -0.0952 -0.1218  0.1177
  205SOL     OW  817   7.217   9.401   9.675 -0.1781  0.6439 -0.1515
  205SOL    HW1  818   7.155   9.349   9.623  1.5807  1.1736 -2.9901
  205SOL    HW2  819   7.174   9.485   9.687 -0.0781  1.0325 -2.1568
  205SOL     MW  820   7.203   9.405   9.670  0.0721  0.7675 -0.8034
  206SOL     OW  821   4.090   8.851   6.252 -0.3834  0.8332  0.1209
  206SOL    HW1  822   4.096   8.789   6.179 -0.0605  1.0225 -0.0165
  206SOL    HW2  823   4.018   8.818   6.306  0.4876 -0.2770  0.6325
  206SOL     MW  824   4.081   8.838   6.249 -0.2227  0.7092  0.1713
  207SOL     OW  825   6.272   0.184   7.837  0.0327  0.3509 -0.1338
  207SOL    HW1  826   6.194   0.168   7.891  0.5059  0.1867  0.5127
  207SOL    HW2  827   6.258   0.133   7.758  0.0106 -0.6120  0.4789
  207SOL     MW  828   6.259   0.175   7.834  0.0934  0.1992  0.0357
  208SOL     OW  829   7.196   9.304   1.587 -0.6046 -0.0091 -0.3778
  208SOL    HW1  830   7.249   9.354   1.525 -1.4465  0.7925 -0.4786
  208SOL    HW2  831   7.251   9.294   1.664 -0.6159  1.5967 -0.1324
  208SOL     MW  832   7.211   9.309   1.589 -0.7194  0.3149 -0.3583
  209SOL     OW  833   4.748   1.392   0.559  0.1020 -0.1787  0.0931
  209SOL    HW1  834   4.698   1.465   0.523  0.5625  1.5835  2.7824
  209SOL    HW2  835   4.713   1.380   0.647  0.8350 -2.4777  0.1406
  209SOL     MW  836   4.736   1.400   0.566  0.2626 -0.2510  0.4615
  210SOL     OW  837   6.157   9.475   7.154 -0.4733  0.1162  0.5164
  210SOL    HW1  838   6.106   9.495   7.232  0.4845 -0.4899  1.3135
  210SOL    HW2  839   6.141   9.383   7.137 -0.9075  0.3131 -0.1871
  210SOL     MW  840   6.148   9.466   7.162 -0.4029  0.0612  0.5290
  211SOL     OW  841   5.380   9.225   9.433 -0.3514  0.1700 -0.8003
  211SOL    HW1  842   5.461   9.216   9.483 -0.5128  1.5290 -0.2460
  211SOL    HW2  843   5.317   9.258   9.497 -0.8893  0.7550 -1.6129
  211SOL     MW  844   5.382   9.228   9.449 -0.4455  0.4316 -0.8351
  212SOL     OW  845   7.032   8.492   3.714 -0.3681 -0.3632  0.0296
  212SOL    HW1  846   7.103   8.495   3.778  0.9380  0.1793 -1.3842
  212SOL    HW2  847   6.970   8.428   3.750  0.6811 -0.6195  1.4559
  212SOL     MW  848   7.033   8.484   3.727 -0.0511 -0.3247  0.0313
  213SOL     OW  849   4.232  10.010   5.116  0.2263  0.2125  0.0296
  213SOL    HW1  850   4.224   9.960   5.197  0.4881 -0.3846 -0.2961
  213SOL    HW2  851   4.188   9.956   5.050 -0.0528  0.7264 -0.2080
  213SOL     MW  852   4.225   9.996   5.118  0.2240  0.2013 -0.0462
  214SOL     OW  853   7.019   0.338   8.483  0.2580  0.3289 -0.1221
  214SOL    HW1  854   7.095   0.285   8.460  1.2544  2.1021 -1.1870
  214SOL    HW2  855   7.055   0.424   8.506 -1.4327  1.5706 -1.7523
  214SOL     MW  856   7.034   0.343   8.483  0.1645  0.7346 -0.4848
  215SOL     OW  857   5.574   7.751   4.834 -0.7545  0.1288 -0.0404
  215SOL    HW1  858   5.596   7.820   4.896  1.7941 -0.2991 -0.3463
  215SOL    HW2  859   5.581   7.670   4.884 -0.4868 -0.1102 -0.4630
  215SOL     MW  860   5.578   7.749   4.849 -0.3755  0.0391 -0.1384
  216SOL     OW  861   7.217   8.540   2.224 -0.4583 -0.2073 -0.1596
  216SOL    HW1  862   7.180   8.628   2.221 -0.5615 -0.2541 -0.2912
  216SOL    HW2  863   7.274   8.535   2.147 -0.8282 -0.4209 -0.4243
  216SOL     MW  864   7.220   8.551   2.213 -0.5220 -0.2424 -0.2130
  217SOL     OW  865   5.739   1.415  10.127  0.5207  0.2254 -0.0170
  217SOL    HW1  866   5.820   1.367  10.116 -0.6560 -2.0543  0.5943
  217SOL    HW2  867   5.732   1.429  10.222 -1.5733 -3.2054  0.5328
  217SOL     MW  868   5.749   1.411  10.138  0.0805 -0.5431  0.1392
  218SOL     OW  869   7.169   0.912   0.297  0.1702 -0.8820 -0.3143
  218SOL    HW1  870   7.121   0.973   0.352 -0.9186 -1.7839 -0.2338
  218SOL    HW2  871   7.114   0.834   0.293  1.1950 -1.6040 -0.9918
  218SOL     MW  872   7.155   0.909   0.304  0.1615 -1.1006 -0.3947
  219SOL     OW  873   4.677   0.272   1.180 -0.4650 -0.1357  0.1441
  219SOL    HW1  874   4.714   0.307   1.099 -0.4163  1.5638  0.8621
  219SOL    HW2  875   4.617   0.203   1.151  0.6204 -0.5416 -1.2403
  219SOL     MW  876   4.674   0.268   1.165 -0.3124  0.0384  0.0544
  220SOL     OW  877   5.426   9.107   7.624  0.4499  0.1417  0.3368
  220SOL    HW1  878   5.354   9.141   7.676  1.3303  0.9407  1.0779
  220SOL    HW2  879   5.504   9.145   7.664  1.2637 -0.5116 -0.5885
  220SOL     MW  880   5.427   9.117   7.636  0.6779  0.1613  0.3120
  221SOL     OW  881   4.966   1.290   9.671 -0.8461  0.6989 -0.2590
  221SOL    HW1  882   4.922   1.239   9.604 -0.7363  0.5190 -0.1946
  221SOL    HW2  883   5.046   1.322   9.629 -0.7738  0.5804 -0.2111
  221SOL     MW  884   4.971   1.288   9.656 -0.8216  0.6587 -0.2439
  222SOL     OW  885   5.394   8.681   0.057  0.0178 -0.1822  0.3482
  222SOL    HW1  886   5.347   8.604   0.088 -0.1621  0.2337  1.1317
  222SOL    HW2  887   5.335   8.754   0.074  0.9176  0.3464  1.3179
  222SOL     MW  888   5.380   8.680   0.064  0.1147 -0.0551  0.5842
  223SOL     OW  889   6.297   1.823   7.477 -0.5374  0.4585 -0.7536
  223SOL    HW1  890   6.378   1.787   7.514 -1.1089 -1.0483 -0.8698
  223SOL    HW2  891   6.325   1.895   7.421  0.6841  0.2247 -0.4593
  223SOL     MW  892   6.312   1.828   7.475 -0.4499  0.2243 -0.7296
  224SOL     OW  893   5.679   0.593   6.664 -0.1144 -0.1357  0.0811
  224SOL    HW1  894   5.682   0.573   6.757  0.2768  1.4901  0.4565
  224SOL    HW2  895   5.631   0.676   6.659  0.5526  0.2076 -1.0719
  224SOL     MW  896   5.673   0.602   6.675  0.0280  0.1293 -0.0236
  225SOL     OW  897   6.161   8.916   8.633 -0.2522 -0.0972 -0.1799
  225SOL    HW1  898   6.233   8.971   8.663  0.6897 -1.1887 -0.3428
  225SOL    HW2  899   6.179   8.903   8.539  0.1301 -1.4796  0.0589
  225SOL     MW  900   6.173   8.921   8.624 -0.0740 -0.4301 -0.1697
  226SOL     OW  901   7.200   0.832   6.264 -0.0427 -0.4529  0.5213
  226SOL    HW1  902   7.211   0.737   6.263  0.0878 -0.4328  0.0323
  226SOL    HW2  903   7.234   0.861   6.180  0.3901  0.0835  0.8809
  226SOL     MW  904   7.206   0.823   6.253  0.0331 -0.3780  0.5039
  227SOL     OW  905   8.157   9.912   6.949 -0.0850  0.2111 -0.2344
  227SOL    HW1  906   8.131   9.835   6.898  0.8200 -1.2385  1.3716
  227SOL    HW2  907   8.246   9.892   6.978 -0.5699  0.9315  1.9090
  227SOL     MW  908   8.166   9.899   6.946 -0.0285  0.1129  0.2702
  228SOL     OW  909   4.193   9.360   1.989 -0.0257  0.6619 -0.2234
  228SOL    HW1  910   4.259   9.389   1.925 -0.8768 -2.5036 -2.8315
  228SOL    HW2  911   4.116   9.413   1.970  0.9285  2.6651  1.1730
  228SOL     MW  912   4.192   9.371   1.977 -0.0118  0.5055 -0.3865
  229SOL     OW  913   6.807   9.887   1.135  0.3327 -0.2253  0.2772
  229SOL    HW1  914   6.797   9.839   1.217 -1.5267 -0.0639  0.1829
  229SOL    HW2  915   6.810   9.819   1.067  3.0799 -0.4414  0.4763
  229SOL     MW  916   6.806   9.872   1.137  0.4522 -0.2327  0.2913
  230SOL     OW  917   7.574   9.500   1.660  0.5116 -0.4289  0.0362
  230SOL    HW1  918   7.654   9.523   1.708 -0.1220  2.2472 -0.0128
  230SOL    HW2  919   7.604   9.486   1.570  1.3211 -2.7756  0.5978
  230SOL     MW  920   7.589   9.501   1.654  0.5353 -0.3846  0.1052
  231SOL     OW  921   7.416   9.505   9.963  0.1965 -0.0252 -0.4177
  231SOL    HW1  922   7.346   9.441   9.962 -0.4506  0.6734 -1.5818
  231SOL    HW2  923   7.482   9.470   9.903  0.0394  0.1750 -0.7101
  231SOL     MW  924   7.415   9.492   9.955  0.0883  0.0958 -0.6137
  232SOL     OW  925   4.252   8.749   5.860 -0.1390 -0.3980  0.1386
  232SOL    HW1  926   4.311   8.797   5.918  0.2917 -0.6182 -0.1076
  232SOL    HW2  927   4.193   8.816   5.825 -0.6268 -0.3126  1.0826
  232SOL     MW  928   4.252   8.764   5.863 -0.1467 -0.4161  0.2325
  233SOL     OW  929   5.396  -0.002   5.305  0.1134  0.4307  0.1682
  233SOL    HW1  930   5.343   0.033   5.234  2.7639  0.6679 -1.8287
  233SOL    HW2  931   5.424   0.074   5.355 -2.5670  0.2068  2.2677
  233SOL     MW  932   5.392   0.013   5.302  0.1094  0.4325  0.1820
  234SOL     OW  933   6.529   8.157   6.411 -0.2979  0.0892 -0.2344
  234SOL    HW1  934   6.459   8.137   6.349 -1.3319 -0.6892  1.1304
  234SOL    HW2  935   6.492   8.224   6.468  0.0647 -0.3317  0.5052
  234SOL     MW  936   6.515   8.163   6.410 -0.3882 -0.0722  0.0488
  235SOL     OW  937   3.611   9.120   2.575  0.0200  0.1587  0.1969
  235SOL    HW1  938   3.572   9.131   2.488 -0.3881  2.5903  0.6081
  235SOL    HW2  939   3.547   9.160   2.635  1.6035  1.1755  1.2770
  235SOL     MW  940   3.597   9.127   2.572  0.1782  0.6228  0.3976
  236SOL     OW  941   4.287   0.716   9.261  0.5482  0.2082  0.2637
  236SOL    HW1  942   4.276   0.659   9.185  1.0244  1.3145 -0.6628
  236SOL    HW2  943   4.208   0.770   9.263  1.1138  1.0766 -0.2416
  236SOL     MW  944   4.275   0.715   9.251  0.6884  0.4739  0.0710
  237SOL     OW  945   7.160   8.130   2.816 -0.3269  0.4521 -0.2480
  237SOL    HW1  946   7.243   8.173   2.796 -0.2656  0.5393  0.1930
  237SOL    HW2  947   7.095   8.181   2.767 -0.1128  0.3201 -0.6771
  237SOL     MW  948   7.162   8.143   2.806 -0.2899  0.4461 -0.2464
  238SOL     OW  949   7.163   0.829   1.582  0.3909 -0.0528  0.4687
  238SOL    HW1  950   7.173   0.902   1.522  0.5948 -1.3176 -1.0935
  238SOL    HW2  951   7.127   0.868   1.662  0.6939  1.7589 -0.2431
  238SOL     MW  952   7.159   0.844   1.585  0.4591  0.0208  0.1627
  239SOL     OW  953   8.370   9.371   4.491 -0.7608 -0.0211  0.8345
  239SOL    HW1  954   8.349   9.402   4.403  1.8069 -2.0473 -0.6684
  239SOL    HW2  955   8.457   9.405   4.509 -0.4065 -1.2758  1.6876
  239SOL     MW  956   8.379   9.380   4.482 -0.3676 -0.4627  0.7470
  240SOL     OW  957   6.748   9.502   2.751  0.1844  0.1071  0.1352
  240SOL    HW1  958   6.840   9.512   2.777  1.1180 -3.6989 -0.9854
  240SOL    HW2  959   6.700   9.500   2.833  1.3138  0.5395  0.8346
  240SOL     MW  960   6.754   9.503   2.766  0.4620 -0.3469  0.0785
  241SOL     OW  961   6.483   7.763   5.915 -0.0962  0.4597  0.1417
  241SOL    HW1  962   6.390   7.750   5.930  0.1348 -0.5041  0.8011
  241SOL    HW2  963   6.489   7.852   5.880 -1.2741  0.4612 -0.1005
  241SOL     MW  964   6.472   7.773   5.912 -0.2236  0.3302  0.1978
  242SOL     OW  965   5.425   1.309   3.842 -0.3509  0.6123 -0.4523
  242SOL    HW1  966   5.402   1.239   3.782  0.9135 -0.1545 -0.0874
  242SOL    HW2  967   5.371   1.383   3.815 -0.5799 -0.0304 -1.8466
  242SOL     MW  968   5.415   1.310   3.830 -0.2115  0.4226 -0.5908
  243SOL     OW  969   4.578   9.622   3.147  0.3769  0.2939 -0.1142
  243SOL    HW1  970   4.661   9.577   3.138  0.2509  0.2798 -1.4735
  243SOL    HW2  971   4.516   9.554   3.174  0.5500  0.0265 -0.3842
  243SOL     MW  972   4.581   9.607   3.149  0.3833  0.2560 -0.3335
  244SOL     OW  973   7.099   8.373  10.086 -0.5625  0.0680  0.4457
  244SOL    HW1  974   7.098   8.283  10.120  0.3802  0.6145  1.9940
  244SOL    HW2  975   7.011   8.406  10.101 -0.8306 -0.4788  0.1389
  244SOL     MW  976   7.087   8.365  10.092 -0.4717  0.0680  0.6128
  245SOL     OW  977   6.882   1.158   1.614  0.1597 -0.4211  0.7228
  245SOL    HW1  978   6.861   1.247   1.587  0.3150 -0.4323  0.5727
  245SOL    HW2  979   6.871   1.105   1.535  0.9731 -0.3972  0.5926
  245SOL     MW  980   6.877   1.163   1.600  0.2901 -0.4194  0.6851
  246SOL     OW  981   4.522   9.650   1.040 -0.0584 -0.1199 -0.4474
  246SOL    HW1  982   4.603   9.678   0.996 -0.7347 -1.0315 -2.4027
  246SOL    HW2  983   4.531   9.555   1.047 -1.0032 -0.2407 -0.7984
  246SOL     MW  984   4.534   9.641   1.035 -0.2766 -0.2589 -0.7578
  247SOL     OW  985   5.523   7.972   0.534  0.1286 -0.0232 -0.0421
  247SOL    HW1  986   5.557   7.883   0.537  2.1487  0.6890 -0.0690
  247SOL    HW2  987   5.450   7.972   0.595 -0.6854 -1.9791 -0.9564
  247SOL     MW  988   5.518   7.960   0.543  0.2909 -0.1906 -0.1687
  248SOL     OW  989   4.027   9.081   8.885 -0.2857 -0.1551 -0.4924
  248SOL    HW1  990   3.932   9.088   8.895 -0.1331 -0.3162  1.3950
  248SOL    HW2  991   4.040   9.059   8.793 -2.2315 -2.3466 -0.3354
  248SOL     MW  992   4.016   9.079   8.874 -0.5270 -0.4717 -0.2173
  249SOL     OW  993   7.778   9.555   5.520  0.2972  0.3324 -0.3981
  249SOL    HW1  994   7.853   9.501   5.496  0.6053  0.4214  0.3340
  249SOL    HW2  995   7.756   9.603   5.441  0.6618 -0.1107 -0.7729
  249SOL     MW  996   7.785   9.554   5.506  0.3877  0.2847 -0.3500
  250SOL     OW  997   6.725   7.829   7.874 -0.1278  0.2005 -0.0741
  250SOL    HW1  998   6.670   7.868   7.942 -1.0866  0.0128 -0.7242
  250SOL    HW2  999   6.706   7.735   7.878  1.8785 -0.2326  1.2272
  250SOL     MW 1000   6.715   7.821   7.884  0.0132  0.1170  0.0136
  251SOL     OW 1001   6.621   0.732   1.986  0.5009  0.1705 -0.5323
  251SOL    HW1 1002   6.692   0.672   1.965  0.8705  1.0378 -1.9361
  251SOL    HW2 1003   6.546   0.700   1.935  0.6464  0.7447 -1.1347
  251SOL     MW 1004   6.620   0.720   1.976  0.5702  0.3645 -0.8023
  252SOL     OW 1005   5.511   0.949   1.334 -0.2439 -0.1581 -0.4435
  252SOL    HW1 1006   5.521   1.038   1.299  0.0303 -0.4743 -1.1870
  252SOL    HW2 1007   5.480   0.898   1.259 -0.7055 -0.6272  0.0631
  252SOL     MW 1008   5.508   0.954   1.319 -0.2691 -0.2638 -0.4753
  253SOL     OW 1009   7.124   9.730   0.303  0.6901  0.6020 -0.0342
  253SOL    HW1 1010   7.165   9.659   0.254  0.7972 -0.4883  1.5581
  253SOL    HW2 1011   7.196   9.792   0.319  0.4102  1.5593 -2.1792
  253SOL     MW 1012   7.139   9.729   0.299  0.6669  0.5841 -0.1086
  254SOL     OW 1013   4.086   9.246   0.065  0.2944  0.5749  0.3571
  254SOL    HW1 1014   4.081   9.245   0.161  0.4783 -0.8160  0.3799
  254SOL    HW2 1015   4.180   9.254   0.047  0.3613 -0.2569  0.3153
  254SOL     MW 1016   4.098   9.247   0.075  0.3282  0.2758  0.3545
  255SOL     OW 1017   6.444   0.754   6.621  0.3035 -0.1353  0.3151
  255SOL    HW1 1018   6.351   0.730   6.623  0.0463  0.7486 -0.4064
  255SOL    HW2 1019   6.446   0.840   6.579  1.3788  0.2326  1.0645
  255SOL     MW 1020   6.432   0.762   6.616  0.4136  0.0332  0.3189
  256SOL     OW 1021   5.098   8.963   2.275 -0.0059  0.5344  0.4610
  256SOL    HW1 1022   5.086   8.884   2.222 -0.2223  0.8794 -0.0046
  256SOL    HW2 1023   5.173   9.008   2.236  0.2637  0.4450  0.8685
  256SOL     MW 1024   5.106   8.958   2.263  0.0013  0.5688  0.4532
  257SOL     OW 1025   6.268   0.960   5.027 -0.2426 -0.6043 -0.4639
  257SOL    HW1 1026   6.185   1.008   5.028  0.5958  0.9166 -0.8375
  257SOL    HW2 1027   6.295   0.957   5.119 -1.2724 -2.1989 -0.1688
  257SOL     MW 1028   6.260   0.966   5.040 -0.2683 -0.6142 -0.4745
  258SOL     OW 1029   6.059   9.021   6.377  0.0278 -0.0875 -0.3292
  258SOL    HW1 1030   6.018   9.002   6.461 -0.7514 -0.1011 -0.6943
  258SOL    HW2 1031   5.986   9.019   6.315  0.8856 -2.5914 -1.4007
  258SOL     MW 1032   6.044   9.018   6.380  0.0384 -0.4263 -0.5226
  259SOL     OW 1033   6.405   9.288   2.790 -0.6644 -0.2244  0.2482
  259SOL    HW1 1034   6.360   9.225   2.734 -0.5839 -0.8163  0.8477
  259SOL    HW2 1035   6.487   9.246   2.813 -0.6397  0.0709  0.7060
  259SOL     MW 1036   6.410   9.274   2.786 -0.6503 -0.2643  0.3905
  260SOL     OW 1037   5.994   7.647   0.961 -0.4375  0.1444  0.3812
  260SOL    HW1 1038   6.029   7.682   1.043  1.4033 -1.8034  0.5301
  260SOL    HW2 1039   6.071   7.621   0.911 -1.4332  2.4673 -2.6348
  260SOL     MW 1040   6.009   7.648   0.965 -0.3237  0.1949 -0.0046
  261SOL     OW 1041   4.971   1.767   6.159 -0.4816  0.4840 -0.0522
  261SOL    HW1 1042   5.017   1.716   6.092 -0.4113 -0.8215  0.9507
  261SOL    HW2 1043   5.014   1.853   6.157 -0.4161  0.4558 -1.5811
  261SOL     MW 1044   4.983   1.772   6.149 -0.4633  0.3045 -0.1230
  262SOL     OW 1045   7.288   0.563   1.982  0.2852  0.4209  0.0549
  262SOL    HW1 1046   7.266   0.646   2.025  0.5747  0.2121  0.6161
  262SOL    HW2 1047   7.209   0.509   1.993  0.2160  0.5060 -0.0216
  262SOL     MW 1048   7.274   0.567   1.990  0.3149  0.4042  0.1202
  263SOL     OW 1049   4.299   9.909   8.609 -0.1874 -0.1266 -0.1791
  263SOL    HW1 1050   4.354   9.907   8.530  0.4240 -0.6916  0.2541
  263SOL    HW2 1051   4.305   9.821   8.645 -0.1280  0.2386  0.7284
  263SOL     MW 1052   4.307   9.897   8.603 -0.0971 -0.1535  0.0013
  264SOL     OW 1053   5.494   8.608   9.153 -0.2836  0.4855 -0.0255
  264SOL    HW1 1054   5.530   8.532   9.106 -2.1962 -0.7674  0.4068
  264SOL    HW2 1055   5.538   8.607   9.238 -0.2772 -0.1440 -0.0304
  264SOL     MW 1056   5.505   8.598   9.158 -0.5401  0.2321  0.0320
  265SOL     OW 1057   6.280   0.518   1.047 -0.0001 -0.0113 -0.0760
  265SOL    HW1 1058   6.264   0.431   1.010  0.2717  0.0664 -0.3885
  265SOL    HW2 1059   6.195   0.547   1.079  0.1215 -0.8739  1.1004
  265SOL     MW 1060   6.266   0.510   1.046  0.0528 -0.1170  0.0402
  266SOL     OW 1061   7.324   0.441   2.337  0.7960  0.1544  0.2028
  266SOL    HW1 1062   7.399   0.409   2.386  0.8479  0.4486  0.3211
  266SOL    HW2 1063   7.304   0.372   2.274  0.2292 -0.5836  1.1646
  266SOL     MW 1064   7.331   0.427   2.335  0.7267  0.0947  0.3481
  267SOL     OW 1065   5.898   7.314   4.956  0.0390 -0.0220  0.0748
  267SOL    HW1 1066   5.967   7.264   4.912 -0.4595 -2.0621  1.4472
  267SOL    HW2 1067   5.933   7.332   5.043 -0.2987  0.9275  0.0202
  267SOL     MW 1068   5.912   7.310   4.961 -0.0735 -0.1688  0.2521
  268SOL     OW 1069   5.676   9.868   0.080  0.1030 -0.4883  0.2725
  268SOL    HW1 1070   5.624   9.880   0.001 -0.8749 -0.6739  0.8728
  268SOL    HW2 1071   5.752   9.924   0.067 -0.7777  0.6483 -0.1605
  268SOL     MW 1072   5.679   9.877   0.067 -0.1471 -0.3603  0.2950
  269SOL     OW 1073   7.780   0.585   4.480 -0.3347 -0.0740 -0.2828
  269SOL    HW1 1074   7.821   0.658   4.435  1.9577 -1.0876  0.0217
  269SOL    HW2 1075   7.786   0.607   4.573 -0.1835 -0.3742 -0.2195
  269SOL     MW 1076   7.786   0.598   4.486 -0.0058 -0.2508 -0.2333
  270SOL     OW 1077   4.105   0.367   4.487 -0.1704  0.9340 -0.3657
  270SOL    HW1 1078   4.059   0.425   4.548  1.5444  1.1027  0.8287
  270SOL    HW2 1079   4.040   0.300   4.465 -1.2163  1.5654  0.6545
  270SOL     MW 1080   4.090   0.366   4.492 -0.0804  1.0417 -0.0677
  271SOL     OW 1081   7.477   9.558   1.255  0.4433 -0.2185 -0.1278
  271SOL    HW1 1082   7.431   9.479   1.284 -0.3235  0.3375  0.2162
  271SOL    HW2 1083   7.417   9.630   1.278  0.0383  0.2996 -2.5790
  271SOL     MW 1084   7.463   9.557   1.262  0.2856 -0.0739 -0.4114
  272SOL     OW 1085   4.327   0.916   3.264 -0.2584  0.4997  0.2610
  272SOL    HW1 1086   4.327   0.861   3.343 -0.0337  0.4945  0.2590
  272SOL    HW2 1087   4.338   1.005   3.297  0.3938  0.4456  0.2049
  272SOL     MW 1088   4.329   0.921   3.279 -0.1404  0.4917  0.2532
  273SOL     OW 1089   7.365   8.587   3.507 -0.4739 -0.1827 -0.2168
  273SOL    HW1 1090   7.304   8.630   3.567  1.2653 -0.2171  1.6913
  273SOL    HW2 1091   7.321   8.504   3.484 -1.7479  0.4225 -0.0680
  273SOL     MW 1092   7.351   8.581   3.512 -0.4113 -0.1059  0.0600
  274SOL     OW 1093   5.164   0.153   6.329  0.1336 -0.5610  0.4073
  274SOL    HW1 1094   5.241   0.198   6.363  0.5938 -0.7170 -0.4039
  274SOL    HW2 1095   5.091   0.191   6.377  0.7652 -0.9093  1.7144
  274SOL     MW 1096   5.165   0.164   6.340  0.2805 -0.6288  0.4740
  275SOL     OW 1097   6.533   8.258   2.165  0.2675  0.0842 -0.2734
  275SOL    HW1 1098   6.447   8.273   2.205  0.0323  1.6897 -1.2686
  275SOL    HW2 1099   6.521   8.183   2.108 -0.2922 -0.1100  0.0932
  275SOL     MW 1100   6.520   8.250   2.163  0.1605  0.2742 -0.3580
  276SOL     OW 1101   5.400  10.065   9.151  0.0347  0.5228 -0.0907
  276SOL    HW1 1102   5.377  10.092   9.062 -0.1455  2.4619  0.4903
  276SOL    HW2 1103   5.489  10.099   9.163  0.1374  0.0797  0.3899
  276SOL     MW 1104   5.409  10.073   9.140  0.0243  0.7242  0.0522
  277SOL     OW 1105   6.456   1.465   3.456 -0.1962  0.4986  0.0864
  277SOL    HW1 1106   6.455   1.392   3.518 -0.4948  0.5090  0.0922
  277SOL    HW2 1107   6.384   1.448   3.396  0.7322 -0.0721 -0.9151
  277SOL     MW 1108   6.446   1.453   3.456 -0.1114  0.4232 -0.0476
  278SOL     OW 1109   5.648   1.545   4.260 -0.3275  0.0123  0.4080
  278SOL    HW1 1110   5.680   1.585   4.340 -0.9015  0.7372  0.2909
  278SOL    HW2 1111   5.613   1.619   4.209 -1.3223 -0.6255  0.1411
  278SOL     MW 1112   5.648   1.560   4.264 -0.5386  0.0240  0.3563
  279SOL     OW 1113   5.959   1.109   8.897 -0.7271  0.1186 -0.1067
  279SOL    HW1 1114   6.017   1.180   8.924 -1.6872  0.0270  2.4890
  279SOL    HW2 1115   5.894   1.103   8.968 -1.2304 -2.7346 -0.6841
  279SOL     MW 1116   5.958   1.118   8.910 -0.9241 -0.2777  0.1649
  280SOL     OW 1117   7.947   8.982   8.830  0.4148 -0.3121  0.1911
  280SOL    HW1 1118   7.873   8.947   8.781  1.3179 -1.1588 -0.6147
  280SOL    HW2 1119   7.912   8.999   8.918 -0.6859 -0.8215 -0.1309
  280SOL     MW 1120   7.933   8.980   8.836  0.3882 -0.4946  0.0393
  281SOL     OW 1121   6.745   7.828   2.783  0.5257  0.8281  0.0807
  281SOL    HW1 1122   6.725   7.858   2.695  1.0596 -0.9367 -0.6832
  281SOL    HW2 1123   6.834   7.860   2.799  0.8297  0.2770 -0.4533
  281SOL     MW 1124   6.754   7.836   2.773  0.6385  0.5164 -0.0940
  282SOL     OW 1125   7.283   8.347   1.011  0.1397  0.0767  0.0438
  282SOL    HW1 1126   7.191   8.337   1.035 -0.0760  1.1795 -0.2647
  282SOL    HW2 1127   7.327   8.369   1.093  0.1336 -0.4646  0.1935
  282SOL     MW 1128   7.277   8.349   1.025  0.1099  0.1523  0.0224
  283SOL     OW 1129   6.871   0.333   0.915 -0.0076 -0.5354 -0.2677
  283SOL    HW1 1130   6.846   0.249   0.953 -0.2025 -1.0483 -1.4934
  283SOL    HW2 1131   6.894   0.313   0.825  0.8395  0.5865 -0.3277
  283SOL     MW 1132   6.871   0.319   0.908  0.0802 -0.4534 -0.4407
  284SOL     OW 1133   5.255   1.589   1.594  0.1688 -0.1260 -0.3132
  284SOL    HW1 1134   5.297   1.592   1.680 -1.7099  0.8138  0.6405
  284SOL    HW2 1135   5.285   1.669   1.550  0.3286 -0.0697 -0.1048
  284SOL     MW 1136   5.264   1.600   1.600 -0.0625  0.0080 -0.1568
  285SOL     OW 1137   6.022   0.096   1.875 -0.4231  0.7800 -0.1502
  285SOL    HW1 1138   6.106   0.107   1.832 -0.2251  2.1941  0.5213
  285SOL    HW2 1139   6.042   0.102   1.968 -1.1011 -0.2132  0.0749
  285SOL     MW 1140   6.036   0.098   1.882 -0.4877  0.8366 -0.0295
  286SOL     OW 1141   6.663   0.227   6.976  0.3446  0.2591 -0.0812
  286SOL    HW1 1142   6.725   0.295   7.002  0.4428  0.4801 -0.8536
  286SOL    HW2 1143   6.708   0.145   6.993  1.3651  0.4235 -1.7688
  286SOL     MW 1144   6.677   0.225   6.981  0.4952  0.3110 -0.4123
  287SOL     OW 1145   5.348   7.927   7.121  0.1199 -0.4706  0.4067
  287SOL    HW1 1146   5.443   7.941   7.127  0.0256  1.8248 -1.6921
  287SOL    HW2 1147   5.312   7.970   7.198  0.6116  2.1887 -0.7328
  287SOL     MW 1148   5.356   7.935   7.132  0.1734  0.1962 -0.0291
  288SOL     OW 1149   4.022  10.113   9.602  0.6502  0.2248  0.4153
  288SOL    HW1 1150   4.010  10.026   9.565 -0.3898  0.8405 -0.7707
  288SOL    HW2 1151   4.061  10.164   9.531  0.9658  0.8080  0.9921
  288SOL     MW 1152   4.026  10.108   9.588  0.5527  0.3861  0.3333
  289SOL     OW 1153   6.678   0.889   5.836  0.1166 -0.9633  0.4249
  289SOL    HW1 1154   6.619   0.899   5.762  0.6012 -1.8738 -0.1022
  289SOL    HW2 1155   6.650   0.957   5.898  0.7722  0.9650 -1.2704
  289SOL     MW 1156   6.666   0.899   5.835  0.2701 -0.8263  0.1258
  290SOL     OW 1157   7.425   9.673   2.965 -0.1488 -0.0357  0.0398
  290SOL    HW1 1158   7.497   9.673   3.028  0.6520 -0.3627 -0.8525
  290SOL    HW2 1159   7.405   9.581   2.952  1.0898 -0.1052 -1.7071
  290SOL     MW 1160   7.432   9.661   2.972  0.1257 -0.0891 -0.3154
  291SOL     OW 1161   4.718   8.684   9.836 -0.3173 -0.0153 -0.1123
  291SOL    HW1 1162   4.690   8.620   9.902  1.3371 -1.2297 -0.5347
  291SOL    HW2 1163   4.661   8.760   9.851 -1.7704 -1.2484  0.9616
  291SOL     MW 1164   4.706   8.686   9.847 -0.2902 -0.3447 -0.0247
  292SOL     OW 1165   7.471   1.345   9.075  0.3246 -0.0765 -0.4489
  292SOL    HW1 1166   7.427   1.423   9.041  0.4340  0.0034 -0.4060
  292SOL    HW2 1167   7.547   1.379   9.122 -0.8139 -0.0543  1.4630
  292SOL     MW 1168   7.475   1.360   9.076  0.1861 -0.0627 -0.1858
  293SOL     OW 1169   7.236   8.417   2.966 -0.0663 -0.7909  0.3443
  293SOL    HW1 1170   7.228   8.414   3.061  1.5655 -2.0384  0.4661
  293SOL    HW2 1171   7.202   8.504   2.943 -0.9151 -0.6395  1.9977
  293SOL     MW 1172   7.230   8.428   2.976  0.0390 -0.9384  0.5832
  294SOL     OW 1173   7.106   1.034   4.269 -0.1300  0.0450 -0.1628
  294SOL    HW1 1174   7.057   1.004   4.192 -1.1876 -1.0801  0.9062
  294SOL    HW2 1175   7.067   0.986   4.342  0.3828  1.5872  1.1830
  294SOL     MW 1176   7.094   1.024   4.268 -0.2033  0.1011  0.1622
  295SOL     OW 1177   3.897   8.675   1.981  0.1156 -0.2886  0.7573
  295SOL    HW1 1178   3.963   8.624   1.934 -0.2644 -1.9402  1.9658
  295SOL    HW2 1179   3.837   8.705   1.912  0.0272 -1.9705  0.0547
  295SOL     MW 1180   3.898   8.673   1.965  0.0526 -0.7372  0.8254
  296SOL     OW 1181   8.100   9.844   5.118 -0.4387  0.1225  0.0792
  296SOL    HW1 1182   8.130   9.867   5.030 -1.1832 -1.2748 -0.5833
  296SOL    HW2 1183   8.135   9.913   5.174  0.8737  0.5297 -1.1627
  296SOL     MW 1184   8.109   9.857   5.114 -0.3623 -0.0108 -0.1771
  297SOL     OW 1185   6.729   9.917   6.943 -0.0606 -0.0798 -0.4223
  297SOL    HW1 1186   6.750   9.837   6.992  1.2264  2.0501  2.8046
  297SOL    HW2 1187   6.785   9.912   6.865  1.0192 -1.6779  0.3924
  297SOL     MW 1188   6.740   9.906   6.939  0.2579 -0.0082  0.1216
  298SOL     OW 1189   5.152   8.651   8.850 -0.1154 -0.0454  0.0365
  298SOL    HW1 1190   5.115   8.562   8.845  0.5882 -0.4162  1.1667
  298SOL    HW2 1191   5.082   8.707   8.816 -1.8482 -0.6900  2.3251
  298SOL     MW 1192   5.137   8.646   8.844 -0.2539 -0.1821  0.4966
  299SOL     OW 1193   7.307   9.384   2.085 -0.1944 -0.3289  0.4258
  299SOL    HW1 1194   7.319   9.292   2.108 -1.1455 -0.8292 -0.9606
  299SOL    HW2 1195   7.339   9.392   1.995  0.1839  0.7807  0.6355
  299SOL     MW 1196   7.313   9.373   2.076 -0.2715 -0.2469  0.2675
  300SOL     OW 1197   8.135   0.262   5.621  0.2872  0.4779 -0.5205
  300SOL    HW1 1198   8.080   0.187   5.641  2.0149 -1.4226 -2.3755
  300SOL    HW2 1199   8.078   0.320   5.569 -0.6970 -0.1325 -0.1534
  300SOL     MW 1200   8.120   0.260   5.616  0.3873  0.1400 -0.7208
  301SOL     OW 1201   7.965   9.047   3.796  0.1370  0.0405  0.7117
  301SOL    HW1 1202   7.885   8.995   3.802  0.1462 -0.0375  0.2134
  301SOL    HW2 1203   7.935   9.135   3.775  0.1734  0.0315  0.6218
  301SOL     MW 1204   7.950   9.051   3.794  0.1432  0.0288  0.6326
  302SOL     OW 1205   7.665   0.612   5.907 -0.2978  0.0463  0.0950
  302SOL    HW1 1206   7.651   0.676   5.977 -0.9549 -0.9023  0.8578
  302SOL    HW2 1207   7.759   0.618   5.888 -0.0138  0.0029  1.3836
  302SOL     MW 1208   7.676   0.621   5.914 -0.3480 -0.0872  0.3711
  303SOL     OW 1209   4.813   0.820   6.844 -0.3818 -0.0471  0.0179
  303SOL    HW1 1210   4.808   0.897   6.900 -0.1785  0.0422 -0.0841
  303SOL    HW2 1211   4.887   0.838   6.786  0.3746 -0.7939  0.7243
  303SOL     MW 1212   4.822   0.833   6.844 -0.2526 -0.1356  0.0993
  304SOL     OW 1213   5.050   9.414   0.453  0.3669 -0.1995  0.3735
  304SOL    HW1 1214   5.010   9.487   0.405  0.2933 -0.9036 -0.6825
  304SOL    HW2 1215   5.049   9.441   0.545  1.3962  1.6159 -0.1036
  304SOL     MW 1216   5.045   9.428   0.459  0.4955 -0.0499  0.1672
  305SOL     OW 1217   3.972   0.112   4.472 -0.0095  0.0925  0.1267
  305SOL    HW1 1218   4.009   0.029   4.501  0.1523 -0.2258 -0.9667
  305SOL    HW2 1219   3.893   0.088   4.423  1.1403  0.4000 -2.0043
  305SOL     MW 1220   3.966   0.098   4.469  0.1670  0.0910 -0.3073
  306SOL     OW 1221   4.858   7.797   5.738 -0.3437 -0.2030  0.1926
  306SOL    HW1 1222   4.806   7.873   5.764  1.1569  0.5175  1.1829
  306SOL    HW2 1223   4.922   7.832   5.676  0.6204 -0.5668  0.9730
  306SOL     MW 1224   4.860   7.812   5.733 -0.0120 -0.1550  0.4309
  307SOL     OW 1225   6.861   0.307   1.886 -0.6844  0.2107  0.1287
  307SOL    HW1 1226   6.837   0.296   1.794 -1.1377  2.8663 -0.1516
  307SOL    HW2 1227   6.789   0.265   1.934 -0.7821 -0.6156 -0.7144
  307SOL     MW 1228   6.848   0.300   1.880 -0.7585  0.4569 -0.0225
  308SOL     OW 1229   7.455   8.176   7.661  0.2629  0.3259 -0.5475
  308SOL    HW1 1230   7.455   8.142   7.751  1.6547  0.4857 -0.4646
  308SOL    HW2 1231   7.535   8.228   7.655 -0.1890  0.9324 -1.6675
  308SOL     MW 1232   7.466   8.178   7.672  0.3894  0.4290 -0.6871
  309SOL     OW 1233   6.819   1.440   8.610  0.2243 -0.6570  0.1777
  309SOL    HW1 1234   6.728   1.412   8.600 -0.3259  0.5147  1.5569
  309SOL    HW2 1235   6.824   1.524   8.565  0.3290 -0.2008  1.0251
  309SOL     MW 1236   6.808   1.447   8.603  0.1644 -0.4379  0.4774
  310SOL     OW 1237   4.715   0.654   4.938  1.0119 -0.2027  0.5554
  310SOL    HW1 1238   4.628   0.616   4.940  1.0643 -0.2963  1.2341
  310SOL    HW2 1239   4.773   0.581   4.918  0.9742 -0.2054  0.4526
  310SOL     MW 1240   4.711   0.639   4.935  1.0139 -0.2156  0.6329
  311SOL     OW 1241   6.528   7.632   0.680 -0.6133 -0.2676 -0.0165
  311SOL    HW1 1242   6.536   7.541   0.650 -1.3652  0.2192 -1.8344
  311SOL    HW2 1243   6.471   7.673   0.615 -0.2921  1.5158  0.7822
  311SOL     MW 1244   6.521   7.625   0.667 -0.6713  0.0379 -0.1537
  312SOL     OW 1245   6.022   9.449   2.582 -0.7478  0.0531 -0.2889
  312SOL    HW1 1246   5.959   9.496   2.528 -0.6663 -1.1332 -1.4735
  312SOL    HW2 1247   6.107   9.476   2.548 -0.6890 -0.4351 -0.5343
  312SOL     MW 1248   6.025   9.459   2.570 -0.7289 -0.1722 -0.4813
  313SOL     OW 1249   6.087   8.159   7.152 -0.2219  0.4279  0.1329
  313SOL    HW1 1250   6.167   8.143   7.103  0.2152  2.1462  0.2448
  313SOL    HW2 1251   6.039   8.224   7.101 -1.5897 -0.6049  0.0463
  313SOL     MW 1252   6.091   8.166   7.139 -0.3472  0.5201  0.1363
  314SOL     OW 1253   5.585   8.883   1.483  0.3688  0.6069 -0.2482
  314SOL    HW1 1254   5.621   8.964   1.448  1.4408 -0.3245 -1.4046
  314SOL    HW2 1255   5.578   8.825   1.407  0.4050 -0.6474  0.6722
  314SOL     MW 1256   5.589   8.886   1.468  0.5179  0.3128 -0.2800
  315SOL     OW 1257   5.640   9.796   3.323  0.3215 -0.2862 -0.0076
  315SOL    HW1 1258   5.605   9.791   3.412 -0.5245  0.1404 -0.3078
  315SOL    HW2 1259   5.628   9.708   3.287 -0.2459 -0.1971 -0.0353
  315SOL     MW 1260   5.634   9.783   3.330  0.1313 -0.2168 -0.0517
  316SOL     OW 1261   5.048   0.659   0.701  0.0819  0.7769  0.1292
  316SOL    HW1 1262   5.080   0.704   0.623 -1.6056  1.1917 -0.3704
  316SOL    HW2 1263   4.997   0.726   0.748 -0.9424 -0.1168  0.3234
  316SOL     MW 1264   5.045   0.674   0.697 -0.2831  0.7125  0.0881
  317SOL     OW 1265   5.378   9.638   0.320  0.5550  0.0609  0.3629
  317SOL    HW1 1266   5.381   9.561   0.377  0.0165  0.2020  0.5955
  317SOL    HW2 1267   5.468   9.670   0.317  1.3168 -2.0540 -1.8262
  317SOL     MW 1268   5.390   9.632   0.328  0.5850 -0.2047  0.0996
  318SOL     OW 1269   7.081   0.387   2.021  0.0320  0.1892  0.0840
  318SOL    HW1 1270   7.039   0.418   2.101  0.5870 -0.1292  0.5076
  318SOL    HW2 1271   7.010   0.353   1.968 -0.3853  0.7145  0.2941
  318SOL     MW 1272   7.066   0.387   2.025  0.0505  0.2170  0.1693
  319SOL     OW 1273   6.728   1.482   2.566  0.4142  0.2928  0.1584
  319SOL    HW1 1274   6.645   1.494   2.520 -0.6568  2.9030  2.5071
  319SOL    HW2 1275   6.703   1.462   2.656  2.2367  2.1341  1.1593
  319SOL     MW 1276   6.714   1.481   2.572  0.5153  0.8919  0.6092
  320SOL     OW 1277   6.722   9.207   1.156  0.6241 -0.3478  0.7131
  320SOL    HW1 1278   6.775   9.211   1.076  0.7580  0.5326  0.8444
  320SOL    HW2 1279   6.785   9.204   1.227  0.5033 -1.0285  0.7967
  320SOL     MW 1280   6.737   9.207   1.155  0.6259 -0.3209  0.7420
  321SOL     OW 1281   5.043   7.818   8.863  0.1222  0.3403 -0.1242
  321SOL    HW1 1282   5.026   7.828   8.957 -0.2768  0.7503 -0.2314
  321SOL    HW2 1283   5.136   7.837   8.853  0.1540  0.3478  0.1821
  321SOL     MW 1284   5.053   7.822   8.874  0.0728  0.3965 -0.0974
  322SOL     OW 1285   4.719   0.419   5.774 -0.5580 -0.3183 -0.1878
  322SOL    HW1 1286   4.666   0.417   5.694 -0.8992 -0.9356  0.0413
  322SOL    HW2 1287   4.678   0.487   5.827 -0.8462 -0.4788 -0.2002
  322SOL     MW 1288   4.706   0.428   5.770 -0.6427 -0.4230 -0.1586
  323SOL     OW 1289   7.108   9.114   4.816  0.0770  0.2898  0.1468
  323SOL    HW1 1290   7.078   9.148   4.900 -0.6164 -1.5386  0.6917
  323SOL    HW2 1291   7.029   9.107   4.763  0.4860  1.2658 -0.6130
  323SOL     MW 1292   7.094   9.118   4.820  0.0387  0.1751  0.1179
  324SOL     OW 1293   5.290   0.221   3.793 -0.7998 -0.6436  0.4641
  324SOL    HW1 1294   5.235   0.148   3.822  1.3403 -1.0495  4.0699
  324SOL    HW2 1295   5.362   0.179   3.746 -1.2599 -0.5232 -0.3575
  324SOL     MW 1296   5.292   0.205   3.791 -0.5737 -0.6820  0.8388
  325SOL     OW 1297   5.217   8.129   3.782  0.6905 -0.1309 -0.2704
  325SOL    HW1 1298   5.217   8.165   3.693  0.0930  1.2962  0.2733
  325SOL    HW2 1299   5.288   8.065   3.782  0.0554 -0.9141 -2.0472
  325SOL     MW 1300   5.227   8.125   3.770  0.5247 -0.0442 -0.4364
  326SOL     OW 1301   6.827   8.135   5.305 -0.0945 -0.3926 -0.6171
  326SOL    HW1 1302   6.909   8.148   5.257 -0.1449 -0.9930 -0.8722
  326SOL    HW2 1303   6.766   8.199   5.267 -0.2827 -1.2017 -1.7046
  326SOL     MW 1304   6.830   8.146   5.294 -0.1266 -0.5823 -0.7978
  327SOL     OW 1305   5.759   9.129   5.219  0.1213 -0.0242  0.0669
  327SOL    HW1 1306   5.770   9.119   5.124  0.2260  1.2391 -0.0667
  327SOL    HW2 1307   5.842   9.165   5.250 -0.0566 -0.0401  0.5758
  327SOL     MW 1308   5.772   9.132   5.210  0.1115  0.1437  0.1174
  328SOL     OW 1309   6.891   9.749   4.627  0.0528 -0.8308 -0.5332
  328SOL    HW1 1310   6.840   9.668   4.639  0.7895 -1.3135 -0.6101
  328SOL    HW2 1311   6.951   9.730   4.555  0.0292 -0.1062 -0.7534
  328SOL     MW 1312   6.892   9.736   4.619  0.1488 -0.7983 -0.5731
  329SOL     OW 1313   4.462  10.055   8.781  0.0947 -0.0150 -0.1973
  329SOL    HW1 1314   4.532  10.099   8.733  0.6861 -0.5804  0.1312
  329SOL    HW2 1315   4.412  10.009   8.713 -0.7324  1.3733 -0.5923
  329SOL     MW 1316   4.465  10.055   8.765  0.0630  0.0958 -0.2062
  330SOL     OW 1317   5.277   0.040   1.868 -0.3508 -0.3197  0.6817
  330SOL    HW1 1318   5.303   0.076   1.953  0.8966 -0.8476  0.5415
  330SOL    HW2 1319   5.182   0.046   1.868 -0.3202  0.5285  1.7445
  330SOL     MW 1320   5.268   0.046   1.880 -0.1788 -0.2766  0.8058
  331SOL     OW 1321   5.850   8.813   9.983 -0.8172  0.5539 -0.7845
  331SOL    HW1 1322   5.922   8.757   9.956 -0.3041  1.8406 -2.2351
  331SOL    HW2 1323   5.877   8.848  10.068 -0.4356 -0.1527 -0.6104
  331SOL     MW 1324   5.864   8.810   9.991 -0.6968  0.6320 -0.9563
  332SOL     OW 1325   5.275   8.552   0.415  0.2292  0.0933  0.2117
  332SOL    HW1 1326   5.244   8.475   0.366 -3.0941  1.7040 -0.4789
  332SOL    HW2 1327   5.245   8.536   0.505 -0.3133  0.4661  0.1025
  332SOL     MW 1328   5.267   8.539   0.420 -0.2911  0.3602  0.1041
  333SOL     OW 1329   5.273   7.722   6.506 -0.0377  0.4626 -0.0842
  333SOL    HW1 1330   5.229   7.746   6.588 -0.0923 -1.7739  0.6027
  333SOL    HW2 1331   5.287   7.628   6.513 -1.1108 -0.0443 -3.1549
  333SOL     MW 1332   5.269   7.713   6.518 -0.1895  0.0934 -0.4050
  334SOL     OW 1333   6.653   8.669   9.475 -0.2958  0.5762  0.5802
  334SOL    HW1 1334   6.639   8.578   9.501  0.2435  0.5162  0.6611
  334SOL    HW2 1335   6.613   8.676   9.388  2.4977 -0.6030 -0.9004
  334SOL     MW 1336   6.646   8.658   9.467  0.1528  0.4094  0.3918
  335SOL     OW 1337   5.937   8.343   7.459 -0.1800 -0.0531  0.6121
  335SOL    HW1 1338   5.859   8.288   7.449 -0.9609  1.0539  0.4807
  335SOL    HW2 1339   5.910   8.430   7.431  1.0902  0.3802  0.6353
  335SOL     MW 1340   5.923   8.347   7.454 -0.1142  0.1542  0.5975
  336SOL     OW 1341   5.680   9.417   4.949 -0.3378  0.5973 -0.3075
  336SOL    HW1 1342   5.742   9.346   4.936 -0.5825  0.7161 -2.4867
  336SOL    HW2 1343   5.669   9.423   5.044  0.3670 -1.6630 -0.0407
  336SOL     MW 1344   5.687   9.408   4.960 -0.2759  0.3091 -0.5649
  337SOL     OW 1345   5.015   7.999   7.095  0.0743  0.7623 -0.3700
  337SOL    HW1 1346   4.923   7.990   7.072 -0.1335  0.5532  0.5033
  337SOL    HW2 1347   5.014   8.023   7.187  0.9080 -0.1587 -0.1011
  337SOL     MW 1348   5.003   8.001   7.104  0.1586  0.6102 -0.2163
  338SOL     OW 1349   5.513   1.850   0.055  0.0144  0.1863  0.4342
  338SOL    HW1 1350   5.518   1.881   0.146  0.1177  0.3090  0.3859
  338SOL    HW2 1351   5.464   1.768   0.061 -0.7952  0.6621  0.4789
  338SOL     MW 1352   5.507   1.843   0.068 -0.0806  0.2668  0.4337
  339SOL     OW 1353   4.549   0.894   6.721  0.1177 -0.1945  0.1371
  339SOL    HW1 1354   4.543   0.987   6.702  0.6652  0.4809  2.7930
  339SOL    HW2 1355   4.642   0.879   6.737  0.0648 -1.2505 -0.4780
  339SOL     MW 1356   4.561   0.904   6.721  0.1843 -0.2457  0.4118
  340SOL     OW 1357   6.818   9.776   9.153  0.0851 -0.0606  0.1906
  340SOL    HW1 1358   6.858   9.710   9.096  0.6786 -0.3571  0.9272
  340SOL    HW2 1359   6.724   9.765   9.142  0.1899 -0.6585 -0.1203
  340SOL     MW 1360   6.811   9.766   9.144  0.1791 -0.1810  0.2479
  341SOL     OW 1361   3.528   9.994   7.184 -0.3938 -0.4503 -0.6605
  341SOL    HW1 1362   3.439   9.961   7.197 -0.3082  0.1777  2.0646
  341SOL    HW2 1363   3.584   9.917   7.194 -0.5435 -0.5818 -0.8231
  341SOL     MW 1364   3.523   9.979   7.187 -0.4024 -0.3835 -0.3157
  342SOL     OW 1365   7.345   1.113   8.940  0.1742  0.4042 -0.2605
  342SOL    HW1 1366   7.265   1.153   8.907  0.1051  1.1221  0.7140
  342SOL    HW2 1367   7.393   1.186   8.980  0.8625 -0.1829  0.0071
  342SOL     MW 1368   7.341   1.128   8.941  0.2575  0.4218 -0.0933
  343SOL     OW 1369   3.927   0.286   9.306  0.0320 -0.1587  0.2460
  343SOL    HW1 1370   3.997   0.223   9.326 -0.0880 -0.9010 -1.5020
  343SOL    HW2 1371   3.890   0.307   9.392  0.5254 -1.9665  0.9664
  343SOL     MW 1372   3.931   0.280   9.320  0.0822 -0.5019  0.1077
  344SOL     OW 1373   4.483   1.133   5.907  0.3197  0.1154 -0.8144
  344SOL    HW1 1374   4.402   1.163   5.865  0.1854  0.8036 -0.0893
  344SOL    HW2 1375   4.453   1.078   5.979  0.4188  1.6029  0.4107
  344SOL     MW 1376   4.468   1.130   5.911  0.3150  0.4082 -0.5519
  345SOL     OW 1377   6.514   1.199   0.027  0.2078 -0.4102 -0.3868
  345SOL    HW1 1378   6.537   1.279  -0.021  1.4583  0.1132  0.9971
  345SOL    HW2 1379   6.566   1.204   0.107 -2.5896 -0.6531  1.5953
  345SOL     MW 1380   6.524   1.211   0.031 -0.0003 -0.3724  0.0662
  346SOL     OW 1381   4.263   9.863   6.287  0.1156  0.2894  0.9018
  346SOL    HW1 1382   4.347   9.818   6.287 -0.0670 -0.0540  1.0778
  346SOL    HW2 1383   4.285   9.955   6.305  0.5703  0.4336 -0.2539
  346SOL     MW 1384   4.277   9.869   6.289  0.1522  0.2626  0.7700
  347SOL     OW 1385   4.181   9.759   8.946 -0.1666 -0.9089 -0.6848
  347SOL    HW1 1386   4.239   9.799   9.010 -1.9589 -1.1914  1.2142
  347SOL    HW2 1387   4.158   9.831   8.887  1.6770 -0.6958 -1.2005
  347SOL     MW 1388   4.185   9.774   8.946 -0.1597 -0.9182 -0.4986
  348SOL     OW 1389   5.901   1.293   2.227  0.0340  0.0241 -0.1013
  348SOL    HW1 1390   5.927   1.281   2.136 -0.4531 -1.6745 -0.0565
  348SOL    HW2 1391   5.810   1.262   2.231 -0.1131  0.5220  0.8573
  348SOL     MW 1392   5.892   1.287   2.216 -0.0514 -0.1375  0.0337
  349SOL     OW 1393   6.643   8.077   8.034  0.0005 -0.3094  0.1324
  349SOL    HW1 1394   6.604   8.018   8.098 -2.3751  0.4619 -0.4951
  349SOL    HW2 1395   6.661   8.157   8.083  3.6136 -1.5425  1.0825
  349SOL     MW 1396   6.640   8.080   8.049  0.1670 -0.3715  0.1758
  350SOL     OW 1397   5.577   0.938   8.787 -0.2901 -0.1295  0.0352
  350SOL    HW1 1398   5.616   0.993   8.855 -0.7393  1.4228 -0.8870
  350SOL    HW2 1399   5.489   0.974   8.775 -0.6626 -1.1741 -0.4960
  350SOL     MW 1400   5.571   0.950   8.795 -0.4007 -0.0612 -0.1604
  351SOL     OW 1401   7.123   9.398   3.602  0.0595 -0.0808  0.5125
  351SOL    HW1 1402   7.108   9.487   3.571 -0.5893 -0.0889  0.7856
  351SOL    HW2 1403   7.152   9.349   3.524 -0.9875  0.0317  0.0411
  351SOL     MW 1404   7.125   9.403   3.588 -0.1687 -0.0668  0.4858
  352SOL     OW 1405   7.237   0.388   5.395  0.2581  0.0246  0.0179
  352SOL    HW1 1406   7.281   0.467   5.424  0.5495 -0.0181 -0.2962
  352SOL    HW2 1407   7.164   0.376   5.456  0.2567  0.4929  0.1072
  352SOL     MW 1408   7.233   0.397   5.407  0.2972  0.0819 -0.0124
  353SOL     OW 1409   7.622   0.892   8.101  0.4060 -0.0712 -0.7162
  353SOL    HW1 1410   7.552   0.855   8.047  0.6796  0.7500 -1.6634
  353SOL    HW2 1411   7.678   0.817   8.122  0.8143 -0.2927 -2.3945
  353SOL     MW 1412   7.620   0.877   8.096  0.4978  0.0095 -1.0695
  354SOL     OW 1413   6.013   0.156   7.024  0.2364  0.2213  0.2670
  354SOL    HW1 1414   6.061   0.146   6.942 -0.5778 -0.2432 -0.1655
  354SOL    HW2 1415   6.015   0.068   7.063 -0.4324  0.1511  0.1474
  354SOL     MW 1416   6.020   0.143   7.018  0.0368  0.1493  0.1927
  355SOL     OW 1417   5.486   8.218   1.778 -0.4499 -0.3836 -0.1960
  355SOL    HW1 1418   5.569   8.170   1.782  0.0644  0.4051 -0.9981
  355SOL    HW2 1419   5.511   8.305   1.747 -1.2875  0.5725  1.6694
  355SOL     MW 1420   5.501   8.223   1.775 -0.4934 -0.1488 -0.0529
  356SOL     OW 1421   5.706   8.905   1.736 -0.2516  1.2498  0.2926
  356SOL    HW1 1422   5.663   8.900   1.651  1.7958  2.8064 -0.9311
  356SOL    HW2 1423   5.721   8.999   1.749  1.1741  0.8855  1.4612
  356SOL     MW 1424   5.702   8.917   1.726  0.2158  1.4103  0.2852
  357SOL     OW 1425   6.341   1.093   0.391 -0.3436  0.2371 -0.1808
  357SOL    HW1 1426   6.344   1.175   0.341 -1.2156  0.0093 -0.6258
  357SOL    HW2 1427   6.302   1.117   0.474  0.3740  0.4626  0.1040
  357SOL     MW 1428   6.336   1.107   0.395 -0.3644  0.2368 -0.2024
  358SOL     OW 1429   5.395   8.992   6.321 -0.2721  0.5259 -0.1506
  358SOL    HW1 1430   5.446   8.937   6.262  0.3483  0.6493  0.2679
  358SOL    HW2 1431   5.459   9.046   6.366 -0.5959 -0.4288  1.5315
  358SOL     MW 1432   5.410   8.992   6.319 -0.2322  0.4141  0.1321
  359SOL     OW 1433   3.779   0.130   9.120  0.7140  0.1148 -0.1907
  359SOL    HW1 1434   3.707   0.183   9.087 -0.0830 -0.4421  0.6174
  359SOL    HW2 1435   3.830   0.190   9.174 -0.5729 -0.0563  1.2938
  359SOL     MW 1436   3.776   0.145   9.123  0.4336  0.0168  0.1178
  360SOL     OW 1437   6.829   0.669   6.402 -0.6395 -0.3217 -0.1274
  360SOL    HW1 1438   6.798   0.639   6.487 -1.5984 -0.5202 -0.5286
  360SOL    HW2 1439   6.752   0.664   6.345 -0.2570  0.6944 -0.7823
  360SOL     MW 1440   6.815   0.665   6.406 -0.7171 -0.2116 -0.2695
  361SOL     OW 1441   6.041   9.838   9.908 -0.6822 -0.1679  0.4935
  361SOL    HW1 1442   6.092   9.847   9.989 -1.2218  1.7136  0.6921
  361SOL    HW2 1443   6.082   9.765   9.862  1.0988  0.1724  1.4173
  361SOL     MW 1444   6.053   9.830   9.913 -0.5151  0.1311  0.6446
  362SOL     OW 1445   6.394   8.036   4.928 -0.1071 -0.1778 -0.9156
  362SOL    HW1 1446   6.408   7.989   5.010 -0.4122 -1.3523 -1.5076
  362SOL    HW2 1447   6.473   8.018   4.877 -0.0198  0.3577 -0.9733
  362SOL     MW 1448   6.406   8.027   4.932 -0.1364 -0.2638 -1.0031
  363SOL     OW 1449   7.841   0.325   4.522  0.6224  0.3472  0.4243
  363SOL    HW1 1450   7.842   0.330   4.617  1.5486  0.1460  0.4381
  363SOL    HW2 1451   7.824   0.414   4.493  0.5749  0.4519  0.7729
  363SOL     MW 1452   7.839   0.337   4.531  0.7406  0.3342  0.4731
  364SOL     OW 1453   7.665   0.665   1.671  0.5790  0.5297  0.0202
  364SOL    HW1 1454   7.686   0.745   1.623 -0.6204  0.8092 -0.0651
  364SOL    HW2 1455   7.641   0.695   1.758 -0.2370  0.2976 -0.1200
  364SOL     MW 1456   7.665   0.680   1.676  0.3077  0.5360 -0.0101
  365SOL     OW 1457   4.310   8.887   6.436 -0.2568 -0.1396 -0.0362
  365SOL    HW1 1458   4.351   8.950   6.377  0.9873 -0.0262  0.9073
  365SOL    HW2 1459   4.240   8.847   6.384  0.0617  0.7687 -1.2017
  365SOL     MW 1460   4.306   8.890   6.421 -0.0465 -0.0021 -0.0661
  366SOL     OW 1461   5.738   9.204   6.686 -0.0536 -0.0867 -0.6531
  366SOL    HW1 1462   5.695   9.288   6.696 -1.1534 -0.6055 -0.8819
  366SOL    HW2 1463   5.711   9.172   6.600  1.2293 -0.2001 -1.0439
  366SOL     MW 1464   5.729   9.211   6.676 -0.0289 -0.1718 -0.7365
  367SOL     OW 1465   6.215   8.996   2.877 -0.6175 -0.3503  0.1709
  367SOL    HW1 1466   6.132   9.038   2.897 -1.3663 -1.1051 -1.2697
  367SOL    HW2 1467   6.192   8.912   2.838  0.7246  0.3446 -2.3625
  367SOL     MW 1468   6.201   8.991   2.875 -0.5377 -0.3583 -0.3639
  368SOL     OW 1469   5.887   8.330   0.978  0.2775  0.8992 -0.0008
  368SOL    HW1 1470   5.900   8.376   1.061 -1.3186 -0.9863  1.4157
  368SOL    HW2 1471   5.956   8.263   0.977  0.6816  1.3155 -0.5246
  368SOL     MW 1472   5.898   8.327   0.989  0.1171  0.7014  0.1194
  369SOL     OW 1473   6.447   8.434   7.402  0.8147  0.1269 -0.0985
  369SOL    HW1 1474   6.483   8.498   7.341 -1.5089  0.8735 -0.7858
  369SOL    HW2 1475   6.372   8.397   7.356  0.5598 -1.2004  1.3174
  369SOL     MW 1476   6.442   8.438   7.388  0.4677  0.0488 -0.0005
  370SOL     OW 1477   6.064  10.064   9.082 -0.4638  0.2723  0.4789
  370SOL    HW1 1478   6.140  10.008   9.096  0.8721  1.5445 -1.2381
  370SOL    HW2 1479   6.043  10.053   8.990 -2.4762 -0.1260  0.9453
  370SOL     MW 1480   6.072  10.055   9.072 -0.5548  0.3899  0.3106
  371SOL     OW 1481   5.978   9.730   1.158  0.1679  0.1445 -0.2013
  371SOL    HW1 1482   6.056   9.686   1.126 -0.0863 -1.6548  1.4428
  371SOL    HW2 1483   6.000   9.756   1.248 -0.8628  0.2783  0.0309
  371SOL     MW 1484   5.991   9.728   1.166 -0.0050 -0.0796  0.0512
  372SOL     OW 1485   7.259   1.019   7.944  0.0162  0.3418 -0.0484
  372SOL    HW1 1486   7.173   1.038   7.907  1.5233  2.9924 -2.7425
  372SOL    HW2 1487   7.293   0.947   7.890  0.8985  1.9795 -1.8505
  372SOL     MW 1488   7.252   1.012   7.931  0.3378  0.9189 -0.6535
  373SOL     OW 1489   6.848   8.835   8.874  0.1692  0.0469  0.0140
  373SOL    HW1 1490   6.862   8.809   8.783 -1.0010 -0.0362 -0.1554
  373SOL    HW2 1491   6.931   8.817   8.917  0.8431  0.3911 -1.1100
  373SOL     MW 1492   6.861   8.829   8.868  0.1024  0.0820 -0.1601
  374SOL     OW 1493   5.889   9.307   1.693 -1.0874 -0.0492 -1.0033
  374SOL    HW1 1494   5.904   9.314   1.599 -0.9356 -1.9683 -1.1665
  374SOL    HW2 1495   5.812   9.251   1.701  0.4802 -2.2273 -0.0017
  374SOL     MW 1496   5.881   9.300   1.682 -0.8560 -0.6006 -0.8905
  375SOL     OW 1497   7.539   0.802   0.507 -0.0598  0.5454  0.4371
  375SOL    HW1 1498   7.450   0.783   0.538 -0.2876 -0.1868 -0.6156
  375SOL    HW2 1499   7.583   0.718   0.508  0.6514  0.9133  0.9877
  375SOL     MW 1500   7.533   0.788   0.511  0.0053  0.4964  0.3696
  376SOL     OW 1501   7.539   8.845   3.533  0.5157  0.1210  0.2543
  376SOL    HW1 1502   7.462   8.896   3.555  0.1684 -0.0905 -0.4387
  376SOL    HW2 1503   7.505   8.763   3.498  1.0204  0.3895 -0.9358
  376SOL     MW 1504   7.524   8.841   3.531  0.5369  0.1287  0.0009
  377SOL     OW 1505   5.663   7.511   4.964  0.0420 -0.4082  0.3437
  377SOL    HW1 1506   5.660   7.479   5.054  1.4954 -0.2426  0.4852
  377SOL    HW2 1507   5.737   7.464   4.925  0.5514  0.8116 -0.2219
  377SOL     MW 1508   5.673   7.500   4.971  0.3062 -0.2217  0.2866
  378SOL     OW 1509   5.054   1.422   3.592  0.4469  0.0616 -0.3101
  378SOL    HW1 1510   5.005   1.366   3.652  0.0817 -0.2368 -0.8794
  378SOL    HW2 1511   5.136   1.442   3.638  0.0843  0.0071  0.3674
  378SOL     MW 1512   5.058   1.417   3.607  0.3490  0.0141 -0.2955
  379SOL     OW 1513   7.666   0.711   8.745  0.4186  0.6478 -0.6545
  379SOL    HW1 1514   7.721   0.710   8.824  1.0520 -0.4186 -1.0868
  379SOL    HW2 1515   7.582   0.676   8.774  0.2673  1.3564 -0.2062
  379SOL     MW 1516   7.662   0.706   8.760  0.4835  0.5996 -0.6523
  380SOL     OW 1517   5.734   7.760   8.686  0.2419 -0.0595  0.3487
  380SOL    HW1 1518   5.817   7.787   8.647  0.4836 -0.9252  0.2456
  380SOL    HW2 1519   5.671   7.762   8.613  0.2290  0.3282  0.3678
  380SOL     MW 1520   5.737   7.764   8.671  0.2727 -0.1238  0.3374
  381SOL     OW 1521   5.493   8.881   3.114 -0.3146  0.2045  0.0337
  381SOL    HW1 1522   5.581   8.888   3.151 -0.3153  0.7183 -0.0549
  381SOL    HW2 1523   5.466   8.791   3.133  0.3007 -0.0108 -0.0950
  381SOL     MW 1524   5.501   8.870   3.121 -0.2319  0.2447  0.0044
  382SOL     OW 1525   3.941   0.735   7.415 -0.6745 -0.3506 -0.2550
  382SOL    HW1 1526   3.913   0.687   7.493  0.0674 -1.5836 -0.7207
  382SOL    HW2 1527   4.027   0.698   7.394  0.9195  2.6110  0.5510
  382SOL     MW 1528   3.949   0.723   7.423 -0.3602 -0.1180 -0.2092
  383SOL     OW 1529   6.874   7.908   0.037  0.1560  0.3012  0.0561
  383SOL    HW1 1530   6.894   7.884  -0.054 -1.9080  2.9581 -1.2454
  383SOL    HW2 1531   6.792   7.863   0.056  1.5396 -1.8244  1.4268
  383SOL     MW 1532   6.866   7.899   0.027  0.0644  0.3727  0.0654
  384SOL     OW 1533   7.259   9.728   4.079  0.3610  0.0624  0.5109
  384SOL    HW1 1534   7.204   9.753   4.006 -0.4926 -1.6440  0.5088
  384SOL    HW2 1535   7.347   9.718   4.041 -0.3654 -2.4407 -0.7460
  384SOL     MW 1536   7.264   9.730   4.064  0.1484 -0.5041  0.3415
  385SOL     OW 1537   6.397   9.550   6.712 -0.1789  0.5864  0.0252
  385SOL    HW1 1538   6.399   9.562   6.807  0.8166 -0.6908  0.1911
  385SOL    HW2 1539   6.356   9.465   6.699 -0.6700  0.9183 -0.7314
  385SOL     MW 1540   6.392   9.540   6.723 -0.1110  0.4592 -0.0543
  386SOL     OW 1541   5.904   9.410   8.264 -0.5124 -0.2111  0.7712
  386SOL    HW1 1542   5.906   9.422   8.169 -1.1866 -1.8603  0.5214
  386SOL    HW2 1543   5.811   9.410   8.286 -0.3919 -0.9080  1.2746
  386SOL     MW 1544   5.892   9.412   8.254 -0.5869 -0.5268  0.8053
  387SOL     OW 1545   4.430   0.444   4.246 -0.4861  0.3465 -0.1414
  387SOL    HW1 1546   4.349   0.489   4.268 -2.3056 -2.6365 -0.1032
  387SOL    HW2 1547   4.403   0.354   4.225  2.8546 -0.9664  0.4094
  387SOL     MW 1548   4.416   0.438   4.246 -0.2814 -0.2316 -0.0622
  388SOL     OW 1549   6.855   1.201   7.629  0.2067  0.6676 -0.4060
  388SOL    HW1 1550   6.900   1.120   7.607  0.5923  1.0469 -1.0398
  388SOL    HW2 1551   6.924   1.261   7.657 -0.1932  0.4419  1.1192
  388SOL     MW 1552   6.870   1.198   7.630  0.2048  0.6883 -0.2860
  389SOL     OW 1553   7.520   8.468   3.957 -0.3914 -0.2636 -0.2268
  389SOL    HW1 1554   7.537   8.471   3.863 -0.4347 -0.8738 -0.2609
  389SOL    HW2 1555   7.606   8.479   3.998 -0.2547 -0.7949 -0.3575
  389SOL     MW 1556   7.534   8.470   3.950 -0.3789 -0.4172 -0.2490
  390SOL     OW 1557   5.937   0.382   1.289 -0.0263 -0.1516 -0.7522
  390SOL    HW1 1558   5.890   0.408   1.210 -1.0949 -0.9402 -0.3975
  390SOL    HW2 1559   5.916   0.289   1.300  2.8316 -0.9801 -1.4038
  390SOL     MW 1560   5.928   0.373   1.280  0.2145 -0.3693 -0.7922
  391SOL     OW 1561   5.594   1.467   8.561 -0.0307 -0.5485  0.5715
  391SOL    HW1 1562   5.557   1.387   8.597 -2.3209  0.9326  1.7684
  391SOL    HW2 1563   5.689   1.452   8.562 -0.3370 -2.8125  1.7470
  391SOL     MW 1564   5.602   1.454   8.566 -0.3801 -0.6539  0.8908
  392SOL     OW 1565   6.493   1.119   2.356 -0.2567 -0.0578  0.1890
  392SOL    HW1 1566   6.445   1.100   2.275 -0.8312  2.2888 -0.1241
  392SOL    HW2 1567   6.458   1.057   2.420 -0.4961 -1.3184 -1.1080
  392SOL     MW 1568   6.482   1.108   2.353 -0.3662  0.0884 -0.0277
  393SOL     OW 1569   4.334   8.792  10.074 -0.3768 -0.2362  0.3743
  393SOL    HW1 1570   4.316   8.731  10.145 -1.4431  0.8429  1.0871
  393SOL    HW2 1571   4.253   8.843  10.065 -0.2166 -0.2342 -1.5226
  393SOL     MW 1572   4.321   8.791  10.082 -0.4987 -0.0907  0.2150
  394SOL     OW 1573   7.668   8.388   0.274 -0.1103 -0.3062 -0.1704
  394SOL    HW1 1574   7.706   8.301   0.264 -0.8235 -0.7915  1.0109
  394SOL    HW2 1575   7.575   8.376   0.254 -0.2633  0.1135  0.2525
  394SOL     MW 1576   7.660   8.375   0.270 -0.2268 -0.3151  0.0455
  395SOL     OW 1577   6.777   0.417   5.070  0.0824 -0.0094 -0.1637
  395SOL    HW1 1578   6.700   0.405   5.126  0.2163 -1.7546 -0.2756
  395SOL    HW2 1579   6.848   0.435   5.131 -0.0695 -0.3074  0.1093
  395SOL     MW 1580   6.776   0.418   5.086  0.0800 -0.2844 -0.1421
  396SOL     OW 1581   6.116   9.946   3.683  0.5095 -0.5272  0.0808
  396SOL    HW1 1582   6.157   9.996   3.754 -0.8426  1.5219 -0.4734
  396SOL    HW2 1583   6.165   9.971   3.605  0.5508 -0.9865 -0.0413
  396SOL     MW 1584   6.128   9.956   3.682  0.3331 -0.3133 -0.0102
  397SOL     OW 1585   6.123   9.953   7.898 -0.3580  0.2619  0.2458
  397SOL    HW1 1586   6.118   9.878   7.958 -0.9725  1.2682  1.5223
  397SOL    HW2 1587   6.150   9.916   7.815  0.2127 -1.2562  1.0663
  397SOL     MW 1588   6.126   9.938   7.895 -0.3639  0.1930  0.5280
  398SOL     OW 1589   6.138   0.582   0.521  0.1695 -0.1484 -0.4823
  398SOL    HW1 1590   6.232   0.595   0.504  0.2106  0.9311  0.4853
  398SOL    HW2 1591   6.135   0.512   0.586  0.4216  0.9366  0.7410
  398SOL     MW 1592   6.151   0.575   0.527  0.2089  0.1429 -0.1875
  399SOL     OW 1593   4.774   9.017   4.648 -0.0898 -0.3683 -0.1956
  399SOL    HW1 1594   4.749   8.998   4.558  0.6785 -2.1399 -0.0818
  399SOL    HW2 1595   4.869   9.029   4.645  0.2523 -2.3536  0.5875
  399SOL     MW 1596   4.783   9.016   4.635  0.0597 -0.8739 -0.0749
  400SOL     OW 1597   7.695   9.611   4.319  0.1371  0.4644 -0.0563
  400SOL    HW1 1598   7.713   9.578   4.407  3.0486 -0.7377 -0.9844
  400SOL    HW2 1599   7.610   9.574   4.296  0.0496 -0.4851  1.6528
  400SOL     MW 1600   7.686   9.602   4.328  0.5172  0.1749  0.0488
  401SOL     OW 1601   6.279   1.718   9.418 -0.0853  0.2682  0.1510
  401SOL    HW1 1602   6.320   1.636   9.447 -1.3842 -0.3773  0.2484
  401SOL    HW2 1603   6.351   1.769   9.380  0.4536 -1.6489 -1.5721
  401SOL     MW 1604   6.294   1.714   9.417 -0.1876 -0.0767 -0.0678
  402SOL     OW 1605   6.411   0.891   3.705 -0.6621  0.0541 -0.3390
  402SOL    HW1 1606   6.383   0.946   3.778 -1.3047 -1.5828  0.7042
  402SOL    HW2 1607   6.440   0.953   3.638  0.8529  1.6060  1.6245
  402SOL     MW 1608   6.411   0.907   3.705 -0.5447  0.0427  0.0657
  403SOL     OW 1609   3.911   0.005   1.626 -0.4850 -0.4460  0.2422
  403SOL    HW1 1610   3.942  -0.043   1.702  0.9990 -0.8293 -0.5667
  403SOL    HW2 1611   3.901   0.095   1.657  2.3859 -0.0793  0.3784
  403SOL     MW 1612   3.914   0.011   1.640  0.1011 -0.4483  0.1517
  404SOL     OW 1613   4.851   0.831   1.366 -0.0801  0.8988 -0.2826
  404SOL    HW1 1614   4.875   0.804   1.278 -0.9301  0.6264 -0.4416
  404SOL    HW2 1615   4.892   0.917   1.377  0.5662  0.6441 -0.6988
  404SOL     MW 1616   4.859   0.839   1.355 -0.1075  0.8279 -0.3600
  405SOL     OW 1617   6.712   9.208   5.755  0.3218  0.3389 -0.6962
  405SOL    HW1 1618   6.619   9.200   5.737  0.5307  0.0771 -1.7793
  405SOL    HW2 1619   6.754   9.150   5.690  1.1266 -1.4158  1.2761
  405SOL     MW 1620   6.705   9.199   5.744  0.4583  0.0675 -0.5766
  406SOL     OW 1621   4.204  10.145   3.479  0.0582 -0.5920 -0.0235
  406SOL    HW1 1622   4.137  10.124   3.543 -0.2216 -0.7198 -0.3541
  406SOL    HW2 1623   4.195  10.077   3.412 -0.0043 -0.1549 -0.4607
  406SOL     MW 1624   4.194  10.133   3.478  0.0121 -0.5504 -0.1269
  407SOL     OW 1625   6.849   1.407   7.038 -0.0109 -0.0216 -0.0735
  407SOL    HW1 1626   6.763   1.415   6.996  0.7269  0.8456 -1.4789
  407SOL    HW2 1627   6.829   1.404   7.132 -1.5081  1.9424 -0.2496
  407SOL     MW 1628   6.834   1.408   7.045 -0.1131  0.3594 -0.2864
  408SOL     OW 1629   3.862   0.324   1.104 -0.2189 -0.7103  0.0182
  408SOL    HW1 1630   3.910   0.405   1.124  0.8671 -1.2959 -0.1710
  408SOL    HW2 1631   3.925   0.254   1.120 -1.3342 -1.5778  0.7737
  408SOL     MW 1632   3.877   0.326   1.109 -0.2229 -0.9058  0.0944
  409SOL     OW 1633   8.153   9.669   1.207 -0.9113  0.0207  0.5098
  409SOL    HW1 1634   8.095   9.669   1.131 -0.2968 -1.5973  0.0036
  409SOL    HW2 1635   8.133   9.588   1.253  1.3527 -0.9431 -0.0401
  409SOL     MW 1636   8.143   9.658   1.203 -0.5240 -0.3267  0.3677
  410SOL     OW 1637   7.099   0.599   4.032 -0.1117  0.0511 -0.1186
  410SOL    HW1 1638   7.014   0.622   4.069  0.1574 -0.0376  0.5687
  410SOL    HW2 1639   7.112   0.508   4.056  1.5178  0.8728  2.4555
  410SOL     MW 1640   7.089   0.590   4.040  0.1438  0.1497  0.3203
  411SOL     OW 1641   6.444   1.425   1.325  0.2247  0.0439  0.0967
  411SOL    HW1 1642   6.430   1.470   1.408 -1.0843  1.4790 -0.8585
  411SOL    HW2 1643   6.511   1.476   1.281  0.8004 -0.6239  0.1683
  411SOL     MW 1644   6.451   1.438   1.330  0.1260  0.1472 -0.0222
  412SOL     OW 1645   4.005   0.076   8.927 -0.1808 -0.2446 -0.3125
  412SOL    HW1 1646   4.046   0.016   8.990  0.2080  0.3641  0.0183
  412SOL    HW2 1647   3.933   0.116   8.975 -0.1942 -0.1547 -0.4077
  412SOL     MW 1648   4.001   0.073   8.942 -0.1303 -0.1506 -0.2808
  413SOL     OW 1649   5.034   7.771   1.997  0.0855  0.0927 -0.1299
  413SOL    HW1 1650   5.110   7.823   2.023  1.3153 -1.7887  0.2574
  413SOL    HW2 1651   4.976   7.772   2.073  1.2240 -1.0328  0.7996
  413SOL     MW 1652   5.036   7.778   2.010  0.4042 -0.3120  0.0473
  414SOL     OW 1653   7.842   8.841   2.353  0.9239  0.3510 -0.0155
  414SOL    HW1 1654   7.823   8.766   2.297  0.9747  0.7098 -0.5198
  414SOL    HW2 1655   7.822   8.811   2.441  1.3687 -0.4048 -0.1622
  414SOL     MW 1656   7.837   8.827   2.357  0.9906  0.2976 -0.1031
  415SOL     OW 1657   5.632   8.673   0.806 -0.7503  0.9544 -0.1277
  415SOL    HW1 1658   5.631   8.584   0.770  2.7847  0.9408 -0.5153
  415SOL    HW2 1659   5.636   8.730   0.729  1.4799  1.1613  0.0677
  415SOL     MW 1660   5.632   8.669   0.791  0.0256  0.9804 -0.1535
  416SOL     OW 1661   5.312   0.873   2.013 -0.5821  0.2811 -0.1830
  416SOL    HW1 1662   5.234   0.826   2.042 -0.3379  0.1592  0.2896
  416SOL    HW2 1663   5.379   0.851   2.078 -0.3583  0.9687 -0.1655
  416SOL     MW 1664   5.310   0.864   2.026 -0.5191  0.3572 -0.1170
  417SOL     OW 1665   5.283   0.695   8.795 -0.0587  0.0672  0.5444
  417SOL    HW1 1666   5.330   0.636   8.854  0.5692 -0.6885 -0.6609
  417SOL    HW2 1667   5.319   0.675   8.709 -0.5707  1.5138 -0.0280
  417SOL     MW 1668   5.294   0.684   8.792 -0.0431  0.1602  0.3051
  418SOL     OW 1669   6.843   9.989   9.360  0.3145 -0.1924 -0.3546
  418SOL    HW1 1670   6.797   9.949   9.433  3.4211 -0.9372  1.3672
  418SOL    HW2 1671   6.825   9.931   9.286  2.5951 -3.6257  1.4719
  418SOL     MW 1672   6.834   9.976   9.360  1.0395 -0.7547  0.1230
  419SOL     OW 1673   6.426   8.724   2.852 -0.1005 -0.2539 -0.0420
  419SOL    HW1 1674   6.336   8.737   2.821  0.1368  2.7643  0.3134
  419SOL    HW2 1675   6.476   8.795   2.813  1.8156 -0.8872  1.1209
  419SOL     MW 1676   6.421   8.735   2.843  0.1893  0.0671  0.1623
  420SOL     OW 1677   5.287   1.497   9.876  0.0684  0.1466  0.8073
  420SOL    HW1 1678   5.223   1.555   9.834  0.8511  1.9830  2.0187
  420SOL    HW2 1679   5.276   1.413   9.832 -1.7890  0.9469 -0.3737
  420SOL     MW 1680   5.277   1.493   9.865 -0.0762  0.5014  0.8114
  421SOL     OW 1681   6.984   0.937   2.630  0.4730  0.0942 -0.1711
  421SOL    HW1 1682   7.056   0.875   2.619  0.6165 -0.0087  1.1698
  421SOL    HW2 1683   6.926   0.920   2.556  1.1722 -0.7200 -0.5478
  421SOL     MW 1684   6.986   0.927   2.619  0.5864 -0.0292 -0.0414
  422SOL     OW 1685   4.724   0.047   9.800  0.4059 -0.2668 -0.2817
  422SOL    HW1 1686   4.776  -0.033   9.804  1.3122  0.3007 -0.1669
  422SOL    HW2 1687   4.711   0.072   9.891  2.3774  1.0700 -0.2781
  422SOL     MW 1688   4.730   0.040   9.813  0.7932 -0.0105 -0.2658
  423SOL     OW 1689   7.277   8.515   7.467 -0.4866 -0.0371  0.1452
  423SOL    HW1 1690   7.273   8.457   7.543 -0.1402 -1.4582 -0.8655
  423SOL    HW2 1691   7.186   8.520   7.436 -0.3260 -1.2155 -0.5761
  423SOL     MW 1692   7.264   8.508   7.473 -0.4184 -0.3869 -0.0879
  424SOL     OW 1693   5.996   0.156   5.192  0.0754 -0.5361 -0.3065
  424SOL    HW1 1694   6.022   0.083   5.248  2.9033 -0.3637 -1.1975
  424SOL    HW2 1695   5.994   0.232   5.250 -0.8928 -0.9753  0.2508
  424SOL     MW 1696   5.999   0.156   5.207  0.3256 -0.5720 -0.3514
  425SOL     OW 1697   4.970   9.862   8.230  0.6522  0.5558 -0.2485
  425SOL    HW1 1698   4.987   9.847   8.137 -1.5533 -2.3557 -0.3365
  425SOL    HW2 1699   4.896   9.924   8.231 -0.4961 -0.7441 -0.5918
  425SOL     MW 1700   4.962   9.868   8.218  0.2008 -0.0109 -0.3065
  426SOL     OW 1701   7.718   9.001   4.329 -0.1538  0.2755 -0.0502
  426SOL    HW1 1702   7.648   8.984   4.392 -0.4838  1.3145 -0.1082
  426SOL    HW2 1703   7.798   8.989   4.379 -0.3742 -0.6399  0.0965
  426SOL     MW 1704   7.719   8.997   4.344 -0.2279  0.2922 -0.0383
  427SOL     OW 1705   5.245   9.267   3.635 -0.3099  0.4983  0.3862
  427SOL    HW1 1706   5.290   9.199   3.686  0.5187 -0.3834 -1.4199
  427SOL    HW2 1707   5.162   9.282   3.681  0.1493 -0.6731  1.6333
  427SOL     MW 1708   5.240   9.260   3.648 -0.1366  0.2220  0.3109
  428SOL     OW 1709   5.792  10.124   7.310 -0.6872  0.0753 -0.2728
  428SOL    HW1 1710   5.794  10.061   7.381 -2.1428  0.5790  0.2554
  428SOL    HW2 1711   5.803  10.209   7.353  0.1304  0.2750 -0.8512
  428SOL     MW 1712   5.793  10.127   7.325 -0.7731  0.1700 -0.2795
  429SOL     OW 1713   7.489   9.677   6.677  0.0334 -0.2244  0.4194
  429SOL    HW1 1714   7.572   9.685   6.631  0.1510 -0.4207  0.5981
  429SOL    HW2 1715   7.425   9.715   6.617 -0.0961 -2.1193 -0.7326
  429SOL     MW 1716   7.491   9.683   6.663  0.0318 -0.5058  0.2884
  430SOL     OW 1717   7.815   9.970   5.507 -0.0109  0.1237 -0.4500
  430SOL    HW1 1718   7.759   9.977   5.429 -0.9291  1.4405  0.3005
  430SOL    HW2 1719   7.754   9.970   5.581  0.9078 -0.1491  0.3254
  430SOL     MW 1720   7.799   9.971   5.506 -0.0108  0.2642 -0.2447
  431SOL     OW 1721   4.658   8.899   3.716  0.4834  0.6113 -0.0071
  431SOL    HW1 1722   4.702   8.983   3.708  1.8633  0.1322  1.8560
  431SOL    HW2 1723   4.715   8.847   3.773 -1.0224 -1.1034  0.0363
  431SOL     MW 1724   4.672   8.903   3.723  0.4664  0.3160  0.2495
  432SOL     OW 1725   7.305   8.441   6.839  0.1063 -0.5384 -0.3022
  432SOL    HW1 1726   7.258   8.519   6.809 -0.0963 -0.2721  0.6706
  432SOL    HW2 1727   7.253   8.368   6.805  0.3207 -0.2641 -1.2517
  432SOL     MW 1728   7.291   8.441   6.830  0.1079 -0.4656 -0.2991
  433SOL     OW 1729   4.311   8.167   1.977  0.6447  0.3026  0.2456
  433SOL    HW1 1730   4.264   8.244   2.009 -0.3981 -0.3200  0.2439
  433SOL    HW2 1731   4.321   8.182   1.883 -1.0408 -0.3086 -0.0577
  433SOL     MW 1732   4.306   8.180   1.969  0.2776  0.1366  0.2045
  434SOL     OW 1733   4.077   0.017   5.444  0.1257  0.3359  0.8766
  434SOL    HW1 1734   4.123   0.061   5.373 -1.3492 -0.1303 -0.4334
  434SOL    HW2 1735   4.012  -0.038   5.400 -0.7537 -0.0705  2.5884
  434SOL     MW 1736   4.075   0.015   5.429 -0.1911  0.2184  0.9307
  435SOL     OW 1737   5.226   8.212   4.825  0.2386  0.0086 -0.1201
  435SOL    HW1 1738   5.204   8.244   4.913  0.2141 -0.7720  0.1623
  435SOL    HW2 1739   5.317   8.238   4.813  0.1373  0.4280 -0.0046
  435SOL     MW 1740   5.235   8.220   4.835  0.2216 -0.0400 -0.0666
  436SOL     OW 1741   5.426   0.904   4.651 -0.0379  0.1627  0.0780
  436SOL    HW1 1742   5.457   0.976   4.705 -0.4779 -0.3275  1.0201
  436SOL    HW2 1743   5.445   0.826   4.702 -1.2885 -0.2593 -0.0570
  436SOL     MW 1744   5.433   0.903   4.665 -0.2654  0.0399  0.1866
  437SOL     OW 1745   7.715   9.090   2.427 -0.7966 -0.7822  0.0260
  437SOL    HW1 1746   7.677   9.133   2.351 -0.3300 -0.3369  0.0453
  437SOL    HW2 1747   7.745   9.005   2.394 -1.0861 -0.8130 -0.1636
  437SOL     MW 1748   7.714   9.084   2.413 -0.7728 -0.7264  0.0031
  438SOL     OW 1749   5.577   9.591   8.794  0.0466  0.2390  0.4929
  438SOL    HW1 1750   5.549   9.656   8.730  2.0676  0.9252  0.2354
  438SOL    HW2 1751   5.523   9.514   8.775 -0.5136  0.9524 -0.9650
  438SOL     MW 1752   5.566   9.589   8.783  0.2432  0.4273  0.2620
  439SOL     OW 1753   7.581   8.517   3.262  0.3816  0.3724  0.1636
  439SOL    HW1 1754   7.663   8.513   3.312  1.0771  0.9270 -0.8867
  439SOL    HW2 1755   7.586   8.442   3.202 -0.9533 -0.9503  1.6126
  439SOL     MW 1756   7.593   8.507   3.261  0.2955  0.2690  0.2172
  440SOL     OW 1757   3.579   9.055   1.676 -0.5394 -0.0893  0.3856
  440SOL    HW1 1758   3.584   9.118   1.748 -1.9428  0.0809  0.3494
  440SOL    HW2 1759   3.486   9.050   1.654 -0.3283 -1.3929 -0.3103
  440SOL     MW 1760   3.568   9.063   1.683 -0.6998 -0.2418  0.2871
  441SOL     OW 1761   4.954   8.032   1.427 -0.0674  0.4026  0.0964
  441SOL    HW1 1762   4.870   8.011   1.387  0.5449  1.7786 -2.0674
  441SOL    HW2 1763   4.963   8.126   1.415  2.2947  0.1202 -0.8172
  441SOL     MW 1764   4.944   8.042   1.420  0.3329  0.5498 -0.3177
  442SOL     OW 1765   6.190   8.628   9.364 -0.0708 -0.0801  0.5889
  442SOL    HW1 1766   6.187   8.535   9.346  0.7914 -0.2624  1.2915
  442SOL    HW2 1767   6.101   8.650   9.392 -0.5057 -0.4937 -0.4199
  442SOL     MW 1768   6.178   8.619   9.366 -0.0133 -0.1603  0.5477
  443SOL     OW 1769   5.848   9.716   2.759  0.3359 -0.5342 -0.4369
  443SOL    HW1 1770   5.914   9.775   2.796  1.3582 -1.7759 -0.2194
  443SOL    HW2 1771   5.838   9.745   2.668 -0.3949  0.9900  0.0992
  443SOL     MW 1772   5.855   9.728   2.751  0.3752 -0.4962 -0.3355
  444SOL     OW 1773   6.902   8.112   0.377  0.1995  0.0008 -0.2023
  444SOL    HW1 1774   6.844   8.042   0.351 -2.1944  1.1340  1.6801
  444SOL    HW2 1775   6.926   8.092   0.468 -0.2465  1.3916  0.2524
  444SOL     MW 1776   6.898   8.100   0.386 -0.1827  0.3404  0.1123
  445SOL     OW 1777   4.790   9.379   7.806  0.0389  0.0742 -0.4453
  445SOL    HW1 1778   4.850   9.344   7.740 -0.6773 -0.5192 -0.7950
  445SOL    HW2 1779   4.840   9.376   7.888  0.3649 -0.7515 -0.6666
  445SOL     MW 1780   4.805   9.374   7.808 -0.0136 -0.1168 -0.5221
  446SOL     OW 1781   6.273   0.175   1.772 -0.4092 -0.2724 -0.1493
  446SOL    HW1 1782   6.321   0.251   1.805  0.3142 -0.2679 -1.1801
  446SOL    HW2 1783   6.252   0.197   1.682 -0.2067 -1.2917 -0.4562
  446SOL     MW 1784   6.277   0.188   1.764 -0.2846 -0.4090 -0.3294
  447SOL     OW 1785   4.485   8.510   4.369 -0.6529  0.6591  0.1707
  447SOL    HW1 1786   4.530   8.497   4.453  0.3489  0.9259 -0.3064
  447SOL    HW2 1787   4.447   8.425   4.349 -2.7626  1.0920  1.9025
  447SOL     MW 1788   4.486   8.497   4.378 -0.8020  0.7533  0.3396
  448SOL     OW 1789   5.747   8.936   7.683 -0.0628  0.1008 -0.1745
  448SOL    HW1 1790   5.805   8.967   7.614 -0.2881 -0.4874 -0.6387
  448SOL    HW2 1791   5.712   9.016   7.723  0.4702  0.4468 -0.3913
  448SOL     MW 1792   5.750   8.951   7.679 -0.0214  0.0682 -0.2662
  449SOL     OW 1793   4.414   0.889   7.321 -0.3606  0.0671 -0.5713
  449SOL    HW1 1794   4.504   0.901   7.290 -0.8092  0.8566 -1.6450
  449SOL    HW2 1795   4.384   0.978   7.343 -1.0960 -0.0922 -0.8916
  449SOL     MW 1796   4.422   0.903   7.320 -0.5200  0.1519 -0.7589
  450SOL     OW 1797   3.848   9.337   8.495  0.2436 -0.7033 -0.4244
  450SOL    HW1 1798   3.810   9.317   8.580  0.6967 -0.1608 -0.0905
  450SOL    HW2 1799   3.783   9.392   8.452 -0.0203 -1.0429 -0.4664
  450SOL     MW 1800   3.834   9.341   8.500  0.2691 -0.6760 -0.3851
  451SOL     OW 1801   3.731   9.046   9.283 -0.2171  0.2912 -0.1128
  451SOL    HW1 1802   3.730   8.999   9.200  0.2878  1.0050 -0.5324
  451SOL    HW2 1803   3.751   9.136   9.259 -0.9100  0.6725  0.7049
  451SOL     MW 1804   3.734   9.052   9.269 -0.2424  0.4386 -0.0592
  452SOL     OW 1805   4.642   0.629   0.171  0.3184  0.3295 -0.0966
  452SOL    HW1 1806   4.573   0.695   0.158 -1.2257 -1.1903  0.0080
  452SOL    HW2 1807   4.620   0.588   0.255  1.1436 -0.4190 -0.2312
  452SOL     MW 1808   4.630   0.632   0.180  0.2216  0.0242 -0.1006
  453SOL     OW 1809   6.156   1.145   3.459  0.4618 -0.2043  0.2693
  453SOL    HW1 1810   6.149   1.202   3.536  0.5131  0.8987 -0.5287
  453SOL    HW2 1811   6.074   1.097   3.458  0.3902 -0.1072  0.9245
  453SOL     MW 1812   6.144   1.146   3.469  0.4591 -0.0428  0.2501
  454SOL     OW 1813   6.149   7.908   4.862 -0.3022 -0.2576 -0.6968
  454SOL    HW1 1814   6.224   7.956   4.896 -1.0122  0.7495 -0.5070
  454SOL    HW2 1815   6.184   7.823   4.837  1.0066  0.3801 -1.1050
  454SOL     MW 1816   6.163   7.903   4.863 -0.2216 -0.0362 -0.7262
  455SOL     OW 1817   5.154   7.844   8.500  0.2070 -0.0593  0.2136
  455SOL    HW1 1818   5.163   7.795   8.419 -0.9361  1.5318 -0.9299
  455SOL    HW2 1819   5.103   7.786   8.557  0.0108 -0.7184 -0.6127
  455SOL     MW 1820   5.149   7.829   8.497  0.0268  0.0661 -0.0515
  456SOL     OW 1821   6.777   1.132   3.898 -0.6202  0.2522  0.2985
  456SOL    HW1 1822   6.786   1.140   3.994  0.2203 -2.5695  0.5399
  456SOL    HW2 1823   6.735   1.047   3.885 -1.4242  0.9324 -1.8629
  456SOL     MW 1824   6.773   1.122   3.909 -0.6153 -0.0360  0.0401
  457SOL     OW 1825   6.563   8.841   4.986  0.7325  0.4696  0.2502
  457SOL    HW1 1826   6.529   8.927   4.962  1.7647  0.7188 -0.3410
  457SOL    HW2 1827   6.537   8.830   5.077 -2.6879 -0.1988 -0.6347
  457SOL     MW 1828   6.555   8.851   4.995  0.4111  0.4132  0.0516
  458SOL     OW 1829   6.331   1.453   7.667  1.0052  0.0777  0.4911
  458SOL    HW1 1830   6.364   1.366   7.689  1.6251 -0.2218 -1.4003
  458SOL    HW2 1831   6.407   1.510   7.668  0.8905  0.2454  0.1380
  458SOL     MW 1832   6.345   1.449   7.670  1.0732  0.0600  0.1890
  459SOL     OW 1833   7.194   1.469   4.113 -0.2759  0.1715  0.1292
  459SOL    HW1 1834   7.129   1.538   4.122  0.9304  1.7264 -1.9864
  459SOL    HW2 1835   7.277   1.516   4.101  0.8176 -1.6734  0.0928
  459SOL     MW 1836   7.197   1.485   4.113  0.0336  0.1325 -0.1604
  460SOL     OW 1837   6.179   0.034   7.617  0.4490 -0.2221  0.0922
  460SOL    HW1 1838   6.181   0.077   7.532  0.4824  0.9111  0.6473
  460SOL    HW2 1839   6.085   0.022   7.636  0.4484 -2.4729 -1.0484
  460SOL     MW 1840   6.166   0.038   7.608  0.4534 -0.3725  0.0134
  461SOL     OW 1841   7.500   8.572   6.671 -0.3060  0.1934  0.4797
  461SOL    HW1 1842   7.569   8.585   6.736  0.7050  1.1923 -0.7493
  461SOL    HW2 1843   7.443   8.505   6.709  1.0261 -0.2411  1.7719
  461SOL     MW 1844   7.501   8.565   6.685  0.0094  0.2694  0.4882
  462SOL     OW 1845   6.550   1.230   9.573  0.0841 -0.5163 -0.0583
  462SOL    HW1 1846   6.534   1.253   9.664  0.1580 -0.1872 -0.1260
  462SOL    HW2 1847   6.646   1.229   9.566  0.0981 -1.6011  0.1284
  462SOL     MW 1848   6.561   1.233   9.584  0.0959 -0.6180 -0.0423
  463SOL     OW 1849   4.053   9.336   9.813  0.1571  0.6831 -0.6190
  463SOL    HW1 1850   4.028   9.368   9.900 -0.3957 -0.4045 -0.3552
  463SOL    HW2 1851   4.134   9.286   9.828 -0.9112 -1.0859 -0.3539
  463SOL     MW 1852   4.061   9.333   9.827 -0.0611  0.2987 -0.5478
  464SOL     OW 1853   5.855   9.244   0.908  0.6606 -0.4860  0.1630
  464SOL    HW1 1854   5.932   9.208   0.951  1.3551  0.7706 -0.0115
  464SOL    HW2 1855   5.837   9.183   0.836  1.6432 -0.6516  0.0455
  464SOL     MW 1856   5.863   9.231   0.904  0.8863 -0.3391  0.1237
  465SOL     OW 1857   4.998   0.860   3.889 -0.2719  0.5705 -0.5279
  465SOL    HW1 1858   4.961   0.887   3.973  0.3427 -0.1494 -0.0080
  465SOL    HW2 1859   5.064   0.927   3.868  1.5758 -0.6608  0.9777
  465SOL     MW 1860   5.002   0.873   3.897  0.0595  0.3079 -0.2553
  466SOL     OW 1861   6.546   9.773   9.142 -0.0560 -0.1398 -0.1348
  466SOL    HW1 1862   6.523   9.847   9.085  2.3495  0.6220 -0.2341
  466SOL    HW2 1863   6.519   9.696   9.093 -0.4694  0.5862 -1.0980
  466SOL     MW 1864   6.539   9.773   9.128  0.2121  0.0604 -0.2778
  467SOL     OW 1865   7.313   8.881   2.242 -0.2189 -0.4157 -0.0110
  467SOL    HW1 1866   7.369   8.862   2.166  0.1394  1.3416 -0.2214
  467SOL    HW2 1867   7.230   8.909   2.204 -1.1019 -2.4255  0.3037
  467SOL     MW 1868   7.309   8.882   2.226 -0.2895 -0.4497  0.0031
  468SOL     OW 1869   4.350   1.169   5.232 -0.2929 -0.5378 -0.5438
  468SOL    HW1 1870   4.388   1.239   5.179 -0.0527 -0.1043  0.1804
  468SOL    HW2 1871   4.378   1.189   5.321  1.2528 -2.5153 -0.5237
  468SOL     MW 1872   4.359   1.181   5.237 -0.0526 -0.7456 -0.4436
  469SOL     OW 1873   4.616   0.980   8.914  0.3537  0.5804  0.2075
  469SOL    HW1 1874   4.611   1.025   8.999 -0.8064  0.2550  0.3288
  469SOL    HW2 1875   4.651   0.894   8.935 -1.7069 -0.2045  0.6860
  469SOL     MW 1876   4.620   0.975   8.929 -0.0797  0.4309  0.2883
  470SOL     OW 1877   3.549   9.078   2.269 -0.3916  0.4614 -0.1528
  470SOL    HW1 1878   3.522   8.987   2.276  2.0904 -0.2588  1.1048
  470SOL    HW2 1879   3.627   9.077   2.215 -1.7268  2.2528 -2.3292
  470SOL     MW 1880   3.556   9.066   2.263 -0.2373  0.6056 -0.2765
  471SOL     OW 1881   5.252   8.570   9.521 -0.3541 -0.4910 -0.2034
  471SOL    HW1 1882   5.338   8.530   9.532  0.3790  1.1121  0.2968
  471SOL    HW2 1883   5.216   8.530   9.442  1.7182  0.2091 -1.5845
  471SOL     MW 1884   5.258   8.559   9.512  0.0234 -0.1810 -0.3220
  472SOL     OW 1885   7.022   9.034   4.015 -0.0386  0.5421 -0.2704
  472SOL    HW1 1886   6.928   9.029   4.036 -0.5267  2.5540 -1.5884
  472SOL    HW2 1887   7.041   9.128   4.016  2.3878  0.1209  1.4606
  472SOL     MW 1888   7.012   9.046   4.018  0.2223  0.7562 -0.2148
  473SOL     OW 1889   4.178   0.860   1.627 -0.6779  0.1724  0.6300
  473SOL    HW1 1890   4.106   0.813   1.583 -0.6439  1.0897 -0.4518
  473SOL    HW2 1891   4.248   0.795   1.634 -1.0118 -0.2482  0.1422
  473SOL     MW 1892   4.178   0.845   1.622 -0.7183  0.2393  0.4187
  474SOL     OW 1893   7.213   1.136   7.049 -0.0690  0.1059 -0.0559
  474SOL    HW1 1894   7.306   1.152   7.067 -0.0247 -0.2109  0.0106
  474SOL    HW2 1895   7.176   1.223   7.034 -0.2503  0.4688  2.1769
  474SOL     MW 1896   7.221   1.150   7.050 -0.0875  0.1121  0.2535
  475SOL     OW 1897   6.440   1.395   4.911  0.4570 -0.0134  0.8382
  475SOL    HW1 1898   6.424   1.321   4.970 -2.2427 -0.2586 -0.0711
  475SOL    HW2 1899   6.413   1.363   4.825  1.7478  1.2258 -0.0842
  475SOL     MW 1900   6.434   1.381   4.907  0.2674  0.1204  0.5917
  476SOL     OW 1901   5.609   7.641   0.818  0.2563 -0.5025  0.1684
  476SOL    HW1 1902   5.646   7.715   0.866 -0.0501 -1.0129  1.2233
  476SOL    HW2 1903   5.515   7.651   0.828 -0.0241  0.9361 -2.7158
  476SOL     MW 1904   5.602   7.652   0.826  0.1773 -0.3776 -0.0778
  477SOL     OW 1905   6.415   2.098   6.951  0.2279 -0.1469 -0.2290
  477SOL    HW1 1906   6.437   2.166   6.887  2.1789 -0.2171  0.3099
  477SOL    HW2 1907   6.430   2.016   6.904 -1.4191 -0.2509 -0.6443
  477SOL     MW 1908   6.420   2.096   6.936  0.2688 -0.1704 -0.2124
  478SOL     OW 1909   7.330   0.317   3.795  0.0341  0.2672 -0.1024
  478SOL    HW1 1910   7.354   0.368   3.873  0.6776  1.2616 -0.9352
  478SOL    HW2 1911   7.402   0.330   3.734  0.3631 -1.8857 -0.2621
  478SOL     MW 1912   7.343   0.325   3.797  0.1650  0.1113 -0.2360
  479SOL     OW 1913   7.262   0.338   8.085  0.4200 -0.2126  0.0694
  479SOL    HW1 1914   7.190   0.361   8.026 -0.2602 -0.0197  0.9460
  479SOL    HW2 1915   7.233   0.257   8.128 -0.2654  0.9649  1.9706
  479SOL     MW 1916   7.248   0.330   8.083  0.2362 -0.0282  0.4432
  480SOL     OW 1917   5.006   0.913   6.610  0.2194 -0.3376  0.1905
  480SOL    HW1 1918   5.056   0.927   6.690 -1.1863  1.0013  0.8734
  480SOL    HW2 1919   5.025   0.822   6.586  2.6678 -0.0069  0.5896
  480SOL     MW 1920   5.015   0.902   6.618  0.3597 -0.1129  0.3362
  481SOL     OW 1921   6.263   8.718   7.545  0.5875  0.1375 -0.2843
  481SOL    HW1 1922   6.347   8.673   7.549  0.1219 -0.7802 -0.5568
  481SOL    HW2 1923   6.215   8.687   7.622  0.7490  1.1962  0.2613
  481SOL     MW 1924   6.268   8.707   7.556  0.5466  0.1565 -0.2476
  482SOL     OW 1925   6.641   8.325   1.388 -0.5955 -0.2959 -0.6383
  482SOL    HW1 1926   6.602   8.286   1.309  0.9983  0.4710 -1.8533
  482SOL    HW2 1927   6.711   8.381   1.355  0.3956 -0.2819  1.3591
  482SOL     MW 1928   6.645   8.327   1.373 -0.2477 -0.1908 -0.5330
  483SOL     OW 1929   5.266   1.331   5.126 -0.1452  0.0939 -0.1882
  483SOL    HW1 1930   5.173   1.324   5.103 -0.6575  0.7856  1.4669
  483SOL    HW2 1931   5.266   1.382   5.207  1.6734 -0.1338 -0.0107
  483SOL     MW 1932   5.254   1.337   5.134  0.0306  0.1563  0.0584
  484SOL     OW 1933   6.475   0.103   5.232  0.2050 -0.1588 -0.4990
  484SOL    HW1 1934   6.535   0.060   5.171  0.3967 -0.2067 -0.2784
  484SOL    HW2 1935   6.493   0.196   5.221 -0.5782 -0.0907 -1.3571
  484SOL     MW 1936   6.485   0.110   5.223  0.1254 -0.1561 -0.5848
  485SOL     OW 1937   5.997  10.065   7.135  0.2848  0.3175 -0.3041
  485SOL    HW1 1938   5.937  10.090   7.206 -0.9654 -1.7214 -0.5596
  485SOL    HW2 1939   6.075  10.033   7.180 -0.5081 -0.9902  0.2051
  485SOL     MW 1940   5.999  10.064   7.151  0.0099 -0.1329 -0.2699
  486SOL     OW 1941   6.083   9.380   9.041 -0.7104  0.6095 -0.4072
  486SOL    HW1 1942   6.107   9.471   9.025  1.0676  0.0692 -0.9900
  486SOL    HW2 1943   6.099   9.368   9.135  1.5718  0.2321 -0.7968
  486SOL     MW 1944   6.088   9.391   9.052 -0.1640  0.4860 -0.5381
  487SOL     OW 1945   7.788   0.296   2.058 -0.1776 -0.0504  0.4524
  487SOL    HW1 1946   7.708   0.348   2.050 -0.6619 -0.5633  1.7120
  487SOL    HW2 1947   7.805   0.265   1.969 -0.9740  0.6583  0.0402
  487SOL     MW 1948   7.779   0.299   2.045 -0.3500 -0.0240  0.5664
  488SOL     OW 1949   7.372   0.902   9.164 -0.1757  0.1796 -0.1376
  488SOL    HW1 1950   7.375   0.936   9.074 -1.3007  0.1595 -0.2061
  488SOL    HW2 1951   7.383   0.980   9.219 -0.1895  0.2979 -0.2999
  488SOL     MW 1952   7.374   0.917   9.159 -0.3289  0.1928 -0.1687
  489SOL     OW 1953   5.659   0.474   2.417 -0.2791 -0.0006 -0.4366
  489SOL    HW1 1954   5.627   0.398   2.466 -0.1186 -0.2445 -0.7136
  489SOL    HW2 1955   5.676   0.540   2.485  2.7337 -1.2764  0.2099
  489SOL     MW 1956   5.657   0.473   2.433  0.1480 -0.2051 -0.3869
  490SOL     OW 1957   4.104  10.131   7.711 -0.3550 -0.1107 -0.3591
  490SOL    HW1 1958   4.085  10.183   7.633 -0.4082  0.0824 -0.2170
  490SOL    HW2 1959   4.194  10.153   7.733 -0.0937 -0.7248 -0.7974
  490SOL     MW 1960   4.113  10.141   7.704 -0.3270 -0.1674 -0.3990
  491SOL     OW 1961   4.576   0.465   4.748  0.2839 -0.3357  0.2176
  491SOL    HW1 1962   4.484   0.488   4.763  0.4318 -0.3081  1.1382
  491SOL    HW2 1963   4.600   0.517   4.671 -0.1033  0.7081  0.7648
  491SOL     MW 1964   4.567   0.475   4.739  0.2517 -0.1915  0.4151
  492SOL     OW 1965   6.143   9.194   7.079  0.5087 -0.1371 -0.0765
  492SOL    HW1 1966   6.179   9.171   6.993  1.7495  0.8389  0.1566
  492SOL    HW2 1967   6.194   9.144   7.142 -0.3864 -0.8328  0.1123
  492SOL     MW 1968   6.154   9.184   7.076  0.5552 -0.0994 -0.0197
  493SOL     OW 1969   4.731   8.700   7.754 -0.0148 -0.1109 -0.0154
  493SOL    HW1 1970   4.728   8.687   7.849  0.0522 -1.5792 -0.1933
  493SOL    HW2 1971   4.714   8.613   7.718  2.0914 -0.0328 -1.3324
  493SOL     MW 1972   4.728   8.686   7.762  0.2777 -0.2980 -0.2166
  494SOL     OW 1973   5.338   8.978   0.748 -0.0037 -0.3120 -0.4820
  494SOL    HW1 1974   5.373   8.901   0.702  0.0099 -0.2964 -0.4975
  494SOL    HW2 1975   5.246   8.979   0.724 -0.1276 -0.6530 -0.0218
  494SOL     MW 1976   5.331   8.968   0.738 -0.0185 -0.3558 -0.4221
  495SOL     OW 1977   4.798   8.631   1.895  0.3811 -0.0617  0.2138
  495SOL    HW1 1978   4.854   8.629   1.817 -0.3584 -0.1032 -0.3267
  495SOL    HW2 1979   4.761   8.543   1.901 -0.1990  0.1712  0.1392
  495SOL     MW 1980   4.801   8.619   1.885  0.2035 -0.0359  0.1311
  496SOL     OW 1981   7.399   0.493   6.077 -0.2889  0.6941 -0.3816
  496SOL    HW1 1982   7.465   0.551   6.115  0.4283  0.1104 -0.6885
  496SOL    HW2 1983   7.374   0.435   6.149  0.5163  0.0727 -0.5812
  496SOL     MW 1984   7.405   0.493   6.092 -0.0841  0.5319 -0.4498
  497SOL     OW 1985   6.063   9.018   9.113  0.7671 -0.4448 -0.3531
  497SOL    HW1 1986   6.060   9.064   9.029 -1.5139  0.4306  0.1320
  497SOL    HW2 1987   6.079   8.926   9.089 -0.3372 -0.2952 -1.8105
  497SOL     MW 1988   6.065   9.012   9.099  0.3115 -0.3069 -0.4839
  498SOL     OW 1989   5.892   8.430   8.849  0.3585  0.1335  0.0287
  498SOL    HW1 1990   5.877   8.491   8.922  0.4608 -0.2295  0.3595
  498SOL    HW2 1991   5.827   8.361   8.863  0.5289 -0.0511 -0.0965
  498SOL     MW 1992   5.881   8.429   8.861  0.3952  0.0598  0.0564
  499SOL     OW 1993   7.018   9.305   4.052 -0.4632  0.3936 -0.1099
  499SOL    HW1 1994   6.955   9.346   4.112 -0.4860 -0.3719  0.4105
  499SOL    HW2 1995   6.981   9.318   3.965 -1.8062 -0.7877  0.2474
  499SOL     MW 1996   7.005   9.313   4.048 -0.6470  0.1316  0.0082
  500SOL     OW 1997   4.441   0.875   7.771 -0.3550  0.1593  0.3685
  500SOL    HW1 1998   4.474   0.847   7.685  0.6711  1.3042  0.3759
  500SOL    HW2 1999   4.346   0.861   7.765 -0.1763 -0.8174 -0.5443
  500SOL     MW 2000   4.433   0.869   7.758 -0.1929  0.1819  0.2466
  501SOL     OW 2001   5.635   9.354   9.740 -0.1577  0.3046 -0.0351
  501SOL    HW1 2002   5.553   9.403   9.746 -0.2157  0.3307 -0.9217
  501SOL    HW2 2003   5.641   9.306   9.822 -2.1700 -1.4245 -0.8318
  501SOL     MW 2004   5.625   9.354   9.752 -0.4364  0.0754 -0.2616
  502SOL     OW 2005   4.497   7.965   0.235  0.4559 -0.4655 -0.5269
  502SOL    HW1 2006   4.541   7.950   0.152 -1.2158 -0.5617 -1.4462
  502SOL    HW2 2007   4.409   7.929   0.222  0.5083 -1.5244  1.6758
  502SOL     MW 2008   4.491   7.958   0.222  0.2380 -0.6210 -0.3542
  503SOL     OW 2009   5.962   8.628   3.641 -0.0598 -0.2402 -0.7193
  503SOL    HW1 2010   5.974   8.658   3.551  1.3039  1.2158 -0.1091
  503SOL    HW2 2011   6.049   8.596   3.667 -0.1775  0.2464  0.3454
  503SOL     MW 2012   5.976   8.628   3.632  0.1079  0.0212 -0.4939
  504SOL     OW 2013   6.195   9.832  10.136 -0.4947  0.1757  0.1583
  504SOL    HW1 2014   6.145   9.773  10.192 -0.0708 -0.2704  0.0709
  504SOL    HW2 2015   6.252   9.775  10.084 -2.2281  0.3911 -2.1483
  504SOL     MW 2016   6.196   9.816  10.136 -0.6709  0.1446 -0.1639
  505SOL     OW 2017   7.557   1.163   2.587  0.1442 -0.2321  0.2770
  505SOL    HW1 2018   7.624   1.229   2.606 -1.4498  1.3316  0.6264
  505SOL    HW2 2019   7.506   1.199   2.515  1.0907 -2.5102 -1.7035
  505SOL     MW 2020   7.559   1.176   2.580  0.0571 -0.3283  0.0575
  506SOL     OW 2021   6.398   8.951   2.444  0.1015 -0.5950 -0.2461
  506SOL    HW1 2022   6.376   9.009   2.516 -0.9991  0.0301 -1.0427
  506SOL    HW2 2023   6.388   8.863   2.479  0.9306 -0.3191  0.7291
  506SOL     MW 2024   6.394   8.947   2.458  0.0650 -0.4738 -0.2220
  507SOL     OW 2025   6.063   1.223   4.820 -0.0668 -0.2950 -0.2150
  507SOL    HW1 2026   6.011   1.168   4.762  1.5393 -2.6174  0.3693
  507SOL    HW2 2027   6.058   1.180   4.906  0.0104  1.3704  0.6725
  507SOL     MW 2028   6.056   1.210   4.824  0.1597 -0.3834 -0.0169
  508SOL     OW 2029   6.000   7.757   6.826 -0.4674 -0.1529  0.0907
  508SOL    HW1 2030   6.017   7.708   6.906 -0.5336 -3.0301 -1.5082
  508SOL    HW2 2031   6.044   7.707   6.757 -1.2487  1.6188 -1.8253
  508SOL     MW 2032   6.008   7.743   6.827 -0.5814 -0.3017 -0.3823
  509SOL     OW 2033   7.614   0.781   3.890  0.2008  0.4893  0.1773
  509SOL    HW1 2034   7.585   0.705   3.838 -1.4031 -0.7234  2.6287
  509SOL    HW2 2035   7.552   0.850   3.867 -0.0165  0.2065 -0.1048
  509SOL     MW 2036   7.602   0.780   3.880 -0.0443  0.2880  0.4692
  510SOL     OW 2037   6.647   0.770   0.077  0.3191 -0.1982 -0.3449
  510SOL    HW1 2038   6.575   0.809   0.029  1.6386  2.3452 -0.4224
  510SOL    HW2 2039   6.699   0.724   0.010 -0.8549 -1.5648 -0.3666
  510SOL     MW 2040   6.645   0.769   0.061  0.3387 -0.0398 -0.3582
  511SOL     OW 2041   4.565  10.041   5.267  0.4874 -0.6237  0.0747
  511SOL    HW1 2042   4.603   9.964   5.309  1.7268  0.6156  1.3253
  511SOL    HW2 2043   4.541  10.010   5.179  1.9391 -2.1657  0.1554
  511SOL     MW 2044   4.567  10.026   5.261  0.8496 -0.6644  0.2539
  512SOL     OW 2045   7.123   1.279   4.973 -0.1498  0.0718 -0.4051
  512SOL    HW1 2046   7.095   1.189   4.990  0.6173 -0.7645 -3.1073
  512SOL    HW2 2047   7.118   1.289   4.878  2.1244  2.0700 -0.4321
  512SOL     MW 2048   7.119   1.268   4.962  0.2595  0.2282 -0.7724
  513SOL     OW 2049   7.794   9.607   1.784  0.5708  0.3469  0.0796
  513SOL    HW1 2050   7.824   9.653   1.705 -0.4212 -1.0281 -1.1545
  513SOL    HW2 2051   7.765   9.677   1.843  1.8757  1.4381 -0.5268
  513SOL     MW 2052   7.794   9.623   1.781  0.6129  0.3087 -0.1681
  514SOL     OW 2053   6.827   8.053   7.217  0.1061  0.3451  0.2233
  514SOL    HW1 2054   6.764   8.121   7.245 -1.9532 -0.9981 -0.9005
  514SOL    HW2 2055   6.881   8.096   7.151 -1.5694  0.7725 -0.9278
  514SOL     MW 2056   6.825   8.068   7.212 -0.3965  0.2219 -0.0828
  515SOL     OW 2057   6.822   0.278   5.920  0.3151 -0.8576 -0.3314
  515SOL    HW1 2058   6.891   0.338   5.892 -0.6184 -0.5062 -2.0201
  515SOL    HW2 2059   6.869   0.200   5.950  1.4687 -0.1812 -0.3416
  515SOL     MW 2060   6.837   0.275   5.920  0.3447 -0.7193 -0.5601
  516SOL     OW 2061   4.609   1.556   0.380  0.1259 -0.6454  0.1488
  516SOL    HW1 2062   4.516   1.536   0.390 -0.1805  0.5552 -0.0890
  516SOL    HW2 2063   4.636   1.509   0.301 -0.8409  0.7274 -1.0411
  516SOL     MW 2064   4.600   1.547   0.370 -0.0455 -0.2991 -0.0433
  517SOL     OW 2065   5.696   8.469   3.504  0.0396 -0.0338  0.2269
  517SOL    HW1 2066   5.769   8.429   3.551  0.8736 -0.3939 -1.3009
  517SOL    HW2 2067   5.621   8.412   3.522  0.1306  0.2702  1.7125
  517SOL     MW 2068   5.696   8.456   3.513  0.1641 -0.0414  0.2212
  518SOL     OW 2069   4.892   9.176   9.864 -0.8841 -0.7335  0.2624
  518SOL    HW1 2070   4.950   9.208   9.933 -1.2684 -1.2526  0.8328
  518SOL    HW2 2071   4.810   9.154   9.909 -2.0327  1.2011 -0.6860
  518SOL     MW 2072   4.888   9.178   9.880 -1.0904 -0.5430  0.2115
  519SOL     OW 2073   7.618   0.736   3.374  0.5572  0.1295 -0.4518
  519SOL    HW1 2074   7.600   0.770   3.286 -1.4977 -0.6223 -0.3563
  519SOL    HW2 2075   7.569   0.655   3.379 -1.0072  1.1258  2.0846
  519SOL     MW 2076   7.609   0.730   3.363  0.0701  0.1624 -0.0976
  520SOL     OW 2077   6.846   0.125   6.302  0.2299 -0.0337 -0.1999
  520SOL    HW1 2078   6.870   0.206   6.347 -1.1086  0.4339 -0.2637
  520SOL    HW2 2079   6.831   0.062   6.372 -0.2284  0.2197 -0.0661
  520SOL     MW 2080   6.847   0.127   6.318 -0.0119  0.0633 -0.1905
  521SOL     OW 2081   5.898   1.280   2.722  0.5520 -0.2991 -0.4754
  521SOL    HW1 2082   5.922   1.189   2.735  2.4851  0.4483  1.9908
  521SOL    HW2 2083   5.975   1.330   2.751 -0.1874  2.1437 -2.3136
  521SOL     MW 2084   5.912   1.275   2.727  0.7126  0.1303 -0.3909
  522SOL     OW 2085   6.300   8.477   1.660  0.3817  0.3571  0.4623
  522SOL    HW1 2086   6.250   8.530   1.598  0.0742  0.2518  0.6206
  522SOL    HW2 2087   6.262   8.497   1.745  0.6775  0.3547  0.5976
  522SOL     MW 2088   6.288   8.487   1.663  0.3801  0.3426  0.5018
  523SOL     OW 2089   6.375   7.623   5.300  0.1311  0.4718  0.2164
  523SOL    HW1 2090   6.448   7.657   5.352  1.0386  0.5336 -1.0446
  523SOL    HW2 2091   6.299   7.627   5.359  0.4344  3.4920  0.5782
  523SOL     MW 2092   6.374   7.628   5.315  0.2940  0.8866  0.0954
  524SOL     OW 2093   5.904   8.782   3.022 -0.3279  0.5500  0.5554
  524SOL    HW1 2094   5.957   8.836   3.080 -0.7412 -1.2650  2.8017
  524SOL    HW2 2095   5.884   8.838   2.948  0.9486  2.7509  1.7702
  524SOL     MW 2096   5.908   8.797   3.020 -0.2118  0.6019  1.0212
  525SOL     OW 2097   6.718   9.047   9.967 -0.4399  0.8443  0.1114
  525SOL    HW1 2098   6.696   8.982   9.901  0.5640 -2.2260  2.5261
  525SOL    HW2 2099   6.802   9.083   9.938 -1.4317  1.8146 -1.7112
  525SOL     MW 2100   6.726   9.043   9.954 -0.4383  0.5617  0.1911
  526SOL     OW 2101   7.742   8.677   0.292  0.1720  0.3656 -0.2984
  526SOL    HW1 2102   7.754   8.583   0.278  1.6033  0.4991 -0.0366
  526SOL    HW2 2103   7.728   8.712   0.203  1.6929  0.1709 -0.6379
  526SOL     MW 2104   7.742   8.669   0.278  0.5693  0.3573 -0.3089
  527SOL     OW 2105   6.976   1.627   5.963  0.1042  0.0032  0.4477
  527SOL    HW1 2106   7.024   1.545   5.967  1.7188  0.9115  0.8085
  527SOL    HW2 2107   6.961   1.651   6.054 -0.6040 -0.0165  0.3412
  527SOL     MW 2108   6.981   1.619   5.976  0.2262  0.1228  0.4820
  528SOL     OW 2109   5.458   0.301   8.974 -0.3270 -0.0762 -0.1565
  528SOL    HW1 2110   5.415   0.313   8.890 -1.3662 -1.4232  0.1429
  528SOL    HW2 2111   5.550   0.289   8.953 -0.5576 -0.2508 -1.0882
  528SOL     MW 2112   5.465   0.301   8.960 -0.4979 -0.2810 -0.2416
  529SOL     OW 2113   6.402   0.514   8.558  0.5971 -0.3637 -0.2913
  529SOL    HW1 2114   6.344   0.567   8.613 -1.1195 -0.3471 -1.9973
  529SOL    HW2 2115   6.351   0.435   8.540  1.0985 -0.3739 -1.7905
  529SOL     MW 2116   6.387   0.511   8.563  0.4336 -0.3628 -0.7227
  530SOL     OW 2117   6.680   7.730   6.136 -0.5126  0.7270  0.0672
  530SOL    HW1 2118   6.632   7.732   6.054 -1.1751 -0.2347  0.4157
  530SOL    HW2 2119   6.766   7.695   6.112 -0.6201  0.6848 -0.2638
  530SOL     MW 2120   6.685   7.725   6.122 -0.6162  0.5919  0.0696
  531SOL     OW 2121   5.188   8.483   7.870  0.0116  0.0088 -0.0227
  531SOL    HW1 2122   5.250   8.421   7.907  1.9924  1.0286 -1.4090
  531SOL    HW2 2123   5.150   8.438   7.795 -1.1485 -0.7001  0.9616
  531SOL     MW 2124   5.191   8.469   7.865  0.1220  0.0506 -0.0768
  532SOL     OW 2125   7.602   0.266   8.588  0.3588 -0.1046  0.5052
  532SOL    HW1 2126   7.650   0.349   8.586  1.5651 -0.7382  1.7531
  532SOL    HW2 2127   7.561   0.260   8.501  2.0713  0.7314 -0.3987
  532SOL     MW 2128   7.603   0.277   8.576  0.7516 -0.0773  0.5515
  533SOL     OW 2129   4.758   8.128   2.939 -0.3082  0.0478 -0.2433
  533SOL    HW1 2130   4.804   8.206   2.970 -0.2718  0.1932 -0.6557
  533SOL    HW2 2131   4.701   8.160   2.869  0.4468 -0.4478 -1.1029
  533SOL     MW 2132   4.756   8.143   2.934 -0.2017  0.0007 -0.4145
  534SOL     OW 2133   7.801  10.120   0.693 -0.8019 -0.6272 -0.1552
  534SOL    HW1 2134   7.759  10.036   0.713  0.0693 -0.8671  0.8043
  534SOL    HW2 2135   7.802  10.166   0.777  1.8143 -1.1142  0.1925
  534SOL     MW 2136   7.796  10.115   0.707 -0.3326 -0.7250  0.0207
  535SOL     OW 2137   7.571   0.279   5.644 -0.1302 -0.0136  1.0994
  535SOL    HW1 2138   7.640   0.237   5.592  0.9686  0.2817  2.2696
  535SOL    HW2 2139   7.490   0.236   5.616  0.5889 -0.7680  0.1020
  535SOL     MW 2140   7.569   0.268   5.633  0.1145 -0.0753  1.1227
  536SOL     OW 2141   4.623   8.819   8.214  0.7470  0.3465  0.7757
  536SOL    HW1 2142   4.558   8.757   8.246  1.6607 -0.7762  0.5300
  536SOL    HW2 2143   4.645   8.872   8.291  1.3452 -0.9102  1.5080
  536SOL     MW 2144   4.617   8.818   8.229  0.9505  0.0263  0.8412
  537SOL     OW 2145   6.401   9.227   4.414 -0.7341  0.0423 -0.0094
  537SOL    HW1 2146   6.415   9.311   4.370  0.7328  0.3804  1.0344
  537SOL    HW2 2147   6.362   9.171   4.347 -0.0468  1.0114 -1.2507
  537SOL     MW 2148   6.397   9.230   4.399 -0.4442  0.2182 -0.0360
  538SOL     OW 2149   5.849   0.090   2.466 -0.3625  0.0842  0.2730
  538SOL    HW1 2150   5.906   0.025   2.508 -1.5334 -0.9956  0.2640
  538SOL    HW2 2151   5.761   0.053   2.474 -0.7312  0.1750 -2.4641
  538SOL     MW 2152   5.845   0.076   2.473 -0.5697 -0.0489 -0.0966
  539SOL     OW 2153   4.326   8.563   5.689  0.3138  0.1528  0.7220
  539SOL    HW1 2154   4.292   8.629   5.750  0.0007  0.4791  0.2132
  539SOL    HW2 2155   4.259   8.558   5.620  1.6104  1.3718 -0.7174
  539SOL     MW 2156   4.312   8.571   5.688  0.4462  0.3608  0.4598
  540SOL     OW 2157   5.853   8.287   3.634 -0.1564 -0.7625  0.2809
  540SOL    HW1 2158   5.887   8.319   3.718 -0.4928  1.6694 -0.4616
  540SOL    HW2 2159   5.931   8.278   3.579 -0.2161  0.6056 -0.0621
  540SOL     MW 2160   5.868   8.290   3.638 -0.2097 -0.2511  0.1348
  541SOL     OW 2161   4.825   9.501   2.163 -0.0856 -0.1270  0.4062
  541SOL    HW1 2162   4.814   9.411   2.133 -1.4749 -0.2667  1.2418
  541SOL    HW2 2163   4.919   9.518   2.156  0.2295 -1.7303  0.4869
  541SOL     MW 2164   4.837   9.491   2.158 -0.2302 -0.3616  0.5295
  542SOL     OW 2165   4.971   1.034   3.529  0.2999  0.2104  0.0147
  542SOL    HW1 2166   4.932   1.116   3.560  0.8067  0.4865 -0.0623
  542SOL    HW2 2167   5.023   1.060   3.453  0.1241 -0.2514 -0.2661
  542SOL     MW 2168   4.973   1.049   3.523  0.3444  0.1854 -0.0335
  543SOL     OW 2169   4.655   9.089   0.361 -0.0694 -0.4222 -0.4941
  543SOL    HW1 2170   4.622   9.166   0.315  3.5187  1.5804 -0.0476
  543SOL    HW2 2171   4.600   9.083   0.440 -0.0858  2.0530 -0.2642
  543SOL     MW 2172   4.643   9.098   0.366  0.4113  0.1804 -0.4030
  544SOL     OW 2173   5.302   0.412  10.092  0.3097  0.1261  0.3191
  544SOL    HW1 2174   5.388   0.371  10.083 -0.2142 -1.1672  0.9350
  544SOL    HW2 2175   5.282   0.405  10.185  0.4589  2.4037  0.5714
  544SOL     MW 2176   5.311   0.406  10.103  0.2592  0.2586  0.4359
  545SOL     OW 2177   6.040   0.511   7.383 -0.1495 -0.0018  0.1989
  545SOL    HW1 2178   6.040   0.607   7.375 -0.1500 -0.0582 -0.5003
  545SOL    HW2 2179   5.967   0.492   7.443  0.2069  0.4659  0.7941
  545SOL     MW 2180   6.030   0.522   7.390 -0.1016  0.0536  0.1849
  546SOL     OW 2181   4.977   1.296   7.774  0.0234 -0.0300  0.0213
  546SOL    HW1 2182   4.926   1.280   7.695 -0.8511  1.3258  0.2747
  546SOL    HW2 2183   4.912   1.302   7.844  0.2007  3.5860  0.0834
  546SOL     MW 2184   4.961   1.295   7.773 -0.0704  0.6391  0.0637
  547SOL     OW 2185   6.455   0.137   6.490  0.2464 -0.6548  0.1351
  547SOL    HW1 2186   6.426   0.049   6.513 -1.6571 -0.2144 -0.4361
  547SOL    HW2 2187   6.508   0.125   6.412  0.6858 -1.3660  0.5345
  547SOL     MW 2188   6.458   0.124   6.483  0.0494 -0.6912  0.1120
  548SOL     OW 2189   6.448   1.840   6.830 -0.3246  0.4185  0.0571
  548SOL    HW1 2190   6.444   1.830   6.735  0.1729 -1.3786  0.1792
  548SOL    HW2 2191   6.380   1.781   6.864 -0.9186  1.5060  0.8139
  548SOL     MW 2192   6.439   1.830   6.822 -0.3376  0.3230  0.1754
  549SOL     OW 2193   7.206   0.878   3.442 -0.2610 -0.2661  0.2475
  549SOL    HW1 2194   7.161   0.900   3.524  0.1854  0.4076  0.3210
  549SOL    HW2 2195   7.299   0.885   3.464 -0.1386  0.9741 -0.5927
  549SOL     MW 2196   7.213   0.882   3.456 -0.1845 -0.0085  0.1443
  550SOL     OW 2197   5.152   1.587   6.900 -0.0906 -0.2500 -0.0571
  550SOL    HW1 2198   5.142   1.528   6.974 -0.5613  2.0800  1.8839
  550SOL    HW2 2199   5.200   1.662   6.936 -0.1338  0.8829 -2.1868
  550SOL     MW 2200   5.157   1.589   6.915 -0.1598  0.2160 -0.0825
  551SOL     OW 2201   7.346   9.417   2.937 -0.0084  0.4025  0.1939
  551SOL    HW1 2202   7.303   9.390   2.856  1.0319  1.7508 -0.8585
  551SOL    HW2 2203   7.420   9.358   2.945 -0.7699 -0.5010  0.8339
  551SOL     MW 2204   7.350   9.405   2.927  0.0291  0.4624  0.1384
  552SOL     OW 2205   5.216   8.673   9.132  0.4084  0.3387  0.3173
  552SOL    HW1 2206   5.306   8.644   9.146  0.2264 -1.1852 -1.2856
  552SOL    HW2 2207   5.195   8.644   9.043 -1.7527  0.4240  0.7370
  552SOL     MW 2208   5.225   8.665   9.122  0.0930  0.1451  0.1580
  553SOL     OW 2209   5.003   9.318   2.364  0.1745  0.0530  0.3633
  553SOL    HW1 2210   4.949   9.285   2.292 -0.1688  1.3093  0.0257
  553SOL    HW2 2211   5.088   9.334   2.324 -0.1658  1.2535  0.1004
  553SOL     MW 2212   5.007   9.315   2.349  0.0825  0.3836  0.2825
  554SOL     OW 2213   7.275   0.546   7.470  0.3172 -0.3269 -0.6187
  554SOL    HW1 2214   7.222   0.551   7.390 -0.4925 -1.5225 -0.1990
  554SOL    HW2 2215   7.227   0.484   7.525 -0.3732  2.1468  1.7315
  554SOL     MW 2216   7.261   0.538   7.466  0.1153 -0.1549 -0.2459
  555SOL     OW 2217   5.940   0.542   0.014 -0.0718 -0.1912 -0.1798
  555SOL    HW1 2218   5.912   0.452  -0.006 -1.4870  0.1468  0.2140
  555SOL    HW2 2219   5.951   0.543   0.109  0.4637 -0.0766 -0.2380
  555SOL     MW 2220   5.938   0.530   0.024 -0.1902 -0.1303 -0.1346
  556SOL     OW 2221   6.635   0.717   9.068  0.2659 -0.1440  0.1757
  556SOL    HW1 2222   6.561   0.711   9.129  0.0006 -0.1418 -0.1483
  556SOL    HW2 2223   6.674   0.803   9.086 -0.6166  0.4215 -0.5768
  556SOL     MW 2224   6.631   0.728   9.079  0.1115 -0.0676  0.0309
  557SOL     OW 2225   6.245   0.842   5.668  0.2602  0.4636 -0.1655
  557SOL    HW1 2226   6.163   0.892   5.660 -0.8200 -1.2486 -0.1592
  557SOL    HW2 2227   6.232   0.787   5.745  1.7669  0.7458  0.3232
  557SOL     MW 2228   6.232   0.842   5.678  0.3176  0.2712 -0.0989
  558SOL     OW 2229   5.446   0.573   8.991  0.2513  0.3739 -0.1542
  558SOL    HW1 2230   5.442   0.478   8.994  0.2021  0.3420 -0.9852
  558SOL    HW2 2231   5.539   0.594   8.987  0.3058  0.4071  0.9833
  558SOL     MW 2232   5.458   0.563   8.991  0.2520  0.3740 -0.1129
  559SOL     OW 2233   6.155   0.181   4.691 -0.1281 -0.0187 -0.1146
  559SOL    HW1 2234   6.141   0.275   4.687  1.0281  0.1729  0.1601
  559SOL    HW2 2235   6.071   0.146   4.722 -0.3659  0.9726  0.3973
  559SOL     MW 2236   6.142   0.189   4.695 -0.0045  0.1405 -0.0087
  560SOL     OW 2237   4.188   1.039   1.841 -0.2776 -0.4894  0.2221
  560SOL    HW1 2238   4.158   0.985   1.768 -0.0694 -0.4630  0.1166
  560SOL    HW2 2239   4.269   1.078   1.810 -0.1100 -0.5930  0.5230
  560SOL     MW 2240   4.195   1.037   1.827 -0.2270 -0.4998  0.2484
  561SOL     OW 2241   6.008   7.972   7.507 -0.4133  0.2477 -0.1228
  561SOL    HW1 2242   5.973   7.974   7.417  0.8150 -0.4863 -0.6403
  561SOL    HW2 2243   6.102   7.985   7.496 -0.4183  1.6284  1.1981
  561SOL     MW 2244   6.016   7.974   7.493 -0.2487  0.3347 -0.0147
  562SOL     OW 2245   6.720   0.353   8.856 -0.3193  0.7666 -0.3317
  562SOL    HW1 2246   6.651   0.311   8.906  0.3986  0.6155  0.5505
  562SOL    HW2 2247   6.788   0.287   8.847  0.6280  1.5642  0.6825
  562SOL     MW 2248   6.720   0.339   8.861 -0.0952  0.8536 -0.0765
  563SOL     OW 2249   5.125   8.236   3.150 -0.0633 -0.1768 -0.4067
  563SOL    HW1 2250   5.117   8.141   3.139 -1.6711 -0.1096 -0.0358
  563SOL    HW2 2251   5.044   8.271   3.113  0.0278  0.9682  0.4562
  563SOL     MW 2252   5.113   8.228   3.143 -0.2674 -0.0136 -0.2407
  564SOL     OW 2253   4.308   8.475   8.966  0.4685  0.4984 -0.1893
  564SOL    HW1 2254   4.372   8.413   9.002 -1.2989 -0.9054  0.6615
  564SOL    HW2 2255   4.318   8.554   9.021  1.9436  0.5813 -0.5398
  564SOL     MW 2256   4.318   8.478   8.979  0.4292  0.3206 -0.1220
  565SOL     OW 2257   4.572   9.465   8.966 -0.2094  0.3036 -0.1721
  565SOL    HW1 2258   4.618   9.475   9.050 -0.8121 -0.5695  0.2823
  565SOL    HW2 2259   4.480   9.456   8.990 -0.2931 -0.8900 -0.8519
  565SOL     MW 2260   4.566   9.465   8.981 -0.3018  0.0255 -0.2024
  566SOL     OW 2261   4.761   8.629   1.203 -0.5193  0.3370  1.0504
  566SOL    HW1 2262   4.790   8.545   1.166 -1.1820 -0.1595  1.6408
  566SOL    HW2 2263   4.832   8.690   1.182 -0.4258 -0.1664 -0.1511
  566SOL     MW 2264   4.775   8.626   1.195 -0.5959  0.2024  0.9681
  567SOL     OW 2265   4.870   0.842   7.675  0.1430 -0.0023 -0.7911
  567SOL    HW1 2266   4.863   0.866   7.768 -1.6358 -0.9855 -0.6422
  567SOL    HW2 2267   4.834   0.918   7.629  2.2120  1.0467 -0.8046
  567SOL     MW 2268   4.865   0.856   7.682  0.1820  0.0066 -0.7729
  568SOL     OW 2269   7.403   0.181   7.613  0.4873 -0.2548 -0.1450
  568SOL    HW1 2270   7.451   0.231   7.547 -0.8673  1.2961 -0.0372
  568SOL    HW2 2271   7.469   0.154   7.676  1.8267 -1.7651 -2.0602
  568SOL     MW 2272   7.418   0.184   7.612  0.4852 -0.2493 -0.3882
  569SOL     OW 2273   5.557   7.810   8.455 -0.1744  0.3689  0.3994
  569SOL    HW1 2274   5.627   7.864   8.417 -0.1284 -0.2353 -0.4134
  569SOL    HW2 2275   5.495   7.873   8.491 -1.1874  1.1055 -2.3767
  569SOL     MW 2276   5.558   7.826   8.455 -0.3046  0.3867 -0.0836
  570SOL     OW 2277   3.700   9.229   1.451  0.0175  0.4436  0.4076
  570SOL    HW1 2278   3.662   9.160   1.505  0.0433  0.4340  0.4137
  570SOL    HW2 2279   3.783   9.192   1.420 -0.4585  0.0745 -0.4562
  570SOL     MW 2280   3.706   9.215   1.454 -0.0431  0.3926  0.2922
  571SOL     OW 2281   6.249   1.700   8.689  0.0755  0.1309 -0.2637
  571SOL    HW1 2282   6.332   1.722   8.646  0.3221 -1.2191 -0.5231
  571SOL    HW2 2283   6.240   1.605   8.677 -1.2423  0.1710  0.2334
  571SOL     MW 2284   6.259   1.690   8.681 -0.0686 -0.0454 -0.2317
  572SOL     OW 2285   6.101   9.257   2.239 -0.1392 -0.4341  0.0525
  572SOL    HW1 2286   6.042   9.331   2.229 -1.4055 -1.4065  0.0681
  572SOL    HW2 2287   6.184   9.288   2.203 -0.4373  1.2112  0.6863
  572SOL     MW 2288   6.104   9.271   2.233 -0.3498 -0.3435  0.1399
  573SOL     OW 2289   4.723   8.446   0.275 -0.8820 -0.0339  0.0222
  573SOL    HW1 2290   4.814   8.415   0.275 -0.4835  1.0564 -0.6563
  573SOL    HW2 2291   4.672   8.373   0.241 -0.1307 -0.3373 -0.4746
  573SOL     MW 2292   4.729   8.432   0.270 -0.7273  0.0720 -0.1360
  574SOL     OW 2293   5.382   0.877   7.631 -0.1806 -0.5236  0.6490
  574SOL    HW1 2294   5.396   0.880   7.536  1.4836 -1.6080  0.8351
  574SOL    HW2 2295   5.287   0.884   7.641 -0.3396  0.2881 -1.0553
  574SOL     MW 2296   5.371   0.879   7.620  0.0220 -0.5603  0.4447
  575SOL     OW 2297   6.504   1.710  10.027  0.4364  0.1464  0.1086
  575SOL    HW1 2298   6.520   1.735  10.118 -0.8073 -1.4579  0.8170
  575SOL    HW2 2299   6.588   1.721   9.984  1.5073 -0.7182  1.8697
  575SOL     MW 2300   6.517   1.715  10.033  0.4131 -0.1858  0.4409
  576SOL     OW 2301   5.269   1.520   3.761 -0.1558  0.1714 -0.0651
  576SOL    HW1 2302   5.224   1.542   3.842  0.7944 -1.7143  1.0584
  576SOL    HW2 2303   5.336   1.587   3.751  0.2825 -0.0642  1.1962
  576SOL     MW 2304   5.272   1.532   3.771  0.0310 -0.1141  0.2558
  577SOL     OW 2305   3.625   9.281   3.516 -0.0245  0.2068 -0.3447
  577SOL    HW1 2306   3.677   9.361   3.507  1.5635 -0.9514 -2.2151
  577SOL    HW2 2307   3.534   9.311   3.513  0.5149  1.9884 -0.2235
  577SOL     MW 2308   3.620   9.296   3.515  0.2618  0.2907 -0.5801
  578SOL     OW 2309   7.038   9.198   5.059  0.5071 -0.1985  0.1823
  578SOL    HW1 2310   6.955   9.243   5.077  0.4613  0.4001 -1.3483
  578SOL    HW2 2311   7.020   9.106   5.076 -0.6356 -0.1431 -0.6177
  578SOL     MW 2312   7.024   9.192   5.064  0.3472 -0.1105 -0.1314
  579SOL     OW 2313   5.202   8.948   5.007 -0.3171 -0.1943 -0.4972
  579SOL    HW1 2314   5.150   9.028   4.994 -0.5869 -0.0807  1.1456
  579SOL    HW2 2315   5.175   8.890   4.935 -0.8150  0.8277 -1.1525
  579SOL     MW 2316   5.191   8.951   4.995 -0.4204 -0.0415 -0.3643
  580SOL     OW 2317   5.899   1.205   3.144  0.4837  0.0409  0.2110
  580SOL    HW1 2318   5.838   1.137   3.116  0.7976 -0.0283 -0.3126
  580SOL    HW2 2319   5.985   1.163   3.141  0.5212  0.0106  1.3512
  580SOL     MW 2320   5.903   1.190   3.140  0.5310  0.0275  0.2940
  581SOL     OW 2321   6.132   8.963   5.483  0.2531  0.1502 -0.1559
  581SOL    HW1 2322   6.127   8.907   5.406  0.9367 -0.4566  0.2208
  581SOL    HW2 2323   6.044   8.958   5.522  0.3099 -0.6722 -0.1238
  581SOL     MW 2324   6.119   8.955   5.478  0.3527 -0.0421 -0.1009
  582SOL     OW 2325   4.597   9.350   4.680 -0.1294  0.0979 -0.0284
  582SOL    HW1 2326   4.549   9.311   4.607  0.9787  0.2184 -0.8318
  582SOL    HW2 2327   4.538   9.417   4.714 -1.3227 -1.0463  0.2348
  582SOL     MW 2328   4.583   9.354   4.675 -0.1409 -0.0399 -0.1011
  583SOL     OW 2329   4.924   0.878   7.361  0.0678  0.0084 -0.1331
  583SOL    HW1 2330   4.934   0.799   7.414  0.7061 -1.3385 -2.1394
  583SOL    HW2 2331   4.968   0.857   7.279 -1.2868  1.8121 -1.3832
  583SOL     MW 2332   4.931   0.865   7.357 -0.0286  0.0699 -0.5713
  584SOL     OW 2333   5.199   1.583   8.517 -0.0357 -0.5225 -0.3556
  584SOL    HW1 2334   5.247   1.514   8.472  1.4660 -0.5399  1.1763
  584SOL    HW2 2335   5.251   1.662   8.500 -0.8678 -0.0447 -0.7545
  584SOL     MW 2336   5.212   1.584   8.508  0.0544 -0.4605 -0.2031
  585SOL     OW 2337   6.759  10.019   8.990  0.5215 -0.4178  0.2441
  585SOL    HW1 2338   6.777   9.938   9.038  0.2392 -0.2483  0.6421
  585SOL    HW2 2339   6.788  10.089   9.048  0.4868 -0.2212  0.0256
  585SOL     MW 2340   6.765  10.017   9.004  0.4788 -0.3685  0.2683
  586SOL     OW 2341   4.723   1.018   8.509 -0.2056 -0.0119 -0.3163
  586SOL    HW1 2342   4.754   1.083   8.447 -1.3974 -1.0431 -2.0999
  586SOL    HW2 2343   4.659   1.064   8.563  1.3804  1.0841  0.6980
  586SOL     MW 2344   4.718   1.033   8.508 -0.1526 -0.0032 -0.4198
  587SOL     OW 2345   6.716   9.184   3.845 -0.1614 -0.2079  0.5955
  587SOL    HW1 2346   6.715   9.129   3.767 -0.2577 -0.6166  0.8806
  587SOL    HW2 2347   6.729   9.123   3.918  1.7800  0.3167  0.7725
  587SOL     MW 2348   6.718   9.169   3.844  0.0869 -0.1923  0.6577
  588SOL     OW 2349   6.933   8.437   2.055 -0.2400  0.0254 -0.3938
  588SOL    HW1 2350   6.999   8.492   2.014 -0.0674  0.7079  0.7369
  588SOL    HW2 2351   6.982   8.384   2.118 -0.8595  1.4096  1.3546
  588SOL     MW 2352   6.949   8.437   2.058 -0.3002  0.3035 -0.0063
  589SOL     OW 2353   5.241   8.446   9.778  0.3420  0.1835 -0.4046
  589SOL    HW1 2354   5.208   8.505   9.710 -1.1578 -0.8354 -0.6298
  589SOL    HW2 2355   5.271   8.369   9.731  1.0460  0.2244 -0.0303
  589SOL     MW 2356   5.240   8.443   9.763  0.2349  0.0519 -0.3845
  590SOL     OW 2357   4.469   8.841   4.125  0.2938  0.3504  0.3447
  590SOL    HW1 2358   4.537   8.787   4.084  0.5175 -0.2366  1.4601
  590SOL    HW2 2359   4.509   8.927   4.134  0.2393  0.4971 -0.6513
  590SOL     MW 2360   4.483   8.845   4.121  0.3165  0.2911  0.3608
  591SOL     OW 2361   4.880   9.381   5.305  0.0752 -0.1746 -0.1697
  591SOL    HW1 2362   4.898   9.418   5.218 -1.7554 -0.6985 -0.8200
  591SOL    HW2 2363   4.888   9.286   5.293 -0.1621 -0.2495  0.2427
  591SOL     MW 2364   4.883   9.373   5.292 -0.2031 -0.2552 -0.2017
  592SOL     OW 2365   3.910   8.659   6.846  0.4964 -0.3566  0.4673
  592SOL    HW1 2366   3.899   8.583   6.789 -0.7947  0.7032 -0.7753
  592SOL    HW2 2367   3.932   8.730   6.786 -1.4988  0.9250  1.1524
  592SOL     MW 2368   3.911   8.658   6.830  0.0541 -0.0415  0.3923
  593SOL     OW 2369   4.875   1.103   3.144 -0.1070  0.6063  0.2109
  593SOL    HW1 2370   4.959   1.101   3.189  0.8970  1.0805 -1.5586
  593SOL    HW2 2371   4.840   1.015   3.154  1.1357  0.0668  0.0184
  593SOL     MW 2372   4.881   1.091   3.152  0.1954  0.5975 -0.0531
  594SOL     OW 2373   6.109   0.693   4.168 -0.1945 -0.0205 -0.3561
  594SOL    HW1 2374   6.083   0.785   4.171  0.7097  0.2341  0.0435
  594SOL    HW2 2375   6.028   0.644   4.185 -0.9974  0.6383 -2.1340
  594SOL     MW 2376   6.095   0.699   4.171 -0.1809  0.1024 -0.5416
  595SOL     OW 2377   4.533   9.021   1.995 -0.7675  0.4024 -0.0380
  595SOL    HW1 2378   4.570   9.105   1.966  0.8908  0.0078  0.7490
  595SOL    HW2 2379   4.597   8.988   2.059 -2.4000 -0.5009  1.2132
  595SOL     MW 2380   4.547   9.028   2.000 -0.7640  0.2277  0.2363
  596SOL     OW 2381   7.395   1.071   2.791 -0.0732  0.3653 -0.0440
  596SOL    HW1 2382   7.418   1.109   2.706 -0.2994 -1.1455 -0.8344
  596SOL    HW2 2383   7.307   1.104   2.809 -0.7639 -0.6614 -1.3066
  596SOL     MW 2384   7.386   1.080   2.782 -0.1966  0.0238 -0.3203
  597SOL     OW 2385   5.219   0.440   1.942 -0.0044 -0.3710  0.3132
  597SOL    HW1 2386   5.295   0.383   1.958 -0.3602 -1.8488 -2.4817
  597SOL    HW2 2387   5.145   0.393   1.981  0.0646 -0.5357  0.2454
  597SOL     MW 2388   5.219   0.426   1.949 -0.0430 -0.5920 -0.0720
  598SOL     OW 2389   4.281  10.182   7.407  0.1547 -0.4712  0.4498
  598SOL    HW1 2390   4.293  10.110   7.468 -1.5002 -0.8429  0.3692
  598SOL    HW2 2391   4.260  10.140   7.324 -1.5430  0.0880  0.5696
  598SOL     MW 2392   4.280  10.167   7.404 -0.2965 -0.4459  0.4550
  599SOL     OW 2393   7.305   8.753   9.662  0.0665  0.1507  0.6128
  599SOL    HW1 2394   7.271   8.839   9.638 -0.1565 -0.4482 -1.4233
  599SOL    HW2 2395   7.229   8.696   9.666  0.4736 -0.6032 -1.2494
  599SOL     MW 2396   7.290   8.757   9.659  0.0913 -0.0314  0.0882
  600SOL     OW 2397   6.122   0.092   9.722 -0.0216  0.1282 -0.2004
  600SOL    HW1 2398   6.206   0.054   9.748 -0.1461 -0.5013 -0.7149
  600SOL    HW2 2399   6.132   0.185   9.741  1.0434  0.1714 -0.8663
  600SOL     MW 2400   6.135   0.100   9.728  0.1050  0.0493 -0.3593
  601SOL     OW 2401   3.975   9.381   1.681 -0.0133 -0.2577 -0.2135
  601SOL    HW1 2402   3.951   9.298   1.722  0.2789  0.2062  0.9015
  601SOL    HW2 2403   3.891   9.418   1.653 -0.3157 -0.0938  0.8948
  601SOL     MW 2404   3.960   9.375   1.683 -0.0147 -0.1732  0.0857
  602SOL     OW 2405   5.399   8.511   8.720  0.1443 -0.5101  0.1448
  602SOL    HW1 2406   5.373   8.590   8.767 -0.3263 -0.6316  0.0910
  602SOL    HW2 2407   5.493   8.522   8.706  0.7211 -1.3233  2.7765
  602SOL     MW 2408   5.408   8.523   8.725  0.1586 -0.6359  0.4918
  603SOL     OW 2409   6.549   8.747   9.222 -0.3018 -0.7080 -0.0709
  603SOL    HW1 2410   6.478   8.800   9.258  0.4845 -0.0726  0.5773
  603SOL    HW2 2411   6.583   8.799   9.149  0.6307 -0.1887  0.7196
  603SOL     MW 2412   6.544   8.761   9.217 -0.0705 -0.5526  0.1228
  604SOL     OW 2413   6.308   0.526   7.051 -0.2391  0.5462 -0.0198
  604SOL    HW1 2414   6.223   0.485   7.069  0.2865 -1.1021 -1.0611
  604SOL    HW2 2415   6.372   0.461   7.080  0.6441  1.1685 -0.5342
  604SOL     MW 2416   6.305   0.512   7.057 -0.0495  0.4081 -0.2292
  605SOL     OW 2417   5.667   9.031   8.521  0.3074 -0.3090 -0.0826
  605SOL    HW1 2418   5.711   9.027   8.606  1.6164 -0.9131 -0.7541
  605SOL    HW2 2419   5.602   8.961   8.524  1.0649 -1.0227  0.0478
  605SOL     MW 2420   5.664   9.021   8.533  0.5855 -0.4864 -0.1554
  606SOL     OW 2421   7.900   9.633   3.751 -0.3616  0.0723 -0.8498
  606SOL    HW1 2422   7.823   9.604   3.800 -0.8107  0.9164 -1.0306
  606SOL    HW2 2423   7.903   9.728   3.765  1.5321 -0.1276  0.3699
  606SOL     MW 2424   7.890   9.642   3.759 -0.1672  0.1590 -0.7100
  607SOL     OW 2425   4.202   0.528   6.553 -0.1689  0.2913  0.6259
  607SOL    HW1 2426   4.123   0.488   6.518 -1.2098  1.9532  0.9672
  607SOL    HW2 2427   4.272   0.498   6.495 -1.5972  1.7339 -2.0319
  607SOL     MW 2428   4.201   0.519   6.540 -0.5012  0.7091  0.3142
  608SOL     OW 2429   6.035   9.651   8.326  0.1358 -0.1496  0.0090
  608SOL    HW1 2430   5.980   9.576   8.303 -0.5978  0.1909  0.5823
  608SOL    HW2 2431   6.116   9.612   8.359 -0.4049 -0.7148  0.7253
  608SOL     MW 2432   6.038   9.636   8.327 -0.0357 -0.1799  0.1826
  609SOL     OW 2433   6.519   8.106   5.544 -0.0685  0.0084  0.5600
  609SOL    HW1 2434   6.576   8.183   5.543 -0.1298  0.0516  0.2479
  609SOL    HW2 2435   6.431   8.141   5.529 -0.3837  0.0996  2.3658
  609SOL     MW 2436   6.515   8.121   5.542 -0.1191  0.0265  0.7610
  610SOL     OW 2437   3.913   0.761   9.570  0.2156 -0.1876 -0.2155
  610SOL    HW1 2438   3.978   0.693   9.586 -1.4117 -2.0768 -1.1547
  610SOL    HW2 2439   3.945   0.806   9.491  1.0500 -0.1795  0.1186
  610SOL     MW 2440   3.926   0.758   9.561  0.1089 -0.4407 -0.2969
  611SOL     OW 2441   7.439   0.223   4.828  0.5445  0.1389 -0.0696
  611SOL    HW1 2442   7.357   0.258   4.865  0.4714  1.4394 -1.3710
  611SOL    HW2 2443   7.507   0.282   4.861  0.9687 -0.8145  0.8343
  611SOL     MW 2444   7.437   0.236   4.838  0.5917  0.1856 -0.1231
  612SOL     OW 2445   7.393   9.513   3.492 -0.0197 -0.2431 -0.0618
  612SOL    HW1 2446   7.436   9.473   3.568  1.5621 -0.5304 -1.0475
  612SOL    HW2 2447   7.345   9.441   3.451 -0.2361 -0.2645  0.2256
  612SOL     MW 2448   7.393   9.498   3.497  0.1641 -0.2846 -0.1558
  613SOL     OW 2449   7.444   9.142  10.017 -0.1689 -0.2327 -0.2415
  613SOL    HW1 2450   7.389   9.204   9.969  0.1038  0.4636  0.3269
  613SOL    HW2 2451   7.383   9.098  10.076 -0.5041 -1.0825 -1.1808
  613SOL     MW 2452   7.428   9.145  10.018 -0.1773 -0.2533 -0.2914
  614SOL     OW 2453   6.069   8.326   1.215 -0.2859  0.2369 -0.4024
  614SOL    HW1 2454   6.110   8.401   1.172 -0.0935  0.6055  0.4022
  614SOL    HW2 2455   6.142   8.270   1.241  0.0912  2.2031  3.5242
  614SOL     MW 2456   6.084   8.328   1.213 -0.2092  0.5511  0.2343
  615SOL     OW 2457   5.290   0.320   4.817 -0.0005 -0.0289  0.1914
  615SOL    HW1 2458   5.252   0.385   4.758 -0.1737  0.5261  0.9088
  615SOL    HW2 2459   5.258   0.236   4.784 -0.0163  0.2636 -0.5640
  615SOL     MW 2460   5.281   0.317   4.805 -0.0259  0.0852  0.1863
  616SOL     OW 2461   6.487   8.275   5.931 -0.1969 -0.0350  0.9525
  616SOL    HW1 2462   6.483   8.350   5.872  1.1457 -0.2239  0.5909
  616SOL    HW2 2463   6.576   8.277   5.966  0.0262 -1.7479  0.5444
  616SOL     MW 2464   6.498   8.286   5.927  0.0138 -0.2909  0.8489
  617SOL     OW 2465   5.197   8.415   5.572  0.0544  0.2122  0.2253
  617SOL    HW1 2466   5.180   8.347   5.507 -0.0507 -1.2098  1.6664
  617SOL    HW2 2467   5.285   8.447   5.552  0.1380 -0.4075 -0.4399
  617SOL     MW 2468   5.206   8.410   5.561  0.0515 -0.0626  0.3297
  618SOL     OW 2469   4.951   8.492   6.736 -0.3999 -0.5420  0.6179
  618SOL    HW1 2470   4.962   8.587   6.743  0.1767 -0.5994  0.5685
  618SOL    HW2 2471   4.859   8.477   6.754 -0.5576  0.0564  0.3340
  618SOL     MW 2472   4.940   8.502   6.740 -0.3435 -0.4692  0.5731
  619SOL     OW 2473   4.850   0.932   4.111  0.1281  0.1656 -0.0103
  619SOL    HW1 2474   4.760   0.925   4.143  0.7248 -3.1149  1.2980
  619SOL    HW2 2475   4.897   0.977   4.181 -0.0277 -0.3122  0.4053
  619SOL     MW 2476   4.844   0.937   4.125  0.1874 -0.3402  0.2217
  620SOL     OW 2477   7.244   8.174   4.365  0.5069 -0.0546 -0.0017
  620SOL    HW1 2478   7.245   8.180   4.461 -1.0246  0.5141  0.0064
  620SOL    HW2 2479   7.198   8.253   4.336  0.5088 -0.4630 -1.1715
  620SOL     MW 2480   7.238   8.185   4.374  0.3010 -0.0330 -0.1580
  621SOL     OW 2481   5.563   1.504   8.037  0.0858 -0.3535  0.4072
  621SOL    HW1 2482   5.579   1.523   8.130 -0.1807 -0.7686  0.5393
  621SOL    HW2 2483   5.586   1.586   7.992 -0.5917  0.1359  0.9218
  621SOL     MW 2484   5.568   1.518   8.044 -0.0412 -0.3435  0.4942
  622SOL     OW 2485   6.134   8.898   9.782  0.4316  0.3139 -0.0386
  622SOL    HW1 2486   6.210   8.925   9.732 -0.2128  1.3775 -0.4744
  622SOL    HW2 2487   6.059   8.914   9.724 -0.2689  0.9059  0.9834
  622SOL     MW 2488   6.134   8.904   9.767  0.2506  0.5367  0.0403
  623SOL     OW 2489   6.770   9.926   9.819 -0.0092  0.5240  0.3077
  623SOL    HW1 2490   6.693   9.922   9.875  0.5013  0.4441  1.0234
  623SOL    HW2 2491   6.735   9.934   9.730 -0.8574 -0.2580  0.5474
  623SOL     MW 2492   6.755   9.926   9.814 -0.0546  0.4080  0.4362
  624SOL     OW 2493   5.998   1.754   1.358 -0.2731  0.9068  0.5138
  624SOL    HW1 2494   6.054   1.699   1.304 -0.6425  1.8346 -0.8641
  624SOL    HW2 2495   5.921   1.700   1.376 -2.0029  1.7857 -3.2694
  624SOL     MW 2496   5.995   1.739   1.354 -0.5556  1.1500 -0.1808
  625SOL     OW 2497   7.023   0.776   3.267 -0.1212  0.4200 -0.5515
  625SOL    HW1 2498   7.034   0.683   3.249 -0.7281  0.0273  0.9756
  625SOL    HW2 2499   7.105   0.802   3.308 -0.0164  0.5386 -0.8284
  625SOL     MW 2500   7.036   0.767   3.270 -0.1888  0.3831 -0.3832
  626SOL     OW 2501   4.443   1.095   6.931 -0.5058 -0.6226  0.1726
  626SOL    HW1 2502   4.435   1.140   7.015  1.6237 -0.6198  0.4172
  626SOL    HW2 2503   4.426   1.003   6.952  0.4085 -0.6824  0.7137
  626SOL     MW 2504   4.439   1.088   6.945 -0.0961 -0.6302  0.2783
  627SOL     OW 2505   5.385   8.466   6.466  0.2967  0.3978  0.2057
  627SOL    HW1 2506   5.417   8.549   6.502 -0.6978  0.4231  1.0861
  627SOL    HW2 2507   5.398   8.404   6.538 -1.3155  0.3532  0.5009
  627SOL     MW 2508   5.391   8.469   6.481 -0.0541  0.3952  0.3639
  628SOL     OW 2509   6.301   9.568   4.805  0.4562 -0.3874  0.2059
  628SOL    HW1 2510   6.329   9.651   4.843 -0.5150 -0.5510  1.3139
  628SOL    HW2 2511   6.377   9.512   4.811  0.6670 -0.0408  0.8353
  628SOL     MW 2512   6.315   9.572   4.811  0.3539 -0.3628  0.4397
  629SOL     OW 2513   5.624   9.398   0.627 -0.4841  0.6213 -0.3454
  629SOL    HW1 2514   5.675   9.449   0.691  0.3745  0.0800 -0.5786
  629SOL    HW2 2515   5.577   9.334   0.679  0.9731 -0.4677 -0.2985
  629SOL     MW 2516   5.625   9.397   0.643 -0.1725  0.4019 -0.3705
  630SOL     OW 2517   7.028   0.008   2.746  0.4415 -0.3075  0.0709
  630SOL    HW1 2518   7.015  -0.007   2.652  1.2007 -0.1295 -0.0728
  630SOL    HW2 2519   6.977   0.087   2.765  0.2237 -0.3877 -0.1773
  630SOL     MW 2520   7.019   0.016   2.736  0.5143 -0.2943  0.0182
  631SOL     OW 2521   6.357   0.076   8.911  0.1130 -0.9159  0.2148
  631SOL    HW1 2522   6.417   0.136   8.955  0.6351  0.8714 -2.6339
  631SOL    HW2 2523   6.270   0.108   8.935  0.3624  1.7984 -2.0112
  631SOL     MW 2524   6.353   0.088   8.920  0.2168 -0.3101 -0.4682
  632SOL     OW 2525   7.208   9.934   8.433  0.2848  0.6332  0.5060
  632SOL    HW1 2526   7.257   9.892   8.362  2.2886  0.8720  1.6695
  632SOL    HW2 2527   7.153   9.999   8.390  1.7299  1.0336 -0.8169
  632SOL     MW 2528   7.207   9.937   8.418  0.7489  0.7192  0.4845
  633SOL     OW 2529   5.238   8.479   4.657  0.0673 -0.3828  0.4430
  633SOL    HW1 2530   5.245   8.511   4.747 -0.5004 -0.8776  0.6731
  633SOL    HW2 2531   5.154   8.434   4.654  0.7462 -1.6751  0.0774
  633SOL     MW 2532   5.228   8.477   4.669  0.0823 -0.6233  0.4248
  634SOL     OW 2533   6.321   7.494   9.842  0.1143  0.7212  0.1830
  634SOL    HW1 2534   6.232   7.530   9.841 -0.7627 -1.3122 -0.8929
  634SOL    HW2 2535   6.314   7.413   9.791  1.8162 -1.3035  2.8946
  634SOL     MW 2536   6.308   7.488   9.835  0.2253  0.1751  0.4031
  635SOL     OW 2537   5.268   7.905   3.492 -0.1382 -0.3374 -0.0308
  635SOL    HW1 2538   5.295   7.957   3.417 -0.4826  0.4232  0.3590
  635SOL    HW2 2539   5.343   7.907   3.551 -0.1995 -0.1746  0.0413
  635SOL     MW 2540   5.282   7.912   3.490 -0.1928 -0.2131  0.0314
  636SOL     OW 2541   7.101   1.635   8.756 -0.2651  0.2694 -0.1408
  636SOL    HW1 2542   7.167   1.604   8.695  0.3360  0.9247  0.1591
  636SOL    HW2 2543   7.033   1.675   8.701  1.5946  3.4589 -0.3548
  636SOL     MW 2544   7.100   1.636   8.741  0.0661  0.7868 -0.1292
  637SOL     OW 2545   3.903   9.427   6.364  0.0783 -0.2346  0.0945
  637SOL    HW1 2546   3.898   9.349   6.420  2.7237  1.0746  2.4085
  637SOL    HW2 2547   3.857   9.495   6.412 -1.1842 -0.0248 -1.3491
  637SOL     MW 2548   3.896   9.425   6.378  0.2644 -0.0302  0.2116
  638SOL     OW 2549   4.209   9.528   5.439 -0.1445 -0.2781  0.3961
  638SOL    HW1 2550   4.178   9.460   5.379  0.4422 -0.8883  0.7669
  638SOL    HW2 2551   4.263   9.585   5.384 -1.2777  0.3548 -0.0882
  638SOL     MW 2552   4.212   9.526   5.423 -0.2180 -0.2751  0.3808
  639SOL     OW 2553   4.691   9.136   2.587 -0.0104 -0.6618  0.1304
  639SOL    HW1 2554   4.743   9.163   2.662  2.0967 -1.6313 -0.8721
  639SOL    HW2 2555   4.755   9.124   2.517 -1.8825  0.2678 -1.8707
  639SOL     MW 2556   4.707   9.138   2.587  0.0213 -0.6672 -0.2738
  640SOL     OW 2557   7.745   0.135   5.840 -0.0330  0.1751  0.1206
  640SOL    HW1 2558   7.662   0.180   5.826 -0.0770 -0.1476 -0.6869
  640SOL    HW2 2559   7.794   0.193   5.899  0.1935  1.6497 -1.4161
  640SOL     MW 2560   7.740   0.149   5.846 -0.0085  0.3301 -0.1949
  641SOL     OW 2561   7.845   9.933   7.070 -0.6323  0.0893 -0.1251
  641SOL    HW1 2562   7.872  10.007   7.015  0.6461 -0.7679 -0.6951
  641SOL    HW2 2563   7.879   9.955   7.157 -0.9249  0.5227 -0.1157
  641SOL     MW 2564   7.853   9.946   7.074 -0.4996  0.0322 -0.2005
  642SOL     OW 2565   5.201   9.432   5.311  0.5632  0.2068 -0.1388
  642SOL    HW1 2566   5.228   9.408   5.222 -0.0674 -1.0177 -0.0208
  642SOL    HW2 2567   5.169   9.350   5.349 -2.4909  1.3569  0.0352
  642SOL     MW 2568   5.201   9.418   5.304  0.0673  0.1968 -0.0995
  643SOL     OW 2569   6.676   7.962   2.276 -0.2301  0.1016  0.2102
  643SOL    HW1 2570   6.668   7.943   2.369  0.6861  2.3086  0.8084
  643SOL    HW2 2571   6.585   7.968   2.245 -0.5388 -1.0898  0.8349
  643SOL     MW 2572   6.663   7.960   2.284 -0.1483  0.2383  0.3748
  644SOL     OW 2573   6.712   9.360   0.713  0.0159 -0.1512 -0.4732
  644SOL    HW1 2574   6.764   9.327   0.786 -1.1546 -2.2503 -0.4765
  644SOL    HW2 2575   6.750   9.318   0.636 -0.7427 -0.5402 -0.6490
  644SOL     MW 2576   6.724   9.350   0.712 -0.2437 -0.4861 -0.4973
  645SOL     OW 2577   4.838   9.738   1.822  0.1489  0.7084 -0.4002
  645SOL    HW1 2578   4.928   9.752   1.851  0.3235 -1.1885  0.0811
  645SOL    HW2 2579   4.785   9.791   1.882  0.6788 -1.3321  2.0588
  645SOL     MW 2580   4.843   9.747   1.834  0.2437  0.1785 -0.0045
  646SOL     OW 2581   6.004   8.608   6.352 -0.2696  0.3305  0.7160
  646SOL    HW1 2582   6.066   8.671   6.390  0.1865 -0.2361  0.9304
  646SOL    HW2 2583   6.023   8.526   6.398  0.9900 -0.6434 -1.4151
  646SOL     MW 2584   6.015   8.605   6.363 -0.0387  0.1232  0.4581
  647SOL     OW 2585   5.646  10.167   5.910  0.4053 -0.3880  0.0560
  647SOL    HW1 2586   5.703  10.171   5.833 -0.4114 -0.2507 -0.5678
  647SOL    HW2 2587   5.688  10.105   5.969  0.8496 -0.7905 -0.6751
  647SOL     MW 2588   5.659  10.159   5.907  0.3552 -0.4237 -0.1263
  648SOL     OW 2589   7.497   9.777   1.653  0.0380  0.2993  0.5873
  648SOL    HW1 2590   7.565   9.800   1.716 -0.1783  0.5873  0.7169
  648SOL    HW2 2591   7.486   9.682   1.663 -0.3661  0.4215  1.3609
  648SOL     MW 2592   7.505   9.767   1.663 -0.0455  0.3545  0.7089
  649SOL     OW 2593   6.403   8.847   0.912 -0.0466 -0.0562  0.1899
  649SOL    HW1 2594   6.312   8.863   0.938  0.1526 -1.7510  2.2407
  649SOL    HW2 2595   6.447   8.930   0.929 -1.1609  0.7674 -0.7661
  649SOL     MW 2596   6.396   8.860   0.918 -0.1698 -0.1734  0.3372
  650SOL     OW 2597   6.470   8.768   1.379 -0.1595  0.3855 -0.3681
  650SOL    HW1 2598   6.449   8.859   1.399 -1.0371  0.3668 -1.1080
  650SOL    HW2 2599   6.560   8.757   1.409  0.3312  1.8010 -1.1852
  650SOL     MW 2600   6.480   8.779   1.385 -0.2116  0.5735 -0.5777
  651SOL     OW 2601   6.550  10.119   2.593 -0.0361 -0.1004 -0.3704
  651SOL    HW1 2602   6.586  10.063   2.662 -1.9159 -0.5983  0.2656
  651SOL    HW2 2603   6.577  10.078   2.511  0.3930 -0.7392  0.0867
  651SOL     MW 2604   6.558  10.106   2.591 -0.2313 -0.2534 -0.2233
  652SOL     OW 2605   5.727   0.014   9.790  0.0808  0.4020  0.5122
  652SOL    HW1 2606   5.812  -0.011   9.825  0.2226 -1.2479 -0.8678
  652SOL    HW2 2607   5.746   0.080   9.724  0.3418 -0.2467 -0.0682
  652SOL     MW 2608   5.741   0.019   9.786  0.1350  0.0926  0.2484
  653SOL     OW 2609   5.704   9.164   8.976 -0.2854 -0.3341 -0.6635
  653SOL    HW1 2610   5.741   9.252   8.965 -1.2155 -0.0521 -1.7250
  653SOL    HW2 2611   5.610   9.177   8.968 -0.5536 -1.2268  0.6987
  653SOL     MW 2612   5.696   9.177   8.973 -0.4467 -0.4163 -0.6230
  654SOL     OW 2613   6.612   8.821   8.351 -0.3336  0.5594  0.1065
  654SOL    HW1 2614   6.592   8.742   8.400  4.3595 -0.6105  0.6073
  654SOL    HW2 2615   6.596   8.797   8.259 -0.7294 -0.3030  0.3880
  654SOL     MW 2616   6.607   8.807   8.345  0.2447  0.2859  0.2118
  655SOL     OW 2617   5.885   9.571   3.500  0.1534 -0.4302 -0.4355
  655SOL    HW1 2618   5.901   9.533   3.413 -0.7439  0.5123 -1.0387
  655SOL    HW2 2619   5.900   9.665   3.487 -1.5102 -0.0733  0.0310
  655SOL     MW 2620   5.890   9.578   3.486 -0.1912 -0.2553 -0.4539
  656SOL     OW 2621   4.700   8.084   8.346  0.0130 -0.0266 -0.7047
  656SOL    HW1 2622   4.751   8.014   8.387  0.2625  0.2722 -0.4954
  656SOL    HW2 2623   4.614   8.046   8.330  0.5881 -0.8589 -1.9687
  656SOL     MW 2624   4.695   8.070   8.350  0.1240 -0.0984 -0.8466
  657SOL     OW 2625   6.327   8.843   0.422 -0.6433 -0.0061 -0.1044
  657SOL    HW1 2626   6.353   8.781   0.354  1.4455  1.5156 -0.7970
  657SOL    HW2 2627   6.407   8.891   0.442 -1.8381  1.4177  1.5209
  657SOL     MW 2628   6.341   8.841   0.415 -0.5230  0.3903  0.0211
  658SOL     OW 2629   5.360   7.939   4.885  0.2676 -0.4488  0.3422
  658SOL    HW1 2630   5.332   8.019   4.843 -0.2716 -0.3442  0.8878
  658SOL    HW2 2631   5.408   7.891   4.817  0.3722  0.2144 -0.0541
  658SOL     MW 2632   5.363   7.943   4.871  0.2091 -0.3454  0.3623
  659SOL     OW 2633   6.925   7.688   4.606  0.2770 -0.2364  0.2547
  659SOL    HW1 2634   6.916   7.634   4.528  0.4379 -0.6258  0.5003
  659SOL    HW2 2635   6.851   7.663   4.661 -0.7406  1.1636 -0.4241
  659SOL     MW 2636   6.914   7.677   4.603  0.1617 -0.1004  0.1964
  660SOL     OW 2637   7.511   1.076   7.373  0.3606 -0.3895 -0.1918
  660SOL    HW1 2638   7.546   1.095   7.460  0.0379  0.5016 -0.2465
  660SOL    HW2 2639   7.430   1.027   7.390  0.4815 -0.5275 -0.0048
  660SOL     MW 2640   7.504   1.072   7.387  0.3334 -0.2881 -0.1740
  661SOL     OW 2641   7.484   8.355   2.231  0.1835 -0.3771 -0.4289
  661SOL    HW1 2642   7.522   8.294   2.294 -0.2023 -0.7987 -0.5978
  661SOL    HW2 2643   7.440   8.299   2.167  0.0735  0.0692 -0.7468
  661SOL     MW 2644   7.483   8.339   2.231  0.1168 -0.3738 -0.4944
  662SOL     OW 2645   4.593   0.715   1.460  0.0871  0.0924  0.3835
  662SOL    HW1 2646   4.603   0.631   1.415 -0.3068  0.1742  0.1379
  662SOL    HW2 2647   4.664   0.769   1.426 -0.4258  0.2770 -0.4382
  662SOL     MW 2648   4.604   0.711   1.449 -0.0349  0.1283  0.2399
  663SOL     OW 2649   4.159   8.287   3.748  0.6466  0.1545  0.5765
  663SOL    HW1 2650   4.112   8.211   3.715  1.9707 -0.1255 -0.8449
  663SOL    HW2 2651   4.150   8.353   3.679 -2.5562  2.3209  2.7892
  663SOL     MW 2652   4.152   8.286   3.734  0.3937  0.4084  0.6830
  664SOL     OW 2653   4.804   8.139   3.626 -0.2206 -0.0860  0.0714
  664SOL    HW1 2654   4.887   8.128   3.579  0.0320 -0.6523  0.6280
  664SOL    HW2 2655   4.737   8.122   3.560  0.0973  0.5669 -0.4318
  664SOL     MW 2656   4.806   8.135   3.611 -0.1438 -0.0743  0.0786
  665SOL     OW 2657   7.901   9.447   0.170 -0.3071  0.2973 -0.3667
  665SOL    HW1 2658   7.855   9.487   0.244 -0.0163  0.9262 -0.5129
  665SOL    HW2 2659   7.979   9.408   0.209  0.5441  1.7818 -0.4848
  665SOL     MW 2660   7.905   9.447   0.185 -0.1534  0.5817 -0.4022
  666SOL     OW 2661   8.085   9.939   3.097  0.3360 -0.4203  0.1946
  666SOL    HW1 2662   8.163   9.896   3.062  1.6732 -0.0702  2.5536
  666SOL    HW2 2663   8.050   9.878   3.161  0.0965  0.4540  0.9220
  666SOL     MW 2664   8.091   9.925   3.101  0.4838 -0.2555  0.6100
  667SOL     OW 2665   5.000   0.517   6.824 -0.4174 -0.0797  0.9777
  667SOL    HW1 2666   5.046   0.445   6.779 -1.8979 -0.3610 -0.1899
  667SOL    HW2 2667   4.909   0.487   6.829 -0.9478  1.4523  1.0190
  667SOL     MW 2668   4.994   0.503   6.819 -0.6880  0.0886  0.8261
  668SOL     OW 2669   7.431   0.027   1.706  0.7316 -0.2177 -0.7335
  668SOL    HW1 2670   7.473   0.113   1.715  3.4196 -1.4062 -0.9172
  668SOL    HW2 2671   7.440   0.005   1.614 -0.5030 -0.4587 -0.8137
  668SOL     MW 2672   7.438   0.036   1.695  0.9272 -0.4101 -0.7690
  669SOL     OW 2673   7.276   0.757   0.635 -0.1990  0.2402 -0.6366
  669SOL    HW1 2674   7.251   0.845   0.662  0.5966  0.1555  0.4256
  669SOL    HW2 2675   7.194   0.709   0.630 -0.4434  0.4125  1.1540
  669SOL     MW 2676   7.262   0.762   0.638 -0.1248  0.2520 -0.2527
  670SOL     OW 2677   4.786   0.788   8.691 -0.2146  0.1175  0.7463
  670SOL    HW1 2678   4.708   0.746   8.657  0.8042  0.4142 -2.2263
  670SOL    HW2 2679   4.794   0.869   8.640  2.7814 -0.6106 -0.1010
  670SOL     MW 2680   4.777   0.794   8.680  0.3258  0.0594  0.2322
  671SOL     OW 2681   4.148   9.623   9.254 -0.2722 -0.2253  0.1664
  671SOL    HW1 2682   4.196   9.566   9.314  1.9207 -0.2879 -1.5743
  671SOL    HW2 2683   4.057   9.595   9.264  0.3310 -1.8886  1.6438
  671SOL     MW 2684   4.142   9.611   9.264  0.1041 -0.4575  0.1310
  672SOL     OW 2685   6.447   0.074   2.167  0.0744 -0.0113  0.0499
  672SOL    HW1 2686   6.465   0.117   2.250 -1.6401 -0.4378  0.6982
  672SOL    HW2 2687   6.369   0.021   2.184 -0.1696 -0.3094 -1.7677
  672SOL     MW 2688   6.439   0.072   2.180 -0.1892 -0.1088 -0.1075
  673SOL     OW 2689   4.637   8.154   3.193  0.1512 -0.4401 -0.0713
  673SOL    HW1 2690   4.662   8.121   3.106  0.0486 -1.3418  0.2246
  673SOL    HW2 2691   4.549   8.189   3.180  0.7058  0.8023 -0.6473
  673SOL     MW 2692   4.628   8.154   3.179  0.2120 -0.3943 -0.1090
  674SOL     OW 2693   5.172   1.446   4.614  0.4007 -0.2247 -0.1680
  674SOL    HW1 2694   5.149   1.354   4.628 -1.3880  0.3529  0.9928
  674SOL    HW2 2695   5.173   1.485   4.701 -1.8774  1.4811 -0.7983
  674SOL     MW 2696   5.169   1.439   4.627 -0.1466  0.0826 -0.0966
  675SOL     OW 2697   7.038   0.645   3.772  0.0496  0.0103 -0.2104
  675SOL    HW1 2698   7.101   0.596   3.720 -0.0326 -0.5937  0.2567
  675SOL    HW2 2699   7.071   0.640   3.862  0.7105  1.8448 -0.3009
  675SOL     MW 2700   7.051   0.638   3.777  0.1275  0.1759 -0.1597
  676SOL     OW 2701   4.788   0.942   5.316 -0.1243  0.3467  0.0577
  676SOL    HW1 2702   4.785   0.969   5.224  0.1687  3.2807  0.7991
  676SOL    HW2 2703   4.881   0.934   5.336 -0.0859  1.7560  0.5663
  676SOL     MW 2704   4.800   0.945   5.306 -0.0797  0.9312  0.2259
  677SOL     OW 2705   7.066   9.531   6.909 -0.0836 -0.7578 -0.5569
  677SOL    HW1 2706   7.024   9.604   6.954 -0.7716  0.5212 -3.1253
  677SOL    HW2 2707   6.993   9.475   6.881  0.0805 -0.1248 -2.3639
  677SOL     MW 2708   7.051   9.533   6.912 -0.1541 -0.5005 -1.1457
  678SOL     OW 2709   7.183   0.347   7.628  0.0167 -0.2170 -0.2593
  678SOL    HW1 2710   7.164   0.376   7.717  0.4612  0.7532 -0.4638
  678SOL    HW2 2711   7.259   0.289   7.637  0.2028  0.0645 -0.0344
  678SOL     MW 2712   7.191   0.343   7.641  0.1015 -0.0486 -0.2565
  679SOL     OW 2713   5.579   1.004   2.390  0.2337 -0.2205  0.2833
  679SOL    HW1 2714   5.592   1.079   2.333 -1.6821  0.1268  0.2469
  679SOL    HW2 2715   5.551   0.934   2.331 -1.9971  0.2054  0.7349
  679SOL     MW 2716   5.577   1.004   2.374 -0.3243 -0.1165  0.3392
  680SOL     OW 2717   4.707   8.831   2.577 -0.1072 -0.0884  0.5550
  680SOL    HW1 2718   4.703   8.898   2.509  0.8540 -0.9533 -0.3889
  680SOL    HW2 2719   4.778   8.773   2.549 -1.7333 -2.2401  0.6578
  680SOL     MW 2720   4.716   8.833   2.564 -0.1967 -0.4944  0.4418
  681SOL     OW 2721   3.987   0.531   5.525  0.3188  0.3506 -0.3512
  681SOL    HW1 2722   3.981   0.436   5.534  2.8406  0.1467 -0.0817
  681SOL    HW2 2723   4.054   0.544   5.458  2.2131  1.8806  1.7032
  681SOL     MW 2724   3.995   0.520   5.518  0.9131  0.5291 -0.0384
  682SOL     OW 2725   4.483   1.035   2.207 -0.1247  0.1610 -0.1681
  682SOL    HW1 2726   4.404   1.028   2.154  0.5166 -1.1328 -1.0078
  682SOL    HW2 2727   4.521   0.947   2.206  1.0361  0.6153  0.6799
  682SOL     MW 2728   4.478   1.022   2.200  0.1178  0.0480 -0.1670
  683SOL     OW 2729   6.245   1.653   4.590  0.4051 -0.1451  0.3367
  683SOL    HW1 2730   6.211   1.567   4.569  0.2481  0.1248 -0.5220
  683SOL    HW2 2731   6.174   1.713   4.569 -0.1652  0.0712  2.6224
  683SOL     MW 2732   6.231   1.650   4.585  0.3072 -0.0797  0.5288
  684SOL     OW 2733   6.797   0.429   6.177 -0.0006 -0.0981  0.3957
  684SOL    HW1 2734   6.820   0.402   6.088  0.4148  1.3966  0.0115
  684SOL    HW2 2735   6.878   0.417   6.227 -0.8168 -3.0413  1.1541
  684SOL     MW 2736   6.811   0.424   6.172 -0.0545 -0.2931  0.4461
  685SOL     OW 2737   4.861   0.433   4.892 -0.2445 -0.1109 -0.3084
  685SOL    HW1 2738   4.837   0.378   4.966  0.2826 -0.6370 -0.5237
  685SOL    HW2 2739   4.888   0.372   4.824  0.1895  0.4048 -0.6084
  685SOL     MW 2740   4.861   0.417   4.893 -0.1151 -0.1123 -0.3777
  686SOL     OW 2741   6.109   1.390   7.945  0.1596  0.1258  0.1926
  686SOL    HW1 2742   6.070   1.446   7.878 -2.3793 -2.4906 -0.7147
  686SOL    HW2 2743   6.059   1.411   8.024  0.8427  0.7933  0.4582
  686SOL     MW 2744   6.097   1.400   7.947 -0.0901 -0.1365  0.1062
  687SOL     OW 2745   4.281   1.126   9.212  0.2778 -0.1631 -0.2909
  687SOL    HW1 2746   4.375   1.110   9.209  0.9368  1.6733  3.6925
  687SOL    HW2 2747   4.271   1.215   9.178 -0.0178 -0.2786 -0.5109
  687SOL     MW 2748   4.292   1.136   9.207  0.3267  0.0685  0.2156
  688SOL     OW 2749   6.234   9.775   6.314 -0.1775  0.1632  0.1393
  688SOL    HW1 2750   6.209   9.868   6.306  1.0412  0.5332  0.4815
  688SOL    HW2 2751   6.215   9.753   6.405  0.7563  0.4644  0.4186
  688SOL     MW 2752   6.228   9.785   6.325  0.1122  0.2535  0.2230
  689SOL     OW 2753   5.906   8.958   9.620  0.0724 -0.8683  0.1490
  689SOL    HW1 2754   5.845   8.968   9.693  0.8057 -0.1171  0.6752
  689SOL    HW2 2755   5.857   8.909   9.555 -0.2237 -2.5670  1.5852
  689SOL     MW 2756   5.892   8.953   9.621  0.1313 -0.9958  0.4131
  690SOL     OW 2757   6.324   8.604   4.406 -0.3678 -0.6179 -0.2719
  690SOL    HW1 2758   6.252   8.662   4.384  0.2424 -0.3485 -1.6787
  690SOL    HW2 2759   6.285   8.538   4.465 -1.6663 -0.2976 -0.7451
  690SOL     MW 2760   6.309   8.603   4.411 -0.4604 -0.5385 -0.5249
  691SOL     OW 2761   7.277   0.096   2.674  0.2455  0.2485  0.1785
  691SOL    HW1 2762   7.193   0.057   2.697  0.3177  0.9048  1.6383
  691SOL    HW2 2763   7.325   0.100   2.756  0.4950  2.7385 -0.0154
  691SOL     MW 2764   7.272   0.091   2.688  0.2888  0.6720  0.3488
  692SOL     OW 2765   5.045   9.297  10.077  0.2395  0.7978 -0.3779
  692SOL    HW1 2766   5.126   9.259  10.110 -0.7433 -0.7307  0.3699
  692SOL    HW2 2767   5.065   9.390  10.066  1.2325  1.0480  2.6248
  692SOL     MW 2768   5.058   9.305  10.080  0.2408  0.6257  0.1269
  693SOL     OW 2769   4.019   9.911   3.535  0.1625  0.5266  0.3920
  693SOL    HW1 2770   4.054   9.880   3.452 -0.4773  1.5912 -0.2901
  693SOL    HW2 2771   4.021   9.834   3.592  0.1771 -0.3311 -0.7430
  693SOL     MW 2772   4.024   9.897   3.531  0.0784  0.5544  0.1475
  694SOL     OW 2773   7.052   0.340   0.318 -0.7623 -0.2108 -0.3418
  694SOL    HW1 2774   7.022   0.319   0.407 -0.4378  1.2766  0.1426
  694SOL    HW2 2775   7.144   0.316   0.318 -0.2042  1.7556  0.4445
  694SOL     MW 2776   7.060   0.334   0.330 -0.6435  0.2540 -0.1708
  695SOL     OW 2777   6.802   9.023   8.183  0.1536  0.3687  0.1979
  695SOL    HW1 2778   6.741   8.950   8.169 -0.1379  0.6265  0.1173
  695SOL    HW2 2779   6.785   9.083   8.110  0.8171  0.2314 -0.0696
  695SOL     MW 2780   6.791   9.021   8.171  0.2036  0.3849  0.1510
  696SOL     OW 2781   6.098   1.688   6.033  0.5550  0.0383 -0.5087
  696SOL    HW1 2782   6.164   1.713   6.098 -0.1533  0.5294  0.0425
  696SOL    HW2 2783   6.148   1.645   5.964  1.2878 -0.8062  0.5107
  696SOL     MW 2784   6.114   1.686   6.033  0.5583 -0.0093 -0.2973
  697SOL     OW 2785   7.187   8.132   3.091  0.4594 -0.2048 -0.5802
  697SOL    HW1 2786   7.176   8.131   2.996 -1.1101 -0.1377 -0.4101
  697SOL    HW2 2787   7.282   8.133   3.103  0.6867 -0.0636 -2.1418
  697SOL     MW 2788   7.199   8.132   3.080  0.2788 -0.1768 -0.7674
  698SOL     OW 2789   6.878   9.640   3.792  0.6511  0.1639 -0.2388
  698SOL    HW1 2790   6.969   9.669   3.805  1.0184 -0.5296 -1.1665
  698SOL    HW2 2791   6.884   9.545   3.783 -0.1009  0.1637 -0.8263
  698SOL     MW 2792   6.891   9.631   3.793  0.5994  0.0705 -0.4427
  699SOL     OW 2793   6.274   9.116   2.636 -0.1187 -0.4019 -0.0299
  699SOL    HW1 2794   6.192   9.139   2.592 -0.7258  0.3653  1.4364
  699SOL    HW2 2795   6.247   9.064   2.712  0.8831 -1.5144 -0.4108
  699SOL     MW 2796   6.259   9.113   2.640 -0.0656 -0.4484  0.1162
  700SOL     OW 2797   4.269   8.374   2.483  0.0359 -0.1632  0.7633
  700SOL    HW1 2798   4.315   8.383   2.399 -1.3056 -1.5731 -0.1848
  700SOL    HW2 2799   4.284   8.457   2.527  3.0965 -0.3679  0.3593
  700SOL     MW 2800   4.278   8.386   2.478  0.2673 -0.3805  0.5814
  701SOL     OW 2801   5.519  10.101   0.809  0.3790  0.0345 -0.0564
  701SOL    HW1 2802   5.480  10.019   0.779  0.7613  0.0685 -0.6501
  701SOL    HW2 2803   5.519  10.094   0.905 -2.7057  0.7498  0.1209
  701SOL     MW 2804   5.513  10.089   0.818  0.0153  0.1353 -0.1124
  702SOL     OW 2805   5.608   8.390  10.113  0.3374  0.7991 -0.2526
  702SOL    HW1 2806   5.634   8.480  10.132  0.5962  0.4926  0.9102
  702SOL    HW2 2807   5.652   8.337  10.179  0.5407 -0.2409 -1.1773
  702SOL     MW 2808   5.617   8.395  10.124  0.3996  0.6179 -0.2206
  703SOL     OW 2809   5.101   0.711   7.979  0.6097  0.8521 -0.4574
  703SOL    HW1 2810   5.154   0.768   8.035  1.4226  0.3600 -0.7011
  703SOL    HW2 2811   5.095   0.758   7.895  0.5913  0.9509 -0.4004
  703SOL     MW 2812   5.108   0.725   7.975  0.7166  0.7992 -0.4825
  704SOL     OW 2813   4.754   8.269   4.711 -0.0482  0.3331 -0.4974
  704SOL    HW1 2814   4.844   8.280   4.743 -0.2899 -0.5587  0.5569
  704SOL    HW2 2815   4.763   8.248   4.618  0.6735  3.1962 -1.1772
  704SOL     MW 2816   4.767   8.268   4.703  0.0164  0.5984 -0.4470
  705SOL     OW 2817   4.268   8.886   7.059 -0.4301  0.4513  0.2673
  705SOL    HW1 2818   4.253   8.906   7.151 -0.5584 -0.2547  0.4062
  705SOL    HW2 2819   4.342   8.941   7.034  0.9456 -0.8257  1.3578
  705SOL     MW 2820   4.276   8.896   7.068 -0.2622  0.1844  0.4328
  706SOL     OW 2821   4.636   9.573   5.612 -0.2975 -0.0873 -0.2860
  706SOL    HW1 2822   4.552   9.528   5.619  0.3587 -1.2841  0.1373
  706SOL    HW2 2823   4.697   9.505   5.585  0.2208  1.1398 -2.4014
  706SOL     MW 2824   4.633   9.558   5.609 -0.1395 -0.0832 -0.5137
  707SOL     OW 2825   7.537   8.341   5.072 -0.3352  0.8748 -0.2447
  707SOL    HW1 2826   7.507   8.259   5.032  2.2079  0.0503 -0.6582
  707SOL    HW2 2827   7.573   8.390   4.998  2.7169  0.1394  0.6265
  707SOL     MW 2828   7.538   8.336   5.057  0.4178  0.6649 -0.1831
  708SOL     OW 2829   7.398   8.926   9.220 -0.3540 -0.5943 -0.3714
  708SOL    HW1 2830   7.477   8.956   9.175  0.0479 -2.3844 -0.9274
  708SOL    HW2 2831   7.431   8.873   9.293 -1.0201  1.1979  1.3217
  708SOL     MW 2832   7.413   8.923   9.224 -0.3896 -0.5940 -0.2184
  709SOL     OW 2833   6.009   1.244   7.614 -0.1039 -0.3571  0.3132
  709SOL    HW1 2834   6.027   1.302   7.539 -0.1166  1.2474  1.4876
  709SOL    HW2 2835   6.091   1.198   7.629  0.9199  1.6347  1.2026
  709SOL     MW 2836   6.022   1.246   7.606  0.0322  0.1269  0.5909
  710SOL     OW 2837   7.157   9.683   2.984 -0.3580 -0.1660 -0.0832
  710SOL    HW1 2838   7.121   9.772   2.981 -1.7751 -0.7279 -1.4595
  710SOL    HW2 2839   7.251   9.694   2.967 -0.6421  1.0247 -1.0148
  710SOL     MW 2840   7.165   9.696   2.981 -0.5869 -0.0814 -0.3938
  711SOL     OW 2841   5.837   8.627   7.986 -0.1511 -0.1685 -0.0953
  711SOL    HW1 2842   5.752   8.636   8.029  0.0023  0.6108  0.0531
  711SOL    HW2 2843   5.819   8.578   7.906 -0.4414 -1.7099  0.8594
  711SOL     MW 2844   5.823   8.621   7.981 -0.1696 -0.2711  0.0531
  712SOL     OW 2845   6.554   8.159   9.357 -0.6716  0.5556 -0.2790
  712SOL    HW1 2846   6.625   8.115   9.309 -0.2363  0.3820  0.5017
  712SOL    HW2 2847   6.503   8.203   9.289  0.8760  1.6769 -0.7776
  712SOL     MW 2848   6.557   8.159   9.341 -0.4048  0.6832 -0.2410
  713SOL     OW 2849   4.651   8.193   9.996  0.4722  0.2378 -0.4792
  713SOL    HW1 2850   4.597   8.246  10.054 -1.1348 -0.1562 -1.5517
  713SOL    HW2 2851   4.671   8.115  10.048 -1.6988 -0.5231 -0.6784
  713SOL     MW 2852   4.646   8.189  10.011 -0.0363  0.0824 -0.6503
  714SOL     OW 2853   5.099   0.359   2.320  0.5129 -0.2983 -0.4648
  714SOL    HW1 2854   5.022   0.331   2.368  2.2752 -1.0409  2.1099
  714SOL    HW2 2855   5.108   0.452   2.341  0.0435 -0.0722 -1.2214
  714SOL     MW 2856   5.090   0.368   2.329  0.6869 -0.3678 -0.2201
  715SOL     OW 2857   5.941   9.311   0.290  1.0455 -0.5320 -0.6473
  715SOL    HW1 2858   5.885   9.251   0.338 -0.0867  0.6226 -0.4692
  715SOL    HW2 2859   5.882   9.359   0.232  1.9732  0.1106 -1.0976
  715SOL     MW 2860   5.926   9.309   0.289  1.0180 -0.2901 -0.6839
  716SOL     OW 2861   5.673   9.504   0.250 -0.3184 -0.0881  0.0350
  716SOL    HW1 2862   5.731   9.553   0.191 -0.5027 -0.2325 -0.2726
  716SOL    HW2 2863   5.629   9.571   0.302 -0.2438  0.0500 -0.0777
  716SOL     MW 2864   5.675   9.520   0.249 -0.3332 -0.0889 -0.0216
  717SOL     OW 2865   4.305   9.845   9.175  0.4265 -0.4149  0.1672
  717SOL    HW1 2866   4.387   9.830   9.224 -1.1923  0.3156  3.3597
  717SOL    HW2 2867   4.243   9.782   9.213 -1.3548  1.2607  0.1619
  717SOL     MW 2868   4.308   9.834   9.187 -0.0311 -0.0911  0.5961
  718SOL     OW 2869   4.428   1.147   3.359 -0.2990 -0.1305 -0.1407
  718SOL    HW1 2870   4.399   1.223   3.409 -0.8604  0.1920 -0.9401
  718SOL    HW2 2871   4.467   1.184   3.279  0.6977 -0.6303  0.0966
  718SOL     MW 2872   4.429   1.162   3.355 -0.2404 -0.1544 -0.2163
  719SOL     OW 2873   6.371   7.796   9.380  0.0131  0.4952 -1.1855
  719SOL    HW1 2874   6.393   7.795   9.473 -0.2779 -0.7718 -1.1186
  719SOL    HW2 2875   6.309   7.868   9.370  0.3590  0.8966 -0.4794
  719SOL     MW 2876   6.366   7.806   9.391  0.0205  0.3787 -1.0815
  720SOL     OW 2877   7.553   8.920   5.402  0.2835  0.2547  0.7171
  720SOL    HW1 2878   7.522   8.973   5.475 -1.0297  0.4402  0.0397
  720SOL    HW2 2879   7.546   8.829   5.434 -0.1535  0.3412  0.8758
  720SOL     MW 2880   7.548   8.915   5.416  0.0480  0.2913  0.6473
  721SOL     OW 2881   6.532   1.565   6.654  0.2655  0.3581  0.1735
  721SOL    HW1 2882   6.548   1.487   6.600 -2.5002 -0.4616  0.3802
  721SOL    HW2 2883   6.440   1.585   6.640  0.0795  1.6157  2.6827
  721SOL     MW 2884   6.522   1.557   6.645 -0.1317  0.4170  0.5390
  722SOL     OW 2885   7.631   0.951   2.891  0.2776 -0.1322  0.0751
  722SOL    HW1 2886   7.605   0.911   2.975  1.4507  1.3870  1.2167
  722SOL    HW2 2887   7.557   1.007   2.868 -0.1586 -0.7487 -0.0479
  722SOL     MW 2888   7.617   0.953   2.899  0.3768 -0.0107  0.2122
  723SOL     OW 2889   7.347   0.725   4.010  0.0583 -0.0543 -0.0596
  723SOL    HW1 2890   7.379   0.775   4.085  0.4048  1.4107 -1.1492
  723SOL    HW2 2891   7.262   0.692   4.038  0.6255 -0.4151  1.3369
  723SOL     MW 2892   7.340   0.727   4.024  0.1813  0.0943 -0.0183
  724SOL     OW 2893   7.230   9.067   9.370  0.3665  0.6822 -0.8834
  724SOL    HW1 2894   7.203   9.145   9.324  1.3693  1.7262  0.2218
  724SOL    HW2 2895   7.289   9.022   9.310  2.0776  2.2927 -0.5107
  724SOL     MW 2896   7.235   9.071   9.356  0.7318  1.0394 -0.6845
  725SOL     OW 2897   7.068   9.641   5.773 -0.1097  0.3929 -0.1511
  725SOL    HW1 2898   7.024   9.721   5.804  0.3476  0.6766 -0.2331
  725SOL    HW2 2899   7.048   9.637   5.680  0.1691  0.6048 -0.2188
  725SOL     MW 2900   7.059   9.651   5.765 -0.0107  0.4596 -0.1713
  726SOL     OW 2901   4.494   9.593   4.303 -0.0497 -0.0809 -0.0726
  726SOL    HW1 2902   4.408   9.634   4.317 -0.0279 -0.1349  0.2426
  726SOL    HW2 2903   4.557   9.661   4.330 -0.0234 -0.5257  1.0623
  726SOL     MW 2904   4.491   9.608   4.309 -0.0432 -0.1481  0.1225
  727SOL     OW 2905   5.915   2.242   6.884  0.2984  0.2783  1.0083
  727SOL    HW1 2906   5.873   2.258   6.800  1.8733  1.5452  0.4128
  727SOL    HW2 2907   6.006   2.222   6.861  0.3235 -1.2986  2.3088
  727SOL     MW 2908   5.922   2.241   6.870  0.5137  0.2365  1.1032
  728SOL     OW 2909   4.964   8.780   0.476 -0.4433 -0.2221  0.2130
  728SOL    HW1 2910   5.024   8.785   0.402 -0.2760  1.4395  0.4263
  728SOL    HW2 2911   4.998   8.844   0.539 -0.8151 -1.3003  1.5664
  728SOL     MW 2912   4.977   8.789   0.475 -0.4708 -0.1436  0.4239
  729SOL     OW 2913   4.643   9.130   0.961  0.4187  0.0400  0.3278
  729SOL    HW1 2914   4.734   9.101   0.959  0.5702  0.5310 -0.1874
  729SOL    HW2 2915   4.604   9.091   0.883  0.1653 -0.2444  0.5969
  729SOL     MW 2916   4.650   9.121   0.950  0.4050  0.0678  0.2947
  730SOL     OW 2917   3.454   9.332   2.133 -0.2969 -0.3360  0.5445
  730SOL    HW1 2918   3.478   9.264   2.196 -0.3790  0.3912  1.3817
  730SOL    HW2 2919   3.506   9.408   2.160 -1.4574  0.4306  0.6518
  730SOL     MW 2920   3.464   9.333   2.145 -0.4641 -0.1349  0.6716
  731SOL     OW 2921   4.203   9.468   7.136  0.6679  0.3408  0.1508
  731SOL    HW1 2922   4.226   9.546   7.187 -0.3275  1.1712 -0.6265
  731SOL    HW2 2923   4.114   9.485   7.105  0.5496 -0.9776 -0.2943
  731SOL     MW 2924   4.194   9.481   7.139  0.5181  0.2751 -0.0137
  732SOL     OW 2925   8.041   9.583   4.038  0.4993 -0.3737 -0.2644
  732SOL    HW1 2926   8.044   9.672   4.072 -0.2287 -1.3145  2.5806
  732SOL    HW2 2927   8.028   9.594   3.944 -1.8452  2.5478  0.2277
  732SOL     MW 2928   8.039   9.596   4.030  0.0858 -0.1071  0.1847
  733SOL     OW 2929   6.527   9.823   4.712 -0.4562 -0.3748  0.2307
  733SOL    HW1 2930   6.562   9.869   4.789  0.1275  1.5364 -1.0985
  733SOL    HW2 2931   6.433   9.843   4.714 -0.3990 -0.0970  0.3003
  733SOL     MW 2932   6.519   9.832   4.723 -0.3699 -0.0802  0.0612
  734SOL     OW 2933   4.534   7.589   6.097  0.1847  0.1056 -0.1242
  734SOL    HW1 2934   4.553   7.512   6.152 -0.0260  0.1984  0.0825
  734SOL    HW2 2935   4.619   7.617   6.064  0.0822 -1.3912 -1.7965
  734SOL     MW 2936   4.548   7.582   6.100  0.1426 -0.0833 -0.3214
  735SOL     OW 2937   7.213   8.587   4.439  0.3936 -0.2041  0.6079
  735SOL    HW1 2938   7.265   8.565   4.516 -1.0593 -1.2935  1.3412
  735SOL    HW2 2939   7.243   8.674   4.413  2.1828 -0.5770  1.2841
  735SOL     MW 2940   7.224   8.596   4.446  0.4389 -0.4009  0.7976
  736SOL     OW 2941   6.437   1.288   3.658  0.1664  0.2732  0.0451
  736SOL    HW1 2942   6.345   1.304   3.679 -0.1527 -1.0385 -0.2487
  736SOL    HW2 2943   6.482   1.290   3.743 -0.1896  0.6013  0.2264
  736SOL     MW 2944   6.431   1.290   3.672  0.0755  0.1408  0.0299
  737SOL     OW 2945   4.795   9.432   9.769  0.5345 -0.3432  0.2532
  737SOL    HW1 2946   4.705   9.421   9.739  0.5558  0.6327 -0.2179
  737SOL    HW2 2947   4.824   9.344   9.792  0.0656 -0.9501 -1.3483
  737SOL     MW 2948   4.787   9.419   9.768  0.4742 -0.2935 -0.0258
  738SOL     OW 2949   4.638   1.431   2.946 -0.4902  0.0545  0.1270
  738SOL    HW1 2950   4.607   1.512   2.986  1.2261  0.2825  1.1027
  738SOL    HW2 2951   4.635   1.367   3.017 -0.1737 -0.2868 -0.1645
  738SOL     MW 2952   4.633   1.434   2.961 -0.2166  0.0392  0.2191
  739SOL     OW 2953   5.834   7.879   1.916  0.0736  0.2085 -0.2259
  739SOL    HW1 2954   5.911   7.922   1.954  0.6345 -0.3477 -0.6997
  739SOL    HW2 2955   5.792   7.835   1.989  0.4633  0.1422 -0.0400
  739SOL     MW 2956   5.839   7.879   1.931  0.2015  0.1247 -0.2646
  740SOL     OW 2957   5.039   9.646   7.495 -0.0770 -0.6828  0.3147
  740SOL    HW1 2958   5.080   9.568   7.457 -0.3529 -1.1091  0.8723
  740SOL    HW2 2959   5.111   9.706   7.512 -0.1710  0.8654 -3.7831
  740SOL     MW 2960   5.054   9.644   7.492 -0.1268 -0.5318 -0.1617
  741SOL     OW 2961   6.874   8.550   7.652  0.5820  0.0335 -0.6078
  741SOL    HW1 2962   6.899   8.459   7.639 -1.3891 -0.8042  0.9504
  741SOL    HW2 2963   6.885   8.565   7.746  2.1805  1.8762 -1.0176
  741SOL     MW 2964   6.879   8.540   7.662  0.5318  0.1688 -0.4532
  742SOL     OW 2965   4.523   8.762   6.617 -0.1551  0.4695 -0.4899
  742SOL    HW1 2966   4.581   8.722   6.553 -1.1653 -0.9526 -0.5682
  742SOL    HW2 2967   4.467   8.821   6.566 -0.8750 -0.5642 -0.9372
  742SOL     MW 2968   4.523   8.765   6.602 -0.3879  0.1390 -0.5607
  743SOL     OW 2969   4.588   1.158   9.664  0.5022  0.2754 -0.0678
  743SOL    HW1 2970   4.526   1.110   9.608  1.6296 -0.9008 -0.3629
  743SOL    HW2 2971   4.626   1.091   9.720  1.8106  0.8914 -0.1830
  743SOL     MW 2972   4.584   1.142   9.664  0.8300  0.2000 -0.1230
  744SOL     OW 2973   5.735   0.241   2.774  0.0403  0.5115 -0.2822
  744SOL    HW1 2974   5.709   0.250   2.866  0.3723  0.4091 -0.1737
  744SOL    HW2 2975   5.785   0.320   2.756  1.4279 -0.2301  0.1380
  744SOL     MW 2976   5.739   0.253   2.784  0.2718  0.3979 -0.2110
  745SOL     OW 2977   6.865   8.253   8.756 -0.1042 -0.0476  0.3286
  745SOL    HW1 2978   6.834   8.337   8.723 -0.3562 -0.3639 -0.2623
  745SOL    HW2 2979   6.867   8.264   8.851 -1.3617  0.2213  0.3485
  745SOL     MW 2980   6.861   8.266   8.764 -0.3074 -0.0540  0.2517
  746SOL     OW 2981   7.416   9.227   7.599  0.8348  0.2016  0.4343
  746SOL    HW1 2982   7.483   9.196   7.659  2.1178  1.5972 -0.2178
  746SOL    HW2 2983   7.392   9.313   7.632 -0.3064 -0.0687  0.3706
  746SOL     MW 2984   7.422   9.234   7.612  0.8539  0.3530  0.3380
  747SOL     OW 2985   6.480  10.035   0.308 -0.2377 -0.5395  0.5082
  747SOL    HW1 2986   6.452  10.123   0.333 -3.1676 -1.4591  0.9653
  747SOL    HW2 2987   6.569  10.045   0.275 -0.8784  2.7444 -0.5004
  747SOL     MW 2988   6.488  10.048   0.307 -0.7182 -0.2213  0.4340
  748SOL     OW 2989   5.605   0.450   1.414  0.3285  0.3634 -0.2496
  748SOL    HW1 2990   5.536   0.494   1.464  0.5092  1.3647 -0.8425
  748SOL    HW2 2991   5.573   0.449   1.324  0.7625  0.1788 -0.4086
  748SOL     MW 2992   5.592   0.456   1.409  0.4112  0.4733 -0.3508
  749SOL     OW 2993   6.010   9.203   5.318 -0.0576  0.0959 -0.7682
  749SOL    HW1 2994   6.088   9.182   5.267 -0.5162 -0.9610 -1.0736
  749SOL    HW2 2995   6.010   9.298   5.327 -0.2725  0.3852 -3.2302
  749SOL     MW 2996   6.020   9.213   5.313 -0.1482 -0.0074 -1.1406
  750SOL     OW 2997   6.393   8.681   8.946 -0.7218  0.5627 -0.1826
  750SOL    HW1 2998   6.423   8.600   8.987 -0.5116 -0.2215 -1.8008
  750SOL    HW2 2999   6.326   8.714   9.005  1.0717  0.6823  1.9150
  750SOL     MW 3000   6.388   8.674   8.960 -0.4521  0.4733 -0.1181
  751SOL     OW 3001   5.042  10.151   6.796 -0.2294 -0.1100  0.0439
  751SOL    HW1 3002   5.086  10.076   6.834  0.2727 -0.5445 -1.3385
  751SOL    HW2 3003   4.988  10.114   6.726  0.3577  0.8388 -0.9396
  751SOL     MW 3004   5.040  10.136   6.792 -0.0829 -0.0408 -0.2745
  752SOL     OW 3005   6.778   0.670  10.020  0.1157 -0.0470  0.6139
  752SOL    HW1 3006   6.849   0.732  10.008  0.3363 -0.5916 -1.1593
  752SOL    HW2 3007   6.738   0.662   9.933 -2.5996  0.7994  1.6905
  752SOL     MW 3008   6.782   0.677  10.007 -0.2200 -0.0064  0.5201
  753SOL     OW 3009   6.083   0.116   2.141 -0.0917 -0.1432 -0.6864
  753SOL    HW1 3010   5.996   0.129   2.179  0.7076 -0.2095  1.3096
  753SOL    HW2 3011   6.117   0.205   2.128 -0.2605 -0.1247 -1.0238
  753SOL     MW 3012   6.076   0.130   2.144 -0.0069 -0.1496 -0.4632
  754SOL     OW 3013   7.613   9.980   6.735 -0.6623  0.3867 -0.1249
  754SOL    HW1 3014   7.612  10.061   6.786  0.2793 -0.6153  1.5488
  754SOL    HW2 3015   7.665  10.003   6.657 -0.6122  1.4541  0.1980
  754SOL     MW 3016   7.620   9.994   6.731 -0.5288  0.3955  0.1438
  755SOL     OW 3017   5.393   1.307   0.701  0.2829 -0.8760 -0.3420
  755SOL    HW1 3018   5.366   1.218   0.723 -2.4653 -0.0641 -0.0047
  755SOL    HW2 3019   5.372   1.358   0.780  1.2363  0.1873 -0.7490
  755SOL     MW 3020   5.386   1.302   0.715  0.0414 -0.6236 -0.3514
  756SOL     OW 3021   6.109   9.289   8.416  0.5623  0.2968  0.0572
  756SOL    HW1 3022   6.164   9.218   8.383 -0.6086 -0.4008 -0.4354
  756SOL    HW2 3023   6.049   9.308   8.345  0.0704  0.9526  0.6382
  756SOL     MW 3024   6.109   9.282   8.402  0.3385  0.2912  0.0691
  757SOL     OW 3025   7.243   9.868   1.576 -0.0109 -0.2847 -0.4867
  757SOL    HW1 3026   7.331   9.853   1.610 -0.2187  0.1624  0.2973
  757SOL    HW2 3027   7.204   9.929   1.639 -1.7724 -2.4491  0.6555
  757SOL     MW 3028   7.249   9.874   1.589 -0.2759 -0.5158 -0.2275
  758SOL     OW 3029   6.640   0.472   2.572  0.2324  0.3095 -0.1165
  758SOL    HW1 3030   6.729   0.437   2.575 -0.2620 -1.4040 -2.7246
  758SOL    HW2 3031   6.587   0.407   2.619  0.0718  0.2450 -0.3825
  758SOL     MW 3032   6.644   0.459   2.579  0.1443  0.0702 -0.5033
  759SOL     OW 3033   6.333   9.048   7.886  0.4011  0.0718 -0.3334
  759SOL    HW1 3034   6.327   8.957   7.916  1.4134  0.3206  0.7202
  759SOL    HW2 3035   6.406   9.048   7.823  0.7608  0.2379  0.0754
  759SOL     MW 3036   6.342   9.035   7.882  0.5857  0.1276 -0.1366
  760SOL     OW 3037   6.231   0.576   1.625 -0.3337  0.0822  0.1646
  760SOL    HW1 3038   6.168   0.648   1.619 -1.3773 -0.5407  2.5710
  760SOL    HW2 3039   6.286   0.598   1.701  1.2845 -0.2396 -0.8609
  760SOL     MW 3040   6.230   0.588   1.634 -0.2563 -0.0449  0.3504
  761SOL     OW 3041   6.087   9.194   1.849 -0.3108  0.6003 -0.4501
  761SOL    HW1 3042   6.150   9.157   1.787 -0.6801  0.6254 -0.8433
  761SOL    HW2 3043   6.011   9.216   1.796 -0.6406  0.6030  0.0150
  761SOL     MW 3044   6.086   9.192   1.834 -0.4049  0.6040 -0.4405
  762SOL     OW 3045   8.020   9.414   2.750  0.7317  0.9023  0.2727
  762SOL    HW1 3046   7.952   9.474   2.720 -0.7063  0.4878  2.4916
  762SOL    HW2 3047   8.032   9.435   2.842  2.3962 -0.2231  0.3721
  762SOL     MW 3048   8.013   9.425   2.758  0.7622  0.6951  0.5847
  763SOL     OW 3049   4.305   8.993   4.442 -0.3988 -0.3403  0.1540
  763SOL    HW1 3050   4.228   8.953   4.483  0.0655 -1.2682  0.1408
  763SOL    HW2 3051   4.374   8.927   4.451  0.3540  0.4164  0.0223
  763SOL     MW 3052   4.304   8.979   4.449 -0.2350 -0.3633  0.1345
  764SOL     OW 3053   7.056   1.231   0.170  0.5689 -0.3704  0.7687
  764SOL    HW1 3054   7.105   1.266   0.244 -1.9513  1.8526  1.5611
  764SOL    HW2 3055   6.966   1.223   0.202 -0.2767 -1.0450 -1.5248
  764SOL     MW 3056   7.051   1.235   0.184  0.1159 -0.1620  0.5667
  765SOL     OW 3057   6.911   0.483   0.134 -0.0583  0.2225  0.0709
  765SOL    HW1 3058   6.949   0.480   0.046 -1.1426 -0.6543 -0.3750
  765SOL    HW2 3059   6.980   0.447   0.190  0.5712  0.6181 -0.4223
  765SOL     MW 3060   6.926   0.478   0.130 -0.1195  0.1577 -0.0555
  766SOL     OW 3061   4.404   0.983   0.352 -0.0203  0.3222 -0.1679
  766SOL    HW1 3062   4.368   0.922   0.416  0.3978  0.3770  0.1293
  766SOL    HW2 3063   4.408   0.933   0.271  0.0895  0.0286  0.0161
  766SOL     MW 3064   4.400   0.968   0.350  0.0508  0.2900 -0.1031
  767SOL     OW 3065   5.706  10.071   2.118 -0.2093 -0.2788 -0.2075
  767SOL    HW1 3066   5.620  10.039   2.145 -0.1328  0.0808  0.4663
  767SOL    HW2 3067   5.700  10.075   2.022 -0.7869 -0.6799 -0.1980
  767SOL     MW 3068   5.694  10.067   2.108 -0.2768 -0.2844 -0.1155
  768SOL     OW 3069   4.622   9.567   8.041  0.3379 -0.2459  0.3727
  768SOL    HW1 3070   4.643   9.660   8.046  0.4450 -0.2715  0.3959
  768SOL    HW2 3071   4.560   9.560   7.968 -0.0596 -0.0905  0.6921
  768SOL     MW 3072   4.616   9.578   8.032  0.2988 -0.2285  0.4188
  769SOL     OW 3073   5.753   7.825   0.967 -0.0684  0.1986 -0.2130
  769SOL    HW1 3074   5.767   7.904   1.019  0.8406 -0.2188  0.2050
  769SOL    HW2 3075   5.839   7.784   0.963 -0.7740 -1.4940  0.7702
  769SOL     MW 3076   5.766   7.830   0.974 -0.0410 -0.0854 -0.0244
  770SOL     OW 3077   7.263   9.452   7.639  0.1705  0.1102 -0.4736
  770SOL    HW1 3078   7.170   9.441   7.617  0.3316 -0.3454 -0.9354
  770SOL    HW2 3079   7.268   9.541   7.676 -0.3516  0.3547 -0.9723
  770SOL     MW 3080   7.251   9.463   7.641  0.1219  0.0818 -0.6029
  771SOL     OW 3081   6.604   9.900   6.464  0.2374 -0.7469  0.2255
  771SOL    HW1 3082   6.522   9.944   6.484  0.9748  0.7005  0.1787
  771SOL    HW2 3083   6.610   9.902   6.368 -0.2200 -1.9331  0.1486
  771SOL     MW 3084   6.594   9.906   6.453  0.2751 -0.7117  0.2088
  772SOL     OW 3085   7.544   8.434   7.403  0.5205 -0.3204  0.4694
  772SOL    HW1 3086   7.458   8.474   7.414 -0.1345 -1.3498 -0.6566
  772SOL    HW2 3087   7.576   8.469   7.320 -0.5692 -2.8322 -1.1583
  772SOL     MW 3088   7.536   8.444   7.393  0.2857 -0.7970  0.0988
  773SOL     OW 3089   5.643   8.440   4.670  0.5740 -0.0126  0.1729
  773SOL    HW1 3090   5.734   8.448   4.643  0.3152 -1.1900 -1.1540
  773SOL    HW2 3091   5.593   8.461   4.591 -0.2341 -2.4327 -0.0321
  773SOL     MW 3092   5.648   8.444   4.655  0.4304 -0.4967 -0.0332
  774SOL     OW 3093   7.016   8.866   5.717  0.2148 -0.3245  0.0314
  774SOL    HW1 3094   7.085   8.839   5.656  0.6970 -0.2092  0.5172
  774SOL    HW2 3095   6.973   8.784   5.743 -0.2322 -0.3405 -0.7369
  774SOL     MW 3096   7.019   8.851   5.712  0.2195 -0.3111 -0.0066
  775SOL     OW 3097   5.003  10.104   7.845 -0.3171  0.2682  0.2990
  775SOL    HW1 3098   5.007  10.016   7.882 -0.7450  0.7872  1.6157
  775SOL    HW2 3099   5.068  10.154   7.894 -0.2435  0.7546 -0.2773
  775SOL     MW 3100   5.012  10.099   7.856 -0.3648  0.4035  0.3986
  776SOL     OW 3101   5.424   8.389   4.118 -0.6231 -0.4007  0.0506
  776SOL    HW1 3102   5.498   8.432   4.160  0.5093 -1.6774 -0.5528
  776SOL    HW2 3103   5.414   8.306   4.164 -2.4707  0.2409  0.8907
  776SOL     MW 3104   5.433   8.384   4.130 -0.7194 -0.4862  0.0825
  777SOL     OW 3105   7.560   9.205   6.992  0.3041 -0.5567  0.0272
  777SOL    HW1 3106   7.595   9.242   6.911 -2.2352  0.7018 -0.6029
  777SOL    HW2 3107   7.530   9.281   7.042 -0.8489 -1.4890  0.7941
  777SOL     MW 3108   7.560   9.220   6.988 -0.1928 -0.5128  0.0456
  778SOL     OW 3109   6.671   9.853   0.021  0.4200 -0.1835 -0.2259
  778SOL    HW1 3110   6.619   9.780   0.055  0.3377 -0.3479 -0.7107
  778SOL    HW2 3111   6.620   9.889  -0.050  0.5956  0.1694 -0.1780
  778SOL     MW 3112   6.657   9.848   0.016  0.4325 -0.1581 -0.2847
  779SOL     OW 3113   6.069   0.977   4.159 -0.4095 -0.3797  0.0963
  779SOL    HW1 3114   6.145   1.002   4.211 -0.4835 -1.5846  0.8255
  779SOL    HW2 3115   6.078   1.026   4.077  0.2146  0.8177  0.8586
  779SOL     MW 3116   6.080   0.987   4.155 -0.3355 -0.3807  0.2970
  780SOL     OW 3117   6.340   8.114   0.700 -0.2043  0.1303 -0.7395
  780SOL    HW1 3118   6.365   8.172   0.629  0.9875 -1.7692 -1.9269
  780SOL    HW2 3119   6.322   8.174   0.774  3.1421  1.9286 -1.1885
  780SOL     MW 3120   6.341   8.130   0.701  0.4064  0.1167 -0.9597
  781SOL     OW 3121   4.680   0.917   7.239 -0.5583  0.0156  0.5812
  781SOL    HW1 3122   4.673   0.836   7.189 -0.7431  0.1597  0.3711
  781SOL    HW2 3123   4.766   0.912   7.282  0.4680  0.7543 -1.2859
  781SOL     MW 3124   4.691   0.906   7.238 -0.4450  0.1344  0.3017
  782SOL     OW 3125   4.853   0.723   2.070 -0.0089 -0.0280  0.1735
  782SOL    HW1 3126   4.943   0.725   2.102 -0.7971  1.1209  2.5514
  782SOL    HW2 3127   4.847   0.799   2.012  0.2556  0.5905  0.9422
  782SOL     MW 3128   4.864   0.734   2.067 -0.0794  0.2098  0.5970
  783SOL     OW 3129   7.326   8.415   7.973 -0.3997  0.6975 -0.1710
  783SOL    HW1 3130   7.417   8.388   7.972 -1.2833 -2.6502 -0.4862
  783SOL    HW2 3131   7.295   8.399   7.884 -1.4862  1.0240  0.1271
  783SOL     MW 3132   7.334   8.409   7.961 -0.6649  0.2909 -0.1733
  784SOL     OW 3133   5.790   9.437   8.982  0.4372  0.1308  0.4626
  784SOL    HW1 3134   5.876   9.446   9.022 -0.2493  2.7991  1.5696
  784SOL    HW2 3135   5.800   9.472   8.894  0.3700  1.1605  0.8461
  784SOL     MW 3136   5.803   9.443   8.976  0.3358  0.6285  0.6632
  785SOL     OW 3137   7.559   9.238   2.944  0.3604  0.0649  0.0107
  785SOL    HW1 3138   7.570   9.265   2.852  1.0013  0.0038  0.0674
  785SOL    HW2 3139   7.632   9.279   2.990  2.0411 -2.6151 -0.0718
  785SOL     MW 3140   7.570   9.247   2.937  0.6728 -0.3040  0.0072
  786SOL     OW 3141   6.296   8.817   1.800  0.3235 -0.1257  0.2174
  786SOL    HW1 3142   6.250   8.834   1.717 -0.4899  2.2330  1.0538
  786SOL    HW2 3143   6.228   8.784   1.858  0.4706 -0.0054  0.4584
  786SOL     MW 3144   6.280   8.815   1.796  0.2338  0.2079  0.3624
  787SOL     OW 3145   6.606   7.679   0.258 -0.1446 -0.5684 -0.5695
  787SOL    HW1 3146   6.617   7.753   0.317 -0.2514 -0.2430 -0.9520
  787SOL    HW2 3147   6.511   7.670   0.248 -0.1171 -0.1328 -1.2930
  787SOL     MW 3148   6.595   7.688   0.265 -0.1552 -0.4660 -0.7183
  788SOL     OW 3149   4.364   9.763   6.588  0.0074  0.0643 -0.0353
  788SOL    HW1 3150   4.409   9.739   6.507 -0.5338  2.2347 -1.0632
  788SOL    HW2 3151   4.271   9.750   6.569 -0.1031  0.3168  0.3194
  788SOL     MW 3152   4.358   9.758   6.574 -0.0803  0.3904 -0.1259
  789SOL     OW 3153   4.383   0.876   3.999  0.4463 -0.0271  0.4780
  789SOL    HW1 3154   4.456   0.889   4.060  0.7776 -1.8128  0.5252
  789SOL    HW2 3155   4.425   0.860   3.915  0.1379 -1.2539  0.5402
  789SOL     MW 3156   4.399   0.876   3.996  0.4493 -0.4325  0.4927
  790SOL     OW 3157   6.072   0.027   6.578  0.2881 -0.1949  0.0266
  790SOL    HW1 3158   6.130   0.063   6.511 -2.5764  2.3748 -1.3074
  790SOL    HW2 3159   6.105   0.062   6.660  1.3933  0.0656 -0.5083
  790SOL     MW 3160   6.085   0.036   6.580  0.0514  0.1860 -0.2249
  791SOL     OW 3161   5.506   9.829   8.653 -0.0130  0.0032 -0.1433
  791SOL    HW1 3162   5.546   9.824   8.566 -0.6852  1.5344 -0.5699
  791SOL    HW2 3163   5.514   9.921   8.678  1.4818 -0.6541  2.0953
  791SOL     MW 3164   5.512   9.840   8.645  0.0977  0.1208  0.1006
  792SOL     OW 3165   6.324  10.007   4.375  0.2685  0.7143  0.0206
  792SOL    HW1 3166   6.255   9.951   4.410  0.1169  0.1268 -1.1659
  792SOL    HW2 3167   6.399   9.992   4.432 -0.0818  0.0782  0.3211
  792SOL     MW 3168   6.324   9.997   4.388  0.2009  0.5496 -0.0986
  793SOL     OW 3169   7.538   9.434   5.361 -0.2778 -0.7379  0.4816
  793SOL    HW1 3170   7.569   9.433   5.452 -1.7996  1.0988  1.0589
  793SOL    HW2 3171   7.618   9.448   5.309  0.5773 -1.5844  1.5186
  793SOL     MW 3172   7.553   9.436   5.366 -0.3675 -0.6047  0.6988
  794SOL     OW 3173   4.662   8.713   6.303 -0.5197 -0.0572 -0.5753
  794SOL    HW1 3174   4.594   8.707   6.237  0.1926  3.1107 -1.8193
  794SOL    HW2 3175   4.744   8.694   6.256 -0.1657  0.5142 -0.2093
  794SOL     MW 3176   4.664   8.710   6.288 -0.3762  0.4460 -0.6935
  795SOL     OW 3177   6.468   8.851   3.310  0.4034  0.3144  0.0326
  795SOL    HW1 3178   6.529   8.783   3.283 -1.2749 -1.7702  1.1939
  795SOL    HW2 3179   6.443   8.895   3.228  0.2074 -1.6449 -1.0124
  795SOL     MW 3180   6.473   8.848   3.295  0.1511 -0.2298  0.0482
  796SOL     OW 3181   7.660   8.672   2.849 -0.1162 -0.4012 -0.1909
  796SOL    HW1 3182   7.725   8.602   2.858  1.3352  0.8196 -0.6819
  796SOL    HW2 3183   7.668   8.701   2.758 -1.5594 -0.3942 -0.3387
  796SOL     MW 3184   7.670   8.667   2.838 -0.1151 -0.2360 -0.2769
  797SOL     OW 3185   5.127   9.140   6.780  0.0470 -0.0233  0.1353
  797SOL    HW1 3186   5.204   9.161   6.728 -0.4439 -1.2603 -1.1350
  797SOL    HW2 3187   5.143   9.053   6.814 -0.1761  0.2884  1.0658
  797SOL     MW 3188   5.139   9.131   6.778 -0.0491 -0.1478  0.0896
  798SOL     OW 3189   6.659   1.090   9.333  0.1161  0.3203 -0.1636
  798SOL    HW1 3190   6.564   1.098   9.342  0.2722  1.1125  1.0934
  798SOL    HW2 3191   6.691   1.180   9.339  0.9319  0.0977 -0.9520
  798SOL     MW 3192   6.651   1.103   9.335  0.2469  0.3970 -0.1005
  799SOL     OW 3193   7.565   0.818   9.899 -0.3320 -0.0566 -0.4334
  799SOL    HW1 3194   7.526   0.904   9.917  1.2286  0.5875 -0.0191
  799SOL    HW2 3195   7.544   0.766   9.976 -1.8767 -0.3046 -0.9729
  799SOL     MW 3196   7.557   0.823   9.912 -0.3299 -0.0033 -0.4503
  800SOL     OW 3197   5.333   7.919   0.092  0.0188 -0.2507 -1.0592
  800SOL    HW1 3198   5.248   7.914   0.136  0.8951  0.1832  0.7728
  800SOL    HW2 3199   5.367   7.829   0.097  0.3432 -0.0982 -0.3216
  800SOL     MW 3200   5.326   7.906   0.099  0.1804 -0.1718 -0.7134
  801SOL     OW 3201   7.214   8.027   9.320  0.1675  0.0347  0.4816
  801SOL    HW1 3202   7.197   7.983   9.403  0.5154 -0.0552  0.5071
  801SOL    HW2 3203   7.229   8.119   9.344 -2.5989  0.6383  0.2347
  801SOL     MW 3204   7.214   8.033   9.334 -0.1580  0.1038  0.4518
  802SOL     OW 3205   6.426   0.730   1.401  0.3297  0.2085 -0.0199
  802SOL    HW1 3206   6.339   0.770   1.403  0.2720  0.1183 -0.4971
  802SOL    HW2 3207   6.417   0.648   1.448  0.6769  1.1791  1.8351
  802SOL     MW 3208   6.413   0.725   1.407  0.3687  0.3270  0.1655
  803SOL     OW 3209   5.003   9.726   3.423  0.0762 -0.3048  0.3224
  803SOL    HW1 3210   5.068   9.746   3.490 -0.9493  0.4365  1.1287
  803SOL    HW2 3211   5.054   9.697   3.348  1.3461  0.5420  0.8297
  803SOL     MW 3212   5.018   9.725   3.422  0.1091 -0.0911  0.4992
  804SOL     OW 3213   4.625   9.869   0.042 -0.0330  0.4299  0.3291
  804SOL    HW1 3214   4.709   9.828   0.021 -0.0468  0.4978  0.1423
  804SOL    HW2 3215   4.562   9.821  -0.011 -0.0303  0.7869 -0.0004
  804SOL     MW 3216   4.628   9.857   0.032 -0.0345  0.4871  0.2596
  805SOL     OW 3217   6.279   0.455   5.121 -0.2917 -0.0878 -0.2037
  805SOL    HW1 3218   6.245   0.382   5.070  0.3475 -1.4834  1.2810
  805SOL    HW2 3219   6.234   0.450   5.205  0.2772  0.8105  0.1769
  805SOL     MW 3220   6.269   0.445   5.125 -0.1291 -0.1548  0.0473
  806SOL     OW 3221   6.837   9.031   7.343 -0.4544 -0.0496 -0.4619
  806SOL    HW1 3222   6.919   9.055   7.386 -0.4509  1.1032 -1.0670
  806SOL    HW2 3223   6.831   9.092   7.269 -2.3612  0.5775  0.1594
  806SOL     MW 3224   6.847   9.043   7.339 -0.7106  0.1900 -0.4597
  807SOL     OW 3225   7.520   8.514   8.966 -0.1422 -0.2736  0.5861
  807SOL    HW1 3226   7.542   8.532   8.874 -0.4741 -0.9407  0.3612
  807SOL    HW2 3227   7.429   8.483   8.963  0.2459 -1.5292  0.9651
  807SOL     MW 3228   7.511   8.512   8.953 -0.1347 -0.5324  0.6069
  808SOL     OW 3229   6.142   8.789   4.839  0.2036  0.4347 -0.3441
  808SOL    HW1 3230   6.137   8.863   4.900  1.2439 -1.1129  1.7727
  808SOL    HW2 3231   6.235   8.768   4.835  0.0783  0.1207 -2.0455
  808SOL     MW 3232   6.154   8.796   4.847  0.3268  0.1842 -0.2882
  809SOL     OW 3233   4.760   8.360   5.411  0.1463 -0.1357 -0.1828
  809SOL    HW1 3234   4.696   8.420   5.374  0.9171  0.4189 -0.6572
  809SOL    HW2 3235   4.806   8.324   5.335  1.8063  1.0802  0.1977
  809SOL     MW 3236   4.758   8.363   5.396  0.4734  0.1026 -0.1954
  810SOL     OW 3237   7.844  10.030   7.344  0.2425  0.8370 -0.1340
  810SOL    HW1 3238   7.797   9.949   7.323  1.7737  0.5296 -2.8708
  810SOL    HW2 3239   7.915  10.001   7.402  0.6432  0.2165 -0.9094
  810SOL     MW 3240   7.847  10.015   7.349  0.5025  0.7121 -0.6067
  811SOL     OW 3241   6.944   8.175   6.785 -0.5032 -0.5900 -0.2705
  811SOL    HW1 3242   7.031   8.183   6.745 -0.9737 -1.2097 -1.4736
  811SOL    HW2 3243   6.949   8.229   6.864  0.1426  1.6397 -1.7210
  811SOL     MW 3244   6.956   8.184   6.790 -0.4796 -0.3733 -0.6276
  812SOL     OW 3245   5.333   0.324   8.715 -0.3840  0.1174  0.3439
  812SOL    HW1 3246   5.245   0.327   8.754 -0.6399  2.8647 -0.2896
  812SOL    HW2 3247   5.327   0.255   8.649 -2.2585  0.6559 -0.1076
  812SOL     MW 3248   5.320   0.315   8.712 -0.6707  0.5596  0.1978
  813SOL     OW 3249   5.155   9.193   7.266  0.5709  0.1470 -0.4574
  813SOL    HW1 3250   5.127   9.102   7.256  0.1451 -0.3468  3.4197
  813SOL    HW2 3251   5.236   9.187   7.318 -0.3015  1.9202  1.2348
  813SOL     MW 3252   5.162   9.180   7.272  0.3962  0.3192  0.2921
  814SOL     OW 3253   5.163   1.161   4.705 -0.2160 -0.0076  0.1515
  814SOL    HW1 3254   5.247   1.150   4.750 -0.4184 -0.9133  0.3331
  814SOL    HW2 3255   5.150   1.078   4.659 -1.3188 -0.1134  0.6410
  814SOL     MW 3256   5.173   1.148   4.705 -0.3916 -0.1437  0.2419
  815SOL     OW 3257   5.525   8.410   2.718  0.4861  0.0664  0.1199
  815SOL    HW1 3258   5.557   8.335   2.769  1.2184  1.2278  1.4341
  815SOL    HW2 3259   5.579   8.484   2.747 -1.2511  1.4408  0.0240
  815SOL     MW 3260   5.537   8.410   2.729  0.3509  0.4077  0.2838
  816SOL     OW 3261   7.352   0.187   9.579  0.0768  0.1296  0.1206
  816SOL    HW1 3262   7.289   0.156   9.643  1.2366 -0.9031  0.8037
  816SOL    HW2 3263   7.420   0.119   9.577  0.9601  1.0045 -0.8813
  816SOL     MW 3264   7.353   0.174   9.587  0.3517  0.1084  0.0777
  817SOL     OW 3265   4.853   8.356   3.801 -0.0412  0.3132  0.1194
  817SOL    HW1 3266   4.821   8.281   3.750 -0.7102  0.3684  0.4486
  817SOL    HW2 3267   4.829   8.432   3.749  0.1172  0.3279  0.0670
  817SOL     MW 3268   4.846   8.356   3.787 -0.1099  0.3226  0.1567
  818SOL     OW 3269   7.229   9.497   7.353 -0.3952 -0.5912  0.8621
  818SOL    HW1 3270   7.198   9.588   7.354  1.6727  0.1678  1.3499
  818SOL    HW2 3271   7.252   9.478   7.444  1.6490 -0.6564  0.3765
  818SOL     MW 3272   7.228   9.507   7.365  0.1582 -0.4979  0.8624
  819SOL     OW 3273   7.472   0.058   2.482 -0.2518  0.5048  0.4850
  819SOL    HW1 3274   7.558   0.034   2.516 -0.3039 -1.1063 -0.4168
  819SOL    HW2 3275   7.416   0.060   2.559  0.2352 -0.1763  0.8660
  819SOL     MW 3276   7.476   0.055   2.497 -0.1933  0.1963  0.4149
  820SOL     OW 3277   7.332  10.115   8.612 -0.3718 -0.0928  0.3394
  820SOL    HW1 3278   7.291  10.041   8.566 -0.1886 -0.1221  0.2204
  820SOL    HW2 3279   7.419  10.121   8.573  0.1654 -0.7765  1.4059
  820SOL     MW 3280   7.338  10.106   8.600 -0.2749 -0.1888  0.4669
  821SOL     OW 3281   7.468  10.141   1.444 -0.1138 -0.0135 -0.3457
  821SOL    HW1 3282   7.530  10.204   1.410  0.9351 -0.7284  0.1769
  821SOL    HW2 3283   7.417  10.113   1.368  2.1423 -1.5559 -1.4233
  821SOL     MW 3284   7.469  10.146   1.429  0.3310 -0.3173 -0.4204
  822SOL     OW 3285   7.988  10.145   6.929  0.5069  0.2911  0.4310
  822SOL    HW1 3286   8.044  10.068   6.924 -0.9680 -0.8228  0.6308
  822SOL    HW2 3287   8.017  10.190   7.009  1.5974  0.1586  0.1279
  822SOL     MW 3288   8.000  10.141   6.939  0.4552  0.1234  0.4171
  823SOL     OW 3289   6.878   1.034   8.452  0.0144 -0.5625 -0.2683
  823SOL    HW1 3290   6.862   0.947   8.415  0.1880 -0.5415 -0.3929
  823SOL    HW2 3291   6.791   1.072   8.462 -0.1230 -1.0667  0.5586
  823SOL     MW 3292   6.864   1.027   8.448  0.0193 -0.6275 -0.1738
  824SOL     OW 3293   4.695   0.812   5.762 -0.3961 -0.2934  0.1467
  824SOL    HW1 3294   4.773   0.778   5.806  0.5501  2.7606  1.0830
  824SOL    HW2 3295   4.722   0.896   5.726 -2.4683 -0.5101 -2.2718
  824SOL     MW 3296   4.709   0.819   5.763 -0.5476  0.0884 -0.0528
  825SOL     OW 3297   6.475   9.076   1.968 -0.4347  1.1641 -0.5735
  825SOL    HW1 3298   6.457   9.005   2.030 -0.1844 -0.5223 -2.3421
  825SOL    HW2 3299   6.562   9.107   1.992 -0.7825  1.3095  0.5885
  825SOL     MW 3300   6.484   9.071   1.980 -0.4478  0.9567 -0.6552
  826SOL     OW 3301   4.891   8.358   7.343 -0.0586 -0.2185  0.2120
  826SOL    HW1 3302   4.861   8.387   7.257 -0.8607  2.1342  1.1897
  826SOL    HW2 3303   4.945   8.431   7.375  1.5184 -1.7096  1.0915
  826SOL     MW 3304   4.894   8.372   7.336  0.0457 -0.1026  0.4619
  827SOL     OW 3305   4.732   8.724   3.437 -0.0233  0.0378  0.0469
  827SOL    HW1 3306   4.665   8.697   3.374 -0.1025 -0.3432  0.2959
  827SOL    HW2 3307   4.745   8.818   3.419  0.1868 -0.1324 -0.7509
  827SOL     MW 3308   4.725   8.733   3.426 -0.0057 -0.0364 -0.0270
  828SOL     OW 3309   7.778   0.183   5.464  0.3160 -0.0654  0.1296
  828SOL    HW1 3310   7.815   0.121   5.528  0.2848  0.2975  0.5019
  828SOL    HW2 3311   7.806   0.269   5.496 -1.1025  0.2475  0.5929
  828SOL     MW 3312   7.787   0.186   5.477  0.1209  0.0255  0.2421
  829SOL     OW 3313   6.463   9.460   0.463  0.1856  0.6156  0.1512
  829SOL    HW1 3314   6.397   9.484   0.399  1.4309  1.6509 -0.8023
  829SOL    HW2 3315   6.435   9.374   0.496 -2.1580  1.4477  0.5632
  829SOL     MW 3316   6.450   9.452   0.459  0.0378  0.8669  0.0783
  830SOL     OW 3317   6.324   9.051   7.258  0.2933  0.4101  0.3056
  830SOL    HW1 3318   6.400   9.097   7.293 -2.3490  3.9887  1.8693
  830SOL    HW2 3319   6.284   9.009   7.334 -0.2072 -0.0948 -0.2235
  830SOL     MW 3320   6.329   9.051   7.273 -0.1297  0.8238  0.4449
  831SOL     OW 3321   4.361   1.004   1.418  0.1524 -0.5245 -0.5567
  831SOL    HW1 3322   4.365   0.927   1.361 -0.1644  0.6595 -2.2507
  831SOL    HW2 3323   4.289   0.985   1.479  0.0235 -1.5209 -0.9967
  831SOL     MW 3324   4.352   0.991   1.419  0.0924 -0.4992 -0.8439
  832SOL     OW 3325   6.378   9.240   5.171  0.3844  0.0537 -0.3041
  832SOL    HW1 3326   6.356   9.207   5.258  2.5915  0.1153  0.3451
  832SOL    HW2 3327   6.372   9.336   5.180  0.0170  0.0411 -0.4054
  832SOL     MW 3328   6.374   9.249   5.184  0.6320  0.0603 -0.2304
  833SOL     OW 3329   3.889   9.396   8.942 -0.2649  0.2069  0.1967
  833SOL    HW1 3330   3.890   9.487   8.972  0.8062 -0.1336  1.2402
  833SOL    HW2 3331   3.977   9.381   8.908 -0.7246 -0.1766 -0.8824
  833SOL     MW 3332   3.901   9.406   8.941 -0.1826  0.1095  0.1919
  834SOL     OW 3333   5.023   8.334   8.469  0.6113  0.2375  0.3304
  834SOL    HW1 3334   4.929   8.332   8.487  0.4576 -0.1707 -0.5072
  834SOL    HW2 3335   5.063   8.301   8.549  0.0038 -0.3774  0.3854
  834SOL     MW 3336   5.016   8.330   8.482  0.5089  0.0998  0.2251
  835SOL     OW 3337   4.271   1.026   2.389 -0.7731  0.3448 -0.1925
  835SOL    HW1 3338   4.211   1.100   2.377  0.0973  0.8095 -2.0709
  835SOL    HW2 3339   4.340   1.040   2.324  0.3818 -1.1789  0.6270
  835SOL     MW 3340   4.272   1.038   2.378 -0.5006  0.2023 -0.3350
  836SOL     OW 3341   5.224   9.461   8.691 -0.2562 -0.1746 -0.1330
  836SOL    HW1 3342   5.228   9.514   8.611 -1.1560 -0.6069 -0.4788
  836SOL    HW2 3343   5.303   9.407   8.688 -0.6943 -0.7930 -1.1784
  836SOL     MW 3344   5.235   9.461   8.680 -0.4363 -0.3160 -0.3202
  837SOL     OW 3345   6.541   9.998   7.490  0.3839  0.4132  0.0143
  837SOL    HW1 3346   6.502  10.020   7.575 -1.4027  0.3316 -0.7429
  837SOL    HW2 3347   6.542  10.081   7.443  1.7046  0.5294  0.2090
  837SOL     MW 3348   6.536  10.012   7.495  0.3212  0.4179 -0.0614
  838SOL     OW 3349   3.994  10.104   0.892 -0.0936 -0.1850  0.2428
  838SOL    HW1 3350   3.985  10.127   0.985 -0.0145 -1.2918  0.5466
  838SOL    HW2 3351   4.068  10.044   0.890  0.8103  0.9304 -0.7625
  838SOL     MW 3352   4.003  10.099   0.904  0.0387 -0.1838  0.1484
  839SOL     OW 3353   6.056   8.419   4.103 -0.2297 -0.8503  0.3874
  839SOL    HW1 3354   6.092   8.353   4.162  0.2722  0.5879  1.7571
  839SOL    HW2 3355   6.018   8.485   4.161  0.3289  0.6566 -0.8901
  839SOL     MW 3356   6.055   8.419   4.119 -0.0870 -0.4540  0.3998
  840SOL     OW 3357   6.554   0.516   3.702  0.2368 -0.6891  0.0713
  840SOL    HW1 3358   6.569   0.423   3.713  0.5985 -0.5487  0.8054
  840SOL    HW2 3359   6.500   0.542   3.777  0.9380 -0.1324  0.3999
  840SOL     MW 3360   6.549   0.507   3.713  0.3799 -0.5953  0.2143
  841SOL     OW 3361   7.518   0.861   8.561  0.1604 -0.7862 -0.6239
  841SOL    HW1 3362   7.592   0.824   8.608 -0.7021 -0.5138  1.0465
  841SOL    HW2 3363   7.458   0.889   8.630 -0.1940  1.7280 -1.8437
  841SOL     MW 3364   7.520   0.860   8.577 -0.0034 -0.4112 -0.5633
  842SOL     OW 3365   6.698   1.526   2.175  0.1187  0.5638  0.4342
  842SOL    HW1 3366   6.609   1.544   2.206  0.1401 -0.3948  1.0854
  842SOL    HW2 3367   6.732   1.460   2.236  0.4043 -0.8860 -1.2278
  842SOL     MW 3368   6.691   1.520   2.188  0.1600  0.2397  0.2981
  843SOL     OW 3369   7.567   8.257   4.652  0.1953 -0.4291  0.1219
  843SOL    HW1 3370   7.532   8.283   4.567 -0.5586 -0.3128  0.4598
  843SOL    HW2 3371   7.498   8.204   4.692  0.6210 -0.6528  0.5796
  843SOL     MW 3372   7.553   8.253   4.646  0.1511 -0.4436  0.2290
  844SOL     OW 3373   6.709   9.217   8.358 -0.1169  0.3175  0.1140
  844SOL    HW1 3374   6.742   9.149   8.300 -2.1684 -1.1225  0.5166
  844SOL    HW2 3375   6.651   9.171   8.419  0.2565  2.0971  1.9212
  844SOL     MW 3376   6.706   9.202   8.358 -0.3428  0.3632  0.4114
  845SOL     OW 3377   4.923   9.585   8.250  0.8282  0.2600 -0.2021
  845SOL    HW1 3378   4.876   9.561   8.330  0.0194 -0.6077 -0.9048
  845SOL    HW2 3379   4.931   9.680   8.255  0.6894  0.2350  0.8516
  845SOL     MW 3380   4.918   9.594   8.262  0.7007  0.1398 -0.1549
  846SOL     OW 3381   5.748   1.309   1.358  0.1485  0.0611  0.1990
  846SOL    HW1 3382   5.736   1.386   1.413  0.2016  0.6069 -0.5342
  846SOL    HW2 3383   5.832   1.323   1.314 -1.2390  1.1604 -2.3288
  846SOL     MW 3384   5.758   1.321   1.359 -0.0311  0.2825 -0.2399
  847SOL     OW 3385   5.728   8.564   6.734  0.0671 -0.1098  0.0378
  847SOL    HW1 3386   5.648   8.613   6.718  0.6006  0.2425 -1.8291
  847SOL    HW2 3387   5.767   8.604   6.811 -1.0054  0.4179  0.3158
  847SOL     MW 3388   5.723   8.576   6.742 -0.0054  0.0086 -0.1761
  848SOL     OW 3389   5.239   7.575   2.057 -0.1450  0.6995  0.0002
  848SOL    HW1 3390   5.164   7.636   2.057  0.5873  1.7226 -2.6056
  848SOL    HW2 3391   5.295   7.608   2.127 -0.7216  1.8018 -0.0225
  848SOL     MW 3392   5.236   7.588   2.066 -0.1241  0.9856 -0.3536
  849SOL     OW 3393   6.902   1.482   8.872  0.5226 -0.0355  0.0715
  849SOL    HW1 3394   6.869   1.469   8.784  0.0189  2.1661 -0.1070
  849SOL    HW2 3395   6.984   1.531   8.861  0.9580 -0.5660  0.7970
  849SOL     MW 3396   6.909   1.487   8.859  0.5134  0.1894  0.1451
  850SOL     OW 3397   4.508   0.834   3.075  0.3951  0.7845 -0.3289
  850SOL    HW1 3398   4.497   0.899   3.004  1.2823  1.7678  0.3972
  850SOL    HW2 3399   4.447   0.863   3.143 -1.0639 -0.6362 -0.9770
  850SOL     MW 3400   4.498   0.847   3.074  0.3182  0.7257 -0.3184
  851SOL     OW 3401   3.835   8.795   5.278 -0.2463  0.1006  0.2801
  851SOL    HW1 3402   3.752   8.748   5.270  0.9877 -2.1796  0.3417
  851SOL    HW2 3403   3.865   8.806   5.188  0.7018 -1.5772  0.3687
  851SOL     MW 3404   3.828   8.790   5.265  0.0473 -0.4321  0.3003
  852SOL     OW 3405   6.900   0.679   2.757 -0.1319  0.3557  0.0819
  852SOL    HW1 3406   6.898   0.770   2.727  0.9443 -0.2278 -1.8880
  852SOL    HW2 3407   6.963   0.680   2.830  1.0598  0.9309 -0.9237
  852SOL     MW 3408   6.908   0.692   2.763  0.1733  0.3546 -0.3185
  853SOL     OW 3409   5.615   7.756   1.237 -0.0637 -0.3993 -0.1106
  853SOL    HW1 3410   5.539   7.719   1.282  0.5375 -0.8304  0.5775
  853SOL    HW2 3411   5.630   7.697   1.163 -1.7352  0.9329 -1.5996
  853SOL     MW 3412   5.607   7.743   1.233 -0.2077 -0.2780 -0.2184
  854SOL     OW 3413   4.339   9.179   9.189 -0.1399 -0.0970 -0.1047
  854SOL    HW1 3414   4.330   9.105   9.129 -0.3507 -1.1041  1.1188
  854SOL    HW2 3415   4.250   9.195   9.221 -0.1575  0.9366 -0.6183
  854SOL     MW 3416   4.326   9.171   9.185 -0.1707 -0.0935 -0.0091
  855SOL     OW 3417   6.077   1.135   9.178  0.0930  0.1701 -0.5278
  855SOL    HW1 3418   6.157   1.084   9.188 -0.2337 -0.1393  0.6955
  855SOL    HW2 3419   6.103   1.209   9.124  1.3151  0.3138  0.2132
  855SOL     MW 3420   6.091   1.138   9.172  0.2135  0.1478 -0.2634
  856SOL     OW 3421   6.760   1.116   2.310  0.4215  0.4697 -0.0202
  856SOL    HW1 3422   6.665   1.115   2.323  0.2746 -0.5675 -0.9708
  856SOL    HW2 3423   6.793   1.180   2.372 -0.8521  0.4507  0.6967
  856SOL     MW 3424   6.752   1.124   2.320  0.2303  0.3275 -0.0517
  857SOL     OW 3425   5.655   8.759   7.280  0.0649 -0.2606  0.7571
  857SOL    HW1 3426   5.572   8.791   7.313 -0.0687  0.4650 -0.2252
  857SOL    HW2 3427   5.710   8.837   7.275  0.4393 -0.5439  0.3557
  857SOL     MW 3428   5.652   8.774   7.284  0.0973 -0.2011  0.5709
  858SOL     OW 3429   4.889   8.430   9.172 -0.0767  0.2394  0.1174
  858SOL    HW1 3430   4.818   8.400   9.229 -1.3132  1.0306 -0.9353
  858SOL    HW2 3431   4.942   8.487   9.227 -0.2415 -0.3910  0.9334
  858SOL     MW 3432   4.887   8.434   9.187 -0.2653  0.2610  0.0855
  859SOL     OW 3433   3.676   9.164   4.175 -0.3613 -0.3563 -0.1682
  859SOL    HW1 3434   3.600   9.136   4.227 -0.5580 -0.8682 -0.7228
  859SOL    HW2 3435   3.724   9.222   4.234 -0.1514 -1.5547  0.9071
  859SOL     MW 3436   3.672   9.168   4.190 -0.3595 -0.5865 -0.0981
  860SOL     OW 3437   7.403   8.570   0.850  0.0431 -0.4581  0.1126
  860SOL    HW1 3438   7.377   8.511   0.921  0.4331  1.2716  1.7785
  860SOL    HW2 3439   7.368   8.529   0.771 -2.2009 -1.4497  1.5130
  860SOL     MW 3440   7.395   8.557   0.849 -0.2064 -0.3588  0.5253
  861SOL     OW 3441   5.040   8.696   3.914 -0.4921 -0.4794 -0.3089
  861SOL    HW1 3442   5.030   8.618   3.970 -0.4791  2.1299  3.7574
  861SOL    HW2 3443   5.134   8.715   3.916 -0.7242  0.6664  0.3724
  861SOL     MW 3444   5.052   8.688   3.922 -0.5216  0.0260  0.3300
  862SOL     OW 3445   6.905   8.835   7.130  0.2177 -0.0010  0.4016
  862SOL    HW1 3446   6.882   8.905   7.191  0.4733  0.2285  0.2357
  862SOL    HW2 3447   6.962   8.876   7.066 -0.1364 -0.2125 -0.0615
  862SOL     MW 3448   6.909   8.850   7.130  0.2045  0.0014  0.3169
  863SOL     OW 3449   6.135   9.275   4.882  0.2375  0.0550  0.0866
  863SOL    HW1 3450   6.164   9.193   4.923  1.8585  0.2022 -0.6774
  863SOL    HW2 3451   6.187   9.282   4.802  0.9535  2.3594  0.6631
  863SOL     MW 3452   6.146   9.265   4.877  0.5520  0.3850  0.0614
  864SOL     OW 3453   6.809   8.935   0.876  0.0181  0.2724 -0.2302
  864SOL    HW1 3454   6.718   8.952   0.901  0.1599  1.3962 -0.4100
  864SOL    HW2 3455   6.804   8.904   0.785 -0.2341 -0.4178  0.0150
  864SOL     MW 3456   6.796   8.933   0.867  0.0032  0.3307 -0.2214
  865SOL     OW 3457   5.616   1.669   1.156 -0.0257 -0.5399  0.0992
  865SOL    HW1 3458   5.618   1.731   1.229  1.2754  1.7846 -1.7793
  865SOL    HW2 3459   5.556   1.707   1.093 -0.5601 -2.1326 -0.4023
  865SOL     MW 3460   5.609   1.682   1.157  0.0775 -0.4415 -0.2211
  866SOL     OW 3461   5.736   0.977   7.963 -0.7267 -0.2314  0.2424
  866SOL    HW1 3462   5.761   0.944   8.049  1.3238 -1.0832 -0.6027
  866SOL    HW2 3463   5.729   1.071   7.974  1.3076 -0.1176  1.0032
  866SOL     MW 3464   5.738   0.985   7.976 -0.1770 -0.3307  0.2310
  867SOL     OW 3465   7.196   1.362   7.967 -0.3163  0.3088  0.1907
  867SOL    HW1 3466   7.145   1.371   7.886 -0.0610 -1.4400 -0.2113
  867SOL    HW2 3467   7.284   1.339   7.937  0.0853  0.8306  0.9481
  867SOL     MW 3468   7.201   1.360   7.952 -0.2279  0.1437  0.2385
  868SOL     OW 3469   7.150   0.890   2.270  0.2876  0.0917  0.0740
  868SOL    HW1 3470   7.070   0.849   2.236  1.5343 -2.2674 -0.1715
  868SOL    HW2 3471   7.132   0.984   2.266 -1.7475 -0.3053 -1.7486
  868SOL     MW 3472   7.137   0.897   2.265  0.1815 -0.2792 -0.2043
  869SOL     OW 3473   5.530   9.200   6.132  1.0398 -0.0531  0.0524
  869SOL    HW1 3474   5.505   9.200   6.039  1.0076 -1.1597  0.0379
  869SOL    HW2 3475   5.452   9.233   6.177  1.2467  1.0139 -0.3443
  869SOL     MW 3476   5.516   9.204   6.125  1.0633 -0.0584 -0.0030
  870SOL     OW 3477   7.062   8.579   5.469  0.2542  0.0541 -0.5448
  870SOL    HW1 3478   7.102   8.639   5.406 -1.5667  1.0087 -0.8588
  870SOL    HW2 3479   6.975   8.561   5.433  0.1452 -1.4760  0.4018
  870SOL     MW 3480   7.056   8.585   5.456 -0.0055 -0.0234 -0.4597
  871SOL     OW 3481   6.254   8.224   5.557  0.5643 -0.2311  0.5689
  871SOL    HW1 3482   6.240   8.196   5.466  2.3377 -0.8537  0.4468
  871SOL    HW2 3483   6.261   8.319   5.552  0.5883 -0.2528  0.0527
  871SOL     MW 3484   6.253   8.233   5.544  0.8062 -0.3178  0.4830
  872SOL     OW 3485   6.874   8.271   9.060  0.0721  0.4136 -0.1342
  872SOL    HW1 3486   6.960   8.267   9.101 -0.5708  0.8287  1.3342
  872SOL    HW2 3487   6.846   8.362   9.071 -1.3844 -0.1631  1.2608
  872SOL     MW 3488   6.881   8.283   9.067 -0.2104  0.3918  0.2511
  873SOL     OW 3489   7.365   8.556   1.614  0.0246  0.4072 -0.1377
  873SOL    HW1 3490   7.313   8.620   1.566 -0.3438  0.2959  0.1087
  873SOL    HW2 3491   7.366   8.588   1.704 -1.1009 -0.4967  0.2285
  873SOL     MW 3492   7.358   8.569   1.620 -0.1765  0.2706 -0.0553
  874SOL     OW 3493   6.197   0.944   9.947 -0.1852 -0.3387  0.1407
  874SOL    HW1 3494   6.203   0.858   9.990  1.9993  0.5704  1.8769
  874SOL    HW2 3495   6.155   1.000  10.013 -0.7084  0.1677 -0.6092
  874SOL     MW 3496   6.192   0.940   9.962  0.0384 -0.1482  0.2734
  875SOL     OW 3497   8.005   9.032   4.088  0.2061 -0.2659 -0.1607
  875SOL    HW1 3498   8.024   9.051   3.996  1.2943  1.7580  0.4292
  875SOL    HW2 3499   7.923   9.078   4.105  1.7457  2.3526  0.7070
  875SOL     MW 3500   7.996   9.041   4.078  0.5597  0.3589  0.0355
  876SOL     OW 3501   4.094   9.764   8.470  0.4280 -0.0770 -0.0225
  876SOL    HW1 3502   4.154   9.717   8.412 -1.0071 -1.2210 -0.6317
  876SOL    HW2 3503   4.146   9.837   8.504  2.1305 -0.9796 -0.5764
  876SOL     MW 3504   4.109   9.768   8.467  0.4640 -0.3525 -0.1790
  877SOL     OW 3505   5.911   0.603   5.073  0.0288  0.2692 -0.3257
  877SOL    HW1 3506   6.004   0.599   5.053 -0.1417  0.3816 -1.1806
  877SOL    HW2 3507   5.872   0.529   5.026 -0.5696  1.3220 -1.5418
  877SOL     MW 3508   5.918   0.593   5.064 -0.0747  0.4260 -0.6044
  878SOL     OW 3509   7.843   9.234   0.791  0.2276 -0.4298  0.3729
  878SOL    HW1 3510   7.800   9.251   0.875  0.0391 -1.3672  0.4790
  878SOL    HW2 3511   7.902   9.161   0.808  2.0151  0.9137  0.2589
  878SOL     MW 3512   7.845   9.227   0.805  0.4428 -0.3752  0.3718
  879SOL     OW 3513   6.725   8.775   5.446 -0.2995 -0.7717  0.4588
  879SOL    HW1 3514   6.690   8.798   5.532 -1.6814 -0.0313 -0.2655
  879SOL    HW2 3515   6.762   8.857   5.412 -0.9659 -0.7234 -0.1831
  879SOL     MW 3516   6.726   8.789   5.453 -0.5751 -0.6655  0.2749
  880SOL     OW 3517   6.252   0.702   5.413 -0.2149  0.7238 -0.0449
  880SOL    HW1 3518   6.338   0.697   5.371  0.9062 -1.1989  2.2596
  880SOL    HW2 3519   6.272   0.727   5.503 -1.8580 -1.5676  1.0323
  880SOL     MW 3520   6.266   0.705   5.419 -0.2852  0.1567  0.4102
  881SOL     OW 3521   5.904   0.865   5.957 -0.4625 -0.2638  0.4434
  881SOL    HW1 3522   5.927   0.786   5.908 -0.7509  0.3300 -0.6908
  881SOL    HW2 3523   5.810   0.857   5.973 -0.5829  0.0307 -0.0610
  881SOL     MW 3524   5.895   0.854   5.952 -0.5175 -0.1442  0.2229
  882SOL     OW 3525   5.817   1.717   5.997 -0.2010 -0.6580  0.5782
  882SOL    HW1 3526   5.800   1.811   5.985 -1.5385 -1.0272 -0.6733
  882SOL    HW2 3527   5.912   1.709   5.989 -0.2040  0.3933 -0.9818
  882SOL     MW 3528   5.828   1.729   5.994 -0.3814 -0.5662  0.1998
  883SOL     OW 3529   6.931   7.935   0.905  0.4934 -0.8888 -0.1416
  883SOL    HW1 3530   6.888   7.998   0.964  0.4954 -1.3345  0.3389
  883SOL    HW2 3531   6.859   7.886   0.867  0.2841  1.0438 -2.4648
  883SOL     MW 3532   6.915   7.937   0.908  0.4655 -0.6887 -0.3896
  884SOL     OW 3533   6.768   1.536   5.524  0.3440 -0.2950  0.3539
  884SOL    HW1 3534   6.795   1.575   5.441 -1.2040 -0.0805 -0.0779
  884SOL    HW2 3535   6.676   1.515   5.512  0.3543 -1.2264  1.6700
  884SOL     MW 3536   6.759   1.539   5.511  0.1370 -0.3915  0.4729
  885SOL     OW 3537   5.624   8.505   3.107 -0.2167 -0.0967  0.0842
  885SOL    HW1 3538   5.648   8.459   3.026  0.1493 -1.9250  1.1665
  885SOL    HW2 3539   5.708   8.522   3.150 -0.4630  0.0291  0.5200
  885SOL     MW 3540   5.639   8.501   3.101 -0.2006 -0.3258  0.2885
  886SOL     OW 3541   7.067   1.113   3.358  0.3119 -0.3598 -0.6715
  886SOL    HW1 3542   7.017   1.152   3.429  0.9155  1.1071 -1.0190
  886SOL    HW2 3543   7.108   1.035   3.396  1.3832  0.8981  0.8670
  886SOL     MW 3544   7.066   1.108   3.372  0.5373  0.0069 -0.5112
  887SOL     OW 3545   7.154   0.429   0.780 -0.4348  0.1347 -0.3416
  887SOL    HW1 3546   7.116   0.512   0.752 -0.5622 -0.5460 -2.3473
  887SOL    HW2 3547   7.231   0.418   0.724  0.2530 -0.5476  0.7043
  887SOL     MW 3548   7.159   0.439   0.769 -0.3594 -0.0487 -0.4708
  888SOL     OW 3549   7.059  10.084   3.445 -0.0798  0.7275  0.3204
  888SOL    HW1 3550   7.007  10.025   3.389  0.4800 -0.1879  0.7452
  888SOL    HW2 3551   7.002  10.101   3.520 -0.1597  0.5396  0.3038
  888SOL     MW 3552   7.044  10.078   3.448 -0.0152  0.5790  0.3754
  889SOL     OW 3553   5.330   0.541   8.349  0.7085 -0.1881  0.1672
  889SOL    HW1 3554   5.278   0.462   8.360  1.0231 -0.4540 -0.2227
  889SOL    HW2 3555   5.411   0.511   8.306  0.3340  0.5165 -1.0847
  889SOL     MW 3556   5.334   0.526   8.345  0.7004 -0.1290 -0.0538
  890SOL     OW 3557   3.868   0.261   1.389 -0.2235 -0.0790  0.1286
  890SOL    HW1 3558   3.778   0.247   1.418  0.1078  0.0232  1.2496
  890SOL    HW2 3559   3.860   0.291   1.299 -1.3311  0.3120  0.3441
  890SOL     MW 3560   3.855   0.263   1.381 -0.3280 -0.0126  0.3085
  891SOL     OW 3561   6.902   9.409  10.048 -0.0306  0.1801 -0.3258
  891SOL    HW1 3562   6.828   9.420   9.990  0.5789 -1.7318 -1.5684
  891SOL    HW2 3563   6.867   9.424  10.136 -1.5293  0.7285 -0.9974
  891SOL     MW 3564   6.887   9.412  10.052 -0.1503 -0.0034 -0.5834
  892SOL     OW 3565   5.265   8.914   3.478  0.2468 -0.3925 -0.7141
  892SOL    HW1 3566   5.271   8.819   3.468  0.2843 -0.4313 -0.3355
  892SOL    HW2 3567   5.272   8.948   3.389 -2.4690 -0.8667 -1.1880
  892SOL     MW 3568   5.267   8.906   3.465 -0.1136 -0.4615 -0.7270
  893SOL     OW 3569   5.444   8.089   0.279 -0.7296 -0.2610 -0.5320
  893SOL    HW1 3570   5.420   8.022   0.215 -0.4382  0.0362 -0.9576
  893SOL    HW2 3571   5.456   8.041   0.361  0.1133 -0.8317 -0.9741
  893SOL     MW 3572   5.443   8.073   0.282 -0.5769 -0.2978 -0.6488
  894SOL     OW 3573   5.552   1.583   8.308  0.0482 -0.3858  0.6038
  894SOL    HW1 3574   5.645   1.605   8.301  0.2467 -0.8915  1.5521
  894SOL    HW2 3575   5.547   1.523   8.382 -1.1070  0.0158  0.8636
  894SOL     MW 3576   5.564   1.578   8.317 -0.0806 -0.3998  0.7664
  895SOL     OW 3577   4.415   0.763   3.473  0.0799 -0.1082  0.3399
  895SOL    HW1 3578   4.468   0.689   3.442 -1.6545 -2.2339  2.0901
  895SOL    HW2 3579   4.342   0.722   3.519 -1.4003  2.7386  0.7298
  895SOL     MW 3580   4.413   0.747   3.475 -0.3527 -0.0112  0.6279
  896SOL     OW 3581   6.708   0.349   1.245 -0.0691 -0.0675  0.2069
  896SOL    HW1 3582   6.666   0.420   1.196  0.3326  0.5303  0.7017
  896SOL    HW2 3583   6.638   0.286   1.261 -0.3601  0.0546 -0.5276
  896SOL     MW 3584   6.693   0.350   1.241 -0.0542  0.0294  0.1746
  897SOL     OW 3585   6.661   0.580   6.614  0.4688  0.1457 -0.5745
  897SOL    HW1 3586   6.621   0.494   6.623  1.7610 -0.4017  0.3253
  897SOL    HW2 3587   6.588   0.641   6.614 -0.3920 -0.6856  2.6714
  897SOL     MW 3588   6.646   0.577   6.615  0.5268 -0.0398 -0.0166
  898SOL     OW 3589   6.581   0.077   7.324  0.6890  0.2812 -0.5608
  898SOL    HW1 3590   6.631   0.041   7.251  0.7921  0.8665 -0.7896
  898SOL    HW2 3591   6.491   0.080   7.293  0.4696 -0.9582 -0.0764
  898SOL     MW 3592   6.576   0.073   7.310  0.6734  0.1932 -0.5264
  899SOL     OW 3593   5.176   7.973   3.048 -0.0612  0.1347  0.0929
  899SOL    HW1 3594   5.235   7.969   2.972  0.0518 -0.3819  0.2047
  899SOL    HW2 3595   5.092   7.943   3.014  1.0498 -5.1540  1.1941
  899SOL     MW 3596   5.173   7.968   3.033  0.1035 -0.6466  0.2562
  900SOL     OW 3597   4.544   1.150   4.574  0.5660  0.2930  0.2798
  900SOL    HW1 3598   4.464   1.116   4.532  0.9695  0.4634 -0.6618
  900SOL    HW2 3599   4.518   1.171   4.663 -0.9412  2.0878 -0.5090
  900SOL     MW 3600   4.530   1.148   4.580  0.4174  0.5575  0.0470
  901SOL     OW 3601   4.341  10.104   6.096 -0.3544  0.1259 -0.1340
  901SOL    HW1 3602   4.305  10.115   6.184 -0.1054  1.2765 -0.1589
  901SOL    HW2 3603   4.430  10.139   6.103 -0.1493 -0.2697 -0.7169
  901SOL     MW 3604   4.348  10.110   6.109 -0.2933  0.2275 -0.2158
  902SOL     OW 3605   7.765   9.749   7.305 -0.4530 -0.7414 -0.0182
  902SOL    HW1 3606   7.766   9.701   7.223  0.0967 -0.9685  0.1172
  902SOL    HW2 3607   7.854   9.739   7.340 -1.0403 -1.7770  1.2574
  902SOL     MW 3608   7.777   9.741   7.299 -0.4580 -0.9114  0.1717
  903SOL     OW 3609   6.435   8.392   4.723  0.1259 -0.1411  0.7067
  903SOL    HW1 3610   6.432   8.487   4.718 -1.2315 -0.2411 -0.9278
  903SOL    HW2 3611   6.366   8.362   4.665  0.7092 -2.1433  0.9699
  903SOL     MW 3612   6.426   8.401   4.715  0.0217 -0.4240  0.5221
  904SOL     OW 3613   5.543   9.855   2.380 -0.1328 -0.7477 -0.4943
  904SOL    HW1 3614   5.489   9.910   2.323 -0.1940 -0.4099 -0.1206
  904SOL    HW2 3615   5.480   9.817   2.442  0.1954  0.7700  0.8547
  904SOL     MW 3616   5.527   9.857   2.381 -0.0969 -0.4980 -0.2625
  905SOL     OW 3617   3.896   9.973   3.906 -0.1200 -0.1159  0.0888
  905SOL    HW1 3618   3.940   9.898   3.865 -0.4674 -0.7542  0.8579
  905SOL    HW2 3619   3.913   9.963   3.999 -2.4131 -0.7556  0.5051
  905SOL     MW 3620   3.904   9.961   3.913 -0.4753 -0.2879  0.2483
  906SOL     OW 3621   5.946   0.130   0.613  0.2968 -0.3840  0.2009
  906SOL    HW1 3622   5.971   0.039   0.597 -1.4664 -0.5033 -2.7091
  906SOL    HW2 3623   5.858   0.125   0.650  0.5395  0.1319  0.8604
  906SOL     MW 3624   5.937   0.117   0.616  0.0922 -0.3306 -0.1019
  907SOL     OW 3625   6.341   8.205   8.853  0.3747  0.2212 -0.7419
  907SOL    HW1 3626   6.406   8.203   8.924 -0.8924 -1.0504  0.4632
  907SOL    HW2 3627   6.392   8.197   8.773  1.7608 -0.0559  0.1349
  907SOL     MW 3628   6.356   8.203   8.852  0.3907  0.0128 -0.4617
  908SOL     OW 3629   5.940   8.787   8.740  0.8705 -0.2030  0.2830
  908SOL    HW1 3630   5.877   8.857   8.758 -1.6857 -1.5345 -2.6314
  908SOL    HW2 3631   6.013   8.832   8.697 -0.1346  0.8661 -0.3764
  908SOL     MW 3632   5.941   8.803   8.737  0.3912 -0.2383 -0.1980
  909SOL     OW 3633   6.794   9.614   0.648  0.4336 -0.7329 -0.0411
  909SOL    HW1 3634   6.760   9.623   0.559  1.1454 -0.0130 -0.2532
  909SOL    HW2 3635   6.771   9.525   0.673 -0.7684 -0.5766 -0.5148
  909SOL     MW 3636   6.786   9.603   0.639  0.3676 -0.6150 -0.1334
  910SOL     OW 3637   3.756   9.111   3.371  0.0846  0.3666  0.0337
  910SOL    HW1 3638   3.842   9.120   3.411 -0.5125  0.2167  1.3909
  910SOL    HW2 3639   3.700   9.172   3.419 -0.6418  0.2706 -0.6551
  910SOL     MW 3640   3.760   9.121   3.383 -0.0935  0.3335  0.1237
  911SOL     OW 3641   4.883   0.056   4.023 -0.0161 -0.5399  0.1745
  911SOL    HW1 3642   4.814   0.091   3.967 -0.7733  0.7722  1.8452
  911SOL    HW2 3643   4.857  -0.035   4.041 -1.3283 -0.0692  0.7581
  911SOL     MW 3644   4.870   0.048   4.018 -0.2946 -0.3000  0.4779
  912SOL     OW 3645   7.740   9.778   6.887 -0.5499  0.1236  0.6526
  912SOL    HW1 3646   7.788   9.840   6.942  0.4777 -0.5773  0.5507
  912SOL    HW2 3647   7.699   9.833   6.820  0.7813  0.6595  0.2468
  912SOL     MW 3648   7.741   9.794   6.885 -0.2324  0.1014  0.5843
  913SOL     OW 3649   5.796   0.238   9.660 -0.0087  0.2202  0.1658
  913SOL    HW1 3650   5.712   0.232   9.614 -0.2897  0.6396  0.6180
  913SOL    HW2 3651   5.823   0.329   9.649  1.2204 -0.2788 -1.3970
  913SOL     MW 3652   5.788   0.249   9.652  0.1189  0.2095  0.0164
  914SOL     OW 3653   4.621   8.126   5.708 -0.1889  0.3617  0.1401
  914SOL    HW1 3654   4.599   8.112   5.616 -0.6819 -1.8649  0.5379
  914SOL    HW2 3655   4.566   8.199   5.735  0.2554  1.3263 -1.3968
  914SOL     MW 3656   4.611   8.134   5.699 -0.1954  0.1919 -0.0132
  915SOL     OW 3657   7.004  10.101   8.344  0.0229 -0.0753  0.1720
  915SOL    HW1 3658   6.986  10.044   8.269 -2.4635  1.8997 -0.8970
  915SOL    HW2 3659   6.919  10.110   8.388  1.0826  0.1021  2.3252
  915SOL     MW 3660   6.990  10.095   8.340 -0.1691  0.2144  0.3179
  916SOL     OW 3661   7.244  10.158   0.066 -0.5508 -0.0869  0.3788
  916SOL    HW1 3662   7.186  10.083   0.053  0.0304 -0.5758  0.5349
  916SOL    HW2 3663   7.224  10.189   0.154 -2.3151  1.3047 -0.4666
  916SOL     MW 3664   7.234  10.152   0.076 -0.7100  0.0346  0.2860
  917SOL     OW 3665   5.127   7.797   1.744  0.4726  0.3385  0.5011
  917SOL    HW1 3666   5.202   7.853   1.763 -0.5116  1.5874  0.8773
  917SOL    HW2 3667   5.083   7.788   1.828 -2.2108  3.3169 -0.3888
  917SOL     MW 3668   5.131   7.803   1.758 -0.0210  0.9074  0.4320
  918SOL     OW 3669   6.131   9.163   8.851 -0.0845 -0.0348  0.1228
  918SOL    HW1 3670   6.090   9.192   8.770 -0.4045 -0.5252  0.1042
  918SOL    HW2 3671   6.134   9.241   8.907 -0.0390  0.2558 -0.2853
  918SOL     MW 3672   6.126   9.177   8.848 -0.1215 -0.0617  0.0654
  919SOL     OW 3673   3.620   9.971   2.930  0.0712 -0.1211 -0.5212
  919SOL    HW1 3674   3.696  10.027   2.911 -0.0926  1.0742  1.8970
  919SOL    HW2 3675   3.577   9.959   2.846  1.9802  0.6097 -1.6769
  919SOL     MW 3676   3.625   9.977   2.916  0.3061  0.1381 -0.3513
  920SOL     OW 3677   3.909   0.031   5.995 -0.2293  0.3209 -0.6418
  920SOL    HW1 3678   3.996   0.070   5.995 -0.1484  0.1431 -0.8208
  920SOL    HW2 3679   3.900  -0.009   5.908 -0.4158  0.1766 -0.5595
  920SOL     MW 3680   3.919   0.030   5.983 -0.2435  0.2775 -0.6548
  921SOL     OW 3681   5.709   8.920   5.811 -0.3526  0.0595 -1.1688
  921SOL    HW1 3682   5.675   9.008   5.833 -0.4425 -0.4797  1.1114
  921SOL    HW2 3683   5.660   8.861   5.868  2.0119 -1.1218 -0.2266
  921SOL     MW 3684   5.698   8.924   5.822 -0.0465 -0.1721 -0.7351
  922SOL     OW 3685   7.207   0.046   6.350 -0.1745  0.7225 -0.0895
  922SOL    HW1 3686   7.164  -0.038   6.339  0.2688  0.3647  0.8395
  922SOL    HW2 3687   7.297   0.025   6.377  0.2283  1.4752 -0.7855
  922SOL     MW 3688   7.214   0.032   6.352 -0.0606  0.7757 -0.0582
  923SOL     OW 3689   4.585   9.115   4.189 -0.1820  0.5800 -0.2389
  923SOL    HW1 3690   4.508   9.167   4.210 -0.1536  0.7336 -0.5128
  923SOL    HW2 3691   4.650   9.179   4.160  0.2304  0.5120  0.5047
  923SOL     MW 3692   4.583   9.131   4.188 -0.1227  0.5915 -0.1757
  924SOL     OW 3693   7.437   9.545   6.001 -0.1848  0.3069  0.2021
  924SOL    HW1 3694   7.461   9.544   5.908 -1.0252  1.1889 -0.0311
  924SOL    HW2 3695   7.520   9.529   6.047  0.2230 -0.2433 -0.6921
  924SOL     MW 3696   7.451   9.542   5.995 -0.2430  0.3515  0.0504
  925SOL     OW 3697   6.304   8.680   8.189  0.0296 -0.3292 -0.3684
  925SOL    HW1 3698   6.221   8.636   8.172  0.7140 -1.7769 -0.0616
  925SOL    HW2 3699   6.285   8.739   8.262 -0.0327 -2.9943  1.9379
  925SOL     MW 3700   6.291   8.682   8.196  0.1133 -0.8827 -0.0167
  926SOL     OW 3701   5.536   9.366   4.162  0.2974 -0.1179  0.3778
  926SOL    HW1 3702   5.525   9.385   4.255 -0.9941  0.5929  0.0977
  926SOL    HW2 3703   5.521   9.450   4.118 -0.5039 -0.7237 -0.5523
  926SOL     MW 3704   5.533   9.380   4.169  0.0158 -0.1038  0.2149
  927SOL     OW 3705   7.554   9.383   9.000 -0.2474  0.2376 -0.0149
  927SOL    HW1 3706   7.594   9.351   8.919 -3.8509  1.5113 -2.5505
  927SOL    HW2 3707   7.566   9.478   8.997 -1.1040  0.3792  0.5027
  927SOL     MW 3708   7.561   9.391   8.989 -0.8476  0.4281 -0.2865
  928SOL     OW 3709   5.230   1.429   5.399  0.5718 -0.0857 -0.3776
  928SOL    HW1 3710   5.136   1.445   5.393  0.5985  0.4830  0.5181
  928SOL    HW2 3711   5.263   1.501   5.452  1.5210 -0.2717 -0.7021
  928SOL     MW 3712   5.222   1.441   5.405  0.7032 -0.0342 -0.3008
  929SOL     OW 3713   3.749   0.627   3.759 -0.1787  0.2240  0.7774
  929SOL    HW1 3714   3.761   0.719   3.782  0.5133 -0.0578  1.5807
  929SOL    HW2 3715   3.726   0.629   3.666 -0.1331  1.2046  0.7744
  929SOL     MW 3716   3.748   0.640   3.750 -0.0794  0.3180  0.8851
  930SOL     OW 3717   5.908   7.786  10.023  0.0875  0.4520 -0.8869
  930SOL    HW1 3718   5.965   7.720   9.985  2.1545  0.0771  2.4119
  930SOL    HW2 3719   5.866   7.742  10.096  1.7693  2.6575  1.6283
  930SOL     MW 3720   5.910   7.771  10.028  0.5920  0.6983 -0.1044
  931SOL     OW 3721   4.012  10.028   6.544 -0.0166  0.7855 -0.2429
  931SOL    HW1 3722   4.107  10.041   6.551 -0.0056  1.5537 -1.5302
  931SOL    HW2 3723   3.990  10.059   6.456 -1.5728  1.2306  0.2765
  931SOL     MW 3724   4.022  10.034   6.533 -0.2246  0.9488 -0.3462
  932SOL     OW 3725   6.374  10.124   9.771 -0.2629 -0.4377 -0.0522
  932SOL    HW1 3726   6.373  10.138   9.865 -0.1287  0.6714 -0.1962
  932SOL    HW2 3727   6.439  10.186   9.738  1.0070 -2.0377 -0.7160
  932SOL     MW 3728   6.382  10.134   9.779 -0.0740 -0.5037 -0.1609
  933SOL     OW 3729   5.821   9.982   0.921 -0.0395 -0.2422 -0.0798
  933SOL    HW1 3730   5.745  10.024   0.880  0.7770  0.2861 -1.0762
  933SOL    HW2 3731   5.785   9.902   0.960 -1.1766  0.1800 -0.2154
  933SOL     MW 3732   5.806   9.977   0.921 -0.0826 -0.1143 -0.2322
  934SOL     OW 3733   5.047   1.294   1.893 -0.4125 -0.8314 -0.0233
  934SOL    HW1 3734   5.038   1.208   1.851 -1.7202 -1.8588  2.1876
  934SOL    HW2 3735   5.014   1.281   1.982  1.7449  1.3526  1.2124
  934SOL     MW 3736   5.041   1.281   1.899 -0.2982 -0.6757  0.4406
  935SOL     OW 3737   5.669   8.487   1.364 -0.2055 -0.1427 -0.1938
  935SOL    HW1 3738   5.674   8.574   1.326  0.2341 -0.2141 -0.3014
  935SOL    HW2 3739   5.617   8.436   1.302  0.0595 -0.1190 -0.4349
  935SOL     MW 3740   5.662   8.492   1.351 -0.1107 -0.1492 -0.2407
  936SOL     OW 3741   5.707   0.744   9.723  0.0990 -0.2050 -0.5048
  936SOL    HW1 3742   5.780   0.766   9.782  0.6776 -0.9903 -0.8976
  936SOL    HW2 3743   5.654   0.823   9.720  0.8490  0.3334 -0.0737
  936SOL     MW 3744   5.710   0.758   9.731  0.2778 -0.2382 -0.4997
  937SOL     OW 3745   4.244   9.605   8.315  0.5512  0.2990  0.1677
  937SOL    HW1 3746   4.241   9.510   8.329  1.3007  0.4272  1.4325
  937SOL    HW2 3747   4.338   9.626   8.317  0.3708  1.1219  0.3929
  937SOL     MW 3748   4.256   9.595   8.317  0.6278  0.4270  0.3682
  938SOL     OW 3749   5.754   9.531   4.426  0.6585 -0.3585  0.5088
  938SOL    HW1 3750   5.676   9.477   4.424 -0.2785  0.9491 -0.0818
  938SOL    HW2 3751   5.805   9.498   4.500 -0.2080 -1.5655  0.5865
  938SOL     MW 3752   5.751   9.520   4.436  0.4158 -0.3450  0.4398
  939SOL     OW 3753   5.890   8.237   6.076  0.1101 -0.0053 -0.2285
  939SOL    HW1 3754   5.822   8.248   6.142  0.4995 -0.0652  0.1963
  939SOL    HW2 3755   5.958   8.300   6.101  0.1652  0.1271 -0.7044
  939SOL     MW 3756   5.890   8.247   6.089  0.1699  0.0045 -0.2354
  940SOL     OW 3757   6.030   1.578   3.663 -0.2343 -0.4077  0.6245
  940SOL    HW1 3758   6.121   1.597   3.640 -0.5231  0.1395 -0.1051
  940SOL    HW2 3759   6.021   1.609   3.753 -0.2415  1.4637  0.0237
  940SOL     MW 3760   6.041   1.585   3.672 -0.2741 -0.0822  0.4455
  941SOL     OW 3761   5.028   7.715   6.997  0.1523  0.2206 -0.0487
  941SOL    HW1 3762   5.077   7.668   7.064  0.5091  0.2367 -0.2963
  941SOL    HW2 3763   5.031   7.807   7.025 -0.2032  0.1506  0.2232
  941SOL     MW 3764   5.035   7.721   7.010  0.1525  0.2134 -0.0455
  942SOL     OW 3765   7.324   1.478   0.934  0.7985 -0.2017 -0.5544
  942SOL    HW1 3766   7.328   1.574   0.942 -0.1599 -0.2385  0.7719
  942SOL    HW2 3767   7.343   1.446   1.022  0.2465 -1.1928 -0.7856
  942SOL     MW 3768   7.327   1.487   0.947  0.5953 -0.3400 -0.4070
  943SOL     OW 3769   4.463   8.225   3.706 -0.5929  0.0999  0.4593
  943SOL    HW1 3770   4.473   8.183   3.620  0.3116  0.5155  0.3583
  943SOL    HW2 3771   4.368   8.230   3.718 -0.7871 -2.6497  0.8160
  943SOL     MW 3772   4.451   8.220   3.696 -0.4973 -0.2142  0.4937
  944SOL     OW 3773   5.612   8.731   3.433  0.3878 -0.2872  0.0780
  944SOL    HW1 3774   5.623   8.636   3.439 -0.8485 -0.4219  0.4837
  944SOL    HW2 3775   5.545   8.752   3.499  1.1397  0.9653  0.4828
  944SOL     MW 3776   5.604   8.721   3.443  0.3226 -0.1367  0.1870
  945SOL     OW 3777   6.838   1.016   1.367  1.0174  0.0312 -0.5986
  945SOL    HW1 3778   6.754   0.990   1.331  0.5965 -0.2924  0.5562
  945SOL    HW2 3779   6.882   1.064   1.297  0.1070 -0.2855 -1.3945
  945SOL     MW 3780   6.833   1.019   1.353  0.8383 -0.0550 -0.5503
  946SOL     OW 3781   8.151   0.374   4.846 -0.4308  0.4569  0.1121
  946SOL    HW1 3782   8.066   0.334   4.829 -0.8497  1.0624  0.7512
  946SOL    HW2 3783   8.174   0.346   4.934 -0.1990  0.6983  0.1300
  946SOL     MW 3784   8.143   0.365   4.856 -0.4560  0.5709  0.2005
  947SOL     OW 3785   3.516   9.195   2.838  0.0348 -0.0390 -0.5635
  947SOL    HW1 3786   3.576   9.269   2.830  0.5044 -0.2763  0.5467
  947SOL    HW2 3787   3.568   9.126   2.880 -0.7611 -0.5517 -0.3832
  947SOL     MW 3788   3.531   9.195   2.843 -0.0091 -0.1400 -0.3898
  948SOL     OW 3789   5.767   0.756   4.843 -0.2823  0.7087  0.1198
  948SOL    HW1 3790   5.820   0.708   4.907 -0.3377  1.0426  0.4196
  948SOL    HW2 3791   5.736   0.688   4.783  0.0799  0.4426  0.2263
  948SOL     MW 3792   5.770   0.740   4.844 -0.2410  0.7178  0.1745
  949SOL     OW 3793   5.185   0.725   1.420  0.2886  0.3329  0.5976
  949SOL    HW1 3794   5.261   0.686   1.462  0.8506 -0.6190 -1.1873
  949SOL    HW2 3795   5.196   0.704   1.327 -1.6580  1.0212  0.1656
  949SOL     MW 3796   5.197   0.717   1.413  0.1023  0.2974  0.2993
  950SOL     OW 3797   5.619   8.123   3.592  0.5166  0.2124  0.0832
  950SOL    HW1 3798   5.558   8.178   3.544 -0.8508 -1.6168 -0.3842
  950SOL    HW2 3799   5.697   8.177   3.602 -0.9618  2.4448  0.2458
  950SOL     MW 3800   5.621   8.138   3.587  0.1336  0.2666  0.0422
  951SOL     OW 3801   7.996   9.037   3.487  0.2473 -0.0049 -0.1051
  951SOL    HW1 3802   8.020   9.129   3.483  1.2399 -0.2669 -0.6046
  951SOL    HW2 3803   7.976   9.021   3.579  1.7845  0.3202  0.3190
  951SOL     MW 3804   7.997   9.047   3.499  0.5878  0.0036 -0.1153
  952SOL     OW 3805   6.441   8.218   0.044 -0.7125 -0.2696 -0.2394
  952SOL    HW1 3806   6.410   8.159  -0.024 -0.7182 -1.1465  0.4975
  952SOL    HW2 3807   6.533   8.194   0.057 -0.3323  0.7993 -0.8595
  952SOL     MW 3808   6.450   8.207   0.037 -0.6621 -0.2438 -0.2237
  953SOL     OW 3809   5.930   8.778   2.148  0.1900 -0.3168 -0.3732
  953SOL    HW1 3810   5.848   8.783   2.099  1.3750 -0.7021 -2.5218
  953SOL    HW2 3811   5.966   8.866   2.142 -0.2502 -0.0183  0.9938
  953SOL     MW 3812   5.924   8.791   2.141  0.2902 -0.3285 -0.4784
  954SOL     OW 3813   4.774   9.971   4.097 -0.2236 -0.0639 -0.1501
  954SOL    HW1 3814   4.858   9.926   4.099  0.4241  1.1160  0.2006
  954SOL    HW2 3815   4.735   9.947   4.013 -0.4799 -2.2395  0.5182
  954SOL     MW 3816   4.780   9.961   4.086 -0.1709 -0.1979 -0.0130
  955SOL     OW 3817   6.998   8.948   3.704  0.0892  0.2265  0.1086
  955SOL    HW1 3818   6.930   8.904   3.755 -0.3774  1.6967  0.8068
  955SOL    HW2 3819   7.038   9.010   3.765  1.1336  0.3456 -0.6716
  955SOL     MW 3820   6.994   8.950   3.719  0.1669  0.4404  0.0976
  956SOL     OW 3821   7.037   1.314   6.223  0.4611  0.1461 -0.4463
  956SOL    HW1 3822   7.131   1.312   6.210  0.8085 -0.3903  1.6926
  956SOL    HW2 3823   7.000   1.271   6.145  2.0804 -0.9982 -0.6225
  956SOL     MW 3824   7.044   1.308   6.211  0.7258 -0.0801 -0.1822
  957SOL     OW 3825   7.039   9.934   0.773  0.3093 -0.3048  0.1973
  957SOL    HW1 3826   7.010   9.981   0.695 -2.0737 -0.7970  0.6923
  957SOL    HW2 3827   7.127   9.968   0.791  1.3827 -0.9514 -3.2442
  957SOL     MW 3828   7.047   9.945   0.765  0.1330 -0.4581 -0.1993
  958SOL     OW 3829   5.639   1.611   5.644  0.0873 -0.0418  0.0088
  958SOL    HW1 3830   5.687   1.671   5.587 -0.3854  0.5733  0.2522
  958SOL    HW2 3831   5.555   1.597   5.598 -0.6363  1.1080  0.9289
  958SOL     MW 3832   5.634   1.617   5.630 -0.0737  0.1957  0.1654
  959SOL     OW 3833   6.603   0.284   2.942  0.0798  0.1053  0.2804
  959SOL    HW1 3834   6.557   0.268   2.860  1.1653  0.8152 -0.4950
  959SOL    HW2 3835   6.619   0.196   2.978  0.0203 -0.2444 -0.5203
  959SOL     MW 3836   6.599   0.270   2.936  0.2179  0.1538  0.0683
  960SOL     OW 3837   5.593   1.350   9.753  0.5082  0.3672 -0.0377
  960SOL    HW1 3838   5.612   1.444   9.756  0.3933  0.4906 -1.9038
  960SOL    HW2 3839   5.654   1.311   9.815  1.0915  1.5960  0.1945
  960SOL     MW 3840   5.604   1.357   9.762  0.5713  0.5492 -0.2576
  961SOL     OW 3841   4.545   7.720   6.630 -0.7120  0.6765 -0.0682
  961SOL    HW1 3842   4.590   7.777   6.568 -0.4766  1.2245  0.5941
  961SOL    HW2 3843   4.608   7.706   6.701 -1.1125  0.3851  0.2393
  961SOL     MW 3844   4.560   7.725   6.632 -0.7342  0.7111  0.0623
  962SOL     OW 3845   5.543   9.529   8.500 -0.3555  0.0681  0.2385
  962SOL    HW1 3846   5.535   9.460   8.565 -1.6835  2.0020  2.2362
  962SOL    HW2 3847   5.457   9.569   8.496  0.6383  2.3529  0.0309
  962SOL     MW 3848   5.531   9.525   8.508 -0.4005  0.6359  0.4794
  963SOL     OW 3849   6.828   0.352   3.934 -0.0644  0.1500  0.0093
  963SOL    HW1 3850   6.857   0.331   3.845  2.1410 -0.9062  0.8841
  963SOL    HW2 3851   6.795   0.441   3.928  1.3140  0.6062 -1.6150
  963SOL     MW 3852   6.828   0.361   3.921  0.4179  0.0692 -0.0916
  964SOL     OW 3853   4.211   0.448   0.289 -1.0777  0.1997 -0.0875
  964SOL    HW1 3854   4.125   0.429   0.327 -0.8570 -1.9817 -0.5078
  964SOL    HW2 3855   4.219   0.387   0.215  1.2748 -0.5599  0.6681
  964SOL     MW 3856   4.201   0.437   0.284 -0.7314 -0.1961 -0.0423
  965SOL     OW 3857   6.344   1.398   0.684 -0.1050 -0.8791 -0.7505
  965SOL    HW1 3858   6.359   1.411   0.777  2.9645  0.9006 -1.3140
  965SOL    HW2 3859   6.286   1.322   0.678 -1.7756 -0.0352  2.5781
  965SOL     MW 3860   6.338   1.390   0.695  0.0833 -0.5260 -0.3783
  966SOL     OW 3861   5.823   9.026   8.754  0.1627 -0.5044  0.1108
  966SOL    HW1 3862   5.786   9.075   8.827 -1.3075  0.7205 -1.3622
  966SOL    HW2 3863   5.889   9.084   8.717 -0.0523 -0.5346 -0.3333
  966SOL     MW 3864   5.827   9.040   8.759 -0.0641 -0.3436 -0.1472
  967SOL     OW 3865   4.692   0.209   8.952  0.1112 -0.4901 -0.9807
  967SOL    HW1 3866   4.723   0.262   9.025  1.2353  0.0981 -1.8372
  967SOL    HW2 3867   4.602   0.186   8.974 -0.4696  1.9071 -0.6425
  967SOL     MW 3868   4.684   0.213   8.965  0.1843 -0.0883 -1.0505
  968SOL     OW 3869   5.243   9.591   2.952 -0.2349 -0.1330  0.0645
  968SOL    HW1 3870   5.242   9.545   2.868  0.1560  0.1406 -0.0877
  968SOL    HW2 3871   5.236   9.521   3.017  1.7390 -0.5470 -0.1173
  968SOL     MW 3872   5.242   9.575   2.950  0.0834 -0.1519  0.0195
  969SOL     OW 3873   7.995   9.406   5.843  0.2251  0.1058  0.2189
  969SOL    HW1 3874   8.034   9.381   5.927 -0.1883 -0.6225  0.2104
  969SOL    HW2 3875   8.070   9.420   5.785  0.5196 -2.0138 -0.0133
  969SOL     MW 3876   8.010   9.404   5.847  0.2091 -0.2775  0.1865
  970SOL     OW 3877   5.557   0.985   1.628  0.0349  0.4811  0.6082
  970SOL    HW1 3878   5.553   0.968   1.534  0.2235  0.0981  0.6692
  970SOL    HW2 3879   5.575   1.079   1.634 -2.7358  1.1256  0.2924
  970SOL     MW 3880   5.559   0.996   1.616 -0.3126  0.5163  0.5739
  971SOL     OW 3881   4.414   8.712   3.035  0.4488  0.2086 -0.0294
  971SOL    HW1 3882   4.446   8.750   3.117 -0.1909  1.2018 -0.2330
  971SOL    HW2 3883   4.438   8.776   2.967 -0.5088  0.1924 -0.3945
  971SOL     MW 3884   4.422   8.725   3.037  0.2339  0.3401 -0.1059
  972SOL     OW 3885   6.436   8.825   7.141 -0.4163  0.3315  0.4678
  972SOL    HW1 3886   6.391   8.817   7.056 -0.1108 -1.1618  0.4059
  972SOL    HW2 3887   6.415   8.913   7.171 -1.1579  0.6273 -0.8118
  972SOL     MW 3888   6.427   8.836   7.134 -0.4750  0.1704  0.2873
  973SOL     OW 3889   5.675   0.622   1.787  0.0887  0.0733  0.4446
  973SOL    HW1 3890   5.712   0.685   1.849 -0.7800  0.5682  0.4788
  973SOL    HW2 3891   5.586   0.655   1.770 -0.0791 -0.6834 -0.1844
  973SOL     MW 3892   5.668   0.635   1.793 -0.0508  0.0380  0.3646
  974SOL     OW 3893   5.306   9.510   0.936  0.2228  0.3388  0.1940
  974SOL    HW1 3894   5.358   9.587   0.960  1.5025 -0.5032  0.2037
  974SOL    HW2 3895   5.348   9.438   0.983 -0.6464 -0.4479 -0.2237
  974SOL     MW 3896   5.319   9.511   0.945  0.2780  0.1196  0.1391
  975SOL     OW 3897   6.178   1.542   1.265  0.4237 -0.0061 -0.1356
  975SOL    HW1 3898   6.222   1.583   1.190  0.7416 -2.3097 -1.2994
  975SOL    HW2 3899   6.243   1.482   1.301 -0.3880 -0.3664  0.7677
  975SOL     MW 3900   6.192   1.540   1.260  0.3572 -0.3646 -0.1707
  976SOL     OW 3901   4.559   8.945   9.826 -0.1340  0.4622  0.4300
  976SOL    HW1 3902   4.478   8.976   9.784  0.2502  0.8526 -0.0376
  976SOL    HW2 3903   4.564   8.994   9.908 -0.5193  0.2290  0.5926
  976SOL     MW 3904   4.549   8.956   9.831 -0.1341  0.4834  0.3890
  977SOL     OW 3905   4.421   8.960   5.531 -0.4295  0.6361  0.2257
  977SOL    HW1 3906   4.463   9.027   5.478 -0.6551 -0.4882 -1.4727
  977SOL    HW2 3907   4.362   8.915   5.470 -0.4280 -0.9646  1.3401
  977SOL     MW 3908   4.418   8.963   5.516 -0.4596  0.2694  0.1471
  978SOL     OW 3909   4.723   1.255   5.844  0.1947 -0.5867 -0.2142
  978SOL    HW1 3910   4.767   1.273   5.927 -0.1613  0.2825 -0.1994
  978SOL    HW2 3911   4.638   1.219   5.869 -0.1969  0.3365 -0.1712
  978SOL     MW 3912   4.718   1.253   5.858  0.0941 -0.3455 -0.2064
  979SOL     OW 3913   6.390   1.090   3.932 -0.2813  0.2851  0.4486
  979SOL    HW1 3914   6.442   1.168   3.913 -1.0469  0.8649  0.6871
  979SOL    HW2 3915   6.299   1.121   3.933 -0.5585 -0.5032  1.0589
  979SOL     MW 3916   6.385   1.105   3.930 -0.4217  0.2570  0.5628
  980SOL     OW 3917   5.462   1.342   4.116 -0.0070  0.4235  0.4560
  980SOL    HW1 3918   5.528   1.400   4.155 -0.2747  0.7142  0.4807
  980SOL    HW2 3919   5.486   1.339   4.023 -0.3131  1.0226  0.3501
  980SOL     MW 3920   5.474   1.350   4.109 -0.0842  0.5432  0.4451
  981SOL     OW 3921   6.747   9.459   5.597 -0.6813 -0.3331  0.1661
  981SOL    HW1 3922   6.719   9.528   5.657  1.0001 -0.4392  1.1514
  981SOL    HW2 3923   6.725   9.378   5.643 -2.9860 -0.5171 -1.1469
  981SOL     MW 3924   6.741   9.457   5.611 -0.7652 -0.3721  0.1220
  982SOL     OW 3925   3.899   8.314   1.526  0.2888 -0.2986  0.8113
  982SOL    HW1 3926   3.828   8.269   1.572 -1.0080  1.0013  0.1567
  982SOL    HW2 3927   3.865   8.402   1.509  1.5112 -0.0916 -0.8004
  982SOL     MW 3928   3.885   8.320   1.530  0.2788 -0.0958  0.5063
  983SOL     OW 3929   4.735   1.011   1.123  0.4428 -0.2339  0.3529
  983SOL    HW1 3930   4.650   1.047   1.096  1.0739  1.6159  0.6536
  983SOL    HW2 3931   4.725   0.995   1.217  0.9682  1.8517  0.8204
  983SOL     MW 3932   4.722   1.014   1.132  0.5984  0.2957  0.4563
  984SOL     OW 3933   3.770   9.488   5.441  0.6279  0.1785 -0.1316
  984SOL    HW1 3934   3.782   9.405   5.487 -1.9516 -0.9618 -1.2782
  984SOL    HW2 3935   3.729   9.546   5.505  0.2524 -0.2285 -0.0060
  984SOL     MW 3936   3.766   9.485   5.456  0.2302 -0.0298 -0.2690
  985SOL     OW 3937   5.264   0.280   0.915  0.1943 -0.3869 -0.3672
  985SOL    HW1 3938   5.258   0.372   0.891 -1.1921 -0.0467  1.1060
  985SOL    HW2 3939   5.269   0.281   1.010  0.9354 -1.8247 -0.3677
  985SOL     MW 3940   5.264   0.292   0.924  0.1074 -0.5346 -0.1690
  986SOL     OW 3941   6.348  10.007   6.525  0.2786 -0.0006 -0.4338
  986SOL    HW1 3942   6.290  10.005   6.449  0.3368  1.8967 -0.5762
  986SOL    HW2 3943   6.299   9.963   6.595 -0.0464 -1.1560 -1.3649
  986SOL     MW 3944   6.334  10.000   6.524  0.2427  0.0992 -0.5783
  987SOL     OW 3945   6.388   1.006   8.904  0.0378  0.0414  0.1601
  987SOL    HW1 3946   6.470   0.959   8.894 -0.5918 -1.4035  1.3314
  987SOL    HW2 3947   6.412   1.098   8.898  2.0486 -0.2662  2.1844
  987SOL     MW 3948   6.402   1.012   8.902  0.2237 -0.1944  0.5901
  988SOL     OW 3949   7.441   9.918   2.300 -0.4698 -0.0236  0.5844
  988SOL    HW1 3950   7.530   9.951   2.310 -0.3942 -0.1328  0.2908
  988SOL    HW2 3951   7.386   9.996   2.296 -0.6238  0.0481  2.6938
  988SOL     MW 3952   7.446   9.933   2.301 -0.4803 -0.0287  0.8288
  989SOL     OW 3953   5.117   1.112   3.295  0.3262  0.3864  0.1337
  989SOL    HW1 3954   5.190   1.064   3.333  0.1373 -0.0377 -0.0357
  989SOL    HW2 3955   5.137   1.204   3.314  0.4118  0.2077  0.9290
  989SOL     MW 3956   5.130   1.118   3.302  0.3123  0.3052  0.2179
  990SOL     OW 3957   5.694   8.769   2.006 -0.0967 -0.1185 -0.1447
  990SOL    HW1 3958   5.611   8.759   2.051 -0.0690  0.8319  0.1432
  990SOL    HW2 3959   5.673   8.822   1.929  0.2274  0.0485 -0.1204
  990SOL     MW 3960   5.680   8.775   2.001 -0.0494  0.0318 -0.1027
  991SOL     OW 3961   6.475  10.120   3.432  0.1069 -0.0411  0.1201
  991SOL    HW1 3962   6.436  10.193   3.383 -0.5498  0.6472  1.6252
  991SOL    HW2 3963   6.401  10.062   3.452  0.3247 -0.1626  0.5778
  991SOL     MW 3964   6.460  10.122   3.428  0.0478  0.0352  0.3842
  992SOL     OW 3965   5.619   0.497   2.042 -0.0203  0.1199  1.0271
  992SOL    HW1 3966   5.645   0.540   1.960 -1.3884 -0.0065  0.4868
  992SOL    HW2 3967   5.701   0.474   2.085  0.7562 -0.8569 -0.8656
  992SOL     MW 3968   5.633   0.500   2.037 -0.0999 -0.0286  0.6997
  993SOL     OW 3969   5.319   8.061   9.989 -0.2162 -0.3195 -0.1332
  993SOL    HW1 3970   5.396   8.088   9.939 -1.1308  2.2148 -0.3051
  993SOL    HW2 3971   5.351   8.048  10.078  0.6204 -0.5496 -0.4584
  993SOL     MW 3972   5.334   8.063   9.994 -0.2267 -0.0094 -0.2001
  994SOL     OW 3973   4.505   9.958   2.675 -0.4265  0.4956 -0.1827
  994SOL    HW1 3974   4.551   9.914   2.604  0.9440  1.2280  0.2184
  994SOL    HW2 3975   4.560  10.033   2.698 -0.2474 -0.2910  2.3420
  994SOL     MW 3976   4.519   9.962   2.669 -0.2179  0.4883  0.2111
  995SOL     OW 3977   7.171   8.751   5.265 -0.4724 -0.2337  0.0740
  995SOL    HW1 3978   7.253   8.779   5.225 -0.1005 -1.0086  0.2781
  995SOL    HW2 3979   7.107   8.815   5.235 -0.1838 -0.6821 -1.6027
  995SOL     MW 3980   7.173   8.764   5.256 -0.3835 -0.3983 -0.1242
  996SOL     OW 3981   6.836   9.544   9.541 -0.2003 -0.0560 -0.2143
  996SOL    HW1 3982   6.825   9.591   9.624  0.9501  1.1939 -0.7298
  996SOL    HW2 3983   6.747   9.525   9.512 -0.6204 -0.6651  1.3697
  996SOL     MW 3984   6.823   9.548   9.548 -0.1020  0.0303 -0.0705
  997SOL     OW 3985   7.114   8.409   4.232 -0.2306  0.0926  0.0588
  997SOL    HW1 3986   7.195   8.400   4.183  1.1351  0.1755  2.1660
  997SOL    HW2 3987   7.130   8.481   4.292 -2.5829  1.3661 -0.7027
  997SOL     MW 3988   7.127   8.417   4.233 -0.3633  0.2751  0.2399
  998SOL     OW 3989   5.057   1.833   7.996  0.5596 -0.1993 -0.4045
  998SOL    HW1 3990   5.050   1.914   8.046 -1.2424 -1.3421  1.3368
  998SOL    HW2 3991   5.064   1.861   7.905  2.0690  1.9206  0.3128
  998SOL     MW 3992   5.057   1.847   7.990  0.5202 -0.0678 -0.0736
  999SOL     OW 3993   4.448   9.743   9.979 -0.3093  0.2113  0.0009
  999SOL    HW1 3994   4.527   9.730   9.926 -0.8784 -0.6186 -0.6494
  999SOL    HW2 3995   4.416   9.655   9.997 -0.1012  0.4578  1.7980
  999SOL     MW 3996   4.455   9.729   9.974 -0.3579  0.1328  0.1553
 1000SOL     OW 3997   5.976   8.864   7.942  0.0634  0.0642  0.1486
 1000SOL    HW1 3998   5.974   8.907   8.027 -1.5732  1.5778 -0.5813
 1000SOL    HW2 3999   5.914   8.791   7.950 -1.0328  0.9360 -0.0496
 1000SOL     MW 4000   5.967   8.860   7.954 -0.3044  0.3852  0.0237
 1001SOL     OW 4001   6.080   1.639   8.465 -0.3899 -0.0961  0.1286
 1001SOL    HW1 4002   6.128   1.671   8.542  0.8732 -0.9144 -0.2909
 1001SOL    HW2 4003   6.144   1.587   8.416 -1.5478 -0.7265 -0.7802
 1001SOL     MW 4004   6.095   1.636   8.469 -0.3757 -0.2911 -0.0502
 1002SOL     OW 4005   4.322   9.422   9.049  0.1771  0.1371  0.0139
 1002SOL    HW1 4006   4.275   9.487   9.102 -0.3481  1.1760 -1.6609
 1002SOL    HW2 4007   4.322   9.343   9.104 -3.5235  0.0595  0.1910
 1002SOL     MW 4008   4.316   9.420   9.064 -0.3916  0.2665 -0.1877
 1003SOL     OW 4009   5.000   1.285   5.059  0.0888 -0.0935  0.1440
 1003SOL    HW1 4010   4.920   1.323   5.096 -0.9032  0.5915 -2.4991
 1003SOL    HW2 4011   4.969   1.219   4.997  1.6488 -0.7325 -0.0038
 1003SOL     MW 4012   4.985   1.281   5.056  0.1652 -0.0873 -0.2316
 1004SOL     OW 4013   4.493   8.509   8.047  0.4463  0.0912 -0.4142
 1004SOL    HW1 4014   4.463   8.532   8.135  1.5512  1.6179 -0.3924
 1004SOL    HW2 4015   4.579   8.551   8.040  0.6877 -0.6175 -1.9684
 1004SOL     MW 4016   4.501   8.518   8.058  0.6275  0.2013 -0.6204
 1005SOL     OW 4017   4.120   9.302   9.551 -0.4412 -0.2559 -0.0354
 1005SOL    HW1 4018   4.182   9.369   9.523 -2.5246  1.5713 -0.5753
 1005SOL    HW2 4019   4.079   9.338   9.629 -1.7852 -0.7732 -0.4713
 1005SOL     MW 4020   4.123   9.316   9.557 -0.9024 -0.0796 -0.1667
 1006SOL     OW 4021   3.777   8.725   2.992  0.1530  0.0950 -0.2177
 1006SOL    HW1 4022   3.734   8.676   3.062  0.0399  0.0602 -0.3091
 1006SOL    HW2 4023   3.715   8.795   2.971  0.7572  0.9087  0.6134
 1006SOL     MW 4024   3.763   8.728   2.999  0.2191  0.1999 -0.1181
 1007SOL     OW 4025   3.861   9.051   8.448  0.2812  0.0804  0.0291
 1007SOL    HW1 4026   3.880   9.139   8.415 -0.9328  0.0788 -0.7286
 1007SOL    HW2 4027   3.935   9.030   8.505  0.2192  1.9070  0.8437
 1007SOL     MW 4028   3.873   9.060   8.451  0.1095  0.3260  0.0368
 1008SOL     OW 4029   8.002   9.713   7.458 -0.0495 -0.2971  0.1856
 1008SOL    HW1 4030   8.059   9.790   7.465 -2.6829  1.9208 -0.8586
 1008SOL    HW2 4031   7.941   9.722   7.530 -1.2328 -0.6153 -0.7517
 1008SOL     MW 4032   8.002   9.725   7.469 -0.5632 -0.0414 -0.0810
 1009SOL     OW 4033   3.686   0.163   6.091 -0.4755 -0.2659 -0.2033
 1009SOL    HW1 4034   3.664   0.224   6.021 -2.4865 -0.1341  0.4677
 1009SOL    HW2 4035   3.770   0.126   6.066 -0.3521  1.0104 -1.8228
 1009SOL     MW 4036   3.695   0.166   6.078 -0.7295 -0.0764 -0.3310
 1010SOL     OW 4037   4.652   8.953   9.327  0.2690  0.5378 -0.3984
 1010SOL    HW1 4038   4.687   8.864   9.323  0.5134  0.6723 -1.6262
 1010SOL    HW2 4039   4.557   8.940   9.337  0.3127  0.1378 -0.4659
 1010SOL     MW 4040   4.644   8.939   9.327  0.3078  0.5020 -0.5727
 1011SOL     OW 4041   4.850   7.857   3.194 -0.1217 -0.1772  0.2120
 1011SOL    HW1 4042   4.908   7.898   3.258  1.2252 -0.6814 -0.6435
 1011SOL    HW2 4043   4.851   7.764   3.216 -1.8785 -0.0179  1.1459
 1011SOL     MW 4044   4.858   7.850   3.205 -0.1769 -0.2236  0.2226
 1012SOL     OW 4045   6.868   0.648   8.527 -0.1859  0.6102  0.0124
 1012SOL    HW1 4046   6.839   0.683   8.611 -0.4123  2.2529 -0.7106
 1012SOL    HW2 4047   6.813   0.570   8.514 -1.2117  1.1883  0.7016
 1012SOL     MW 4048   6.857   0.642   8.537 -0.3544  0.9091  0.0079
 1013SOL     OW 4049   7.574   1.090   4.810 -0.0366  0.4714  0.2240
 1013SOL    HW1 4050   7.491   1.065   4.769  0.0825 -1.1194  0.8851
 1013SOL    HW2 4051   7.548   1.137   4.890 -0.4088 -1.9451  1.6196
 1013SOL     MW 4052   7.559   1.093   4.816 -0.0707 -0.0679  0.5008
 1014SOL     OW 4053   7.003   0.880   6.446  0.0153  0.3435  0.0105
 1014SOL    HW1 4054   6.947   0.803   6.438  1.2550 -0.5460 -0.4327
 1014SOL    HW2 4055   7.082   0.857   6.398  1.1262  1.2185  1.3517
 1014SOL     MW 4056   7.006   0.867   6.438  0.3316  0.3415  0.1313
 1015SOL     OW 4057   5.376   8.152   6.966 -0.2267  0.6324  0.6643
 1015SOL    HW1 4058   5.367   8.102   6.885  1.2779  0.6260  0.4740
 1015SOL    HW2 4059   5.352   8.089   7.035  2.5632 -0.7719  0.5053
 1015SOL     MW 4060   5.372   8.137   6.965  0.3512  0.4426  0.6173
 1016SOL     OW 4061   4.972   7.502   5.469  0.3604 -0.2594  0.0906
 1016SOL    HW1 4062   4.961   7.534   5.380  1.2615 -0.3536 -0.0679
 1016SOL    HW2 4063   4.888   7.464   5.492  0.2720 -0.6871 -0.9108
 1016SOL     MW 4064   4.959   7.501   5.461  0.4698 -0.3296 -0.0655
 1017SOL     OW 4065   7.190   9.459   0.538 -0.5057 -0.0504 -0.5651
 1017SOL    HW1 4066   7.277   9.486   0.511  0.0400 -0.8488  0.3392
 1017SOL    HW2 4067   7.153   9.537   0.580 -0.0326  0.1510 -0.5135
 1017SOL     MW 4068   7.197   9.473   0.540 -0.3686 -0.1307 -0.4365
 1018SOL     OW 4069   7.428   8.805   9.909  0.3656  0.4262  0.2181
 1018SOL    HW1 4070   7.370   8.787   9.983 -0.6608  1.4069 -0.3184
 1018SOL    HW2 4071   7.382   8.770   9.833  0.9597  0.3014 -0.0920
 1018SOL     MW 4072   7.414   8.798   9.909  0.3074  0.5414  0.1041
 1019SOL     OW 4073   6.935   8.814   4.349  0.5442 -0.0705 -0.3948
 1019SOL    HW1 4074   6.859   8.824   4.406 -0.1455  0.1961 -1.3265
 1019SOL    HW2 4075   6.900   8.776   4.268  1.2520  0.8330 -1.1549
 1019SOL     MW 4076   6.920   8.810   4.346  0.5467  0.0870 -0.6225
 1020SOL     OW 4077   7.736   8.670   7.598  0.1659 -0.8739 -0.3902
 1020SOL    HW1 4078   7.710   8.579   7.611  1.3654 -1.3572 -1.2385
 1020SOL    HW2 4079   7.704   8.692   7.510 -3.3148  0.7253  1.0720
 1020SOL     MW 4080   7.728   8.661   7.588 -0.1411 -0.7237 -0.3075
 1021SOL     OW 4081   5.820   9.492   8.691  0.4147  0.0431  0.1116
 1021SOL    HW1 4082   5.868   9.572   8.671  0.7544  0.0561  0.9550
 1021SOL    HW2 4083   5.728   9.520   8.697  0.0734 -0.1647 -2.5822
 1021SOL     MW 4084   5.814   9.506   8.689  0.4145  0.0169 -0.1374
 1022SOL     OW 4085   6.676   7.815   0.828  0.6033 -0.2909 -0.0497
 1022SOL    HW1 4086   6.631   7.742   0.786 -1.7171  1.4832 -0.8629
 1022SOL    HW2 4087   6.621   7.835   0.904  0.5177  1.3062 -0.5034
 1022SOL     MW 4088   6.662   7.808   0.833  0.2795  0.1628 -0.2202
 1023SOL     OW 4089   5.040   0.012   8.766  0.2963  0.1064  0.2055
 1023SOL    HW1 4090   4.962  -0.002   8.820  0.5819  0.6316  0.7618
 1023SOL    HW2 4091   5.113  -0.011   8.824  0.5740 -0.0962 -0.2190
 1023SOL     MW 4092   5.040   0.007   8.781  0.3721  0.1498  0.2232
 1024SOL     OW 4093   4.916  10.111   0.240 -0.1162  0.4493 -0.2392
 1024SOL    HW1 4094   4.955  10.134   0.156  1.6084  0.9066  0.6332
 1024SOL    HW2 4095   4.912  10.015   0.239 -2.9137  0.4800 -1.9904
 1024SOL     MW 4096   4.921  10.101   0.229 -0.2606  0.5150 -0.3574
 1025SOL     OW 4097   4.661   0.692   5.516  0.3901  0.1263 -0.5328
 1025SOL    HW1 4098   4.683   0.730   5.601  0.0761  1.0672 -0.8682
 1025SOL    HW2 4099   4.746   0.671   5.478  0.5395 -2.9014  1.1102
 1025SOL     MW 4100   4.676   0.694   5.523  0.3679 -0.1545 -0.3568
 1026SOL     OW 4101   4.743   8.994   3.282 -0.0975  0.0768  0.0623
 1026SOL    HW1 4102   4.673   9.060   3.280  0.2585  0.4559 -0.1559
 1026SOL    HW2 4103   4.809   9.031   3.341  0.8075  0.6594 -1.2666
 1026SOL     MW 4104   4.742   9.008   3.289  0.0722  0.2062 -0.1459
 1027SOL     OW 4105   5.679   8.034   4.941  0.5464 -0.2349 -0.2386
 1027SOL    HW1 4106   5.700   8.086   5.019 -1.7423  1.9045 -0.9070
 1027SOL    HW2 4107   5.620   8.089   4.891 -0.5385 -2.7986 -2.0040
 1027SOL     MW 4108   5.674   8.048   4.945  0.0924 -0.2920 -0.5662
 1028SOL     OW 4109   8.027   9.842   8.311  0.0354 -0.0893 -0.2231
 1028SOL    HW1 4110   8.069   9.839   8.225 -1.1456  0.5931 -0.8413
 1028SOL    HW2 4111   7.992   9.754   8.325 -0.8846  0.1337 -1.0269
 1028SOL     MW 4112   8.028   9.830   8.301 -0.2473  0.0326 -0.4145
 1029SOL     OW 4113   6.371   0.951   4.777  0.3791  0.3119 -0.0109
 1029SOL    HW1 4114   6.347   0.952   4.870  0.0510  0.5013 -0.1001
 1029SOL    HW2 4115   6.467   0.953   4.778  0.5163 -2.1783  0.3973
 1029SOL     MW 4116   6.381   0.951   4.790  0.3534  0.0022  0.0320
 1030SOL     OW 4117   7.918  10.004   0.316  0.0347 -0.4164  0.1359
 1030SOL    HW1 4118   7.935  10.012   0.222  1.5266 -0.1552  0.3926
 1030SOL    HW2 4119   7.826  10.027   0.326 -0.5176 -1.7643 -1.4178
 1030SOL     MW 4120   7.908  10.009   0.304  0.1611 -0.5626 -0.0387
 1031SOL     OW 4121   5.201   9.034   9.771  0.2103  0.2247  0.1190
 1031SOL    HW1 4122   5.202   8.942   9.798  1.7504  0.4006  0.7755
 1031SOL    HW2 4123   5.114   9.065   9.794 -0.7185 -1.3186 -1.0766
 1031SOL     MW 4124   5.190   9.025   9.777  0.2926  0.0407  0.0465
 1032SOL     OW 4125   4.828   1.436   7.361  0.0831  0.3972  0.5622
 1032SOL    HW1 4126   4.777   1.407   7.286  1.9711 -1.3950 -0.1385
 1032SOL    HW2 4127   4.911   1.466   7.323  0.7957  0.1583  1.8499
 1032SOL     MW 4128   4.833   1.436   7.346  0.4331  0.1239  0.6412
 1033SOL     OW 4129   5.076   0.842   0.472 -0.2365 -0.2342  0.0088
 1033SOL    HW1 4130   5.148   0.861   0.412  1.0626  1.3092  1.9206
 1033SOL    HW2 4131   5.004   0.815   0.416  1.5864 -1.1074 -2.0463
 1033SOL     MW 4132   5.076   0.841   0.457  0.1837 -0.1440 -0.0105
 1034SOL     OW 4133   4.316   8.458   1.340 -0.6289 -0.2983 -0.2883
 1034SOL    HW1 4134   4.254   8.434   1.409  1.4972 -0.4269  1.7247
 1034SOL    HW2 4135   4.392   8.492   1.388  1.0591 -0.6344 -2.5802
 1034SOL     MW 4136   4.318   8.459   1.356 -0.1156 -0.3609 -0.3258
 1035SOL     OW 4137   5.075   0.301   4.488 -0.1572 -0.1811  0.4431
 1035SOL    HW1 4138   5.009   0.244   4.527 -0.9183 -0.5272 -1.2584
 1035SOL    HW2 4139   5.104   0.357   4.560 -0.4488 -1.7116  1.8114
 1035SOL     MW 4140   5.070   0.301   4.503 -0.2989 -0.4336  0.3983
 1036SOL     OW 4141   4.464   0.092   9.220 -0.2511 -0.1624 -0.2995
 1036SOL    HW1 4142   4.503   0.173   9.254 -1.6778  1.0899 -1.4711
 1036SOL    HW2 4143   4.514   0.022   9.261  1.3769  1.3159  0.3801
 1036SOL     MW 4144   4.476   0.093   9.230 -0.2240  0.2051 -0.3657
 1037SOL     OW 4145   4.366   9.575   0.616  0.4023 -1.0756  0.2214
 1037SOL    HW1 4146   4.451   9.619   0.615 -0.3542  0.4734  0.1917
 1037SOL    HW2 4147   4.382   9.492   0.660  1.7672 -0.4572  0.9596
 1037SOL     MW 4148   4.380   9.570   0.622  0.4842 -0.7839  0.3167
 1038SOL     OW 4149   6.551   9.076   0.991  0.1796  0.0212  0.1519
 1038SOL    HW1 4150   6.526   9.156   0.944 -0.3621 -0.1860  0.0867
 1038SOL    HW2 4151   6.619   9.105   1.052 -0.2291  0.5949  0.3460
 1038SOL     MW 4152   6.557   9.091   0.993  0.0517  0.0705  0.1692
 1039SOL     OW 4153   5.322   7.664   7.121 -0.5186 -0.2933 -0.7435
 1039SOL    HW1 4154   5.332   7.758   7.108 -0.1776 -0.2846 -0.4506
 1039SOL    HW2 4155   5.411   7.629   7.110 -0.8429 -0.7378 -2.0700
 1039SOL     MW 4156   5.335   7.672   7.118 -0.5163 -0.3519 -0.8826
 1040SOL     OW 4157   6.379   1.215   7.308  0.4366 -0.5480 -0.4144
 1040SOL    HW1 4158   6.468   1.186   7.291  1.1669 -0.9210  3.2224
 1040SOL    HW2 4159   6.388   1.309   7.327  0.1120 -0.6202  0.1211
 1040SOL     MW 4160   6.392   1.224   7.308  0.4912 -0.6079  0.1471
 1041SOL     OW 4161   7.967   0.138   8.548 -0.6507 -0.2492  0.1426
 1041SOL    HW1 4162   8.048   0.111   8.592  0.0276 -1.7176 -1.8638
 1041SOL    HW2 4163   7.971   0.095   8.462 -2.3575  1.7079 -0.9974
 1041SOL     MW 4164   7.979   0.129   8.542 -0.7891 -0.1835 -0.2809
 1042SOL     OW 4165   8.026   9.448   4.975  0.0421  0.4148 -0.3153
 1042SOL    HW1 4166   8.094   9.421   4.914  0.9423  0.2313  0.7272
 1042SOL    HW2 4167   8.073   9.491   5.046 -1.0086  1.0065  0.0548
 1042SOL     MW 4168   8.041   9.451   4.976  0.0219  0.4697 -0.1252
 1043SOL     OW 4169   6.372   9.289   2.118  0.1559  1.1045 -0.2032
 1043SOL    HW1 4170   6.389   9.206   2.073  2.0096  1.8182 -0.9037
 1043SOL    HW2 4171   6.428   9.286   2.196 -0.5818  1.2504  0.3379
 1043SOL     MW 4172   6.382   9.277   2.122  0.3061  1.2202 -0.2246
 1044SOL     OW 4173   7.540   1.077   4.121 -0.4629 -0.0765  0.6464
 1044SOL    HW1 4174   7.478   1.016   4.162  0.7872 -0.0663  2.6435
 1044SOL    HW2 4175   7.546   1.046   4.030 -1.9220 -1.2358  0.8933
 1044SOL     MW 4176   7.532   1.064   4.114 -0.4910 -0.2312  0.9484
 1045SOL     OW 4177   6.719   8.226   2.533 -0.1422 -0.1792  0.2705
 1045SOL    HW1 4178   6.748   8.243   2.443 -0.1470  0.0961  0.3206
 1045SOL    HW2 4179   6.626   8.248   2.532 -0.0469  0.2310  0.4509
 1045SOL     MW 4180   6.710   8.231   2.521 -0.1300 -0.0869  0.3015
 1046SOL     OW 4181   4.809   0.640   1.651  0.2989  0.1031  0.1626
 1046SOL    HW1 4182   4.754   0.677   1.583 -0.1178  0.5857  0.7519
 1046SOL    HW2 4183   4.881   0.598   1.603  0.4507  1.1233 -0.5559
 1046SOL     MW 4184   4.811   0.639   1.635  0.2633  0.3053  0.1452
 1047SOL     OW 4185   5.039   1.175   0.181 -0.3943  0.1364 -0.8736
 1047SOL    HW1 4186   4.958   1.126   0.191 -0.9352  0.7582 -1.9656
 1047SOL    HW2 4187   5.016   1.265   0.206  0.2720  0.0951 -0.0574
 1047SOL     MW 4188   5.025   1.181   0.186 -0.3774  0.2145 -0.9107
 1048SOL     OW 4189   4.459   0.038   6.551  0.1065 -0.0033  0.1508
 1048SOL    HW1 4190   4.476   0.132   6.544  0.2991 -0.0199  0.3806
 1048SOL    HW2 4191   4.525  -0.003   6.494 -1.3128  0.0991 -1.6609
 1048SOL     MW 4192   4.470   0.045   6.543 -0.0586  0.0082 -0.0621
 1049SOL     OW 4193   4.313   8.311   4.238  0.4349 -0.1754 -0.8875
 1049SOL    HW1 4194   4.231   8.349   4.271  0.2633 -0.2472 -1.2234
 1049SOL    HW2 4195   4.302   8.310   4.143  0.0398 -1.9233 -0.8545
 1049SOL     MW 4196   4.300   8.316   4.230  0.3587 -0.4203 -0.9282
 1050SOL     OW 4197   6.931   0.925   9.645 -0.7475  0.4431  0.3307
 1050SOL    HW1 4198   6.950   0.854   9.585 -0.5512  1.4758 -0.8866
 1050SOL    HW2 4199   6.838   0.914   9.667 -0.6880 -0.2409  0.2406
 1050SOL     MW 4200   6.921   0.914   9.640 -0.7130  0.4900  0.1548
 1051SOL     OW 4201   5.130   7.925   8.080  0.0526  0.0179 -0.2542
 1051SOL    HW1 4202   5.202   7.975   8.119  1.2327 -0.8991 -1.1792
 1051SOL    HW2 4203   5.119   7.850   8.138 -0.0427  0.0778 -0.1959
 1051SOL     MW 4204   5.138   7.922   8.093  0.1986 -0.0974 -0.3708
 1052SOL     OW 4205   5.646   1.214   2.239 -0.0569 -0.7825 -0.0253
 1052SOL    HW1 4206   5.638   1.281   2.307 -0.5762 -0.9443  0.0809
 1052SOL    HW2 4207   5.567   1.224   2.186  1.1501  0.4891 -1.6748
 1052SOL     MW 4208   5.634   1.224   2.241  0.0356 -0.6332 -0.2330
 1053SOL     OW 4209   6.198   0.794   3.544  0.2355 -0.4217 -0.1285
 1053SOL    HW1 4210   6.195   0.846   3.463  0.6265  2.1314  1.3927
 1053SOL    HW2 4211   6.275   0.826   3.590 -1.0880 -0.3730  2.1599
 1053SOL     MW 4212   6.208   0.805   3.539  0.1100 -0.0715  0.3842
 1054SOL     OW 4213   7.206   9.706   2.346  0.2602 -0.1432  0.7840
 1054SOL    HW1 4214   7.139   9.771   2.323  0.8468  0.6408  1.2390
 1054SOL    HW2 4215   7.159   9.623   2.347 -0.5025  0.2633  0.1568
 1054SOL     MW 4216   7.190   9.704   2.343  0.2365  0.0170  0.7608
 1055SOL     OW 4217   6.608   1.530   0.953 -0.6572 -0.2540  0.4172
 1055SOL    HW1 4218   6.523   1.487   0.954 -0.8771  0.1137 -0.8179
 1055SOL    HW2 4219   6.672   1.459   0.946 -0.8825 -0.5048  0.8901
 1055SOL     MW 4220   6.606   1.515   0.952 -0.7171 -0.2382  0.3146
 1056SOL     OW 4221   8.149   9.279   1.131  0.3429  0.0190  0.5538
 1056SOL    HW1 4222   8.107   9.312   1.052  0.8826  0.9179  0.6234
 1056SOL    HW2 4223   8.242   9.296   1.118  0.5948 -1.0916  0.7977
 1056SOL     MW 4224   8.156   9.286   1.119  0.4495 -0.0095  0.5960
 1057SOL     OW 4225   5.388   1.302   7.210  0.2793 -0.1632 -0.1275
 1057SOL    HW1 4226   5.428   1.386   7.187  1.0829 -0.1603  1.1916
 1057SOL    HW2 4227   5.400   1.295   7.304 -2.4442 -0.4024  0.2813
 1057SOL     MW 4228   5.395   1.313   7.219  0.0209 -0.1950  0.1051
 1058SOL     OW 4229   5.251   1.125   1.657 -0.1738  0.0190 -0.1165
 1058SOL    HW1 4230   5.289   1.068   1.590 -0.5393 -0.1016 -0.2239
 1058SOL    HW2 4231   5.171   1.080   1.684  0.7621 -0.7739  1.5714
 1058SOL     MW 4232   5.245   1.111   1.652 -0.0970 -0.1040  0.0962
 1059SOL     OW 4233   4.506   9.987   0.988  0.7662 -0.1533  0.6474
 1059SOL    HW1 4234   4.413   9.968   0.974  0.3852  1.3122  0.9492
 1059SOL    HW2 4235   4.506  10.054   1.057  1.7962  2.4049 -1.6613
 1059SOL     MW 4236   4.493   9.994   0.995  0.8536  0.3882  0.3773
 1060SOL     OW 4237   6.071   1.791   0.269 -0.4557  0.5906 -0.1712
 1060SOL    HW1 4238   6.073   1.770   0.176 -0.5715  0.2777 -0.1026
 1060SOL    HW2 4239   6.162   1.787   0.297  0.1152  4.2030 -1.0503
 1060SOL     MW 4240   6.084   1.788   0.261 -0.3945  1.0346 -0.2803
 1061SOL     OW 4241   8.221   0.019   5.546  0.2923 -0.2519 -0.3506
 1061SOL    HW1 4242   8.204  -0.010   5.456 -0.0127  1.0759 -0.7360
 1061SOL    HW2 4243   8.227   0.114   5.541  4.0816 -0.2895  0.4065
 1061SOL     MW 4244   8.219   0.028   5.534  0.7612 -0.0783 -0.3006
 1062SOL     OW 4245   7.666   9.205   9.444 -0.0789  0.1763 -0.2823
 1062SOL    HW1 4246   7.600   9.270   9.468 -1.4283 -0.9114 -0.9147
 1062SOL    HW2 4247   7.687   9.226   9.353 -0.8832 -0.5469 -0.6465
 1062SOL     MW 4248   7.660   9.217   9.435 -0.3687 -0.0674 -0.4164
 1063SOL     OW 4249   5.902   7.674   9.622 -0.2896  0.0673 -0.8376
 1063SOL    HW1 4250   5.912   7.768   9.608  4.7308 -0.4070 -2.3999
 1063SOL    HW2 4251   5.869   7.641   9.539  0.1583  0.2738 -1.1043
 1063SOL     MW 4252   5.899   7.683   9.609  0.4463  0.0313 -1.0837
 1064SOL     OW 4253   5.675   0.743   8.607 -0.1187  0.8703  0.1448
 1064SOL    HW1 4254   5.633   0.800   8.671  0.3315 -0.4495  1.6901
 1064SOL    HW2 4255   5.605   0.718   8.547 -1.6347 -1.1403  2.5650
 1064SOL     MW 4256   5.660   0.747   8.608 -0.2621  0.4221  0.6784
 1065SOL     OW 4257   5.449  10.029   6.181  0.1887  0.0475  0.2769
 1065SOL    HW1 4258   5.493   9.991   6.257  0.9398  0.6598  0.1662
 1065SOL    HW2 4259   5.455   9.963   6.113 -0.6397 -0.5756  0.7880
 1065SOL     MW 4260   5.456  10.015   6.182  0.1783  0.0460  0.3308
 1066SOL     OW 4261   6.051   7.573   7.808  0.4775  0.3304 -0.0484
 1066SOL    HW1 4262   6.092   7.640   7.752  0.2076 -0.0098 -0.6693
 1066SOL    HW2 4263   6.035   7.499   7.748 -0.3878  0.1927  0.3478
 1066SOL     MW 4264   6.055   7.572   7.792  0.3248  0.2661 -0.0787
 1067SOL     OW 4265   4.577  10.047   9.376  0.2906 -0.0362 -0.0722
 1067SOL    HW1 4266   4.669  10.075   9.378  0.2575  0.0407  0.5929
 1067SOL    HW2 4267   4.581   9.955   9.349  0.7663 -0.7187  2.0597
 1067SOL     MW 4268   4.590  10.038   9.373  0.3501 -0.1177  0.3042
 1068SOL     OW 4269   4.389   9.141   7.411 -0.4860  0.6142  0.3130
 1068SOL    HW1 4270   4.346   9.099   7.486 -2.1868  2.6367  0.5547
 1068SOL    HW2 4271   4.339   9.221   7.397  1.5747  1.7098 -1.2045
 1068SOL     MW 4272   4.376   9.146   7.420 -0.4376  1.0339  0.1413
 1069SOL     OW 4273   7.319   9.973   0.779  0.0348 -0.6605  0.3000
 1069SOL    HW1 4274   7.378   9.957   0.852  0.8260 -0.8240 -0.3613
 1069SOL    HW2 4275   7.334  10.065   0.755 -0.3599 -0.5520  0.4556
 1069SOL     MW 4276   7.329   9.983   0.785  0.0881 -0.6679  0.2320
 1070SOL     OW 4277   5.883   9.809   0.397  0.0076  0.3787 -0.3984
 1070SOL    HW1 4278   5.928   9.889   0.427  1.9680  0.1893 -2.5651
 1070SOL    HW2 4279   5.802   9.841   0.358  0.0803  1.1544  0.0487
 1070SOL     MW 4280   5.878   9.824   0.396  0.2812  0.4576 -0.6298
 1071SOL     OW 4281   7.541   0.818   3.119 -0.3224 -0.1992 -0.2821
 1071SOL    HW1 4282   7.500   0.737   3.090 -0.0117 -0.9998  1.4114
 1071SOL    HW2 4283   7.469   0.874   3.146 -0.4446 -0.6311  0.2959
 1071SOL     MW 4284   7.526   0.815   3.119 -0.2970 -0.3650  0.0236
 1072SOL     OW 4285   6.952   8.273   7.049 -0.0265  0.0061 -0.1400
 1072SOL    HW1 4286   6.912   8.351   7.088  1.5452  2.1566 -2.5838
 1072SOL    HW2 4287   7.036   8.265   7.094  0.1093  0.1154 -0.3782
 1072SOL     MW 4288   6.958   8.282   7.060  0.2033  0.3102 -0.5010
 1073SOL     OW 4289   7.617   9.383   2.724  0.2524 -0.0931  0.5689
 1073SOL    HW1 4290   7.673   9.461   2.723 -1.1409  0.9545  0.7629
 1073SOL    HW2 4291   7.547   9.404   2.663 -0.0071 -1.3308  0.4155
 1073SOL     MW 4292   7.615   9.396   2.715  0.0300 -0.1187  0.5744
 1074SOL     OW 4293   4.069   0.889   0.703  0.5884  0.2131 -0.0427
 1074SOL    HW1 4294   4.064   0.938   0.621  1.9684  3.3586  1.5548
 1074SOL    HW2 4295   3.978   0.883   0.733  0.2470  0.5754 -0.9732
 1074SOL     MW 4296   4.056   0.895   0.696  0.7282  0.6852  0.0470
 1075SOL     OW 4297   4.107   9.725   8.106  0.1834 -0.0884 -0.0255
 1075SOL    HW1 4298   4.022   9.718   8.149  0.8613  1.4004  1.6854
 1075SOL    HW2 4299   4.169   9.691   8.170  1.2451  2.2739  0.3111
 1075SOL     MW 4300   4.104   9.719   8.120  0.4175  0.4299  0.2501
 1076SOL     OW 4301   6.877   0.836   9.329 -0.0212  0.4202  0.1330
 1076SOL    HW1 4302   6.827   0.907   9.370 -0.1300  0.9066 -0.7986
 1076SOL    HW2 4303   6.951   0.880   9.287  1.2894 -0.3089  1.5819
 1076SOL     MW 4304   6.880   0.852   9.329  0.1405  0.3876  0.2026
 1077SOL     OW 4305   7.086   9.002   2.851 -0.5887 -0.1456  0.1633
 1077SOL    HW1 4306   7.133   9.027   2.771 -0.4135  0.0795  0.3385
 1077SOL    HW2 4307   7.037   8.924   2.826  0.8148 -1.1053  0.3030
 1077SOL     MW 4308   7.086   8.995   2.837 -0.3762 -0.2444  0.2057
 1078SOL     OW 4309   5.513   0.779   3.407 -0.6481  0.2713  0.0019
 1078SOL    HW1 4310   5.438   0.723   3.429  0.0063 -0.7237 -0.2231
 1078SOL    HW2 4311   5.575   0.765   3.478 -0.9724  1.6998  0.5980
 1078SOL     MW 4312   5.511   0.769   3.420 -0.6037  0.3296  0.0519
 1079SOL     OW 4313   5.280  10.094   2.494  0.0925  0.0734  0.0155
 1079SOL    HW1 4314   5.210  10.069   2.434  0.3664  0.3611 -0.4267
 1079SOL    HW2 4315   5.316  10.174   2.457  2.1546 -1.2636 -1.0133
 1079SOL     MW 4316   5.275  10.102   2.481  0.4069 -0.0679 -0.1825
 1080SOL     OW 4317   5.203   1.372   3.345 -0.1060  0.0496 -0.8618
 1080SOL    HW1 4318   5.191   1.435   3.274 -1.5691  0.5454 -0.2127
 1080SOL    HW2 4319   5.128   1.386   3.402  1.2498 -0.0135  1.0350
 1080SOL     MW 4320   5.191   1.383   3.343 -0.1204  0.1078 -0.5191
 1081SOL     OW 4321   6.191   0.285   0.245 -0.2316 -0.3441 -0.3033
 1081SOL    HW1 4322   6.112   0.306   0.295  0.3335 -0.8934  0.8498
 1081SOL    HW2 4323   6.234   0.216   0.295  0.5271 -0.6902 -1.3924
 1081SOL     MW 4324   6.187   0.279   0.258 -0.0535 -0.4646 -0.2947
 1082SOL     OW 4325   6.807   8.630   3.535 -0.3204 -0.2985  0.3025
 1082SOL    HW1 4326   6.875   8.626   3.603  1.7795  0.6683 -1.6208
 1082SOL    HW2 4327   6.811   8.720   3.503 -0.3804 -1.0319 -1.9097
 1082SOL     MW 4328   6.817   8.641   3.540 -0.0458 -0.2671 -0.2540
 1083SOL     OW 4329   6.727   9.595   8.714 -0.3446  0.5906 -0.1916
 1083SOL    HW1 4330   6.760   9.559   8.631 -1.4472  1.3259 -0.9865
 1083SOL    HW2 4331   6.784   9.557   8.781 -0.2055 -1.0360 -1.1583
 1083SOL     MW 4332   6.739   9.585   8.712 -0.4743  0.4706 -0.4287
 1084SOL     OW 4333   5.406   1.122   4.256  0.2177 -0.0289  0.1206
 1084SOL    HW1 4334   5.410   1.202   4.203  0.4008  1.0116  1.6338
 1084SOL    HW2 4335   5.497   1.094   4.264  0.1914 -0.1773 -0.0932
 1084SOL     MW 4336   5.419   1.129   4.250  0.2388  0.0911  0.2954
 1085SOL     OW 4337   5.228  10.094   1.089 -0.1976  0.1347 -0.2914
 1085SOL    HW1 4338   5.196  10.027   1.149 -0.5854 -0.6309 -1.3180
 1085SOL    HW2 4339   5.206  10.177   1.131 -1.1779 -0.3794  0.2338
 1085SOL     MW 4340   5.221  10.096   1.103 -0.3817 -0.0375 -0.3589
 1086SOL     OW 4341   7.516   9.875   0.942  0.1105 -0.5744 -0.4587
 1086SOL    HW1 4342   7.574   9.870   1.018  0.3747 -1.7973 -0.7250
 1086SOL    HW2 4343   7.575   9.881   0.867 -0.1470  0.3704 -0.6047
 1086SOL     MW 4344   7.532   9.875   0.942  0.1114 -0.6118 -0.5142
 1087SOL     OW 4345   5.345   8.968   5.402  0.2810 -0.3043 -0.3568
 1087SOL    HW1 4346   5.299   8.902   5.350  0.9108 -1.1148  0.1006
 1087SOL    HW2 4347   5.385   9.026   5.338  2.4499 -2.2464 -0.8606
 1087SOL     MW 4348   5.344   8.967   5.387  0.6577 -0.6748 -0.3631
 1088SOL     OW 4349   4.946   1.213   7.043 -0.2402 -0.1119  0.2345
 1088SOL    HW1 4350   4.896   1.132   7.047 -3.0888  1.5572  1.1478
 1088SOL    HW2 4351   4.927   1.248   6.956  0.3718 -0.0406  0.1265
 1088SOL     MW 4352   4.937   1.207   7.031 -0.5412  0.1223  0.3428
 1089SOL     OW 4353   4.874   1.214   8.332 -0.1482 -0.2029 -0.3878
 1089SOL    HW1 4354   4.835   1.180   8.252 -1.4634 -0.8640  0.4892
 1089SOL    HW2 4355   4.819   1.289   8.356 -0.6118 -0.8294  0.5874
 1089SOL     MW 4356   4.861   1.219   8.325 -0.3876 -0.3762 -0.1385
 1090SOL     OW 4357   6.981  10.133   7.220  0.5266 -0.1552 -0.4309
 1090SOL    HW1 4358   7.064  10.135   7.268  0.6788  1.4609 -0.7010
 1090SOL    HW2 4359   6.916  10.103   7.284  0.7191  1.9652  0.8586
 1090SOL     MW 4360   6.983  10.130   7.235  0.5730  0.3476 -0.2937
 1091SOL     OW 4361   4.314   7.816   6.372  0.1075  0.2733 -0.1532
 1091SOL    HW1 4362   4.353   7.743   6.419 -1.4559 -0.3127  0.2613
 1091SOL    HW2 4363   4.358   7.816   6.287  1.1872 -0.1868  0.3882
 1091SOL     MW 4364   4.326   7.806   6.367  0.0424  0.1325 -0.0245
 1092SOL     OW 4365   7.748   9.052   7.358  0.2953  0.1560  0.2856
 1092SOL    HW1 4366   7.803   9.082   7.286 -0.4761  0.1951 -0.3032
 1092SOL    HW2 4367   7.666   9.099   7.346  1.0026  2.2720  2.7524
 1092SOL     MW 4368   7.744   9.062   7.347  0.2866  0.4461  0.5384
 1093SOL     OW 4369   6.171   0.977   5.375  0.8561 -0.1912 -0.0741
 1093SOL    HW1 4370   6.171   0.882   5.362 -0.8354 -0.2789  0.3212
 1093SOL    HW2 4371   6.133   0.989   5.462  0.5342  0.8696 -0.3471
 1093SOL     MW 4372   6.165   0.966   5.385  0.5852 -0.0603 -0.0576
 1094SOL     OW 4373   7.138  10.156   2.001 -0.1388 -0.1804  0.2965
 1094SOL    HW1 4374   7.232  10.146   2.017  0.1722  0.5632 -1.0047
 1094SOL    HW2 4375   7.120  10.099   1.926 -0.8254 -0.6282  0.7787
 1094SOL     MW 4376   7.148  10.147   1.993 -0.1894 -0.1406  0.1863
 1095SOL     OW 4377   6.243  10.013   0.665  0.1323 -0.5996 -0.1182
 1095SOL    HW1 4378   6.211   9.945   0.724  0.9192  0.0936  1.1436
 1095SOL    HW2 4379   6.325   9.979   0.631  0.2753 -0.4990  0.1235
 1095SOL     MW 4380   6.249   9.999   0.668  0.2574 -0.4928  0.0842
 1096SOL     OW 4381   4.399   9.473   1.799  0.5399  0.4804  0.1920
 1096SOL    HW1 4382   4.383   9.543   1.736  0.9360 -0.2375 -0.7292
 1096SOL    HW2 4383   4.494   9.466   1.803  0.5139  0.4579  0.8113
 1096SOL     MW 4384   4.410   9.481   1.791  0.5897  0.3808  0.1513
 1097SOL     OW 4385   4.646  10.128   0.133  0.3328 -0.1281 -0.7702
 1097SOL    HW1 4386   4.644  10.032   0.135  0.0637 -0.1455 -1.5824
 1097SOL    HW2 4387   4.727  10.151   0.178  0.8165 -0.7627 -1.3069
 1097SOL     MW 4388   4.656  10.118   0.139  0.3617 -0.2158 -0.9517
 1098SOL     OW 4389   6.526   9.488   8.026 -0.1817 -0.1352  0.4019
 1098SOL    HW1 4390   6.611   9.503   7.985  0.3771 -0.0688  1.5437
 1098SOL    HW2 4391   6.513   9.394   8.022 -0.5413 -0.0536 -0.6864
 1098SOL     MW 4392   6.536   9.478   8.020 -0.1549 -0.1153  0.4091
 1099SOL     OW 4393   4.971   0.576   3.698  0.0469  0.3482  0.0440
 1099SOL    HW1 4394   4.928   0.662   3.700  1.2502  0.9513  1.2276
 1099SOL    HW2 4395   4.927   0.530   3.627 -0.0759  2.2214 -1.1734
 1099SOL     MW 4396   4.959   0.582   3.689  0.1923  0.6815  0.0395
 1100SOL     OW 4397   4.481   8.200   2.196  0.2307 -0.1249 -0.0820
 1100SOL    HW1 4398   4.560   8.236   2.155 -0.4041  1.8696  0.3602
 1100SOL    HW2 4399   4.422   8.184   2.122  0.6426 -0.6471 -0.3117
 1100SOL     MW 4400   4.484   8.203   2.180  0.2007  0.0732 -0.0534
 1101SOL     OW 4401   5.539   1.305   2.835 -0.4972 -0.4472  0.2096
 1101SOL    HW1 4402   5.609   1.327   2.897 -1.2441  0.6936  0.6829
 1101SOL    HW2 4403   5.543   1.210   2.827  0.8657 -0.4318  0.5039
 1101SOL     MW 4404   5.549   1.295   2.842 -0.4143 -0.2916  0.3129
 1102SOL     OW 4405   7.784   0.904   2.167  0.0369  0.1177 -0.0927
 1102SOL    HW1 4406   7.822   0.841   2.106  0.1256  1.6946 -1.7748
 1102SOL    HW2 4407   7.772   0.855   2.248  0.0802 -2.0265 -1.3077
 1102SOL     MW 4408   7.788   0.889   2.169  0.0547  0.0414 -0.4826
 1103SOL     OW 4409   5.741   8.127   9.478  0.2470  0.9368  0.6875
 1103SOL    HW1 4410   5.800   8.125   9.553  1.5339  1.4113 -0.2611
 1103SOL    HW2 4411   5.792   8.086   9.407 -1.3269 -0.4998  0.3256
 1103SOL     MW 4412   5.756   8.121   9.478  0.2084  0.8073  0.5111
 1104SOL     OW 4413   5.609   0.616   9.288  0.5199 -0.0680  0.6766
 1104SOL    HW1 4414   5.572   0.625   9.376  1.3249  0.9644  0.9285
 1104SOL    HW2 4415   5.555   0.675   9.234  0.1024 -0.6099  0.4969
 1104SOL     MW 4416   5.597   0.625   9.292  0.5721 -0.0020  0.6863
 1105SOL     OW 4417   7.888   8.732   4.145 -0.1018  0.0991 -0.0139
 1105SOL    HW1 4418   7.949   8.711   4.216 -0.1881  0.2502  0.1043
 1105SOL    HW2 4419   7.914   8.819   4.115 -0.9893  0.6541  0.8121
 1105SOL     MW 4420   7.900   8.741   4.150 -0.2328  0.1941  0.1132
 1106SOL     OW 4421   4.423   9.346   8.354  0.3271 -0.3550  0.2591
 1106SOL    HW1 4422   4.382   9.267   8.388  0.7741 -0.6007  0.2455
 1106SOL    HW2 4423   4.399   9.415   8.415 -1.7105 -0.0798 -0.7838
 1106SOL     MW 4424   4.415   9.345   8.367  0.1131 -0.3510  0.1169
 1107SOL     OW 4425   4.649   0.709   8.992  0.2921 -0.4417  0.2380
 1107SOL    HW1 4426   4.724   0.670   8.947  0.4637 -1.1466  1.1187
 1107SOL    HW2 4427   4.574   0.658   8.961  0.1460  0.2758 -0.6579
 1107SOL     MW 4428   4.649   0.697   8.982  0.2955 -0.4400  0.2360
 1108SOL     OW 4429   6.840   8.957   7.722 -0.7014  0.3260  0.6229
 1108SOL    HW1 4430   6.898   8.915   7.659  0.9595  2.3048  0.6970
 1108SOL    HW2 4431   6.875   8.931   7.808  0.3967  1.7827  0.6697
 1108SOL     MW 4432   6.853   8.948   7.725 -0.3301  0.7884  0.6392
 1109SOL     OW 4433   8.199   9.384   0.673 -0.1383  0.2022  0.0041
 1109SOL    HW1 4434   8.171   9.450   0.611  0.3757  1.1661  0.7630
 1109SOL    HW2 4435   8.203   9.303   0.623 -0.6629  0.7694 -0.9707
 1109SOL     MW 4436   8.196   9.382   0.658 -0.1397  0.4082 -0.0250
 1110SOL     OW 4437   5.671   0.739   8.980  0.1688  0.0310  0.2677
 1110SOL    HW1 4438   5.659   0.796   8.904  0.2030 -2.1205 -1.4447
 1110SOL    HW2 4439   5.754   0.766   9.018  0.2422  1.0349 -0.5667
 1110SOL     MW 4440   5.680   0.750   8.975  0.1833 -0.1234 -0.0750
 1111SOL     OW 4441   7.393   0.255   4.556  0.4272  0.0239  0.2106
 1111SOL    HW1 4442   7.475   0.220   4.521  0.7005 -0.4655  1.2928
 1111SOL    HW2 4443   7.400   0.243   4.650 -1.5931 -1.6340  0.2482
 1111SOL     MW 4444   7.405   0.248   4.564  0.1921 -0.2651  0.3613
 1112SOL     OW 4445   5.653   1.262   0.381  0.2510 -0.1141  0.0895
 1112SOL    HW1 4446   5.653   1.298   0.469  1.6142  1.9716 -0.6985
 1112SOL    HW2 4447   5.731   1.207   0.378  0.7324  0.5659 -0.0782
 1112SOL     MW 4448   5.663   1.259   0.392  0.4993  0.2581 -0.0391
 1113SOL     OW 4449   5.186   9.892   2.893 -0.3278 -0.4563 -0.1271
 1113SOL    HW1 4450   5.249   9.890   2.820 -1.1140  2.3881 -1.0368
 1113SOL    HW2 4451   5.116   9.833   2.865 -0.5826  0.5168 -1.7087
 1113SOL     MW 4452   5.185   9.884   2.879 -0.4679  0.0575 -0.4623
 1114SOL     OW 4453   7.861   9.357   2.428 -0.2113  0.4630  0.3323
 1114SOL    HW1 4454   7.826   9.271   2.450  0.5602 -0.1233 -0.6595
 1114SOL    HW2 4455   7.949   9.358   2.466 -0.5438  1.1787  1.1244
 1114SOL     MW 4456   7.868   9.345   2.436 -0.1522  0.4804  0.3054
 1115SOL     OW 4457   3.464   9.597   2.716 -0.2661 -0.1556 -0.4040
 1115SOL    HW1 4458   3.502   9.580   2.630 -1.2925  0.4030 -0.9870
 1115SOL    HW2 4459   3.383   9.545   2.716  0.8852 -2.0620  1.1618
 1115SOL     MW 4460   3.458   9.587   2.704 -0.2493 -0.3370 -0.2717
 1116SOL     OW 4461   4.024   9.845   7.720 -0.2628  0.2043 -0.4201
 1116SOL    HW1 4462   4.037   9.937   7.745  1.5007 -0.1338 -0.0321
 1116SOL    HW2 4463   4.031   9.845   7.625 -1.7412  0.6733 -0.5556
 1116SOL     MW 4464   4.026   9.858   7.711 -0.2244  0.2220 -0.3861
 1117SOL     OW 4465   5.037   8.218   9.470  0.1223 -0.3558  0.1014
 1117SOL    HW1 4466   5.093   8.232   9.546  0.1133 -0.3475  0.1064
 1117SOL    HW2 4467   4.958   8.269   9.489  0.5788  0.5803 -0.4214
 1117SOL     MW 4468   5.034   8.227   9.483  0.1825 -0.2287  0.0317
 1118SOL     OW 4469   7.101   8.280   5.682  0.0510  0.7586  0.8952
 1118SOL    HW1 4470   7.136   8.359   5.723  0.2148 -0.3767  3.0705
 1118SOL    HW2 4471   7.141   8.278   5.595 -1.2511  3.9217  0.0762
 1118SOL     MW 4472   7.111   8.291   5.676 -0.1022  1.0315  1.0777
 1119SOL     OW 4473   5.480   1.644   9.725 -0.2342  0.4486  0.6461
 1119SOL    HW1 4474   5.431   1.581   9.777  0.7237 -1.9321 -1.1263
 1119SOL    HW2 4475   5.454   1.625   9.634  1.9155  0.9505 -0.1258
 1119SOL     MW 4476   5.470   1.633   9.720  0.1840  0.1957  0.3037
 1120SOL     OW 4477   6.744   0.939   0.726  0.7254  0.0102 -0.1316
 1120SOL    HW1 4478   6.805   0.931   0.800 -1.4030  1.9743  2.0360
 1120SOL    HW2 4479   6.657   0.936   0.767 -0.5660  1.0770 -2.5969
 1120SOL     MW 4480   6.741   0.937   0.742  0.2652  0.4181 -0.1717
 1121SOL     OW 4481   5.672   1.483   2.661  0.4906  0.3978  0.0812
 1121SOL    HW1 4482   5.747   1.424   2.653  0.3439  0.3201 -0.8383
 1121SOL    HW2 4483   5.619   1.445   2.730 -0.0556 -1.0797 -1.1002
 1121SOL     MW 4484   5.675   1.470   2.669  0.3974  0.1885 -0.2015
 1122SOL     OW 4485   5.043   8.680  10.107  0.2395 -0.1925  0.2532
 1122SOL    HW1 4486   5.011   8.590  10.109 -1.0101  0.1442 -1.7713
 1122SOL    HW2 4487   5.064   8.700  10.198 -0.0553 -2.2970  0.8429
 1122SOL     MW 4488   5.042   8.670  10.119  0.0317 -0.4304  0.0601
 1123SOL     OW 4489   6.029   1.016   0.041 -0.4128  0.3169  0.2859
 1123SOL    HW1 4490   6.065   1.027   0.129 -0.0573  0.5866  0.1148
 1123SOL    HW2 4491   5.968   0.943   0.048  1.3479 -1.2381  0.2626
 1123SOL     MW 4492   6.026   1.008   0.054 -0.1280  0.1439  0.2597
 1124SOL     OW 4493   6.277   1.149   1.569 -0.4927 -0.5091 -0.3234
 1124SOL    HW1 4494   6.303   1.131   1.479 -2.8397 -0.0778 -1.1393
 1124SOL    HW2 4495   6.309   1.074   1.619 -0.1272 -1.2820 -1.6784
 1124SOL     MW 4496   6.285   1.137   1.564 -0.7594 -0.5550 -0.6155
 1125SOL     OW 4497   6.178   1.895   1.711 -0.1469  0.3308 -0.3759
 1125SOL    HW1 4498   6.151   1.926   1.625 -0.2987  0.1698 -0.3884
 1125SOL    HW2 4499   6.155   1.802   1.711 -0.0680  0.3105 -0.1943
 1125SOL     MW 4500   6.171   1.886   1.700 -0.1567  0.3064 -0.3532
 1126SOL     OW 4501   4.687   1.029   6.171 -0.0602 -0.2470 -0.2807
 1126SOL    HW1 4502   4.722   1.022   6.260 -1.8530 -0.4193  0.4584
 1126SOL    HW2 4503   4.713   1.116   6.141  0.3201 -0.0739  0.5260
 1126SOL     MW 4504   4.695   1.039   6.179 -0.2503 -0.2469 -0.0726
 1127SOL     OW 4505   6.738   8.795   0.637  0.0574  0.2539  0.2763
 1127SOL    HW1 4506   6.802   8.748   0.584  1.2656 -0.8154  2.5687
 1127SOL    HW2 4507   6.662   8.737   0.640  0.3840 -0.1614  0.5798
 1127SOL     MW 4508   6.736   8.781   0.630  0.2640  0.0541  0.6257
 1128SOL     OW 4509   5.182   8.994   8.542  0.1620 -0.1538 -0.5181
 1128SOL    HW1 4510   5.201   8.915   8.492  0.1223 -1.6318  1.6522
 1128SOL    HW2 4511   5.209   8.972   8.632 -0.9404  1.8806  0.3700
 1128SOL     MW 4512   5.188   8.980   8.548  0.0083 -0.0789 -0.1065
 1129SOL     OW 4513   7.010   8.790   1.239 -0.1941  0.0523 -0.3058
 1129SOL    HW1 4514   7.048   8.877   1.248  0.5660 -0.2853 -0.1960
 1129SOL    HW2 4515   7.085   8.731   1.233 -0.6125 -0.3334 -3.7354
 1129SOL     MW 4516   7.025   8.793   1.240 -0.1481 -0.0451 -0.7526
 1130SOL     OW 4517   6.303   8.821   5.664 -0.1442 -0.1649 -0.5856
 1130SOL    HW1 4518   6.257   8.796   5.744  1.3242  1.6729  0.9096
 1130SOL    HW2 4519   6.235   8.861   5.609 -0.6968  1.1773  0.9756
 1130SOL     MW 4520   6.287   8.823   5.667 -0.0210  0.2630 -0.1743
 1131SOL     OW 4521   7.795   9.132   7.091 -0.2250  0.2397 -0.5309
 1131SOL    HW1 4522   7.821   9.079   7.015 -0.5977 -0.9999  0.1854
 1131SOL    HW2 4523   7.705   9.158   7.072 -1.6920 -3.1303  1.0272
 1131SOL     MW 4524   7.787   9.129   7.078 -0.4726 -0.3806 -0.2248
 1132SOL     OW 4525   7.046   1.108   4.698  0.3367 -0.9325 -0.2773
 1132SOL    HW1 4526   7.024   1.055   4.621  1.1050 -1.4476 -0.1517
 1132SOL    HW2 4527   7.140   1.126   4.689  0.1643  0.1158 -0.1304
 1132SOL     MW 4528   7.056   1.103   4.687  0.4169 -0.8608 -0.2406
 1133SOL     OW 4529   7.841   9.358   2.149  0.1817 -0.0722  0.0066
 1133SOL    HW1 4530   7.803   9.429   2.200  2.1762  0.3354  1.0036
 1133SOL    HW2 4531   7.897   9.311   2.210  0.8736 -0.9662 -1.2534
 1133SOL     MW 4532   7.843   9.361   2.164  0.5432 -0.1376 -0.0288
 1134SOL     OW 4533   7.147   8.288   0.387  0.6745 -0.0157  0.2645
 1134SOL    HW1 4534   7.125   8.286   0.480 -0.4376 -0.7453  0.0046
 1134SOL    HW2 4535   7.075   8.242   0.344  2.4196 -2.0057 -0.7053
 1134SOL     MW 4536   7.135   8.282   0.394  0.7597 -0.3817  0.0990
 1135SOL     OW 4537   6.534   8.021   5.807  0.2462 -0.0005  0.0991
 1135SOL    HW1 4538   6.531   8.101   5.859  0.2644  0.0324  0.0490
 1135SOL    HW2 4539   6.515   8.050   5.718 -1.3271 -0.2575  0.3231
 1135SOL     MW 4540   6.531   8.035   5.802  0.0369 -0.0307  0.1225
 1136SOL     OW 4541   5.782   9.166   0.064  0.0714  0.5218 -0.0806
 1136SOL    HW1 4542   5.846   9.095   0.064  0.4365  0.8503  0.2890
 1136SOL    HW2 4543   5.759   9.176  -0.029  1.1743  0.9487 -0.3246
 1136SOL     MW 4544   5.788   9.158   0.051  0.2689  0.6234 -0.0637
 1137SOL     OW 4545   6.532   0.229   2.662 -0.2180  0.1743 -0.1936
 1137SOL    HW1 4546   6.437   0.238   2.653 -0.2454 -1.0146 -1.5294
 1137SOL    HW2 4547   6.548   0.135   2.654  1.0875  0.3796 -0.1950
 1137SOL     MW 4548   6.521   0.218   2.659 -0.0460  0.0420 -0.3736
 1138SOL     OW 4549   5.532   9.935   4.890  0.1690 -0.2599  0.2513
 1138SOL    HW1 4550   5.491   9.864   4.939  0.0079 -0.7369 -0.5635
 1138SOL    HW2 4551   5.464   9.965   4.830  0.3964  0.2522  0.2453
 1138SOL     MW 4552   5.517   9.930   4.889  0.1779 -0.2552  0.1408
 1139SOL     OW 4553   6.535   7.811   5.478  0.7041 -0.8676  0.0062
 1139SOL    HW1 4554   6.541   7.901   5.509 -0.2512 -0.4932 -0.8518
 1139SOL    HW2 4555   6.572   7.758   5.549 -2.8132 -0.2112  2.5738
 1139SOL     MW 4556   6.541   7.816   5.492  0.1022 -0.7289  0.2363
 1140SOL     OW 4557   6.704   8.319   8.178 -0.0613  0.2516  0.8377
 1140SOL    HW1 4558   6.710   8.313   8.274  1.6216  1.1351  0.8182
 1140SOL    HW2 4559   6.628   8.376   8.163 -0.3005  0.1612  1.6432
 1140SOL     MW 4560   6.694   8.326   8.189  0.1330  0.3583  0.9435
 1141SOL     OW 4561   6.578   8.631   0.898 -0.6290 -0.4796 -0.0505
 1141SOL    HW1 4562   6.642   8.695   0.929 -0.5363 -0.9404  0.7429
 1141SOL    HW2 4563   6.494   8.678   0.901 -0.4486 -0.1332 -0.2991
 1141SOL     MW 4564   6.575   8.646   0.903 -0.5922 -0.4950  0.0228
 1142SOL     OW 4565   5.669   8.493   8.696  0.2121  0.2491  0.5237
 1142SOL    HW1 4566   5.743   8.487   8.757 -1.2097  0.0124  2.3253
 1142SOL    HW2 4567   5.672   8.411   8.647  1.6958  0.6659 -0.1331
 1142SOL     MW 4568   5.679   8.481   8.698  0.2204  0.2733  0.6777
 1143SOL     OW 4569   4.377   9.651   2.012  0.0081  0.2633 -0.4980
 1143SOL    HW1 4570   4.383   9.578   1.950  0.0937  0.0357 -0.2251
 1143SOL    HW2 4571   4.432   9.720   1.974  0.7801 -0.1946 -0.2407
 1143SOL     MW 4572   4.385   9.650   1.999  0.1235  0.1710 -0.4267
 1144SOL     OW 4573   4.329   9.658   8.736  0.2150 -0.0793 -0.3903
 1144SOL    HW1 4574   4.423   9.667   8.748  0.4800 -1.1961 -1.4237
 1144SOL    HW2 4575   4.292   9.681   8.822  1.3490  1.1391 -0.1938
 1144SOL     MW 4576   4.337   9.662   8.750  0.4033 -0.0657 -0.5030
 1145SOL     OW 4577   4.714   9.374   0.600 -0.5762  0.0715 -0.0510
 1145SOL    HW1 4578   4.730   9.434   0.673 -0.5445 -1.2797  1.0979
 1145SOL    HW2 4579   4.688   9.431   0.528  1.4949  1.6415  0.3595
 1145SOL     MW 4580   4.712   9.390   0.600 -0.2932  0.1009  0.1589
 1146SOL     OW 4581   4.048   0.150   8.670 -0.1055 -0.7498  0.3389
 1146SOL    HW1 4582   4.097   0.232   8.668 -1.7562  0.2847 -0.0160
 1146SOL    HW2 4583   4.038   0.129   8.763  0.9121 -0.9495  0.4156
 1146SOL     MW 4584   4.053   0.158   8.682 -0.1907 -0.6375  0.3014
 1147SOL     OW 4585   5.025   0.864   7.116 -0.3265  0.2588  0.1722
 1147SOL    HW1 4586   5.068   0.909   7.043  0.2412  0.2602  0.5019
 1147SOL    HW2 4587   5.057   0.774   7.111 -0.2917  0.2568  0.4140
 1147SOL     MW 4588   5.035   0.858   7.106 -0.2454  0.2587  0.2491
 1148SOL     OW 4589   6.476   9.996   9.002 -0.0261  0.2937  0.4904
 1148SOL    HW1 4590   6.570  10.006   8.986  0.1704 -1.5959  0.2247
 1148SOL    HW2 4591   6.440  10.083   8.984  1.3688  0.5092 -1.6892
 1148SOL     MW 4592   6.484  10.009   8.997  0.1881  0.0684  0.1613
 1149SOL     OW 4593   4.951   0.159   4.699 -0.1464  0.7456  0.0745
 1149SOL    HW1 4594   4.989   0.128   4.781 -0.3989  0.7071  0.1765
 1149SOL    HW2 4595   4.905   0.083   4.664 -0.0561  0.7681 -0.0927
 1149SOL     MW 4596   4.950   0.144   4.705 -0.1682  0.7434  0.0657
 1150SOL     OW 4597   6.689   7.707   5.691 -0.1082 -0.0068  0.4254
 1150SOL    HW1 4598   6.718   7.789   5.730  0.9107  1.1179 -2.4049
 1150SOL    HW2 4599   6.620   7.676   5.748 -2.3463  4.1436  0.3464
 1150SOL     MW 4600   6.684   7.714   5.704 -0.2723  0.7031  0.0338
 1151SOL     OW 4601   7.571   9.112   6.004  0.1527  0.1188  0.2895
 1151SOL    HW1 4602   7.509   9.177   6.037 -0.3670  0.3864 -1.1542
 1151SOL    HW2 4603   7.644   9.164   5.970  0.3283 -0.1153  0.3081
 1151SOL     MW 4604   7.573   9.128   6.004  0.1064  0.1233  0.0977
 1152SOL     OW 4605   5.628   0.219   0.452  0.1365 -0.2027 -0.5095
 1152SOL    HW1 4606   5.557   0.156   0.441  0.4323 -0.7600  0.5579
 1152SOL    HW2 4607   5.616   0.283   0.382 -0.2718 -1.3568 -1.5211
 1152SOL     MW 4608   5.617   0.219   0.441  0.1213 -0.4330 -0.5020
 1153SOL     OW 4609   6.296   1.495   8.321 -0.2386  0.4133  0.5597
 1153SOL    HW1 4610   6.320   1.516   8.231  0.1457  0.8397  0.7552
 1153SOL    HW2 4611   6.259   1.407   8.317  1.0879 -0.1469  0.1953
 1153SOL     MW 4612   6.294   1.486   8.309 -0.0084  0.3953  0.5370
 1154SOL     OW 4613   6.607   8.877   8.986 -0.2300 -0.3474 -0.4289
 1154SOL    HW1 4614   6.552   8.812   8.943 -0.6704  1.2529 -2.4288
 1154SOL    HW2 4615   6.695   8.863   8.950 -0.0083 -0.7554  0.2491
 1154SOL     MW 4616   6.612   8.866   8.976 -0.2594 -0.1869 -0.6068
 1155SOL     OW 4617   7.750  10.106   6.520  0.0800  0.0354  0.0032
 1155SOL    HW1 4618   7.764  10.075   6.431 -0.9277 -2.6166  0.6801
 1155SOL    HW2 4619   7.655  10.107   6.531  0.1969 -0.8416  1.3793
 1155SOL     MW 4620   7.739  10.102   6.509 -0.0399 -0.4396  0.2795
 1156SOL     OW 4621   6.242   1.459   3.273 -0.7977  0.0829 -0.2322
 1156SOL    HW1 4622   6.242   1.372   3.233 -0.7584 -0.0115 -0.0286
 1156SOL    HW2 4623   6.243   1.520   3.199  0.6465 -0.0878 -0.3893
 1156SOL     MW 4624   6.242   1.456   3.258 -0.5980  0.0472 -0.2260
 1157SOL     OW 4625   4.223   8.240   9.664 -0.1598  0.0658  0.3333
 1157SOL    HW1 4626   4.162   8.168   9.644  1.4368 -1.1106 -0.5214
 1157SOL    HW2 4627   4.211   8.303   9.593 -0.0188 -0.4079 -0.1167
 1157SOL     MW 4628   4.213   8.239   9.652  0.0741 -0.1563  0.1577
 1158SOL     OW 4629   4.471   9.967   5.001  0.1341 -0.2239  0.0348
 1158SOL    HW1 4630   4.396   9.991   5.055  1.5659 -0.1295  2.1138
 1158SOL    HW2 4631   4.453   9.877   4.973 -1.8054  0.6001 -1.5067
 1158SOL     MW 4632   4.459   9.958   5.005  0.0658 -0.1003  0.1071
 1159SOL     OW 4633   3.811   0.378   3.867  0.1826 -0.6239 -0.0743
 1159SOL    HW1 4634   3.731   0.326   3.861  0.1944 -0.4535 -2.3080
 1159SOL    HW2 4635   3.783   0.468   3.854  0.7900 -0.6383 -1.7239
 1159SOL     MW 4636   3.797   0.383   3.865  0.2659 -0.6029 -0.5969
 1160SOL     OW 4637   6.993   9.988   5.428 -0.4561 -0.4770  0.0582
 1160SOL    HW1 4638   7.071  10.003   5.374  0.5030  0.0605  1.5330
 1160SOL    HW2 4639   7.009  10.038   5.508 -2.9730  0.8369 -0.1710
 1160SOL     MW 4640   7.006   9.997   5.431 -0.6657 -0.2279  0.2259
 1161SOL     OW 4641   5.619   9.484   5.230 -0.2270 -0.8347  0.1997
 1161SOL    HW1 4642   5.619   9.579   5.227 -2.0099 -0.8224 -0.9906
 1161SOL    HW2 4643   5.562   9.462   5.304 -0.5097 -0.9697 -0.0558
 1161SOL     MW 4644   5.611   9.494   5.240 -0.5050 -0.8512  0.0051
 1162SOL     OW 4645   4.598   9.809   9.223 -0.3936  0.3965  0.0019
 1162SOL    HW1 4646   4.609   9.858   9.142  1.8357  0.0703  0.0217
 1162SOL    HW2 4647   4.651   9.730   9.210 -0.7205 -0.0915  1.4279
 1162SOL     MW 4648   4.607   9.805   9.210 -0.1376  0.2870  0.1965
 1163SOL     OW 4649   6.479   0.219   4.364 -0.2307 -0.0731 -0.2019
 1163SOL    HW1 4650   6.500   0.279   4.436 -2.9185  1.3148 -0.4626
 1163SOL    HW2 4651   6.391   0.188   4.383  0.0257 -1.7607 -1.5703
 1163SOL     MW 4652   6.470   0.223   4.376 -0.5579 -0.1134 -0.4212
 1164SOL     OW 4653   5.602   0.977   4.890 -0.6337 -0.0564 -0.3880
 1164SOL    HW1 4654   5.526   0.944   4.939 -1.2017  1.4892 -0.1885
 1164SOL    HW2 4655   5.662   0.903   4.888 -0.2010  0.0082  3.3295
 1164SOL     MW 4656   5.600   0.962   4.896 -0.6519  0.1603  0.1391
 1165SOL     OW 4657   6.105   8.626   7.769  0.1198 -0.1029  0.0101
 1165SOL    HW1 4658   6.014   8.645   7.748  0.3033  0.2885 -0.4622
 1165SOL    HW2 4659   6.128   8.691   7.836  0.0423 -0.2188  0.1484
 1165SOL     MW 4660   6.096   8.638   7.775  0.1341 -0.0658 -0.0348
 1166SOL     OW 4661   6.750   8.250   6.004 -0.1040  0.1085 -0.6469
 1166SOL    HW1 4662   6.783   8.172   6.050 -0.7419 -0.1424 -0.5920
 1166SOL    HW2 4663   6.791   8.324   6.049 -0.6897 -0.1355  0.3264
 1166SOL     MW 4664   6.760   8.249   6.016 -0.2687  0.0419 -0.5085
 1167SOL     OW 4665   3.814  10.054   2.041 -0.0710 -0.2934 -0.4442
 1167SOL    HW1 4666   3.766   9.983   2.085 -0.8447  0.7509  0.4387
 1167SOL    HW2 4667   3.883  10.077   2.103 -0.3330  0.2793 -0.3645
 1167SOL     MW 4668   3.817  10.047   2.055 -0.2104 -0.0758 -0.3147
 1168SOL     OW 4669   5.543   0.544   4.085 -0.1415  0.1884 -0.8818
 1168SOL    HW1 4670   5.597   0.505   4.015 -0.0035 -0.2241 -0.5505
 1168SOL    HW2 4671   5.453   0.519   4.063 -0.3154  1.6090 -1.9129
 1168SOL     MW 4672   5.538   0.535   4.073 -0.1464  0.3240 -0.9760
 1169SOL     OW 4673   4.963   8.770   6.755  0.0668  0.1635  0.6749
 1169SOL    HW1 4674   4.882   8.819   6.765  0.6536  1.6108 -1.0622
 1169SOL    HW2 4675   5.033   8.835   6.763  0.9865 -0.7625  0.4872
 1169SOL     MW 4676   4.962   8.785   6.757  0.2695  0.2337  0.4159
 1170SOL     OW 4677   5.427   9.714   5.009  0.0813  0.7190 -0.2782
 1170SOL    HW1 4678   5.426   9.627   4.968  1.3903  1.5383 -2.1923
 1170SOL    HW2 4679   5.336   9.728   5.036 -0.2036 -1.1278 -0.1300
 1170SOL     MW 4680   5.414   9.704   5.007  0.2192  0.5807 -0.5159
 1171SOL     OW 4681   7.442  10.071   9.602  0.4645 -0.7823  0.1308
 1171SOL    HW1 4682   7.373  10.049   9.540  0.3653 -0.9287  0.2902
 1171SOL    HW2 4683   7.503  10.125   9.553 -0.6904  0.9108  0.4708
 1171SOL     MW 4684   7.441  10.075   9.587  0.2957 -0.5741  0.1980
 1172SOL     OW 4685   5.488   9.575   5.668  0.6060  0.3580 -0.6226
 1172SOL    HW1 4686   5.573   9.547   5.701  0.0789 -0.8493 -0.2326
 1172SOL    HW2 4687   5.426   9.548   5.737 -0.1224  0.9764 -1.0192
 1172SOL     MW 4688   5.491   9.568   5.682  0.4370  0.2787 -0.6235
 1173SOL     OW 4689   5.446   8.711   5.000  0.3565  0.4803 -0.2513
 1173SOL    HW1 4690   5.511   8.709   4.929  0.4878  0.1800 -0.1248
 1173SOL    HW2 4691   5.496   8.731   5.079  0.5013 -0.9765  0.0519
 1173SOL     MW 4692   5.461   8.713   5.001  0.3937  0.2438 -0.1935
 1174SOL     OW 4693   8.043   0.082   1.357  0.7466 -0.9501  0.1218
 1174SOL    HW1 4694   8.128   0.038   1.353  1.3882  0.2518 -0.1276
 1174SOL    HW2 4695   7.993   0.032   1.421  1.2125 -2.3876 -0.6039
 1174SOL     MW 4696   8.048   0.070   1.365  0.8957 -0.9818 -0.0094
 1175SOL     OW 4697   7.632   0.121   4.498  0.1927 -0.3898  0.0856
 1175SOL    HW1 4698   7.674   0.038   4.520 -0.2354  0.0473  3.0012
 1175SOL    HW2 4699   7.705   0.182   4.488  0.6333 -1.2956 -3.7686
 1175SOL     MW 4700   7.648   0.118   4.500  0.1944 -0.4529 -0.0408
 1176SOL     OW 4701   4.666   9.735   9.547 -0.3618 -0.2117 -0.4796
 1176SOL    HW1 4702   4.571   9.732   9.533 -0.4819 -0.6461  0.3961
 1176SOL    HW2 4703   4.697   9.649   9.519 -0.3182 -0.3121 -0.1226
 1176SOL     MW 4704   4.657   9.723   9.541 -0.3721 -0.2836 -0.3137
 1177SOL     OW 4705   5.450   8.018   2.432 -0.6833 -0.2357 -0.1077
 1177SOL    HW1 4706   5.368   8.033   2.478 -0.6659 -1.2813  0.2986
 1177SOL    HW2 4707   5.518   8.029   2.500 -0.5414 -0.0586 -0.2787
 1177SOL     MW 4708   5.448   8.021   2.447 -0.6618 -0.3526 -0.0760
 1178SOL     OW 4709   4.739   1.295   5.181 -0.2346 -0.2154  0.1705
 1178SOL    HW1 4710   4.651   1.323   5.156  0.4283  1.3992 -0.4928
 1178SOL    HW2 4711   4.731   1.267   5.272 -1.0822  1.7550  0.7545
 1178SOL     MW 4712   4.726   1.295   5.190 -0.2595  0.2671  0.1598
 1179SOL     OW 4713   6.982   9.191   6.321  0.6273  0.0815  0.1678
 1179SOL    HW1 4714   7.011   9.228   6.404 -2.0694  2.3556  0.2532
 1179SOL    HW2 4715   6.891   9.164   6.337  0.3891 -0.4123 -1.7511
 1179SOL     MW 4716   6.974   9.192   6.334  0.2323  0.3211 -0.0790
 1180SOL     OW 4717   5.895   1.025   7.465  0.1199 -0.3056 -0.2597
 1180SOL    HW1 4718   5.939   1.096   7.512  1.2378 -1.4408  0.4637
 1180SOL    HW2 4719   5.862   0.967   7.534 -0.3250 -0.7590 -0.8433
 1180SOL     MW 4720   5.896   1.027   7.481  0.2104 -0.5194 -0.2409
 1181SOL     OW 4721   7.462   0.882   3.540 -0.7246 -0.1023 -0.9432
 1181SOL    HW1 4722   7.525   0.829   3.491 -0.5766  0.1071 -0.9792
 1181SOL    HW2 4723   7.420   0.820   3.599 -2.0726 -0.6975 -2.4669
 1181SOL     MW 4724   7.465   0.867   3.541 -0.8861 -0.1542 -1.1531
 1182SOL     OW 4725   5.039   1.431   8.132  0.5689 -0.1037 -0.1731
 1182SOL    HW1 4726   5.053   1.336   8.133  1.6570  0.0297 -0.7967
 1182SOL    HW2 4727   5.128   1.468   8.127  0.1157  0.8940 -1.9190
 1182SOL     MW 4728   5.053   1.423   8.131  0.6543  0.0485 -0.4920
 1183SOL     OW 4729   7.958   0.677   5.805 -0.7370  0.4304 -0.1144
 1183SOL    HW1 4730   7.936   0.697   5.714 -0.7198  1.1018  0.0248
 1183SOL    HW2 4731   8.028   0.612   5.800 -0.2414  0.9999 -0.5842
 1183SOL     MW 4732   7.965   0.671   5.792 -0.6680  0.5974 -0.1589
 1184SOL     OW 4733   6.800   8.631   6.323  1.1455 -0.3164  0.4602
 1184SOL    HW1 4734   6.849   8.597   6.247  0.6519 -0.1013  0.0384
 1184SOL    HW2 4735   6.781   8.553   6.376 -1.5368 -1.0710 -1.3760
 1184SOL     MW 4736   6.804   8.616   6.320  0.7181 -0.3890  0.1563
 1185SOL     OW 4737   6.068   0.419   7.117 -1.0224  0.1369 -0.1243
 1185SOL    HW1 4738   6.055   0.327   7.093 -0.9458 -0.4833  1.9760
 1185SOL    HW2 4739   6.044   0.423   7.209  0.0079  2.0004  0.1128
 1185SOL     MW 4740   6.063   0.407   7.126 -0.8735  0.3042  0.1903
 1186SOL     OW 4741   7.189   0.088   8.182 -0.1843  0.4201 -0.3762
 1186SOL    HW1 4742   7.212   0.094   8.274  1.1743 -1.7477 -0.5221
 1186SOL    HW2 4743   7.094   0.075   8.182 -0.4208  1.9162  0.6024
 1186SOL     MW 4744   7.179   0.087   8.194 -0.0332  0.3297 -0.2641
 1187SOL     OW 4745   6.892   9.663   8.105 -0.7231  0.4315  0.4702
 1187SOL    HW1 4746   6.914   9.570   8.112 -1.7586  0.1452  0.1734
 1187SOL    HW2 4747   6.829   9.678   8.175 -2.1510  0.3858 -0.7521
 1187SOL     MW 4748   6.886   9.652   8.115 -1.0546  0.3869  0.2658
 1188SOL     OW 4749   6.229   7.619   5.057  0.0307 -0.0884  0.0589
 1188SOL    HW1 4750   6.157   7.677   5.084  0.5146  1.7808 -2.3147
 1188SOL    HW2 4751   6.283   7.611   5.135 -1.8809 -0.2572  1.4614
 1188SOL     MW 4752   6.226   7.626   5.071 -0.1614  0.1404 -0.0718
 1189SOL     OW 4753   7.101   0.845   9.128 -0.1685 -1.0078  0.2867
 1189SOL    HW1 4754   7.195   0.857   9.145 -0.4765  1.6540  0.6096
 1189SOL    HW2 4755   7.073   0.929   9.092 -2.7142 -1.2334  1.5497
 1189SOL     MW 4756   7.110   0.858   9.126 -0.5525 -0.6799  0.5002
 1190SOL     OW 4757   3.823   9.923   6.908 -0.5773  0.1063  0.1928
 1190SOL    HW1 4758   3.914   9.953   6.907 -0.6779  0.5352 -1.7536
 1190SOL    HW2 4759   3.773  10.001   6.932 -0.5085  0.2174 -0.0175
 1190SOL     MW 4760   3.829   9.937   6.911 -0.5816  0.1790 -0.0974
 1191SOL     OW 4761   5.283   0.039   2.904 -0.1040  0.4594  0.0323
 1191SOL    HW1 4762   5.265  -0.040   2.954 -1.3512  0.9753  0.4585
 1191SOL    HW2 4763   5.372   0.028   2.871  0.0525 -0.7223  0.8061
 1191SOL     MW 4764   5.292   0.027   2.906 -0.2508  0.3698  0.1938
 1192SOL     OW 4765   4.420   0.570   3.129 -0.1543 -0.0216 -0.2893
 1192SOL    HW1 4766   4.444   0.655   3.091 -2.3238  1.1289  0.6810
 1192SOL    HW2 4767   4.459   0.571   3.216 -1.1274  0.5575  0.1684
 1192SOL     MW 4768   4.428   0.582   3.135 -0.5772  0.2112 -0.0971
 1193SOL     OW 4769   4.741   8.139   7.851 -0.8121 -0.1259 -0.2985
 1193SOL    HW1 4770   4.799   8.171   7.782 -0.3711  0.6015  0.3917
 1193SOL    HW2 4771   4.798   8.131   7.928 -1.5642  0.2900  0.3063
 1193SOL     MW 4772   4.757   8.142   7.852 -0.8540  0.0280 -0.1242
 1194SOL     OW 4773   7.213   8.347   5.412 -0.3376 -0.0873  0.3611
 1194SOL    HW1 4774   7.298   8.392   5.401 -1.4194  1.7775 -1.0983
 1194SOL    HW2 4775   7.151   8.418   5.428 -1.3575 -1.5729  3.9779
 1194SOL     MW 4776   7.216   8.363   5.412 -0.6204 -0.0362  0.6515
 1195SOL     OW 4777   6.774   0.580   4.345  0.1316 -0.3999  0.4382
 1195SOL    HW1 4778   6.812   0.493   4.356 -0.5338 -0.6347  0.9046
 1195SOL    HW2 4779   6.793   0.625   4.427  0.6326 -0.0330  0.1308
 1195SOL     MW 4780   6.782   0.574   4.358  0.1095 -0.3821  0.4596
 1196SOL     OW 4781   7.678   8.839   4.648  0.3983  0.5497 -0.0761
 1196SOL    HW1 4782   7.647   8.917   4.694  1.9250  2.0023 -1.3897
 1196SOL    HW2 4783   7.613   8.826   4.578 -0.6630 -0.3042  1.0082
 1196SOL     MW 4784   7.665   8.848   4.644  0.4610  0.6303 -0.1070
 1197SOL     OW 4785   4.995   8.527   5.066  0.4730 -0.2206  0.4410
 1197SOL    HW1 4786   5.004   8.555   5.157 -2.2082 -1.8167  1.2885
 1197SOL    HW2 4787   4.909   8.558   5.039  1.1695  0.1452 -1.5978
 1197SOL     MW 4788   4.985   8.535   5.074  0.2059 -0.3862  0.2807
 1198SOL     OW 4789   3.641   9.986   2.453  0.1746  0.1621  0.6632
 1198SOL    HW1 4790   3.643  10.081   2.464 -0.9219  0.3152 -0.3285
 1198SOL    HW2 4791   3.731   9.958   2.472  0.6401  1.4552  0.4444
 1198SOL     MW 4792   3.654   9.995   2.457  0.0897  0.3567  0.5003
 1199SOL     OW 4793   6.920   0.231   2.851  0.5811 -0.5439 -0.5837
 1199SOL    HW1 4794   6.826   0.221   2.863  0.4894 -0.0236 -0.8519
 1199SOL    HW2 4795   6.929   0.285   2.773  1.1143 -1.0236 -0.8625
 1199SOL     MW 4796   6.909   0.237   2.842  0.6405 -0.5385 -0.6573
 1200SOL     OW 4797   6.966   0.769   7.715 -0.6266  0.2097 -0.3926
 1200SOL    HW1 4798   6.897   0.793   7.776 -0.0455  2.4149 -0.4882
 1200SOL    HW2 4799   6.983   0.850   7.666 -0.3738 -1.1909 -2.7879
 1200SOL     MW 4800   6.959   0.783   7.716 -0.5143  0.3180 -0.7278
 1201SOL     OW 4801   6.980   0.676   5.668  0.3038  0.1843 -0.2320
 1201SOL    HW1 4802   6.925   0.665   5.590 -0.8887 -0.2144  0.6321
 1201SOL    HW2 4803   7.059   0.720   5.636 -0.6250  1.0114 -1.4793
 1201SOL     MW 4804   6.983   0.680   5.653  0.0183  0.2420 -0.2835
 1202SOL     OW 4805   5.165   9.683   5.408  0.5717 -0.3248  0.7390
 1202SOL    HW1 4806   5.176   9.614   5.343 -2.5085 -0.6667  0.4250
 1202SOL    HW2 4807   5.222   9.754   5.378  0.1454 -0.9259 -1.6915
 1202SOL     MW 4808   5.174   9.683   5.395  0.0998 -0.4517  0.3697
 1203SOL     OW 4809   6.708   9.509   1.834 -0.4630 -0.3119  0.3506
 1203SOL    HW1 4810   6.752   9.553   1.907  0.4155  1.6832 -1.2786
 1203SOL    HW2 4811   6.616   9.505   1.861 -0.2839  1.0404  1.3053
 1203SOL     MW 4812   6.702   9.515   1.847 -0.3207  0.1386  0.2598
 1204SOL     OW 4813   5.274   0.518   7.891  0.6983  0.0058 -0.1850
 1204SOL    HW1 4814   5.212   0.448   7.869  1.2196 -0.6318  0.3205
 1204SOL    HW2 4815   5.220   0.588   7.927  0.1138  0.0643 -1.1568
 1204SOL     MW 4816   5.258   0.518   7.893  0.6898 -0.0721 -0.2477
 1205SOL     OW 4817   4.525   0.395   1.928  0.3347 -0.1126  0.0084
 1205SOL    HW1 4818   4.586   0.437   1.989  0.4801 -0.3434  0.0262
 1205SOL    HW2 4819   4.577   0.381   1.848 -0.0511  0.8164 -0.4144
 1205SOL     MW 4820   4.540   0.399   1.925  0.3023 -0.0186 -0.0461
 1206SOL     OW 4821   4.272   0.343   3.852 -0.3850  0.0595  0.1654
 1206SOL    HW1 4822   4.328   0.417   3.830 -0.1310 -0.6869 -1.8774
 1206SOL    HW2 4823   4.261   0.295   3.770 -1.4750 -1.5465  1.1809
 1206SOL     MW 4824   4.278   0.346   3.838 -0.4975 -0.2571  0.0272
 1207SOL     OW 4825   7.406   0.245   5.917 -0.0631  0.2708  0.0462
 1207SOL    HW1 4826   7.342   0.201   5.973 -0.8534  0.9780 -0.2659
 1207SOL    HW2 4827   7.423   0.328   5.961  0.7342  0.0358  0.1817
 1207SOL     MW 4828   7.399   0.250   5.930 -0.0622  0.3344  0.0224
 1208SOL     OW 4829   7.556   8.553   3.691 -0.4106  0.6217 -0.0600
 1208SOL    HW1 4830   7.486   8.579   3.631 -0.7932 -0.1450  0.0505
 1208SOL    HW2 4831   7.572   8.461   3.671 -1.4657 -0.0313  1.9281
 1208SOL     MW 4832   7.549   8.544   3.680 -0.6041  0.4306  0.2224
 1209SOL     OW 4833   3.970   0.710   3.387 -0.2243 -0.3608 -0.2500
 1209SOL    HW1 4834   4.037   0.712   3.455 -1.4231 -1.3202  1.0288
 1209SOL    HW2 4835   3.998   0.776   3.324  0.4071  1.3608  1.6977
 1209SOL     MW 4836   3.983   0.719   3.388 -0.3007 -0.2582  0.1842
 1210SOL     OW 4837   6.043   1.582   3.956 -0.8432  0.2494 -0.2943
 1210SOL    HW1 4838   6.116   1.615   4.008  1.0544 -3.1894 -0.5479
 1210SOL    HW2 4839   5.987   1.536   4.019  0.6999 -2.6559 -0.8775
 1210SOL     MW 4840   6.045   1.581   3.971 -0.3802 -0.6044 -0.4069
 1211SOL     OW 4841   7.622   0.477   9.374  0.1013 -0.3048  0.5480
 1211SOL    HW1 4842   7.568   0.454   9.449  0.3143 -0.8089  0.5573
 1211SOL    HW2 4843   7.601   0.568   9.355 -0.7858 -0.5033  0.5175
 1211SOL     MW 4844   7.612   0.486   9.382  0.0106 -0.3994  0.5452
 1212SOL     OW 4845   6.338   1.669   4.015  0.2115 -0.1476 -0.0257
 1212SOL    HW1 4846   6.393   1.616   4.073  0.2003 -1.0470 -0.8164
 1212SOL    HW2 4847   6.385   1.671   3.932 -0.1463  0.4881 -0.2232
 1212SOL     MW 4848   6.352   1.662   4.012  0.1618 -0.1831 -0.1587
 1213SOL     OW 4849   6.759   9.549   7.894 -0.6361 -0.0437 -0.1512
 1213SOL    HW1 4850   6.790   9.603   7.966 -0.4303  0.8757 -0.9077
 1213SOL    HW2 4851   6.779   9.600   7.815 -0.7786 -1.0549 -0.8653
 1213SOL     MW 4852   6.766   9.563   7.893 -0.6276 -0.0560 -0.3491
 1214SOL     OW 4853   5.065   0.920   6.302  0.0411 -0.0459 -0.1605
 1214SOL    HW1 4854   5.054   0.826   6.289  0.7211 -0.5521  2.3955
 1214SOL    HW2 4855   4.976   0.954   6.311 -0.1722 -0.6645  0.1289
 1214SOL     MW 4856   5.052   0.912   6.302  0.1039 -0.1973  0.2224
 1215SOL     OW 4857   4.694   0.111   2.350 -0.1482 -0.2213 -0.6672
 1215SOL    HW1 4858   4.619   0.122   2.408 -0.4653  1.5785 -1.3611
 1215SOL    HW2 4859   4.727   0.023   2.370 -1.4347 -0.4120  0.8075
 1215SOL     MW 4860   4.688   0.100   2.361 -0.3640 -0.0047 -0.5621
 1216SOL     OW 4861   4.742   1.281   4.423 -0.4552 -0.2189  0.2349
 1216SOL    HW1 4862   4.678   1.260   4.490 -1.5582  1.2912 -0.2976
 1216SOL    HW2 4863   4.812   1.327   4.469 -1.8903  2.1424  0.2261
 1216SOL     MW 4864   4.743   1.284   4.438 -0.7968  0.3021  0.1621
 1217SOL     OW 4865   6.887   0.343   8.250  0.4297  0.0668 -0.2667
 1217SOL    HW1 4866   6.942   0.359   8.327 -0.3569 -0.0113  0.3212
 1217SOL    HW2 4867   6.806   0.306   8.285 -0.6291  1.6150 -0.9490
 1217SOL     MW 4868   6.883   0.340   8.265  0.1813  0.2647 -0.2794
 1218SOL     OW 4869   6.962   9.632   5.488 -0.9223 -0.3702 -0.5192
 1218SOL    HW1 4870   6.900   9.576   5.534 -1.7333  1.1183  0.2791
 1218SOL    HW2 4871   6.907   9.696   5.443 -0.0007  1.2511  0.5509
 1218SOL     MW 4872   6.946   9.633   5.488 -0.9075  0.0483 -0.2678
 1219SOL     OW 4873   4.874   9.989   9.895  0.0694  0.1973  0.0398
 1219SOL    HW1 4874   4.954   9.965   9.847  0.0705 -1.3410  0.7441
 1219SOL    HW2 4875   4.805   9.937   9.853 -0.0471 -0.6486  1.2217
 1219SOL     MW 4876   4.876   9.978   9.883  0.0539 -0.1236  0.2937
 1220SOL     OW 4877   6.096   1.646   2.826  0.6096  0.5395 -0.0680
 1220SOL    HW1 4878   6.162   1.705   2.790  1.3263  0.1918  0.6658
 1220SOL    HW2 4879   6.013   1.683   2.797  0.9886  2.3894  1.0427
 1220SOL     MW 4880   6.094   1.659   2.817  0.7570  0.7417  0.1803
 1221SOL     OW 4881   5.142   7.728   7.629 -0.1140 -0.3197 -0.7218
 1221SOL    HW1 4882   5.177   7.740   7.540  0.2727 -0.9360 -0.6619
 1221SOL    HW2 4883   5.112   7.637   7.630 -0.8002 -0.0945 -0.4465
 1221SOL     MW 4884   5.143   7.717   7.617 -0.1543 -0.3723 -0.6767
 1222SOL     OW 4885   6.102   8.988   0.416 -0.2167 -0.4269  0.1244
 1222SOL    HW1 4886   6.102   9.049   0.342 -1.2903 -1.8925 -1.1387
 1222SOL    HW2 4887   6.189   8.949   0.415  0.4224  0.8821  0.8354
 1222SOL     MW 4888   6.114   8.991   0.406 -0.2752 -0.4480  0.0501
 1223SOL     OW 4889   6.885   1.115   5.550  0.6139 -0.3241 -0.2452
 1223SOL    HW1 4890   6.917   1.062   5.623  0.5317  0.8847  0.7141
 1223SOL    HW2 4891   6.965   1.143   5.504  0.7225 -0.3237 -0.0581
 1223SOL     MW 4892   6.900   1.112   5.554  0.6174 -0.1614 -0.0909
 1224SOL     OW 4893   4.198   9.735   0.767 -0.1651 -0.1087  0.3828
 1224SOL    HW1 4894   4.255   9.683   0.710 -1.2330  0.4417 -1.2537
 1224SOL    HW2 4895   4.134   9.673   0.800 -0.0439 -0.2651  0.3278
 1224SOL     MW 4896   4.197   9.720   0.764 -0.2925 -0.0557  0.1552
 1225SOL     OW 4897   3.793   9.623   5.177  0.7739 -0.1175  0.1124
 1225SOL    HW1 4898   3.721   9.680   5.150  0.6000 -0.2386  0.3172
 1225SOL    HW2 4899   3.753   9.561   5.238  1.4329  1.1301  1.9176
 1225SOL     MW 4900   3.778   9.623   5.182  0.8392  0.0341  0.3829
 1226SOL     OW 4901   4.911   8.832   9.702 -0.1055  0.2830  0.1859
 1226SOL    HW1 4902   4.969   8.805   9.773 -0.1736 -2.2981 -0.6221
 1226SOL    HW2 4903   4.829   8.786   9.719 -0.0355 -0.6160 -1.6333
 1226SOL     MW 4904   4.908   8.822   9.714 -0.1053 -0.1853 -0.1677
 1227SOL     OW 4905   5.244   1.716   7.377 -0.1724 -0.0244  0.1693
 1227SOL    HW1 4906   5.277   1.644   7.431  0.5245  0.6210  0.6398
 1227SOL    HW2 4907   5.164   1.683   7.337  1.8859 -2.3633 -2.4535
 1227SOL     MW 4908   5.238   1.702   7.379  0.1984 -0.2523 -0.1203
 1228SOL     OW 4909   4.272   9.152   9.878  0.3465 -0.4595 -0.0129
 1228SOL    HW1 4910   4.324   9.160   9.958  0.5129 -1.0858 -0.0496
 1228SOL    HW2 4911   4.208   9.084   9.898 -0.4811  0.3192  0.0345
 1228SOL     MW 4912   4.270   9.144   9.891  0.2575 -0.4390 -0.0115
 1229SOL     OW 4913   5.696   1.154   7.282  0.1067 -0.2071  0.3696
 1229SOL    HW1 4914   5.774   1.115   7.322  0.9522 -0.4271 -1.3885
 1229SOL    HW2 4915   5.688   1.240   7.324  2.4484  0.6271 -0.7345
 1229SOL     MW 4916   5.705   1.160   7.293  0.5356 -0.1244 -0.0156
 1230SOL     OW 4917   3.984   9.103   7.279 -0.1964 -0.1104 -0.0416
 1230SOL    HW1 4918   3.967   9.010   7.298  1.8877 -0.4296  0.5591
 1230SOL    HW2 4919   3.909   9.149   7.317 -1.0237 -1.4985  0.1115
 1230SOL     MW 4920   3.972   9.097   7.287 -0.0273 -0.3402  0.0598
 1231SOL     OW 4921   5.363   9.886   5.383 -0.1981  0.1310 -0.2299
 1231SOL    HW1 4922   5.435   9.876   5.446  0.2291 -0.4616 -0.8030
 1231SOL    HW2 4923   5.385   9.965   5.334 -0.3752  0.4235  0.1536
 1231SOL     MW 4924   5.376   9.896   5.385 -0.1645  0.0906 -0.2554
 1232SOL     OW 4925   5.688   8.957   9.423 -0.1950 -0.5123 -0.0190
 1232SOL    HW1 4926   5.742   8.977   9.347  0.7203  0.3176  0.8222
 1232SOL    HW2 4927   5.680   9.041   9.470 -1.7140 -0.7537  0.1888
 1232SOL     MW 4928   5.694   8.971   9.419 -0.2763 -0.4331  0.1222
 1233SOL     OW 4929   5.943   8.923   5.952 -0.1104  0.1448 -0.7131
 1233SOL    HW1 4930   5.864   8.892   5.908 -0.0887  0.6329 -1.1098
 1233SOL    HW2 4931   5.981   8.987   5.891  1.0367 -0.6897 -0.8956
 1233SOL     MW 4932   5.937   8.928   5.938  0.0469  0.0982 -0.7910
 1234SOL     OW 4933   5.891   8.758   6.604 -0.1256 -0.4163 -0.1309
 1234SOL    HW1 4934   5.830   8.701   6.652 -1.7460  0.8409 -0.6285
 1234SOL    HW2 4935   5.880   8.733   6.512  0.2815 -0.3215 -0.2073
 1234SOL     MW 4936   5.881   8.747   6.598 -0.2889 -0.2343 -0.2081
 1235SOL     OW 4937   7.480   8.210   0.582 -0.1693 -0.3359 -0.0220
 1235SOL    HW1 4938   7.452   8.160   0.658  0.2825 -0.5420  0.0070
 1235SOL    HW2 4939   7.520   8.146   0.524 -1.2656 -0.3385 -0.8184
 1235SOL     MW 4940   7.481   8.195   0.584 -0.2560 -0.3640 -0.1253
 1236SOL     OW 4941   4.946   7.766   1.522  0.6212 -0.3920  0.8661
 1236SOL    HW1 4942   4.935   7.861   1.533 -0.1246 -0.3308 -0.2472
 1236SOL    HW2 4943   5.019   7.744   1.580  2.5373  1.2852 -0.7535
 1236SOL     MW 4944   4.954   7.776   1.532  0.7787 -0.1580  0.4983
 1237SOL     OW 4945   5.327   1.265   1.869 -0.5813 -0.5587 -0.2119
 1237SOL    HW1 4946   5.237   1.285   1.896 -0.3639  1.4397 -0.8671
 1237SOL    HW2 4947   5.317   1.225   1.783 -0.8778 -1.0444  0.0418
 1237SOL     MW 4948   5.314   1.262   1.861 -0.5920 -0.3551 -0.2660
 1238SOL     OW 4949   4.512   8.068   1.482  0.7266 -0.2687  0.0871
 1238SOL    HW1 4950   4.562   8.149   1.474 -1.1712  1.0979  1.2075
 1238SOL    HW2 4951   4.545   8.026   1.562  1.9785 -0.8477 -0.7017
 1238SOL     MW 4952   4.523   8.073   1.492  0.6396 -0.1627  0.1317
 1239SOL     OW 4953   7.644   0.396   5.212 -0.3752 -0.0942 -0.1058
 1239SOL    HW1 4954   7.739   0.406   5.216 -0.6104  2.6599  0.8140
 1239SOL    HW2 4955   7.628   0.304   5.236  2.0371 -0.7593 -0.8086
 1239SOL     MW 4956   7.655   0.385   5.216 -0.0822  0.1869 -0.0766
 1240SOL     OW 4957   8.034  10.045   0.569 -0.4077 -1.0704  0.1379
 1240SOL    HW1 4958   8.017  10.037   0.475 -1.5550  2.0536 -0.0173
 1240SOL    HW2 4959   7.951  10.076   0.605  0.0576 -2.0796  2.2004
 1240SOL     MW 4960   8.020  10.048   0.561 -0.4995 -0.7858  0.3946
 1241SOL     OW 4961   6.987   8.927   5.168  0.0931 -0.1949 -0.3649
 1241SOL    HW1 4962   6.932   8.870   5.115 -0.6565  1.7694 -1.8461
 1241SOL    HW2 4963   6.929   8.957   5.238  0.2838 -0.6886  0.0105
 1241SOL     MW 4964   6.972   8.924   5.171  0.0179  0.0030 -0.5137
 1242SOL     OW 4965   6.751   7.897   4.159  0.5242 -0.0225 -0.3436
 1242SOL    HW1 4966   6.803   7.970   4.191 -0.0098  1.5738 -2.8234
 1242SOL    HW2 4967   6.674   7.896   4.215 -0.7522  3.1489 -1.7798
 1242SOL     MW 4968   6.748   7.906   4.171  0.2805  0.6191 -0.8706
 1243SOL     OW 4969   4.126   9.776   4.074 -0.2522 -0.6037  0.4709
 1243SOL    HW1 4970   4.211   9.813   4.050 -1.3538  2.0831  0.3450
 1243SOL    HW2 4971   4.097   9.729   3.996 -0.0211  0.7362 -0.4508
 1243SOL     MW 4972   4.133   9.775   4.061 -0.3694 -0.0618  0.3299
 1244SOL     OW 4973   7.667   8.643   8.405  0.3992 -0.2389  0.4349
 1244SOL    HW1 4974   7.609   8.703   8.357  1.8739  0.4512 -0.5923
 1244SOL    HW2 4975   7.673   8.566   8.349 -0.4621 -0.8326  1.1313
 1244SOL     MW 4976   7.660   8.641   8.391  0.4818 -0.2259  0.3904
 1245SOL     OW 4977   5.257   9.168   6.165 -0.5237  0.1293  0.0988
 1245SOL    HW1 4978   5.205   9.225   6.222  2.1249  0.9906  1.8763
 1245SOL    HW2 4979   5.295   9.104   6.224  0.7764 -0.1729 -1.0071
 1245SOL     MW 4980   5.255   9.167   6.181  0.0077  0.2045  0.1892
 1246SOL     OW 4981   6.305   9.991   5.999 -0.2779 -0.5295 -0.3546
 1246SOL    HW1 4982   6.288   9.896   5.994  0.7491 -0.7297 -0.1487
 1246SOL    HW2 4983   6.260  10.027   5.923  0.6554 -1.3956 -1.3430
 1246SOL     MW 4984   6.296   9.983   5.988 -0.0141 -0.6730 -0.4599
 1247SOL     OW 4985   5.309   8.844   9.548  0.3228 -0.5276  0.1908
 1247SOL    HW1 4986   5.346   8.878   9.466 -2.5038 -0.2978 -1.0925
 1247SOL    HW2 4987   5.305   8.750   9.535  0.3711 -0.5462  0.3070
 1247SOL     MW 4988   5.313   8.836   9.535 -0.0511 -0.4991  0.0337
 1248SOL     OW 4989   4.293   0.389   1.416 -0.2596  0.1616 -0.1751
 1248SOL    HW1 4990   4.362   0.354   1.473 -1.3504  1.7780  2.3127
 1248SOL    HW2 4991   4.340   0.444   1.353  0.8693 -0.4204  0.1114
 1248SOL     MW 4992   4.309   0.391   1.416 -0.2544  0.3008  0.1983
 1249SOL     OW 4993   6.466   1.414   6.343  0.9035 -0.1715  0.3912
 1249SOL    HW1 4994   6.533   1.347   6.328  1.5233 -0.3236  3.1947
 1249SOL    HW2 4995   6.512   1.497   6.330  1.1090 -0.2782  0.4316
 1249SOL     MW 4996   6.482   1.416   6.339  1.0146 -0.2063  0.7739
 1250SOL     OW 4997   4.462   0.237   9.578  0.2717  0.0912  0.1607
 1250SOL    HW1 4998   4.427   0.318   9.541  0.5405  0.3209  0.4085
 1250SOL    HW2 4999   4.556   0.251   9.581  0.1940  0.5265  1.9620
 1250SOL     MW 5000   4.470   0.250   9.573  0.2975  0.1807  0.4364
 1251SOL     OW 5001   8.094   9.333   9.033 -0.2302 -0.2260  0.1461
 1251SOL    HW1 5002   8.158   9.264   9.050 -0.4447  0.0881  2.5543
 1251SOL    HW2 5003   8.084   9.379   9.116 -2.2141  0.9257 -0.6321
 1251SOL     MW 5004   8.101   9.330   9.046 -0.5261 -0.0287  0.3655
 1252SOL     OW 5005   5.952   1.449   3.279  0.0006 -0.1255  0.1213
 1252SOL    HW1 5006   5.923   1.376   3.224  1.4856  0.7357 -1.9585
 1252SOL    HW2 5007   6.048   1.442   3.280  0.1277  1.2894  0.5921
 1252SOL     MW 5008   5.961   1.438   3.272  0.2176  0.1808 -0.0952
 1253SOL     OW 5009   7.333   0.692   8.392 -0.0745  0.0697  0.1267
 1253SOL    HW1 5010   7.266   0.663   8.455  0.5730 -0.4172  0.6006
 1253SOL    HW2 5011   7.391   0.748   8.443  0.6559 -0.6165  0.0620
 1253SOL     MW 5012   7.332   0.696   8.408  0.1109 -0.0882  0.1818
 1254SOL     OW 5013   4.039   8.632   0.134  0.0697  0.0927 -0.0201
 1254SOL    HW1 5014   4.041   8.715   0.182 -2.8943  0.0239  0.3595
 1254SOL    HW2 5015   4.131   8.604   0.131  1.0088  2.7885  0.8355
 1254SOL     MW 5016   4.052   8.639   0.140 -0.2028  0.4462  0.1461
 1255SOL     OW 5017   4.904   1.277   8.692  0.3271  0.9948  0.3033
 1255SOL    HW1 5018   4.962   1.226   8.637 -0.2131  0.3720  0.2934
 1255SOL    HW2 5019   4.878   1.217   8.762 -2.6502  0.2083 -1.2854
 1255SOL     MW 5020   4.908   1.262   8.694 -0.1463  0.8052  0.0881
 1256SOL     OW 5021   6.111   1.322   8.954  0.0063  0.2996  0.4096
 1256SOL    HW1 5022   6.179   1.357   8.896 -1.1747  2.8443  0.3934
 1256SOL    HW2 5023   6.043   1.390   8.953 -0.9712 -0.5253  3.1576
 1256SOL     MW 5024   6.111   1.336   8.946 -0.2842  0.5311  0.7773
 1257SOL     OW 5025   4.840   0.829   3.657 -0.3560  0.3487  0.0917
 1257SOL    HW1 5026   4.832   0.903   3.595 -2.2110  0.4115  0.3674
 1257SOL    HW2 5027   4.874   0.869   3.737  0.7003  0.5075 -0.4109
 1257SOL     MW 5028   4.843   0.845   3.659 -0.4635  0.3785  0.0611
 1258SOL     OW 5029   7.057   8.478   1.466 -0.3839 -0.1661 -0.3756
 1258SOL    HW1 5030   7.017   8.474   1.379  1.0280  0.3162 -1.0805
 1258SOL    HW2 5031   7.123   8.409   1.465  0.1949  0.3790  0.0202
 1258SOL     MW 5032   7.060   8.468   1.454 -0.1160 -0.0278 -0.4172
 1259SOL     OW 5033   4.314   0.545   4.716 -0.4121 -0.2467 -0.5683
 1259SOL    HW1 5034   4.223   0.516   4.722 -0.2295 -0.8024 -0.3934
 1259SOL    HW2 5035   4.317   0.599   4.637 -0.5872 -1.4003 -1.3838
 1259SOL     MW 5036   4.302   0.548   4.706 -0.4111 -0.4767 -0.6545
 1260SOL     OW 5037   4.564  10.150   8.363  0.2999 -0.2152 -0.3983
 1260SOL    HW1 5038   4.511  10.074   8.341  1.5611 -0.9549 -1.0090
 1260SOL    HW2 5039   4.635  10.150   8.298 -0.1870  2.0462 -1.0278
 1260SOL     MW 5040   4.566  10.140   8.351  0.4041 -0.0104 -0.5652
 1261SOL     OW 5041   7.574   9.971   7.861  0.3552  0.5541  0.3295
 1261SOL    HW1 5042   7.507   9.984   7.929  0.6483 -0.0122  0.7370
 1261SOL    HW2 5043   7.524   9.963   7.780 -0.2206 -1.6474  0.8503
 1261SOL     MW 5044   7.558   9.972   7.859  0.3172  0.1816  0.4544
 1262SOL     OW 5045   5.871   9.558   1.821  0.0560 -0.4851  0.5231
 1262SOL    HW1 5046   5.945   9.618   1.808 -0.4412  0.0834  0.2280
 1262SOL    HW2 5047   5.893   9.482   1.768  0.8377 -0.6972  1.1409
 1262SOL     MW 5048   5.884   9.556   1.812  0.0943 -0.4371  0.5666
 1263SOL     OW 5049   4.493   1.299   3.614  0.3260  0.5549  0.3175
 1263SOL    HW1 5050   4.487   1.380   3.663 -1.5851  0.1983  0.7482
 1263SOL    HW2 5051   4.570   1.254   3.650  0.6097  1.5557  0.9914
 1263SOL     MW 5052   4.503   1.304   3.625  0.1070  0.6416  0.4661
 1264SOL     OW 5053   5.151   1.539   7.799 -0.0942 -0.4505  0.0947
 1264SOL    HW1 5054   5.096   1.461   7.788  0.8451 -1.0606 -0.3296
 1264SOL    HW2 5055   5.093   1.612   7.777 -0.8235 -1.0614 -0.0616
 1264SOL     MW 5056   5.136   1.538   7.795 -0.0659 -0.6149  0.0166
 1265SOL     OW 5057   5.260   0.702   4.830  0.4778 -0.2661 -0.8974
 1265SOL    HW1 5058   5.181   0.749   4.805  1.3554  0.7672 -1.7842
 1265SOL    HW2 5059   5.266   0.630   4.767  1.1044  0.6061 -1.8460
 1265SOL     MW 5060   5.250   0.699   4.818  0.6802 -0.0096 -1.1444
 1266SOL     OW 5061   5.657   1.467   9.238 -0.1800  0.8609 -0.4916
 1266SOL    HW1 5062   5.590   1.534   9.245 -1.5531 -0.5155  0.3311
 1266SOL    HW2 5063   5.631   1.401   9.303  0.2257 -1.1959 -2.2959
 1266SOL     MW 5064   5.645   1.467   9.248 -0.3102  0.3989 -0.6237
 1267SOL     OW 5065   4.968   9.774   0.995  0.0750 -0.3076 -0.3748
 1267SOL    HW1 5066   4.988   9.683   1.016  0.3888 -0.4213 -1.1412
 1267SOL    HW2 5067   4.968   9.818   1.080  1.4722 -0.7177 -0.1291
 1267SOL     MW 5068   4.971   9.768   1.010  0.3053 -0.3781 -0.4449
 1268SOL     OW 5069   5.974  10.101   9.910 -0.0111 -0.5229 -0.6075
 1268SOL    HW1 5070   6.000  10.009   9.904  0.4767 -0.3117 -1.9180
 1268SOL    HW2 5071   6.026  10.146   9.844 -0.0995  0.7466  0.1398
 1268SOL     MW 5072   5.985  10.095   9.901  0.0426 -0.3237 -0.6833
 1269SOL     OW 5073   5.144  10.086   6.174 -0.0773  0.1241 -0.6346
 1269SOL    HW1 5074   5.229  10.045   6.186 -0.5321 -0.5616  0.4058
 1269SOL    HW2 5075   5.150  10.169   6.221  0.3540  0.5556 -1.4509
 1269SOL     MW 5076   5.156  10.091   6.182 -0.0805  0.0899 -0.6044
 1270SOL     OW 5077   5.890   0.234   0.930  0.0347  0.0670 -0.0756
 1270SOL    HW1 5078   5.818   0.206   0.874  0.7450 -1.1405 -0.4372
 1270SOL    HW2 5079   5.932   0.152   0.957  2.2510  0.7532 -1.2075
 1270SOL     MW 5080   5.886   0.219   0.926  0.4286 -0.0032 -0.2766
 1271SOL     OW 5081   6.303   1.611   6.862 -0.5571  0.3673  0.4736
 1271SOL    HW1 5082   6.382   1.573   6.824 -1.4731  0.2831 -1.4741
 1271SOL    HW2 5083   6.297   1.574   6.950  1.7171  0.6307  0.7920
 1271SOL     MW 5084   6.313   1.601   6.869 -0.3743  0.3914  0.2543
 1272SOL     OW 5085   4.909   1.275   6.788 -0.1281  0.7413  0.3963
 1272SOL    HW1 5086   4.836   1.234   6.741  1.3510 -1.3524 -0.2550
 1272SOL    HW2 5087   4.917   1.361   6.748 -1.1936  0.3703 -0.7073
 1272SOL     MW 5088   4.900   1.281   6.776 -0.0724  0.4096  0.1601
 1273SOL     OW 5089   4.774   0.282   8.264 -0.2522  0.1933 -0.1846
 1273SOL    HW1 5090   4.792   0.374   8.283  1.9961  0.0213 -1.2721
 1273SOL    HW2 5091   4.703   0.284   8.200  0.3258  1.2107 -0.8061
 1273SOL     MW 5092   4.767   0.295   8.258  0.1282  0.3071 -0.4146
 1274SOL     OW 5093   5.123   1.421   9.446 -0.1806 -0.0947 -0.6844
 1274SOL    HW1 5094   5.159   1.339   9.412 -0.8395 -0.6215 -0.1298
 1274SOL    HW2 5095   5.086   1.464   9.368 -0.3657 -0.6022 -0.8829
 1274SOL     MW 5096   5.123   1.416   9.431 -0.2942 -0.2339 -0.6364
 1275SOL     OW 5097   6.278   9.943   2.864 -0.2662 -0.1098 -0.0546
 1275SOL    HW1 5098   6.315   9.984   2.942  0.5502 -0.8604 -0.0305
 1275SOL    HW2 5099   6.238  10.015   2.816  0.4533  0.5846  0.3627
 1275SOL     MW 5100   6.277   9.958   2.868 -0.0595 -0.1174  0.0048
 1276SOL     OW 5101   4.385   9.456   5.633  0.4379 -0.2175 -0.1738
 1276SOL    HW1 5102   4.332   9.462   5.712  2.4062 -0.3005  1.2462
 1276SOL    HW2 5103   4.326   9.480   5.562 -1.5687 -0.7412  1.2309
 1276SOL     MW 5104   4.370   9.460   5.634  0.4327 -0.2992  0.2063
 1277SOL     OW 5105   4.659   8.576   9.609  0.0082  0.8834 -0.1873
 1277SOL    HW1 5106   4.695   8.602   9.693 -0.1336 -1.9943  0.8468
 1277SOL    HW2 5107   4.566   8.599   9.614  0.1289  1.2959  0.1646
 1277SOL     MW 5108   4.651   8.583   9.621  0.0053  0.5516 -0.0008
 1278SOL     OW 5109   7.575   0.157   0.237  0.1697  0.2268  0.0155
 1278SOL    HW1 5110   7.580   0.132   0.329  0.5999  1.1621  0.2595
 1278SOL    HW2 5111   7.619   0.242   0.232 -1.1303  0.9019 -0.7824
 1278SOL     MW 5112   7.581   0.165   0.248  0.0526  0.4435 -0.0590
 1279SOL     OW 5113   5.806   7.493   5.974  0.0505  0.5820 -0.1362
 1279SOL    HW1 5114   5.713   7.509   5.990  0.1995  0.7860  0.5751
 1279SOL    HW2 5115   5.850   7.530   6.051  0.5799 -1.3253  0.5524
 1279SOL     MW 5116   5.799   7.500   5.987  0.1418  0.3528  0.0522
 1280SOL     OW 5117   4.774   0.821   8.298 -0.5083 -0.0832 -0.3227
 1280SOL    HW1 5118   4.778   0.882   8.372  0.3080 -0.7727  0.2157
 1280SOL    HW2 5119   4.864   0.817   8.265 -0.5877 -0.8893 -0.4443
 1280SOL     MW 5120   4.786   0.829   8.303 -0.4091 -0.2845 -0.2666
 1281SOL     OW 5121   6.136   1.269   8.318 -0.1694 -0.6446  0.4438
 1281SOL    HW1 5122   6.190   1.197   8.287 -0.2836 -1.5414  2.1660
 1281SOL    HW2 5123   6.114   1.244   8.408 -1.1255  1.0322  0.7052
 1281SOL     MW 5124   6.140   1.256   8.326 -0.3134 -0.5396  0.7107
 1282SOL     OW 5125   5.129   9.192   5.415  0.3947  0.4608  0.1721
 1282SOL    HW1 5126   5.110   9.200   5.509  2.2489  1.3352  0.5102
 1282SOL    HW2 5127   5.194   9.123   5.409 -1.2390 -1.0854 -0.7499
 1282SOL     MW 5128   5.135   9.184   5.427  0.4244  0.3704  0.0935
 1283SOL     OW 5129   4.275   9.454   5.892  0.5484 -0.2913 -0.2013
 1283SOL    HW1 5130   4.205   9.389   5.895 -0.1276  0.4463  0.3772
 1283SOL    HW2 5131   4.244   9.526   5.947  2.0120 -0.1970  0.5602
 1283SOL     MW 5132   4.262   9.455   5.900  0.6544 -0.1793 -0.0209
 1284SOL     OW 5133   4.678   9.810   9.817 -0.0615 -0.5042  0.0849
 1284SOL    HW1 5134   4.614   9.875   9.789  1.6891  1.2157 -0.1417
 1284SOL    HW2 5135   4.703   9.764   9.736 -1.4338 -1.6343  0.2741
 1284SOL     MW 5136   4.673   9.813   9.802 -0.0106 -0.4248  0.0798
 1285SOL     OW 5137   7.694   8.589   6.894  0.6464  0.1768 -0.0298
 1285SOL    HW1 5138   7.733   8.503   6.880 -0.5827 -0.3587 -0.3153
 1285SOL    HW2 5139   7.637   8.577   6.970  0.8733  0.8934  0.2643
 1285SOL     MW 5140   7.692   8.576   6.902  0.5116  0.2012 -0.0287
 1286SOL     OW 5141   3.585   9.315   3.960 -0.2411 -0.6286 -0.3075
 1286SOL    HW1 5142   3.598   9.262   4.038  0.6135  0.0382  0.0139
 1286SOL    HW2 5143   3.637   9.271   3.892 -0.0776 -0.5676 -0.2190
 1286SOL     MW 5144   3.593   9.302   3.961 -0.1041 -0.5306 -0.2523
 1287SOL     OW 5145   3.824   0.192   0.226  0.0859 -0.4377 -0.6819
 1287SOL    HW1 5146   3.868   0.241   0.295  0.8666 -3.0363  0.7873
 1287SOL    HW2 5147   3.741   0.164   0.265 -0.2826 -0.4070 -1.4267
 1287SOL     MW 5148   3.819   0.195   0.240  0.1414 -0.7833 -0.5844
 1288SOL     OW 5149   4.451   9.695   7.563 -0.8099  0.0742  0.2605
 1288SOL    HW1 5150   4.537   9.730   7.585  0.0062 -1.9997  0.5985
 1288SOL    HW2 5151   4.420   9.654   7.643 -1.8810  0.3149 -0.0138
 1288SOL     MW 5152   4.459   9.694   7.576 -0.8442 -0.1725  0.2690
 1289SOL     OW 5153   3.845  10.062   5.760  0.6158  0.1493  0.0241
 1289SOL    HW1 5154   3.768  10.010   5.738  0.6536  0.1642 -0.1452
 1289SOL    HW2 5155   3.919  10.006   5.738  0.6578 -0.1617  0.8972
 1289SOL     MW 5156   3.844  10.047   5.754  0.6265  0.1094  0.1188
 1290SOL     OW 5157   7.867   0.101   9.799  0.5702 -0.4564 -0.4981
 1290SOL    HW1 5158   7.880   0.017   9.842  1.3748 -0.0504  0.0916
 1290SOL    HW2 5159   7.929   0.160   9.842  0.3596  0.3245 -1.2215
 1290SOL     MW 5160   7.877   0.098   9.811  0.6501 -0.2967 -0.5161
 1291SOL     OW 5161   4.348   0.603   2.112  0.2765  0.4265 -0.4329
 1291SOL    HW1 5162   4.325   0.567   2.026  1.5418  0.5572 -0.8453
 1291SOL    HW2 5163   4.432   0.646   2.098  0.0239  1.3050  0.6559
 1291SOL     MW 5164   4.356   0.604   2.099  0.4128  0.5623 -0.3419
 1292SOL     OW 5165   4.033   8.521  10.025  0.0336 -0.0986 -0.4310
 1292SOL    HW1 5166   4.008   8.541  10.115  1.1739  0.0091 -0.1239
 1292SOL    HW2 5167   4.082   8.440  10.031  1.2052  0.5701 -0.7795
 1292SOL     MW 5168   4.036   8.513  10.038  0.3447  0.0059 -0.4365
 1293SOL     OW 5169   4.233   0.635   7.539  0.1109  0.3610 -0.4111
 1293SOL    HW1 5170   4.149   0.596   7.561 -0.2611  1.0217 -0.6456
 1293SOL    HW2 5171   4.236   0.634   7.443  0.6417 -0.2194 -0.3982
 1293SOL     MW 5172   4.222   0.630   7.529  0.1323  0.3718 -0.4409
 1294SOL     OW 5173   7.426   0.667   8.879 -0.0273  0.6476 -0.3615
 1294SOL    HW1 5174   7.466   0.610   8.944  0.7512  0.4457 -1.0057
 1294SOL    HW2 5175   7.344   0.624   8.857  1.3400 -1.2352 -2.1563
 1294SOL     MW 5176   7.420   0.653   8.885  0.2615  0.3670 -0.6897
 1295SOL     OW 5177   5.836   8.924   4.122 -0.0560 -0.0725 -0.3856
 1295SOL    HW1 5178   5.830   9.020   4.124 -1.1156 -0.1301  0.1594
 1295SOL    HW2 5179   5.909   8.905   4.063  0.0278  1.0688 -0.6673
 1295SOL     MW 5180   5.845   8.934   4.114 -0.1873  0.0734 -0.3502
 1296SOL     OW 5181   4.367   9.668   1.601 -0.1027  0.2889 -0.1001
 1296SOL    HW1 5182   4.272   9.679   1.590 -0.2967 -0.7758  0.3939
 1296SOL    HW2 5183   4.397   9.752   1.634 -0.5834  1.2585 -1.9513
 1296SOL     MW 5184   4.358   9.681   1.604 -0.1935  0.2761 -0.2828
 1297SOL     OW 5185   5.483   9.170   5.261 -0.2354 -0.2826 -0.7552
 1297SOL    HW1 5186   5.570   9.138   5.237  0.2515  1.8181 -2.0237
 1297SOL    HW2 5187   5.496   9.214   5.345 -0.3480 -0.9611 -0.3704
 1297SOL     MW 5188   5.497   9.171   5.269 -0.1850 -0.0912 -0.8742
 1298SOL     OW 5189   4.322   0.033   4.342  0.1301  0.6573  0.2535
 1298SOL    HW1 5190   4.403   0.070   4.376  1.1555 -0.4699 -0.8446
 1298SOL    HW2 5191   4.326   0.050   4.248 -0.8991  0.5714  0.1843
 1298SOL     MW 5192   4.333   0.040   4.334  0.1296  0.4941  0.0964
 1299SOL     OW 5193   5.264   8.011   5.717 -0.4707  0.0931 -0.3419
 1299SOL    HW1 5194   5.223   8.096   5.731 -0.8594 -0.1585  0.0682
 1299SOL    HW2 5195   5.285   7.979   5.804 -1.5063 -0.8003 -0.4034
 1299SOL     MW 5196   5.261   8.018   5.730 -0.6624 -0.0610 -0.2950
 1300SOL     OW 5197   6.880   7.979   8.191 -0.1446  0.5297  0.1600
 1300SOL    HW1 5198   6.855   7.981   8.283 -0.2683  0.3868  0.1302
 1300SOL    HW2 5199   6.798   7.993   8.143  0.1781  2.4311  0.0896
 1300SOL     MW 5200   6.865   7.981   8.197 -0.1178  0.7664  0.1465
 1301SOL     OW 5201   6.764   8.410   0.866  0.2728  0.2836 -0.1550
 1301SOL    HW1 5202   6.706   8.338   0.839 -0.1966  0.8359 -0.6460
 1301SOL    HW2 5203   6.705   8.479   0.896  0.7222  0.4721  0.3147
 1301SOL     MW 5204   6.749   8.409   0.866  0.2701  0.3833 -0.1579
 1302SOL     OW 5205   4.804   0.181   8.544  0.0089  0.1272  0.5310
 1302SOL    HW1 5206   4.779   0.231   8.466  1.7859 -1.0789 -0.9205
 1302SOL    HW2 5207   4.824   0.247   8.610  0.5326  1.2986 -0.7361
 1302SOL     MW 5208   4.803   0.197   8.542  0.3185  0.1225  0.1651
 1303SOL     OW 5209   3.726   0.608   9.437 -0.0372  0.3213 -0.1423
 1303SOL    HW1 5210   3.795   0.651   9.487 -0.7006 -0.0157  1.1067
 1303SOL    HW2 5211   3.646   0.653   9.465 -0.7046 -1.4073  0.9053
 1303SOL     MW 5212   3.724   0.620   9.448 -0.2163  0.0433  0.1668
 1304SOL     OW 5213   7.228   9.102   7.013  0.4960 -0.2935 -0.0636
 1304SOL    HW1 5214   7.218   9.190   7.049  1.8013  0.5720 -1.6949
 1304SOL    HW2 5215   7.286   9.113   6.938  1.5127 -2.7129  0.2834
 1304SOL     MW 5216   7.234   9.115   7.007  0.8085 -0.5026 -0.2364
 1305SOL     OW 5217   5.762   0.557   0.814  0.4181 -0.7051 -0.1929
 1305SOL    HW1 5218   5.818   0.625   0.775 -0.7233  0.4981  0.2106
 1305SOL    HW2 5219   5.802   0.540   0.900  0.4597 -0.2026 -0.1061
 1305SOL     MW 5220   5.775   0.564   0.820  0.2701 -0.4756 -0.1269
 1306SOL     OW 5221   6.691  10.017   8.483  0.0848 -0.0180 -0.3710
 1306SOL    HW1 5222   6.745   9.938   8.477 -0.4645 -0.4586  0.4519
 1306SOL    HW2 5223   6.694  10.041   8.575  0.0703  0.8077 -0.5803
 1306SOL     MW 5224   6.699  10.010   8.495  0.0089  0.0339 -0.2884
 1307SOL     OW 5225   5.494   8.376   7.513  0.0281 -0.2121 -0.1234
 1307SOL    HW1 5226   5.437   8.318   7.564 -0.6787  0.8077  0.2684
 1307SOL    HW2 5227   5.501   8.456   7.565  0.5610  0.2635 -0.9030
 1307SOL     MW 5228   5.487   8.379   7.527  0.0047 -0.0109 -0.1756
 1308SOL     OW 5229   8.107   0.633   6.474 -0.5242 -0.5714 -0.1604
 1308SOL    HW1 5230   8.024   0.592   6.499 -1.4112  1.0364 -0.3239
 1308SOL    HW2 5231   8.152   0.647   6.557 -2.0979  1.9131  0.3940
 1308SOL     MW 5232   8.102   0.629   6.488 -0.8553 -0.0206 -0.1078
 1309SOL     OW 5233   4.260   0.155   1.659 -0.0841 -0.4947  0.2139
 1309SOL    HW1 5234   4.308   0.149   1.741 -2.0519 -1.9488  1.3615
 1309SOL    HW2 5235   4.168   0.160   1.685 -0.6508  1.9452 -1.8669
 1309SOL     MW 5236   4.254   0.155   1.673 -0.4252 -0.3620  0.0883
 1310SOL     OW 5237   7.527   1.159   6.305 -0.1275 -0.0134 -0.7079
 1310SOL    HW1 5238   7.606   1.130   6.351 -0.1808 -0.6221 -0.9822
 1310SOL    HW2 5239   7.456   1.108   6.344 -0.5396  1.2015  0.1791
 1310SOL     MW 5240   7.528   1.148   6.316 -0.1901  0.0682 -0.6254
 1311SOL     OW 5241   5.427   1.532   4.538 -0.6265 -0.1597  0.1352
 1311SOL    HW1 5242   5.419   1.604   4.476 -1.5709  1.8493  2.4402
 1311SOL    HW2 5243   5.337   1.508   4.559 -0.3373 -0.6576  0.8753
 1311SOL     MW 5244   5.414   1.538   4.532 -0.7147  0.0436  0.5450
 1312SOL     OW 5245   5.471   7.987   2.845 -0.3499  0.0239 -0.1991
 1312SOL    HW1 5246   5.536   7.943   2.791 -0.0666 -0.9947  0.9243
 1312SOL    HW2 5247   5.408   8.022   2.782  0.2399 -0.6630 -1.2113
 1312SOL     MW 5248   5.471   7.986   2.829 -0.2324 -0.2056 -0.1842
 1313SOL     OW 5249   4.598   0.416   5.522  0.1092 -0.0694 -0.4456
 1313SOL    HW1 5250   4.616   0.509   5.513 -0.4292  0.0203 -0.6477
 1313SOL    HW2 5251   4.508   0.412   5.553 -0.5587 -0.5440 -2.2858
 1313SOL     MW 5252   4.588   0.428   5.525 -0.0532 -0.1212 -0.7205
 1314SOL     OW 5253   7.455   8.827   2.488 -0.5247  0.3663  0.6029
 1314SOL    HW1 5254   7.468   8.918   2.513 -1.3867  0.3137  1.2766
 1314SOL    HW2 5255   7.424   8.830   2.398 -1.5141  0.7938  0.9527
 1314SOL     MW 5256   7.453   8.840   2.479 -0.7739  0.4168  0.7406
 1315SOL     OW 5257   3.662   0.064   9.587  0.3525 -0.1414  0.0233
 1315SOL    HW1 5258   3.705   0.149   9.593 -0.1680  0.1913 -0.7729
 1315SOL    HW2 5259   3.695   0.015   9.662  1.1502  0.5389  0.1306
 1315SOL     MW 5260   3.672   0.069   9.598  0.3898 -0.0051 -0.0694
 1316SOL     OW 5261   6.899   8.795   8.362  0.0768  0.4399 -0.0285
 1316SOL    HW1 5262   6.911   8.887   8.336 -1.3942  0.3072 -1.3316
 1316SOL    HW2 5263   6.804   8.786   8.371  0.2530 -0.7925  0.8011
 1316SOL     MW 5264   6.888   8.806   8.360 -0.0974  0.2562 -0.0922
 1317SOL     OW 5265   6.721   7.609   4.781 -0.3855  0.4466  0.0718
 1317SOL    HW1 5266   6.748   7.662   4.855 -1.7343  0.0528  0.8737
 1317SOL    HW2 5267   6.696   7.524   4.819 -1.6855  0.4384 -0.7172
 1317SOL     MW 5268   6.721   7.605   4.796 -0.7420  0.3925  0.0735
 1318SOL     OW 5269   6.750   8.822   3.015  0.2132  0.1026 -0.1398
 1318SOL    HW1 5270   6.706   8.773   3.085  1.2053 -0.8511 -0.1531
 1318SOL    HW2 5271   6.820   8.764   2.986  1.0475  1.3083 -0.5838
 1318SOL     MW 5272   6.753   8.807   3.020  0.4590  0.1365 -0.2013
 1319SOL     OW 5273   5.647   8.174   2.926  0.7432 -0.0198  0.1361
 1319SOL    HW1 5274   5.660   8.168   3.021 -0.5105 -1.5924  0.2380
 1319SOL    HW2 5275   5.580   8.109   2.907  0.5034  0.7390 -1.7553
 1319SOL     MW 5276   5.640   8.164   2.936  0.5422 -0.1293 -0.1047
 1320SOL     OW 5277   7.556   0.066   0.515  0.2418 -0.5048 -0.2630
 1320SOL    HW1 5278   7.599  -0.013   0.481  1.3319  1.0317 -2.7897
 1320SOL    HW2 5279   7.623   0.107   0.570  1.2145  0.5429 -2.0946
 1320SOL     MW 5280   7.571   0.061   0.518  0.5194 -0.1570 -0.8495
 1321SOL     OW 5281   4.307   0.576   7.044 -0.7043  0.4934 -0.1313
 1321SOL    HW1 5282   4.342   0.661   7.018  0.2207  0.0878 -0.2388
 1321SOL    HW2 5283   4.248   0.551   6.972  1.8538 -0.6352 -1.9777
 1321SOL     MW 5284   4.304   0.584   7.031 -0.2356  0.2869 -0.3943
 1322SOL     OW 5285   5.155   8.753   1.375  0.1776 -0.2974  0.0224
 1322SOL    HW1 5286   5.082   8.782   1.430 -0.6107 -0.2822 -0.9999
 1322SOL    HW2 5287   5.159   8.658   1.390  0.6850 -0.1362  0.9369
 1322SOL     MW 5288   5.145   8.744   1.384  0.1398 -0.2737  0.0079
 1323SOL     OW 5289   7.366   8.849   7.682  0.1906 -0.4141 -0.0472
 1323SOL    HW1 5290   7.385   8.839   7.589  0.3448  0.9304 -0.1826
 1323SOL    HW2 5291   7.310   8.927   7.687  0.4262 -0.2956  1.0143
 1323SOL     MW 5292   7.361   8.858   7.670  0.2431 -0.2172  0.0774
 1324SOL     OW 5293   5.753   0.061   5.652 -0.0526 -0.0330  0.5933
 1324SOL    HW1 5294   5.815   0.128   5.624 -1.0294  0.3762 -0.6522
 1324SOL    HW2 5295   5.668   0.091   5.620 -0.7261 -1.1611  1.2500
 1324SOL     MW 5296   5.750   0.074   5.644 -0.2747 -0.1297  0.5141
 1325SOL     OW 5297   4.202   8.408   3.291 -0.0381  0.3908 -0.4313
 1325SOL    HW1 5298   4.181   8.468   3.220 -0.8733 -0.3188 -0.7990
 1325SOL    HW2 5299   4.287   8.438   3.324 -0.2637  1.5239 -0.8601
 1325SOL     MW 5300   4.211   8.420   3.286 -0.1809  0.4478 -0.5385
 1326SOL     OW 5301   4.429   0.302   6.477 -0.1886  0.4565  0.5416
 1326SOL    HW1 5302   4.460   0.296   6.387 -1.0179 -2.0484  0.3481
 1326SOL    HW2 5303   4.499   0.349   6.523  1.2395 -0.0546 -0.9987
 1326SOL     MW 5304   4.443   0.307   6.471 -0.1080  0.0506  0.3083
 1327SOL     OW 5305   7.361   8.998   4.918 -0.4159  0.4190 -0.1141
 1327SOL    HW1 5306   7.280   9.049   4.915 -1.3552 -1.0529 -0.5228
 1327SOL    HW2 5307   7.364   8.964   5.008 -0.8407 -0.4558 -0.4304
 1327SOL     MW 5308   7.351   9.001   4.930 -0.5995  0.1032 -0.2116
 1328SOL     OW 5309   5.418   9.482   1.842 -0.6962 -0.0357  0.4014
 1328SOL    HW1 5310   5.326   9.503   1.822 -1.0731 -1.1767  0.8735
 1328SOL    HW2 5311   5.467   9.519   1.769 -1.6440 -0.4493 -0.4698
 1328SOL     MW 5312   5.412   9.490   1.830 -0.8745 -0.2449  0.3477
 1329SOL     OW 5313   5.476   0.705   0.867  0.1104 -0.7529  0.2363
 1329SOL    HW1 5314   5.462   0.756   0.788 -0.3401 -0.4180  0.5272
 1329SOL    HW2 5315   5.568   0.679   0.863  0.0259 -0.9462 -0.5159
 1329SOL     MW 5316   5.487   0.708   0.856  0.0384 -0.7338  0.1742
 1330SOL     OW 5317   5.427   0.450   9.659  0.2708  0.1461 -0.6274
 1330SOL    HW1 5318   5.480   0.482   9.732  0.2959 -0.0932 -0.5405
 1330SOL    HW2 5319   5.337   0.456   9.691  0.1839  1.2754 -1.0519
 1330SOL     MW 5320   5.422   0.455   9.673  0.2625  0.2658 -0.6728
 1331SOL     OW 5321   7.659   9.132   8.256  0.5811 -0.0413 -0.2853
 1331SOL    HW1 5322   7.695   9.046   8.278  0.1185 -0.5694 -1.4900
 1331SOL    HW2 5323   7.654   9.178   8.340  2.1394 -0.6731  0.1922
 1331SOL     MW 5324   7.663   9.127   8.271  0.7285 -0.1974 -0.3832
 1332SOL     OW 5325   7.074   1.203   5.318  0.9578  0.0645 -0.3891
 1332SOL    HW1 5326   7.149   1.235   5.368  0.3479  1.1311 -0.1210
 1332SOL    HW2 5327   7.034   1.282   5.282  0.0493 -0.5015 -0.6529
 1332SOL     MW 5328   7.079   1.218   5.320  0.7535  0.1319 -0.3885
 1333SOL     OW 5329   5.069   9.384   7.444 -0.4733 -0.0053 -0.5428
 1333SOL    HW1 5330   5.105   9.309   7.397  0.5522  0.5023 -0.5974
 1333SOL    HW2 5331   5.024   9.346   7.519  0.6977 -0.6474 -0.1476
 1333SOL     MW 5332   5.068   9.369   7.448 -0.1777 -0.0234 -0.4969
 1334SOL     OW 5333   6.149   8.867   5.216  0.1282 -0.0663 -0.2149
 1334SOL    HW1 5334   6.175   8.775   5.225  2.0369  0.4071 -0.6026
 1334SOL    HW2 5335   6.056   8.863   5.193  0.0942 -1.8813  0.0858
 1334SOL     MW 5336   6.140   8.854   5.214  0.3805 -0.2468 -0.2266
 1335SOL     OW 5337   6.230   8.344   7.926 -0.0915  0.0834  0.0397
 1335SOL    HW1 5338   6.177   8.310   7.855  0.4624  1.2064 -0.9361
 1335SOL    HW2 5339   6.294   8.275   7.943  0.7730  0.4283 -1.6440
 1335SOL     MW 5340   6.232   8.330   7.919  0.0994  0.2809 -0.3182
 1336SOL     OW 5341   7.341   9.147   2.261 -0.2183  0.0979 -0.5775
 1336SOL    HW1 5342   7.436   9.159   2.264 -0.2626  0.2704  0.6843
 1336SOL    HW2 5343   7.329   9.055   2.235  0.2901  0.1644 -1.0485
 1336SOL     MW 5344   7.352   9.136   2.258 -0.1558  0.1301 -0.4711
 1337SOL     OW 5345   7.873   0.028   4.723 -0.4669 -0.0082  0.9525
 1337SOL    HW1 5346   7.809  -0.034   4.689  0.9202 -1.1121  0.2330
 1337SOL    HW2 5347   7.954   0.007   4.675  0.1283  2.1663  0.9072
 1337SOL     MW 5348   7.875   0.017   4.712 -0.2001  0.1359  0.8496
 1338SOL     OW 5349   4.968   9.974   2.059 -0.2684 -0.3997 -0.1492
 1338SOL    HW1 5350   4.878   9.941   2.058 -1.6430  2.9609 -1.3054
 1338SOL    HW2 5351   5.021   9.901   2.027 -2.7319 -2.0853 -0.6300
 1338SOL     MW 5352   4.963   9.960   2.054 -0.7850 -0.1743 -0.3695
 1339SOL     OW 5353   5.540   2.091   6.518 -0.1101 -0.2751  0.3597
 1339SOL    HW1 5354   5.523   2.086   6.612 -0.8207 -1.1261  0.1980
 1339SOL    HW2 5355   5.611   2.029   6.503  0.5192  0.4092  0.4357
 1339SOL     MW 5356   5.547   2.082   6.528 -0.1210 -0.2975  0.3482
 1340SOL     OW 5357   6.587   8.850   9.698  0.0578 -0.1132 -0.1031
 1340SOL    HW1 5358   6.605   8.788   9.627 -0.4138 -1.0391  0.5673
 1340SOL    HW2 5359   6.583   8.796   9.777 -0.1860  0.8030  0.5266
 1340SOL     MW 5360   6.589   8.835   9.699 -0.0385 -0.1145  0.0719
 1341SOL     OW 5361   3.660   9.767   7.550  0.1668  0.0174 -0.0165
 1341SOL    HW1 5362   3.687   9.812   7.630  0.9254  0.0632 -0.2902
 1341SOL    HW2 5363   3.564   9.769   7.553  0.1712  1.6144  0.0016
 1341SOL     MW 5364   3.651   9.774   7.561  0.2695  0.2385 -0.0509
 1342SOL     OW 5365   5.741   7.981   3.381  0.0619 -0.1338 -0.4394
 1342SOL    HW1 5366   5.692   7.914   3.333 -1.1862  0.0981  0.4638
 1342SOL    HW2 5367   5.681   8.011   3.449  1.1830  0.7528  0.2033
 1342SOL     MW 5368   5.727   7.976   3.384  0.0448  0.0167 -0.2313
 1343SOL     OW 5369   3.619   0.100   2.464 -0.2627  0.4813 -0.2988
 1343SOL    HW1 5370   3.655   0.130   2.381 -0.2269 -0.1926 -0.5324
 1343SOL    HW2 5371   3.525   0.094   2.449 -0.2300  0.1258 -0.3679
 1343SOL     MW 5372   3.611   0.103   2.451 -0.2535  0.3428 -0.3395
 1344SOL     OW 5373   4.903   9.534   5.986 -0.3193  0.4673  0.2675
 1344SOL    HW1 5374   4.987   9.562   6.021 -0.5284 -1.0990  2.1625
 1344SOL    HW2 5375   4.915   9.536   5.891  2.6977 -1.9629  0.4217
 1344SOL     MW 5376   4.916   9.538   5.978  0.0586 -0.0706  0.5433
 1345SOL     OW 5377   7.423   8.881   6.124  0.4397  0.4841  0.0646
 1345SOL    HW1 5378   7.352   8.945   6.122  0.4561  0.5080 -2.0026
 1345SOL    HW2 5379   7.493   8.922   6.072  0.8432 -0.7723 -0.4146
 1345SOL     MW 5380   7.423   8.895   6.117  0.4962  0.3182 -0.2781
 1346SOL     OW 5381   6.166   7.779   3.732  0.0621 -0.1135 -0.0451
 1346SOL    HW1 5382   6.201   7.800   3.819 -0.9380  0.9383  0.1330
 1346SOL    HW2 5383   6.079   7.820   3.731  0.7903  1.5497 -2.2280
 1346SOL     MW 5384   6.159   7.788   3.744  0.0255  0.2519 -0.3149
 1347SOL     OW 5385   7.234   1.534   8.990 -0.1080 -0.1924 -0.3319
 1347SOL    HW1 5386   7.236   1.459   8.931  2.5644  0.5731 -1.3860
 1347SOL    HW2 5387   7.215   1.609   8.932 -1.6047  0.1050  0.5076
 1347SOL     MW 5388   7.232   1.534   8.974  0.0502 -0.0494 -0.3608
 1348SOL     OW 5389   5.823   7.802   9.131 -0.2326 -0.0109  0.5232
 1348SOL    HW1 5390   5.818   7.893   9.161 -0.6727 -0.0775  0.6594
 1348SOL    HW2 5391   5.910   7.794   9.093 -0.0722  0.3808  0.8021
 1348SOL     MW 5392   5.834   7.813   9.130 -0.2702  0.0329  0.5790
 1349SOL     OW 5393   5.151   8.476   1.345  0.1598 -0.0391  0.5506
 1349SOL    HW1 5394   5.068   8.428   1.351 -0.2241  0.5645  0.2152
 1349SOL    HW2 5395   5.177   8.469   1.253 -1.3168  2.6287 -0.1955
 1349SOL     MW 5396   5.143   8.469   1.333 -0.0906  0.4012  0.4051
 1350SOL     OW 5397   3.493   9.186   4.391  0.3089  0.7801 -0.3973
 1350SOL    HW1 5398   3.521   9.257   4.448  2.0357 -0.0735 -0.1138
 1350SOL    HW2 5399   3.516   9.106   4.439 -1.6046  0.0027 -0.6890
 1350SOL     MW 5400   3.500   9.184   4.405  0.2837  0.5606 -0.3984
 1351SOL     OW 5401   7.049   0.706   9.506 -0.0006  0.3350  0.3031
 1351SOL    HW1 5402   7.056   0.611   9.493  1.0932  0.5676 -1.0277
 1351SOL    HW2 5403   6.996   0.736   9.432  1.2531  0.9728 -0.3669
 1351SOL     MW 5404   7.043   0.697   9.494  0.3153  0.4521  0.0338
 1352SOL     OW 5405   7.914   8.634   9.307 -0.3022 -0.2693  0.1074
 1352SOL    HW1 5406   7.829   8.618   9.265 -0.0694 -2.5603  0.4026
 1352SOL    HW2 5407   7.938   8.550   9.346  1.6435  0.6012  0.9147
 1352SOL     MW 5408   7.905   8.620   9.307 -0.0090 -0.4604  0.2558
 1353SOL     OW 5409   5.056   9.093   4.654 -0.7069  0.4006  0.4131
 1353SOL    HW1 5410   5.140   9.053   4.631 -0.3285  1.8596 -0.8770
 1353SOL    HW2 5411   5.063   9.109   4.748  0.2967  0.1467  0.3939
 1353SOL     MW 5412   5.068   9.089   4.664 -0.5209  0.5628  0.2369
 1354SOL     OW 5413   6.542   9.434   1.235 -0.1654  0.2991  0.1427
 1354SOL    HW1 5414   6.584   9.374   1.174  0.3031  0.0140  0.7305
 1354SOL    HW2 5415   6.541   9.518   1.189 -0.4104 -0.0491 -0.5060
 1354SOL     MW 5416   6.548   9.437   1.221 -0.1353  0.2138  0.1345
 1355SOL     OW 5417   5.222   8.319   3.582  0.1469 -0.5138  0.6622
 1355SOL    HW1 5418   5.181   8.387   3.636  0.6002 -0.3036  0.7390
 1355SOL    HW2 5419   5.156   8.300   3.515  0.2083  0.3726  0.3317
 1355SOL     MW 5420   5.207   8.326   3.580  0.2162 -0.3663  0.6281
 1356SOL     OW 5421   6.063   9.751   4.223  0.2222 -0.1851  0.4697
 1356SOL    HW1 5422   6.076   9.786   4.311  0.0502  0.5484  0.2191
 1356SOL    HW2 5423   6.019   9.822   4.176  0.5670 -0.4572 -0.2841
 1356SOL     MW 5424   6.059   9.766   4.228  0.2454 -0.1230  0.3345
 1357SOL     OW 5425   4.547   8.551   5.335  0.4549  0.1581  0.1606
 1357SOL    HW1 5426   4.537   8.608   5.411  0.5037 -0.4822  0.6603
 1357SOL    HW2 5427   4.552   8.611   5.260  0.7908  0.8136  0.6976
 1357SOL     MW 5428   4.546   8.567   5.335  0.5067  0.1601  0.3001
 1358SOL     OW 5429   4.216   9.596   2.582 -0.0720  0.0926 -0.3110
 1358SOL    HW1 5430   4.252   9.598   2.671  0.1722  0.9543 -0.4133
 1358SOL    HW2 5431   4.211   9.688   2.556  0.8402 -0.1745 -1.5780
 1358SOL     MW 5432   4.221   9.609   2.590  0.0836  0.1726 -0.4953
 1359SOL     OW 5433   5.053   9.911   7.181  0.1205 -0.1701 -0.0189
 1359SOL    HW1 5434   5.134   9.923   7.231  0.0675 -2.5866  0.7926
 1359SOL    HW2 5435   4.988   9.886   7.247 -0.3690 -1.7732 -1.0289
 1359SOL     MW 5436   5.055   9.909   7.197  0.0475 -0.7110 -0.0456
 1360SOL     OW 5437   7.216   8.254   8.205  0.1454  0.5183  0.1831
 1360SOL    HW1 5438   7.273   8.303   8.145 -0.5958  1.7085  0.4139
 1360SOL    HW2 5439   7.159   8.203   8.147  0.0844  0.9080 -0.1027
 1360SOL     MW 5440   7.216   8.254   8.189  0.0374  0.7309  0.1757
 1361SOL     OW 5441   6.044   0.990   3.079 -0.6653  0.3507  0.3439
 1361SOL    HW1 5442   5.989   0.913   3.096  0.5813 -0.5721  0.2789
 1361SOL    HW2 5443   6.028   1.011   2.987  1.7038 -2.1190 -0.7548
 1361SOL     MW 5444   6.034   0.983   3.069 -0.1787 -0.1058  0.1873
 1362SOL     OW 5445   6.554   1.061   2.824  0.1173 -0.4954 -0.5226
 1362SOL    HW1 5446   6.601   1.143   2.810  0.5119 -0.5263  0.5145
 1362SOL    HW2 5447   6.476   1.086   2.872 -0.7074 -0.5098 -1.8088
 1362SOL     MW 5448   6.550   1.075   2.829  0.0594 -0.5015 -0.5561
 1363SOL     OW 5449   3.890   9.659   9.009 -0.5848 -0.5789 -0.4603
 1363SOL    HW1 5450   3.834   9.697   8.942 -0.9530  1.9567  1.1520
 1363SOL    HW2 5451   3.979   9.684   8.984 -0.5860 -0.7844 -0.6755
 1363SOL     MW 5452   3.894   9.667   8.997 -0.6345 -0.2653 -0.2722
 1364SOL     OW 5453   5.940   9.872   5.848 -0.5391  0.3934  0.4359
 1364SOL    HW1 5454   5.923   9.814   5.774 -1.8752  1.3645 -0.0618
 1364SOL    HW2 5455   5.980   9.816   5.914  0.9409 -0.4393 -1.1012
 1364SOL     MW 5456   5.943   9.857   5.847 -0.5197  0.4120  0.1621
 1365SOL     OW 5457   7.454   9.729   2.501 -0.1665  0.1994 -0.2455
 1365SOL    HW1 5458   7.548   9.747   2.500  0.1396 -1.0450  1.4800
 1365SOL    HW2 5459   7.418   9.787   2.434  1.8775  0.3149 -1.3247
 1365SOL     MW 5460   7.462   9.739   2.492  0.1498  0.0475 -0.1585
 1366SOL     OW 5461   4.787   0.102   1.748 -0.1881  0.6375 -0.0282
 1366SOL    HW1 5462   4.769   0.196   1.746  1.1381  0.9210 -0.0825
 1366SOL    HW2 5463   4.858   0.093   1.811  0.6100 -0.1454 -0.9997
 1366SOL     MW 5464   4.794   0.114   1.756  0.0978  0.5703 -0.1662
 1367SOL     OW 5465   5.534   8.242   9.636 -0.3456  0.2003  0.2320
 1367SOL    HW1 5466   5.545   8.216   9.727 -0.1096 -0.6525 -0.0247
 1367SOL    HW2 5467   5.602   8.194   9.589 -1.6043 -0.8205 -0.6382
 1367SOL     MW 5468   5.544   8.232   9.642 -0.4832 -0.0518  0.0803
 1368SOL     OW 5469   6.081  10.105   5.879  0.1554  0.4872  0.0903
 1368SOL    HW1 5470   6.019  10.039   5.847  0.5936 -0.2757  0.8055
 1368SOL    HW2 5471   6.033  10.152   5.947 -0.2674  1.1440 -0.6355
 1368SOL     MW 5472   6.066  10.102   5.884  0.1575  0.4729  0.0888
 1369SOL     OW 5473   6.900   1.142   1.090  0.1899  0.6397 -0.4266
 1369SOL    HW1 5474   6.991   1.169   1.080 -0.1206  1.1010 -2.2197
 1369SOL    HW2 5475   6.850   1.207   1.042 -0.9178 -0.7914 -1.2961
 1369SOL     MW 5476   6.905   1.154   1.082 -0.0009  0.5092 -0.7849
 1370SOL     OW 5477   6.760   1.377   1.514  0.4584  0.4290  0.2414
 1370SOL    HW1 5478   6.751   1.445   1.580  0.9956  0.7420  0.0042
 1370SOL    HW2 5479   6.686   1.318   1.529  0.5790  0.4823  1.1291
 1370SOL     MW 5480   6.749   1.378   1.525  0.5469  0.4783  0.3289
 1371SOL     OW 5481   3.793   9.230   7.444 -0.2555 -0.0406 -0.0469
 1371SOL    HW1 5482   3.767   9.256   7.356 -1.6647  0.5098  0.4992
 1371SOL    HW2 5483   3.792   9.311   7.495 -0.1347 -0.4546  0.6347
 1371SOL     MW 5484   3.789   9.244   7.439 -0.4289 -0.0223  0.1183
 1372SOL     OW 5485   6.804   9.474   8.472 -0.1192  0.1936 -0.4309
 1372SOL    HW1 5486   6.724   9.449   8.426 -0.3540  0.3814 -0.1174
 1372SOL    HW2 5487   6.840   9.391   8.505 -1.4957  0.3494  1.6083
 1372SOL     MW 5488   6.798   9.460   8.470 -0.3361  0.2398 -0.1143
 1373SOL     OW 5489   6.142   0.787   1.859 -0.4447  0.4346  0.1483
 1373SOL    HW1 5490   6.059   0.826   1.834 -1.6890 -1.1285  1.6275
 1373SOL    HW2 5491   6.122   0.695   1.874  2.2613 -0.7969 -2.7204
 1373SOL     MW 5492   6.128   0.780   1.858 -0.2480  0.0585 -0.0387
 1374SOL     OW 5493   4.369   0.809   8.611  0.1061  0.0205  0.2356
 1374SOL    HW1 5494   4.444   0.756   8.586  0.0131  0.3143 -0.7231
 1374SOL    HW2 5495   4.293   0.763   8.574 -0.2775 -0.6694  1.8265
 1374SOL     MW 5496   4.369   0.796   8.602  0.0420 -0.0328  0.3207
 1375SOL     OW 5497   5.286   9.461   5.819  0.1393 -0.2304 -0.3463
 1375SOL    HW1 5498   5.252   9.383   5.863 -0.4296  0.1328 -0.1252
 1375SOL    HW2 5499   5.213   9.492   5.766 -0.2724  1.1798  0.9708
 1375SOL     MW 5500   5.272   9.455   5.818  0.0073  0.0082 -0.1393
 1376SOL     OW 5501   5.487  10.091   8.716 -0.6235  0.2977  0.7954
 1376SOL    HW1 5502   5.556  10.078   8.781 -0.6383  0.3739  0.8269
 1376SOL    HW2 5503   5.523  10.158   8.657 -0.1239 -0.6121  0.0363
 1376SOL     MW 5504   5.501  10.098   8.716 -0.5582  0.1855  0.6975
 1377SOL     OW 5505   7.224   1.210   1.849  0.3532  0.3607 -0.4335
 1377SOL    HW1 5506   7.178   1.255   1.920  1.4617  0.6188  0.1468
 1377SOL    HW2 5507   7.188   1.248   1.769  0.2017  1.1952  0.0211
 1377SOL     MW 5508   7.213   1.221   1.848  0.4820  0.5078 -0.2942
 1378SOL     OW 5509   4.685   9.978   3.237 -0.1873 -0.1922  0.1403
 1378SOL    HW1 5510   4.703   9.940   3.323  0.5470 -0.3277 -0.0640
 1378SOL    HW2 5511   4.689  10.072   3.251 -0.0142 -0.2136  0.2398
 1378SOL     MW 5512   4.688   9.985   3.251 -0.0652 -0.2133  0.1262
 1379SOL     OW 5513   5.712   9.474   6.682  0.1674 -0.2322 -0.2151
 1379SOL    HW1 5514   5.801   9.492   6.711 -0.4592  0.8297  1.1801
 1379SOL    HW2 5515   5.720   9.451   6.590  1.9581 -0.9529  0.0879
 1379SOL     MW 5516   5.725   9.473   6.674  0.3241 -0.1863  0.0134
 1380SOL     OW 5517   4.571   8.704   9.149  0.0573  0.3418 -0.5174
 1380SOL    HW1 5518   4.623   8.749   9.082  0.5251 -0.1432 -0.4847
 1380SOL    HW2 5519   4.631   8.694   9.223 -0.6842  1.5840  0.2915
 1380SOL     MW 5520   4.586   8.709   9.150  0.0205  0.4437 -0.4041
 1381SOL     OW 5521   5.688   1.629   7.518 -0.2685 -0.2093 -0.0388
 1381SOL    HW1 5522   5.598   1.641   7.547 -0.5639  1.1814 -1.4121
 1381SOL    HW2 5523   5.740   1.641   7.598 -1.1827  1.1467  0.3891
 1381SOL     MW 5524   5.683   1.632   7.533 -0.4313  0.1603 -0.1660
 1382SOL     OW 5525   4.593  10.137   6.861  0.5489  0.6701 -0.5317
 1382SOL    HW1 5526   4.573  10.129   6.768 -0.6426  1.6899 -0.3839
 1382SOL    HW2 5527   4.645  10.059   6.881  1.2738  0.6972 -2.1571
 1382SOL     MW 5528   4.597  10.126   6.851  0.4861  0.8110 -0.7305
 1383SOL     OW 5529   8.070   0.674   7.419  0.3014  0.5647  0.0385
 1383SOL    HW1 5530   8.046   0.698   7.508  0.4959  1.4375 -0.1282
 1383SOL    HW2 5531   8.048   0.752   7.367  1.3185  0.5280 -0.4712
 1383SOL     MW 5532   8.064   0.688   7.424  0.4645  0.6772 -0.0525
 1384SOL     OW 5533   6.077   0.812   0.910 -0.7745 -0.2441  0.3440
 1384SOL    HW1 5534   6.003   0.849   0.958  0.5799  1.5523  1.1858
 1384SOL    HW2 5535   6.102   0.735   0.960 -0.6458  0.4607  1.4069
 1384SOL     MW 5536   6.070   0.807   0.923 -0.5749  0.0925  0.6003
 1385SOL     OW 5537   7.023  10.103   4.076 -0.2422 -0.6538  0.2598
 1385SOL    HW1 5538   6.928  10.104   4.064 -0.1477  1.9236 -0.8870
 1385SOL    HW2 5539   7.042  10.179   4.130  1.1130 -1.8846  1.6295
 1385SOL     MW 5540   7.013  10.113   4.081 -0.0471 -0.4726  0.2898
 1386SOL     OW 5541   4.380   8.890   9.408  0.5509  0.3736  0.0958
 1386SOL    HW1 5542   4.413   8.818   9.462  0.5756  0.9453  0.8671
 1386SOL    HW2 5543   4.335   8.947   9.470 -0.5833  0.3758 -0.7151
 1386SOL     MW 5544   4.378   8.888   9.423  0.4016  0.4509  0.0905
 1387SOL     OW 5545   3.965   0.254   5.553  0.1453 -0.5737 -0.1836
 1387SOL    HW1 5546   3.880   0.230   5.590  0.5538 -0.5218  0.8180
 1387SOL    HW2 5547   3.988   0.181   5.496 -1.1594  0.0011 -1.4891
 1387SOL     MW 5548   3.957   0.241   5.550  0.0247 -0.4894 -0.2245
 1388SOL     OW 5549   4.133   9.481   4.036 -0.3903 -0.4734  0.1683
 1388SOL    HW1 5550   4.222   9.465   4.066  0.3198 -0.2571 -1.6850
 1388SOL    HW2 5551   4.136   9.463   3.942 -1.8577  1.2499 -0.2614
 1388SOL     MW 5552   4.145   9.476   4.027 -0.4922 -0.2124 -0.1389
 1389SOL     OW 5553   7.583   0.107   5.213  0.0439 -0.1021 -0.2661
 1389SOL    HW1 5554   7.523   0.118   5.287  0.6421 -1.8654  0.5353
 1389SOL    HW2 5555   7.527   0.077   5.142 -0.2085 -0.5594  0.1187
 1389SOL     MW 5556   7.567   0.105   5.214  0.0904 -0.4010 -0.1064
 1390SOL     OW 5557   6.590   0.413   5.910  0.0118 -0.1965 -0.1239
 1390SOL    HW1 5558   6.669   0.362   5.930  0.1095  0.5084  1.4211
 1390SOL    HW2 5559   6.615   0.504   5.925 -0.9520  0.0780 -0.0984
 1390SOL     MW 5560   6.604   0.418   5.915 -0.1047 -0.0647  0.0874
 1391SOL     OW 5561   5.496   8.565   3.732  0.2078 -0.2478 -0.0482
 1391SOL    HW1 5562   5.496   8.475   3.763 -1.3780 -1.2304 -2.6014
 1391SOL    HW2 5563   5.585   8.596   3.749  0.7943 -2.2731  0.8987
 1391SOL     MW 5564   5.508   8.557   3.739  0.0733 -0.6526 -0.2643
 1392SOL     OW 5565   7.903   0.492   2.221 -0.4114 -0.0207  0.2432
 1392SOL    HW1 5566   7.876   0.420   2.164 -1.6991  0.6662 -0.0503
 1392SOL    HW2 5567   7.920   0.565   2.161 -0.5764  0.3540  0.6494
 1392SOL     MW 5568   7.902   0.492   2.205 -0.6069  0.1222  0.2583
 1393SOL     OW 5569   5.227   8.006   1.117  0.1401 -0.2508 -0.0545
 1393SOL    HW1 5570   5.321   7.999   1.135  0.4778  0.8731 -1.2311
 1393SOL    HW2 5571   5.185   7.994   1.203  1.4120  0.3246  0.6788
 1393SOL     MW 5572   5.234   8.003   1.131  0.3567 -0.0221 -0.1142
 1394SOL     OW 5573   4.189   9.630   6.093  0.3004 -0.2877 -0.2786
 1394SOL    HW1 5574   4.227   9.716   6.075  0.2371 -0.2446 -0.2082
 1394SOL    HW2 5575   4.105   9.631   6.048 -0.2571  0.1548  0.7405
 1394SOL     MW 5576   4.183   9.642   6.084  0.2169 -0.2223 -0.1320
 1395SOL     OW 5577   4.248   9.065   1.143 -0.0573  0.3663  0.1859
 1395SOL    HW1 5578   4.188   9.139   1.136 -0.1829  0.4029  1.3764
 1395SOL    HW2 5579   4.219   9.004   1.075 -0.5777  0.9696 -0.1495
 1395SOL     MW 5580   4.236   9.067   1.133 -0.1443  0.4524  0.3010
 1396SOL     OW 5581   7.842   8.895   6.924  0.2890 -0.3390 -0.0552
 1396SOL    HW1 5582   7.776   8.829   6.947 -0.5884 -0.5874 -2.8847
 1396SOL    HW2 5583   7.916   8.844   6.890  0.2141  0.0426 -0.8170
 1396SOL     MW 5584   7.843   8.879   6.922  0.1609 -0.3211 -0.5385
 1397SOL     OW 5585   7.381   0.629   5.476 -0.1609  0.1632  0.1700
 1397SOL    HW1 5586   7.332   0.701   5.516  0.2143 -0.2737  1.4501
 1397SOL    HW2 5587   7.440   0.599   5.545  0.4746 -0.6465 -0.7066
 1397SOL     MW 5588   7.382   0.635   5.490 -0.0249 -0.0045  0.2243
 1398SOL     OW 5589   4.103   9.099   4.053 -0.3802 -0.4294 -0.4657
 1398SOL    HW1 5590   4.037   9.156   4.014  0.3332 -1.3167 -3.1681
 1398SOL    HW2 5591   4.070   9.010   4.037  0.2173 -0.8440  0.5200
 1398SOL     MW 5592   4.090   9.094   4.046 -0.2037 -0.6046 -0.6967
 1399SOL     OW 5593   4.035   0.335   5.828  0.6308 -0.0062 -0.0618
 1399SOL    HW1 5594   4.034   0.298   5.740 -0.3193 -0.8269  0.2753
 1399SOL    HW2 5595   4.077   0.267   5.881  0.4651  0.1466  0.2633
 1399SOL     MW 5596   4.041   0.321   5.823  0.4807 -0.0961  0.0274
 1400SOL     OW 5597   4.858   0.337   9.147  0.2619 -0.0871  0.2689
 1400SOL    HW1 5598   4.896   0.288   9.220 -0.7097  0.4807  1.1776
 1400SOL    HW2 5599   4.813   0.411   9.188  1.7262  1.6342 -1.0626
 1400SOL     MW 5600   4.857   0.341   9.162  0.3282  0.2210  0.2120
 1401SOL     OW 5601   5.521   8.243   4.809 -0.5771 -0.0965  0.0996
 1401SOL    HW1 5602   5.489   8.283   4.891  0.6158  0.3900  0.3414
 1401SOL    HW2 5603   5.564   8.314   4.763 -0.4553 -0.5819 -0.5429
 1401SOL     MW 5604   5.522   8.258   4.814 -0.4002 -0.0963  0.0457
 1402SOL     OW 5605   5.069  10.025   7.591  0.5128  0.0760  0.3454
 1402SOL    HW1 5606   5.095  10.102   7.541 -1.2626 -0.5373 -1.6579
 1402SOL    HW2 5607   5.046  10.059   7.678  2.2201  1.3841  0.3337
 1402SOL     MW 5608   5.069  10.040   7.596  0.5036  0.1695  0.0742
 1403SOL     OW 5609   5.990   7.986   5.918  0.4598  0.2957 -0.8852
 1403SOL    HW1 5610   5.899   8.009   5.904  0.2186 -0.6569 -0.8779
 1403SOL    HW2 5611   6.038   8.067   5.899 -0.4209  0.9645 -0.3431
 1403SOL     MW 5612   5.985   8.000   5.914  0.3088  0.2575 -0.8112
 1404SOL     OW 5613   7.780   9.189   3.311  0.1379  0.3186  0.5865
 1404SOL    HW1 5614   7.831   9.124   3.360 -0.0351 -0.2080  0.0832
 1404SOL    HW2 5615   7.690   9.175   3.341 -0.0182 -0.2261 -0.0954
 1404SOL     MW 5616   7.775   9.178   3.322  0.0936  0.1744  0.4270
 1405SOL     OW 5617   7.926   9.391   8.411  0.0141 -0.7549  0.4322
 1405SOL    HW1 5618   7.947   9.369   8.321 -1.1872  1.4613 -0.4630
 1405SOL    HW2 5619   7.907   9.485   8.409 -0.9838 -0.8341  2.8051
 1405SOL     MW 5620   7.926   9.401   8.399 -0.2818 -0.4673  0.6311
 1406SOL     OW 5621   7.312   0.797   9.765 -0.2859 -0.5021 -0.1128
 1406SOL    HW1 5622   7.402   0.804   9.795 -0.4418 -0.1098  0.2731
 1406SOL    HW2 5623   7.282   0.712   9.798 -0.8025  0.3761  1.8231
 1406SOL     MW 5624   7.320   0.787   9.773 -0.3764 -0.3311  0.1997
 1407SOL     OW 5625   6.803   0.032   2.330  0.0606  0.1577  0.0899
 1407SOL    HW1 5626   6.887   0.004   2.368  0.2518 -0.7066 -0.9281
 1407SOL    HW2 5627   6.817   0.029   2.236 -1.3145 -0.5965 -0.1098
 1407SOL     MW 5628   6.817   0.028   2.323 -0.0987 -0.0601 -0.0740
 1408SOL     OW 5629   6.004  10.116   9.494 -0.4628  0.2183 -0.2354
 1408SOL    HW1 5630   6.020  10.026   9.522 -1.6273  0.2829  0.7081
 1408SOL    HW2 5631   6.035  10.170   9.567  0.5458  0.6153 -0.9385
 1408SOL     MW 5632   6.010  10.111   9.507 -0.4838  0.2804 -0.2031
 1409SOL     OW 5633   4.785   8.013   9.696 -0.0084 -0.2094  0.3741
 1409SOL    HW1 5634   4.820   8.092   9.738 -2.7283 -0.1635  2.9325
 1409SOL    HW2 5635   4.691   8.027   9.695 -0.3914 -2.4313 -1.4116
 1409SOL     MW 5636   4.777   8.025   9.702 -0.4260 -0.5023  0.4780
 1410SOL     OW 5637   5.287   8.399   2.858  0.0648  0.3495  0.4574
 1410SOL    HW1 5638   5.375   8.415   2.823  0.1494 -0.0437  0.4753
 1410SOL    HW2 5639   5.275   8.465   2.926  0.6461 -0.0548  0.9709
 1410SOL     MW 5640   5.297   8.410   2.862  0.1544  0.2422  0.5289
 1411SOL     OW 5641   5.680   1.519   5.326 -0.3441 -0.1509  0.0263
 1411SOL    HW1 5642   5.692   1.483   5.238 -1.1676  0.4780 -0.3561
 1411SOL    HW2 5643   5.673   1.442   5.382 -0.1311 -0.5657 -0.4986
 1411SOL     MW 5644   5.681   1.504   5.321 -0.4262 -0.1221 -0.0958
 1412SOL     OW 5645   4.374   8.215   3.170  0.1469  0.2929 -0.3266
 1412SOL    HW1 5646   4.306   8.254   3.224  0.3198 -0.4942  0.4899
 1412SOL    HW2 5647   4.337   8.212   3.082 -0.3548  1.0871 -0.1499
 1412SOL     MW 5648   4.360   8.220   3.165  0.1026  0.2939 -0.1929
 1413SOL     OW 5649   4.718   7.905   6.506 -0.2439  0.1987  0.1891
 1413SOL    HW1 5650   4.780   7.882   6.437 -0.5422  0.4456 -0.1603
 1413SOL    HW2 5651   4.694   7.996   6.489 -0.4313  0.2190  0.5330
 1413SOL     MW 5652   4.723   7.914   6.495 -0.3093  0.2346  0.1883
 1414SOL     OW 5653   7.293   8.701   2.708  0.0923  0.4505 -0.1929
 1414SOL    HW1 5654   7.333   8.747   2.634  1.1972  2.2734  1.4488
 1414SOL    HW2 5655   7.337   8.736   2.785 -1.6451 -0.7147  1.4286
 1414SOL     MW 5656   7.304   8.712   2.708  0.0072  0.5390  0.2463
 1415SOL     OW 5657   7.403   9.384   6.631  0.1390  0.3203  0.1773
 1415SOL    HW1 5658   7.352   9.338   6.698  2.2846 -0.4317  1.3968
 1415SOL    HW2 5659   7.423   9.469   6.670  0.4452  0.3229  0.0186
 1415SOL     MW 5660   7.399   9.390   6.645  0.4690  0.2194  0.3201
 1416SOL     OW 5661   3.992   9.839   5.717 -0.2501  0.0669 -0.0536
 1416SOL    HW1 5662   3.988   9.764   5.657 -0.1746 -0.5329  0.6737
 1416SOL    HW2 5663   4.084   9.863   5.719 -0.3444  0.5037 -0.6689
 1416SOL     MW 5664   4.003   9.832   5.709 -0.2527  0.0449 -0.0385
 1417SOL     OW 5665   7.705  10.033   4.124  0.0751  0.3249 -0.6460
 1417SOL    HW1 5666   7.787  10.077   4.100 -0.4346  1.5546 -0.1982
 1417SOL    HW2 5667   7.667  10.006   4.040 -0.4702  2.3653 -1.1058
 1417SOL     MW 5668   7.711  10.035   4.109 -0.0668  0.7650 -0.6476
 1418SOL     OW 5669   5.965   7.935   9.575  0.0049 -0.0631 -0.3204
 1418SOL    HW1 5670   5.949   7.923   9.482  1.5417 -0.6301 -0.5500
 1418SOL    HW2 5671   6.060   7.951   9.581 -0.0518 -0.1253  1.1478
 1418SOL     MW 5672   5.976   7.936   9.564  0.2041 -0.1478 -0.1537
 1419SOL     OW 5673   7.527   8.826   6.591  0.2877  0.2219 -0.1530
 1419SOL    HW1 5674   7.516   8.836   6.497  1.6618  0.0820 -0.3471
 1419SOL    HW2 5675   7.499   8.736   6.609  0.0068  0.2554 -0.4171
 1419SOL     MW 5676   7.521   8.815   6.581  0.4348  0.2076 -0.2147
 1420SOL     OW 5677   5.574   1.044   0.943 -0.9305  0.3904  0.0362
 1420SOL    HW1 5678   5.554   1.096   1.021 -0.6310 -0.6078  0.7963
 1420SOL    HW2 5679   5.499   1.057   0.885 -0.0319  3.1993 -0.6594
 1420SOL     MW 5680   5.561   1.053   0.946 -0.7692  0.6341  0.0449
 1421SOL     OW 5681   7.106   0.455   2.488  0.1541 -0.1937 -0.0418
 1421SOL    HW1 5682   7.176   0.422   2.433 -0.0436  1.1657 -1.1570
 1421SOL    HW2 5683   7.122   0.549   2.493 -1.3330  0.0763  0.0384
 1421SOL     MW 5684   7.118   0.463   2.481 -0.0726  0.0256 -0.1811
 1422SOL     OW 5685   5.107   9.691   4.828  0.1429  0.0287 -0.0996
 1422SOL    HW1 5686   5.101   9.695   4.923  0.8199 -0.9866 -0.0030
 1422SOL    HW2 5687   5.200   9.678   4.809 -0.2381 -2.1807 -0.7693
 1422SOL     MW 5688   5.119   9.689   4.838  0.1827 -0.4053 -0.1767
 1423SOL     OW 5689   5.069   9.574   7.103  0.6248 -0.2585  0.3860
 1423SOL    HW1 5690   4.983   9.532   7.111  0.4942  0.3910  3.0643
 1423SOL    HW2 5691   5.053   9.666   7.126  1.9407  0.0049  0.3076
 1423SOL     MW 5692   5.055   9.581   7.107  0.7843 -0.1356  0.7359
 1424SOL     OW 5693   6.093   1.111   3.923 -0.1650  0.3380 -0.2649
 1424SOL    HW1 5694   6.082   1.034   3.868 -1.0818 -1.3595  2.1434
 1424SOL    HW2 5695   6.011   1.159   3.915 -0.7626 -0.5307  0.4904
 1424SOL     MW 5696   6.081   1.107   3.914 -0.3688 -0.0074  0.1609
 1425SOL     OW 5697   7.960   9.643   7.887  0.1198 -0.0624 -0.0202
 1425SOL    HW1 5698   7.986   9.554   7.911  0.6968  0.2436  0.5468
 1425SOL    HW2 5699   7.889   9.665   7.948  0.8726  0.3315  0.7465
 1425SOL     MW 5700   7.954   9.634   7.899  0.2988  0.0318  0.1593
 1426SOL     OW 5701   4.841  10.119   9.398  0.0699 -0.3273 -0.0287
 1426SOL    HW1 5702   4.863  10.050   9.462  0.1737 -0.9418 -0.7086
 1426SOL    HW2 5703   4.908  10.109   9.330  0.3229  0.7185  0.0568
 1426SOL     MW 5704   4.853  10.108   9.397  0.1179 -0.2692 -0.1087
 1427SOL     OW 5705   5.928   0.363   5.359  0.7138  0.1857  0.0891
 1427SOL    HW1 5706   5.947   0.321   5.443 -1.2359 -3.5345 -1.1399
 1427SOL    HW2 5707   5.833   0.367   5.354  0.7586 -0.0318 -2.0886
 1427SOL     MW 5708   5.918   0.358   5.370  0.4574 -0.3443 -0.3694
 1428SOL     OW 5709   6.464   7.883   1.026 -0.0161 -0.4121  0.4240
 1428SOL    HW1 5710   6.398   7.845   0.968 -0.5758 -0.2076  0.9160
 1428SOL    HW2 5711   6.444   7.847   1.113 -0.8908  1.3817  1.0161
 1428SOL     MW 5712   6.453   7.873   1.030 -0.2092 -0.1432  0.5699
 1429SOL     OW 5713   7.452   8.148   3.183 -0.3692 -0.3538 -0.2658
 1429SOL    HW1 5714   7.521   8.082   3.194 -1.5867 -1.5085  0.7530
 1429SOL    HW2 5715   7.461   8.206   3.258 -0.2491 -0.2404 -0.3659
 1429SOL     MW 5716   7.462   8.147   3.194 -0.5169 -0.4940 -0.1422
 1430SOL     OW 5717   7.644   8.660   9.163 -0.0101  0.4272  0.2563
 1430SOL    HW1 5718   7.604   8.595   9.105  0.6743 -0.1130  0.3797
 1430SOL    HW2 5719   7.645   8.741   9.112  1.0944 -0.1695 -0.7041
 1430SOL     MW 5720   7.638   8.662   9.148  0.2306  0.2742  0.1436
 1431SOL     OW 5721   6.058   0.731   6.350 -0.0493 -0.0652 -0.3604
 1431SOL    HW1 5722   6.023   0.816   6.325 -0.8832 -0.4582 -0.5778
 1431SOL    HW2 5723   6.029   0.718   6.440  2.0791  0.8956  0.5167
 1431SOL     MW 5724   6.049   0.740   6.359  0.1249  0.0112 -0.2716
 1432SOL     OW 5725   4.295   0.225   8.057 -0.3687  0.4308 -0.0922
 1432SOL    HW1 5726   4.262   0.221   8.146  0.4279 -0.5556  0.1842
 1432SOL    HW2 5727   4.233   0.280   8.010 -0.6861  1.1265  1.1132
 1432SOL     MW 5728   4.282   0.232   8.063 -0.3042  0.3917  0.1072
 1433SOL     OW 5729   3.655   9.959   3.238  0.5535 -0.1723  0.2697
 1433SOL    HW1 5730   3.699  10.044   3.225 -0.8235  0.1762 -3.0765
 1433SOL    HW2 5731   3.614   9.940   3.154 -2.7715 -2.1675  2.1285
 1433SOL     MW 5732   3.655   9.968   3.225 -0.0793 -0.3939  0.0695
 1434SOL     OW 5733   7.367   0.089   8.870  0.1491  0.0691  0.2734
 1434SOL    HW1 5734   7.354   0.055   8.782 -0.8690  1.0256  0.0304
 1434SOL    HW2 5735   7.436   0.155   8.862  1.1321 -0.8982  0.4921
 1434SOL     MW 5736   7.374   0.093   8.857  0.1444  0.0677  0.2701
 1435SOL     OW 5737   6.263   8.877   6.926 -0.6579  0.5398  0.2975
 1435SOL    HW1 5738   6.230   8.805   6.872 -0.0091 -0.3529  1.0417
 1435SOL    HW2 5739   6.233   8.956   6.882  0.4379 -0.1063 -1.8032
 1435SOL     MW 5740   6.255   8.878   6.912 -0.4231  0.3327  0.1150
 1436SOL     OW 5741   7.386   9.539   9.344 -0.4711 -0.4208  0.2680
 1436SOL    HW1 5742   7.416   9.473   9.406 -1.7906 -1.1607  0.1477
 1436SOL    HW2 5743   7.466   9.586   9.318  0.4020 -1.5780  0.7978
 1436SOL     MW 5744   7.401   9.537   9.349 -0.5312 -0.6761  0.3231
 1437SOL     OW 5745   5.346   1.764   8.340 -0.0328 -0.5437 -0.3291
 1437SOL    HW1 5746   5.322   1.766   8.247 -0.3217  1.4329 -0.2539
 1437SOL    HW2 5747   5.435   1.730   8.341  0.1617 -0.1122 -1.3887
 1437SOL     MW 5748   5.355   1.760   8.328 -0.0455 -0.2196 -0.4616
 1438SOL     OW 5749   5.764   8.625   2.325  0.1848 -0.3247  0.8587
 1438SOL    HW1 5750   5.840   8.673   2.292  0.1053 -0.2219  0.8241
 1438SOL    HW2 5751   5.727   8.682   2.392 -0.2273 -0.0883  0.4390
 1438SOL     MW 5752   5.769   8.639   2.330  0.1187 -0.2790  0.7975
 1439SOL     OW 5753   3.775   0.218   2.259 -0.5872  0.3419  0.2924
 1439SOL    HW1 5754   3.794   0.307   2.229  0.9891  0.1885  0.7591
 1439SOL    HW2 5755   3.727   0.178   2.187  0.8009  0.8107 -0.9269
 1439SOL     MW 5756   3.771   0.225   2.246 -0.1883  0.3844  0.1911
 1440SOL     OW 5757   7.085   8.300   4.958 -0.0035  0.0110 -0.2776
 1440SOL    HW1 5758   7.064   8.300   4.865  0.1565  0.5987 -0.3227
 1440SOL    HW2 5759   7.106   8.392   4.978 -0.6325  0.0074  0.4756
 1440SOL     MW 5760   7.085   8.313   4.948 -0.0666  0.0896 -0.1823
 1441SOL     OW 5761   6.154   1.374   2.765 -0.0412  0.2771  0.1831
 1441SOL    HW1 5762   6.176   1.373   2.671  2.3850  1.1695  0.6627
 1441SOL    HW2 5763   6.143   1.467   2.786  1.8871  0.3223  1.2221
 1441SOL     MW 5764   6.156   1.386   2.755  0.5448  0.4033  0.3875
 1442SOL     OW 5765   7.025   0.917   3.652  0.0823  0.0855 -0.5790
 1442SOL    HW1 5766   7.061   0.979   3.716  0.9639 -0.6019 -0.3814
 1442SOL    HW2 5767   7.044   0.831   3.690 -0.3098 -0.3158 -1.2813
 1442SOL     MW 5768   7.033   0.914   3.666  0.1482 -0.0610 -0.6469
 1443SOL     OW 5769   6.269   9.724   5.699 -0.2022  0.2968  0.7283
 1443SOL    HW1 5770   6.232   9.781   5.631  0.0936  0.1337  0.4286
 1443SOL    HW2 5771   6.340   9.776   5.738  0.0633  0.1409  0.4595
 1443SOL     MW 5772   6.274   9.739   5.695 -0.1266  0.2539  0.6518
 1444SOL     OW 5773   5.455   9.003   2.629  0.0588 -0.1446  0.1094
 1444SOL    HW1 5774   5.372   8.989   2.583  0.6353  0.3785 -1.1312
 1444SOL    HW2 5775   5.431   9.006   2.721 -1.3592  0.3684 -0.2522
 1444SOL     MW 5776   5.441   9.001   2.635 -0.0544 -0.0052 -0.1062
 1445SOL     OW 5777   6.577   8.804   6.757  0.2913  0.3549 -0.2875
 1445SOL    HW1 5778   6.644   8.829   6.693  1.5379  0.0080  0.8323
 1445SOL    HW2 5779   6.594   8.861   6.833  0.3360 -0.8083  0.5999
 1445SOL     MW 5780   6.589   8.815   6.759  0.4651  0.1517 -0.0174
 1446SOL     OW 5781   5.525   8.872  10.021  0.2123 -0.3232 -0.0597
 1446SOL    HW1 5782   5.509   8.829   9.937  1.4095 -0.8666 -0.0163
 1446SOL    HW2 5783   5.489   8.812  10.086  0.1548 -0.3565 -0.1227
 1446SOL     MW 5784   5.518   8.858  10.019  0.3657 -0.4008 -0.0623
 1447SOL     OW 5785   7.510   8.294   3.405  0.2506 -1.0177 -0.0020
 1447SOL    HW1 5786   7.536   8.382   3.375  0.0194 -0.3929  1.5103
 1447SOL    HW2 5787   7.552   8.286   3.491  1.9403 -3.2329 -0.9530
 1447SOL     MW 5788   7.520   8.305   3.413  0.4469 -1.2318  0.0735
 1448SOL     OW 5789   7.526   9.873   9.401  0.0617 -0.6002  0.3595
 1448SOL    HW1 5790   7.435   9.902   9.402  0.0247 -0.7258  0.9244
 1448SOL    HW2 5791   7.544   9.847   9.491  0.8454  0.0199  0.3968
 1448SOL     MW 5792   7.517   9.874   9.413  0.1622 -0.5337  0.4405
 1449SOL     OW 5793   7.244   8.174   3.673 -0.1826 -0.3072 -0.3995
 1449SOL    HW1 5794   7.212   8.195   3.761 -1.6659 -2.1728 -0.4159
 1449SOL    HW2 5795   7.208   8.087   3.655  2.8753 -1.4780 -1.5258
 1449SOL     MW 5796   7.235   8.165   3.682  0.0293 -0.7158 -0.5533
 1450SOL     OW 5797   6.353   8.862   9.402 -0.2267  0.0733  0.4540
 1450SOL    HW1 5798   6.298   8.787   9.425 -0.2862  0.1427  0.5390
 1450SOL    HW2 5799   6.363   8.909   9.485 -0.9659  0.6803  0.2059
 1450SOL     MW 5800   6.347   8.858   9.417 -0.3342  0.1644  0.4321
 1451SOL     OW 5801   6.495   1.503   0.326  0.2674  0.3171  0.5224
 1451SOL    HW1 5802   6.439   1.439   0.282  0.5163 -0.3629  1.1719
 1451SOL    HW2 5803   6.435   1.572   0.352 -0.1483 -0.0463  0.5532
 1451SOL     MW 5804   6.480   1.503   0.323  0.2450  0.1767  0.6140
 1452SOL     OW 5805   5.805   9.317   9.327  0.2359  0.2988 -0.5293
 1452SOL    HW1 5806   5.833   9.266   9.252  0.8186 -1.1632  0.6192
 1452SOL    HW2 5807   5.761   9.394   9.290  0.0282 -0.6457 -2.3282
 1452SOL     MW 5808   5.803   9.321   9.312  0.2864 -0.0251 -0.6168
 1453SOL     OW 5809   6.307   9.992   9.217 -0.0209 -0.2551  0.0236
 1453SOL    HW1 5810   6.383  10.040   9.184  2.7929 -2.8897  2.0422
 1453SOL    HW2 5811   6.277  10.042   9.292  0.7383  0.0460  0.1318
 1453SOL     MW 5812   6.313  10.005   9.223  0.4600 -0.5692  0.3098
 1454SOL     OW 5813   4.877  10.065   6.607 -0.2714  0.1986  0.2604
 1454SOL    HW1 5814   4.951  10.034   6.553  1.0127  1.4541  1.2167
 1454SOL    HW2 5815   4.803  10.069   6.547  0.8481  0.4941 -1.1514
 1454SOL     MW 5816   4.877  10.061   6.592  0.0521  0.4073  0.1991
 1455SOL     OW 5817   6.997   1.067   9.002  0.4034 -0.5666  0.1201
 1455SOL    HW1 5818   6.907   1.041   9.018  0.5583 -0.6953  0.8187
 1455SOL    HW2 5819   7.008   1.058   8.908 -0.5105  0.1115 -0.0570
 1455SOL     MW 5820   6.987   1.062   8.992  0.3013 -0.4927  0.1903
 1456SOL     OW 5821   4.636   1.203   2.033  0.5569  0.1287 -0.4238
 1456SOL    HW1 5822   4.695   1.240   2.099  1.1073  0.1258 -0.8998
 1456SOL    HW2 5823   4.581   1.141   2.081 -0.2080  1.3704  0.3350
 1456SOL     MW 5824   4.637   1.199   2.048  0.5280  0.2954 -0.3858
 1457SOL     OW 5825   4.896   0.640   4.183 -0.0359  0.2017  0.4038
 1457SOL    HW1 5826   4.827   0.611   4.124  1.7838 -1.8436 -0.9010
 1457SOL    HW2 5827   4.901   0.735   4.170 -1.0749  0.0720 -1.1868
 1457SOL     MW 5828   4.888   0.649   4.173  0.0692 -0.0910  0.0141
 1458SOL     OW 5829   6.659   9.068   2.442  0.4498 -0.1583 -0.0195
 1458SOL    HW1 5830   6.610   9.149   2.429  0.9843  0.5620  2.0248
 1458SOL    HW2 5831   6.591   9.001   2.454 -0.0541  0.4771  0.8541
 1458SOL     MW 5832   6.643   9.070   2.442  0.4539  0.0242  0.3732
 1459SOL     OW 5833   4.472   1.115   1.086 -0.4884  0.5904  0.0192
 1459SOL    HW1 5834   4.379   1.114   1.108 -0.5924 -0.2399 -0.4233
 1459SOL    HW2 5835   4.474   1.121   0.990 -0.1457 -1.6020 -0.1709
 1459SOL     MW 5836   4.460   1.116   1.076 -0.4562  0.1836 -0.0659
 1460SOL     OW 5837   5.978   0.655   9.476  0.1226  0.3311  0.1675
 1460SOL    HW1 5838   6.034   0.613   9.411  1.3595  1.8113  0.2261
 1460SOL    HW2 5839   5.923   0.715   9.425  1.2574  1.6699  0.4317
 1460SOL     MW 5840   5.978   0.658   9.460  0.4418  0.7105  0.2110
 1461SOL     OW 5841   5.093   9.563   6.833 -0.0318 -0.3315  0.2917
 1461SOL    HW1 5842   5.026   9.496   6.823 -0.1424 -0.3966  1.2840
 1461SOL    HW2 5843   5.089   9.587   6.926  0.7288  0.2857  0.1816
 1461SOL     MW 5844   5.084   9.557   6.844  0.0557 -0.2572  0.4104
 1462SOL     OW 5845   7.658   9.257   4.574  0.1212  0.6841  0.1211
 1462SOL    HW1 5846   7.624   9.196   4.639 -1.2093  2.6351  1.3635
 1462SOL    HW2 5847   7.627   9.224   4.490  0.5460 -1.0205  0.6073
 1462SOL     MW 5848   7.649   9.245   4.571 -0.0007  0.7173  0.3537
 1463SOL     OW 5849   4.996   8.154   6.329  0.3253 -0.0197 -0.4075
 1463SOL    HW1 5850   5.024   8.147   6.421  2.1655  2.5834 -0.6641
 1463SOL    HW2 5851   4.958   8.242   6.323 -1.8698 -0.9737 -1.7027
 1463SOL     MW 5852   4.995   8.165   6.341  0.2775  0.2022 -0.6163
 1464SOL     OW 5853   7.132  10.116   0.992 -0.2405 -0.3352 -0.0152
 1464SOL    HW1 5854   7.156  10.026   1.016  2.4579  0.2407 -0.1429
 1464SOL    HW2 5855   7.113  10.159   1.075  0.4335 -0.5465  0.2570
 1464SOL     MW 5856   7.133  10.110   1.006  0.2133 -0.2861  0.0042
 1465SOL     OW 5857   4.474   1.138   8.199 -0.7021  0.7064  0.2039
 1465SOL    HW1 5858   4.424   1.212   8.165 -1.1503  0.5929  0.6121
 1465SOL    HW2 5859   4.493   1.160   8.290 -0.3556  0.5676  0.1678
 1465SOL     MW 5860   4.470   1.151   8.206 -0.7158  0.6725  0.2540
 1466SOL     OW 5861   5.652   8.325   8.473 -0.1612 -0.3290 -0.6210
 1466SOL    HW1 5862   5.731   8.272   8.465  1.0740  1.2462  0.4300
 1466SOL    HW2 5863   5.668   8.401   8.417  0.6921  1.7416  2.1938
 1466SOL     MW 5864   5.664   8.328   8.464  0.1199  0.1617 -0.1007
 1467SOL     OW 5865   7.419   9.913   7.373  0.5573 -0.1364 -0.4186
 1467SOL    HW1 5866   7.443   9.821   7.362  0.9916  0.1780 -2.4407
 1467SOL    HW2 5867   7.497   9.961   7.346  0.9823  0.8782  2.2687
 1467SOL     MW 5868   7.433   9.907   7.368  0.6730  0.0425 -0.3291
 1468SOL     OW 5869   7.570   9.991   7.153  0.1833  0.3754  0.1446
 1468SOL    HW1 5870   7.658   9.990   7.116  0.0006 -1.3054 -0.3386
 1468SOL    HW2 5871   7.525  10.061   7.106  1.0763  0.8555 -0.0252
 1468SOL     MW 5872   7.576  10.000   7.142  0.2789  0.2138  0.0567
 1469SOL     OW 5873   6.715   1.730   4.079 -0.0793  0.0411  0.0509
 1469SOL    HW1 5874   6.660   1.800   4.045 -1.0063 -0.9388 -0.5261
 1469SOL    HW2 5875   6.654   1.663   4.110  0.7309 -1.3538 -1.1890
 1469SOL     MW 5876   6.700   1.730   4.078 -0.0950 -0.2785 -0.1936
 1470SOL     OW 5877   5.361   1.548   1.869  0.4369  0.1514 -0.3148
 1470SOL    HW1 5878   5.356   1.453   1.870  1.1665 -0.0222 -3.0859
 1470SOL    HW2 5879   5.320   1.576   1.951  0.8198 -2.5355  0.8965
 1470SOL     MW 5880   5.355   1.539   1.880  0.5866 -0.2336 -0.5247
 1471SOL     OW 5881   4.290   8.910   0.743 -0.2442  0.0776 -0.1283
 1471SOL    HW1 5882   4.247   8.901   0.828  0.6870 -0.9640  0.2593
 1471SOL    HW2 5883   4.251   8.842   0.688  0.5772 -0.5872  0.0953
 1471SOL     MW 5884   4.279   8.900   0.747 -0.0083 -0.1520 -0.0460
 1472SOL     OW 5885   4.032   9.253   8.077  0.0561 -0.4177 -0.0703
 1472SOL    HW1 5886   4.077   9.330   8.043 -1.2702  0.3924 -0.0513
 1472SOL    HW2 5887   3.966   9.232   8.012 -1.2788  0.0186  1.0984
 1472SOL     MW 5888   4.029   9.260   8.064 -0.3021 -0.2499  0.0896
 1473SOL     OW 5889   4.479   9.901   7.275 -0.1001  0.7520  0.1208
 1473SOL    HW1 5890   4.512   9.986   7.303  1.7050 -0.4366  1.8995
 1473SOL    HW2 5891   4.551   9.864   7.223 -1.4762  0.8714 -2.0050
 1473SOL     MW 5892   4.493   9.907   7.272 -0.0424  0.6081  0.0741
 1474SOL     OW 5893   7.125   8.247   9.128  0.1381 -0.0925  0.4033
 1474SOL    HW1 5894   7.128   8.153   9.146 -0.0346  0.0839  1.3870
 1474SOL    HW2 5895   7.164   8.288   9.205 -1.1239  0.7119  0.6444
 1474SOL     MW 5896   7.130   8.240   9.141 -0.0550  0.0395  0.5681
 1475SOL     OW 5897   6.524   8.498   9.123  0.0425 -0.2983 -0.0639
 1475SOL    HW1 5898   6.613   8.507   9.089 -0.3573  0.1791 -1.0180
 1475SOL    HW2 5899   6.507   8.579   9.169 -0.5755  0.4736 -1.5617
 1475SOL     MW 5900   6.534   8.510   9.124 -0.0945 -0.1301 -0.3939
 1476SOL     OW 5901   7.429   0.099   2.907  0.3694 -0.0554  0.3033
 1476SOL    HW1 5902   7.455   0.008   2.920 -0.0201  0.1256  2.8281
 1476SOL    HW2 5903   7.511   0.148   2.900  0.5858 -0.4597  0.0216
 1476SOL     MW 5904   7.444   0.094   2.908  0.3461 -0.0855  0.6051
 1477SOL     OW 5905   5.018   8.234   3.406  0.3141 -0.2374  0.2749
 1477SOL    HW1 5906   5.064   8.248   3.323  1.9251 -0.2668  1.1375
 1477SOL    HW2 5907   4.934   8.279   3.393  0.6256 -0.0243 -1.2793
 1477SOL     MW 5908   5.013   8.242   3.393  0.5729 -0.2127  0.1818
 1478SOL     OW 5909   7.880   8.829   3.327 -0.1928 -0.2474 -0.1597
 1478SOL    HW1 5910   7.930   8.902   3.363  1.0506 -1.3467  0.4311
 1478SOL    HW2 5911   7.862   8.854   3.236  0.2362  0.7698  0.0293
 1478SOL     MW 5912   7.884   8.842   3.319  0.0323 -0.2584 -0.0547
 1479SOL     OW 5913   6.597   8.845   6.023 -0.5014  0.1442  0.1073
 1479SOL    HW1 5914   6.529   8.866   6.086  0.3065 -0.3472  1.1723
 1479SOL    HW2 5915   6.664   8.912   6.036 -1.0023  0.9600 -1.3236
 1479SOL     MW 5916   6.597   8.857   6.033 -0.4600  0.1879  0.0580
 1480SOL     OW 5917   5.908   8.505   5.480 -0.6847 -0.5230  0.8874
 1480SOL    HW1 5918   5.855   8.557   5.541 -0.8060 -0.1028  0.4337
 1480SOL    HW2 5919   5.927   8.424   5.527  2.1023  1.0789  2.8756
 1480SOL     MW 5920   5.904   8.501   5.494 -0.3259 -0.2508  1.0939
 1481SOL     OW 5921   4.835   9.029   2.377 -0.2339  0.2393 -0.0778
 1481SOL    HW1 5922   4.925   9.024   2.343 -0.8387  2.2970 -2.3050
 1481SOL    HW2 5923   4.781   9.003   2.302 -1.5476  1.1735  0.5241
 1481SOL     MW 5924   4.840   9.025   2.362 -0.4921  0.6419 -0.2965
 1482SOL     OW 5925   7.117   1.403   7.002  0.1909 -0.3134  0.0988
 1482SOL    HW1 5926   7.149   1.462   6.934 -0.7432 -0.9608 -0.9334
 1482SOL    HW2 5927   7.024   1.424   7.011  0.2876 -0.2633  1.1666
 1482SOL     MW 5928   7.109   1.413   6.994  0.0782 -0.3938  0.1036
 1483SOL     OW 5929   4.520   9.050   8.071  0.0357  0.2291 -0.3272
 1483SOL    HW1 5930   4.561   8.973   8.110 -0.5973  0.3058  0.5071
 1483SOL    HW2 5931   4.570   9.124   8.107  0.4171  0.2344 -0.8525
 1483SOL     MW 5932   4.533   9.050   8.081  0.0019  0.2402 -0.2856
 1484SOL     OW 5933   8.031   9.558   0.506  0.8552  0.5175 -0.0157
 1484SOL    HW1 5934   7.977   9.480   0.520  0.3712  0.5248 -1.6695
 1484SOL    HW2 5935   7.982   9.628   0.548 -0.7687  0.6278 -1.9793
 1484SOL     MW 5936   8.017   9.557   0.514  0.5715  0.5334 -0.5025
 1485SOL     OW 5937   5.142   9.110   1.051  0.3946  1.1991  0.3987
 1485SOL    HW1 5938   5.193   9.155   1.119  0.2036 -0.5298  1.7503
 1485SOL    HW2 5939   5.191   9.031   1.032 -0.1961  1.0573 -0.6012
 1485SOL     MW 5940   5.155   9.106   1.058  0.2894  0.9473  0.4460
 1486SOL     OW 5941   6.666   9.851   6.201 -0.0243 -0.0648  0.2161
 1486SOL    HW1 5942   6.625   9.766   6.214 -0.8805  0.1933 -0.6198
 1486SOL    HW2 5943   6.759   9.836   6.214 -0.3759 -0.5888  2.6211
 1486SOL     MW 5944   6.673   9.838   6.205 -0.1869 -0.1006  0.4273
 1487SOL     OW 5945   5.003   0.774   1.793 -0.0308 -0.3628  0.2514
 1487SOL    HW1 5946   5.007   0.715   1.868 -3.9528  0.2683  1.1639
 1487SOL    HW2 5947   4.928   0.744   1.742  2.2553 -0.5535 -3.4041
 1487SOL     MW 5948   4.994   0.762   1.796 -0.2510 -0.3035 -0.1177
 1488SOL     OW 5949   5.854   9.206   4.931 -0.4261 -0.0837 -0.1896
 1488SOL    HW1 5950   5.843   9.133   4.870 -2.6421 -0.1632  0.2158
 1488SOL    HW2 5951   5.947   9.228   4.926 -0.0466 -1.7983 -1.6072
 1488SOL     MW 5952   5.865   9.199   4.922 -0.6733 -0.3252 -0.3258
 1489SOL     OW 5953   5.678   7.800   2.134 -0.5013  0.3809 -0.2921
 1489SOL    HW1 5954   5.731   7.760   2.203  0.6445  1.2195 -0.6553
 1489SOL    HW2 5955   5.661   7.888   2.165 -1.6229  0.1607 -0.2340
 1489SOL     MW 5956   5.683   7.806   2.147 -0.4980  0.4641 -0.3332
 1490SOL     OW 5957   5.250   8.896   5.767  0.4486  0.2151  0.5322
 1490SOL    HW1 5958   5.165   8.887   5.724  1.2947 -0.4134 -1.1033
 1490SOL    HW2 5959   5.313   8.897   5.695  1.9636 -1.1299  1.7620
 1490SOL     MW 5960   5.247   8.895   5.751  0.7664 -0.0505  0.4776
 1491SOL     OW 5961   7.161   9.981   9.157  0.5064 -0.0263 -0.4182
 1491SOL    HW1 5962   7.155   9.890   9.129 -0.4813  0.3249 -1.4551
 1491SOL    HW2 5963   7.246  10.011   9.126  0.7995 -0.5699 -0.1441
 1491SOL     MW 5964   7.171   9.973   9.149  0.4129 -0.0522 -0.5208
 1492SOL     OW 5965   4.131   8.795   9.355  0.1132  0.0204 -0.1834
 1492SOL    HW1 5966   4.059   8.851   9.383  0.3652  1.0241 -1.4848
 1492SOL    HW2 5967   4.210   8.844   9.378  0.3535 -0.2273 -0.4817
 1492SOL     MW 5968   4.132   8.809   9.362  0.1794  0.1221 -0.3987
 1493SOL     OW 5969   4.648   9.512   7.534  0.5985 -0.2127 -0.3138
 1493SOL    HW1 5970   4.628   9.435   7.587  0.9692 -0.0888  0.0083
 1493SOL    HW2 5971   4.580   9.575   7.556  0.0516 -0.5915 -0.8855
 1493SOL     MW 5972   4.636   9.510   7.544  0.5748 -0.2470 -0.3474
 1494SOL     OW 5973   6.217   8.778   6.436 -0.1369 -0.4595 -0.6701
 1494SOL    HW1 5974   6.242   8.817   6.519  0.3357 -0.2258 -0.9184
 1494SOL    HW2 5975   6.172   8.849   6.389  0.4831 -0.2834 -1.0127
 1494SOL     MW 5976   6.214   8.793   6.441  0.0101 -0.4044 -0.7496
 1495SOL     OW 5977   6.296  10.040   2.520  0.0811  0.2799  0.2695
 1495SOL    HW1 5978   6.228  10.046   2.586  0.3646 -1.6296  0.8059
 1495SOL    HW2 5979   6.377  10.062   2.566  0.4380 -2.1364  0.9408
 1495SOL     MW 5980   6.298  10.043   2.535  0.1673 -0.3023  0.4320
 1496SOL     OW 5981   7.241   0.378   2.741  0.0829  0.3888  0.0829
 1496SOL    HW1 5982   7.196   0.407   2.661 -1.7652 -0.2426  0.8277
 1496SOL    HW2 5983   7.275   0.291   2.719  0.8080  0.7923 -0.4321
 1496SOL     MW 5984   7.239   0.370   2.727 -0.0682  0.3581  0.1139
 1497SOL     OW 5985   6.062   9.115   1.049 -0.0417  0.3947 -0.0313
 1497SOL    HW1 5986   6.144   9.122   1.098 -0.2002 -0.7367  0.4133
 1497SOL    HW2 5987   6.072   9.036   0.995 -0.5477  0.6723 -0.5460
 1497SOL     MW 5988   6.074   9.105   1.048 -0.1311  0.2798 -0.0407
 1498SOL     OW 5989   5.606   7.836   3.181  0.1267  0.2679  0.1100
 1498SOL    HW1 5990   5.607   7.749   3.220  1.3901  0.7112  1.1325
 1498SOL    HW2 5991   5.517   7.868   3.198  0.1314 -0.2153  1.1491
 1498SOL     MW 5992   5.594   7.829   3.189  0.2974  0.2625  0.3874
 1499SOL     OW 5993   6.371   0.359   3.078 -0.4032  0.2288  0.4148
 1499SOL    HW1 5994   6.458   0.332   3.050 -0.4398 -1.5759  1.8636
 1499SOL    HW2 5995   6.369   0.454   3.061  1.1082 -0.0062 -1.4116
 1499SOL     MW 5996   6.382   0.368   3.072 -0.2048 -0.0457  0.3640
 1500SOL     OW 5997   4.312   8.375   9.904 -0.3030 -0.0268 -0.2721
 1500SOL    HW1 5998   4.292   8.465   9.876 -0.4714 -0.0940 -0.3663
 1500SOL    HW2 5999   4.290   8.321   9.829 -0.3321 -0.1631 -0.1650
 1500SOL     MW 6000   4.307   8.380   9.890 -0.3296 -0.0542 -0.2704
 1501SOL     OW 6001   4.199   0.231   8.312  0.1070  0.3445 -0.2775
 1501SOL    HW1 6002   4.279   0.233   8.366  0.0227  0.0554 -0.1429
 1501SOL    HW2 6003   4.158   0.316   8.329 -0.4489 -0.1367  0.9176
 1501SOL     MW 6004   4.204   0.243   8.322  0.0209  0.2409 -0.0985
 1502SOL     OW 6005   3.923   9.095   7.664  0.5689 -0.6595 -0.6913
 1502SOL    HW1 6006   3.889   9.119   7.578 -0.9953  1.1407  0.3493
 1502SOL    HW2 6007   3.895   9.005   7.677 -1.6757 -0.0524 -0.9606
 1502SOL     MW 6008   3.915   9.086   7.655  0.0563 -0.3355 -0.5875
 1503SOL     OW 6009   6.724   1.442   4.877  0.0762  0.2994  0.0539
 1503SOL    HW1 6010   6.630   1.426   4.873 -0.4513  3.0574 -0.9330
 1503SOL    HW2 6011   6.761   1.361   4.910 -2.5468 -1.2061 -0.4404
 1503SOL     MW 6012   6.716   1.429   4.881 -0.3478  0.4680 -0.1454
 1504SOL     OW 6013   5.213   0.522   9.841 -0.0549  0.3473  0.0049
 1504SOL    HW1 6014   5.238   0.482   9.925 -1.0327  1.4157  0.8441
 1504SOL    HW2 6015   5.220   0.616   9.857 -1.4021  0.5879 -0.7307
 1504SOL     MW 6016   5.217   0.529   9.855 -0.3678  0.5235  0.0188
 1505SOL     OW 6017   4.044   9.699   2.960  0.5564  0.1702 -0.0899
 1505SOL    HW1 6018   3.971   9.654   2.917 -0.7806  1.1726  1.0438
 1505SOL    HW2 6019   4.122   9.653   2.928 -0.5215 -0.7167 -1.6132
 1505SOL     MW 6020   4.045   9.687   2.950  0.2314  0.1857 -0.1423
 1506SOL     OW 6021   7.782   9.281   7.532  0.1165 -0.1460  0.5042
 1506SOL    HW1 6022   7.811   9.244   7.615 -0.3294 -1.6786  0.0029
 1506SOL    HW2 6023   7.783   9.208   7.471  0.7935  1.0321 -0.9591
 1506SOL     MW 6024   7.786   9.266   7.535  0.1476 -0.1937  0.2398
 1507SOL     OW 6025   4.521   7.959   1.948  0.0834 -0.4027  0.6836
 1507SOL    HW1 6026   4.535   7.913   2.031 -0.7883 -1.4749  0.2576
 1507SOL    HW2 6027   4.453   8.024   1.968  1.3783  0.8344  1.3069
 1507SOL     MW 6028   4.513   7.962   1.962  0.1403 -0.3805  0.7102
 1508SOL     OW 6029   6.166   0.695   5.022  0.1226 -0.3201 -0.0842
 1508SOL    HW1 6030   6.234   0.635   5.051  0.4021  0.0720  0.0721
 1508SOL    HW2 6031   6.198   0.782   5.045 -0.2116 -0.0952 -0.4402
 1508SOL     MW 6032   6.179   0.699   5.029  0.1153 -0.2371 -0.1111
 1509SOL     OW 6033   6.677   9.935   9.563  0.2860 -0.0035 -0.3414
 1509SOL    HW1 6034   6.636  10.017   9.536  0.4410 -0.3675 -1.7339
 1509SOL    HW2 6035   6.614   9.867   9.539  0.5672 -0.3667 -0.0668
 1509SOL     MW 6036   6.663   9.937   9.556  0.3447 -0.1013 -0.4919
 1510SOL     OW 6037   5.253   8.750   8.386  0.1606  0.2110  0.1090
 1510SOL    HW1 6038   5.255   8.662   8.422  0.1923  1.0202  2.2313
 1510SOL    HW2 6039   5.341   8.785   8.403 -0.1216  0.9393  0.1125
 1510SOL     MW 6040   5.265   8.743   8.393  0.1269  0.4179  0.3951
 1511SOL     OW 6041   5.519   9.974  10.023 -0.6335 -0.1754 -0.1327
 1511SOL    HW1 6042   5.509  10.050   9.965 -0.0939  0.6574  0.8433
 1511SOL    HW2 6043   5.435   9.929  10.017 -0.6469 -0.0327 -1.4406
 1511SOL     MW 6044   5.507   9.979  10.014 -0.5627 -0.0442 -0.1774
 1512SOL     OW 6045   3.604   8.980   4.547  0.1008 -0.0569 -0.5255
 1512SOL    HW1 6046   3.668   9.033   4.596 -0.2031  1.0086 -1.2539
 1512SOL    HW2 6047   3.656   8.907   4.514  0.7528  0.3033 -0.3394
 1512SOL     MW 6048   3.620   8.977   4.549  0.1476  0.1350 -0.5985
 1513SOL     OW 6049   7.412   0.483   0.079  0.9468  0.5027 -0.3993
 1513SOL    HW1 6050   7.430   0.567   0.035  1.2197  0.4426 -0.4049
 1513SOL    HW2 6051   7.371   0.508   0.162  0.2245  0.6069 -0.7855
 1513SOL     MW 6052   7.409   0.498   0.084  0.8863  0.5087 -0.4520
 1514SOL     OW 6053   7.829   8.564   3.361 -0.5478  0.4439 -0.2620
 1514SOL    HW1 6054   7.827   8.553   3.456 -0.8635  1.5417 -0.1377
 1514SOL    HW2 6055   7.832   8.658   3.347 -1.2810  0.3219 -1.3660
 1514SOL     MW 6056   7.829   8.575   3.372 -0.6890  0.5752 -0.3938
 1515SOL     OW 6057   3.984   0.234  -0.020  0.1586  0.2506 -0.3761
 1515SOL    HW1 6058   3.915   0.241   0.047 -0.2558  0.2974 -0.8053
 1515SOL    HW2 6059   4.065   0.227   0.031 -0.2065 -0.3506  0.1415
 1515SOL     MW 6060   3.986   0.234  -0.004  0.0537  0.1760 -0.3642
 1516SOL     OW 6061   4.358   9.212  -0.015 -0.0399  0.2150 -0.0917
 1516SOL    HW1 6062   4.399   9.297  -0.001 -0.2280 -0.0371  2.4711
 1516SOL    HW2 6063   4.398   9.154   0.049  0.1546 -1.7068 -1.8440
 1516SOL     MW 6064   4.369   9.215  -0.005 -0.0391 -0.0776  0.0173
 1517SOL     OW 6065   5.303   0.165   1.608 -0.6292  0.1367  0.0205
 1517SOL    HW1 6066   5.311   0.123   1.694  1.1466  0.8057  0.2335
 1517SOL    HW2 6067   5.254   0.103   1.555 -0.5041 -0.9330  1.1134
 1517SOL     MW 6068   5.297   0.151   1.612 -0.3734  0.0828  0.1962
 1518SOL     OW 6069   6.572   0.159  10.124 -0.3016  0.4281  0.1448
 1518SOL    HW1 6070   6.654   0.198  10.095  1.4662 -1.9394  1.5665
 1518SOL    HW2 6071   6.567   0.178  10.218 -0.6709 -0.5536  0.3467
 1518SOL     MW 6072   6.582   0.167  10.133 -0.1134 -0.0227  0.3633
 1519SOL     OW 6073   6.768  10.015   0.254 -0.3008  0.1219 -0.0210
 1519SOL    HW1 6074   6.820   9.946   0.294 -0.3899  0.5392  0.8459
 1519SOL    HW2 6075   6.724   9.973   0.180 -0.3807 -0.7548  0.5133
 1519SOL     MW 6076   6.769  10.000   0.249 -0.3235  0.0601  0.1675
 1520SOL     OW 6077   3.977   9.767   5.326 -0.2466 -0.2431 -0.0950
 1520SOL    HW1 6078   3.985   9.716   5.407 -0.3552 -0.6372 -0.3274
 1520SOL    HW2 6079   3.912   9.719   5.275 -0.6798  0.3745 -0.1365
 1520SOL     MW 6080   3.969   9.753   5.330 -0.3195 -0.2130 -0.1319
 1521SOL     OW 6081   3.952   9.136   1.801 -0.1440 -0.3241 -0.5862
 1521SOL    HW1 6082   3.906   9.055   1.783  1.1591 -1.3037  0.2971
 1521SOL    HW2 6083   3.914   9.169   1.883 -1.3606  0.5257 -1.4548
 1521SOL     MW 6084   3.941   9.130   1.810 -0.1324 -0.3415 -0.5842
 1522SOL     OW 6085   5.331   0.103   2.138 -0.0264 -0.4165 -0.6026
 1522SOL    HW1 6086   5.329   0.139   2.226  1.7458 -2.0359  0.1644
 1522SOL    HW2 6087   5.394   0.157   2.091  0.6723 -0.8968 -0.2234
 1522SOL     MW 6088   5.339   0.115   2.143  0.3061 -0.6991 -0.4484
 1523SOL     OW 6089   5.125   1.154   8.147  0.0666 -0.2495  0.2837
 1523SOL    HW1 6090   5.214   1.183   8.169 -0.0834 -0.3174  0.9819
 1523SOL    HW2 6091   5.128   1.142   8.052  1.0231 -1.0021  0.3889
 1523SOL     MW 6092   5.138   1.157   8.137  0.1751 -0.3599  0.3918
 1524SOL     OW 6093   5.087   1.545   5.939  0.4444  0.5844 -0.8087
 1524SOL    HW1 6094   5.018   1.537   5.874  0.3971  0.8757 -0.7989
 1524SOL    HW2 6095   5.168   1.535   5.890  0.3828 -1.7062 -0.5324
 1524SOL     MW 6096   5.089   1.543   5.924  0.4298  0.3153 -0.7702
 1525SOL     OW 6097   7.900   9.045   1.858 -0.0750 -0.8019 -0.5144
 1525SOL    HW1 6098   7.871   9.135   1.870  0.9155 -0.4021 -0.9901
 1525SOL    HW2 6099   7.897   9.007   1.946 -1.1618 -0.5233 -0.4201
 1525SOL     MW 6100   7.896   9.052   1.871 -0.0879 -0.7106 -0.5657
 1526SOL     OW 6101   4.586   8.413   9.042 -0.7501 -0.1227 -0.5153
 1526SOL    HW1 6102   4.598   8.418   8.947 -0.8620  0.6892 -0.4899
 1526SOL    HW2 6103   4.623   8.495   9.075 -1.7842  0.1396  0.0286
 1526SOL     MW 6104   4.593   8.425   9.033 -0.9044  0.0219 -0.4387
 1527SOL     OW 6105   7.041   1.437   9.258 -0.1572 -0.0457 -0.1151
 1527SOL    HW1 6106   7.080   1.349   9.261  0.8931  0.3656 -1.0598
 1527SOL    HW2 6107   7.071   1.474   9.175  1.5677  2.1702  1.3816
 1527SOL     MW 6108   7.050   1.430   9.247  0.2162  0.3079 -0.0408
 1528SOL     OW 6109   5.486   9.617   6.317 -0.4600  0.3529  0.3980
 1528SOL    HW1 6110   5.403   9.574   6.297  0.0910 -1.1112  1.1605
 1528SOL    HW2 6111   5.460   9.702   6.354 -1.6273 -0.1751  0.8587
 1528SOL     MW 6112   5.471   9.623   6.319 -0.5429  0.0848  0.5626
 1529SOL     OW 6113   5.900  10.137   7.693 -0.1133  0.0080  0.0019
 1529SOL    HW1 6114   5.867  10.067   7.636 -1.4028  0.8180 -0.2941
 1529SOL    HW2 6115   5.856  10.122   7.776 -1.5314  1.2658 -0.4787
 1529SOL     MW 6116   5.890  10.126   7.696 -0.4777  0.2863 -0.1026
 1530SOL     OW 6117   6.669   0.400   0.611 -0.1474  0.0208 -0.2728
 1530SOL    HW1 6118   6.619   0.475   0.640  1.6281  1.9711 -1.9175
 1530SOL    HW2 6119   6.692   0.419   0.520  1.8028 -1.6967 -0.2349
 1530SOL     MW 6120   6.666   0.412   0.603  0.3540  0.0521 -0.4890
 1531SOL     OW 6121   3.833   9.282   5.608 -0.4634 -0.4396  0.0973
 1531SOL    HW1 6122   3.840   9.275   5.703  0.5050 -2.0005 -0.0515
 1531SOL    HW2 6123   3.916   9.247   5.576 -1.1969 -0.9170 -1.3532
 1531SOL     MW 6124   3.845   9.276   5.617 -0.4318 -0.7139 -0.1179
 1532SOL     OW 6125   5.461   1.404   4.948 -0.4639  0.0089  0.3868
 1532SOL    HW1 6126   5.388   1.392   5.009  0.0497 -0.2193  0.9701
 1532SOL    HW2 6127   5.466   1.321   4.900  0.3895 -0.5630  1.4367
 1532SOL     MW 6128   5.452   1.391   4.950 -0.2799 -0.0988  0.6066
 1533SOL     OW 6129   6.781   8.869   6.568 -0.3418 -0.3716  0.4031
 1533SOL    HW1 6130   6.735   8.818   6.501 -0.1122  1.3130 -1.1091
 1533SOL    HW2 6131   6.842   8.807   6.608 -0.1424 -1.3277 -1.2935
 1533SOL     MW 6132   6.783   8.854   6.564 -0.2841 -0.2735 -0.0287
 1534SOL     OW 6133   4.221   8.790   4.224  0.4177  0.2750 -0.0924
 1534SOL    HW1 6134   4.187   8.846   4.294 -0.8730  1.1550 -1.3591
 1534SOL    HW2 6135   4.310   8.822   4.210  0.5371  0.3817  0.8424
 1534SOL     MW 6136   4.228   8.802   4.232  0.2601  0.4078 -0.1371
 1535SOL     OW 6137   6.598   8.642   7.309  0.7628  0.0084 -0.3361
 1535SOL    HW1 6138   6.541   8.681   7.243  0.6647  1.6150  0.6532
 1535SOL    HW2 6139   6.676   8.616   7.259  0.6849  1.1699 -1.1176
 1535SOL     MW 6140   6.601   8.644   7.293  0.7391  0.3810 -0.3081
 1536SOL     OW 6141   5.377   7.911   5.159 -0.1690 -0.2158 -0.0430
 1536SOL    HW1 6142   5.454   7.872   5.199  0.7770  1.3165 -0.2847
 1536SOL    HW2 6143   5.396   7.912   5.066 -0.0214  1.0837 -0.0159
 1536SOL     MW 6144   5.390   7.906   5.152 -0.0218  0.1653 -0.0719
 1537SOL     OW 6145   6.509   1.447   5.488  0.4859 -0.0225 -0.3971
 1537SOL    HW1 6146   6.433   1.498   5.517 -1.3172 -0.9428 -3.1427
 1537SOL    HW2 6147   6.492   1.358   5.521  0.7609 -0.0694 -0.3807
 1537SOL     MW 6148   6.497   1.442   5.497  0.2803 -0.1527 -0.7644
 1538SOL     OW 6149   7.952   0.058   5.661  0.4506  0.0839 -0.3343
 1538SOL    HW1 6150   7.905   0.077   5.742  0.2105 -0.6242 -0.3065
 1538SOL    HW2 6151   7.944  -0.036   5.649  1.9767 -0.0788 -0.2760
 1538SOL     MW 6152   7.944   0.048   5.670  0.6237 -0.0333 -0.3227
 1539SOL     OW 6153   7.648   8.718   0.852 -0.9012  0.3315  0.8037
 1539SOL    HW1 6154   7.565   8.670   0.857 -1.3014  1.1337  2.4921
 1539SOL    HW2 6155   7.648   8.773   0.930  0.3488  1.7770 -0.1693
 1539SOL     MW 6156   7.637   8.719   0.863 -0.7868  0.6340  0.9000
 1540SOL     OW 6157   4.013   0.287   4.879  0.0800 -0.1950 -0.6472
 1540SOL    HW1 6158   3.942   0.223   4.888 -0.2824  0.2284 -0.4532
 1540SOL    HW2 6159   4.038   0.309   4.969  1.1518 -1.0906 -0.7065
 1540SOL     MW 6160   4.007   0.282   4.892  0.1755 -0.2585 -0.6291
 1541SOL     OW 6161   5.932   0.577   7.684 -0.2157 -0.3953  0.3038
 1541SOL    HW1 6162   5.942   0.506   7.747  1.0237  0.0643  0.6582
 1541SOL    HW2 6163   5.848   0.617   7.707 -0.8950 -1.6851  0.1339
 1541SOL     MW 6164   5.922   0.573   7.696 -0.1403 -0.5070  0.3286
 1542SOL     OW 6165   7.828   0.694   8.143  0.3043  0.3501  0.1045
 1542SOL    HW1 6166   7.783   0.620   8.102  1.6145  0.4948 -1.7196
 1542SOL    HW2 6167   7.857   0.661   8.227 -2.0430 -0.1365  0.8111
 1542SOL     MW 6168   7.826   0.680   8.149  0.1647  0.3041 -0.0459
 1543SOL     OW 6169   6.762   0.618   3.871  0.0685  0.1172  0.2366
 1543SOL    HW1 6170   6.848   0.622   3.829 -0.0082  0.9290  0.1525
 1543SOL    HW2 6171   6.701   0.595   3.800  0.1863 -0.2824  0.2622
 1543SOL     MW 6172   6.765   0.615   3.856  0.0741  0.1727  0.2288
 1544SOL     OW 6173   7.147   9.911   4.254 -0.0941  0.2411 -0.1877
 1544SOL    HW1 6174   7.188   9.852   4.192 -1.0651 -0.2350 -0.3965
 1544SOL    HW2 6175   7.084   9.961   4.202  0.0898  0.8400  0.1512
 1544SOL     MW 6176   7.144   9.910   4.239 -0.2000  0.2576 -0.1702
 1545SOL     OW 6177   6.866   1.087   6.101  0.1558 -0.4512 -0.0723
 1545SOL    HW1 6178   6.791   1.104   6.044  0.1723 -2.2807 -0.6973
 1545SOL    HW2 6179   6.830   1.036   6.174  0.5542 -0.1250  0.3619
 1545SOL     MW 6180   6.851   1.083   6.103  0.2116 -0.6535 -0.0979
 1546SOL     OW 6181   5.070  10.035   2.337  0.1220 -0.0941  0.1195
 1546SOL    HW1 6182   5.077   9.940   2.351  0.6038 -0.2592 -1.1110
 1546SOL    HW2 6183   5.037  10.043   2.247  0.2534  0.9038  0.1570
 1546SOL     MW 6184   5.067  10.023   2.327  0.2046  0.0180 -0.0410
 1547SOL     OW 6185   4.240   0.926   2.096 -0.0446  0.1768 -0.8201
 1547SOL    HW1 6186   4.191   0.975   2.031  0.1719  2.5411  0.6719
 1547SOL    HW2 6187   4.194   0.842   2.103 -3.4361  1.9059 -0.1135
 1547SOL     MW 6188   4.227   0.921   2.088 -0.4719  0.7277 -0.5242
 1548SOL     OW 6189   4.702   7.956   5.388  0.4382  0.0346 -0.3728
 1548SOL    HW1 6190   4.706   7.946   5.293 -1.3371  0.2564 -0.4948
 1548SOL    HW2 6191   4.782   7.914   5.420  1.7541  1.1244 -2.0298
 1548SOL     MW 6192   4.713   7.949   5.379  0.3764  0.2111 -0.6122
 1549SOL     OW 6193   4.595   0.753   7.984 -0.5616 -0.3174  0.3569
 1549SOL    HW1 6194   4.556   0.797   8.059  1.6096  2.3607  0.0508
 1549SOL    HW2 6195   4.547   0.786   7.908 -0.5135 -0.3509  0.3112
 1549SOL     MW 6196   4.583   0.763   7.984 -0.2629  0.0385  0.3095
 1550SOL     OW 6197   4.994   1.049   1.703 -0.1466  0.0696  0.5674
 1550SOL    HW1 6198   4.969   1.055   1.611 -1.5796  1.4880  1.0081
 1550SOL    HW2 6199   4.997   0.955   1.721 -1.5149 -0.2162 -0.5051
 1550SOL     MW 6200   4.991   1.037   1.693 -0.5236  0.2220  0.4824
 1551SOL     OW 6201   8.106   9.643   4.664  0.0637 -0.1675  0.0564
 1551SOL    HW1 6202   8.126   9.550   4.675  0.8023 -0.2680 -1.8372
 1551SOL    HW2 6203   8.121   9.660   4.571 -0.9345  1.6482  0.1898
 1551SOL     MW 6204   8.111   9.633   4.653  0.0288  0.0633 -0.1805
 1552SOL     OW 6205   3.741   9.778   7.127  0.6060  0.3830 -0.1171
 1552SOL    HW1 6206   3.784   9.816   7.051  0.2439  1.8243  0.3648
 1552SOL    HW2 6207   3.792   9.810   7.202  1.2279 -1.3762  0.2557
 1552SOL     MW 6208   3.754   9.788   7.127  0.6409  0.3402 -0.0020
 1553SOL     OW 6209   7.281   9.264   3.410 -0.2050 -0.1239 -0.2584
 1553SOL    HW1 6210   7.366   9.222   3.422 -0.1995 -0.8166 -2.2450
 1553SOL    HW2 6211   7.265   9.258   3.315 -1.3953  2.0728 -0.2604
 1553SOL     MW 6212   7.290   9.258   3.399 -0.3645  0.0785 -0.5260
 1554SOL     OW 6213   7.531   0.826   6.449  0.4210 -0.2012  0.0307
 1554SOL    HW1 6214   7.449   0.870   6.472  1.2347  0.3969  1.9850
 1554SOL    HW2 6215   7.596   0.897   6.442  1.3742 -0.8877  1.4646
 1554SOL     MW 6216   7.529   0.842   6.451  0.6588 -0.2131  0.4867
 1555SOL     OW 6217   6.968   9.160   9.974 -0.1777  0.2609  0.0816
 1555SOL    HW1 6218   6.947   9.251   9.995  1.0111  0.7705 -0.8460
 1555SOL    HW2 6219   6.987   9.161   9.880 -1.0535 -1.1320 -0.1491
 1555SOL     MW 6220   6.967   9.173   9.964 -0.1356  0.1420 -0.0743
 1556SOL     OW 6221   5.998   1.004   5.653  0.4366  0.2594 -0.3067
 1556SOL    HW1 6222   5.943   0.927   5.639  0.9439  0.0187 -1.0101
 1556SOL    HW2 6223   5.958   1.072   5.599 -0.4221  0.7104  0.8479
 1556SOL     MW 6224   5.985   1.003   5.644  0.3893  0.2877 -0.2460
 1557SOL     OW 6225   4.861   9.842   1.575  0.1723 -0.0830  0.4185
 1557SOL    HW1 6226   4.934   9.791   1.539 -0.0125 -0.7128  0.9244
 1557SOL    HW2 6227   4.851   9.811   1.664 -0.3196  0.4428  0.5552
 1557SOL     MW 6228   4.869   9.831   1.582  0.0813 -0.0970  0.5050
 1558SOL     OW 6229   6.205   0.431   7.600  0.2046 -0.1520  0.0851
 1558SOL    HW1 6230   6.163   0.433   7.687  2.3873 -0.3457  1.2013
 1558SOL    HW2 6231   6.145   0.481   7.544 -1.0938  0.2914  1.7726
 1558SOL     MW 6232   6.191   0.438   7.604  0.3236 -0.1184  0.4624
 1559SOL     OW 6233   4.235   8.466   6.873 -0.0094  0.2708  0.2824
 1559SOL    HW1 6234   4.218   8.484   6.965 -0.0741 -1.4214  0.6471
 1559SOL    HW2 6235   4.153   8.430   6.840  0.0572  0.7352 -0.3957
 1559SOL     MW 6236   4.222   8.463   6.881 -0.0091  0.1056  0.2402
 1560SOL     OW 6237   5.501   9.432   2.107 -0.0834 -0.1079  0.6053
 1560SOL    HW1 6238   5.524   9.521   2.134  0.2246 -0.3056  1.0000
 1560SOL    HW2 6239   5.468   9.442   2.018  1.0737  0.2545  0.2003
 1560SOL     MW 6240   5.499   9.445   2.099  0.1138 -0.0858  0.6039
 1561SOL     OW 6241   5.834   0.800  10.154  0.2532  0.3715 -0.4372
 1561SOL    HW1 6242   5.747   0.801  10.115  0.0650  0.2727 -0.0279
 1561SOL    HW2 6243   5.857   0.707  10.157  1.9814  0.5446 -4.0328
 1561SOL     MW 6244   5.825   0.787  10.149  0.4604  0.3815 -0.8660
 1562SOL     OW 6245   4.274   8.897   7.326 -0.3878 -0.4268 -0.2377
 1562SOL    HW1 6246   4.341   8.837   7.359 -0.3868  0.8873  2.3695
 1562SOL    HW2 6247   4.303   8.984   7.354 -1.8256  0.4835 -1.4233
 1562SOL     MW 6248   4.287   8.901   7.334 -0.5812 -0.1274 -0.0464
 1563SOL     OW 6249   4.188   1.145   1.243  0.2662  0.2896 -0.1488
 1563SOL    HW1 6250   4.164   1.234   1.268  1.4894  0.6138 -0.0663
 1563SOL    HW2 6251   4.244   1.114   1.314  1.2808  0.1003 -1.0154
 1563SOL     MW 6252   4.192   1.153   1.256  0.5674  0.3077 -0.2543
 1564SOL     OW 6253   3.700  10.122   4.604  0.1248  0.2008  0.4927
 1564SOL    HW1 6254   3.742  10.036   4.597 -1.0121 -0.4359  1.0432
 1564SOL    HW2 6255   3.709  10.161   4.517  1.1207 -0.2443  0.3831
 1564SOL     MW 6256   3.707  10.115   4.592  0.1058  0.0552  0.5520
 1565SOL     OW 6257   6.143   9.815   7.646 -0.9164  0.0518  0.1676
 1565SOL    HW1 6258   6.181   9.727   7.643  0.0861  0.4605  0.4392
 1565SOL    HW2 6259   6.180   9.860   7.569  0.9164  1.1280  1.6028
 1565SOL     MW 6260   6.153   9.809   7.635 -0.5349  0.2517  0.3973
 1566SOL     OW 6261   5.385   8.287   7.977 -0.3039 -0.3975 -0.1065
 1566SOL    HW1 6262   5.423   8.352   8.037  0.8470 -1.2233  0.0911
 1566SOL    HW2 6263   5.334   8.229   8.034 -0.2935 -0.4044 -0.1042
 1566SOL     MW 6264   5.383   8.288   7.993 -0.1476 -0.5096 -0.0796
 1567SOL     OW 6265   6.869   8.454   0.077 -0.4745 -0.3136 -0.2856
 1567SOL    HW1 6266   6.905   8.531   0.121  0.5490 -0.6529 -0.4866
 1567SOL    HW2 6267   6.829   8.403   0.147 -2.9972  1.3190 -0.3991
 1567SOL     MW 6268   6.869   8.458   0.093 -0.6762 -0.1395 -0.3279
 1568SOL     OW 6269   5.088   8.227   5.104 -0.1078  0.8013  0.0104
 1568SOL    HW1 6270   5.096   8.142   5.147 -0.8441  0.6670 -0.0985
 1568SOL    HW2 6271   5.128   8.289   5.164 -1.3384  0.6545  1.0121
 1568SOL     MW 6272   5.094   8.224   5.118 -0.3725  0.7635  0.1306
 1569SOL     OW 6273   6.177   0.235   3.972 -0.2598  0.3120 -0.3307
 1569SOL    HW1 6274   6.146   0.272   3.890  1.4199 -3.0626 -2.7212
 1569SOL    HW2 6275   6.143   0.145   3.972  2.1066 -0.6778  1.2094
 1569SOL     MW 6276   6.168   0.228   3.961  0.2848 -0.2754 -0.4452
 1570SOL     OW 6277   5.234   9.034   8.227  0.1073 -0.0423  0.0564
 1570SOL    HW1 6278   5.145   9.019   8.197 -0.0105  0.4898  0.1284
 1570SOL    HW2 6279   5.289   8.979   8.170 -0.2050  0.1229 -0.4051
 1570SOL     MW 6280   5.230   9.024   8.216  0.0494  0.0515  0.0040
 1571SOL     OW 6281   4.323   8.615   2.588  0.5531  0.2759 -0.0697
 1571SOL    HW1 6282   4.361   8.679   2.527  1.2810 -1.2261 -1.2496
 1571SOL    HW2 6283   4.231   8.639   2.594  0.8018  1.4119 -0.4964
 1571SOL     MW 6284   4.316   8.627   2.581  0.6845  0.2266 -0.2859
 1572SOL     OW 6285   3.742   8.712   2.692 -0.0218  0.2466 -0.2334
 1572SOL    HW1 6286   3.769   8.690   2.781 -2.0043  1.3458  0.7134
 1572SOL    HW2 6287   3.715   8.628   2.654 -0.7525 -0.0162  0.8164
 1572SOL     MW 6288   3.742   8.698   2.699 -0.3869  0.3592  0.0353
 1573SOL     OW 6289   7.888   0.820   4.374  0.0050 -0.0304  0.2120
 1573SOL    HW1 6290   7.840   0.815   4.292 -1.9702 -4.5461  1.3431
 1573SOL    HW2 6291   7.842   0.886   4.426 -1.4048 -0.1793 -0.8082
 1573SOL     MW 6292   7.876   0.828   4.370 -0.4505 -0.6581  0.2270
 1574SOL     OW 6293   5.221   7.828   9.867  0.4097 -0.3758 -0.0279
 1574SOL    HW1 6294   5.202   7.851   9.776 -1.9437 -0.4562  0.3668
 1574SOL    HW2 6295   5.237   7.913   9.910  2.2498 -0.3861 -0.5973
 1574SOL     MW 6296   5.221   7.843   9.861  0.3406 -0.3881 -0.0514
 1575SOL     OW 6297   4.847   8.391   1.086 -0.6613 -0.0415 -0.9425
 1575SOL    HW1 6298   4.888   8.384   1.000 -0.0209  2.2823 -0.8954
 1575SOL    HW2 6299   4.792   8.313   1.093 -0.0265 -0.7463 -3.0577
 1575SOL     MW 6300   4.845   8.380   1.076 -0.4897  0.1764 -1.2209
 1576SOL     OW 6301   4.325   8.088   6.444 -0.4496  0.2025 -0.1329
 1576SOL    HW1 6302   4.361   8.077   6.531  0.4224 -0.0375 -0.5142
 1576SOL    HW2 6303   4.312   8.000   6.411 -0.2350  0.2848 -0.4528
 1576SOL     MW 6304   4.328   8.075   6.451 -0.3034  0.1813 -0.2273
 1577SOL     OW 6305   6.284   8.102   5.317  0.2289  0.0198  0.3565
 1577SOL    HW1 6306   6.335   8.025   5.293  0.3662  0.3470 -0.4364
 1577SOL    HW2 6307   6.334   8.176   5.281 -0.2025  0.4365  0.5926
 1577SOL     MW 6308   6.298   8.102   5.309  0.1893  0.1200  0.2815
 1578SOL     OW 6309   5.366   0.811   8.097 -0.0177  0.1977 -0.1272
 1578SOL    HW1 6310   5.399   0.859   8.021 -0.9950 -0.5415 -1.0519
 1578SOL    HW2 6311   5.430   0.741   8.110 -1.1136 -1.2312 -1.9101
 1578SOL     MW 6312   5.379   0.808   8.089 -0.2967 -0.0941 -0.4916
 1579SOL     OW 6313   4.889   7.901   6.286  0.0383 -0.0212 -0.1253
 1579SOL    HW1 6314   4.976   7.868   6.263  0.3683  0.0865  0.9311
 1579SOL    HW2 6315   4.903   7.994   6.306 -0.3791  0.0649 -0.2220
 1579SOL     MW 6316   4.903   7.909   6.285  0.0265  0.0049  0.0038
 1580SOL     OW 6317   6.749   0.949   6.309 -0.3101  0.0853 -1.0460
 1580SOL    HW1 6318   6.841   0.930   6.328 -0.2404  0.9669 -0.4295
 1580SOL    HW2 6319   6.707   0.863   6.309  0.4322 -0.2942 -0.9111
 1580SOL     MW 6320   6.756   0.935   6.311 -0.2008  0.1529 -0.9449
 1581SOL     OW 6321   5.051   1.210   5.713  0.0385 -0.2196 -0.6682
 1581SOL    HW1 6322   5.128   1.239   5.664 -0.8711  1.1055 -1.3784
 1581SOL    HW2 6323   4.995   1.169   5.647 -0.9689  1.1092 -0.6820
 1581SOL     MW 6324   5.054   1.208   5.697 -0.2195  0.1375 -0.7656
 1582SOL     OW 6325   6.957   0.069   6.025 -0.1385  0.1389 -0.0455
 1582SOL    HW1 6326   7.052   0.074   6.042 -0.1913  1.1213 -0.0082
 1582SOL    HW2 6327   6.917   0.074   6.112 -0.2118 -1.0325  0.0017
 1582SOL     MW 6328   6.965   0.070   6.039 -0.1555  0.1134 -0.0341
 1583SOL     OW 6329   5.511   0.815   2.187  0.1928 -0.5502  0.1038
 1583SOL    HW1 6330   5.588   0.802   2.132 -0.8070 -0.8914 -1.2497
 1583SOL    HW2 6331   5.500   0.732   2.233  0.4829 -0.5796  0.1239
 1583SOL     MW 6332   5.520   0.802   2.186  0.0973 -0.6000 -0.0757
 1584SOL     OW 6333   7.236   0.166   3.414  0.3017 -0.4366  0.2089
 1584SOL    HW1 6334   7.198   0.079   3.430  0.3175 -0.1851  1.8555
 1584SOL    HW2 6335   7.264   0.164   3.323 -2.8199 -0.9498 -0.8709
 1584SOL     MW 6336   7.235   0.154   3.404 -0.1163 -0.4718  0.2852
 1585SOL     OW 6337   7.692   0.993   7.732  0.1032  0.2285 -0.1906
 1585SOL    HW1 6338   7.757   0.989   7.802 -1.5750 -0.5852  1.3973
 1585SOL    HW2 6339   7.642   0.912   7.740 -2.7946  1.9143  0.4093
 1585SOL     MW 6340   7.694   0.982   7.742 -0.5127  0.3459  0.1038
 1586SOL     OW 6341   7.904  10.100   2.975  0.3775  0.4158 -0.0192
 1586SOL    HW1 6342   7.963  10.035   3.011  0.7379  1.0067  0.4868
 1586SOL    HW2 6343   7.855  10.133   3.051 -0.0789  0.4513 -0.3242
 1586SOL     MW 6344   7.905  10.096   2.990  0.3646  0.5001  0.0078
 1587SOL     OW 6345   5.057   8.172   4.249 -0.0375 -0.0619  0.3994
 1587SOL    HW1 6346   5.044   8.184   4.155  0.4829  1.6267  0.5229
 1587SOL    HW2 6347   5.018   8.249   4.289  2.4669  0.8074  1.3398
 1587SOL     MW 6348   5.050   8.184   4.242  0.3696  0.2823  0.5426
 1588SOL     OW 6349   4.160   0.660   3.608  0.5021  0.0740 -0.7619
 1588SOL    HW1 6350   4.151   0.566   3.595  2.2872 -0.3194  0.4963
 1588SOL    HW2 6351   4.154   0.672   3.702 -1.5162  1.4973 -1.0025
 1588SOL     MW 6352   4.158   0.649   3.619  0.4707  0.2126 -0.6250
 1589SOL     OW 6353   6.341   7.741   0.229  0.1811 -0.3581  0.1423
 1589SOL    HW1 6354   6.348   7.836   0.244 -2.0967 -0.2069  0.6717
 1589SOL    HW2 6355   6.260   7.731   0.179  0.4472 -2.0215  0.0123
 1589SOL     MW 6356   6.331   7.753   0.225 -0.0896 -0.5616  0.1961
 1590SOL     OW 6357   4.735   9.077   7.623  0.1807 -0.2925  0.2737
 1590SOL    HW1 6358   4.654   9.069   7.673 -0.2134 -1.0537 -0.4668
 1590SOL    HW2 6359   4.707   9.075   7.531  0.9423  0.4864  0.0081
 1590SOL     MW 6360   4.720   9.076   7.617  0.2302 -0.2901  0.1383
 1591SOL     OW 6361   7.014  10.098   9.566 -0.0428 -0.1513  0.1834
 1591SOL    HW1 6362   7.100  10.068   9.536 -0.3337 -0.8269  0.0253
 1591SOL    HW2 6363   6.957  10.086   9.491 -0.4133 -0.2745  0.4870
 1591SOL     MW 6364   7.018  10.093   9.552 -0.1318 -0.2588  0.2030
 1592SOL     OW 6365   7.072   8.754   7.624  0.0326  0.3332  0.2805
 1592SOL    HW1 6366   7.129   8.728   7.696 -0.0904  1.2403  0.7174
 1592SOL    HW2 6367   7.002   8.688   7.624  1.8997 -1.8175 -1.3595
 1592SOL     MW 6368   7.070   8.742   7.634  0.2673  0.1658  0.1186
 1593SOL     OW 6369   5.445  10.151   3.304 -0.4678 -0.2996 -0.1481
 1593SOL    HW1 6370   5.530  10.115   3.276 -0.2983  0.2023 -0.2830
 1593SOL    HW2 6371   5.381  10.101   3.254 -0.1566  0.9032 -1.8284
 1593SOL     MW 6372   5.448  10.139   3.294 -0.4031 -0.0702 -0.3924
 1594SOL     OW 6373   5.716   1.557   6.955 -0.0343  0.5510 -0.2872
 1594SOL    HW1 6374   5.782   1.495   6.926  0.1419  0.9067 -0.6601
 1594SOL    HW2 6375   5.765   1.626   6.999 -0.3363 -0.2532  1.4098
 1594SOL     MW 6376   5.732   1.558   6.957 -0.0512  0.4906 -0.1090
 1595SOL     OW 6377   6.587   8.817   5.705 -0.3775  0.2951  0.3188
 1595SOL    HW1 6378   6.587   8.828   5.800  0.4067  0.5923  0.2943
 1595SOL    HW2 6379   6.495   8.804   5.682 -0.9397  2.9226  0.7984
 1595SOL     MW 6380   6.575   8.817   5.715 -0.3476  0.6887  0.3800
 1596SOL     OW 6381   5.871   9.726   5.286  0.1020 -0.1188 -0.2406
 1596SOL    HW1 6382   5.887   9.761   5.374  0.6931  1.6898 -1.0328
 1596SOL    HW2 6383   5.777   9.739   5.272  0.0269 -0.3117  0.0621
 1596SOL     MW 6384   5.860   9.732   5.296  0.1714  0.0987 -0.3065
 1597SOL     OW 6385   6.872   9.819   0.400  0.3675 -0.4178  0.3883
 1597SOL    HW1 6386   6.801   9.757   0.385 -1.1783  1.0422  1.3948
 1597SOL    HW2 6387   6.949   9.777   0.361 -0.5791 -2.9798  1.1013
 1597SOL     MW 6388   6.873   9.805   0.393  0.0321 -0.5661  0.6197
 1598SOL     OW 6389   6.770   8.956   1.791  0.5222 -0.0119 -0.0926
 1598SOL    HW1 6390   6.692   8.903   1.805  1.4850 -1.3833  0.3047
 1598SOL    HW2 6391   6.768   9.021   1.860  0.1207 -0.5303  0.3914
 1598SOL     MW 6392   6.759   8.957   1.802  0.5978 -0.2663  0.0260
 1599SOL     OW 6393   5.562   9.318   3.407 -0.5267  0.2592 -0.9397
 1599SOL    HW1 6394   5.469   9.309   3.385 -0.4266  0.0602 -1.2873
 1599SOL    HW2 6395   5.597   9.229   3.399 -0.3531  0.2906 -0.5761
 1599SOL     MW 6396   5.554   9.305   3.403 -0.4899  0.2366 -0.9376
 1600SOL     OW 6397   6.011   1.225   1.621 -0.3163 -0.4724  0.1250
 1600SOL    HW1 6398   6.105   1.216   1.602 -0.1920 -0.5493  0.7696
 1600SOL    HW2 6399   5.969   1.166   1.559  0.0246 -0.0961 -0.4862
 1600SOL     MW 6400   6.018   1.216   1.610 -0.2537 -0.4321  0.1295
 1601SOL     OW 6401   4.225   0.853   5.715 -0.3149 -0.6831  0.1823
 1601SOL    HW1 6402   4.286   0.838   5.643 -1.2894 -0.1008 -0.8026
 1601SOL    HW2 6403   4.274   0.830   5.793  1.5182  0.7222 -0.4765
 1601SOL     MW 6404   4.240   0.848   5.715 -0.1994 -0.4156 -0.0389
 1602SOL     OW 6405   6.490   8.151   8.600 -0.0213 -0.3405 -0.2154
 1602SOL    HW1 6406   6.562   8.108   8.645 -1.4203 -0.8570  1.6510
 1602SOL    HW2 6407   6.455   8.084   8.542  1.0647 -0.0343 -1.2654
 1602SOL     MW 6408   6.495   8.136   8.598 -0.0634 -0.3688 -0.1055
 1603SOL     OW 6409   3.800   0.456   2.931 -0.5119 -0.6656 -0.3539
 1603SOL    HW1 6410   3.717   0.490   2.899 -0.5544  0.6121  1.0362
 1603SOL    HW2 6411   3.864   0.481   2.864 -1.4451 -3.3023 -2.3918
 1603SOL     MW 6412   3.798   0.464   2.918 -0.6432 -0.8485 -0.4411
 1604SOL     OW 6413   4.082   9.281   5.992 -0.4080  0.0781  0.6727
 1604SOL    HW1 6414   4.080   9.224   6.069 -0.8873  0.9864  1.3492
 1604SOL    HW2 6415   3.991   9.285   5.963 -1.0718  3.1476  2.6754
 1604SOL     MW 6416   4.070   9.274   5.998 -0.5619  0.6135  1.0333
 1605SOL     OW 6417   4.887   9.442   4.530 -0.0104  0.1688 -0.0340
 1605SOL    HW1 6418   4.835   9.369   4.497  0.1980 -0.7980  1.6668
 1605SOL    HW2 6419   4.962   9.401   4.573  0.0797  1.3599  1.0280
 1605SOL     MW 6420   4.890   9.427   4.531  0.0298  0.1990  0.3378
 1606SOL     OW 6421   5.694   0.837   0.240 -0.6981  0.3129 -0.0511
 1606SOL    HW1 6422   5.759   0.830   0.169  0.0398 -0.0541  0.6431
 1606SOL    HW2 6423   5.625   0.776   0.215 -0.2416 -0.1298 -0.2524
 1606SOL     MW 6424   5.693   0.828   0.227 -0.5373  0.2039  0.0152
 1607SOL     OW 6425   4.234   9.942   0.943 -0.2127  0.6019  0.1274
 1607SOL    HW1 6426   4.224   9.870   0.881  0.0068 -0.3108  1.1247
 1607SOL    HW2 6427   4.174   9.922   1.014 -1.0292  2.0318 -0.1113
 1607SOL     MW 6428   4.225   9.930   0.944 -0.2930  0.6715  0.2295
 1608SOL     OW 6429   6.087   9.054   7.759  0.4599 -0.0505 -0.7456
 1608SOL    HW1 6430   6.172   9.053   7.804  0.9001 -0.1180 -1.5540
 1608SOL    HW2 6431   6.031   8.997   7.812  0.1198  2.0042  1.2717
 1608SOL     MW 6432   6.091   9.046   7.772  0.4733  0.2169 -0.5829
 1609SOL     OW 6433   6.231   1.319   5.746  0.1247 -0.0955  0.6136
 1609SOL    HW1 6434   6.186   1.336   5.663 -0.8573  1.3468  1.3924
 1609SOL    HW2 6435   6.170   1.263   5.795  0.2347 -0.0865  0.7618
 1609SOL     MW 6436   6.216   1.313   5.741  0.0073  0.0998  0.7384
 1610SOL     OW 6437   5.460   9.327   8.706 -0.4198 -0.5714  0.3918
 1610SOL    HW1 6438   5.459   9.282   8.790  1.4258 -0.2084  0.6461
 1610SOL    HW2 6439   5.436   9.260   8.642 -2.0634 -0.7944  1.2050
 1610SOL     MW 6440   5.457   9.312   8.709 -0.3926 -0.5526  0.5355
 1611SOL     OW 6441   6.596   8.811   2.115 -0.5236 -0.3333  0.2096
 1611SOL    HW1 6442   6.598   8.779   2.024 -1.8693 -0.2653  0.1366
 1611SOL    HW2 6443   6.503   8.809   2.139 -0.0923 -1.4329  1.9724
 1611SOL     MW 6444   6.583   8.806   2.106 -0.6467 -0.4721  0.4370
 1612SOL     OW 6445   5.863   8.987   6.971  0.0513 -0.6000 -0.3655
 1612SOL    HW1 6446   5.932   8.940   7.017 -0.2050  0.0773  0.7394
 1612SOL    HW2 6447   5.909   9.045   6.910  0.4392 -0.6015 -0.0740
 1612SOL     MW 6448   5.878   8.989   6.969  0.0690 -0.5090 -0.1776
 1613SOL     OW 6449   6.036   1.802   4.444 -0.1605 -0.2123 -0.3259
 1613SOL    HW1 6450   6.038   1.880   4.499  1.0389 -1.5375  1.6362
 1613SOL    HW2 6451   6.110   1.812   4.384  0.4995 -0.2229  0.4843
 1613SOL     MW 6452   6.046   1.814   4.443  0.0897 -0.3921  0.0472
 1614SOL     OW 6453   7.307   9.929   0.323  0.2072 -0.1000  0.2718
 1614SOL    HW1 6454   7.371   9.939   0.252  1.5809  0.7534  1.5731
 1614SOL    HW2 6455   7.261  10.013   0.325  0.8180  0.2320  0.9624
 1614SOL     MW 6456   7.310   9.942   0.314  0.4743  0.0596  0.5399
 1615SOL     OW 6457   4.506   7.897   0.518  0.2834 -0.4793 -0.4350
 1615SOL    HW1 6458   4.511   7.919   0.425  3.5570 -1.2525 -0.5821
 1615SOL    HW2 6459   4.507   7.982   0.562  1.9692 -0.1049 -1.1149
 1615SOL     MW 6460   4.507   7.912   0.511  0.9509 -0.5329 -0.5463
 1616SOL     OW 6461   4.761   8.903   2.841  0.2912 -0.3534 -0.3109
 1616SOL    HW1 6462   4.808   8.826   2.873 -1.9520 -1.4647  0.5111
 1616SOL    HW2 6463   4.755   8.889   2.747  1.6558 -0.1330 -0.4484
 1616SOL     MW 6464   4.767   8.891   2.833  0.1729 -0.4733 -0.2188
 1617SOL     OW 6465   5.674   9.552   9.237  0.4395 -0.0990 -0.3110
 1617SOL    HW1 6466   5.688   9.558   9.143 -0.8847  1.6477 -0.4291
 1617SOL    HW2 6467   5.579   9.549   9.247  0.5686 -1.2984  0.9546
 1617SOL     MW 6468   5.663   9.552   9.226  0.2787 -0.0254 -0.1565
 1618SOL     OW 6469   5.876   8.378   3.891  0.1228 -0.2150 -0.0268
 1618SOL    HW1 6470   5.822   8.314   3.938 -0.7643  0.8932  0.5048
 1618SOL    HW2 6471   5.947   8.399   3.952  0.3504 -0.5975 -0.1566
 1618SOL     MW 6472   5.879   8.372   3.906  0.0340 -0.1174  0.0273
 1619SOL     OW 6473   5.916   1.700   0.650  0.1345  0.1640  0.1026
 1619SOL    HW1 6474   5.886   1.686   0.560 -0.9884 -0.1064  0.4989
 1619SOL    HW2 6475   6.009   1.678   0.648  0.2630  0.7265 -1.1127
 1619SOL     MW 6476   5.925   1.695   0.637  0.0007  0.2033 -0.0076
 1620SOL     OW 6477   4.538   8.169   5.439  0.7743  0.2343 -0.0905
 1620SOL    HW1 6478   4.561   8.078   5.417  1.4907  0.3548  0.1300
 1620SOL    HW2 6479   4.618   8.218   5.421  0.6116  0.7121  0.4643
 1620SOL     MW 6480   4.552   8.163   5.434  0.8488  0.3149  0.0139
 1621SOL     OW 6481   5.009   9.363   3.746 -0.1522 -0.0455 -0.1575
 1621SOL    HW1 6482   4.965   9.430   3.693 -0.7632 -0.2631  0.0685
 1621SOL    HW2 6483   4.947   9.344   3.817  1.0046  0.8660  1.1491
 1621SOL     MW 6484   4.994   9.370   3.748 -0.0788  0.0479  0.0488
 1622SOL     OW 6485   6.307   9.172   5.459 -0.0248 -0.7395 -0.2775
 1622SOL    HW1 6486   6.287   9.238   5.525  1.3520 -0.1794 -0.3797
 1622SOL    HW2 6487   6.235   9.109   5.465 -0.1885 -0.4411  1.3894
 1622SOL     MW 6488   6.295   9.172   5.468  0.1384 -0.6240 -0.0669
 1623SOL     OW 6489   6.582   8.414   7.646  0.7076 -0.2323 -0.0308
 1623SOL    HW1 6490   6.661   8.464   7.628  0.0257  2.2145  2.9684
 1623SOL    HW2 6491   6.528   8.424   7.568  1.4655  2.0610 -0.3222
 1623SOL     MW 6492   6.585   8.422   7.633  0.7178  0.4056  0.3336
 1624SOL     OW 6493   6.444   0.967   6.460 -0.0320 -0.1902 -0.3751
 1624SOL    HW1 6494   6.490   1.043   6.424 -1.0419  0.3152 -0.6420
 1624SOL    HW2 6495   6.386   0.938   6.389  0.0340 -0.9563 -0.1325
 1624SOL     MW 6496   6.442   0.973   6.445 -0.1590 -0.2253 -0.3784
 1625SOL     OW 6497   4.926   9.063   6.179  0.3316  0.4043  0.2507
 1625SOL    HW1 6498   4.896   9.053   6.089  1.5250 -0.3177 -0.0874
 1625SOL    HW2 6499   4.855   9.028   6.233  0.0761 -0.1893 -0.4593
 1625SOL     MW 6500   4.913   9.057   6.174  0.4578  0.2272  0.1096
 1626SOL     OW 6501   6.648   8.925   7.000 -0.5256  0.3304  0.1216
 1626SOL    HW1 6502   6.729   8.882   7.028  0.6745  1.7845 -0.9696
 1626SOL    HW2 6503   6.581   8.888   7.058  0.8770 -0.9743  1.0160
 1626SOL     MW 6504   6.650   8.914   7.012 -0.1753  0.3505  0.0951
 1627SOL     OW 6505   5.760   0.919   8.237  0.2768 -0.4205  0.1640
 1627SOL    HW1 6506   5.808   0.967   8.304  1.0962 -0.6754 -0.2244
 1627SOL    HW2 6507   5.668   0.936   8.256  0.5035 -0.3947  1.2743
 1627SOL     MW 6508   5.754   0.928   8.248  0.4176 -0.4513  0.2612
 1628SOL     OW 6509   5.380   7.971   8.599  0.2660 -0.4745 -0.5446
 1628SOL    HW1 6510   5.298   7.928   8.573  0.1584 -1.1596  0.8287
 1628SOL    HW2 6511   5.374   8.058   8.562 -1.0859 -0.5265 -0.5007
 1628SOL     MW 6512   5.368   7.977   8.591  0.0696 -0.5737 -0.3539
 1629SOL     OW 6513   4.645   0.158  10.049  0.4133  0.6768  0.4294
 1629SOL    HW1 6514   4.650   0.093  10.119 -1.6572 -0.4698 -0.3877
 1629SOL    HW2 6515   4.575   0.217  10.075  0.1725  0.7186 -0.2793
 1629SOL     MW 6516   4.636   0.157  10.062  0.1022  0.5281  0.2241
 1630SOL     OW 6517   4.816   0.989   6.419  0.1266 -0.0520 -0.2156
 1630SOL    HW1 6518   4.883   0.967   6.483  0.5317 -0.9555 -0.9382
 1630SOL    HW2 6519   4.738   1.007   6.472  1.1932  2.2448  0.7321
 1630SOL     MW 6520   4.814   0.989   6.435  0.3247  0.1355 -0.1853
 1631SOL     OW 6521   4.047   0.982   0.447 -0.5364 -0.5406 -0.0524
 1631SOL    HW1 6522   4.117   1.041   0.421  1.3334 -2.2508  0.8486
 1631SOL    HW2 6523   4.000   0.962   0.366  1.5808 -1.2664 -1.1503
 1631SOL     MW 6524   4.050   0.987   0.433  0.0002 -0.8685 -0.0789
 1632SOL     OW 6525   8.005   9.627   5.238 -0.0115  0.4355  0.0771
 1632SOL    HW1 6526   7.920   9.665   5.260  0.4992  1.3245  0.5878
 1632SOL    HW2 6527   8.057   9.700   5.204  0.8053  0.0911  0.5254
 1632SOL     MW 6528   8.001   9.642   5.237  0.1672  0.5088  0.2061
 1633SOL     OW 6529   6.685   1.697   8.816 -0.0859 -0.1285  0.6138
 1633SOL    HW1 6530   6.611   1.697   8.878 -0.5047  0.1183  0.1203
 1633SOL    HW2 6531   6.750   1.640   8.857 -1.0291 -1.3272  0.4864
 1633SOL     MW 6532   6.683   1.689   8.830 -0.2692 -0.2566  0.5303
 1634SOL     OW 6533   4.414   9.122   3.592  0.2953  0.4770 -0.4840
 1634SOL    HW1 6534   4.504   9.145   3.614  0.0820 -0.1014  1.1011
 1634SOL    HW2 6535   4.369   9.115   3.676 -1.1137  0.2607 -1.2202
 1634SOL     MW 6536   4.420   9.124   3.606  0.0770  0.3700 -0.3698
 1635SOL     OW 6537   6.263   1.616   6.503  0.2958  0.0004 -0.2244
 1635SOL    HW1 6538   6.192   1.663   6.546  0.8208  0.7755 -0.1806
 1635SOL    HW2 6539   6.239   1.524   6.511  0.3915  0.0933  1.8315
 1635SOL     MW 6540   6.251   1.610   6.510  0.3794  0.1172  0.0582
 1636SOL     OW 6541   5.517   8.646   5.691 -0.0842 -0.0047  0.5880
 1636SOL    HW1 6542   5.503   8.559   5.726  0.4045 -0.5382 -0.5040
 1636SOL    HW2 6543   5.610   8.648   5.666 -0.8234 -0.4524 -2.6596
 1636SOL     MW 6544   5.528   8.635   5.692 -0.1179 -0.1368  0.0040
 1637SOL     OW 6545   7.912   8.364   3.841 -0.3168  0.0413 -0.2428
 1637SOL    HW1 6546   7.892   8.425   3.769  0.8342  1.3549  0.4945
 1637SOL    HW2 6547   7.867   8.401   3.917 -0.1973 -0.4239  0.0580
 1637SOL     MW 6548   7.904   8.377   3.841 -0.1458  0.1555 -0.1031
 1638SOL     OW 6549   4.444   0.471   2.845  0.3068  0.1979  0.2643
 1638SOL    HW1 6550   4.414   0.521   2.921  0.2644 -0.8560  0.9583
 1638SOL    HW2 6551   4.539   0.466   2.855  0.1169 -1.9456  1.5640
 1638SOL     MW 6552   4.453   0.477   2.856  0.2755 -0.2324  0.5326
 1639SOL     OW 6553   6.031   9.859   2.337  0.1507  0.1067 -0.3919
 1639SOL    HW1 6554   6.089   9.925   2.300  0.0507 -0.0256 -0.7878
 1639SOL    HW2 6555   6.083   9.779   2.337  0.5607  0.3559  0.8585
 1639SOL     MW 6556   6.046   9.857   2.332  0.1924  0.1224 -0.2769
 1640SOL     OW 6557   5.398   1.722   6.244  0.5213 -0.5066 -0.3530
 1640SOL    HW1 6558   5.402   1.724   6.148 -0.1769 -0.3873 -0.3879
 1640SOL    HW2 6559   5.447   1.799   6.272  1.4607 -1.0055 -0.5780
 1640SOL     MW 6560   5.405   1.732   6.235  0.5538 -0.5577 -0.3880
 1641SOL     OW 6561   6.994   7.790   7.983  0.0034 -0.0446 -0.1532
 1641SOL    HW1 6562   6.917   7.806   7.928 -0.4544  0.3268  0.5686
 1641SOL    HW2 6563   6.957   7.776   8.071  0.7686  0.2828  0.2257
 1641SOL     MW 6564   6.978   7.790   7.987  0.0448  0.0495 -0.0050
 1642SOL     OW 6565   4.478   8.910   2.858  0.2705 -0.3123  0.4815
 1642SOL    HW1 6566   4.440   8.944   2.777  0.4260  0.3864  0.6900
 1642SOL    HW2 6567   4.572   8.905   2.840  0.1256 -1.8231  0.0425
 1642SOL     MW 6568   4.486   8.914   2.845  0.2719 -0.4216  0.4505
 1643SOL     OW 6569   5.436   7.975   3.752 -0.2359 -0.0690 -0.3737
 1643SOL    HW1 6570   5.476   7.914   3.814 -0.5912 -0.5265 -0.5827
 1643SOL    HW2 6571   5.510   8.020   3.712 -0.0262  0.6914  0.8312
 1643SOL     MW 6572   5.452   7.973   3.755 -0.2555 -0.0282 -0.2397
 1644SOL     OW 6573   7.245   9.430   5.700 -0.5941  0.1584  0.4198
 1644SOL    HW1 6574   7.332   9.462   5.675 -1.7062  0.9543 -2.8549
 1644SOL    HW2 6575   7.197   9.508   5.724 -1.1252  0.0425 -0.2490
 1644SOL     MW 6576   7.250   9.444   5.700 -0.8152  0.2499 -0.1109
 1645SOL     OW 6577   4.751  10.007   7.540  0.0984  0.0348 -0.2045
 1645SOL    HW1 6578   4.705  10.048   7.468 -3.2533  1.3073  2.4035
 1645SOL    HW2 6579   4.821  10.068   7.562  0.3236  0.2597 -1.4889
 1645SOL     MW 6580   4.755  10.021   7.533 -0.3224  0.2364 -0.0264
 1646SOL     OW 6581   7.016   8.737   2.754  0.0470 -0.3444 -0.8343
 1646SOL    HW1 6582   7.006   8.701   2.842 -1.4984  0.3455 -0.6925
 1646SOL    HW2 6583   7.109   8.728   2.735  0.3915 -0.6424  0.8140
 1646SOL     MW 6584   7.027   8.731   2.763 -0.1146 -0.2917 -0.5934
 1647SOL     OW 6585   3.618  10.136   6.946  0.0972  0.1999 -0.0050
 1647SOL    HW1 6586   3.580  10.093   7.023  1.3343 -0.3312  0.3382
 1647SOL    HW2 6587   3.663  10.213   6.981 -1.0357  1.0944 -0.4640
 1647SOL     MW 6588   3.619  10.140   6.961  0.1112  0.2488 -0.0206
 1648SOL     OW 6589   6.116   8.652   1.948  0.2830  0.3269  0.3225
 1648SOL    HW1 6590   6.163   8.570   1.962 -1.7900 -1.0523 -0.3759
 1648SOL    HW2 6591   6.052   8.656   2.018 -1.8596 -0.3933 -1.4875
 1648SOL     MW 6592   6.114   8.642   1.959 -0.2843  0.0443 -0.0151
 1649SOL     OW 6593   6.075   8.907   3.183 -0.4642  0.4382  0.4050
 1649SOL    HW1 6594   6.035   8.872   3.262  0.1833  1.7279  1.3271
 1649SOL    HW2 6595   6.147   8.846   3.164 -2.3075 -1.4756 -0.8525
 1649SOL     MW 6596   6.080   8.894   3.191 -0.6251  0.3542  0.3599
 1650SOL     OW 6597   4.324   0.377   2.313  0.6804  0.0809 -0.8391
 1650SOL    HW1 6598   4.376   0.396   2.390  2.0413 -1.0101 -1.4561
 1650SOL    HW2 6599   4.355   0.440   2.247  1.6051 -0.8759 -1.3504
 1650SOL     MW 6600   4.335   0.388   2.314  0.9880 -0.1947 -0.9909
 1651SOL     OW 6601   4.138   9.237   0.799 -1.2235  0.0124  0.1240
 1651SOL    HW1 6602   4.223   9.279   0.784 -0.3321 -1.1229  1.7819
 1651SOL    HW2 6603   4.129   9.232   0.894 -2.0450 -1.9917  0.0018
 1651SOL     MW 6604   4.148   9.242   0.809 -1.2141 -0.4101  0.3307
 1652SOL     OW 6605   4.081   8.714   2.655  0.1177 -0.4500  0.3480
 1652SOL    HW1 6606   4.024   8.676   2.587 -1.4077 -0.1985  1.4497
 1652SOL    HW2 6607   4.084   8.807   2.634 -0.9032 -0.2619  0.9886
 1652SOL     MW 6608   4.074   8.721   2.643 -0.2250 -0.3909  0.5825
 1653SOL     OW 6609   6.222   1.655   3.099  0.1125  0.5810  0.0753
 1653SOL    HW1 6610   6.273   1.730   3.070  3.6774 -1.8831 -0.6558
 1653SOL    HW2 6611   6.171   1.629   3.022  0.7166  0.8169 -0.4110
 1653SOL     MW 6612   6.222   1.661   3.085  0.6736  0.2811 -0.0885
 1654SOL     OW 6613   6.039   0.946   2.485 -0.2981  0.1046 -0.4870
 1654SOL    HW1 6614   6.073   1.013   2.426 -0.8790  1.7814  0.9775
 1654SOL    HW2 6615   6.114   0.922   2.540 -0.3352  0.3226 -0.3400
 1654SOL     MW 6616   6.054   0.952   2.485 -0.3812  0.3596 -0.2701
 1655SOL     OW 6617   5.718   8.082   1.767  0.1315 -0.6057  0.3122
 1655SOL    HW1 6618   5.797   8.125   1.734 -0.4566  0.4926  0.2859
 1655SOL    HW2 6619   5.749   8.025   1.838  0.8472  0.5039  0.9203
 1655SOL     MW 6620   5.733   8.080   1.772  0.1486 -0.3086  0.3905
 1656SOL     OW 6621   7.618   8.339   7.960 -0.8363  0.3541  0.2113
 1656SOL    HW1 6622   7.629   8.363   7.868  1.0383  0.2479  0.3741
 1656SOL    HW2 6623   7.601   8.245   7.959 -1.9670  0.5478 -0.0706
 1656SOL     MW 6624   7.617   8.330   7.948 -0.7362  0.3659  0.1953
 1657SOL     OW 6625   7.495   8.356   4.390 -0.3515 -0.2100 -0.1546
 1657SOL    HW1 6626   7.436   8.333   4.319 -0.4837 -0.0055 -0.1120
 1657SOL    HW2 6627   7.501   8.451   4.387  0.2229 -0.2443 -0.3528
 1657SOL     MW 6628   7.488   8.366   4.380 -0.2920 -0.1871 -0.1755
 1658SOL     OW 6629   5.876   8.722   8.308 -0.3273  0.5749 -0.6067
 1658SOL    HW1 6630   5.930   8.644   8.315  0.6627  1.2147 -0.9725
 1658SOL    HW2 6631   5.820   8.719   8.386 -1.0159 -0.9980 -1.1137
 1658SOL     MW 6632   5.875   8.711   8.319 -0.2868  0.4493 -0.7242
 1659SOL     OW 6633   4.940   7.877   5.106  0.1219 -0.7660 -0.2379
 1659SOL    HW1 6634   5.009   7.908   5.166 -0.3300  1.1013 -0.6184
 1659SOL    HW2 6635   4.983   7.872   5.021 -0.0017 -0.3495 -0.3291
 1659SOL     MW 6636   4.955   7.881   5.103  0.0444 -0.4586 -0.3014
 1660SOL     OW 6637   6.499   0.161   0.608 -0.2382  0.1252 -0.5459
 1660SOL    HW1 6638   6.440   0.156   0.683  1.6773 -1.1026  0.9654
 1660SOL    HW2 6639   6.547   0.243   0.621  0.2625 -0.2060 -0.2744
 1660SOL     MW 6640   6.497   0.171   0.620  0.0870 -0.0846 -0.3059
 1661SOL     OW 6641   5.137  10.147   1.478  0.3734 -0.0220 -0.1670
 1661SOL    HW1 6642   5.153  10.082   1.409  0.2669  0.3428 -0.5392
 1661SOL    HW2 6643   5.048  10.129   1.507 -0.0513  0.6263 -1.0107
 1661SOL     MW 6644   5.127  10.136   1.473  0.3019  0.1143 -0.3306
 1662SOL     OW 6645   7.661   9.168   0.304 -0.3509 -0.4222 -0.2336
 1662SOL    HW1 6646   7.619   9.214   0.232 -1.0685  0.6886  0.8517
 1662SOL    HW2 6647   7.707   9.237   0.352  0.3141 -1.1830  0.2366
 1662SOL     MW 6648   7.662   9.184   0.301 -0.3579 -0.3751 -0.0243
 1663SOL     OW 6649   6.186   9.673   6.552  0.1618  0.1334 -0.2133
 1663SOL    HW1 6650   6.249   9.635   6.614  0.8282  0.1488 -0.8650
 1663SOL    HW2 6651   6.121   9.715   6.607 -0.1964 -1.3149  0.5157
 1663SOL     MW 6652   6.186   9.674   6.568  0.2033 -0.0595 -0.2029
 1664SOL     OW 6653   6.586   0.125   6.251  0.0776  0.8206  0.5044
 1664SOL    HW1 6654   6.680   0.123   6.268 -0.0597 -1.1835  1.3617
 1664SOL    HW2 6655   6.569   0.045   6.201 -1.1150  1.4039 -0.0717
 1664SOL     MW 6656   6.596   0.114   6.246 -0.1014  0.6294  0.5422
 1665SOL     OW 6657   6.232   0.300   8.500 -0.1744  0.4226 -0.1695
 1665SOL    HW1 6658   6.277   0.298   8.416 -1.0875 -1.4374 -0.6580
 1665SOL    HW2 6659   6.256   0.218   8.542 -0.9545  0.6439  0.7363
 1665SOL     MW 6660   6.242   0.289   8.495 -0.4023  0.2021 -0.1134
 1666SOL     OW 6661   4.743   8.030   7.040 -0.1311  0.4095  0.5651
 1666SOL    HW1 6662   4.681   7.957   7.036 -1.1811  1.1752  2.0493
 1666SOL    HW2 6663   4.712   8.084   7.112  1.1557  1.8597  0.0839
 1666SOL     MW 6664   4.730   8.027   7.049 -0.0993  0.7077  0.7000
 1667SOL     OW 6665   6.812   9.420   7.341  0.0809  0.3345  0.2482
 1667SOL    HW1 6666   6.829   9.373   7.259  0.7294  0.6114  0.2208
 1667SOL    HW2 6667   6.752   9.491   7.316 -0.0350  0.1841  0.0921
 1667SOL     MW 6668   6.806   9.423   7.327  0.1526  0.3515  0.2235
 1668SOL     OW 6669   3.596   0.098   5.020 -0.0511 -0.0861  0.4183
 1668SOL    HW1 6670   3.674   0.081   4.968  0.3108 -2.4055  1.5880
 1668SOL    HW2 6671   3.526   0.053   4.973  0.3868 -2.7397  2.0746
 1668SOL     MW 6672   3.597   0.089   5.006  0.0565 -0.7553  0.7986
 1669SOL     OW 6673   5.199   0.918   0.972  0.3185 -0.2885  0.3187
 1669SOL    HW1 6674   5.130   0.966   1.018 -0.5379 -1.1023 -0.0869
 1669SOL    HW2 6675   5.247   0.874   1.042 -0.7908 -1.2776  0.4879
 1669SOL     MW 6676   5.196   0.919   0.988  0.0540 -0.5312  0.2869
 1670SOL     OW 6677   6.342   1.416   5.251 -0.1142 -0.0433  0.1112
 1670SOL    HW1 6678   6.410   1.435   5.316 -0.2762 -1.2896  0.6826
 1670SOL    HW2 6679   6.383   1.354   5.191 -0.4426 -0.0599 -0.0981
 1670SOL     MW 6680   6.357   1.410   5.252 -0.1802 -0.2133  0.1599
 1671SOL     OW 6681   5.391   9.223   1.763 -0.2686 -0.0737  0.3102
 1671SOL    HW1 6682   5.420   9.305   1.804  1.7750 -0.1708 -0.8142
 1671SOL    HW2 6683   5.420   9.230   1.672  2.5387 -3.1068  0.7734
 1671SOL     MW 6684   5.399   9.235   1.756  0.3843 -0.4949  0.2212
 1672SOL     OW 6685   7.379   9.455   8.512 -0.1913 -0.3209 -0.0457
 1672SOL    HW1 6686   7.310   9.468   8.448 -1.2114 -3.0187  0.3561
 1672SOL    HW2 6687   7.334   9.429   8.592  1.2124 -2.3093  0.1887
 1672SOL     MW 6688   7.364   9.453   8.514 -0.1397 -0.9516  0.0399
 1673SOL     OW 6689   6.604   1.111   5.988  0.3001  0.2649 -0.0344
 1673SOL    HW1 6690   6.516   1.120   6.025  0.9494  1.7159  1.2593
 1673SOL    HW2 6691   6.614   1.188   5.933  0.2822 -0.6117 -1.3120
 1673SOL     MW 6692   6.593   1.123   5.986  0.3851  0.3422 -0.0323
 1674SOL     OW 6693   6.804   9.492   2.477 -0.4314  0.4354 -0.6578
 1674SOL    HW1 6694   6.803   9.489   2.573 -0.5568 -0.0665 -0.6737
 1674SOL    HW2 6695   6.897   9.483   2.454 -0.3065  1.3490 -0.5676
 1674SOL     MW 6696   6.817   9.490   2.487 -0.4315  0.4908 -0.6478
 1675SOL     OW 6697   3.517   9.331   3.185 -0.6500  0.0876  0.2670
 1675SOL    HW1 6698   3.478   9.285   3.111 -0.3940  0.0553  0.1503
 1675SOL    HW2 6699   3.552   9.262   3.241  0.7226  0.1638 -0.4557
 1675SOL     MW 6700   3.516   9.315   3.183 -0.4308  0.0935  0.1540
 1676SOL     OW 6701   5.780   1.597   1.444  0.3242 -0.7982 -0.5692
 1676SOL    HW1 6702   5.763   1.561   1.531  0.3747  0.0325 -0.2156
 1676SOL    HW2 6703   5.716   1.667   1.433  1.0003 -0.1968 -0.7692
 1676SOL     MW 6704   5.769   1.601   1.454  0.4220 -0.6055 -0.5485
 1677SOL     OW 6705   5.224   8.772   5.216 -0.5411  0.1299 -0.2843
 1677SOL    HW1 6706   5.150   8.803   5.269  0.5376  0.7929  0.8674
 1677SOL    HW2 6707   5.224   8.830   5.140 -0.1179  1.3251  0.6019
 1677SOL     MW 6708   5.214   8.784   5.213 -0.3390  0.3800 -0.0100
 1678SOL     OW 6709   3.627   9.574   4.002 -0.0841  0.5007 -0.3484
 1678SOL    HW1 6710   3.598   9.483   3.991  0.3679  0.4025 -0.7319
 1678SOL    HW2 6711   3.714   9.567   4.042 -0.2186  0.7766 -0.0004
 1678SOL     MW 6712   3.635   9.561   4.006 -0.0414  0.5246 -0.3532
 1679SOL     OW 6713   5.204   9.906   8.392 -0.3153 -0.0735 -0.6071
 1679SOL    HW1 6714   5.181   9.994   8.420  1.4557  0.2182  0.1215
 1679SOL    HW2 6715   5.130   9.877   8.339 -1.7993  1.0922  0.7288
 1679SOL     MW 6716   5.191   9.914   8.389 -0.2767  0.1226 -0.3293
 1680SOL     OW 6717   7.485   8.927   4.463  0.6953  0.0177 -0.6099
 1680SOL    HW1 6718   7.445   8.997   4.514  1.5410  2.0287 -2.5540
 1680SOL    HW2 6719   7.412   8.870   4.438  0.0791 -0.2012  1.5250
 1680SOL     MW 6720   7.470   8.929   4.466  0.7262  0.2589 -0.5842
 1681SOL     OW 6721   7.766   9.076   6.435 -1.0980 -0.1445  0.3799
 1681SOL    HW1 6722   7.783   9.041   6.522 -0.0033 -0.0976  0.1888
 1681SOL    HW2 6723   7.679   9.041   6.412 -0.6016 -1.6608  0.7286
 1681SOL     MW 6724   7.756   9.066   6.443 -0.8839 -0.3422  0.4011
 1682SOL     OW 6725   6.705   1.032   5.363 -0.2316 -0.4193 -0.4408
 1682SOL    HW1 6726   6.717   1.109   5.307 -0.5007  1.1677  1.5421
 1682SOL    HW2 6727   6.765   1.047   5.436 -0.7101 -1.8312  0.2619
 1682SOL     MW 6728   6.715   1.045   5.365 -0.3322 -0.3957 -0.0794
 1683SOL     OW 6729   4.479   8.725   7.427 -0.2655 -0.5358 -0.4455
 1683SOL    HW1 6730   4.467   8.755   7.517 -1.5551 -0.5408 -0.5919
 1683SOL    HW2 6731   4.565   8.759   7.401  0.7634 -1.7189  1.2340
 1683SOL     MW 6732   4.489   8.734   7.436 -0.3006 -0.6957 -0.2392
 1684SOL     OW 6733   7.880   0.544   3.667 -0.2034  0.5679  0.0013
 1684SOL    HW1 6734   7.823   0.505   3.733  1.0826 -0.4817  0.5594
 1684SOL    HW2 6735   7.862   0.638   3.670 -0.8659  0.4136  1.1413
 1684SOL     MW 6736   7.870   0.551   3.676 -0.1195  0.4059  0.2298
 1685SOL     OW 6737   6.289   1.989   6.589 -0.6052  0.0977 -0.6884
 1685SOL    HW1 6738   6.220   1.992   6.522 -1.2576  1.1550  0.0052
 1685SOL    HW2 6739   6.251   2.033   6.665  0.2782 -0.7190  0.2503
 1685SOL     MW 6740   6.274   1.996   6.590 -0.5741  0.1301 -0.4687
 1686SOL     OW 6741   6.225   9.866   8.885  0.4631 -0.4628 -0.3271
 1686SOL    HW1 6742   6.315   9.896   8.894 -0.4041  2.2647 -0.0343
 1686SOL    HW2 6743   6.212   9.857   8.790  0.4082  1.3849 -0.5232
 1686SOL     MW 6744   6.235   9.869   8.873  0.3390  0.1529 -0.3141
 1687SOL     OW 6745   5.137   8.648   0.935  0.4847 -0.1912 -0.3689
 1687SOL    HW1 6746   5.140   8.626   0.842 -2.0729 -0.5178 -0.4210
 1687SOL    HW2 6747   5.183   8.576   0.978 -0.1431 -1.1166 -1.2176
 1687SOL     MW 6748   5.144   8.636   0.928  0.0560 -0.3597 -0.4901
 1688SOL     OW 6749   4.834  10.073   0.656  0.2486 -0.0891  0.1247
 1688SOL    HW1 6750   4.787  10.153   0.632 -0.4640  0.0234  1.7802
 1688SOL    HW2 6751   4.867  10.091   0.744  3.1539 -0.2873 -0.8034
 1688SOL     MW 6752   4.832  10.086   0.664  0.5437 -0.1006  0.2226
 1689SOL     OW 6753   7.171   1.038   3.856  0.2740  0.2224  0.4036
 1689SOL    HW1 6754   7.174   1.008   3.947 -0.5099 -0.3720  0.2464
 1689SOL    HW2 6755   7.168   1.134   3.862  0.6085  0.2007  0.9845
 1689SOL     MW 6756   7.171   1.047   3.869  0.2135  0.1395  0.4607
 1690SOL     OW 6757   4.368   0.361   6.040  0.4472 -0.5281  0.4960
 1690SOL    HW1 6758   4.321   0.430   6.086  0.3463  0.1367 -0.5658
 1690SOL    HW2 6759   4.308   0.286   6.040  0.1142 -0.2583  0.6954
 1690SOL     MW 6760   4.354   0.360   6.046  0.3888 -0.4023  0.3799
 1691SOL     OW 6761   6.482   8.081   2.717  0.3451 -0.2576  0.1375
 1691SOL    HW1 6762   6.549   8.068   2.783  0.5590  0.9809  0.1922
 1691SOL    HW2 6763   6.403   8.043   2.754  0.2093  1.3107  1.5879
 1691SOL     MW 6764   6.480   8.074   2.731  0.3556  0.1201  0.3400
 1692SOL     OW 6765   5.171   0.921   4.553  0.0022 -0.4355 -0.0798
 1692SOL    HW1 6766   5.263   0.900   4.568  0.7195  1.6632 -1.2272
 1692SOL    HW2 6767   5.124   0.845   4.588  2.0868 -1.1226  1.4473
 1692SOL     MW 6768   5.177   0.908   4.560  0.3793 -0.2456 -0.0287
 1693SOL     OW 6769   8.108   0.118  10.118  0.4645 -0.1373 -0.1522
 1693SOL    HW1 6770   8.061   0.183  10.065  0.3367 -0.4338 -0.4087
 1693SOL    HW2 6771   8.182   0.167  10.155  0.8866 -0.0469 -1.0643
 1693SOL     MW 6772   8.112   0.134  10.116  0.5041 -0.1650 -0.3094
 1694SOL     OW 6773   7.004   8.729   2.264 -0.0206  0.2690  0.4494
 1694SOL    HW1 6774   6.919   8.686   2.262  0.4141 -0.5938  0.0100
 1694SOL    HW2 6775   7.007   8.779   2.182 -0.6139  1.3377  1.0615
 1694SOL     MW 6776   6.993   8.730   2.253 -0.0419  0.2967  0.4726
 1695SOL     OW 6777   5.301   7.990   9.126 -0.4815  0.4326 -0.4089
 1695SOL    HW1 6778   5.305   8.086   9.121 -0.2588  0.3913 -1.1402
 1695SOL    HW2 6779   5.311   7.961   9.036  1.6000 -0.3680  0.0284
 1695SOL     MW 6780   5.303   7.999   9.113 -0.1714  0.3193 -0.4485
 1696SOL     OW 6781   6.523   1.270   4.532  0.0439  0.1547 -0.7074
 1696SOL    HW1 6782   6.494   1.299   4.446  1.6309  0.9069 -1.0281
 1696SOL    HW2 6783   6.442   1.251   4.580 -0.8910  0.7147 -2.0085
 1696SOL     MW 6784   6.508   1.271   4.527  0.1317  0.3313 -0.9256
 1697SOL     OW 6785   7.573  10.046   8.507  0.2220 -0.4795  0.3790
 1697SOL    HW1 6786   7.626  10.115   8.547 -0.2263  0.1941 -0.1668
 1697SOL    HW2 6787   7.596   9.966   8.555 -0.2525  0.2835  1.9160
 1697SOL     MW 6788   7.583  10.044   8.519  0.0978 -0.2862  0.5124
 1698SOL     OW 6789   5.326  10.031   9.695 -0.1479 -0.3182  0.0349
 1698SOL    HW1 6790   5.368   9.976   9.629 -0.7865 -0.5487 -0.1833
 1698SOL    HW2 6791   5.254   9.978   9.729  0.1055 -0.1630  0.8432
 1698SOL     MW 6792   5.322  10.017   9.691 -0.1998 -0.3283  0.1143
 1699SOL     OW 6793   4.995   8.420   4.385  0.0938 -0.4300 -0.7474
 1699SOL    HW1 6794   4.960   8.476   4.454  0.0775 -1.8024  0.3978
 1699SOL    HW2 6795   5.078   8.461   4.361  0.1372  0.0318  0.1460
 1699SOL     MW 6796   5.001   8.433   4.391  0.0975 -0.5525 -0.4730
 1700SOL     OW 6797   4.056   9.208   0.333  0.8156 -0.1447  0.5722
 1700SOL    HW1 6798   4.122   9.205   0.402  1.4528  1.3407  0.0747
 1700SOL    HW2 6799   3.980   9.250   0.374 -0.3745 -2.9936  1.5170
 1700SOL     MW 6800   4.055   9.213   0.348  0.7412 -0.3282  0.6324
 1701SOL     OW 6801   5.635   7.970   7.143 -0.0428 -0.8617 -0.4008
 1701SOL    HW1 6802   5.623   8.061   7.116 -1.2715 -0.8641  0.0573
 1701SOL    HW2 6803   5.668   7.926   7.065  0.7253 -0.0003 -0.5837
 1701SOL     MW 6804   5.638   7.977   7.129 -0.1048 -0.7461 -0.3638
 1702SOL     OW 6805   3.921   0.244   7.760 -0.0393  0.0720 -0.0620
 1702SOL    HW1 6806   3.884   0.174   7.814  0.7212  0.7553  1.4123
 1702SOL    HW2 6807   3.940   0.203   7.676  0.5138 -1.5396  0.8146
 1702SOL     MW 6808   3.919   0.229   7.756  0.1375 -0.0529  0.2544
 1703SOL     OW 6809   4.584  10.118   2.120  0.1473 -0.3857 -0.0030
 1703SOL    HW1 6810   4.616  10.190   2.174  0.2287 -1.2485  1.1394
 1703SOL    HW2 6811   4.595  10.149   2.030  0.4142  0.9156  0.4483
 1703SOL     MW 6812   4.590  10.132   2.116  0.1942 -0.3267  0.2114
 1704SOL     OW 6813   6.964   8.735   1.744 -0.0996  0.3247  0.0892
 1704SOL    HW1 6814   6.901   8.805   1.763  0.2753  1.3276 -2.1457
 1704SOL    HW2 6815   6.911   8.666   1.703 -0.2712 -0.2731  1.2650
 1704SOL     MW 6816   6.948   8.735   1.741 -0.0723  0.3792 -0.0533
 1705SOL     OW 6817   4.966   9.647   9.702 -0.4373  0.2166  0.2054
 1705SOL    HW1 6818   4.902   9.576   9.703 -1.1403  0.7227 -2.3635
 1705SOL    HW2 6819   4.991   9.656   9.610  2.4878  0.8191  0.9540
 1705SOL     MW 6820   4.961   9.639   9.690 -0.1382  0.3658 -0.0396
 1706SOL     OW 6821   6.679   0.645   9.745  0.5098  0.0944 -0.3566
 1706SOL    HW1 6822   6.690   0.630   9.651 -2.5261  1.6920 -1.0774
 1706SOL    HW2 6823   6.668   0.740   9.753  2.2035  0.1740  1.8595
 1706SOL     MW 6824   6.679   0.656   9.733  0.3292  0.3202 -0.1554
 1707SOL     OW 6825   7.813   8.213   4.530  0.2841 -0.1630 -0.2344
 1707SOL    HW1 6826   7.869   8.182   4.601  0.8496  4.0573  1.4734
 1707SOL    HW2 6827   7.730   8.233   4.572  0.3200  1.5425 -0.9067
 1707SOL     MW 6828   7.810   8.211   4.545  0.3650  0.6345 -0.0951
 1708SOL     OW 6829   6.400   8.192   3.944 -0.3085  0.1122  0.5341
 1708SOL    HW1 6830   6.463   8.225   3.880  0.6649  0.4166  1.6226
 1708SOL    HW2 6831   6.404   8.097   3.935 -0.3562  0.1582 -0.0185
 1708SOL     MW 6832   6.409   8.184   3.934 -0.1839  0.1594  0.6062
 1709SOL     OW 6833   8.105   0.451   6.948 -0.0942  0.3851 -0.0125
 1709SOL    HW1 6834   8.086   0.402   7.028 -0.7275 -0.7931 -0.8543
 1709SOL    HW2 6835   8.117   0.541   6.978 -2.1996  0.3236  1.1921
 1709SOL     MW 6836   8.104   0.456   6.963 -0.4627  0.2182  0.0363
 1710SOL     OW 6837   5.577   8.409   0.655  0.1588  0.1911 -0.2353
 1710SOL    HW1 6838   5.589   8.456   0.573 -3.6047  0.0529 -1.0785
 1710SOL    HW2 6839   5.644   8.341   0.654  2.8204  2.6333 -1.1518
 1710SOL     MW 6840   5.587   8.406   0.644  0.0105  0.5011 -0.4722
 1711SOL     OW 6841   5.057   0.287   9.589  0.2226 -0.0318  0.1346
 1711SOL    HW1 6842   5.016   0.299   9.675 -0.3626 -0.8915 -0.0105
 1711SOL    HW2 6843   5.122   0.219   9.602 -2.0034 -2.4776 -0.7162
 1711SOL     MW 6844   5.060   0.280   9.602 -0.1557 -0.4766  0.0006
 1712SOL     OW 6845   4.099   9.717   1.580 -0.4451 -0.5185 -0.0531
 1712SOL    HW1 6846   4.061   9.723   1.668 -0.4208 -1.7296  0.0566
 1712SOL    HW2 6847   4.033   9.670   1.529  0.8886 -2.7571  0.1621
 1712SOL     MW 6848   4.085   9.712   1.585 -0.2623 -0.9828 -0.0094
 1713SOL     OW 6849   6.904   0.421   2.655  0.0383 -0.2494 -0.0550
 1713SOL    HW1 6850   6.892   0.512   2.681 -0.6725 -0.3696  0.0576
 1713SOL    HW2 6851   6.981   0.422   2.598  0.7965  0.2223  0.9464
 1713SOL     MW 6852   6.913   0.433   2.651  0.0447 -0.2021  0.0949
 1714SOL     OW 6853   5.288   1.925   7.534  0.3858 -0.0152  0.2064
 1714SOL    HW1 6854   5.257   1.858   7.474  0.9977 -0.5841  0.5119
 1714SOL    HW2 6855   5.355   1.972   7.485 -0.7581  1.0656 -0.3728
 1714SOL     MW 6856   5.293   1.922   7.520  0.3142  0.0537  0.1696
 1715SOL     OW 6857   6.080   1.744   5.225  0.0167 -0.2002  0.0415
 1715SOL    HW1 6858   6.024   1.680   5.180  0.5945 -2.1444  1.9148
 1715SOL    HW2 6859   6.169   1.710   5.213  0.7831  2.2443 -1.9324
 1715SOL     MW 6860   6.084   1.731   5.218  0.1976 -0.1328  0.0279
 1716SOL     OW 6861   7.907   0.116   3.409 -0.8153 -0.2409  0.3963
 1716SOL    HW1 6862   7.833   0.132   3.467 -0.6041 -1.1826  0.9308
 1716SOL    HW2 6863   7.935   0.027   3.428  0.7089  0.2289  0.4771
 1716SOL     MW 6864   7.901   0.107   3.419 -0.5817 -0.3044  0.4791
 1717SOL     OW 6865   5.614   9.975   6.996  0.3291 -0.1781 -0.0209
 1717SOL    HW1 6866   5.589   9.999   7.085  1.2343  2.5000 -0.3828
 1717SOL    HW2 6867   5.534   9.938   6.958 -0.4216 -0.2100  1.5202
 1717SOL     MW 6868   5.600   9.973   7.003  0.3499  0.1781  0.1378
 1718SOL     OW 6869   5.335   0.116   0.707  0.2359  0.6638 -0.2175
 1718SOL    HW1 6870   5.319   0.194   0.762 -0.7415  0.8207 -0.7019
 1718SOL    HW2 6871   5.391   0.060   0.761  0.4689  1.4424  0.3752
 1718SOL     MW 6872   5.340   0.119   0.722  0.1357  0.7897 -0.2029
 1719SOL     OW 6873   6.824  10.074   6.479 -0.5623 -0.2235 -0.6080
 1719SOL    HW1 6874   6.748  10.019   6.463 -0.1163 -2.1098  2.8022
 1719SOL    HW2 6875   6.798  10.131   6.551  1.0883 -0.7205  0.4379
 1719SOL     MW 6876   6.811  10.074   6.486 -0.2802 -0.5442 -0.0083
 1720SOL     OW 6877   5.828   1.577   6.297 -0.5014  0.5206  0.3566
 1720SOL    HW1 6878   5.885   1.530   6.236  1.5975  0.0250  2.5697
 1720SOL    HW2 6879   5.739   1.548   6.274  0.3199 -0.6561 -1.5493
 1720SOL     MW 6880   5.823   1.567   6.285 -0.1084  0.2955  0.3979
 1721SOL     OW 6881   5.139   9.499   3.951 -0.2653  0.0449  0.6288
 1721SOL    HW1 6882   5.096   9.455   3.877  0.2721  0.0575  0.2997
 1721SOL    HW2 6883   5.207   9.437   3.978  1.5499  1.3016 -0.8516
 1721SOL     MW 6884   5.142   9.485   3.945  0.0513  0.2157  0.3853
 1722SOL     OW 6885   5.871   1.633   0.383  0.0917 -0.0645  0.2566
 1722SOL    HW1 6886   5.918   1.550   0.390  0.5482  0.1891  0.1839
 1722SOL    HW2 6887   5.925   1.687   0.326 -0.0260  0.4163  0.5969
 1722SOL     MW 6888   5.884   1.629   0.376  0.1373  0.0343  0.2926
 1723SOL     OW 6889   5.479   1.679   9.245  0.3374 -0.1025 -0.1144
 1723SOL    HW1 6890   5.476   1.673   9.149 -1.0993 -0.1444 -0.0855
 1723SOL    HW2 6891   5.551   1.739   9.263 -0.3409  1.1181 -1.2852
 1723SOL     MW 6892   5.488   1.686   9.234  0.0528  0.0561 -0.2681
 1724SOL     OW 6893   6.747   9.015   4.075 -0.8192  0.1995  0.3425
 1724SOL    HW1 6894   6.739   8.924   4.103  0.3766 -0.1114 -0.2729
 1724SOL    HW2 6895   6.695   9.064   4.139 -1.0022 -0.8432  1.0235
 1724SOL     MW 6896   6.739   9.009   4.087 -0.6829  0.0173  0.3513
 1725SOL     OW 6897   6.900   8.098   5.587 -0.0995 -0.2333 -0.7009
 1725SOL    HW1 6898   6.981   8.145   5.608  1.0337 -2.0327 -0.8266
 1725SOL    HW2 6899   6.886   8.114   5.493  0.1839 -0.0066 -0.7043
 1725SOL     MW 6900   6.909   8.106   5.577  0.0911 -0.4449 -0.7183
 1726SOL     OW 6901   7.885   0.832   5.171 -0.2781 -0.0827 -0.5315
 1726SOL    HW1 6902   7.914   0.753   5.124 -0.7983  0.0585 -1.1086
 1726SOL    HW2 6903   7.966   0.871   5.204 -0.1164 -1.6010  0.9976
 1726SOL     MW 6904   7.900   0.826   5.169 -0.3264 -0.2681 -0.4034
 1727SOL     OW 6905   6.132   1.660   1.584  0.3751 -0.2003  0.3385
 1727SOL    HW1 6906   6.223   1.637   1.565  0.0673 -0.7772 -0.5095
 1727SOL    HW2 6907   6.099   1.696   1.502 -0.4139 -0.8219  0.3784
 1727SOL     MW 6908   6.140   1.662   1.571  0.2275 -0.3616  0.2298
 1728SOL     OW 6909   7.245   0.797   5.635  0.4418 -0.4421 -0.0352
 1728SOL    HW1 6910   7.267   0.760   5.720 -0.3873 -1.2406 -0.1490
 1728SOL    HW2 6911   7.267   0.890   5.642  1.3420 -0.6952  0.6968
 1728SOL     MW 6912   7.251   0.804   5.647  0.4514 -0.5836  0.0480
 1729SOL     OW 6913   7.906   9.766   0.681  0.5744 -0.2275  0.1015
 1729SOL    HW1 6914   7.874   9.703   0.745  0.0165 -0.3828 -0.3191
 1729SOL    HW2 6915   7.961   9.826   0.731  0.5197 -0.6203  0.6366
 1729SOL     MW 6916   7.909   9.766   0.696  0.4919 -0.3013  0.1169
 1730SOL     OW 6917   6.703   8.991   1.511  0.1279 -0.0200  0.2576
 1730SOL    HW1 6918   6.739   8.905   1.487 -1.8287 -0.9545  0.4650
 1730SOL    HW2 6919   6.724   9.001   1.604  0.4071 -0.2673  0.2212
 1730SOL     MW 6920   6.710   8.980   1.520 -0.0978 -0.1790  0.2806
 1731SOL     OW 6921   4.542   8.736   5.123  0.1449  0.2302  0.1764
 1731SOL    HW1 6922   4.472   8.673   5.102  2.3212 -2.9687  1.7250
 1731SOL    HW2 6923   4.622   8.694   5.091  1.9781  1.1725  3.1044
 1731SOL     MW 6924   4.543   8.722   5.116  0.6845 -0.0735  0.7789
 1732SOL     OW 6925   7.573   1.206   1.541  0.1206  0.1204 -0.2713
 1732SOL    HW1 6926   7.518   1.284   1.530 -1.3472 -0.8937 -0.3504
 1732SOL    HW2 6927   7.536   1.162   1.618  0.1326 -1.1280 -0.9625
 1732SOL     MW 6928   7.560   1.211   1.550 -0.0754 -0.1841 -0.3750
 1733SOL     OW 6929   7.100   1.097   6.598 -0.5072  0.1512 -0.0301
 1733SOL    HW1 6930   7.115   1.058   6.685  1.9682  0.1093 -0.3986
 1733SOL    HW2 6931   7.072   1.023   6.544 -1.4975  0.0619  0.5855
 1733SOL     MW 6932   7.099   1.082   6.603 -0.3074  0.1336  0.0031
 1734SOL     OW 6933   7.069   8.198   5.214  0.3551 -0.3734  0.4944
 1734SOL    HW1 6934   7.068   8.247   5.132  1.4434 -0.3203  0.4945
 1734SOL    HW2 6935   7.124   8.250   5.273  1.0007 -1.2474  0.6993
 1734SOL     MW 6936   7.077   8.211   5.211  0.5885 -0.4839  0.5220
 1735SOL     OW 6937   7.455   8.905   6.975 -0.9889 -0.2349  0.6948
 1735SOL    HW1 6938   7.484   8.919   6.885 -1.2094 -2.0899  0.2888
 1735SOL    HW2 6939   7.495   8.977   7.025  0.0116  0.2162 -0.7023
 1735SOL     MW 6940   7.465   8.916   6.970 -0.8839 -0.4238  0.4522
 1736SOL     OW 6941   4.380   9.595   2.355  0.2559  0.6733  0.0543
 1736SOL    HW1 6942   4.347   9.583   2.444  1.7357 -0.3423  0.4906
 1736SOL    HW2 6943   4.319   9.658   2.316 -0.3846  1.2014  1.7947
 1736SOL     MW 6944   4.367   9.602   2.362  0.3689  0.6077  0.3472
 1737SOL     OW 6945   6.361   8.762   7.952  0.2820 -0.2343  0.6405
 1737SOL    HW1 6946   6.384   8.684   7.901 -1.1038 -0.3281  0.1168
 1737SOL    HW2 6947   6.345   8.728   8.041 -0.1516 -0.5255  0.4540
 1737SOL     MW 6948   6.362   8.747   7.957  0.0371 -0.2861  0.5449
 1738SOL     OW 6949   5.708   0.346   8.512 -0.6333  0.0715  0.3913
 1738SOL    HW1 6950   5.708   0.410   8.583  0.1694  0.8818 -0.3144
 1738SOL    HW2 6951   5.657   0.388   8.442 -0.4113 -0.2140  0.0550
 1738SOL     MW 6952   5.701   0.360   8.512 -0.4954  0.1421  0.2511
 1739SOL     OW 6953   5.575   0.131   6.194 -0.0389  0.4957  0.0764
 1739SOL    HW1 6954   5.535   0.046   6.173  0.9235  0.1526 -0.4318
 1739SOL    HW2 6955   5.564   0.184   6.115  2.2228 -0.2810 -0.8654
 1739SOL     MW 6956   5.568   0.127   6.181  0.3950  0.3450 -0.1187
 1740SOL     OW 6957   5.972   1.373   1.190  0.2792  0.4149 -0.4665
 1740SOL    HW1 6958   5.911   1.418   1.132  1.5710  1.0601 -1.3760
 1740SOL    HW2 6959   6.032   1.441   1.221  1.4699 -0.4279 -0.8215
 1740SOL     MW 6960   5.972   1.388   1.187  0.6133  0.3883 -0.6366
 1741SOL     OW 6961   5.400   8.614   9.929  0.2041 -0.5352 -0.1109
 1741SOL    HW1 6962   5.375   8.625  10.020  2.6300  0.5363  0.5058
 1741SOL    HW2 6963   5.335   8.553   9.893 -3.8720  2.7938  0.8881
 1741SOL     MW 6964   5.388   8.607   9.936 -0.0180  0.0570  0.1066
 1742SOL     OW 6965   7.669   9.543   4.587 -0.2092 -0.0624 -0.0608
 1742SOL    HW1 6966   7.667   9.448   4.578  2.8947 -0.1185 -1.4966
 1742SOL    HW2 6967   7.718   9.559   4.668 -1.5118  0.3875  0.6795
 1742SOL     MW 6968   7.675   9.532   4.597  0.0332 -0.0094 -0.1544
 1743SOL     OW 6969   5.478   9.625   6.775 -0.5585 -0.4071  0.2551
 1743SOL    HW1 6970   5.471   9.608   6.868 -0.6962  1.1215  0.5585
 1743SOL    HW2 6971   5.554   9.574   6.746  0.7378  0.6370  1.6361
 1743SOL     MW 6972   5.487   9.616   6.783 -0.4025 -0.0609  0.4818
 1744SOL     OW 6973   7.971  10.023   3.498  0.2459  0.2705  0.1239
 1744SOL    HW1 6974   8.005   9.955   3.439 -2.7991 -1.2583 -0.0827
 1744SOL    HW2 6975   7.914   9.975   3.558 -0.4453  2.4474  1.2787
 1744SOL     MW 6976   7.968  10.007   3.498 -0.2569  0.3577  0.2515
 1745SOL     OW 6977   5.055   0.652   6.581  0.0906 -0.2966 -1.0358
 1745SOL    HW1 6978   5.150   0.647   6.570  0.1235 -0.1657 -0.7866
 1745SOL    HW2 6979   5.038   0.613   6.667 -0.0141  0.3708 -0.7520
 1745SOL     MW 6980   5.065   0.646   6.591  0.0810 -0.1892 -0.9640
 1746SOL     OW 6981   4.447   0.474   2.525  0.3988  0.0123 -0.0384
 1746SOL    HW1 6982   4.428   0.405   2.589  1.0762 -0.6437 -0.5275
 1746SOL    HW2 6983   4.443   0.555   2.575 -0.1081 -0.4044  0.6116
 1746SOL     MW 6984   4.444   0.476   2.540  0.4218 -0.1321 -0.0168
 1747SOL     OW 6985   7.281   9.687   7.748  0.3903 -0.4068  0.1188
 1747SOL    HW1 6986   7.351   9.656   7.806 -0.3012  0.5631  1.5232
 1747SOL    HW2 6987   7.319   9.764   7.704  0.9957 -1.2805 -0.9293
 1747SOL     MW 6988   7.296   9.693   7.750  0.3787 -0.3939  0.1668
 1748SOL     OW 6989   5.583   8.185   9.915  0.4526 -0.1224  0.3074
 1748SOL    HW1 6990   5.571   8.265   9.966 -1.6582  0.1552 -0.4984
 1748SOL    HW2 6991   5.608   8.119   9.980 -1.8485  0.2869  1.7553
 1748SOL     MW 6992   5.585   8.187   9.931 -0.1412 -0.0299  0.3938
 1749SOL     OW 6993   7.052   9.698   8.518  0.0971  0.1593 -0.3325
 1749SOL    HW1 6994   6.976   9.719   8.464  1.4679 -0.5569 -2.7156
 1749SOL    HW2 6995   7.117   9.766   8.496  0.6414 -0.0497  0.5695
 1749SOL     MW 6996   7.051   9.710   8.508  0.3549  0.0348 -0.5318
 1750SOL     OW 6997   6.095   8.535   8.122 -0.0665 -0.0826 -0.3629
 1750SOL    HW1 6998   6.012   8.566   8.086 -0.1199 -0.4570 -0.5685
 1750SOL    HW2 6999   6.131   8.478   8.054  1.0193  1.1356 -0.8575
 1750SOL     MW 7000   6.089   8.532   8.108  0.0724  0.0309 -0.4571
 1751SOL     OW 7001   4.484   0.388   9.257  0.3969 -0.7129 -0.5651
 1751SOL    HW1 7002   4.554   0.453   9.252 -1.2545  1.2693  0.4644
 1751SOL    HW2 7003   4.414   0.424   9.202 -2.0209  0.4995  2.9469
 1751SOL     MW 7004   4.484   0.402   9.249 -0.1507 -0.2830  0.0461
 1752SOL     OW 7005   4.836   0.343  10.088  0.2011 -0.0544  0.4072
 1752SOL    HW1 7006   4.890   0.363  10.011 -0.6579  0.9546  0.0320
 1752SOL    HW2 7007   4.789   0.263  10.064 -0.0691  0.2577 -0.1371
 1752SOL     MW 7008   4.837   0.335  10.074  0.0492  0.1234  0.2834
 1753SOL     OW 7009   6.803   8.369   4.166 -0.1581  0.0316  0.2563
 1753SOL    HW1 7010   6.709   8.362   4.149 -0.2205  0.2989  0.4759
 1753SOL    HW2 7011   6.829   8.281   4.191 -0.4588  0.0663  0.7108
 1753SOL     MW 7012   6.794   8.357   4.167 -0.2070  0.0723  0.3470
 1754SOL     OW 7013   6.284   1.720   6.248  0.2818 -0.0965 -0.3102
 1754SOL    HW1 7014   6.369   1.734   6.206  0.5292  0.4838  0.3578
 1754SOL    HW2 7015   6.305   1.672   6.328  0.0530  0.5323  0.1359
 1754SOL     MW 7016   6.298   1.716   6.253  0.2843  0.0662 -0.1603
 1755SOL     OW 7017   3.883   8.723   3.925  0.2627  0.1759 -0.2713
 1755SOL    HW1 7018   3.967   8.769   3.929 -0.6213  1.8841 -0.1897
 1755SOL    HW2 7019   3.899   8.638   3.966  1.6624  0.9257  0.8029
 1755SOL     MW 7020   3.896   8.718   3.931  0.3321  0.5067 -0.1158
 1756SOL     OW 7021   7.356   8.721   9.004 -0.9032  0.1935 -0.3823
 1756SOL    HW1 7022   7.416   8.660   8.963 -2.3161 -1.1341 -0.5678
 1756SOL    HW2 7023   7.397   8.742   9.088  0.9683  1.2588 -1.4973
 1756SOL     MW 7024   7.369   8.716   9.010 -0.8415  0.1582 -0.5573
 1757SOL     OW 7025   5.083   9.319   6.319  0.1098  0.4431 -0.3444
 1757SOL    HW1 7026   5.070   9.280   6.406  0.1402 -0.2163 -0.6292
 1757SOL    HW2 7027   4.994   9.324   6.282  0.2182 -0.4206 -0.7504
 1757SOL     MW 7028   5.069   9.315   6.326  0.1285  0.2381 -0.4374
 1758SOL     OW 7029   6.234   9.426   3.705  0.2743  0.1009 -0.4657
 1758SOL    HW1 7030   6.304   9.380   3.752  0.2957 -0.8676 -1.4384
 1758SOL    HW2 7031   6.216   9.503   3.760  0.5277 -0.8247  0.9540
 1758SOL     MW 7032   6.241   9.430   3.719  0.3113 -0.1540 -0.4055
 1759SOL     OW 7033   4.001   9.569   4.869 -0.4305  0.3462 -0.7083
 1759SOL    HW1 7034   4.031   9.653   4.903 -1.3073  0.5218 -0.3398
 1759SOL    HW2 7035   3.987   9.516   4.948  2.3734 -0.9830 -0.9771
 1759SOL     MW 7036   4.004   9.573   4.884 -0.1712  0.1910 -0.6949
 1760SOL     OW 7037   5.169   0.354   5.070  0.0343  0.9363  0.0808
 1760SOL    HW1 7038   5.242   0.358   5.008 -0.0143  0.2668 -0.0357
 1760SOL    HW2 7039   5.210   0.359   5.156  0.4412 -1.3402  0.0861
 1760SOL     MW 7040   5.184   0.355   5.073  0.0825  0.5398  0.0658
 1761SOL     OW 7041   5.446   9.342   4.839 -0.3462 -0.5835 -0.2427
 1761SOL    HW1 7042   5.536   9.364   4.864 -0.6895 -0.8696  1.3429
 1761SOL    HW2 7043   5.447   9.247   4.827 -0.8706 -0.9157  1.9122
 1761SOL     MW 7044   5.458   9.332   4.841 -0.4630 -0.6667  0.2607
 1762SOL     OW 7045   5.945   1.916   1.153  0.1244  0.3203  0.1105
 1762SOL    HW1 7046   5.950   1.855   1.227 -1.6041 -0.9124 -0.7133
 1762SOL    HW2 7047   5.923   2.000   1.193  0.8193  0.0439  1.1253
 1762SOL     MW 7048   5.943   1.919   1.168 -0.0147  0.1172  0.1362
 1763SOL     OW 7049   7.590   8.702   5.003 -0.3415  0.0119 -0.3679
 1763SOL    HW1 7050   7.560   8.635   4.941 -0.2490  0.6478 -1.1109
 1763SOL    HW2 7051   7.685   8.699   4.997 -0.3316  0.0693 -0.2442
 1763SOL     MW 7052   7.598   8.693   4.994 -0.3277  0.1052 -0.4512
 1764SOL     OW 7053   6.572   1.332   3.897  0.5117  0.3009 -0.0588
 1764SOL    HW1 7054   6.649   1.275   3.899  1.3448  1.4340  1.7177
 1764SOL    HW2 7055   6.606   1.420   3.909 -1.0616  0.8363  0.7634
 1764SOL     MW 7056   6.587   1.336   3.899  0.4121  0.5254  0.2910
 1765SOL     OW 7057   7.131   0.971   9.839 -0.5006  0.5809 -0.6036
 1765SOL    HW1 7058   7.064   0.973   9.771 -0.3430 -2.1856 -0.9386
 1765SOL    HW2 7059   7.210   0.939   9.795 -0.3919 -1.2580  0.7898
 1765SOL     MW 7060   7.133   0.967   9.824 -0.4648 -0.0389 -0.4611
 1766SOL     OW 7061   7.743   9.433   5.153 -0.9005  0.3034 -0.0273
 1766SOL    HW1 7062   7.707   9.431   5.064 -0.5174  1.2147 -0.2164
 1766SOL    HW2 7063   7.838   9.432   5.141 -0.8222 -1.7541  0.4586
 1766SOL     MW 7064   7.751   9.433   5.139 -0.8384  0.1491  0.0127
 1767SOL     OW 7065   7.523   9.641   7.376 -0.7083 -0.0063 -0.1066
 1767SOL    HW1 7066   7.609   9.673   7.347 -1.0808 -0.4414 -1.7892
 1767SOL    HW2 7067   7.506   9.566   7.320 -1.7366 -0.5611  0.9266
 1767SOL     MW 7068   7.532   9.636   7.365 -0.8968 -0.1395 -0.1940
 1768SOL     OW 7069   4.742   8.610   4.987 -0.1885  0.1256  0.1641
 1768SOL    HW1 7070   4.765   8.658   4.908 -0.8486 -0.3078 -0.3065
 1768SOL    HW2 7071   4.718   8.523   4.956 -1.5222  0.2740  0.6996
 1768SOL     MW 7072   4.742   8.605   4.972 -0.4568  0.0872  0.1728
 1769SOL     OW 7073   5.549   8.593   7.686  0.0614  0.7517 -0.2592
 1769SOL    HW1 7074   5.515   8.586   7.775  1.3407  1.9133  0.3682
 1769SOL    HW2 7075   5.517   8.678   7.655 -1.4633 -0.2081 -1.4323
 1769SOL     MW 7076   5.540   8.603   7.694  0.0284  0.7788 -0.3327
 1770SOL     OW 7077   7.050   0.269   7.238 -0.0087  0.1272 -0.0080
 1770SOL    HW1 7078   7.047   0.175   7.220  0.3987 -0.5189  2.8921
 1770SOL    HW2 7079   7.005   0.309   7.163  0.0653 -2.3056 -1.4641
 1770SOL     MW 7080   7.044   0.262   7.225  0.0561 -0.2871  0.1863
 1771SOL     OW 7081   4.547   8.521   1.496 -0.1425 -0.4118 -0.3436
 1771SOL    HW1 7082   4.521   8.507   1.587 -0.0998  2.5550  0.1981
 1771SOL    HW2 7083   4.629   8.570   1.502  0.2343 -0.7813 -2.0207
 1771SOL     MW 7084   4.555   8.525   1.509 -0.0860 -0.0622 -0.4964
 1772SOL     OW 7085   6.742  10.116   8.728 -0.2121 -0.0704 -0.2424
 1772SOL    HW1 7086   6.830  10.155   8.724 -0.0245 -0.5114 -0.4363
 1772SOL    HW2 7087   6.737  10.077   8.815 -1.1335  2.0823  0.7418
 1772SOL     MW 7088   6.753  10.116   8.739 -0.3109  0.1600 -0.1360
 1773SOL     OW 7089   6.462   9.096   4.935 -0.0924 -0.5203 -0.0273
 1773SOL    HW1 7090   6.439   9.139   4.853  1.9710  0.7468 -0.0166
 1773SOL    HW2 7091   6.444   9.160   5.003 -0.0379 -0.8775  0.3304
 1773SOL     MW 7092   6.457   9.110   4.933  0.1926 -0.3978  0.0223
 1774SOL     OW 7093   4.017   8.110   6.931  0.0264 -0.2508  0.3545
 1774SOL    HW1 7094   4.032   8.042   6.865 -1.6415  0.9015 -1.3205
 1774SOL    HW2 7095   3.924   8.103   6.951  0.1739  0.5233  1.3744
 1774SOL     MW 7096   4.007   8.100   6.925 -0.1782  0.0085  0.2663
 1775SOL     OW 7097   6.815   8.476   1.237 -1.0407  0.1668 -0.0553
 1775SOL    HW1 7098   6.855   8.434   1.161 -0.9651  0.6594 -0.2986
 1775SOL    HW2 7099   6.774   8.555   1.201 -1.1991  0.2859  0.3814
 1775SOL     MW 7100   6.815   8.481   1.222 -1.0518  0.2491 -0.0293
 1776SOL     OW 7101   5.303   0.653   0.423  0.5948  0.0188  0.1060
 1776SOL    HW1 7102   5.300   0.576   0.480 -0.2457  1.2208  1.7550
 1776SOL    HW2 7103   5.222   0.649   0.373  0.6425 -0.2716  0.0503
 1776SOL     MW 7104   5.292   0.642   0.424  0.4881  0.1415  0.3204
 1777SOL     OW 7105   4.603   1.375   7.703 -0.3890 -0.1829 -0.3433
 1777SOL    HW1 7106   4.558   1.291   7.700 -2.0916  0.6648 -0.0658
 1777SOL    HW2 7107   4.635   1.381   7.793 -0.5165 -0.4220 -0.2803
 1777SOL     MW 7108   4.601   1.364   7.715 -0.6353 -0.1010 -0.2975
 1778SOL     OW 7109   5.418   0.310   6.343 -0.3305 -0.1761  0.1384
 1778SOL    HW1 7110   5.461   0.309   6.428 -0.9735 -1.1175  0.4680
 1778SOL    HW2 7111   5.466   0.246   6.291 -0.9939 -0.8578  0.3474
 1778SOL     MW 7112   5.430   0.302   6.347 -0.5064 -0.3946  0.2109
 1779SOL     OW 7113   8.110   0.465   5.841 -0.1913 -0.0097 -0.6877
 1779SOL    HW1 7114   8.173   0.454   5.912  1.5452  0.7770 -2.0385
 1779SOL    HW2 7115   8.144   0.411   5.770 -0.0262  1.7928 -2.0486
 1779SOL     MW 7116   8.123   0.456   5.841  0.0646  0.3388 -1.0527
 1780SOL     OW 7117   4.695   1.182   5.439  0.2528 -0.7235  0.4903
 1780SOL    HW1 7118   4.720   1.107   5.386  0.7892 -0.7208  0.7311
 1780SOL    HW2 7119   4.610   1.159   5.477  0.2847 -1.0891  0.3344
 1780SOL     MW 7120   4.687   1.169   5.437  0.3293 -0.7723  0.5017
 1781SOL     OW 7121   7.829   8.534   3.647 -0.0433  0.7349 -0.5828
 1781SOL    HW1 7122   7.737   8.561   3.640  0.0946  0.9937 -1.5703
 1781SOL    HW2 7123   7.878   8.616   3.655  0.2345  0.7208 -1.8662
 1781SOL     MW 7124   7.823   8.548   3.647  0.0127  0.7678 -0.8884
 1782SOL     OW 7125   4.077   8.654   6.061 -0.1596 -0.2605  0.2695
 1782SOL    HW1 7126   4.133   8.679   5.988 -1.3684 -0.5348 -0.8136
 1782SOL    HW2 7127   4.115   8.572   6.094  0.9618  0.3858  0.6039
 1782SOL     MW 7128   4.089   8.646   6.055 -0.1714 -0.2104  0.1687
 1783SOL     OW 7129   7.279   9.029   0.030  0.0836 -0.6330 -0.1193
 1783SOL    HW1 7130   7.319   8.971   0.094 -1.0104 -1.6014 -0.2735
 1783SOL    HW2 7131   7.255   9.107   0.080  0.6687 -0.7281  0.3124
 1783SOL     MW 7132   7.281   9.032   0.045  0.0151 -0.7761 -0.0819
 1784SOL     OW 7133   7.177   9.510   9.176  0.3198  0.6331  0.7910
 1784SOL    HW1 7134   7.112   9.558   9.227  0.2777  1.5105 -0.0572
 1784SOL    HW2 7135   7.256   9.512   9.230  0.0373  0.7792  1.2056
 1784SOL     MW 7136   7.179   9.516   9.190  0.2761  0.7708  0.7327
 1785SOL     OW 7137   7.178   1.305   3.879 -0.3570 -0.1598 -0.4322
 1785SOL    HW1 7138   7.111   1.336   3.817 -0.4229 -1.9907 -1.3546
 1785SOL    HW2 7139   7.165   1.359   3.957 -0.0722  2.4546 -2.0682
 1785SOL     MW 7140   7.167   1.316   3.881 -0.3275 -0.0544 -0.7765
 1786SOL     OW 7141   6.827   0.076   3.223  0.3944 -0.0714  0.8596
 1786SOL    HW1 7142   6.903   0.123   3.188  0.3910 -1.3149 -1.0039
 1786SOL    HW2 7143   6.858  -0.014   3.233 -1.6617 -1.5093 -3.4540
 1786SOL     MW 7144   6.841   0.070   3.220  0.1172 -0.4323  0.0283
 1787SOL     OW 7145   5.989   9.199   9.523 -0.3441 -0.7422  0.5437
 1787SOL    HW1 7146   5.920   9.240   9.471  0.4512  0.0526  0.0913
 1787SOL    HW2 7147   5.949   9.119   9.557 -1.1845 -0.7967 -0.5134
 1787SOL     MW 7148   5.974   9.194   9.520 -0.3502 -0.6426  0.3406
 1788SOL     OW 7149   6.334   8.093   7.050 -0.1252  0.1792  0.0404
 1788SOL    HW1 7150   6.367   8.047   7.127  2.8108 -0.1311 -1.2584
 1788SOL    HW2 7151   6.347   8.031   6.978 -1.3481  1.0293 -0.9497
 1788SOL     MW 7152   6.341   8.078   7.051  0.1053  0.2518 -0.2676
 1789SOL     OW 7153   7.233   0.163   8.441 -0.1724 -0.0334  0.3450
 1789SOL    HW1 7154   7.249   0.087   8.497 -1.1800 -1.0624 -0.7148
 1789SOL    HW2 7155   7.320   0.197   8.422  0.4077 -1.7545 -0.2657
 1789SOL     MW 7156   7.247   0.158   8.446 -0.2300 -0.4035  0.1202
 1790SOL     OW 7157   5.785   9.968   6.061  0.1396 -0.1870  0.2554
 1790SOL    HW1 7158   5.827   9.931   5.983  1.0367 -0.0403  0.6592
 1790SOL    HW2 7159   5.729   9.898   6.094  0.3482 -0.5139 -0.0845
 1790SOL     MW 7160   5.783   9.954   6.055  0.2884 -0.2112  0.2640
 1791SOL     OW 7161   7.093   9.852   7.880  0.5097 -0.0963  0.1335
 1791SOL    HW1 7162   7.021   9.857   7.818  1.2065  1.4398 -0.5993
 1791SOL    HW2 7163   7.158   9.796   7.837 -0.1464 -1.4052  0.7564
 1791SOL     MW 7164   7.092   9.845   7.866  0.5152 -0.0657  0.1187
 1792SOL     OW 7165   5.576   1.441   5.863  0.3114 -0.2810 -0.6760
 1792SOL    HW1 7166   5.609   1.477   5.946  0.0062  0.5711 -0.9193
 1792SOL    HW2 7167   5.606   1.502   5.796 -0.1069 -0.5382 -1.1072
 1792SOL     MW 7168   5.584   1.454   5.865  0.2141 -0.2009 -0.7668
 1793SOL     OW 7169   6.218   8.679   2.331 -0.0624  0.2276  0.2371
 1793SOL    HW1 7170   6.286   8.700   2.395 -1.0406  0.2826  1.2892
 1793SOL    HW2 7171   6.219   8.753   2.269 -1.0001  1.6202  1.8104
 1793SOL     MW 7172   6.228   8.692   2.331 -0.3202  0.4224  0.5904
 1794SOL     OW 7173   4.804   8.100   2.528 -0.3012  0.1881  0.1729
 1794SOL    HW1 7174   4.770   8.142   2.607 -0.4068  0.6340 -0.1078
 1794SOL    HW2 7175   4.727   8.064   2.485  0.0292 -3.0321  1.9329
 1794SOL     MW 7176   4.789   8.101   2.533 -0.2710 -0.1852  0.3720
 1795SOL     OW 7177   4.534   9.767   3.389  0.3462 -0.2109  0.0210
 1795SOL    HW1 7178   4.507   9.681   3.420 -1.5020  0.1554 -0.4728
 1795SOL    HW2 7179   4.558   9.752   3.297 -1.7938  0.0933 -0.6309
 1795SOL     MW 7180   4.534   9.753   3.380 -0.1906 -0.1206 -0.1332
 1796SOL     OW 7181   6.969   1.187   2.736 -0.5278  0.4417  0.5089
 1796SOL    HW1 7182   7.038   1.189   2.802  0.0176  1.0973 -0.0586
 1796SOL    HW2 7183   6.971   1.098   2.701 -1.7359 -0.3405  2.2905
 1796SOL     MW 7184   6.979   1.175   2.740 -0.6170  0.4247  0.6723
 1797SOL     OW 7185   5.285  10.088   8.884  0.5266 -0.4824 -0.0697
 1797SOL    HW1 7186   5.353  10.114   8.823  2.3529 -0.8031  1.7067
 1797SOL    HW2 7187   5.273   9.994   8.869  1.6232 -0.7538  0.6063
 1797SOL     MW 7188   5.292  10.079   8.874  0.9200 -0.5621  0.2604
 1798SOL     OW 7189   7.026   0.428  10.015  0.2059  0.2402 -0.0643
 1798SOL    HW1 7190   7.058   0.338  10.017 -1.8705 -0.5767 -1.0703
 1798SOL    HW2 7191   6.931   0.420  10.019 -0.0163  2.4284  0.3106
 1798SOL     MW 7192   7.018   0.415  10.016 -0.1034  0.4248 -0.1492
 1799SOL     OW 7193   3.616   9.875   4.948 -0.2012 -0.0578  0.4097
 1799SOL    HW1 7194   3.588   9.854   5.037  1.0503  3.0502  1.6977
 1799SOL    HW2 7195   3.551   9.937   4.915  2.0504  3.1808  1.4723
 1799SOL     MW 7196   3.604   9.881   4.955  0.2703  0.7963  0.7260
 1800SOL     OW 7197   5.782   0.953   2.572  0.4074 -0.4571 -0.1297
 1800SOL    HW1 7198   5.867   0.954   2.530  0.4352 -2.9616 -0.2669
 1800SOL    HW2 7199   5.720   0.971   2.502  0.7437  0.2565 -0.2494
 1800SOL     MW 7200   5.785   0.956   2.557  0.4564 -0.6981 -0.1643
 1801SOL     OW 7201   7.975   0.043   6.648 -0.2247 -0.2943  0.4995
 1801SOL    HW1 7202   7.882   0.028   6.629 -0.0792 -2.7979  1.3284
 1801SOL    HW2 7203   7.984   0.022   6.741  1.5487 -2.7594 -0.1006
 1801SOL     MW 7204   7.963   0.038   6.658  0.0335 -0.9630  0.5303
 1802SOL     OW 7205   3.766   9.906   7.795  0.5921  0.1684  0.0849
 1802SOL    HW1 7206   3.742   9.859   7.875 -0.5115  3.0168  1.5739
 1802SOL    HW2 7207   3.852   9.870   7.772  0.7592 -1.0719  2.3011
 1802SOL     MW 7208   3.775   9.895   7.803  0.4660  0.3848  0.5835
 1803SOL     OW 7209   7.531   0.148   6.260  0.4405  0.3122  0.0983
 1803SOL    HW1 7210   7.598   0.214   6.279 -0.4520  0.7444  1.9920
 1803SOL    HW2 7211   7.570   0.092   6.193  3.9780 -1.3288  3.2214
 1803SOL     MW 7212   7.545   0.150   6.253  0.7964  0.1495  0.7734
 1804SOL     OW 7213   6.405   1.151   1.275 -0.2115  0.7321 -0.0232
 1804SOL    HW1 7214   6.357   1.166   1.194 -0.2057  0.5187 -0.0644
 1804SOL    HW2 7215   6.437   1.238   1.300 -0.8692  0.9268  0.1658
 1804SOL     MW 7216   6.403   1.165   1.268 -0.2993  0.7296 -0.0033
 1805SOL     OW 7217   4.758   9.230   4.402  0.2016 -0.0746  0.0496
 1805SOL    HW1 7218   4.684   9.172   4.387  0.2431  0.1192 -1.0700
 1805SOL    HW2 7219   4.749   9.298   4.335  1.1819  0.1608  0.1277
 1805SOL     MW 7220   4.747   9.232   4.391  0.3392 -0.0168 -0.0906
 1806SOL     OW 7221   5.114   8.189   8.704  0.5559 -0.2640  0.4814
 1806SOL    HW1 7222   5.049   8.120   8.703  1.7094 -1.4178  1.2457
 1806SOL    HW2 7223   5.074   8.260   8.755 -0.5771 -0.4162 -0.1762
 1806SOL     MW 7224   5.100   8.189   8.711  0.5586 -0.4398  0.4957
 1807SOL     OW 7225   7.991   0.567   9.152 -0.3591 -0.5408 -0.8838
 1807SOL    HW1 7226   7.973   0.611   9.234  1.1809 -0.7227 -0.4192
 1807SOL    HW2 7227   7.933   0.609   9.088 -1.6769 -0.5051  0.2959
 1807SOL     MW 7228   7.980   0.578   9.154 -0.3292 -0.5605 -0.6625
 1808SOL     OW 7229   5.936   0.526   4.499 -0.3994  0.6289  0.5238
 1808SOL    HW1 7230   6.028   0.512   4.523 -0.2603 -0.4647 -0.5548
 1808SOL    HW2 7231   5.895   0.441   4.508 -0.7343  0.5414 -1.2979
 1808SOL     MW 7232   5.943   0.513   4.503 -0.4258  0.4700  0.1335
 1809SOL     OW 7233   8.004   9.325   3.422  0.0362 -0.1719 -0.2028
 1809SOL    HW1 7234   7.921   9.314   3.377  0.3661 -0.3630 -0.7777
 1809SOL    HW2 7235   8.047   9.397   3.375 -0.3631  0.8468  0.9341
 1809SOL     MW 7236   7.999   9.334   3.410  0.0269 -0.0606 -0.1271
 1810SOL     OW 7237   5.287   0.219   3.351  0.0183 -0.3689 -0.3306
 1810SOL    HW1 7238   5.354   0.152   3.363 -0.1687 -0.4808  0.0838
 1810SOL    HW2 7239   5.336   0.297   3.325  0.2641 -0.5747 -0.5005
 1810SOL     MW 7240   5.303   0.220   3.349  0.0262 -0.4117 -0.2977
 1811SOL     OW 7241   6.552   7.792   3.949  0.1663  0.1925 -0.2343
 1811SOL    HW1 7242   6.589   7.849   4.016 -0.4440 -0.5051  0.7263
 1811SOL    HW2 7243   6.543   7.848   3.872  2.7864  0.4800 -0.3911
 1811SOL     MW 7244   6.555   7.807   3.947  0.4368  0.1373 -0.1262
 1812SOL     OW 7245   5.068   8.574   7.442 -0.0512  0.5027  0.2207
 1812SOL    HW1 7246   5.042   8.666   7.435 -0.3110  0.4706  0.7646
 1812SOL    HW2 7247   5.150   8.569   7.392  0.1616  1.1070  0.5013
 1812SOL     MW 7248   5.076   8.585   7.434 -0.0575  0.5797  0.3316
 1813SOL     OW 7249   6.238   1.665   1.047  0.4255  0.1380 -0.1319
 1813SOL    HW1 7250   6.160   1.687   0.997 -0.6624  0.1656  1.5204
 1813SOL    HW2 7251   6.278   1.750   1.068 -0.0657  0.2184  0.4982
 1813SOL     MW 7252   6.233   1.680   1.043  0.2130  0.1526  0.1753
 1814SOL     OW 7253   5.246   0.590   5.719 -0.5066  0.1659 -0.2502
 1814SOL    HW1 7254   5.261   0.522   5.785  1.0129  0.4661 -0.2451
 1814SOL    HW2 7255   5.154   0.579   5.694 -1.4531  0.6607  2.6165
 1814SOL     MW 7256   5.236   0.579   5.725 -0.4295  0.2729  0.1363
 1815SOL     OW 7257   7.317   8.557   4.701 -0.0602  0.0976  0.2771
 1815SOL    HW1 7258   7.408   8.569   4.728  0.0195 -0.1293  0.1076
 1815SOL    HW2 7259   7.269   8.624   4.750  0.1171 -0.1576  0.8066
 1815SOL     MW 7260   7.323   8.568   4.711 -0.0256  0.0328  0.3256
 1816SOL     OW 7261   6.856   0.287   4.632  0.1023 -0.1669  0.0063
 1816SOL    HW1 7262   6.924   0.222   4.648  0.0044  0.0048  1.2557
 1816SOL    HW2 7263   6.897   0.370   4.658 -0.6813 -0.1091  1.1239
 1816SOL     MW 7264   6.871   0.290   4.638 -0.0163 -0.1360  0.3249
 1817SOL     OW 7265   7.692  10.017   2.366 -0.1494 -0.3295 -0.0607
 1817SOL    HW1 7266   7.714  10.054   2.452  1.0170 -1.1939  0.0397
 1817SOL    HW2 7267   7.730  10.079   2.303  0.3935 -0.5071  0.0841
 1817SOL     MW 7268   7.700  10.031   2.369  0.0806 -0.4698 -0.0277
 1818SOL     OW 7269   5.636   9.173   7.780 -0.2249  0.6110 -0.0246
 1818SOL    HW1 7270   5.657   9.266   7.787  0.5112  0.4973 -0.6123
 1818SOL    HW2 7271   5.618   9.146   7.870 -0.0996  1.2456  0.1962
 1818SOL     MW 7272   5.636   9.182   7.793 -0.1090  0.6811 -0.0740
 1819SOL     OW 7273   6.626   0.637   4.984  0.2321 -0.0386 -0.1313
 1819SOL    HW1 7274   6.688   0.568   5.010 -0.1453  0.1465  1.2894
 1819SOL    HW2 7275   6.596   0.675   5.066  0.5827  1.9792 -0.9002
 1819SOL     MW 7276   6.630   0.633   4.998  0.2285  0.2579 -0.0436
 1820SOL     OW 7277   7.904   9.418   9.818 -0.0092  0.6649 -0.0071
 1820SOL    HW1 7278   7.957   9.498   9.819 -1.5167  1.7249  1.4825
 1820SOL    HW2 7279   7.940   9.366   9.746  1.3384  2.4576 -0.7119
 1820SOL     MW 7280   7.916   9.422   9.809 -0.0308  1.0488  0.0986
 1821SOL     OW 7281   5.876   8.364   1.780  0.3707 -0.2766  0.0260
 1821SOL    HW1 7282   5.923   8.354   1.863 -1.5513 -1.7605  1.0286
 1821SOL    HW2 7283   5.803   8.424   1.800  0.7350  0.5446 -1.0046
 1821SOL     MW 7284   5.872   8.371   1.794  0.1610 -0.3658  0.0222
 1822SOL     OW 7285   7.435   0.298   7.135 -0.4604  0.0590  0.2160
 1822SOL    HW1 7286   7.475   0.277   7.220 -0.5949  0.2770  0.3328
 1822SOL    HW2 7287   7.344   0.316   7.155 -0.8905 -1.4730 -0.1888
 1822SOL     MW 7288   7.428   0.297   7.149 -0.5364 -0.1179  0.1773
 1823SOL     OW 7289   4.609   9.493   6.204  0.1620  0.2407  0.2171
 1823SOL    HW1 7290   4.675   9.424   6.203  1.4604  1.3644  1.7274
 1823SOL    HW2 7291   4.579   9.500   6.113 -0.7188 -2.8679  0.1656
 1823SOL     MW 7292   4.614   9.485   6.192  0.2182 -0.0265  0.4134
 1824SOL     OW 7293   6.742   1.556   3.861  0.0174  0.6937 -0.2564
 1824SOL    HW1 7294   6.673   1.573   3.797 -1.0489  1.2512  0.9818
 1824SOL    HW2 7295   6.735   1.629   3.922  0.7341 -0.0261  0.7067
 1824SOL     MW 7296   6.732   1.568   3.861 -0.0297  0.6718  0.0399
 1825SOL     OW 7297   6.834   8.343   3.840  0.4955 -0.1008 -0.1513
 1825SOL    HW1 7298   6.852   8.419   3.895 -1.5180 -0.0289  0.4770
 1825SOL    HW2 7299   6.741   8.351   3.817  1.2010 -0.1884 -3.5268
 1825SOL     MW 7300   6.824   8.354   3.844  0.3195 -0.1029 -0.5210
 1826SOL     OW 7301   5.839   8.323   8.113  0.3432 -0.1884  0.1215
 1826SOL    HW1 7302   5.844   8.363   8.026  0.2316  1.2209  0.7332
 1826SOL    HW2 7303   5.752   8.284   8.117  0.4831 -0.5905 -0.5155
 1826SOL     MW 7304   5.828   8.323   8.101  0.3470 -0.0528  0.1181
 1827SOL     OW 7305   6.640   0.261   9.422  0.2082  0.0894  0.1301
 1827SOL    HW1 7306   6.731   0.291   9.422  0.0267  0.6452 -0.4390
 1827SOL    HW2 7307   6.594   0.323   9.366 -0.2694 -0.9409 -0.6630
 1827SOL     MW 7308   6.646   0.273   9.414  0.1195  0.0255 -0.0533
 1828SOL     OW 7309   6.646   7.939   2.537 -0.0598 -0.5416 -0.0831
 1828SOL    HW1 7310   6.683   8.027   2.548 -1.9185  0.3061 -0.1699
 1828SOL    HW2 7311   6.560   7.944   2.578  0.0142 -2.5163  0.4099
 1828SOL     MW 7312   6.640   7.952   2.544 -0.3000 -0.6933 -0.0285
 1829SOL     OW 7313   6.985   1.047   7.888 -0.1692  0.2735 -0.0344
 1829SOL    HW1 7314   6.966   1.133   7.927 -0.9451  0.4332 -0.7361
 1829SOL    HW2 7315   6.899   1.006   7.879  0.3450 -1.5005  2.3180
 1829SOL     MW 7316   6.971   1.053   7.892 -0.2044  0.0562  0.1877
 1830SOL     OW 7317   3.994  10.027   1.842 -0.0886  0.0284  0.7343
 1830SOL    HW1 7318   3.974   9.934   1.831  0.7250 -0.0566 -0.0980
 1830SOL    HW2 7319   3.925  10.059   1.900 -1.9179 -0.5347 -0.9963
 1830SOL     MW 7320   3.982  10.019   1.848 -0.2253 -0.0588  0.3894
 1831SOL     OW 7321   5.931   0.773   4.603  0.7287  0.2898  0.1354
 1831SOL    HW1 7322   5.935   0.687   4.562  2.4305  0.9010 -1.0947
 1831SOL    HW2 7323   5.892   0.757   4.689 -1.6408 -1.2597 -1.1035
 1831SOL     MW 7324   5.926   0.760   4.609  0.6388  0.1635 -0.1969
 1832SOL     OW 7325   7.173   0.087   9.753  0.0278  0.0616 -0.1848
 1832SOL    HW1 7326   7.120   0.014   9.720 -0.0966 -0.0232  0.2018
 1832SOL    HW2 7327   7.160   0.085   9.847  1.4617 -0.5621  0.0294
 1832SOL     MW 7328   7.164   0.077   9.761  0.2040 -0.0337 -0.1039
 1833SOL     OW 7329   6.021   0.386   7.836  0.6181 -0.8100  0.5079
 1833SOL    HW1 7330   5.952   0.331   7.801 -0.0253 -0.3651  1.0645
 1833SOL    HW2 7331   5.989   0.416   7.921  1.0453  0.2375  0.3274
 1833SOL     MW 7332   6.008   0.383   7.842  0.5890 -0.6092  0.5585
 1834SOL     OW 7333   7.075   9.055   1.541 -0.0332 -0.0976 -0.7269
 1834SOL    HW1 7334   7.001   9.079   1.486  0.3941  1.5706 -0.6299
 1834SOL    HW2 7335   7.124   9.136   1.553 -0.1941 -0.3218  2.2552
 1834SOL     MW 7336   7.072   9.069   1.535  0.0027  0.0967 -0.3125
 1835SOL     OW 7337   5.403   8.494   8.154  0.2090  0.0427  0.1245
 1835SOL    HW1 7338   5.491   8.501   8.192  0.6585 -0.7333 -0.7533
 1835SOL    HW2 7339   5.346   8.486   8.230  0.9117  0.3466  0.7036
 1835SOL     MW 7340   5.408   8.494   8.170  0.3641 -0.0208  0.0843
 1836SOL     OW 7341   6.813   8.574   7.152  0.2076  0.2361 -0.1959
 1836SOL    HW1 7342   6.762   8.558   7.073  1.7372  1.2340 -1.4395
 1836SOL    HW2 7343   6.838   8.666   7.147  2.8540 -0.3965 -0.1419
 1836SOL     MW 7344   6.810   8.584   7.141  0.7696  0.2853 -0.3560
 1837SOL     OW 7345   5.457   1.193   4.780 -0.4583  0.1089 -0.0757
 1837SOL    HW1 7346   5.499   1.241   4.709  0.2145  1.6197  1.2724
 1837SOL    HW2 7347   5.523   1.131   4.810 -0.6117 -0.2723 -0.5182
 1837SOL     MW 7348   5.471   1.191   4.775 -0.3884  0.2610  0.0462
 1838SOL     OW 7349   5.234   7.605   5.221 -0.0178 -0.1120  0.2725
 1838SOL    HW1 7350   5.228   7.590   5.127 -2.2333 -0.4024  0.4202
 1838SOL    HW2 7351   5.296   7.538   5.252 -1.7298 -2.1812 -0.5554
 1838SOL     MW 7352   5.242   7.594   5.213 -0.5464 -0.4296  0.1810
 1839SOL     OW 7353   5.474   8.269   2.079  0.7266 -0.0800  0.2270
 1839SOL    HW1 7354   5.491   8.235   1.991  1.3411  0.7178  0.0280
 1839SOL    HW2 7355   5.518   8.354   2.081 -3.1575  2.1624 -0.2938
 1839SOL     MW 7356   5.482   8.276   2.067  0.2866  0.3292  0.1301
 1840SOL     OW 7357   4.766   8.743   5.642 -0.0954 -0.1763 -0.7279
 1840SOL    HW1 7358   4.786   8.650   5.651  2.3903 -0.1537 -4.0721
 1840SOL    HW2 7359   4.680   8.745   5.600 -1.3478 -0.7723  1.6287
 1840SOL     MW 7360   4.757   8.731   5.638  0.0706 -0.2535 -0.8608
 1841SOL     OW 7361   7.646   8.943   9.521 -0.1327  0.3373 -0.0647
 1841SOL    HW1 7362   7.591   8.961   9.597  1.4159  0.8538  0.9777
 1841SOL    HW2 7363   7.647   9.026   9.472 -0.8454  0.1074 -0.4896
 1841SOL     MW 7364   7.639   8.957   9.524 -0.0202  0.3758  0.0184
 1842SOL     OW 7365   4.911   9.394   8.050 -0.2302 -0.2932  0.0359
 1842SOL    HW1 7366   4.853   9.454   8.096 -1.0020 -1.2912  0.4035
 1842SOL    HW2 7367   4.910   9.315   8.104  1.3849 -0.3772 -0.0188
 1842SOL     MW 7368   4.903   9.391   8.064 -0.1167 -0.4388  0.0780
 1843SOL     OW 7369   6.325   9.122   1.688  0.0652 -0.3764  0.9220
 1843SOL    HW1 7370   6.369   9.110   1.772 -0.0591  0.0745  1.0526
 1843SOL    HW2 7371   6.288   9.036   1.668  0.9215 -0.7412  0.8508
 1843SOL     MW 7372   6.326   9.108   1.697  0.1637 -0.3648  0.9300
 1844SOL     OW 7373   7.135   1.233   1.588  0.0569 -0.0609  0.0470
 1844SOL    HW1 7374   7.167   1.176   1.519  0.2927  0.9907 -0.7398
 1844SOL    HW2 7375   7.045   1.205   1.604 -0.2619  0.1763 -1.2398
 1844SOL     MW 7376   7.128   1.222   1.581  0.0457  0.1125 -0.2321
 1845SOL     OW 7377   7.148   9.735   1.971 -0.1409  0.7391  0.0176
 1845SOL    HW1 7378   7.234   9.772   1.988 -0.6114  1.6670  0.4336
 1845SOL    HW2 7379   7.143   9.728   1.876  0.7807 -0.2961  0.0258
 1845SOL     MW 7380   7.159   9.739   1.960 -0.0802  0.7246  0.0747
 1846SOL     OW 7381   7.492   9.221   5.195  0.4610  0.9123 -0.0651
 1846SOL    HW1 7382   7.406   9.187   5.219  1.4498 -0.5623  1.7359
 1846SOL    HW2 7383   7.508   9.293   5.256  0.1615  1.7897 -0.9973
 1846SOL     MW 7384   7.483   9.226   5.207  0.5537  0.8319  0.0518
 1847SOL     OW 7385   6.141   8.715   6.736 -0.2457  0.2993  0.4152
 1847SOL    HW1 7386   6.179   8.631   6.710  1.9914  1.7085 -1.2198
 1847SOL    HW2 7387   6.070   8.729   6.673  1.2247  0.8767 -1.2016
 1847SOL     MW 7388   6.136   8.706   6.724  0.2533  0.5667 -0.0224
 1848SOL     OW 7389   7.934   0.338   4.200  0.4156  0.0046 -0.2457
 1848SOL    HW1 7390   7.957   0.384   4.281  0.9099 -1.7880  0.6807
 1848SOL    HW2 7391   7.926   0.408   4.134  2.8837  1.2897  0.6620
 1848SOL     MW 7392   7.936   0.354   4.202  0.8143 -0.0637  0.0011
 1849SOL     OW 7393   6.556   9.442   4.727  0.1699 -0.0737 -0.7824
 1849SOL    HW1 7394   6.519   9.503   4.663 -0.5877  0.5917  0.2501
 1849SOL    HW2 7395   6.646   9.427   4.697  1.0160  3.0094 -0.0991
 1849SOL     MW 7396   6.563   9.448   4.714  0.1818  0.4308 -0.5515
 1850SOL     OW 7397   5.063   1.027   9.267  0.0183 -0.1150  0.3226
 1850SOL    HW1 7398   5.027   0.977   9.341 -0.3990 -0.7249 -0.2855
 1850SOL    HW2 7399   5.089   0.960   9.204 -0.2234  0.4243 -0.3550
 1850SOL     MW 7400   5.062   1.011   9.269 -0.0704 -0.1245  0.1495
 1851SOL     OW 7401   6.466   7.969   2.096 -0.1024  0.0097 -0.3486
 1851SOL    HW1 7402   6.386   7.956   2.146  1.0485 -0.4092  1.4666
 1851SOL    HW2 7403   6.466   7.898   2.031 -1.7872  0.7733 -1.2426
 1851SOL     MW 7404   6.456   7.958   2.094 -0.1743  0.0561 -0.2246
 1852SOL     OW 7405   4.163   0.787   2.450 -0.0437 -0.1470 -0.5875
 1852SOL    HW1 7406   4.160   0.786   2.545  0.2541 -1.0796 -0.5723
 1852SOL    HW2 7407   4.200   0.872   2.427 -1.0682  0.4871  0.0889
 1852SOL     MW 7408   4.168   0.798   2.460 -0.1415 -0.1872 -0.4944
 1853SOL     OW 7409   7.264   1.309   5.485  0.0169 -0.5703  0.1390
 1853SOL    HW1 7410   7.338   1.330   5.428  1.0789 -0.1379  1.6190
 1853SOL    HW2 7411   7.275   1.367   5.561 -0.5692 -2.0930  1.4317
 1853SOL     MW 7412   7.275   1.320   5.488  0.0809 -0.7170  0.5122
 1854SOL     OW 7413   7.009   0.966   8.696  0.3202  0.2378  0.2240
 1854SOL    HW1 7414   7.104   0.957   8.686  0.2957  0.8606 -0.7740
 1854SOL    HW2 7415   6.982   1.016   8.619 -0.6117  1.4984  1.3339
 1854SOL     MW 7416   7.018   0.972   8.684  0.1915  0.4913  0.2390
 1855SOL     OW 7417   7.525   0.724   9.321 -0.0670  0.3962  0.4392
 1855SOL    HW1 7418   7.487   0.759   9.240  0.0927  0.3300  0.3360
 1855SOL    HW2 7419   7.455   0.734   9.386 -1.0552 -1.6592 -0.2194
 1855SOL     MW 7420   7.510   0.730   9.319 -0.1785  0.1107  0.3366
 1856SOL     OW 7421   7.011   0.496   5.256  0.4274  0.1290  0.2467
 1856SOL    HW1 7422   7.057   0.498   5.172 -1.7276 -0.6701 -1.0604
 1856SOL    HW2 7423   7.074   0.460   5.318  1.4542 -1.2032 -1.4842
 1856SOL     MW 7424   7.025   0.492   5.253  0.2756 -0.1578 -0.1622
 1857SOL     OW 7425   3.723   0.065   4.332 -0.2216 -0.2099 -0.2853
 1857SOL    HW1 7426   3.705   0.153   4.299  0.1420 -0.3467 -0.8673
 1857SOL    HW2 7427   3.655   0.011   4.292  0.6002 -0.4868 -1.3605
 1857SOL     MW 7428   3.711   0.070   4.322 -0.0621 -0.2656 -0.5083
 1858SOL     OW 7429   8.182  -0.001   3.762  0.5707  0.3589 -0.1064
 1858SOL    HW1 7430   8.132   0.014   3.683 -1.1810  0.6230  0.9949
 1858SOL    HW2 7431   8.231   0.080   3.776  1.0515  0.2336 -0.9983
 1858SOL     MW 7432   8.182   0.012   3.753  0.3996  0.3776 -0.0782
 1859SOL     OW 7433   7.002   8.966   0.238 -0.2796  0.5665  0.0529
 1859SOL    HW1 7434   7.053   8.963   0.319  0.8440 -0.6833 -0.6604
 1859SOL    HW2 7435   7.026   8.886   0.191 -2.0476  0.5133 -0.8441
 1859SOL     MW 7436   7.012   8.955   0.242 -0.3663  0.3912 -0.1638
 1860SOL     OW 7437   6.061   1.439   4.530  0.5478 -0.7985  0.2317
 1860SOL    HW1 7438   6.039   1.432   4.623 -0.0615 -3.2053 -0.0206
 1860SOL    HW2 7439   5.998   1.502   4.495 -1.3183 -2.2239  0.8964
 1860SOL     MW 7440   6.050   1.446   4.538  0.2147 -1.3143  0.2872
 1861SOL     OW 7441   4.730   9.725   1.346  0.1093  0.2621 -0.5233
 1861SOL    HW1 7442   4.638   9.749   1.340  0.3043  1.9433  1.8494
 1861SOL    HW2 7443   4.760   9.765   1.428  2.9337 -0.3047 -1.1802
 1861SOL     MW 7444   4.722   9.733   1.357  0.5156  0.4121 -0.2924
 1862SOL     OW 7445   4.386   9.977   7.583 -0.4147  0.1229  0.6368
 1862SOL    HW1 7446   4.362   9.987   7.675  1.6393 -0.7423  1.3266
 1862SOL    HW2 7447   4.400   9.883   7.572  1.2688  0.4110 -0.0012
 1862SOL     MW 7448   4.385   9.965   7.594  0.0883  0.0452  0.6438
 1863SOL     OW 7449   5.422   8.631   2.352  0.6070 -0.1065  0.7982
 1863SOL    HW1 7450   5.354   8.618   2.418  1.6732  0.5765  2.0870
 1863SOL    HW2 7451   5.493   8.675   2.399  1.1348  1.0526 -0.9726
 1863SOL     MW 7452   5.422   8.635   2.367  0.8215  0.1414  0.7333
 1864SOL     OW 7453   6.290   8.179   1.851 -0.0799  0.4493  0.4403
 1864SOL    HW1 7454   6.385   8.166   1.858  0.2598  0.7319 -2.2613
 1864SOL    HW2 7455   6.275   8.192   1.757 -2.6745  1.5134  0.9069
 1864SOL     MW 7456   6.301   8.179   1.839 -0.3834  0.6305  0.1395
 1865SOL     OW 7457   6.697   0.649   5.990  0.2071  0.6430 -0.3735
 1865SOL    HW1 7458   6.786   0.659   6.023  0.6998 -1.0909 -1.0775
 1865SOL    HW2 7459   6.680   0.730   5.941  0.9515  1.4772  0.7174
 1865SOL     MW 7460   6.706   0.661   5.988  0.3736  0.5219 -0.3214
 1866SOL     OW 7461   6.347   0.461   2.297 -0.3424 -0.4012  0.2325
 1866SOL    HW1 7462   6.370   0.545   2.257 -0.0337 -0.6316 -0.0794
 1866SOL    HW2 7463   6.289   0.484   2.370  0.5888  0.1776  0.8164
 1866SOL     MW 7464   6.342   0.476   2.302 -0.1756 -0.3543  0.2691
 1867SOL     OW 7465   5.362   9.788   9.115 -0.1866  0.0666  0.1578
 1867SOL    HW1 7466   5.385   9.880   9.102 -1.0113  0.0695 -1.6406
 1867SOL    HW2 7467   5.334   9.758   9.028 -0.9248 -1.5940  0.9228
 1867SOL     MW 7468   5.361   9.796   9.102 -0.3970 -0.1565  0.0187
 1868SOL     OW 7469   4.525   9.149   0.610 -0.4710 -0.4619 -0.2773
 1868SOL    HW1 7470   4.604   9.202   0.624 -1.7363  1.4284  0.0008
 1868SOL    HW2 7471   4.541   9.069   0.661  0.9460  0.2175  0.3927
 1868SOL     MW 7472   4.538   9.145   0.619 -0.4505 -0.1160 -0.1497
 1869SOL     OW 7473   4.472   1.174   1.802 -0.1692 -0.1215  0.3668
 1869SOL    HW1 7474   4.529   1.204   1.873  0.3222  1.1799 -0.5390
 1869SOL    HW2 7475   4.517   1.200   1.722 -2.0592  1.0384 -0.3857
 1869SOL     MW 7476   4.486   1.182   1.801 -0.3574  0.2097  0.1437
 1870SOL     OW 7477   4.319   0.900   5.258 -0.0328 -0.4101  0.2376
 1870SOL    HW1 7478   4.232   0.867   5.277 -0.7743  0.5489 -1.2850
 1870SOL    HW2 7479   4.309   0.995   5.256  1.1105 -0.2688  0.3157
 1870SOL     MW 7480   4.306   0.908   5.261  0.0213 -0.2620  0.0432
 1871SOL     OW 7481   6.382   8.678   2.558  0.0968  0.0773  0.4522
 1871SOL    HW1 7482   6.323   8.608   2.585 -1.6144  1.2983  0.0203
 1871SOL    HW2 7483   6.467   8.635   2.550 -1.1934 -2.3820 -1.5825
 1871SOL     MW 7484   6.385   8.662   2.561 -0.3071 -0.0893  0.1202
 1872SOL     OW 7485   5.262   8.076   2.681 -0.0851 -0.2543 -0.1599
 1872SOL    HW1 7486   5.254   8.148   2.618 -1.9515 -0.6578 -0.4473
 1872SOL    HW2 7487   5.172   8.053   2.703  0.4834 -1.8517  0.6817
 1872SOL     MW 7488   5.249   8.083   2.675 -0.2598 -0.5236 -0.0853
 1873SOL     OW 7489   6.217   1.355   2.476 -0.3945  0.4357  0.2256
 1873SOL    HW1 7490   6.180   1.275   2.438  0.9580  0.3090 -0.9157
 1873SOL    HW2 7491   6.311   1.337   2.483  0.1926  2.4126 -1.4685
 1873SOL     MW 7492   6.225   1.342   2.472 -0.1334  0.6847 -0.1560
 1874SOL     OW 7493   6.696   1.057   4.492  0.1619  0.3044 -0.0951
 1874SOL    HW1 7494   6.655   1.002   4.425 -0.7537 -0.6950  1.2276
 1874SOL    HW2 7495   6.636   1.130   4.504 -1.1706 -1.0097  1.6363
 1874SOL     MW 7496   6.683   1.059   4.485 -0.1406 -0.0070  0.3159
 1875SOL     OW 7497   5.095   7.863   0.526 -0.3989 -0.7299 -0.5172
 1875SOL    HW1 7498   5.073   7.888   0.436 -0.8170 -1.5678 -0.6591
 1875SOL    HW2 7499   5.160   7.794   0.516 -0.9511 -1.3091 -0.2005
 1875SOL     MW 7500   5.101   7.857   0.513 -0.5295 -0.9206 -0.4937
 1876SOL     OW 7501   6.609   0.805   7.149 -0.4864 -0.5037  0.4888
 1876SOL    HW1 7502   6.575   0.809   7.059  1.7285 -0.1936 -0.4089
 1876SOL    HW2 7503   6.640   0.715   7.159  1.0460 -0.0478  0.1760
 1876SOL     MW 7504   6.609   0.794   7.138  0.0179 -0.4006  0.3259
 1877SOL     OW 7505   4.320   8.213   1.679  0.0504 -0.5269 -0.5208
 1877SOL    HW1 7506   4.243   8.239   1.628  0.7599 -0.0489 -1.3751
 1877SOL    HW2 7507   4.355   8.138   1.631 -0.3001 -1.2173  0.2867
 1877SOL     MW 7508   4.314   8.206   1.665  0.0987 -0.5555 -0.5271
 1878SOL     OW 7509   5.503   1.241   8.651 -0.4613  0.2453  0.1206
 1878SOL    HW1 7510   5.560   1.165   8.664 -1.2460 -0.5013 -0.6554
 1878SOL    HW2 7511   5.479   1.269   8.739 -0.0682 -0.3400  0.4204
 1878SOL     MW 7512   5.507   1.234   8.664 -0.5140  0.0660  0.0565
 1879SOL     OW 7513   6.194   1.127   7.934  0.0056 -0.3725 -0.5092
 1879SOL    HW1 7514   6.146   1.210   7.935 -0.8210 -0.8177 -1.0454
 1879SOL    HW2 7515   6.279   1.148   7.896 -0.4464  0.1124 -1.2795
 1879SOL     MW 7516   6.199   1.141   7.929 -0.1665 -0.3672 -0.6850
 1880SOL     OW 7517   4.843   8.605   4.568  0.1756  0.6030 -0.0265
 1880SOL    HW1 7518   4.848   8.651   4.485 -0.9257  1.4996  0.3876
 1880SOL    HW2 7519   4.757   8.564   4.568  0.9831 -1.2130 -0.2259
 1880SOL     MW 7520   4.832   8.605   4.557  0.1361  0.4792  0.0024
 1881SOL     OW 7521   5.099   7.870   4.880  0.5861 -0.6260 -0.1257
 1881SOL    HW1 7522   5.086   7.891   4.788  0.7246  1.3562  0.2623
 1881SOL    HW2 7523   5.186   7.904   4.901  0.0535  0.1000  1.0228
 1881SOL     MW 7524   5.109   7.877   4.870  0.5330 -0.2615  0.0811
 1882SOL     OW 7525   3.793   9.514   4.679  0.1847  0.1900 -0.0844
 1882SOL    HW1 7526   3.760   9.604   4.678  1.1535  0.5582 -1.3611
 1882SOL    HW2 7527   3.873   9.518   4.731  0.4478  0.1576 -0.4807
 1882SOL     MW 7528   3.799   9.527   4.686  0.3505  0.2352 -0.3096
 1883SOL     OW 7529   3.855  10.140   2.870 -0.6282  0.3871 -0.5619
 1883SOL    HW1 7530   3.854  10.201   2.797  1.2935  1.1670  0.0136
 1883SOL    HW2 7531   3.919  10.073   2.845 -2.4082 -1.2681 -1.0115
 1883SOL     MW 7532   3.863  10.139   2.857 -0.6091  0.2693 -0.5450
 1884SOL     OW 7533   4.337   1.055   9.493  0.1036  0.4734 -0.3466
 1884SOL    HW1 7534   4.283   0.995   9.544  0.6961  1.5192  1.6222
 1884SOL    HW2 7535   4.286   1.073   9.414 -1.9026  0.5070  0.8957
 1884SOL     MW 7536   4.323   1.050   9.489 -0.0866  0.6187  0.0856
 1885SOL     OW 7537   6.358   9.685   2.100 -0.2461  0.0357 -0.2301
 1885SOL    HW1 7538   6.292   9.645   2.155 -0.0689  0.3226  0.1981
 1885SOL    HW2 7539   6.433   9.698   2.158 -0.3755  1.1856 -0.2892
 1885SOL     MW 7540   6.359   9.681   2.115 -0.2397  0.2290 -0.1805
 1886SOL     OW 7541   7.972   0.484   2.665  0.0318 -0.0139 -0.2759
 1886SOL    HW1 7542   8.032   0.516   2.732  0.9492 -0.0936 -1.0393
 1886SOL    HW2 7543   7.967   0.390   2.681  2.1501 -0.4476 -1.7346
 1886SOL     MW 7544   7.979   0.475   2.676  0.4403 -0.0830 -0.5749
 1887SOL     OW 7545   7.184   8.827   4.076  0.2040  0.2171  0.5234
 1887SOL    HW1 7546   7.122   8.897   4.058  0.2664  0.7356  2.1350
 1887SOL    HW2 7547   7.179   8.814   4.171  2.5735  0.3164  0.7201
 1887SOL     MW 7548   7.175   8.834   4.087  0.5313  0.3003  0.7668
 1888SOL     OW 7549   3.703   9.683   3.756 -0.3242  0.0743 -0.3001
 1888SOL    HW1 7550   3.666   9.772   3.763  0.9000  0.5429  0.4770
 1888SOL    HW2 7551   3.665   9.636   3.830  0.3102  0.4426  0.2695
 1888SOL     MW 7552   3.693   9.689   3.767 -0.0741  0.1870 -0.1189
 1889SOL     OW 7553   5.702   1.105   8.997 -0.4544  0.3249  0.4451
 1889SOL    HW1 7554   5.689   1.199   8.990 -0.5264  0.3022  0.2493
 1889SOL    HW2 7555   5.640   1.077   9.065  0.8891  0.6826  1.8760
 1889SOL     MW 7556   5.692   1.114   9.005 -0.2833  0.3700  0.6113
 1890SOL     OW 7557   6.628   8.570   2.484  0.1976 -0.1840 -0.2422
 1890SOL    HW1 7558   6.641   8.562   2.389  0.5927  0.0411 -0.2114
 1890SOL    HW2 7559   6.702   8.624   2.513  1.2767 -1.9790  0.4844
 1890SOL     MW 7560   6.640   8.576   2.475  0.3960 -0.3952 -0.1403
 1891SOL     OW 7561   5.901   9.827   3.428 -0.3975 -0.0520 -0.2351
 1891SOL    HW1 7562   5.807   9.822   3.408 -0.4350  0.3197 -0.1530
 1891SOL    HW2 7563   5.913   9.913   3.467  0.1578  0.3068 -1.1787
 1891SOL     MW 7564   5.890   9.838   3.431 -0.3278  0.0463 -0.3511
 1892SOL     OW 7565   4.865   8.230   9.816  0.4935  0.2174 -0.0747
 1892SOL    HW1 7566   4.797   8.227   9.884 -0.0010 -3.2865 -0.5566
 1892SOL    HW2 7567   4.946   8.248   9.864 -0.2534  0.8859  0.9916
 1892SOL     MW 7568   4.867   8.232   9.832  0.3264 -0.1642  0.0040
 1893SOL     OW 7569   4.652   8.222   0.854 -0.5013 -0.1172 -0.6233
 1893SOL    HW1 7570   4.743   8.245   0.835 -0.1888 -0.2816  0.5568
 1893SOL    HW2 7571   4.656   8.179   0.940 -1.0996 -4.1884 -2.3806
 1893SOL     MW 7572   4.665   8.219   0.863 -0.5398 -0.6872 -0.7010
 1894SOL     OW 7573   5.495   1.038   0.226 -0.3891  0.3895  0.2335
 1894SOL    HW1 7574   5.523   1.114   0.278 -0.6474  0.6836 -0.0492
 1894SOL    HW2 7575   5.567   0.975   0.234 -0.4714  0.3849  1.0384
 1894SOL     MW 7576   5.508   1.040   0.234 -0.4349  0.4285  0.3038
 1895SOL     OW 7577   4.754   0.414   6.879  0.1141 -0.0447  0.0681
 1895SOL    HW1 7578   4.698   0.409   6.801 -0.1638 -0.8833  0.2999
 1895SOL    HW2 7579   4.791   0.326   6.886  1.4574  0.4921 -0.0590
 1895SOL     MW 7580   4.751   0.401   6.869  0.2575 -0.0853  0.0822
 1896SOL     OW 7581   4.598   8.675   0.176 -0.2082 -0.2624  0.3040
 1896SOL    HW1 7582   4.656   8.603   0.200  0.3677  0.7204  1.9719
 1896SOL    HW2 7583   4.638   8.752   0.216 -3.6197  0.2069  3.2638
 1896SOL     MW 7584   4.611   8.676   0.184 -0.5898 -0.0670  0.9268
 1897SOL     OW 7585   7.166   8.653   7.936 -0.0280  0.1552  0.0658
 1897SOL    HW1 7586   7.245   8.705   7.947  0.2537 -0.1196 -0.5889
 1897SOL    HW2 7587   7.185   8.571   7.982 -0.2196  0.3697  0.5350
 1897SOL     MW 7588   7.179   8.649   7.944 -0.0159  0.1471  0.0408
 1898SOL     OW 7589   5.346   0.354   4.039 -0.3145  0.6775 -0.1681
 1898SOL    HW1 7590   5.335   0.303   3.959  1.9991  1.1749 -0.8574
 1898SOL    HW2 7591   5.336   0.290   4.109 -0.5425 -0.1217 -0.9145
 1898SOL     MW 7592   5.343   0.338   4.038 -0.0338  0.6369 -0.3613
 1899SOL     OW 7593   7.890   9.841   9.562  0.2103 -0.1025  0.1458
 1899SOL    HW1 7594   7.959   9.820   9.625  1.8287  1.5800 -0.9544
 1899SOL    HW2 7595   7.895   9.936   9.551  0.0683 -0.3133 -2.5191
 1899SOL     MW 7596   7.900   9.851   9.569  0.4090  0.0956 -0.3609
 1900SOL     OW 7597   4.935   8.764   8.749  0.2126  0.2445 -0.0875
 1900SOL    HW1 7598   4.868   8.736   8.687  0.0777  0.1574  0.0988
 1900SOL    HW2 7599   4.888   8.783   8.829  0.4262  0.0607  0.0835
 1900SOL     MW 7600   4.920   8.763   8.751  0.2232  0.2081 -0.0394
 1901SOL     OW 7601   6.395   8.014   8.359  0.0177 -0.1317  0.0872
 1901SOL    HW1 7602   6.394   8.096   8.309 -1.7349 -0.5806 -0.6765
 1901SOL    HW2 7603   6.460   7.960   8.314 -0.0439  0.2302 -0.4566
 1901SOL     MW 7604   6.404   8.018   8.346 -0.2264 -0.1434 -0.0888
 1902SOL     OW 7605   6.205   8.447   8.579  0.1992 -0.3143  0.4277
 1902SOL    HW1 7606   6.285   8.419   8.535  0.1752  1.4668 -0.8678
 1902SOL    HW2 7607   6.231   8.524   8.631 -0.9047  1.2716 -1.2475
 1902SOL     MW 7608   6.219   8.454   8.580  0.0474  0.1388  0.0279
 1903SOL     OW 7609   4.726   7.924   1.288 -0.0215  0.7030  0.0068
 1903SOL    HW1 7610   4.734   7.829   1.289 -0.7635  0.6249 -0.6091
 1903SOL    HW2 7611   4.658   7.943   1.352  0.6251  0.8772  0.6470
 1903SOL     MW 7612   4.718   7.914   1.297 -0.0344  0.7159  0.0100
 1904SOL     OW 7613   6.543   1.274   6.801 -0.0260  0.0451 -0.0188
 1904SOL    HW1 7614   6.543   1.339   6.871 -1.4529 -0.7434  0.7645
 1904SOL    HW2 7615   6.564   1.191   6.845  1.1014 -0.1664 -0.8886
 1904SOL     MW 7616   6.546   1.271   6.816 -0.0663 -0.0895 -0.0305
 1905SOL     OW 7617   5.622   8.080   5.430 -0.0283 -1.0145 -0.0634
 1905SOL    HW1 7618   5.586   8.082   5.518 -0.9571 -2.3637 -0.3883
 1905SOL    HW2 7619   5.556   8.125   5.377 -0.2294 -1.5902 -0.3105
 1905SOL     MW 7620   5.608   8.086   5.434 -0.1803 -1.2736 -0.1404
 1906SOL     OW 7621   5.758   1.890   6.615  0.7738  0.1048 -0.5527
 1906SOL    HW1 7622   5.733   1.806   6.653  1.3730 -0.4703 -1.3985
 1906SOL    HW2 7623   5.814   1.867   6.540  0.7620  1.2466 -0.9302
 1906SOL     MW 7624   5.762   1.876   6.610  0.8528  0.1811 -0.7173
 1907SOL     OW 7625   4.894   9.034   8.659 -0.3593  0.0460  0.2425
 1907SOL    HW1 7626   4.891   8.948   8.701 -0.8578  0.3278  0.8041
 1907SOL    HW2 7627   4.983   9.042   8.625  0.9828  0.8645  3.5455
 1907SOL     MW 7628   4.905   9.024   8.660 -0.2458  0.1941  0.7626
 1908SOL     OW 7629   5.058   8.377   1.764 -0.6452  0.2191 -0.0621
 1908SOL    HW1 7630   5.118   8.352   1.695 -2.4721 -4.1585 -0.3725
 1908SOL    HW2 7631   5.108   8.367   1.845 -0.5953 -2.6226 -0.3627
 1908SOL     MW 7632   5.073   8.373   1.766 -0.8843 -0.7525 -0.1443
 1909SOL     OW 7633   4.781   1.282   6.119  0.2532 -0.5503  0.2418
 1909SOL    HW1 7634   4.768   1.330   6.201  0.5401 -1.8624  1.0926
 1909SOL    HW2 7635   4.875   1.264   6.117  0.0428 -1.7322  0.3471
 1909SOL     MW 7636   4.792   1.286   6.130  0.2635 -0.8860  0.3705
 1910SOL     OW 7637   4.660   9.806   2.490  0.1957  0.3130 -0.3666
 1910SOL    HW1 7638   4.653   9.749   2.414  0.5406  0.3426 -0.4216
 1910SOL    HW2 7639   4.719   9.876   2.463  1.1485 -0.2239  0.2477
 1910SOL     MW 7640   4.667   9.808   2.476  0.3704  0.2447 -0.2913
 1911SOL     OW 7641   6.889   1.449   1.280 -0.4869  0.5329 -0.9348
 1911SOL    HW1 7642   6.898   1.366   1.233 -0.2843  1.0425 -1.8133
 1911SOL    HW2 7643   6.855   1.424   1.366 -1.8222 -0.3456 -1.6786
 1911SOL     MW 7644   6.886   1.434   1.285 -0.6393  0.4833 -1.1531
 1912SOL     OW 7645   7.011   0.514   4.728  0.2717  0.0333 -0.1099
 1912SOL    HW1 7646   7.095   0.530   4.685  0.7862 -1.3375  0.3267
 1912SOL    HW2 7647   7.032   0.508   4.821 -0.0940 -1.5257 -0.0971
 1912SOL     MW 7648   7.025   0.516   4.735  0.2917 -0.3610 -0.0495
 1913SOL     OW 7649   5.088   8.558   3.657  0.6961 -0.3858 -0.3036
 1913SOL    HW1 7650   5.114   8.605   3.736  2.0965 -0.4200 -0.7070
 1913SOL    HW2 7651   4.999   8.587   3.640  1.4782  2.1385 -0.5144
 1913SOL     MW 7652   5.080   8.568   3.665  0.9898 -0.0507 -0.3862
 1914SOL     OW 7653   6.229   1.833   4.257  0.4788 -0.0323  0.2878
 1914SOL    HW1 7654   6.317   1.868   4.267  0.1320  1.0810 -0.3805
 1914SOL    HW2 7655   6.234   1.779   4.177  0.5498  0.0546  0.2332
 1914SOL     MW 7656   6.241   1.830   4.247  0.4417  0.1292  0.1905
 1915SOL     OW 7657   6.051   9.037   2.075  0.0632 -0.3528 -0.0699
 1915SOL    HW1 7658   6.070   9.054   1.983  0.2465  0.5149  0.1218
 1915SOL    HW2 7659   6.064   9.121   2.119  0.6309 -0.9033  0.8588
 1915SOL     MW 7660   6.056   9.051   2.069  0.1643 -0.3101  0.0809
 1916SOL     OW 7661   3.873  10.154   7.877 -0.1657  0.4821 -0.5385
 1916SOL    HW1 7662   3.835  10.073   7.842 -0.4132  1.1639 -1.8895
 1916SOL    HW2 7663   3.958  10.162   7.835 -0.0455  0.8129 -0.2407
 1916SOL     MW 7664   3.879  10.144   7.867 -0.1828  0.6184 -0.6802
 1917SOL     OW 7665   4.494   9.946   5.654  1.0180 -0.1618  0.3138
 1917SOL    HW1 7666   4.400   9.932   5.661  0.5479  1.9628 -0.7986
 1917SOL    HW2 7667   4.519   9.900   5.574  0.8114 -0.1851  0.2628
 1917SOL     MW 7668   4.485   9.938   5.644  0.9269  0.1210  0.1572
 1918SOL     OW 7669   7.419   8.450   1.228  0.1856  0.0214 -0.2630
 1918SOL    HW1 7670   7.360   8.526   1.230  0.3933  0.1867 -0.3469
 1918SOL    HW2 7671   7.507   8.488   1.231  0.2825 -0.2430  0.3658
 1918SOL     MW 7672   7.423   8.466   1.229  0.2266  0.0081 -0.1896
 1919SOL     OW 7673   6.517   8.634   0.623 -0.4604 -0.7737 -0.0553
 1919SOL    HW1 7674   6.421   8.642   0.626 -0.3224  2.4328 -0.7011
 1919SOL    HW2 7675   6.539   8.586   0.703 -2.5498 -0.5601  0.7178
 1919SOL     MW 7676   6.507   8.629   0.635 -0.7230 -0.3134 -0.0381
 1920SOL     OW 7677   6.219   0.518   4.563 -0.2565 -0.2279 -0.0453
 1920SOL    HW1 7678   6.251   0.569   4.490  0.7515 -0.6927  0.0562
 1920SOL    HW2 7679   6.215   0.579   4.636 -1.4629  0.2862 -0.5217
 1920SOL     MW 7680   6.223   0.533   4.563 -0.2832 -0.2213 -0.0958
 1921SOL     OW 7681   4.445   9.010   2.595 -0.2461  0.0555  0.1687
 1921SOL    HW1 7682   4.536   9.041   2.595 -0.4918  0.9291  2.1175
 1921SOL    HW2 7683   4.397   9.078   2.547 -0.0036  0.0272 -0.1215
 1921SOL     MW 7684   4.451   9.024   2.588 -0.2465  0.1693  0.3919
 1922SOL     OW 7685   5.388   9.881   6.845 -0.5107 -0.0408 -0.0742
 1922SOL    HW1 7686   5.412   9.791   6.824  2.5098  0.3458  1.1533
 1922SOL    HW2 7687   5.294   9.877   6.865 -0.2433 -3.1808  1.1375
 1922SOL     MW 7688   5.378   9.868   6.845 -0.0682 -0.4114  0.2541
 1923SOL     OW 7689   6.561   1.280   7.998 -0.3937 -0.0578 -0.0187
 1923SOL    HW1 7690   6.585   1.240   7.914 -1.1327 -1.1529  0.2768
 1923SOL    HW2 7691   6.564   1.208   8.061  0.6316  0.8372  1.0130
 1923SOL     MW 7692   6.565   1.265   7.995 -0.3552 -0.0848  0.1599
 1924SOL     OW 7693   7.572   8.582   7.139  0.4473  0.1092  0.6005
 1924SOL    HW1 7694   7.481   8.559   7.157 -0.3242  1.2817 -1.4516
 1924SOL    HW2 7695   7.590   8.656   7.197  0.4588 -0.7902  1.7615
 1924SOL     MW 7696   7.562   8.589   7.149  0.3450  0.1460  0.4806
 1925SOL     OW 7697   3.570   9.519   2.487 -0.1420  0.0890  0.7839
 1925SOL    HW1 7698   3.624   9.441   2.497  0.4740  0.4122  0.0470
 1925SOL    HW2 7699   3.576   9.540   2.393  0.8248  1.8246  1.2060
 1925SOL     MW 7700   3.578   9.511   2.475  0.0710  0.3661  0.7415
 1926SOL     OW 7701   5.316   1.265   9.699  0.4836  0.0102  0.0211
 1926SOL    HW1 7702   5.312   1.248   9.605 -0.3545 -0.5347  0.1401
 1926SOL    HW2 7703   5.409   1.276   9.718  0.7691 -1.0610 -0.6788
 1926SOL     MW 7704   5.328   1.264   9.689  0.4092 -0.2073 -0.0571
 1927SOL     OW 7705   7.361   8.909   3.299  0.1158  0.1335 -0.0910
 1927SOL    HW1 7706   7.298   8.955   3.244 -2.0376  0.2327  2.3041
 1927SOL    HW2 7707   7.360   8.819   3.265 -0.4172  0.3976 -0.8031
 1927SOL     MW 7708   7.353   8.903   3.287 -0.2458  0.1824  0.1355
 1928SOL     OW 7709   5.045   9.027   1.333 -0.1116  0.5377  0.0935
 1928SOL    HW1 7710   5.111   9.032   1.264 -0.9869 -0.3729 -0.8358
 1928SOL    HW2 7711   4.986   9.100   1.317 -0.6501 -0.0181 -0.4910
 1928SOL     MW 7712   5.046   9.037   1.322 -0.3019  0.3404 -0.1102
 1929SOL     OW 7713   7.278   0.676   5.891 -0.1849 -0.3936  0.0043
 1929SOL    HW1 7714   7.325   0.737   5.948  1.8704 -0.3240 -1.6183
 1929SOL    HW2 7715   7.332   0.596   5.892 -0.5118 -0.6504 -1.2137
 1929SOL     MW 7716   7.292   0.673   5.899  0.0477 -0.4188 -0.3780
 1930SOL     OW 7717   7.117   9.222   2.361 -0.3027 -0.1283 -0.3770
 1930SOL    HW1 7718   7.206   9.197   2.336  0.0796  0.1205  0.6847
 1930SOL    HW2 7719   7.073   9.138   2.378  0.2897 -0.2138  0.8899
 1930SOL     MW 7720   7.123   9.207   2.360 -0.1715 -0.1063 -0.0636
 1931SOL     OW 7721   4.947   9.839   0.237  0.1983  0.0149  0.2098
 1931SOL    HW1 7722   5.021   9.850   0.177  0.0562  0.1495  0.0570
 1931SOL    HW2 7723   4.987   9.824   0.322  0.4066 -0.4748  0.0309
 1931SOL     MW 7724   4.962   9.838   0.240  0.2072 -0.0329  0.1651
 1932SOL     OW 7725   4.444   1.271   7.133  0.2283 -0.4306  0.4262
 1932SOL    HW1 7726   4.392   1.351   7.131 -0.6023 -0.9632 -1.5756
 1932SOL    HW2 7727   4.535   1.302   7.129 -0.1056  0.4330 -1.8695
 1932SOL     MW 7728   4.449   1.286   7.133  0.0716 -0.3860 -0.1522
 1933SOL     OW 7729   5.582   0.666   4.327 -0.1249 -0.5424 -0.4718
 1933SOL    HW1 7730   5.574   0.625   4.241 -1.9223  2.3162 -1.8124
 1933SOL    HW2 7731   5.600   0.758   4.308 -1.6093  0.3926  2.1747
 1933SOL     MW 7732   5.583   0.673   4.313 -0.5666 -0.0319 -0.2961
 1934SOL     OW 7733   4.123   0.348   1.962  0.7432  0.0183  0.2197
 1934SOL    HW1 7734   4.165   0.425   1.923  0.5596 -0.3667 -0.7636
 1934SOL    HW2 7735   4.111   0.287   1.889  0.2831 -0.6844  0.8606
 1934SOL     MW 7736   4.127   0.350   1.947  0.6566 -0.1281  0.1736
 1935SOL     OW 7737   4.728   8.271   2.102  0.4755  0.2420  0.5757
 1935SOL    HW1 7738   4.777   8.189   2.093 -0.4031 -0.1509 -1.2352
 1935SOL    HW2 7739   4.795   8.337   2.121  1.4411 -0.6030  0.1997
 1935SOL     MW 7740   4.744   8.269   2.103  0.4872  0.0754  0.2814
 1936SOL     OW 7741   4.366   9.688   4.988  0.1575  0.0286 -0.5092
 1936SOL    HW1 7742   4.357   9.660   5.080 -0.5223 -1.3010 -0.9550
 1936SOL    HW2 7743   4.281   9.726   4.967  0.5701  1.0563 -0.3736
 1936SOL     MW 7744   4.353   9.690   4.998  0.1215 -0.0120 -0.5510
 1937SOL     OW 7745   6.993   8.244   7.751 -0.1988 -0.4701  0.4282
 1937SOL    HW1 7746   6.960   8.206   7.670 -0.4018  0.9512 -0.1787
 1937SOL    HW2 7747   6.978   8.176   7.817 -1.4524 -1.0574 -0.4233
 1937SOL     MW 7748   6.986   8.230   7.749 -0.3949 -0.3579  0.2319
 1938SOL     OW 7749   5.229   1.514   3.112 -0.2066  0.1093  0.4289
 1938SOL    HW1 7750   5.233   1.475   3.025  0.5320 -0.1740  0.5742
 1938SOL    HW2 7751   5.224   1.608   3.097 -2.6463 -0.0235  0.0621
 1938SOL     MW 7752   5.229   1.521   3.098 -0.4355  0.0533  0.3991
 1939SOL     OW 7753   5.239   0.632   5.298  0.3644  0.0912 -0.1664
 1939SOL    HW1 7754   5.330   0.649   5.275  0.7727 -1.1502  0.4344
 1939SOL    HW2 7755   5.237   0.539   5.321 -1.0005  0.1612  0.0830
 1939SOL     MW 7756   5.251   0.622   5.298  0.2357 -0.0665 -0.0520
 1940SOL     OW 7757   5.014   1.087   0.603 -0.3277  0.0043 -0.0297
 1940SOL    HW1 7758   4.990   1.140   0.527 -1.5434 -1.0552 -0.4348
 1940SOL    HW2 7759   5.051   1.007   0.565  0.1077 -0.0625  0.5280
 1940SOL     MW 7760   5.016   1.083   0.588 -0.4327 -0.1473 -0.0091
 1941SOL     OW 7761   5.641   9.110   2.457 -0.3681  0.1991  0.0189
 1941SOL    HW1 7762   5.572   9.073   2.511  0.1356 -1.6104 -0.4940
 1941SOL    HW2 7763   5.625   9.074   2.369  0.6941  0.4533 -0.3003
 1941SOL     MW 7764   5.630   9.100   2.452 -0.1573 -0.0102 -0.0931
 1942SOL     OW 7765   4.009   9.962   8.790 -0.2560  0.5704  0.3719
 1942SOL    HW1 7766   4.023   9.974   8.696 -0.8725  0.3928  0.2541
 1942SOL    HW2 7767   4.031  10.047   8.828  0.4402  0.5084  0.1235
 1942SOL     MW 7768   4.014   9.975   8.783 -0.2453  0.5381  0.3226
 1943SOL     OW 7769   5.618   8.176   8.187 -0.3332 -0.3475 -0.5771
 1943SOL    HW1 7770   5.579   8.121   8.119 -1.6276 -0.8869  0.5540
 1943SOL    HW2 7771   5.664   8.115   8.243 -0.8802 -0.1620  0.0872
 1943SOL     MW 7772   5.619   8.160   8.185 -0.5810 -0.3951 -0.3355
 1944SOL     OW 7773   5.706   9.239   5.697  0.0574 -0.2907 -0.1600
 1944SOL    HW1 7774   5.796   9.231   5.666 -0.0201  0.7735 -0.7178
 1944SOL    HW2 7775   5.655   9.187   5.636  0.4250 -2.1099  1.0041
 1944SOL     MW 7776   5.711   9.231   5.685  0.0965 -0.3923 -0.0784
 1945SOL     OW 7777   4.889   0.900   9.448 -0.3854 -0.2056  0.2215
 1945SOL    HW1 7778   4.815   0.844   9.474  1.0386 -1.0813  2.7349
 1945SOL    HW2 7779   4.966   0.845   9.459  0.9256  1.6567  0.8360
 1945SOL     MW 7780   4.889   0.885   9.453 -0.0173 -0.0729  0.6425
 1946SOL     OW 7781   4.943   8.420  10.126 -0.4015  0.0190  0.4806
 1946SOL    HW1 7782   4.983   8.371  10.053 -1.1850 -0.8661  0.6244
 1946SOL    HW2 7783   4.966   8.369  10.204 -0.4966  0.3575  0.7296
 1946SOL     MW 7784   4.951   8.406  10.126 -0.5197 -0.0546  0.5335
 1947SOL     OW 7785   6.150   7.707   6.598  0.4367 -0.3599 -0.1718
 1947SOL    HW1 7786   6.128   7.778   6.537 -0.3054 -0.9961 -0.6596
 1947SOL    HW2 7787   6.246   7.708   6.602  0.4346  1.0504  0.3039
 1947SOL     MW 7788   6.160   7.717   6.590  0.3366 -0.2557 -0.1734
 1948SOL     OW 7789   4.805   0.715   9.874  0.2809  0.0886  0.1333
 1948SOL    HW1 7790   4.729   0.693   9.927 -0.5938 -1.3928 -1.6059
 1948SOL    HW2 7791   4.872   0.743   9.936 -1.3494  0.4551  1.7890
 1948SOL     MW 7792   4.804   0.716   9.889 -0.0562 -0.0614  0.1220
 1949SOL     OW 7793   7.050   0.011   1.263 -0.6235 -0.4371 -0.1583
 1949SOL    HW1 7794   6.994  -0.036   1.324 -0.8117  0.2195  0.1862
 1949SOL    HW2 7795   7.009   0.097   1.255 -0.3606 -0.3747 -0.8789
 1949SOL     MW 7796   7.037   0.016   1.270 -0.6135 -0.3403 -0.2089
 1950SOL     OW 7797   6.852   0.692   4.581  0.0199 -0.5245  0.4910
 1950SOL    HW1 7798   6.916   0.625   4.606  0.4047 -0.3217  0.0575
 1950SOL    HW2 7799   6.830   0.736   4.663  1.7685  0.5683  0.4177
 1950SOL     MW 7800   6.858   0.689   4.595  0.3070 -0.3501  0.4228
 1951SOL     OW 7801   4.301   9.968   9.953 -0.1243  0.1824  0.6317
 1951SOL    HW1 7802   4.352   9.888   9.953 -1.4681 -0.7584 -1.5187
 1951SOL    HW2 7803   4.363  10.037   9.929  0.9201 -0.2770  1.9574
 1951SOL     MW 7804   4.316   9.967   9.950 -0.1646 -0.0060  0.5207
 1952SOL     OW 7805   5.150   8.233   0.962 -1.0121  0.2175  0.7215
 1952SOL    HW1 7806   5.162   8.144   0.994 -1.6569 -0.6135 -1.1873
 1952SOL    HW2 7807   5.231   8.253   0.914 -1.4550  0.0646 -0.1123
 1952SOL     MW 7808   5.163   8.224   0.960 -1.1585  0.0851  0.3524
 1953SOL     OW 7809   7.808   9.175   4.974 -0.3446 -0.0948  0.1831
 1953SOL    HW1 7810   7.896   9.212   4.966  0.0025 -1.0960 -0.8249
 1953SOL    HW2 7811   7.804   9.142   5.064  0.8581 -1.3643 -0.2004
 1953SOL     MW 7812   7.819   9.176   4.985 -0.1361 -0.4004 -0.0042
 1954SOL     OW 7813   3.668   9.406   6.199  0.2987 -0.0543  0.0188
 1954SOL    HW1 7814   3.619   9.334   6.239  0.5333 -0.4773 -0.4507
 1954SOL    HW2 7815   3.744   9.417   6.255  0.6840 -0.7200 -0.3615
 1954SOL     MW 7816   3.671   9.398   6.212  0.3822 -0.2008 -0.0956
 1955SOL     OW 7817   6.624   0.491   1.511  0.2145  1.0188  0.7707
 1955SOL    HW1 7818   6.621   0.494   1.416 -0.9656  1.6640  0.8033
 1955SOL    HW2 7819   6.643   0.400   1.532 -1.3176  0.4613 -0.0819
 1955SOL     MW 7820   6.626   0.479   1.501 -0.1505  1.0306  0.6603
 1956SOL     OW 7821   7.432   0.537   8.187 -0.0357  0.0305  0.3209
 1956SOL    HW1 7822   7.408   0.579   8.270 -1.3540 -0.7372  0.3549
 1956SOL    HW2 7823   7.358   0.481   8.166  0.0749  0.5077 -1.5932
 1956SOL     MW 7824   7.419   0.535   8.195 -0.1982 -0.0086  0.0679
 1957SOL     OW 7825   7.957  10.080   8.928 -0.7628 -0.6402  0.3014
 1957SOL    HW1 7826   7.974  10.025   9.004  1.7069  0.1072  0.3759
 1957SOL    HW2 7827   8.004  10.037   8.856 -0.3362  0.3957 -0.0524
 1957SOL     MW 7828   7.966  10.067   8.928 -0.3730 -0.4002  0.2638
 1958SOL     OW 7829   6.299   7.742   0.840  0.1131 -0.3901  0.4784
 1958SOL    HW1 7830   6.365   7.686   0.798 -0.7557 -1.3474  0.3496
 1958SOL    HW2 7831   6.264   7.796   0.769  0.7666  0.1385  0.5515
 1958SOL     MW 7832   6.303   7.742   0.825  0.0841 -0.4478  0.4709
 1959SOL     OW 7833   7.978   0.046   7.791 -0.6150  0.0797 -0.5136
 1959SOL    HW1 7834   7.919  -0.029   7.791 -2.0862  1.2032 -1.1890
 1959SOL    HW2 7835   7.925   0.119   7.760  0.9419  1.2908 -0.4541
 1959SOL     MW 7836   7.963   0.046   7.787 -0.6035  0.3939 -0.5965
 1960SOL     OW 7837   4.791   9.043   5.936 -0.3969  0.8761 -0.4863
 1960SOL    HW1 7838   4.721   9.107   5.920 -1.2593  0.2043  0.4999
 1960SOL    HW2 7839   4.750   8.958   5.922  0.3559  0.4872 -0.3743
 1960SOL     MW 7840   4.776   9.040   5.932 -0.4116  0.7334 -0.3385
 1961SOL     OW 7841   4.843   0.784   6.137  0.1240  0.7448 -0.3741
 1961SOL    HW1 7842   4.768   0.731   6.165  0.3503  0.5162 -0.2032
 1961SOL    HW2 7843   4.808   0.873   6.132 -0.1499  0.6467 -0.2521
 1961SOL     MW 7844   4.828   0.789   6.140  0.1176  0.7008 -0.3347
 1962SOL     OW 7845   6.721   8.146   0.030 -0.3533 -0.0697 -0.0373
 1962SOL    HW1 7846   6.757   8.189   0.108 -1.2334 -0.5097  0.6295
 1962SOL    HW2 7847   6.763   8.060   0.028  1.5149  0.7887 -1.4509
 1962SOL     MW 7848   6.732   8.141   0.040 -0.2204 -0.0134 -0.1378
 1963SOL     OW 7849   4.164   8.726   3.169 -0.2019  0.5100  0.0471
 1963SOL    HW1 7850   4.253   8.738   3.138 -0.4112  1.1431 -0.3207
 1963SOL    HW2 7851   4.117   8.690   3.094  0.1023 -1.4242  0.7212
 1963SOL     MW 7852   4.170   8.722   3.155 -0.1891  0.3349  0.0883
 1964SOL     OW 7853   5.284   8.867   6.537  0.7101 -1.2950 -0.2505
 1964SOL    HW1 7854   5.198   8.842   6.504 -0.3188  1.4938  0.0065
 1964SOL    HW2 7855   5.322   8.919   6.466  1.6175 -1.4067  0.1406
 1964SOL     MW 7856   5.278   8.871   6.523  0.6937 -0.9347 -0.1633
 1965SOL     OW 7857   6.173   9.118   0.183 -0.0002  0.0525 -0.4163
 1965SOL    HW1 7858   6.266   9.098   0.188 -0.1153 -0.6421 -0.9032
 1965SOL    HW2 7859   6.170   9.212   0.164  0.5452  0.5848  1.8510
 1965SOL     MW 7860   6.185   9.128   0.181  0.0577  0.0307 -0.1767
 1966SOL     OW 7861   4.051   9.773   7.150 -0.0670  0.2993 -0.0537
 1966SOL    HW1 7862   4.139   9.790   7.115  0.2107  0.2251  0.6025
 1966SOL    HW2 7863   4.023   9.694   7.104  1.6379 -1.7705  2.2141
 1966SOL     MW 7864   4.059   9.765   7.139  0.1998  0.0108  0.3398
 1967SOL     OW 7865   4.823   0.363   8.734  0.0819 -0.5136 -0.1901
 1967SOL    HW1 7866   4.818   0.448   8.777 -0.9983  0.8626 -2.7858
 1967SOL    HW2 7867   4.776   0.304   8.793 -1.5729  1.3051  0.4271
 1967SOL     MW 7868   4.816   0.366   8.748 -0.2862 -0.0836 -0.4564
 1968SOL     OW 7869   7.782   0.679   9.019  0.3550 -0.2977  0.2412
 1968SOL    HW1 7870   7.715   0.611   9.028  0.4209 -0.5417 -0.9035
 1968SOL    HW2 7871   7.761   0.742   9.087 -2.9283  1.1839 -1.8694
 1968SOL     MW 7872   7.770   0.678   9.029 -0.0780 -0.1312 -0.1969
 1969SOL     OW 7873   6.306   1.197   4.700 -0.2998 -0.2676 -0.1288
 1969SOL    HW1 7874   6.324   1.104   4.714  0.0089 -0.2843 -0.6113
 1969SOL    HW2 7875   6.218   1.210   4.735 -0.7319 -0.9534 -0.9169
 1969SOL     MW 7876   6.297   1.187   4.707 -0.3164 -0.3622 -0.2998
 1970SOL     OW 7877   7.814   9.431   4.132 -0.6780 -0.0233  0.2718
 1970SOL    HW1 7878   7.887   9.482   4.098  0.6861 -1.5910  0.7372
 1970SOL    HW2 7879   7.789   9.476   4.212 -1.1408  1.2818 -0.5687
 1970SOL     MW 7880   7.820   9.444   4.138 -0.5567 -0.0586  0.2213
 1971SOL     OW 7881   5.049   1.469   0.191  0.5421  1.1517 -0.0542
 1971SOL    HW1 7882   5.100   1.526   0.248  1.0944  2.1741 -1.4844
 1971SOL    HW2 7883   5.108   1.452   0.116 -0.0271 -0.3935 -0.1831
 1971SOL     MW 7884   5.064   1.474   0.188  0.5398  1.0814 -0.2640
 1972SOL     OW 7885   5.699   9.450   6.056 -0.1918  0.0351 -0.1771
 1972SOL    HW1 7886   5.635   9.381   6.076 -1.2534  0.7666 -0.9997
 1972SOL    HW2 7887   5.781   9.402   6.046 -0.9663 -1.1881 -1.0985
 1972SOL     MW 7888   5.701   9.434   6.057 -0.4389 -0.0311 -0.4118
 1973SOL     OW 7889   5.584   8.005   7.965  0.1998 -0.3444  0.5025
 1973SOL    HW1 7890   5.495   8.008   7.930  0.8719  0.6718 -1.2538
 1973SOL    HW2 7891   5.635   8.061   7.906  1.9889 -0.8394  1.5016
 1973SOL     MW 7892   5.579   8.013   7.952  0.5310 -0.2743  0.4006
 1974SOL     OW 7893   5.584   7.961   1.546  0.6467  0.1853 -0.1127
 1974SOL    HW1 7894   5.629   8.000   1.472  0.7596  1.0079  0.3800
 1974SOL    HW2 7895   5.641   7.979   1.621  0.3503 -0.3046  0.2381
 1974SOL     MW 7896   5.598   7.968   1.546  0.6220  0.2301  0.0008
 1975SOL     OW 7897   4.268   1.072   0.713  0.3022  0.2013  0.2214
 1975SOL    HW1 7898   4.193   1.015   0.730 -0.1918  1.0170  0.8469
 1975SOL    HW2 7899   4.233   1.141   0.655  0.0953  1.5579  1.8952
 1975SOL     MW 7900   4.253   1.074   0.707  0.2079  0.4936  0.5308
 1976SOL     OW 7901   4.942   9.581   2.457  0.0528  0.6641  0.0342
 1976SOL    HW1 7902   4.911   9.507   2.404 -2.8940  2.2858 -0.6841
 1976SOL    HW2 7903   4.908   9.563   2.545  0.3820  0.6027  0.1521
 1976SOL     MW 7904   4.933   9.568   2.462 -0.2995  0.8741 -0.0466
 1977SOL     OW 7905   5.200   8.879   6.800  0.6826 -0.0473  0.2255
 1977SOL    HW1 7906   5.247   8.883   6.717 -1.1127  0.2985 -0.8384
 1977SOL    HW2 7907   5.196   8.786   6.821  0.7843 -0.1754 -0.3088
 1977SOL     MW 7908   5.206   8.867   6.792  0.4547 -0.0180  0.0104
 1978SOL     OW 7909   5.800   9.835   6.466  0.8636  0.2308 -0.1204
 1978SOL    HW1 7910   5.851   9.858   6.388  1.5609 -0.6854  0.0398
 1978SOL    HW2 7911   5.834   9.749   6.492  0.4656  0.4034  1.0433
 1978SOL     MW 7912   5.812   9.826   6.459  0.9039  0.1307  0.0578
 1979SOL     OW 7913   7.843   1.106   1.540 -0.0229  0.1643 -0.2389
 1979SOL    HW1 7914   7.889   1.184   1.571  0.9672  0.1025 -1.4549
 1979SOL    HW2 7915   7.752   1.133   1.530  0.2530  1.0774 -0.3386
 1979SOL     MW 7916   7.837   1.120   1.543  0.1475  0.2788 -0.4160
 1980SOL     OW 7917   4.069   9.025   8.624 -0.5583 -0.0145 -0.1932
 1980SOL    HW1 7918   4.088   8.932   8.611 -0.8389  0.0124 -0.8002
 1980SOL    HW2 7919   4.141   9.071   8.580 -0.6142  0.0643 -0.2035
 1980SOL     MW 7920   4.081   9.019   8.616 -0.6035 -0.0003 -0.2763
 1981SOL     OW 7921   5.044   0.341   2.669 -0.5199 -0.6982 -0.4608
 1981SOL    HW1 7922   4.971   0.342   2.606 -0.1061 -1.2731 -0.9582
 1981SOL    HW2 7923   5.059   0.248   2.686  1.1021 -0.6746 -1.5537
 1981SOL     MW 7924   5.036   0.328   2.662 -0.2459 -0.7724 -0.6748
 1982SOL     OW 7925   6.162   9.533   1.513 -0.0085 -0.4569 -0.1617
 1982SOL    HW1 7926   6.204   9.459   1.470  0.0336 -0.2608 -0.4623
 1982SOL    HW2 7927   6.188   9.526   1.605  0.5046 -0.4612 -0.3071
 1982SOL     MW 7928   6.171   9.522   1.520  0.0662 -0.4311 -0.2217
 1983SOL     OW 7929   6.608   9.252   6.761 -0.1967 -0.3247 -0.2915
 1983SOL    HW1 7930   6.655   9.336   6.763  2.9762 -1.7441 -3.2093
 1983SOL    HW2 7931   6.580   9.243   6.670 -0.4443 -2.4205 -0.0539
 1983SOL     MW 7932   6.611   9.262   6.749  0.1970 -0.7978 -0.6522
 1984SOL     OW 7933   5.498   7.825   9.954  0.5660 -0.6963 -0.2118
 1984SOL    HW1 7934   5.560   7.780   9.896 -1.9434 -3.1055 -1.2082
 1984SOL    HW2 7935   5.412   7.808   9.916 -0.8279  2.2181  1.3016
 1984SOL     MW 7936   5.495   7.817   9.941  0.0407 -0.6283 -0.1422
 1985SOL     OW 7937   5.203   9.350   8.041 -0.0114 -0.2459  0.1496
 1985SOL    HW1 7938   5.110   9.371   8.033  0.1071  0.2153 -0.0196
 1985SOL    HW2 7939   5.247   9.416   7.987  0.5769  0.9423  1.9870
 1985SOL     MW 7940   5.196   9.362   8.032  0.0837 -0.0239  0.3741
 1986SOL     OW 7941   6.345   9.744   5.263 -0.2124 -0.0165  0.0761
 1986SOL    HW1 7942   6.296   9.806   5.209  1.2094  0.3578 -0.8405
 1986SOL    HW2 7943   6.408   9.798   5.311 -0.0531 -0.5813  0.5135
 1986SOL     MW 7944   6.347   9.760   5.262  0.0004 -0.0422  0.0116
 1987SOL     OW 7945   5.965   9.127   2.917 -0.1538 -0.2890 -0.4901
 1987SOL    HW1 7946   5.933   9.143   3.006 -0.0372 -0.3561 -0.4376
 1987SOL    HW2 7947   5.990   9.214   2.885  1.7443 -0.5298  0.2754
 1987SOL     MW 7948   5.964   9.141   2.924  0.1174 -0.3304 -0.3800
 1988SOL     OW 7949   5.519  10.098   7.226  0.5685 -0.0518  0.3393
 1988SOL    HW1 7950   5.501  10.176   7.172 -0.3178  0.4818  1.3645
 1988SOL    HW2 7951   5.605  10.115   7.265  1.0516 -0.2771 -0.6038
 1988SOL     MW 7952   5.528  10.111   7.224  0.5142 -0.0103  0.3503
 1989SOL     OW 7953   5.764   0.399   4.925 -0.1969  0.1251  0.2611
 1989SOL    HW1 7954   5.740   0.331   4.988  0.0964  1.7859  2.2305
 1989SOL    HW2 7955   5.688   0.405   4.867 -0.1918 -1.9057 -0.0386
 1989SOL     MW 7956   5.750   0.391   4.926 -0.1568  0.0753  0.4858
 1990SOL     OW 7957   6.568   8.411   1.636  0.2201  0.5794  0.1767
 1990SOL    HW1 7958   6.480   8.450   1.637  0.3462  0.9334 -1.1182
 1990SOL    HW2 7959   6.581   8.383   1.545  0.9116 -0.7270  0.6551
 1990SOL     MW 7960   6.558   8.412   1.624  0.3301  0.4512  0.0668
 1991SOL     OW 7961   7.887   9.324   0.502 -0.5318  0.5282 -0.3236
 1991SOL    HW1 7962   7.811   9.317   0.559 -0.5422 -0.2065 -0.4147
 1991SOL    HW2 7963   7.948   9.258   0.535 -0.4092  0.3127 -0.9643
 1991SOL     MW 7964   7.885   9.314   0.514 -0.5167  0.4003 -0.4221
 1992SOL     OW 7965   6.954   8.649   3.004  0.2092 -0.0928  0.3005
 1992SOL    HW1 7966   6.958   8.638   3.099  1.1903 -0.7798  0.2031
 1992SOL    HW2 7967   6.906   8.572   2.972 -0.4438  0.3244  0.2602
 1992SOL     MW 7968   6.948   8.637   3.013  0.2533 -0.1291  0.2819
 1993SOL     OW 7969   7.596   0.088   6.800 -0.0298  0.7008  0.3682
 1993SOL    HW1 7970   7.514   0.128   6.772  0.0378  0.2318 -0.5395
 1993SOL    HW2 7971   7.651   0.161   6.826 -0.3533  1.1032 -0.0647
 1993SOL     MW 7972   7.592   0.103   6.800 -0.0643  0.6918  0.1878
 1994SOL     OW 7973   4.051   8.686   9.806  0.3128 -0.6604  0.3301
 1994SOL    HW1 7974   4.042   8.657   9.716 -0.4754 -0.3282  0.2922
 1994SOL    HW2 7975   4.018   8.613   9.859  1.3592 -1.1063  0.3877
 1994SOL     MW 7976   4.045   8.672   9.801  0.3475 -0.6757  0.3327
 1995SOL     OW 7977   6.391   1.549   1.572 -0.0791 -0.2818 -0.0431
 1995SOL    HW1 7978   6.428   1.612   1.633 -0.6384 -0.5575  0.5969
 1995SOL    HW2 7979   6.372   1.472   1.626 -2.1478  0.0735 -0.2099
 1995SOL     MW 7980   6.394   1.547   1.588 -0.4328 -0.2711  0.0206
 1996SOL     OW 7981   4.529   9.324   9.339 -0.0615 -0.0461  0.0088
 1996SOL    HW1 7982   4.522   9.266   9.415  0.1383  0.9331  0.7883
 1996SOL    HW2 7983   4.520   9.266   9.264  2.5570 -1.5011  0.6786
 1996SOL     MW 7984   4.527   9.308   9.339  0.3178 -0.1102  0.2038
 1997SOL     OW 7985   5.916   1.542   8.877 -0.5647 -0.0117 -0.1301
 1997SOL    HW1 7986   5.837   1.523   8.928 -0.0389 -0.3636  0.5657
 1997SOL    HW2 7987   5.962   1.608   8.929 -0.1426 -0.2003 -0.2656
 1997SOL     MW 7988   5.912   1.548   8.891 -0.4371 -0.0844 -0.0547
 1998SOL     OW 7989   7.112   0.153  10.019  0.5574 -0.2379 -0.4898
 1998SOL    HW1 7990   7.174   0.103  10.072  1.0407  0.5358 -0.3039
 1998SOL    HW2 7991   7.026   0.127  10.052  0.6071 -2.8907 -2.1193
 1998SOL     MW 7992   7.109   0.143  10.031  0.6292 -0.4908 -0.6841
 1999SOL     OW 7993   5.272   8.498   5.235 -0.9890 -0.5374 -0.2653
 1999SOL    HW1 7994   5.260   8.592   5.222 -0.5264 -0.6789 -1.9778
 1999SOL    HW2 7995   5.327   8.492   5.313 -2.0632  0.5396  0.6212
 1999SOL     MW 7996   5.278   8.510   5.243 -1.0714 -0.4115 -0.3765
 2000SOL     OW 7997   4.797  10.031   2.455 -0.2550 -0.2971 -0.1607
 2000SOL    HW1 7998   4.800  10.050   2.548 -0.0960  0.1540 -0.2529
 2000SOL    HW2 7999   4.888  10.039   2.426 -0.1091 -1.6467 -0.1283
 2000SOL     MW 8000   4.810  10.034   2.463 -0.2139 -0.4181 -0.1688
 2001SOL     OW 8001   4.962   8.287   0.214  0.3035  0.3129 -0.2780
 2001SOL    HW1 8002   5.050   8.269   0.249  0.5521 -0.7947 -1.4020
 2001SOL    HW2 8003   4.920   8.201   0.210  0.2130  0.4128 -2.4609
 2001SOL     MW 8004   4.968   8.273   0.219  0.3248  0.1773 -0.7231
 2002SOL     OW 8005   5.704   8.924   5.369 -0.1121  0.4299 -0.0379
 2002SOL    HW1 8006   5.748   8.987   5.312 -0.7587  0.9078 -0.0134
 2002SOL    HW2 8007   5.673   8.856   5.309  2.0955 -0.8135  0.1051
 2002SOL     MW 8008   5.706   8.923   5.353  0.0980  0.3269 -0.0153
 2003SOL     OW 8009   7.815   0.823   3.697 -0.2737 -0.1479 -0.6380
 2003SOL    HW1 8010   7.735   0.824   3.751  0.2297 -2.0221  0.2173
 2003SOL    HW2 8011   7.814   0.908   3.652 -1.5820  0.8113  1.0535
 2003SOL     MW 8012   7.804   0.835   3.698 -0.3820 -0.2711 -0.2952
 2004SOL     OW 8013   6.720   0.556   7.270  0.0839 -0.3822 -0.4394
 2004SOL    HW1 8014   6.678   0.478   7.304 -1.6934  0.8939  0.4425
 2004SOL    HW2 8015   6.782   0.582   7.338  0.7079 -1.0416 -0.7542
 2004SOL     MW 8016   6.723   0.549   7.284 -0.0713 -0.2992 -0.3631
 2005SOL     OW 8017   4.819   9.802   0.530 -0.1794  0.3264  0.5522
 2005SOL    HW1 8018   4.835   9.894   0.554  1.4235  0.2694 -0.2234
 2005SOL    HW2 8019   4.753   9.807   0.460  0.4194  0.9429  0.0185
 2005SOL     MW 8020   4.812   9.815   0.524  0.1169  0.4017  0.3760
 2006SOL     OW 8021   4.690  10.103   8.616  0.0270 -0.3269  0.1552
 2006SOL    HW1 8022   4.740  10.184   8.608  1.6989 -1.3536 -0.6007
 2006SOL    HW2 8023   4.630  10.104   8.542  0.2265  0.1013 -0.0043
 2006SOL     MW 8024   4.689  10.114   8.605  0.2788 -0.4075  0.0320
 2007SOL     OW 8025   5.520   0.905   7.391  0.1961  0.2950 -0.1186
 2007SOL    HW1 8026   5.561   0.989   7.369 -0.5255  0.5515 -0.5320
 2007SOL    HW2 8027   5.470   0.882   7.313  0.1601 -0.3825  0.1003
 2007SOL     MW 8028   5.519   0.913   7.378  0.0942  0.2383 -0.1448
 2008SOL     OW 8029   5.864   9.847   7.035 -0.6557  0.0827  0.2027
 2008SOL    HW1 8030   5.786   9.897   7.012  0.6209  2.0283 -0.1030
 2008SOL    HW2 8031   5.923   9.911   7.074  1.1861 -1.1059 -0.5064
 2008SOL     MW 8032   5.862   9.862   7.037 -0.2360  0.1846  0.0661
 2009SOL     OW 8033   4.580  -0.027   1.842 -0.2640  0.2969  0.0174
 2009SOL    HW1 8034   4.508   0.037   1.845  0.8106  1.5347  0.3621
 2009SOL    HW2 8035   4.654   0.022   1.807  0.4892 -0.8938 -0.1012
 2009SOL     MW 8036   4.580  -0.011   1.838 -0.0180  0.3033  0.0478
 2010SOL     OW 8037   6.219   8.466   2.673 -0.2816 -0.1482 -0.3832
 2010SOL    HW1 8038   6.145   8.439   2.619 -0.2778 -1.0023  0.0199
 2010SOL    HW2 8039   6.181   8.488   2.758 -0.2284  0.7263 -0.5735
 2010SOL     MW 8040   6.204   8.465   2.677 -0.2739 -0.1455 -0.3546
 2011SOL     OW 8041   5.019   0.699   4.627 -0.4449  0.3162  0.2190
 2011SOL    HW1 8042   4.983   0.650   4.552 -0.5561 -1.4304  1.3552
 2011SOL    HW2 8043   4.943   0.747   4.662 -0.4217  1.0325 -0.6828
 2011SOL     MW 8044   5.004   0.699   4.622 -0.4567  0.1775  0.2505
 2012SOL     OW 8045   7.617   9.505   3.336  0.6504  0.2385 -0.2025
 2012SOL    HW1 8046   7.682   9.543   3.395  0.0729 -1.8054  1.8992
 2012SOL    HW2 8047   7.539   9.495   3.390 -0.0506 -1.3174 -1.4323
 2012SOL     MW 8048   7.615   9.509   3.351  0.4783 -0.2460 -0.0852
 2013SOL     OW 8049   6.594   8.743   7.578  0.2514  0.8499  0.1479
 2013SOL    HW1 8050   6.684   8.723   7.603  0.5206  0.7246 -0.8792
 2013SOL    HW2 8051   6.587   8.712   7.488 -0.2817  2.4810 -0.4081
 2013SOL     MW 8052   6.605   8.736   7.569  0.2159  1.0526 -0.0651
 2014SOL     OW 8053   5.307   0.566   4.408 -0.3727  0.4322  0.0031
 2014SOL    HW1 8054   5.272   0.597   4.325 -1.9971  2.9632  1.5062
 2014SOL    HW2 8055   5.400   0.588   4.404 -0.3019 -0.0047 -1.3240
 2014SOL     MW 8056   5.315   0.573   4.396 -0.5818  0.7141  0.0268
 2015SOL     OW 8057   7.582   0.595   4.274  0.4920 -0.4444  0.3360
 2015SOL    HW1 8058   7.634   0.596   4.354  1.6048 -0.3357 -0.3740
 2015SOL    HW2 8059   7.585   0.504   4.245  2.1069 -0.0689 -0.8345
 2015SOL     MW 8060   7.589   0.583   4.281  0.8591 -0.3792  0.0829
 2016SOL     OW 8061   8.057   9.388   0.895  0.3395  0.6512  0.3233
 2016SOL    HW1 8062   7.973   9.356   0.863  0.3274  1.2383 -0.2540
 2016SOL    HW2 8063   8.110   9.401   0.816  0.5103  1.5691  0.5701
 2016SOL     MW 8064   8.053   9.385   0.880  0.3609  0.8538  0.2788
 2017SOL     OW 8065   4.656   0.558  10.049 -0.4334 -0.1925  0.5579
 2017SOL    HW1 8066   4.715   0.483  10.059  0.4510  0.3828 -0.1328
 2017SOL    HW2 8067   4.646   0.591  10.138 -1.3390 -1.4812  0.9620
 2017SOL     MW 8068   4.663   0.552  10.062 -0.4362 -0.2885  0.5193
 2018SOL     OW 8069   7.625   9.568   8.276  0.5006 -0.1760 -0.0257
 2018SOL    HW1 8070   7.540   9.603   8.302  1.0608  0.1283  1.4827
 2018SOL    HW2 8071   7.646   9.614   8.195 -1.1552 -0.9151 -0.9290
 2018SOL     MW 8072   7.617   9.579   8.268  0.3532 -0.2345  0.0558
 2019SOL     OW 8073   5.149   8.142   2.208  0.4589  0.0362  0.3026
 2019SOL    HW1 8074   5.165   8.223   2.161 -0.5540  0.0718 -0.0152
 2019SOL    HW2 8075   5.063   8.113   2.178 -0.3720  0.2057  2.3374
 2019SOL     MW 8076   5.140   8.149   2.198  0.2108  0.0638  0.5337
 2020SOL     OW 8077   5.018   0.530   1.493 -0.0276  0.0220 -0.3924
 2020SOL    HW1 8078   5.078   0.597   1.461  0.7114 -1.5716 -2.5734
 2020SOL    HW2 8079   5.065   0.486   1.564  0.6195  0.0215 -0.8172
 2020SOL     MW 8080   5.032   0.533   1.498  0.1589 -0.1926 -0.7431
 2021SOL     OW 8081   5.880   0.497   9.696  0.3905 -0.2900  0.4141
 2021SOL    HW1 8082   5.881   0.558   9.623 -1.0252  0.2844  0.8366
 2021SOL    HW2 8083   5.825   0.540   9.762 -1.6004 -2.4765  0.3016
 2021SOL     MW 8084   5.873   0.511   9.695 -0.0680 -0.5070  0.4559
 2022SOL     OW 8085   7.151   8.565   5.060 -0.7341 -0.4941  0.4049
 2022SOL    HW1 8086   7.175   8.624   4.989  1.0173 -0.4095  0.9993
 2022SOL    HW2 8087   7.144   8.621   5.138  0.4350 -0.9611  0.8718
 2022SOL     MW 8088   7.154   8.580   5.061 -0.3411 -0.5456  0.5478
 2023SOL     OW 8089   7.512   8.996   3.070  0.3950 -0.5905 -0.0575
 2023SOL    HW1 8090   7.506   9.079   3.021  2.7684 -0.2980  0.0530
 2023SOL    HW2 8091   7.468   9.015   3.153 -0.4236  0.0585 -0.6113
 2023SOL     MW 8092   7.505   9.010   3.074  0.6042 -0.4638 -0.1171
 2024SOL     OW 8093   7.178   1.164   1.033  0.3672  0.4678  0.0305
 2024SOL    HW1 8094   7.186   1.179   0.939 -2.2295 -0.3747 -0.4151
 2024SOL    HW2 8095   7.183   1.068   1.042  0.2409  0.5203  0.7096
 2024SOL     MW 8096   7.180   1.153   1.022  0.0008  0.3615  0.0619
 2025SOL     OW 8097   4.583   9.080   6.728 -0.4799 -0.0191 -0.4569
 2025SOL    HW1 8098   4.638   9.094   6.805 -0.2535  2.1158 -0.9433
 2025SOL    HW2 8099   4.496   9.062   6.763 -0.4698  1.3541  0.3342
 2025SOL     MW 8100   4.579   9.079   6.743 -0.4481  0.4530 -0.4159
 2026SOL     OW 8101   6.555   8.140   1.151  0.3381  0.8502 -0.6219
 2026SOL    HW1 8102   6.537   8.048   1.135 -1.2400  0.7066  1.4255
 2026SOL    HW2 8103   6.542   8.183   1.067 -1.2470 -0.5235 -1.1264
 2026SOL     MW 8104   6.551   8.134   1.138 -0.0876  0.6460 -0.4143
 2027SOL     OW 8105   5.928   8.024   4.190 -0.7177 -0.6527  0.1299
 2027SOL    HW1 8106   5.991   8.044   4.121 -0.1662 -1.1091  0.4962
 2027SOL    HW2 8107   5.863   8.095   4.185  0.4400  0.4692  0.5115
 2027SOL     MW 8108   5.927   8.036   4.180 -0.4877 -0.5631  0.2305
 2028SOL     OW 8109   4.016   9.156   3.428  0.0616 -0.4710  0.3054
 2028SOL    HW1 8110   4.017   9.246   3.461 -2.7224 -0.8419  1.7302
 2028SOL    HW2 8111   4.024   9.101   3.506  0.1664 -1.4613 -0.3806
 2028SOL     MW 8112   4.017   9.161   3.443 -0.2989 -0.6542  0.4048
 2029SOL     OW 8113   3.816   9.751   4.314  0.5165  0.1867  0.6428
 2029SOL    HW1 8114   3.860   9.678   4.271 -0.7535 -0.1532 -0.1560
 2029SOL    HW2 8115   3.846   9.829   4.266 -0.3772 -0.1272 -0.4773
 2029SOL     MW 8116   3.826   9.752   4.302  0.2253  0.0987  0.3846
 2030SOL     OW 8117   4.312   9.476   9.423 -0.1578 -0.0392  0.2148
 2030SOL    HW1 8118   4.388   9.432   9.385 -0.4367  0.3931 -0.8613
 2030SOL    HW2 8119   4.349   9.539   9.485  0.2615 -1.4996  1.5338
 2030SOL     MW 8120   4.327   9.479   9.426 -0.1389 -0.1776  0.2475
 2031SOL     OW 8121   5.665   1.478   0.237  0.5449 -0.0211  0.3450
 2031SOL    HW1 8122   5.659   1.398   0.289  2.9021 -1.5783 -1.5230
 2031SOL    HW2 8123   5.717   1.538   0.290 -0.1418 -0.1984  1.2316
 2031SOL     MW 8124   5.671   1.475   0.251  0.7697 -0.2545  0.2129
 2032SOL     OW 8125   7.056   0.154   4.258  0.3405  0.3920 -0.2664
 2032SOL    HW1 8126   6.979   0.209   4.270 -0.7761 -1.2338  0.2812
 2032SOL    HW2 8127   7.096   0.150   4.345 -0.9772 -1.6008  0.3097
 2032SOL     MW 8128   7.051   0.161   4.271  0.0129 -0.0950 -0.1152
 2033SOL     OW 8129   4.554   0.560   5.947 -0.3639  0.1284 -0.9685
 2033SOL    HW1 8130   4.495   0.632   5.924 -1.2595 -0.9988 -2.3821
 2033SOL    HW2 8131   4.501   0.481   5.934  1.3629 -0.9156 -1.9636
 2033SOL     MW 8132   4.539   0.559   5.942 -0.2520 -0.1638 -1.2927
 2034SOL     OW 8133   7.645   8.625   1.522  0.4470  0.8674  0.0366
 2034SOL    HW1 8134   7.560   8.595   1.556  0.8450 -0.0391  0.2704
 2034SOL    HW2 8135   7.649   8.587   1.434  0.2936  1.5351 -0.2652
 2034SOL     MW 8136   7.634   8.616   1.515  0.4799  0.8352  0.0275
 2035SOL     OW 8137   3.697   0.514   2.031  0.2143 -0.1118  0.2928
 2035SOL    HW1 8138   3.668   0.600   2.061 -0.4408  0.0471 -0.7416
 2035SOL    HW2 8139   3.783   0.503   2.071  0.1581  0.8721  0.7257
 2035SOL     MW 8140   3.705   0.524   2.040  0.1186  0.0420  0.2118
 2036SOL     OW 8141   5.931   0.825   9.046 -0.1248 -0.0378  0.0777
 2036SOL    HW1 8142   5.928   0.843   9.140 -0.2328 -0.6669  0.1958
 2036SOL    HW2 8143   5.941   0.912   9.006 -1.5186  0.3897  0.5977
 2036SOL     MW 8144   5.932   0.839   9.054 -0.3269 -0.0649  0.1636
 2037SOL     OW 8145   6.410   8.139   7.902 -0.1369 -0.0216  0.0144
 2037SOL    HW1 8146   6.428   8.138   7.808  0.8529 -0.2285  0.1929
 2037SOL    HW2 8147   6.497   8.131   7.943 -0.7338 -2.5727  0.9499
 2037SOL     MW 8148   6.424   8.138   7.895 -0.0840 -0.3928  0.1644
 2038SOL     OW 8149   6.715   9.401   9.846 -0.1312 -0.1763  0.0434
 2038SOL    HW1 8150   6.740   9.484   9.806  0.8785 -1.1290 -1.3955
 2038SOL    HW2 8151   6.701   9.342   9.772 -1.7909 -1.0542  0.9934
 2038SOL     MW 8152   6.716   9.404   9.831 -0.2187 -0.4227 -0.0224
 2039SOL     OW 8153   7.310   9.003   8.357  0.0334 -0.0700 -0.0893
 2039SOL    HW1 8154   7.387   9.028   8.408 -0.9440  0.1754  1.3127
 2039SOL    HW2 8155   7.256   9.081   8.356  0.3243  0.1571 -2.1446
 2039SOL     MW 8156   7.313   9.017   8.364 -0.0590 -0.0064 -0.1772
 2040SOL     OW 8157   5.371   1.149   2.142  0.0131 -0.0479 -0.0180
 2040SOL    HW1 8158   5.326   1.116   2.220 -0.3871 -0.9198 -0.6095
 2040SOL    HW2 8159   5.389   1.071   2.090  0.9698  0.4444 -0.4471
 2040SOL     MW 8160   5.367   1.134   2.146  0.0880 -0.0990 -0.1553
 2041SOL     OW 8161   7.227   8.647   1.195  0.1502  0.1640 -0.1385
 2041SOL    HW1 8162   7.293   8.714   1.213 -0.1338  0.4178 -0.0145
 2041SOL    HW2 8163   7.211   8.654   1.101  0.3553  0.0481 -0.1825
 2041SOL     MW 8164   7.234   8.657   1.185  0.1396  0.1826 -0.1277
 2042SOL     OW 8165   5.442   8.354   5.056 -0.1772  0.3678  0.2439
 2042SOL    HW1 8166   5.522   8.406   5.055  1.0628 -1.3678  2.1692
 2042SOL    HW2 8167   5.377   8.411   5.096  0.1777  1.6369 -0.9134
 2042SOL     MW 8168   5.444   8.368   5.061  0.0375  0.3050  0.3473
 2043SOL     OW 8169   5.067   9.252   8.432  0.0206 -0.1043  0.1681
 2043SOL    HW1 8170   5.126   9.319   8.397  0.3983 -1.2353 -1.4994
 2043SOL    HW2 8171   5.121   9.173   8.435 -1.0941 -0.9041 -0.3179
 2043SOL     MW 8172   5.083   9.250   8.427 -0.0786 -0.3642 -0.1217
 2044SOL     OW 8173   4.792   9.244   3.903 -0.0603 -0.1850 -0.5295
 2044SOL    HW1 8174   4.702   9.265   3.925  0.5051  1.0137  0.8326
 2044SOL    HW2 8175   4.809   9.160   3.946 -0.9578 -1.2219 -2.1116
 2044SOL     MW 8176   4.782   9.236   3.912 -0.1050 -0.1633 -0.5591
 2045SOL     OW 8177   3.773   9.194   4.693 -0.1052  0.3177 -0.0296
 2045SOL    HW1 8178   3.839   9.226   4.631  0.6800  0.3430  0.7885
 2045SOL    HW2 8179   3.715   9.269   4.707 -0.0105  0.4558 -0.3664
 2045SOL     MW 8180   3.774   9.209   4.687  0.0132  0.3397  0.0352
 2046SOL     OW 8181   7.344   9.722   3.673  0.1125  0.7845 -0.3164
 2046SOL    HW1 8182   7.353   9.654   3.607  0.5950  0.9395 -0.4142
 2046SOL    HW2 8183   7.340   9.804   3.623  0.9569  0.9415 -0.1326
 2046SOL     MW 8184   7.345   9.724   3.657  0.2910  0.8265 -0.3049
 2047SOL     OW 8185   7.157   9.527   4.520  0.7230 -0.2438 -0.0859
 2047SOL    HW1 8186   7.250   9.548   4.528  0.8459 -0.8762  0.2096
 2047SOL    HW2 8187   7.155   9.437   4.485  0.2286 -0.3830  0.2825
 2047SOL     MW 8188   7.169   9.517   4.516  0.6730 -0.3476  0.0035
 2048SOL     OW 8189   6.943   8.663   6.657  0.4486 -0.2662 -0.4423
 2048SOL    HW1 8190   7.011   8.675   6.724 -0.7483 -0.4602  0.8501
 2048SOL    HW2 8191   6.922   8.570   6.660  1.5533 -0.6113 -2.3034
 2048SOL     MW 8192   6.949   8.652   6.666  0.4362 -0.3387 -0.5188
 2049SOL     OW 8193   5.638   9.409   8.270  0.1600  0.6129 -0.4271
 2049SOL    HW1 8194   5.569   9.348   8.243 -0.7053  1.5224 -0.3212
 2049SOL    HW2 8195   5.604   9.449   8.350  0.9669  0.8365 -0.1854
 2049SOL     MW 8196   5.624   9.406   8.277  0.1522  0.7654 -0.3803
 2050SOL     OW 8197   4.812   8.569   0.546 -0.0007 -0.0332 -0.4310
 2050SOL    HW1 8198   4.769   8.549   0.463  1.1970  0.1324 -1.1270
 2050SOL    HW2 8199   4.873   8.640   0.524  0.4319 -0.0859  0.5588
 2050SOL     MW 8200   4.815   8.576   0.532  0.2187 -0.0180 -0.3914
 2051SOL     OW 8201   4.910   7.992   1.797 -0.0979 -0.5339  0.1512
 2051SOL    HW1 8202   4.823   7.955   1.780 -0.2219  0.0250 -0.4460
 2051SOL    HW2 8203   4.970   7.934   1.749 -0.2449 -0.2745 -0.3518
 2051SOL     MW 8204   4.906   7.979   1.788 -0.1344 -0.4238  0.0032
 2052SOL     OW 8205   5.745   8.629  -0.001 -0.3035  0.2647  0.5799
 2052SOL    HW1 8206   5.703   8.679   0.070 -0.2352  0.9135  0.1675
 2052SOL    HW2 8207   5.765   8.694  -0.068 -0.6077 -0.3838 -0.1583
 2052SOL     MW 8208   5.742   8.644  -0.000 -0.3353  0.2647  0.4251
 2053SOL     OW 8209   4.484   1.074   8.675 -0.3510  0.3010  0.9398
 2053SOL    HW1 8210   4.426   1.000   8.657  1.2097 -0.6826 -0.3242
 2053SOL    HW2 8211   4.537   1.047   8.750  0.1794  0.1473  0.5158
 2053SOL     MW 8212   4.483   1.061   8.683 -0.0696  0.1479  0.7127
 2054SOL     OW 8213   5.827   9.603   0.050  0.2300  0.7968  0.3258
 2054SOL    HW1 8214   5.901   9.647   0.092  0.3533  0.0929  0.8761
 2054SOL    HW2 8215   5.810   9.653  -0.029  0.7613  1.4566  0.6233
 2054SOL     MW 8216   5.835   9.615   0.045  0.3181  0.7909  0.4399
 2055SOL     OW 8217   6.162   9.359   0.057  0.1858 -0.6099  0.0517
 2055SOL    HW1 8218   6.080   9.386   0.015  0.9507  0.5731 -0.7326
 2055SOL    HW2 8219   6.222   9.341  -0.016  1.1560  0.2745  0.6003
 2055SOL     MW 8220   6.159   9.360   0.042  0.4193 -0.3317  0.0200
 2056SOL     OW 8221   4.699   1.507   6.894 -0.0561 -0.3342  0.3563
 2056SOL    HW1 8222   4.634   1.514   6.824  0.8304  0.7426 -0.3992
 2056SOL    HW2 8223   4.782   1.533   6.853  0.4812  0.3550  1.7927
 2056SOL     MW 8224   4.701   1.512   6.879  0.1355 -0.0965  0.4479
 2057SOL     OW 8225   5.805   1.925   1.578  0.3107  0.2060  0.0658
 2057SOL    HW1 8226   5.797   1.917   1.673 -0.3504  0.7901  0.0633
 2057SOL    HW2 8227   5.874   1.990   1.565  0.6128 -0.0948  0.1359
 2057SOL     MW 8228   5.813   1.933   1.589  0.2624  0.2441  0.0749
 2058SOL     OW 8229   5.872   7.715   0.512  0.1241  0.1397 -0.2235
 2058SOL    HW1 8230   5.887   7.626   0.544  0.8903 -0.3684 -1.8518
 2058SOL    HW2 8231   5.894   7.772   0.586 -0.6126 -1.0250  0.9151
 2058SOL     MW 8232   5.877   7.711   0.526  0.1281 -0.0854 -0.2894
 2059SOL     OW 8233   4.880   7.920   8.472  0.0158  0.1714 -0.0797
 2059SOL    HW1 8234   4.868   7.953   8.561  2.4697 -1.7273  1.0880
 2059SOL    HW2 8235   4.975   7.922   8.459 -0.2576  0.0795 -2.5731
 2059SOL     MW 8236   4.891   7.925   8.482  0.3092 -0.0965 -0.2581
 2060SOL     OW 8237   4.745   8.937   5.212  0.4923  0.1765  0.2975
 2060SOL    HW1 8238   4.690   8.990   5.269  0.8045 -0.8408  1.6216
 2060SOL    HW2 8239   4.684   8.884   5.161  0.2099  0.9544 -0.1784
 2060SOL     MW 8240   4.730   8.937   5.213  0.4963  0.1443  0.4116
 2061SOL     OW 8241   4.098   8.590   9.555  0.5868 -0.1405  0.2749
 2061SOL    HW1 8242   4.180   8.543   9.536 -0.2009 -1.4141 -0.1497
 2061SOL    HW2 8243   4.099   8.665   9.496  1.7907  0.2789  0.8123
 2061SOL     MW 8244   4.109   8.594   9.544  0.6428 -0.2555  0.2901
 2062SOL     OW 8245   7.734   0.018   2.613 -0.1143 -0.3292  0.4576
 2062SOL    HW1 8246   7.804   0.072   2.649 -0.4814  0.7453 -0.3774
 2062SOL    HW2 8247   7.734  -0.061   2.666  1.2714 -0.0427  0.9062
 2062SOL     MW 8248   7.743   0.015   2.625  0.0228 -0.1461  0.4056
 2063SOL     OW 8249   6.313   0.523   0.259  0.2773 -0.2478 -0.2140
 2063SOL    HW1 8250   6.379   0.535   0.191 -1.3718  0.3877 -1.7967
 2063SOL    HW2 8251   6.273   0.438   0.240  0.1610 -0.3072  0.2845
 2063SOL     MW 8252   6.317   0.513   0.247  0.0397 -0.1703 -0.3599
 2064SOL     OW 8253   5.790   9.514   0.825 -0.0359  0.4353  0.2810
 2064SOL    HW1 8254   5.840   9.547   0.751 -0.7014  1.2523  0.1853
 2064SOL    HW2 8255   5.833   9.432   0.849  0.7829  0.6681 -0.3748
 2064SOL     MW 8256   5.802   9.507   0.819 -0.0153  0.5766  0.1799
 2065SOL     OW 8257   7.568   0.277   7.410  0.3329 -0.3896 -0.0923
 2065SOL    HW1 8258   7.634   0.208   7.416  2.1691  1.3617  1.3837
 2065SOL    HW2 8259   7.618   0.358   7.409 -1.7764  0.9928 -0.6747
 2065SOL     MW 8260   7.583   0.278   7.410  0.2961  0.0321  0.0280
 2066SOL     OW 8261   6.434   0.909   8.578 -0.0826 -0.1382  0.4491
 2066SOL    HW1 8262   6.339   0.897   8.590 -0.2381  0.3831 -0.1909
 2066SOL    HW2 8263   6.473   0.870   8.656 -0.6887 -2.4939 -0.3301
 2066SOL     MW 8264   6.426   0.902   8.590 -0.1851 -0.3851  0.2581
 2067SOL     OW 8265   7.085   9.073   7.441 -0.4557 -0.1962 -0.6906
 2067SOL    HW1 8266   7.160   9.112   7.396  0.7433  0.6211  1.8302
 2067SOL    HW2 8267   7.096   8.979   7.430 -0.1792 -0.0269 -1.9934
 2067SOL     MW 8268   7.096   9.066   7.434 -0.2571 -0.0634 -0.5267
 2068SOL     OW 8269   4.149   8.869   0.976  0.0782 -0.4126  0.2486
 2068SOL    HW1 8270   4.059   8.897   0.961  0.0689 -0.0403  0.9443
 2068SOL    HW2 8271   4.144   8.774   0.986 -0.3246 -0.3225  0.9086
 2068SOL     MW 8272   4.136   8.860   0.975  0.0227 -0.3504  0.4310
 2069SOL     OW 8273   4.735   0.457   1.389  0.0870 -0.1794 -0.3165
 2069SOL    HW1 8274   4.713   0.398   1.317  0.9578 -1.5133  0.4525
 2069SOL    HW2 8275   4.831   0.457   1.391  0.1365  1.8926 -0.7562
 2069SOL     MW 8276   4.745   0.449   1.379  0.2109 -0.0801 -0.2722
 2070SOL     OW 8277   7.405   9.600   6.919 -0.3272  0.3124  0.7475
 2070SOL    HW1 8278   7.319   9.569   6.892  0.5828 -1.0821 -0.7742
 2070SOL    HW2 8279   7.445   9.633   6.838  0.9472 -0.0662  1.1839
 2070SOL     MW 8280   7.399   9.600   6.904 -0.0332  0.0738  0.6014
 2071SOL     OW 8281   5.290   9.494   6.653  0.6271 -0.2377 -0.1924
 2071SOL    HW1 8282   5.362   9.547   6.687  0.4048  0.8654 -1.3315
 2071SOL    HW2 8283   5.219   9.507   6.716  0.9951 -0.2328  0.2249
 2071SOL     MW 8284   5.290   9.503   6.666  0.6467 -0.0886 -0.2896
 2072SOL     OW 8285   7.872   9.031   9.095 -0.0972 -0.5315  0.4227
 2072SOL    HW1 8286   7.841   9.120   9.110  0.5730 -0.2614  0.2443
 2072SOL    HW2 8287   7.890   8.997   9.183  1.0574  0.0376  0.4312
 2072SOL     MW 8288   7.871   9.038   9.109  0.1484 -0.4186  0.3998
 2073SOL     OW 8289   4.179   8.792   3.936  0.1662 -0.1826 -0.5163
 2073SOL    HW1 8290   4.201   8.810   4.028 -1.3983 -3.0347  0.5427
 2073SOL    HW2 8291   4.264   8.785   3.893  1.0091 -0.3398  1.0710
 2073SOL     MW 8292   4.193   8.794   3.943  0.0691 -0.5876 -0.1601
 2074SOL     OW 8293   6.834   8.428   2.894 -0.0983 -0.5049  0.0461
 2074SOL    HW1 8294   6.870   8.375   2.823  0.8471  0.4365 -0.2144
 2074SOL    HW2 8295   6.746   8.451   2.864  0.2454 -0.2187 -0.7868
 2074SOL     MW 8296   6.827   8.424   2.881  0.0752 -0.3397 -0.1010
 2075SOL     OW 8297   7.192   0.533   7.091 -0.2636 -0.0739  0.0738
 2075SOL    HW1 8298   7.131   0.577   7.151 -0.5237  0.7334 -0.7516
 2075SOL    HW2 8299   7.278   0.562   7.119 -0.4444  1.2174 -0.6123
 2075SOL     MW 8300   7.195   0.543   7.103 -0.3229  0.2085 -0.1297
 2076SOL     OW 8301   5.661   9.723   6.117 -0.6387  0.0493 -0.4835
 2076SOL    HW1 8302   5.721   9.653   6.091  1.0874  0.9335  0.8593
 2076SOL    HW2 8303   5.604   9.684   6.182  0.6506 -0.0406  0.6402
 2076SOL     MW 8304   5.662   9.708   6.122 -0.2328  0.1562 -0.1515
 2077SOL     OW 8305   7.284   0.514   9.792  0.8667  0.1992 -0.3035
 2077SOL    HW1 8306   7.208   0.458   9.778  0.5470  0.7865 -0.9730
 2077SOL    HW2 8307   7.328   0.476   9.868 -0.3731  0.1391  0.4153
 2077SOL     MW 8308   7.280   0.501   9.801  0.6568  0.2701 -0.2968
 2078SOL     OW 8309   4.744   8.162   6.765  0.1781  0.3316 -0.1894
 2078SOL    HW1 8310   4.745   8.159   6.861  1.4576 -0.1254 -0.1974
 2078SOL    HW2 8311   4.829   8.126   6.739 -0.2733  0.1663 -1.5090
 2078SOL     MW 8312   4.756   8.157   6.774  0.2896  0.2478 -0.3681
 2079SOL     OW 8313   7.945   0.357   6.747 -0.6202 -0.3564  0.1295
 2079SOL    HW1 8314   7.988   0.271   6.743 -0.3805 -0.3226  1.4776
 2079SOL    HW2 8315   7.992   0.404   6.816 -0.2525  1.1595 -1.1074
 2079SOL     MW 8316   7.957   0.352   6.756 -0.5385 -0.1479  0.1445
 2080SOL     OW 8317   5.728   9.844   4.721  0.0973 -0.0528 -0.1242
 2080SOL    HW1 8318   5.761   9.755   4.731 -0.5046 -0.2135  0.4940
 2080SOL    HW2 8319   5.665   9.855   4.793 -0.5653  0.5285 -0.7714
 2080SOL     MW 8320   5.724   9.833   4.732 -0.0729  0.0038 -0.1281
 2081SOL     OW 8321   4.022   0.082   6.747  0.0401 -0.0138 -0.6711
 2081SOL    HW1 8322   3.994   0.026   6.674  1.8040 -0.1421 -1.3147
 2081SOL    HW2 8323   4.042   0.021   6.818 -0.1705 -0.0198 -0.6173
 2081SOL     MW 8324   4.021   0.066   6.746  0.2491 -0.0319 -0.7505
 2082SOL     OW 8325   5.936   9.456   8.006  0.0292 -0.0788  0.0847
 2082SOL    HW1 8326   5.969   9.546   8.002  1.1344 -0.3321  2.2361
 2082SOL    HW2 8327   5.990   9.408   7.944 -0.2338  0.6231 -0.7134
 2082SOL     MW 8328   5.948   9.462   7.997  0.1425 -0.0184  0.2668
 2083SOL     OW 8329   4.888   7.815   2.241  0.3489 -0.0893 -0.1046
 2083SOL    HW1 8330   4.793   7.826   2.236  0.0683 -1.7895  0.6346
 2083SOL    HW2 8331   4.904   7.784   2.331  1.5756  0.0245 -0.2692
 2083SOL     MW 8332   4.878   7.812   2.253  0.4762 -0.3028 -0.0273
 2084SOL     OW 8333   4.165   8.525   0.664  0.1892 -0.1967  0.1974
 2084SOL    HW1 8334   4.099   8.480   0.611 -0.1643  1.1113 -0.4969
 2084SOL    HW2 8335   4.187   8.603   0.615  1.1352  0.1751  1.1686
 2084SOL     MW 8336   4.159   8.529   0.650  0.2689  0.0294  0.2347
 2085SOL     OW 8337   6.953   9.044   6.952  0.1912  0.6510  0.1484
 2085SOL    HW1 8338   6.917   9.056   6.864 -0.6862  1.5801  0.6107
 2085SOL    HW2 8339   7.043   9.077   6.945  0.3617  0.0785 -0.5510
 2085SOL     MW 8340   6.960   9.050   6.939  0.0961  0.6990  0.1165
 2086SOL     OW 8341   4.474   0.539   3.805  0.0980  0.3508 -0.0701
 2086SOL    HW1 8342   4.523   0.500   3.733 -1.2453 -0.4462 -0.5796
 2086SOL    HW2 8343   4.528   0.523   3.882  0.6547 -0.4681 -0.6155
 2086SOL     MW 8344   4.488   0.532   3.806 -0.0078  0.1334 -0.2121
 2087SOL     OW 8345   4.816   9.460   7.106 -0.0915  0.8664  0.0562
 2087SOL    HW1 8346   4.736   9.460   7.053  0.4477  0.4511 -0.7699
 2087SOL    HW2 8347   4.794   9.408   7.183 -0.7195  1.0393 -0.0023
 2087SOL     MW 8348   4.802   9.453   7.110 -0.1035  0.8337 -0.0628
 2088SOL     OW 8349   7.644   8.827   0.052  0.2592 -0.1596  0.1160
 2088SOL    HW1 8350   7.689   8.893   0.000  0.0327  0.2076  0.3875
 2088SOL    HW2 8351   7.615   8.762  -0.013  1.9548 -0.8867  0.0262
 2088SOL     MW 8352   7.646   8.827   0.036  0.4569 -0.2080  0.1405
 2089SOL     OW 8353   5.612   8.496   2.132 -0.0429  0.2627 -0.1952
 2089SOL    HW1 8354   5.644   8.531   2.049  1.1902  2.0557  0.9591
 2089SOL    HW2 8355   5.670   8.534   2.198 -0.4460 -1.7685  1.4498
 2089SOL     MW 8356   5.625   8.506   2.130  0.0688  0.2306  0.1815
 2090SOL     OW 8357   7.955   0.825   6.337  0.6518 -0.2944  0.3710
 2090SOL    HW1 8358   7.956   0.805   6.243 -0.6793 -1.2981  0.5377
 2090SOL    HW2 8359   7.999   0.751   6.378 -2.0319 -1.8226  0.7814
 2090SOL     MW 8360   7.961   0.813   6.330  0.1115 -0.6352  0.4487
 2091SOL     OW 8361   4.577   8.092   3.455 -0.0553  0.4597  0.5501
 2091SOL    HW1 8362   4.572   8.122   3.365 -0.2541  0.1707  0.4641
 2091SOL    HW2 8363   4.584   7.997   3.449 -1.6583  0.2989  0.8680
 2091SOL     MW 8364   4.577   8.083   3.442 -0.2978  0.3992  0.5813
 2092SOL     OW 8365   6.541   9.690   0.180  0.0743 -0.3193  0.5796
 2092SOL    HW1 8366   6.580   9.682   0.267  1.0505 -0.7470  0.1169
 2092SOL    HW2 8367   6.451   9.662   0.192 -1.0204  3.2405  2.2599
 2092SOL     MW 8368   6.534   9.685   0.193  0.0584  0.1022  0.7435
 2093SOL     OW 8369   6.214   0.271  10.128 -0.2389 -0.2611  0.0143
 2093SOL    HW1 8370   6.271   0.199  10.102  1.6208  1.3870 -0.7399
 2093SOL    HW2 8371   6.215   0.270  10.224  0.8253 -0.4750  0.0118
 2093SOL     MW 8372   6.222   0.261  10.137  0.1546 -0.0681 -0.0875
 2094SOL     OW 8373   5.175   1.198   6.719 -0.4191 -0.0724  0.6641
 2094SOL    HW1 8374   5.082   1.207   6.737 -0.5488 -0.6143  0.2722
 2094SOL    HW2 8375   5.180   1.172   6.627 -0.0001 -2.2739  1.2640
 2094SOL     MW 8376   5.163   1.196   6.709 -0.3802 -0.4416  0.6921
 2095SOL     OW 8377   6.955   0.218   0.551  0.3900 -0.5667  0.5926
 2095SOL    HW1 8378   6.877   0.164   0.538  0.5744 -0.5292 -0.7306
 2095SOL    HW2 8379   7.005   0.171   0.618  0.6590 -2.2028 -0.6828
 2095SOL     MW 8380   6.951   0.204   0.558  0.4510 -0.7818  0.2429
 2096SOL     OW 8381   7.253   8.813   5.557  0.3887  0.4112 -0.0908
 2096SOL    HW1 8382   7.253   8.837   5.464 -0.8280 -0.6326 -0.3972
 2096SOL    HW2 8383   7.322   8.747   5.565 -1.1915 -1.4595 -0.8729
 2096SOL     MW 8384   7.262   8.807   5.545  0.0123  0.0189 -0.2373
 2097SOL     OW 8385   7.826   0.528   6.554 -0.1709 -0.0020  0.4521
 2097SOL    HW1 8386   7.877   0.481   6.620  0.5896  1.6614  1.0935
 2097SOL    HW2 8387   7.769   0.586   6.605  1.3251  2.2467 -0.2905
 2097SOL     MW 8388   7.825   0.529   6.570  0.1328  0.5245  0.4385
 2098SOL     OW 8389   3.695   0.312   6.326 -0.5608  0.6320  0.1902
 2098SOL    HW1 8390   3.605   0.326   6.355 -0.5173  0.7710  0.2591
 2098SOL    HW2 8391   3.687   0.264   6.244 -0.7514  2.2979 -0.8021
 2098SOL     MW 8392   3.682   0.307   6.319 -0.5806  0.8749  0.0659
 2099SOL     OW 8393   6.188   9.870   5.051 -0.5868  0.3119 -1.2039
 2099SOL    HW1 8394   6.223   9.877   4.962  1.3772 -1.5862 -0.6562
 2099SOL    HW2 8395   6.220   9.948   5.096  0.6048  0.0141 -1.4996
 2099SOL     MW 8396   6.197   9.881   5.045 -0.1621  0.0163 -1.1700
 2100SOL     OW 8397   6.495   0.734   5.287 -0.3024  0.3857  0.3481
 2100SOL    HW1 8398   6.496   0.829   5.296  1.6521  0.4161  0.4215
 2100SOL    HW2 8399   6.543   0.703   5.364 -0.4358 -0.6140  0.0355
 2100SOL     MW 8400   6.502   0.743   5.299 -0.0573  0.2553  0.3159
 2101SOL     OW 8401   4.773   8.431   5.682  0.8327  0.3629  0.0781
 2101SOL    HW1 8402   4.684   8.418   5.715  1.0431 -0.8930  0.2208
 2101SOL    HW2 8403   4.768   8.406   5.589  0.8182  1.3167 -0.1881
 2101SOL     MW 8404   4.760   8.426   5.674  0.8590  0.3223  0.0615
 2102SOL     OW 8405   6.414   8.307   2.881 -0.1647  0.0596 -0.1940
 2102SOL    HW1 8406   6.479   8.367   2.846  1.2008 -0.7645  0.7993
 2102SOL    HW2 8407   6.427   8.226   2.831  0.0386 -0.3070  0.4383
 2102SOL     MW 8408   6.425   8.304   2.870  0.0464 -0.1007  0.0247
 2103SOL     OW 8409   7.511   9.555   7.866  0.1050 -0.5048  0.3002
 2103SOL    HW1 8410   7.529   9.525   7.777 -0.8657 -0.4309  0.0674
 2103SOL    HW2 8411   7.449   9.491   7.901  0.3296 -0.4264  0.8579
 2103SOL     MW 8412   7.505   9.542   7.859  0.0046 -0.4843  0.3439
 2104SOL     OW 8413   6.581   9.635   4.491 -0.7619 -0.2230  0.1077
 2104SOL    HW1 8414   6.647   9.659   4.426  0.5175 -1.8483  0.7179
 2104SOL    HW2 8415   6.593   9.698   4.562 -0.7637  0.2891 -0.3418
 2104SOL     MW 8416   6.592   9.647   4.492 -0.5899 -0.3728  0.1293
 2105SOL     OW 8417   5.334   8.957   0.084  0.3585  0.3371  0.3551
 2105SOL    HW1 8418   5.418   8.980   0.123  1.1257 -0.6470 -0.6560
 2105SOL    HW2 8419   5.269   8.997   0.142  1.5026  0.7881  1.3704
 2105SOL     MW 8420   5.336   8.965   0.097  0.6157  0.2653  0.3556
 2106SOL     OW 8421   3.833   9.901   4.555 -0.0410 -0.1805 -0.3205
 2106SOL    HW1 8422   3.852   9.855   4.473 -0.1351  0.6271 -0.8131
 2106SOL    HW2 8423   3.786   9.837   4.608  1.5560 -1.2931 -0.1941
 2106SOL     MW 8424   3.829   9.886   4.551  0.1612 -0.2216 -0.3698
 2107SOL     OW 8425   5.887   9.398   2.833 -0.3109  0.6235  0.0644
 2107SOL    HW1 8426   5.915   9.417   2.744  0.0097 -0.6721 -0.1221
 2107SOL    HW2 8427   5.791   9.406   2.831 -0.3552 -0.0112 -0.5513
 2107SOL     MW 8428   5.878   9.402   2.821 -0.2737  0.3637 -0.0436
 2108SOL     OW 8429   4.806   8.396   6.105  0.0950  0.2218 -0.0415
 2108SOL    HW1 8430   4.832   8.350   6.026  2.9953  0.3146  0.7371
 2108SOL    HW2 8431   4.815   8.489   6.082  2.1123  0.2496  0.6425
 2108SOL     MW 8432   4.811   8.403   6.091  0.7568  0.2380  0.1553
 2109SOL     OW 8433   6.843   8.032   3.104  0.1008  0.1301  0.5516
 2109SOL    HW1 8434   6.865   8.124   3.100  0.3176  0.0894  0.8000
 2109SOL    HW2 8435   6.901   7.990   3.040 -0.8702  0.3305 -0.4809
 2109SOL     MW 8436   6.854   8.038   3.095 -0.0007  0.1516  0.4461
 2110SOL     OW 8437   6.208   1.102   6.709  0.3055  0.1158  0.5339
 2110SOL    HW1 8438   6.281   1.104   6.647  0.4290  0.9912  0.6854
 2110SOL    HW2 8439   6.250   1.087   6.794  0.1703 -0.7373  0.4577
 2110SOL     MW 8440   6.224   1.100   6.712  0.3039  0.1188  0.5440
 2111SOL     OW 8441   6.158   8.933   1.562 -0.1686  0.1977  0.2087
 2111SOL    HW1 8442   6.157   8.897   1.473  0.6802 -0.9634  0.6359
 2111SOL    HW2 8443   6.073   8.909   1.599  0.3051 -1.2600  0.4168
 2111SOL     MW 8444   6.147   8.925   1.555  0.0094 -0.1547  0.2942
 2112SOL     OW 8445   4.644   7.928  10.150  0.2496 -0.4083  0.2955
 2112SOL    HW1 8446   4.691   7.889  10.076 -0.9856 -1.7801  0.1860
 2112SOL    HW2 8447   4.713   7.965  10.205  1.5788 -2.8059  0.3950
 2112SOL     MW 8448   4.660   7.927  10.147  0.2622 -0.9155  0.2942
 2113SOL     OW 8449   6.966   0.505   3.221  0.1495  0.1019  0.4662
 2113SOL    HW1 8450   6.912   0.500   3.301 -0.9972 -2.9950 -0.3512
 2113SOL    HW2 8451   6.902   0.502   3.150  1.2576  0.7214 -0.5724
 2113SOL     MW 8452   6.950   0.504   3.222  0.1443 -0.2315  0.2164
 2114SOL     OW 8453   7.544   1.027   8.339  0.4444 -0.0966  0.8799
 2114SOL    HW1 8454   7.516   0.973   8.412  1.3471 -1.6329  0.1550
 2114SOL    HW2 8455   7.580   0.965   8.276  0.2267  1.2296 -0.6266
 2114SOL     MW 8456   7.545   1.012   8.340  0.5366 -0.1249  0.5796
 2115SOL     OW 8457   6.558   1.873   6.531 -0.5326  0.3800  0.0117
 2115SOL    HW1 8458   6.549   1.794   6.478  0.6125 -0.3370  0.8297
 2115SOL    HW2 8459   6.469   1.908   6.537 -1.1624 -1.1297  0.0432
 2115SOL     MW 8460   6.545   1.867   6.525 -0.4633  0.0804  0.1260
 2116SOL     OW 8461   7.770   0.473   7.711 -0.1369 -0.5611 -0.2172
 2116SOL    HW1 8462   7.746   0.488   7.803 -0.2499  1.1774 -0.5123
 2116SOL    HW2 8463   7.687   0.477   7.663  0.2723  2.1396 -0.8164
 2116SOL     MW 8464   7.756   0.475   7.717 -0.0970  0.0363 -0.3376
 2117SOL     OW 8465   4.965   8.480   4.064  0.1756 -0.2154  0.2657
 2117SOL    HW1 8466   4.993   8.392   4.039  0.4004 -0.0023 -0.2458
 2117SOL    HW2 8467   4.930   8.469   4.153 -0.0314 -0.8666  0.1178
 2117SOL     MW 8468   4.964   8.466   4.073  0.1780 -0.2743  0.1769
 2118SOL     OW 8469   6.853   1.656   5.283 -0.6606 -0.0266  0.2698
 2118SOL    HW1 8470   6.775   1.673   5.230 -0.3756  0.7718  0.0861
 2118SOL    HW2 8471   6.907   1.734   5.271 -0.1203 -0.2936  0.9060
 2118SOL     MW 8472   6.849   1.669   5.274 -0.5495  0.0449  0.3307
 2119SOL     OW 8473   4.439   0.804   0.124  0.2479 -0.5682 -0.4340
 2119SOL    HW1 8474   4.354   0.762   0.109  0.5889 -0.9381 -1.4280
 2119SOL    HW2 8475   4.471   0.825   0.036  0.9903 -0.0332 -0.0468
 2119SOL     MW 8476   4.432   0.801   0.110  0.3937 -0.5460 -0.5157
 2120SOL     OW 8477   5.076   1.891   7.725  0.2517 -0.0368 -0.6405
 2120SOL    HW1 8478   5.023   1.816   7.699  1.6451 -1.0979 -0.5590
 2120SOL    HW2 8479   5.144   1.897   7.658  1.1972  0.0357  0.2983
 2120SOL     MW 8480   5.078   1.882   7.713  0.5664 -0.1699 -0.5032
 2121SOL     OW 8481   6.738   1.619   7.860  0.0541 -0.4917  0.0792
 2121SOL    HW1 8482   6.675   1.682   7.894  0.3231 -0.1677 -0.0141
 2121SOL    HW2 8483   6.746   1.554   7.929  0.4989  0.0946  0.5895
 2121SOL     MW 8484   6.731   1.619   7.874  0.1501 -0.3692  0.1353
 2122SOL     OW 8485   5.732   9.185   4.062  0.4965  0.0294  0.4622
 2122SOL    HW1 8486   5.750   9.222   3.975  1.4477  1.5184  1.2464
 2122SOL    HW2 8487   5.675   9.249   4.104 -0.6175 -1.0727  0.6710
 2122SOL     MW 8488   5.727   9.199   4.056  0.4746  0.0815  0.5959
 2123SOL     OW 8489   7.682   8.406   7.644  0.1289 -0.3037 -0.1305
 2123SOL    HW1 8490   7.651   8.412   7.553 -0.2737 -0.8556 -0.0307
 2123SOL    HW2 8491   7.764   8.356   7.638  0.2399 -0.1119 -0.2191
 2123SOL     MW 8492   7.689   8.400   7.631  0.0896 -0.3522 -0.1290
 2124SOL     OW 8493   7.012   9.906   8.135 -0.2927  0.7146 -0.5220
 2124SOL    HW1 8494   7.061   9.912   8.053  1.1643 -1.6190  0.0805
 2124SOL    HW2 8495   6.965   9.822   8.128 -0.1199  0.4716  1.0049
 2124SOL     MW 8496   7.012   9.895   8.123 -0.0733  0.3678 -0.2354
 2125SOL     OW 8497   5.128   0.156   1.251 -0.7453  0.3978  0.1750
 2125SOL    HW1 8498   5.126   0.125   1.342 -0.5249  0.1809  0.1040
 2125SOL    HW2 8499   5.041   0.136   1.217 -0.7488  0.2629  0.2646
 2125SOL     MW 8500   5.116   0.149   1.259 -0.7161  0.3505  0.1775
 2126SOL     OW 8501   5.661   9.195   9.526  0.8227 -0.2089  0.8214
 2126SOL    HW1 8502   5.706   9.238   9.454  0.4276 -0.5022  0.3949
 2126SOL    HW2 8503   5.659   9.261   9.596  1.2991  0.0391  0.6047
 2126SOL     MW 8504   5.666   9.209   9.526  0.8337 -0.2150  0.7348
 2127SOL     OW 8505   5.015   8.213   3.984 -0.4960 -0.2973  0.1364
 2127SOL    HW1 8506   4.971   8.265   3.917  0.6659  1.1945  0.4853
 2127SOL    HW2 8507   5.089   8.173   3.938 -0.1929  0.0317  0.3379
 2127SOL     MW 8508   5.019   8.215   3.968 -0.2988 -0.0523  0.2105
 2128SOL     OW 8509   7.888   9.998   8.518 -0.0544 -0.8528  0.0023
 2128SOL    HW1 8510   7.829   9.943   8.571 -0.7926 -1.3928 -1.3241
 2128SOL    HW2 8511   7.934   9.936   8.462  2.1818 -0.4808  1.3340
 2128SOL     MW 8512   7.886   9.982   8.518  0.1472 -0.8754  0.0030
 2129SOL     OW 8513   5.309   8.511   7.321 -0.2180  0.0585  0.1351
 2129SOL    HW1 8514   5.338   8.497   7.230 -0.9373  0.1782 -0.1157
 2129SOL    HW2 8515   5.360   8.448   7.372 -0.4196 -0.5972 -0.4586
 2129SOL     MW 8516   5.320   8.501   7.316 -0.3419 -0.0136  0.0214
 2130SOL     OW 8517   4.984   9.080   1.812 -0.1527  0.5606  0.0913
 2130SOL    HW1 8518   5.066   9.079   1.861 -1.2156  1.7583  2.0159
 2130SOL    HW2 8519   5.002   9.028   1.733  2.5719  1.2186  0.1953
 2130SOL     MW 8520   4.997   9.073   1.808  0.0709  0.8103  0.3643
 2131SOL     OW 8521   4.448   0.222   8.458 -0.8173  0.5487  0.5841
 2131SOL    HW1 8522   4.437   0.214   8.553 -0.1112 -1.1723  0.5600
 2131SOL    HW2 8523   4.490   0.140   8.432  1.0526  1.9076 -0.9220
 2131SOL     MW 8524   4.452   0.210   8.467 -0.4706  0.4999  0.3782
 2132SOL     OW 8525   7.211   1.034   1.376 -0.3658  0.0573 -0.5320
 2132SOL    HW1 8526   7.297   1.075   1.372 -0.6552  0.8144  0.3876
 2132SOL    HW2 8527   7.199   0.992   1.291  0.4806  0.8225 -1.0372
 2132SOL     MW 8528   7.221   1.034   1.364 -0.2908  0.2622 -0.4763
 2133SOL     OW 8529   6.620   8.903   2.766  0.0827  0.5689  0.0429
 2133SOL    HW1 8530   6.671   8.874   2.841  2.1403  0.7453 -1.2245
 2133SOL    HW2 8531   6.639   8.996   2.758 -0.2677  0.5924 -0.6003
 2133SOL     MW 8532   6.629   8.912   2.775  0.3125  0.5958 -0.2142
 2134SOL     OW 8533   4.905   7.905   6.699 -0.4775 -0.0928 -0.2465
 2134SOL    HW1 8534   4.861   7.869   6.776 -0.3280 -0.6644 -0.4242
 2134SOL    HW2 8535   4.838   7.907   6.632 -0.6579  0.5849 -0.0523
 2134SOL     MW 8536   4.890   7.900   6.701 -0.4816 -0.0785 -0.2443
 2135SOL     OW 8537   5.827   7.711   7.803  0.2513 -0.0777 -0.1055
 2135SOL    HW1 8538   5.857   7.794   7.766  0.3654 -0.9588 -2.1210
 2135SOL    HW2 8539   5.907   7.658   7.811 -0.1779 -1.0927 -1.9151
 2135SOL     MW 8540   5.842   7.715   7.799  0.2089 -0.3329 -0.6203
 2136SOL     OW 8541   6.236   7.673   8.558  0.2294 -0.0281 -0.2746
 2136SOL    HW1 8542   6.225   7.614   8.632 -0.9707  0.8321  0.2631
 2136SOL    HW2 8543   6.154   7.723   8.554 -0.1218 -0.6402 -2.7288
 2136SOL     MW 8544   6.223   7.672   8.567  0.0206  0.0053 -0.5325
 2137SOL     OW 8545   7.304   9.427   0.936  0.2804  0.2678 -0.3960
 2137SOL    HW1 8546   7.320   9.415   0.842  1.2450  1.7553 -0.4580
 2137SOL    HW2 8547   7.368   9.493   0.963  0.3344 -0.4864  1.4236
 2137SOL     MW 8548   7.315   9.434   0.927  0.4175  0.3665 -0.1595
 2138SOL     OW 8549   4.785   8.115   0.425  0.0481  0.3390 -0.1872
 2138SOL    HW1 8550   4.711   8.171   0.450  0.8540  1.1513  0.4416
 2138SOL    HW2 8551   4.792   8.051   0.496 -0.3710 -0.0691 -0.5078
 2138SOL     MW 8552   4.776   8.114   0.438  0.1002  0.3934 -0.1457
 2139SOL     OW 8553   5.118   9.575   2.149 -0.4666 -0.2148  0.5832
 2139SOL    HW1 8554   5.186   9.510   2.162  0.3550  0.8610  1.8429
 2139SOL    HW2 8555   5.134   9.642   2.215 -2.1040  0.6081  0.2208
 2139SOL     MW 8556   5.129   9.575   2.159 -0.5764  0.0407  0.7040
 2140SOL     OW 8557   4.789   7.831   9.905 -0.2681 -0.2250  0.0445
 2140SOL    HW1 8558   4.791   7.900   9.838 -1.3600 -0.2882 -0.0711
 2140SOL    HW2 8559   4.753   7.755   9.860  1.0899 -0.9553  0.1248
 2140SOL     MW 8560   4.785   7.830   9.890 -0.2323 -0.3318  0.0398
 2141SOL     OW 8561   4.801   1.062   5.662 -0.6759 -0.0275  0.2619
 2141SOL    HW1 8562   4.775   1.104   5.580  2.4830  0.3804 -0.6639
 2141SOL    HW2 8563   4.788   1.130   5.728  1.5553  1.5432 -0.7713
 2141SOL     MW 8564   4.796   1.077   5.660  0.0495  0.2388 -0.0017
 2142SOL     OW 8565   7.336   1.010   6.423 -0.0236 -0.2838 -0.1723
 2142SOL    HW1 8566   7.270   1.061   6.470  1.6399  2.4386 -0.5861
 2142SOL    HW2 8567   7.285   0.955   6.363 -1.9557  0.2186  0.9046
 2142SOL     MW 8568   7.320   1.009   6.422 -0.0598  0.1502 -0.0830
 2143SOL     OW 8569   5.459   1.721   7.635 -0.1428 -0.0067  0.0147
 2143SOL    HW1 8570   5.413   1.801   7.608  1.0698  0.0501 -1.9870
 2143SOL    HW2 8571   5.395   1.651   7.621 -0.1376  0.2416 -1.2971
 2143SOL     MW 8572   5.444   1.722   7.630  0.0211  0.0343 -0.4313
 2144SOL     OW 8573   4.740   9.494   6.454 -0.1269  0.0621 -0.3353
 2144SOL    HW1 8574   4.688   9.437   6.511 -1.9635  1.1021 -0.9107
 2144SOL    HW2 8575   4.693   9.494   6.371  1.6630 -0.1814 -1.3935
 2144SOL     MW 8576   4.727   9.486   6.450 -0.1331  0.1693 -0.5552
 2145SOL     OW 8577   6.130   0.052   5.628 -1.0109 -0.3657 -0.0065
 2145SOL    HW1 8578   6.219   0.083   5.617 -0.9667 -0.6431 -0.4489
 2145SOL    HW2 8579   6.126   0.020   5.718 -0.0482 -2.2781 -0.5871
 2145SOL     MW 8580   6.141   0.051   5.639 -0.8754 -0.6604 -0.1442
 2146SOL     OW 8581   7.120   8.460   2.479  0.2872 -0.3952  0.5222
 2146SOL    HW1 8582   7.196   8.435   2.531 -0.8067  1.5879  3.3523
 2146SOL    HW2 8583   7.155   8.516   2.409  1.5055  0.0291  1.4488
 2146SOL     MW 8584   7.135   8.464   2.476  0.3039 -0.0712  1.0278
 2147SOL     OW 8585   7.752   0.516   7.356  0.0017 -0.4191  0.0563
 2147SOL    HW1 8586   7.697   0.594   7.366  0.5357  0.1424 -1.1205
 2147SOL    HW2 8587   7.841   0.547   7.374  0.2360 -0.7167 -0.5534
 2147SOL     MW 8588   7.756   0.531   7.360  0.1051 -0.3836 -0.1841
 2148SOL     OW 8589   4.465   9.839   4.732  0.2237 -0.0323  0.0534
 2148SOL    HW1 8590   4.543   9.814   4.781 -1.1965  0.0523  2.5254
 2148SOL    HW2 8591   4.420   9.757   4.715 -0.7757  0.1543  1.6309
 2148SOL     MW 8592   4.469   9.825   4.736 -0.1019  0.0042  0.5984
 2149SOL     OW 8593   5.390   1.420   1.207 -0.0850 -0.0122  0.1418
 2149SOL    HW1 8594   5.356   1.382   1.288  1.9823 -1.5356  0.3828
 2149SOL    HW2 8595   5.469   1.467   1.234  0.3769 -0.1530 -0.9266
 2149SOL     MW 8596   5.396   1.421   1.222  0.2554 -0.2362  0.0304
 2150SOL     OW 8597   6.875   9.875   6.707 -0.0072 -0.4444 -0.5351
 2150SOL    HW1 8598   6.813   9.885   6.634 -1.7568 -0.6309  0.8332
 2150SOL    HW2 8599   6.922   9.958   6.711 -2.2796  0.9042  0.1578
 2150SOL     MW 8600   6.873   9.887   6.698 -0.5485 -0.2880 -0.2577
 2151SOL     OW 8601   3.901   0.191   0.805 -0.8861 -0.3254  0.2137
 2151SOL    HW1 8602   3.863   0.231   0.883  0.5723  1.2390  0.1791
 2151SOL    HW2 8603   3.911   0.099   0.827 -1.7713 -0.1615  1.3535
 2151SOL     MW 8604   3.898   0.184   0.818 -0.8090 -0.0928  0.3624
 2152SOL     OW 8605   3.807   8.892   1.773 -0.4342  0.0379  0.2451
 2152SOL    HW1 8606   3.728   8.929   1.735 -0.1655  0.4925  0.1129
 2152SOL    HW2 8607   3.854   8.854   1.698  0.5745  1.8103 -0.0831
 2152SOL     MW 8608   3.803   8.892   1.758 -0.2623  0.3376  0.1832
 2153SOL     OW 8609   5.135   0.769   8.369 -0.0969 -0.0227 -1.0382
 2153SOL    HW1 8610   5.075   0.722   8.427  0.1210  1.3027  0.3065
 2153SOL    HW2 8611   5.187   0.700   8.328 -1.9176 -1.1464 -1.5693
 2153SOL     MW 8612   5.134   0.754   8.371 -0.3126  0.0045 -0.9287
 2154SOL     OW 8613   5.034   7.973   9.154 -0.4441  0.3441 -0.2867
 2154SOL    HW1 8614   5.124   7.972   9.123 -0.6945  0.1987 -1.0250
 2154SOL    HW2 8615   5.040   7.949   9.246  0.2698  0.3334 -0.3332
 2154SOL     MW 8616   5.047   7.969   9.162 -0.3817  0.3231 -0.3923
 2155SOL     OW 8617   6.582   0.147   9.689  0.0042  0.7761 -0.5675
 2155SOL    HW1 8618   6.674   0.125   9.703 -0.3773 -1.0306 -0.6853
 2155SOL    HW2 8619   6.574   0.157   9.594 -0.2228 -0.7335 -0.7388
 2155SOL     MW 8620   6.593   0.145   9.678 -0.0777  0.3298 -0.6064
 2156SOL     OW 8621   5.761   7.785   5.127  0.8734 -0.0819  0.2661
 2156SOL    HW1 8622   5.738   7.701   5.087  1.3484 -0.3866  0.6287
 2156SOL    HW2 8623   5.842   7.811   5.084  1.6421 -0.6425  1.3509
 2156SOL     MW 8624   5.769   7.778   5.116  1.0408 -0.1983  0.4609
 2157SOL     OW 8625   5.318   1.292   5.621  0.2572  0.1383 -0.0730
 2157SOL    HW1 8626   5.300   1.315   5.529 -1.0257 -0.6114 -0.0313
 2157SOL    HW2 8627   5.321   1.376   5.666 -0.7149  0.4442 -0.5459
 2157SOL     MW 8628   5.316   1.307   5.614 -0.0463  0.0786 -0.1310
 2158SOL     OW 8629   5.003  10.128  10.137  0.0188 -0.0212 -0.0725
 2158SOL    HW1 8630   4.960  10.088  10.061 -0.9608  0.7604  0.0517
 2158SOL    HW2 8631   5.053  10.201  10.100  0.7566 -0.5513 -0.1385
 2158SOL     MW 8632   5.004  10.133  10.122 -0.0138  0.0126 -0.0647
 2159SOL     OW 8633   6.679  10.014   0.774  0.5023 -0.0661 -0.1829
 2159SOL    HW1 8634   6.736  10.043   0.846 -0.2626 -1.1167  0.8945
 2159SOL    HW2 8635   6.674   9.919   0.785 -2.3672  0.0720  0.5130
 2159SOL     MW 8636   6.686  10.005   0.785  0.0132 -0.1889  0.0557
 2160SOL     OW 8637   4.816   0.394   7.754 -0.4141 -0.0483 -0.0631
 2160SOL    HW1 8638   4.727   0.370   7.729 -0.2944  0.7297 -1.4055
 2160SOL    HW2 8639   4.805   0.457   7.825 -0.9024 -0.4400  0.2134
 2160SOL     MW 8640   4.803   0.399   7.760 -0.4637  0.0037 -0.2066
 2161SOL     OW 8641   5.337   0.239   8.198  0.1283  0.5129  0.2254
 2161SOL    HW1 8642   5.395   0.163   8.200  0.4275  0.7368  0.1316
 2161SOL    HW2 8643   5.385   0.305   8.149 -0.2176  0.6942  0.1230
 2161SOL     MW 8644   5.351   0.237   8.191  0.1220  0.5674  0.1990
 2162SOL     OW 8645   4.075   8.995   2.614  0.3109 -0.7620 -0.6877
 2162SOL    HW1 8646   4.065   9.023   2.523 -0.7703  0.0209 -0.3466
 2162SOL    HW2 8647   3.990   9.013   2.654  1.0846 -0.1333  0.7430
 2162SOL     MW 8648   4.062   9.001   2.607  0.2695 -0.5720 -0.4492
 2163SOL     OW 8649   3.869   0.465  10.009 -0.0786  0.1133  0.0246
 2163SOL    HW1 8650   3.945   0.523  10.003  0.1320 -0.2705 -1.2342
 2163SOL    HW2 8651   3.905   0.381  10.038 -0.0267 -0.0503 -0.5071
 2163SOL     MW 8652   3.884   0.462  10.012 -0.0432  0.0397 -0.2164
 2164SOL     OW 8653   6.750   8.591   2.215  0.0471  0.2418 -0.0425
 2164SOL    HW1 8654   6.795   8.533   2.155 -0.2956 -0.6863  0.5819
 2164SOL    HW2 8655   6.699   8.650   2.158  1.4706  0.8591 -0.7208
 2164SOL     MW 8656   6.749   8.591   2.199  0.1926  0.2000 -0.0498
 2165SOL     OW 8657   6.042   8.724   2.525  0.6574 -0.4007 -0.2752
 2165SOL    HW1 8658   5.988   8.802   2.513  2.0524  0.5968 -0.3060
 2165SOL    HW2 8659   6.082   8.710   2.439  2.2451  0.2955  0.3117
 2165SOL     MW 8660   6.040   8.733   2.512  1.0588 -0.1728 -0.2004
 2166SOL     OW 8661   4.960   9.294   9.486  0.3763 -0.1334  0.1281
 2166SOL    HW1 8662   4.904   9.217   9.496 -0.1302  0.3097  0.8121
 2166SOL    HW2 8663   4.989   9.291   9.395 -2.3804  0.6862 -0.8837
 2166SOL     MW 8664   4.957   9.283   9.475 -0.0629  0.0365  0.0840
 2167SOL     OW 8665   4.019   8.363   6.762  0.0282 -0.6697 -0.1482
 2167SOL    HW1 8666   4.050   8.344   6.673 -2.8300 -1.5635 -1.0721
 2167SOL    HW2 8667   4.029   8.280   6.809  1.3938 -0.2399  0.3605
 2167SOL     MW 8668   4.025   8.349   6.756 -0.1727 -0.7321 -0.2040
 2168SOL     OW 8669   5.191   9.629   6.025 -0.0919  0.1156  0.0218
 2168SOL    HW1 8670   5.240   9.570   5.967  0.5720  0.5786  0.0972
 2168SOL    HW2 8671   5.236   9.713   6.017  1.0126 -0.1751  2.3990
 2168SOL     MW 8672   5.204   9.632   6.016  0.1461  0.1388  0.3519
 2169SOL     OW 8673   7.347   8.659   3.202  0.8208 -0.1292 -0.0056
 2169SOL    HW1 8674   7.361   8.675   3.109  0.3210 -2.8160 -0.6322
 2169SOL    HW2 8675   7.428   8.618   3.232  0.7467  0.1455  0.5769
 2169SOL     MW 8676   7.360   8.655   3.194  0.7436 -0.4538 -0.0116
 2170SOL     OW 8677   5.527   7.997   1.164  0.2647 -0.0289  0.7237
 2170SOL    HW1 8678   5.547   7.904   1.174 -2.8253 -0.6541  2.0618
 2170SOL    HW2 8679   5.574   8.039   1.236  1.4689 -0.5195  0.2667
 2170SOL     MW 8680   5.536   7.990   1.175  0.0109 -0.1791  0.8423
 2171SOL     OW 8681   4.242   9.937   5.720 -0.5546  0.9640  0.3762
 2171SOL    HW1 8682   4.256   9.912   5.811  2.1543  1.3598  0.1587
 2171SOL    HW2 8683   4.213  10.028   5.725 -0.0269  1.1139  0.8573
 2171SOL     MW 8684   4.240   9.946   5.733 -0.1190  1.0374  0.4117
 2172SOL     OW 8685   6.244   1.814   9.669  0.1942 -0.0770 -0.6456
 2172SOL    HW1 8686   6.159   1.856   9.678 -0.6015 -1.8331  0.5186
 2172SOL    HW2 8687   6.247   1.783   9.579 -0.8657 -0.9115 -0.4088
 2172SOL     MW 8688   6.233   1.816   9.658 -0.0555 -0.4256 -0.4571
 2173SOL     OW 8689   6.900   7.693   3.595 -0.0376  0.1737 -0.0961
 2173SOL    HW1 8690   6.941   7.607   3.603  2.8239  1.4287 -0.2176
 2173SOL    HW2 8691   6.850   7.703   3.676 -0.7641 -1.7230 -0.2512
 2173SOL     MW 8692   6.899   7.683   3.607  0.2497  0.0874 -0.1334
 2174SOL     OW 8693   5.402   8.793   7.341  0.4889 -0.1454 -0.2869
 2174SOL    HW1 8694   5.396   8.787   7.436 -1.1033  0.0038 -0.3610
 2174SOL    HW2 8695   5.382   8.705   7.310  0.3029 -0.0204 -0.5187
 2174SOL     MW 8696   5.399   8.780   7.350  0.2496 -0.1085 -0.3281
 2175SOL     OW 8697   3.947   9.543   7.048 -0.2577  0.2727 -0.2159
 2175SOL    HW1 8698   3.938   9.566   6.955 -0.0397  0.2314 -0.2474
 2175SOL    HW2 8699   3.862   9.564   7.086 -0.8032 -0.9444 -0.6852
 2175SOL     MW 8700   3.935   9.549   7.040 -0.3018  0.1033 -0.2833
 2176SOL     OW 8701   6.332   9.534   2.881  0.0709 -0.1271 -0.1107
 2176SOL    HW1 8702   6.373   9.535   2.968  1.5595 -0.3225 -0.7978
 2176SOL    HW2 8703   6.344   9.445   2.850 -1.5835 -0.4136 -0.0352
 2176SOL     MW 8704   6.339   9.522   2.889  0.0486 -0.1919 -0.1930
 2177SOL     OW 8705   7.515   0.003   4.978 -0.1173  0.5277  0.2137
 2177SOL    HW1 8706   7.608   0.006   4.957  0.3567  1.8535  2.2358
 2177SOL    HW2 8707   7.477   0.074   4.927 -0.2910 -0.7467 -1.5248
 2177SOL     MW 8708   7.522   0.013   4.968 -0.0769  0.5346  0.2518
 2178SOL     OW 8709   4.357   8.220   6.882 -0.9393 -0.3078  0.2577
 2178SOL    HW1 8710   4.319   8.305   6.859 -0.3359  0.0109  0.4145
 2178SOL    HW2 8711   4.311   8.194   6.962  0.6473  1.1201  1.7273
 2178SOL     MW 8712   4.346   8.228   6.890 -0.6446 -0.0728  0.4766
 2179SOL     OW 8713   5.889   1.460   9.705 -0.2956  0.3660 -0.4632
 2179SOL    HW1 8714   5.876   1.539   9.756 -0.1737 -0.3387  0.7007
 2179SOL    HW2 8715   5.880   1.488   9.614  1.0146  1.9542 -0.1533
 2179SOL     MW 8716   5.886   1.474   9.700 -0.1029  0.4849 -0.2649
 2180SOL     OW 8717   5.124   8.912   3.110  0.4017  0.7125 -0.1580
 2180SOL    HW1 8718   5.042   8.956   3.087  0.0423  0.7809  1.1843
 2180SOL    HW2 8719   5.100   8.819   3.116  0.4480  0.7167  0.1077
 2180SOL     MW 8720   5.110   8.905   3.108  0.3596  0.7223  0.0584
 2181SOL     OW 8721   4.954   9.489   8.549 -0.0661  0.2427 -0.0686
 2181SOL    HW1 8722   4.983   9.408   8.507  0.2209  1.0137 -1.4000
 2181SOL    HW2 8723   4.902   9.459   8.624  0.1309 -1.1676 -0.4572
 2181SOL     MW 8724   4.951   9.474   8.553 -0.0010  0.1567 -0.3000
 2182SOL     OW 8725   4.029   8.708   3.423 -0.6862  0.5332 -0.3306
 2182SOL    HW1 8726   4.041   8.711   3.328  0.7280 -1.0709 -0.2404
 2182SOL    HW2 8727   3.945   8.752   3.438 -1.2896  0.1587 -2.3829
 2182SOL     MW 8728   4.019   8.715   3.413 -0.5770  0.2669 -0.5947
 2183SOL     OW 8729   5.911   9.378  10.093  0.0379 -0.2582 -0.3122
 2183SOL    HW1 8730   5.895   9.319  10.167  0.2354  0.8421  0.6309
 2183SOL    HW2 8731   5.865   9.459  10.116 -0.9650 -0.3044 -1.9847
 2183SOL     MW 8732   5.902   9.381  10.106 -0.0705 -0.1164 -0.4103
 2184SOL     OW 8733   7.775   9.326   6.335 -0.2638 -0.1704  0.3130
 2184SOL    HW1 8734   7.812   9.373   6.410 -1.7958  0.8133  0.5014
 2184SOL    HW2 8735   7.786   9.234   6.358  1.9503  0.0324  0.3742
 2184SOL     MW 8736   7.782   9.320   6.349 -0.1720 -0.0107  0.3466
 2185SOL     OW 8737   6.438   9.818   3.714 -0.4349  0.5182 -0.7080
 2185SOL    HW1 8738   6.473   9.737   3.678  0.8300  1.0998 -0.8181
 2185SOL    HW2 8739   6.487   9.832   3.795 -0.4266  1.3289 -0.8441
 2185SOL     MW 8740   6.449   9.809   3.720 -0.2636  0.7056 -0.7412
 2186SOL     OW 8741   4.445   9.570   7.845 -0.3277  0.3512  0.8563
 2186SOL    HW1 8742   4.463   9.482   7.814  1.6118 -0.0478  2.8412
 2186SOL    HW2 8743   4.350   9.575   7.850 -0.4836 -1.5686  0.5288
 2186SOL     MW 8744   4.435   9.559   7.841 -0.0877  0.0392  1.0794
 2187SOL     OW 8745   4.648   0.045   4.898 -0.2351  0.1667 -0.5004
 2187SOL    HW1 8746   4.590  -0.019   4.938 -0.4961  0.2584 -0.7248
 2187SOL    HW2 8747   4.593   0.091   4.835 -0.5228  1.7833  0.8523
 2187SOL     MW 8748   4.633   0.043   4.895 -0.3089  0.3966 -0.3486
 2188SOL     OW 8749   7.294   8.330   1.470  0.5140 -0.4619  0.2741
 2188SOL    HW1 8750   7.328   8.344   1.381 -2.0299  1.1306 -0.5434
 2188SOL    HW2 8751   7.334   8.401   1.521 -0.2162  0.3882 -0.2955
 2188SOL     MW 8752   7.304   8.342   1.465  0.0733 -0.1332  0.0874
 2189SOL     OW 8753   5.958   8.777   0.310 -0.3809 -0.0520  0.3659
 2189SOL    HW1 8754   5.985   8.859   0.351 -0.7162  0.0521  0.3815
 2189SOL    HW2 8755   6.031   8.755   0.251 -0.4588  0.4629  0.0648
 2189SOL     MW 8756   5.971   8.785   0.307 -0.4365  0.0313  0.3275
 2190SOL     OW 8757   6.684   0.049   1.825 -0.2686  0.0468  0.2468
 2190SOL    HW1 8758   6.736   0.015   1.897 -0.4792 -1.0747 -0.1007
 2190SOL    HW2 8759   6.597   0.011   1.838 -0.2741 -0.2813 -0.6597
 2190SOL     MW 8760   6.679   0.039   1.836 -0.2977 -0.1483  0.0781
 2191SOL     OW 8761   4.833   8.783   4.784 -0.3619  0.5999 -0.0511
 2191SOL    HW1 8762   4.852   8.721   4.714  0.0400  0.1934  0.4069
 2191SOL    HW2 8763   4.795   8.859   4.740 -0.0673  0.3692 -0.7091
 2191SOL     MW 8764   4.830   8.785   4.769 -0.2682  0.5141 -0.0780
 2192SOL     OW 8765   5.285   1.129   3.055  0.4575  0.3686 -0.5950
 2192SOL    HW1 8766   5.214   1.138   3.119 -0.1859  0.6224 -1.3402
 2192SOL    HW2 8767   5.365   1.147   3.106 -0.0129  0.2047  0.2207
 2192SOL     MW 8768   5.286   1.133   3.071  0.3076  0.3807 -0.5855
 2193SOL     OW 8769   6.877   1.088   7.321  0.2577  0.4588  0.0042
 2193SOL    HW1 8770   6.783   1.072   7.328  0.1891  0.8503 -0.0125
 2193SOL    HW2 8771   6.886   1.184   7.317  0.6529  0.4256 -0.0314
 2193SOL     MW 8772   6.866   1.099   7.322  0.3017  0.5070 -0.0028
 2194SOL     OW 8773   5.195   7.918   9.603 -0.3500  0.3680 -0.8430
 2194SOL    HW1 8774   5.117   7.915   9.548 -0.6609 -1.9430 -0.3778
 2194SOL    HW2 8775   5.268   7.907   9.543 -0.3906  1.9082 -1.2086
 2194SOL     MW 8776   5.194   7.916   9.588 -0.3973  0.2643 -0.8296
 2195SOL     OW 8777   5.093  -0.014   8.507 -0.0523 -0.1123  0.0834
 2195SOL    HW1 8778   5.046   0.042   8.446 -1.8157 -2.1375 -0.5323
 2195SOL    HW2 8779   5.060   0.011   8.593  0.1480  0.6541 -0.0555
 2195SOL     MW 8780   5.082  -0.003   8.510 -0.2627 -0.2817 -0.0182
 2196SOL     OW 8781   5.111   8.812   2.705 -0.5161 -0.4911  0.1942
 2196SOL    HW1 8782   5.196   8.768   2.708  0.4575  1.3470  1.8995
 2196SOL    HW2 8783   5.126   8.889   2.650 -1.1100 -0.2425  0.3702
 2196SOL     MW 8784   5.125   8.817   2.698 -0.4650 -0.2103  0.4474
 2197SOL     OW 8785   6.612  10.078   1.441  0.4995 -0.1188  0.1238
 2197SOL    HW1 8786   6.582  10.164   1.412  0.3908 -0.2595 -0.1867
 2197SOL    HW2 8787   6.538  10.041   1.489 -0.2315 -0.8953 -1.5313
 2197SOL     MW 8788   6.598  10.085   1.443  0.3865 -0.2422 -0.1407
 2198SOL     OW 8789   7.798   8.871   3.611  0.3059 -0.2989 -0.1301
 2198SOL    HW1 8790   7.703   8.859   3.602  0.2665  0.2271 -0.4234
 2198SOL    HW2 8791   7.832   8.861   3.522  0.2539  1.8843 -0.4314
 2198SOL     MW 8792   7.790   8.868   3.598  0.2936  0.0657 -0.2102
 2199SOL     OW 8793   5.722   1.624   3.048 -0.1092  0.2130 -0.3254
 2199SOL    HW1 8794   5.748   1.533   3.035 -1.7081 -0.7613  2.3102
 2199SOL    HW2 8795   5.796   1.664   3.093 -0.3333 -0.5521  0.7865
 2199SOL     MW 8796   5.735   1.617   3.053 -0.3546 -0.0211  0.1789
 2200SOL     OW 8797   4.836   0.910   7.945  0.2508  0.2215 -0.5472
 2200SOL    HW1 8798   4.760   0.860   7.974  1.1141 -1.1744 -0.6060
 2200SOL    HW2 8799   4.910   0.870   7.990  0.7583  3.1183  1.4669
 2200SOL     MW 8800   4.836   0.898   7.955  0.4353  0.4235 -0.2841
 2201SOL     OW 8801   5.778   9.928   7.509 -0.2692 -0.7821  0.0588
 2201SOL    HW1 8802   5.814   9.897   7.593  0.6148 -0.4038 -0.1683
 2201SOL    HW2 8803   5.724   9.855   7.478 -1.5211 -0.5133  1.4841
 2201SOL     MW 8804   5.776   9.914   7.516 -0.3187 -0.6950  0.2201
 2202SOL     OW 8805   4.806   8.763   3.085 -0.2646  0.4928  0.2137
 2202SOL    HW1 8806   4.862   8.708   3.140  0.1764  0.6384 -0.0889
 2202SOL    HW2 8807   4.741   8.799   3.146 -1.7028 -1.7806  0.1382
 2202SOL     MW 8808   4.805   8.760   3.101 -0.3988  0.2065  0.1628
 2203SOL     OW 8809   5.269   9.245   1.249  0.0849 -0.0007  0.3879
 2203SOL    HW1 8810   5.313   9.210   1.326 -0.0921  0.2623  0.6135
 2203SOL    HW2 8811   5.340   9.266   1.188  0.1751 -0.9986  0.1382
 2203SOL     MW 8812   5.284   9.243   1.251  0.0733 -0.0996  0.3847
 2204SOL     OW 8813   6.809   9.349   2.232 -0.1763  0.1758 -0.2919
 2204SOL    HW1 8814   6.810   9.386   2.320 -1.9561 -0.8625  0.2155
 2204SOL    HW2 8815   6.836   9.258   2.243 -0.4244  0.0351 -0.8179
 2204SOL     MW 8816   6.813   9.342   2.245 -0.4492  0.0171 -0.2944
 2205SOL     OW 8817   7.030   8.028   3.329 -0.2350 -0.5769  0.6392
 2205SOL    HW1 8818   7.108   8.048   3.278  0.1319 -1.6239  0.7686
 2205SOL    HW2 8819   6.968   7.994   3.264  0.0990 -1.5528  0.8224
 2205SOL     MW 8820   7.032   8.026   3.313 -0.1407 -0.8491  0.6813
 2206SOL     OW 8821   5.014   7.799  10.067  0.0638 -0.5088 -0.1882
 2206SOL    HW1 8822   4.935   7.827  10.019  0.7855  2.9931  0.3515
 2206SOL    HW2 8823   5.083   7.800  10.000  0.0774 -1.2962 -0.1927
 2206SOL     MW 8824   5.013   7.803  10.051  0.1628 -0.1435 -0.1162
 2207SOL     OW 8825   5.553   0.297  10.102  0.5239  0.3407 -0.4694
 2207SOL    HW1 8826   5.623   0.290  10.038  0.2671  1.2074 -0.8639
 2207SOL    HW2 8827   5.547   0.210  10.141  2.8082  0.6128  0.6287
 2207SOL     MW 8828   5.562   0.285  10.099  0.7968  0.4939 -0.3747
 2208SOL     OW 8829   7.614   9.060   4.790  0.0311 -0.1198  0.3265
 2208SOL    HW1 8830   7.536   9.031   4.839  0.2808  0.0747  0.8448
 2208SOL    HW2 8831   7.678   9.083   4.858 -0.1474  1.6601 -0.0652
 2208SOL     MW 8832   7.612   9.059   4.806  0.0407  0.1459  0.3435
 2209SOL     OW 8833   4.770   1.431   0.145 -0.0784 -0.0836  0.1102
 2209SOL    HW1 8834   4.864   1.448   0.154  0.1134 -0.2585 -1.3127
 2209SOL    HW2 8835   4.761   1.389   0.059 -1.3875 -0.6587  0.5029
 2209SOL     MW 8836   4.782   1.428   0.135 -0.2287 -0.1845 -0.0284
 2210SOL     OW 8837   5.987   8.334   3.202  0.8462 -0.5367 -0.9956
 2210SOL    HW1 8838   6.000   8.295   3.289 -3.8809 -1.5890 -0.4578
 2210SOL    HW2 8839   6.058   8.299   3.149  2.6021 -1.7198  1.8722
 2210SOL     MW 8840   5.998   8.324   3.207  0.4463 -0.8375 -0.5373
 2211SOL     OW 8841   6.964   9.911   1.431 -0.2821  0.2367  0.9550
 2211SOL    HW1 8842   6.897   9.843   1.420 -0.7421  0.9449 -1.1527
 2211SOL    HW2 8843   6.946   9.950   1.516  0.3209 -2.5671  2.4974
 2211SOL     MW 8844   6.953   9.907   1.441 -0.2629 -0.0453  0.8790
 2212SOL     OW 8845   6.770   8.737   4.152  0.0512 -0.6061 -0.3743
 2212SOL    HW1 8846   6.810   8.689   4.079 -0.0907 -1.0316 -0.1740
 2212SOL    HW2 8847   6.692   8.686   4.174 -0.3003 -0.0850 -0.3930
 2212SOL     MW 8848   6.765   8.724   4.145 -0.0152 -0.5932 -0.3498
 2213SOL     OW 8849   5.086   8.691   2.188  0.2523 -0.1582  0.3441
 2213SOL    HW1 8850   5.129   8.683   2.274 -1.2896  0.8444  1.2592
 2213SOL    HW2 8851   5.011   8.632   2.194  0.0713  0.0031 -0.2738
 2213SOL     MW 8852   5.082   8.682   2.201  0.0204 -0.0016  0.3841
 2214SOL     OW 8853   4.450   8.380  10.135 -0.6020  0.2524 -1.0224
 2214SOL    HW1 8854   4.401   8.383  10.052  0.2438 -0.0146 -1.5498
 2214SOL    HW2 8855   4.531   8.428  10.116 -0.0953 -0.4061 -0.5658
 2214SOL     MW 8856   4.454   8.387  10.121 -0.4200  0.1278 -1.0319
 2215SOL     OW 8857   6.010  10.156   1.026  0.1426 -0.1169 -0.1110
 2215SOL    HW1 8858   5.979  10.192   1.109 -0.0068 -0.2902 -0.0926
 2215SOL    HW2 8859   5.942  10.094   0.999 -0.2144  0.5533 -0.7823
 2215SOL     MW 8860   5.997  10.152   1.034  0.0745 -0.0500 -0.1989
 2216SOL     OW 8861   6.172   0.887   7.098  0.2507  0.2491  0.3606
 2216SOL    HW1 8862   6.103   0.890   7.032  1.5532 -0.9087 -1.1235
 2216SOL    HW2 8863   6.221   0.968   7.085  1.8169 -0.9392 -1.6596
 2216SOL     MW 8864   6.169   0.898   7.088  0.6368 -0.0667 -0.1110
 2217SOL     OW 8865   4.894   9.572   0.295 -0.1979  0.3440  0.8741
 2217SOL    HW1 8866   4.908   9.661   0.264  4.7478 -0.4700 -0.2478
 2217SOL    HW2 8867   4.892   9.519   0.215 -0.4302 -0.7678  1.5865
 2217SOL     MW 8868   4.896   9.577   0.280  0.4364  0.0849  0.8190
 2218SOL     OW 8869   4.300   9.252   2.442 -0.0096  0.0202 -0.3086
 2218SOL    HW1 8870   4.265   9.240   2.354  1.0798  0.4688 -0.8137
 2218SOL    HW2 8871   4.224   9.278   2.494 -0.5288  0.4840 -1.2681
 2218SOL     MW 8872   4.285   9.254   2.437  0.0672  0.1430 -0.5057
 2219SOL     OW 8873   6.102   1.351   6.759 -0.1955  0.1198  0.3182
 2219SOL    HW1 8874   6.162   1.417   6.725 -1.0096 -0.1398 -1.7310
 2219SOL    HW2 8875   6.141   1.267   6.733 -0.7343 -0.1007  0.2151
 2219SOL     MW 8876   6.115   1.348   6.751 -0.3776  0.0552  0.0286
 2220SOL     OW 8877   5.544   0.813   6.698  0.0085  0.3188  0.1460
 2220SOL    HW1 8878   5.512   0.852   6.779  0.3007 -1.3162  1.0966
 2220SOL    HW2 8879   5.552   0.887   6.637 -1.2844  1.4128  1.2437
 2220SOL     MW 8880   5.541   0.828   6.701 -0.1262  0.2460  0.4217
 2221SOL     OW 8881   6.438   7.948   4.584 -0.4345  0.1211 -0.0729
 2221SOL    HW1 8882   6.359   7.991   4.615  0.3820  1.9501 -0.4035
 2221SOL    HW2 8883   6.508   7.982   4.640  0.3494 -0.2233 -0.8160
 2221SOL     MW 8884   6.437   7.958   4.596 -0.2191  0.3209 -0.2174
 2222SOL     OW 8885   6.343   8.921   6.133 -0.3568  0.0336 -0.0501
 2222SOL    HW1 8886   6.342   8.963   6.219  0.2686  0.3246 -0.1746
 2222SOL    HW2 8887   6.348   8.994   6.071 -0.1540 -0.1939 -0.3032
 2222SOL     MW 8888   6.344   8.936   6.136 -0.2453  0.0422 -0.1009
 2223SOL     OW 8889   4.602   0.961   3.471 -0.1008 -0.1381  0.5289
 2223SOL    HW1 8890   4.552   1.025   3.420  1.6997 -0.4255 -1.7618
 2223SOL    HW2 8891   4.536   0.898   3.501 -1.4323  0.8537 -0.1767
 2223SOL     MW 8892   4.586   0.961   3.468 -0.0377 -0.0433  0.1257
 2224SOL     OW 8893   6.142   1.707   8.958  0.1566  0.3487  0.3631
 2224SOL    HW1 8894   6.150   1.797   8.990  0.1660  0.3985  0.2205
 2224SOL    HW2 8895   6.200   1.704   8.882  2.5206 -0.5782  2.0522
 2224SOL     MW 8896   6.151   1.719   8.952  0.4760  0.2307  0.5712
 2225SOL     OW 8897   5.247   1.387   2.479 -0.3713  0.0585 -0.1558
 2225SOL    HW1 8898   5.204   1.360   2.560 -1.2288 -0.3123 -0.7153
 2225SOL    HW2 8899   5.180   1.436   2.431 -0.7598 -1.8490 -1.7463
 2225SOL     MW 8900   5.232   1.390   2.483 -0.5390 -0.2481 -0.4452
 2226SOL     OW 8901   5.990   1.478   1.746  0.0303  0.2008 -0.0953
 2226SOL    HW1 8902   5.993   1.390   1.710 -0.3756  0.6064 -1.1647
 2226SOL    HW2 8903   6.032   1.533   1.680 -0.9874  1.0085 -0.1131
 2226SOL     MW 8904   5.996   1.474   1.732 -0.1613  0.3641 -0.2416
 2227SOL     OW 8905   4.705   8.986   6.344  0.2306 -0.1357 -0.1311
 2227SOL    HW1 8906   4.666   8.898   6.335 -1.5458  0.6076 -0.1509
 2227SOL    HW2 8907   4.735   8.989   6.434 -1.2175 -0.2099  0.3820
 2227SOL     MW 8908   4.704   8.974   6.355 -0.2033 -0.0456 -0.0647
 2228SOL     OW 8909   7.818   9.254   1.353  0.5100  0.4123 -0.5412
 2228SOL    HW1 8910   7.851   9.208   1.430  1.4263  1.9070 -0.0228
 2228SOL    HW2 8911   7.753   9.315   1.387 -0.1002  0.1051 -1.1320
 2228SOL     MW 8912   7.813   9.256   1.368  0.5512  0.5721 -0.5510
 2229SOL     OW 8913   5.825   9.566   2.427  0.0514  0.2845  0.0907
 2229SOL    HW1 8914   5.804   9.651   2.465  0.1498  0.2546  0.2137
 2229SOL    HW2 8915   5.762   9.506   2.467  1.6408 -0.1863  2.0471
 2229SOL     MW 8916   5.814   9.569   2.438  0.2786  0.2171  0.3705
 2230SOL     OW 8917   8.008   0.749   7.913  0.3238 -0.1935 -0.2049
 2230SOL    HW1 8918   7.959   0.699   7.979 -0.3657  1.0256  0.2399
 2230SOL    HW2 8919   7.975   0.839   7.922  1.5676  0.3600 -0.9359
 2230SOL     MW 8920   7.997   0.754   7.923  0.3984  0.0451 -0.2434
 2231SOL     OW 8921   7.731   9.569   2.296 -0.1396 -0.0813  0.3239
 2231SOL    HW1 8922   7.635   9.567   2.302 -0.2452 -2.8314 -0.9382
 2231SOL    HW2 8923   7.760   9.492   2.346  1.3587  0.1227 -0.1761
 2231SOL     MW 8924   7.722   9.559   2.304  0.0478 -0.4240  0.0867
 2232SOL     OW 8925   5.397   1.233   8.190 -0.2267  0.0882  0.0594
 2232SOL    HW1 8926   5.380   1.281   8.270  0.5975  0.6448 -0.0888
 2232SOL    HW2 8927   5.426   1.146   8.220  0.6167  0.4714  0.3883
 2232SOL     MW 8928   5.399   1.228   8.205 -0.0023  0.2147  0.0838
 2233SOL     OW 8929   6.600   9.092   4.281 -0.9304 -0.1238 -0.1830
 2233SOL    HW1 8930   6.553   9.155   4.336 -0.4053  1.2765 -1.2699
 2233SOL    HW2 8931   6.640   9.031   4.343 -1.0572  0.9022  0.9574
 2233SOL     MW 8932   6.599   9.093   4.297 -0.8768  0.2027 -0.1758
 2234SOL     OW 8933   7.499   0.261   9.215  0.0953 -0.7666  0.1068
 2234SOL    HW1 8934   7.415   0.242   9.257 -0.6632 -0.6216 -1.2837
 2234SOL    HW2 8935   7.536   0.333   9.267 -1.8283  0.9009 -0.6944
 2234SOL     MW 8936   7.493   0.268   9.228 -0.2657 -0.5227 -0.1881
 2235SOL     OW 8937   4.335   8.438   9.427  0.2550  0.0345 -0.6312
 2235SOL    HW1 8938   4.296   8.412   9.344  1.9131 -0.1893 -1.3669
 2235SOL    HW2 8939   4.401   8.372   9.445 -1.1133 -0.8054  1.6907
 2235SOL     MW 8940   4.338   8.426   9.418  0.2940 -0.1087 -0.4177
 2236SOL     OW 8941   6.940   0.878  10.022  0.0638  0.1464  0.2595
 2236SOL    HW1 8942   6.919   0.952  10.080 -1.7173  0.0419 -0.1913
 2236SOL    HW2 8943   6.996   0.916   9.954  1.2044  0.5270  1.3642
 2236SOL     MW 8944   6.945   0.893  10.021 -0.0224  0.1836  0.3475
 2237SOL     OW 8945   5.839   1.430   4.085 -0.2510 -0.0787 -0.6883
 2237SOL    HW1 8946   5.851   1.353   4.141  0.8077  0.0643 -0.6931
 2237SOL    HW2 8947   5.792   1.492   4.140 -0.2343 -0.3677 -0.3427
 2237SOL     MW 8948   5.835   1.428   4.100 -0.1063 -0.0983 -0.6424
 2238SOL     OW 8949   4.973   8.717   8.279  0.1641 -0.6267  0.1437
 2238SOL    HW1 8950   4.988   8.650   8.212  0.7045  0.0551 -0.4362
 2238SOL    HW2 8951   5.061   8.744   8.305  0.0279  1.3935 -1.2116
 2238SOL     MW 8952   4.987   8.712   8.273  0.2185 -0.2631 -0.1167
 2239SOL     OW 8953   5.660   9.862   9.781  0.1151  0.2389 -0.0321
 2239SOL    HW1 8954   5.682   9.955   9.790 -0.4132  0.2936  0.8394
 2239SOL    HW2 8955   5.595   9.846   9.850 -1.2458 -0.3234 -1.3836
 2239SOL     MW 8956   5.654   9.872   9.791 -0.1392  0.1706 -0.0967
 2240SOL     OW 8957   7.153   0.708   6.876  0.3766  0.2596 -0.6345
 2240SOL    HW1 8958   7.160   0.650   6.952  2.1331 -1.1591 -1.7851
 2240SOL    HW2 8959   7.093   0.664   6.817  0.9998  0.0528 -1.1275
 2240SOL     MW 8960   7.146   0.695   6.878  0.6969  0.0409 -0.8557
 2241SOL     OW 8961   6.570   1.524   8.381  0.2759 -0.3186  0.0261
 2241SOL    HW1 8962   6.477   1.524   8.358 -0.1706 -1.6062  1.6502
 2241SOL    HW2 8963   6.615   1.498   8.301 -0.8208 -0.4413 -0.5661
 2241SOL     MW 8964   6.563   1.521   8.367  0.0682 -0.5084  0.1650
 2242SOL     OW 8965   6.788   9.808   5.372  0.4950 -0.0441  0.4350
 2242SOL    HW1 8966   6.852   9.875   5.398  1.8971 -1.5942  1.1126
 2242SOL    HW2 8967   6.788   9.810   5.277 -0.2038  1.5469  0.4326
 2242SOL     MW 8968   6.796   9.818   5.363  0.5896 -0.0386  0.5259
 2243SOL     OW 8969   6.118   8.305   0.401 -0.4405 -0.2509 -0.4507
 2243SOL    HW1 8970   6.119   8.364   0.476 -0.0787  1.8922 -2.0304
 2243SOL    HW2 8971   6.041   8.332   0.351 -0.4739 -1.3971 -1.0480
 2243SOL     MW 8972   6.108   8.317   0.404 -0.3963 -0.1167 -0.7437
 2244SOL     OW 8973   6.623   1.537   9.384  0.8060 -0.3186 -0.0204
 2244SOL    HW1 8974   6.541   1.506   9.421  0.0857  2.0253  0.5013
 2244SOL    HW2 8975   6.665   1.458   9.350 -0.4065 -1.9799  2.0623
 2244SOL     MW 8976   6.618   1.522   9.385  0.5458 -0.2267  0.3301
 2245SOL     OW 8977   7.570   8.496   4.804 -0.0050 -0.2388 -0.7884
 2245SOL    HW1 8978   7.570   8.411   4.761 -0.2737 -0.3016 -0.6645
 2245SOL    HW2 8979   7.653   8.537   4.776  0.1974 -0.6023 -0.7184
 2245SOL     MW 8980   7.581   8.490   4.794 -0.0139 -0.2961 -0.7623
 2246SOL     OW 8981   4.028   0.677   1.484 -0.0397 -0.2323  0.1131
 2246SOL    HW1 8982   3.993   0.677   1.394 -2.2505 -1.3091  0.9035
 2246SOL    HW2 8983   4.013   0.588   1.515 -3.0663  1.0568  2.8540
 2246SOL     MW 8984   4.021   0.665   1.476 -0.7445 -0.2037  0.5883
 2247SOL     OW 8985   7.245  10.118   7.658  0.1329  0.2542 -0.2842
 2247SOL    HW1 8986   7.189  10.153   7.727  2.0656  1.0161  0.9816
 2247SOL    HW2 8987   7.292  10.195   7.625  2.3946 -0.6623  0.6017
 2247SOL     MW 8988   7.244  10.133   7.663  0.6974  0.2334  0.0054
 2248SOL     OW 8989   5.661   7.711   6.210 -0.1189 -0.2857 -0.0543
 2248SOL    HW1 8990   5.664   7.803   6.182 -0.1209 -0.3230 -0.1794
 2248SOL    HW2 8991   5.753   7.686   6.220 -0.0971 -0.4345 -0.5741
 2248SOL     MW 8992   5.673   7.720   6.207 -0.1162 -0.3108 -0.1411
 2249SOL     OW 8993   6.987   8.965   2.452 -0.8426  0.1784 -0.0685
 2249SOL    HW1 8994   6.980   8.900   2.381  0.4162 -1.0995  0.9243
 2249SOL    HW2 8995   6.924   8.935   2.518 -0.2342 -0.0624  0.4065
 2249SOL     MW 8996   6.977   8.952   2.451 -0.5913 -0.0260  0.1290
 2250SOL     OW 8997   7.273   9.911   3.492  0.0931 -0.5209  0.0627
 2250SOL    HW1 8998   7.254   9.830   3.444  0.7685 -0.7383  0.1478
 2250SOL    HW2 8999   7.193   9.962   3.485  0.0946 -0.6534 -1.0875
 2250SOL     MW 9000   7.260   9.907   3.485  0.1842 -0.5680 -0.0806
 2251SOL     OW 9001   5.163   9.553   1.782 -0.0858 -0.1928  0.6070
 2251SOL    HW1 9002   5.097   9.485   1.799 -1.1796  0.9827  1.1980
 2251SOL    HW2 9003   5.127   9.632   1.822  1.4607  0.6053  0.4843
 2251SOL     MW 9004   5.149   9.554   1.789 -0.0249  0.0728  0.6701
 2252SOL     OW 9005   6.825   9.473   4.680 -0.1977  0.2811  0.2470
 2252SOL    HW1 9006   6.833   9.410   4.608  0.2007 -0.3124  0.7886
 2252SOL    HW2 9007   6.909   9.466   4.726 -0.0481  1.4149  0.1636
 2252SOL     MW 9008   6.837   9.463   4.677 -0.1240  0.3538  0.3086
 2253SOL     OW 9009   6.933   8.815   4.746 -0.1357 -0.0261 -0.0890
 2253SOL    HW1 9010   6.886   8.880   4.694 -0.8033 -0.2771  0.1880
 2253SOL    HW2 9011   6.929   8.735   4.694  0.3703  0.0645 -0.2654
 2253SOL     MW 9012   6.926   8.813   4.732 -0.1575 -0.0477 -0.0755
 2254SOL     OW 9013   5.390   1.776   0.368 -0.7891 -0.3149 -0.3306
 2254SOL    HW1 9014   5.436   1.817   0.442 -0.1384  0.3740 -1.1048
 2254SOL    HW2 9015   5.302   1.759   0.402 -0.5721  0.2112  0.5382
 2254SOL     MW 9016   5.384   1.779   0.383 -0.6723 -0.1514 -0.3179
 2255SOL     OW 9017   5.551   0.383   0.780 -0.1416 -0.5554 -0.3684
 2255SOL    HW1 9018   5.595   0.305   0.748  0.6766 -0.3205  0.1667
 2255SOL    HW2 9019   5.618   0.451   0.778 -0.8781  0.1780 -0.9584
 2255SOL     MW 9020   5.566   0.382   0.775 -0.1306 -0.4251 -0.3758
 2256SOL     OW 9021   7.913   9.386   7.078 -0.8053  0.5401  0.4681
 2256SOL    HW1 9022   7.879   9.297   7.072 -0.6083  0.4952  0.0380
 2256SOL    HW2 9023   7.946   9.393   7.168 -0.6476  0.1187  0.4427
 2256SOL     MW 9024   7.913   9.375   7.089 -0.7575  0.4774  0.4068
 2257SOL     OW 9025   5.927   9.407   1.441 -0.0865  0.0654  0.5809
 2257SOL    HW1 9026   5.996   9.469   1.465 -0.1113  0.5368 -0.5186
 2257SOL    HW2 9027   5.975   9.333   1.402  0.0933 -1.4462  3.4210
 2257SOL     MW 9028   5.943   9.405   1.439 -0.0656 -0.0746  0.8151
 2258SOL     OW 9029   6.379   0.286   8.262  0.0298 -0.0552  0.1503
 2258SOL    HW1 9030   6.375   0.329   8.177  1.2668 -1.2617 -0.5594
 2258SOL    HW2 9031   6.346   0.198   8.246  0.7644 -0.4589  0.7894
 2258SOL     MW 9032   6.374   0.280   8.249  0.2952 -0.2719  0.1408
 2259SOL     OW 9033   6.667   8.213   0.689 -0.0255 -0.2716 -0.1307
 2259SOL    HW1 9034   6.613   8.146   0.647  0.3387 -0.9194  0.4101
 2259SOL    HW2 9035   6.753   8.173   0.696 -0.0697 -0.1857  1.2051
 2259SOL     MW 9036   6.671   8.199   0.684  0.0176 -0.3472  0.1218
 2260SOL     OW 9037   5.931   9.988   6.281 -0.1658  0.2155 -0.8767
 2260SOL    HW1 9038   5.898   9.967   6.193 -0.0872  0.3964 -0.9484
 2260SOL    HW2 9039   5.885  10.068   6.306 -0.3462  0.0460 -0.6646
 2260SOL     MW 9040   5.920   9.996   6.272 -0.1795  0.2170 -0.8578
 2261SOL     OW 9041   5.355   8.937   4.178  0.6467  0.4360  0.1574
 2261SOL    HW1 9042   5.418   8.973   4.115  1.9323  0.8677  1.6122
 2261SOL    HW2 9043   5.343   8.846   4.151  2.1798  0.2453  0.0330
 2261SOL     MW 9044   5.362   8.930   4.166  1.0261  0.4685  0.3364
 2262SOL     OW 9045   7.173   9.217   5.502 -0.3577  0.0967 -0.1265
 2262SOL    HW1 9046   7.193   9.243   5.413  0.7450 -0.3642 -0.0219
 2262SOL    HW2 9047   7.191   9.295   5.555  0.0777  0.0233 -0.1685
 2262SOL     MW 9048   7.178   9.231   5.497 -0.1507  0.0248 -0.1181
 2263SOL     OW 9049   5.021   1.458   1.611 -0.1186  0.1895 -0.4875
 2263SOL    HW1 9050   5.095   1.519   1.609  0.3124 -0.2843  0.3085
 2263SOL    HW2 9051   5.022   1.423   1.700 -1.6288  0.5503 -0.2994
 2263SOL     MW 9052   5.031   1.462   1.623 -0.2638  0.1743 -0.3551
 2264SOL     OW 9053   5.736   7.840   6.919  0.7547 -0.4426  0.3240
 2264SOL    HW1 9054   5.673   7.847   6.848 -1.5855 -1.2910  2.1702
 2264SOL    HW2 9055   5.816   7.808   6.877 -0.5652 -1.0611 -1.8788
 2264SOL     MW 9056   5.738   7.836   6.904  0.2621 -0.6400  0.2760
 2265SOL     OW 9057   7.754   1.005   6.426 -0.1465 -0.9515  0.2468
 2265SOL    HW1 9058   7.828   0.950   6.401  0.1004 -0.2505 -0.6329
 2265SOL    HW2 9059   7.788   1.059   6.498  0.4461 -0.1356 -0.6181
 2265SOL     MW 9060   7.769   1.005   6.433 -0.0335 -0.7474  0.0120
 2266SOL     OW 9061   6.089   7.971   6.460  0.0194  0.4043  0.1599
 2266SOL    HW1 9062   6.166   7.977   6.404 -0.2801 -1.0274 -0.4386
 2266SOL    HW2 9063   6.019   8.013   6.409 -0.3839 -1.3883 -0.8267
 2266SOL     MW 9064   6.090   7.978   6.446 -0.0752 -0.0296 -0.0534
 2267SOL     OW 9065   7.146  10.092   3.840  0.3378  0.5123  0.1358
 2267SOL    HW1 9066   7.074  10.106   3.780  0.6309 -0.8279 -0.5582
 2267SOL    HW2 9067   7.109  10.109   3.927 -1.3696 -1.9499 -0.0103
 2267SOL     MW 9068   7.132  10.097   3.844  0.1475  0.0006  0.0228
 2268SOL     OW 9069   6.784   9.180   9.288 -0.6071  0.2420  0.2662
 2268SOL    HW1 9070   6.838   9.229   9.350  1.2772  1.1477 -1.9388
 2268SOL    HW2 9071   6.792   9.229   9.206  0.0730 -2.8386 -1.6517
 2268SOL     MW 9072   6.792   9.193   9.285 -0.2620 -0.0507 -0.2886
 2269SOL     OW 9073   5.923   9.063   7.430  0.1286  0.1814 -0.1976
 2269SOL    HW1 9074   5.946   9.154   7.449  0.0521  0.8577 -2.9083
 2269SOL    HW2 9075   5.997   9.012   7.463 -0.0638  1.1321  1.8356
 2269SOL     MW 9076   5.936   9.069   7.437  0.0924  0.4004 -0.2888
 2270SOL     OW 9077   6.660   1.313   3.323  0.2828  0.5771 -0.1757
 2270SOL    HW1 9078   6.608   1.367   3.383 -0.8789 -1.3356  0.6450
 2270SOL    HW2 9079   6.720   1.264   3.380  0.0130 -0.3737 -0.6791
 2270SOL     MW 9080   6.661   1.314   3.339  0.0902  0.1917 -0.1330
 2271SOL     OW 9081   7.961   0.086   6.095  0.1819 -0.4080  0.0636
 2271SOL    HW1 9082   8.054   0.081   6.071 -0.1142 -0.1918 -1.2325
 2271SOL    HW2 9083   7.961   0.104   6.189  1.4598 -0.0415  0.0127
 2271SOL     MW 9084   7.974   0.088   6.104  0.3141 -0.3296 -0.1176
 2272SOL     OW 9085   4.559   8.426   7.002 -0.0128 -0.0926 -0.2928
 2272SOL    HW1 9086   4.499   8.356   6.975  0.4315 -0.6491  0.1568
 2272SOL    HW2 9087   4.506   8.505   6.997 -0.5063 -0.4491 -0.8617
 2272SOL     MW 9088   4.544   8.427   6.998 -0.0194 -0.2155 -0.3089
 2273SOL     OW 9089   4.571   0.776   7.551  0.3566  0.1433 -0.3712
 2273SOL    HW1 9090   4.619   0.693   7.553 -1.4223 -1.0105 -1.4078
 2273SOL    HW2 9091   4.496   0.758   7.493 -1.0886  1.9225  0.8192
 2273SOL     MW 9092   4.567   0.762   7.543 -0.0773  0.2275 -0.3505
 2274SOL     OW 9093   5.654  -0.002   9.163 -0.2770 -0.2202  0.0250
 2274SOL    HW1 9094   5.661   0.089   9.190  0.8934 -0.1328 -0.5617
 2274SOL    HW2 9095   5.731  -0.045   9.201  0.3795 -0.4917 -1.5557
 2274SOL     MW 9096   5.665   0.004   9.172 -0.0312 -0.2450 -0.2667
 2275SOL     OW 9097   4.675   9.755   7.134 -0.1260  0.0913  0.1431
 2275SOL    HW1 9098   4.617   9.686   7.163 -0.3678 -0.4217 -1.4659
 2275SOL    HW2 9099   4.743   9.759   7.202 -0.5122 -1.2074  0.6416
 2275SOL     MW 9100   4.677   9.746   7.147 -0.2105 -0.1525 -0.0064
 2276SOL     OW 9101   6.991   1.408   9.637  0.6769  0.1460  0.2219
 2276SOL    HW1 9102   7.074   1.382   9.595  0.3234 -2.9198  1.2030
 2276SOL    HW2 9103   6.949   1.465   9.572  1.7529 -1.4977 -2.0533
 2276SOL     MW 9104   6.997   1.412   9.622  0.7741 -0.4878  0.0477
 2277SOL     OW 9105   4.829   1.365   6.398  0.1349  0.2776 -0.0616
 2277SOL    HW1 9106   4.833   1.456   6.427  0.2441  0.1086  0.4721
 2277SOL    HW2 9107   4.919   1.344   6.373  0.0834  0.3566 -0.3135
 2277SOL     MW 9108   4.842   1.374   6.398  0.1426  0.2655 -0.0237
 2278SOL     OW 9109   4.266   9.578   2.858  0.0970 -0.1702  0.1502
 2278SOL    HW1 9110   4.309   9.494   2.840 -0.3711 -0.7879  1.7240
 2278SOL    HW2 9111   4.338   9.639   2.874  0.4309 -0.4439 -0.2766
 2278SOL     MW 9112   4.281   9.575   2.858  0.0790 -0.2902  0.3045
 2279SOL     OW 9113   4.530   0.343   6.241  0.2836 -0.3383 -0.2819
 2279SOL    HW1 9114   4.564   0.432   6.239  0.7992 -0.5402 -1.6421
 2279SOL    HW2 9115   4.480   0.334   6.160  0.1081 -1.2265 -0.0866
 2279SOL     MW 9116   4.528   0.354   6.230  0.3294 -0.4850 -0.4387
 2280SOL     OW 9117   7.841   9.416   6.603  0.2897 -1.0240  0.1911
 2280SOL    HW1 9118   7.777   9.367   6.654 -0.9530  0.8699  0.5468
 2280SOL    HW2 9119   7.808   9.506   6.602  1.9006 -0.3820 -1.3429
 2280SOL     MW 9120   7.828   9.421   6.610  0.3392 -0.6827  0.0325
 2281SOL     OW 9121   6.049   9.557   2.990 -0.1018  0.4535 -0.5726
 2281SOL    HW1 9122   6.127   9.532   2.942 -1.0316 -0.5842 -1.5992
 2281SOL    HW2 9123   5.976   9.520   2.939 -1.1516 -0.4913  1.4862
 2281SOL     MW 9124   6.050   9.549   2.977 -0.3682  0.1867 -0.4337
 2282SOL     OW 9125   7.449   8.046   7.935 -0.2910  0.1788  0.3513
 2282SOL    HW1 9126   7.456   8.053   8.030 -0.7850  1.4049  0.3108
 2282SOL    HW2 9127   7.364   8.006   7.920 -0.7133  1.0359  0.4079
 2282SOL     MW 9128   7.439   8.042   7.946 -0.4143  0.4592  0.3535
 2283SOL     OW 9129   3.773   9.200   2.017  0.1123 -0.0159 -0.5516
 2283SOL    HW1 9130   3.774   9.268   2.084 -2.2213  0.2024 -0.6578
 2283SOL    HW2 9131   3.691   9.212   1.971  0.2100 -2.1173 -1.4174
 2283SOL     MW 9132   3.762   9.211   2.020 -0.1886 -0.2693 -0.6824
 2284SOL     OW 9133   4.909   0.307   0.204 -0.0088  0.1350 -0.2539
 2284SOL    HW1 9134   4.902   0.354   0.120  1.1733  1.7615  0.4974
 2284SOL    HW2 9135   4.992   0.260   0.198  0.3213  0.6522  0.1715
 2284SOL     MW 9136   4.919   0.307   0.192  0.1947  0.4235 -0.0955
 2285SOL     OW 9137   7.507   8.978   6.360  0.3431 -0.4192  0.2252
 2285SOL    HW1 9138   7.483   8.936   6.278 -0.8776 -0.2017  0.4577
 2285SOL    HW2 9139   7.480   9.070   6.350  1.0997 -0.1529  0.5005
 2285SOL     MW 9140   7.500   8.985   6.348  0.2806 -0.3541  0.2936
 2286SOL     OW 9141   5.056   0.852   2.456 -0.6439 -0.5853  0.5771
 2286SOL    HW1 9142   5.029   0.933   2.413  1.3641 -0.4505 -0.6013
 2286SOL    HW2 9143   5.083   0.879   2.544 -0.0177  0.0574  0.2014
 2286SOL     MW 9144   5.056   0.867   2.462 -0.2894 -0.4807  0.3680
 2287SOL     OW 9145   4.373   9.366   6.932  0.5511 -0.0671 -0.0358
 2287SOL    HW1 9146   4.304   9.361   6.866  0.1328  0.1943  0.3705
 2287SOL    HW2 9147   4.332   9.412   7.005  0.8167 -0.8828  0.6424
 2287SOL     MW 9148   4.358   9.372   6.933  0.5306 -0.1417  0.1101
 2288SOL     OW 9149   5.426   8.292   6.692 -0.0860  0.0116  0.0291
 2288SOL    HW1 9150   5.441   8.221   6.630 -0.9848 -0.4198  0.2902
 2288SOL    HW2 9151   5.333   8.286   6.713 -0.2968  1.5681 -0.3182
 2288SOL     MW 9152   5.416   8.282   6.686 -0.2353  0.1630  0.0175
 2289SOL     OW 9153   8.150   0.370   8.871  0.4261 -0.6101 -0.0877
 2289SOL    HW1 9154   8.128   0.321   8.950 -1.8985  1.0839  0.4181
 2289SOL    HW2 9155   8.141   0.462   8.896 -0.4899 -0.0214 -2.3211
 2289SOL     MW 9156   8.146   0.376   8.885 -0.0100 -0.3029 -0.3202
 2290SOL     OW 9157   5.498   0.629   5.232 -0.1647 -0.0538  0.3559
 2290SOL    HW1 9158   5.572   0.650   5.289  0.9561 -1.3291 -0.5682
 2290SOL    HW2 9159   5.508   0.689   5.158 -0.9766  0.8346  0.9438
 2290SOL     MW 9160   5.509   0.640   5.230 -0.1231 -0.1058  0.3107
 2291SOL     OW 9161   6.688   1.320   6.572 -0.4178 -0.3201 -0.2218
 2291SOL    HW1 9162   6.667   1.305   6.664 -0.8274  0.5591 -0.1593
 2291SOL    HW2 9163   6.784   1.317   6.569 -0.4005 -0.3743  0.2313
 2291SOL     MW 9164   6.698   1.318   6.584 -0.4706 -0.2091 -0.1524
 2292SOL     OW 9165   5.285   0.411   5.916 -0.0777  0.3041  0.2961
 2292SOL    HW1 9166   5.242   0.424   6.001  0.2999 -1.2217  0.7597
 2292SOL    HW2 9167   5.366   0.366   5.937 -1.1586 -2.5244 -1.0216
 2292SOL     MW 9168   5.290   0.406   5.930 -0.1723 -0.2819  0.1811
 2293SOL     OW 9169   5.607   9.438   2.831 -0.5074 -0.7065  0.1280
 2293SOL    HW1 9170   5.554   9.367   2.867  0.1135 -1.1696  0.1292
 2293SOL    HW2 9171   5.563   9.518   2.862 -1.6804 -1.0635 -0.5670
 2293SOL     MW 9172   5.594   9.439   2.840 -0.5817 -0.8168  0.0347
 2294SOL     OW 9173   4.460   0.290   0.867 -0.2429 -0.5553  0.3762
 2294SOL    HW1 9174   4.455   0.199   0.838 -1.0331 -0.4538  0.1504
 2294SOL    HW2 9175   4.552   0.314   0.856 -0.4072 -0.6361 -1.7346
 2294SOL     MW 9176   4.471   0.281   0.861 -0.3713 -0.5526  0.0617
 2295SOL     OW 9177   7.228   9.294   9.949 -0.4913 -0.1463 -0.0260
 2295SOL    HW1 9178   7.186   9.219   9.990  0.6409 -0.9461 -0.2644
 2295SOL    HW2 9179   7.211   9.283   9.855 -0.6625  0.1183 -0.0277
 2295SOL     MW 9180   7.220   9.283   9.942 -0.3620 -0.2184 -0.0583
 2296SOL     OW 9181   6.044   8.135   2.998 -0.3994  0.1649  0.2450
 2296SOL    HW1 9182   5.982   8.164   2.931 -1.0753 -1.6792  0.0281
 2296SOL    HW2 9183   6.129   8.138   2.954 -0.5960  0.6700 -0.1206
 2296SOL     MW 9184   6.047   8.140   2.983 -0.5168 -0.0153  0.1666
 2297SOL     OW 9185   8.032   8.976   8.445 -0.1204 -0.0607  0.0262
 2297SOL    HW1 9186   8.095   8.904   8.451  2.0730  1.7167  0.0316
 2297SOL    HW2 9187   8.068   9.043   8.503 -0.7963  1.9088 -1.7149
 2297SOL     MW 9188   8.046   8.975   8.453  0.0839  0.4435 -0.2074
 2298SOL     OW 9189   5.225   8.272   2.459 -0.2833 -0.3156 -0.3243
 2298SOL    HW1 9190   5.317   8.297   2.457  0.1738 -1.6070  1.4765
 2298SOL    HW2 9191   5.209   8.233   2.373  0.4633  1.0941 -1.1293
 2298SOL     MW 9192   5.235   8.270   2.447 -0.1213 -0.2997 -0.1903
 2299SOL     OW 9193   6.032   1.855   6.839  0.2798  0.3867  0.5257
 2299SOL    HW1 9194   6.045   1.786   6.904  0.7092 -0.9889 -0.9546
 2299SOL    HW2 9195   5.938   1.874   6.843 -0.4396 -2.3173 -0.9197
 2299SOL     MW 9196   6.021   1.848   6.848  0.2407 -0.1624  0.1320
 2300SOL     OW 9197   5.064   8.321   8.187 -0.5778  0.3149  0.3067
 2300SOL    HW1 9198   4.996   8.270   8.143 -1.2324  0.4454  1.1345
 2300SOL    HW2 9199   5.042   8.315   8.280  1.0590 -0.3691  0.6879
 2300SOL     MW 9200   5.052   8.314   8.194 -0.4456  0.2404  0.4694
 2301SOL     OW 9201   4.078   7.901   6.789  0.0494 -0.2774 -0.5168
 2301SOL    HW1 9202   4.174   7.906   6.791  0.1143 -0.6873 -1.8410
 2301SOL    HW2 9203   4.054   7.924   6.699 -1.2947  2.4747  0.4172
 2301SOL     MW 9204   4.088   7.905   6.778 -0.1227  0.0378 -0.5693
 2302SOL     OW 9205   7.264   1.029   9.432 -0.2838 -0.1914  0.0426
 2302SOL    HW1 9206   7.357   1.049   9.434 -0.0504 -1.1916 -0.2916
 2302SOL    HW2 9207   7.259   0.937   9.455 -1.1547 -0.2723 -0.4218
 2302SOL     MW 9208   7.276   1.019   9.435 -0.3696 -0.3369 -0.0649
 2303SOL     OW 9209   5.299   8.931   1.517  0.2266  0.2159 -0.1696
 2303SOL    HW1 9210   5.235   8.885   1.462 -0.7972  0.3022  0.8947
 2303SOL    HW2 9211   5.384   8.900   1.487 -0.3792 -1.2083 -0.5095
 2303SOL     MW 9212   5.301   8.920   1.506  0.0073  0.0359 -0.0721
 2304SOL     OW 9213   5.570   1.230   3.453  0.1666  0.1614  0.0717
 2304SOL    HW1 9214   5.531   1.317   3.446 -1.8725 -0.6140  0.9537
 2304SOL    HW2 9215   5.642   1.242   3.514 -0.0187  1.2603  0.1014
 2304SOL     MW 9216   5.574   1.243   3.460 -0.1328  0.2049  0.1944
 2305SOL     OW 9217   5.719   1.025   3.988 -0.1148  0.1053 -0.0289
 2305SOL    HW1 9218   5.633   0.999   3.956 -0.7979  2.5661 -0.3853
 2305SOL    HW2 9219   5.718   1.005   4.081 -2.7485  3.7822  0.9370
 2305SOL     MW 9220   5.707   1.019   3.996 -0.5612  0.9314  0.0531
 2306SOL     OW 9221   6.989   8.306   4.703 -0.0004 -0.3647  0.2770
 2306SOL    HW1 9222   6.971   8.400   4.696  0.5630 -0.2644  0.1114
 2306SOL    HW2 9223   7.078   8.296   4.668  0.2477 -0.8455  1.0154
 2306SOL     MW 9224   6.999   8.317   4.697  0.1088 -0.4159  0.3541
 2307SOL     OW 9225   7.414   0.864   4.497 -0.8711  0.1270 -0.3611
 2307SOL    HW1 9226   7.392   0.800   4.565 -2.5616  0.6444 -0.3788
 2307SOL    HW2 9227   7.500   0.897   4.523 -1.2100 -0.1302  1.2038
 2307SOL     MW 9228   7.423   0.860   4.510 -1.1442  0.1620 -0.1529
 2308SOL     OW 9229   5.755   0.223   6.921 -0.3606  0.0401  0.0970
 2308SOL    HW1 9230   5.838   0.184   6.947 -0.8615 -0.5861  0.8272
 2308SOL    HW2 9231   5.716   0.158   6.861  0.2871  0.9673 -1.3841
 2308SOL     MW 9232   5.761   0.209   6.916 -0.3408  0.0806 -0.0040
 2309SOL     OW 9233   5.533   7.585   5.971  0.1125  0.5686 -0.4154
 2309SOL    HW1 9234   5.561   7.615   6.057  1.6326 -0.9929 -0.3253
 2309SOL    HW2 9235   5.447   7.544   5.987 -0.9563  2.7421 -0.1858
 2309SOL     MW 9236   5.525   7.583   5.984  0.1733  0.6509 -0.3724
 2310SOL     OW 9237   4.884   9.053   3.040  0.0409  0.6364  0.1134
 2310SOL    HW1 9238   4.830   9.005   2.978 -2.3253  1.6519  1.2441
 2310SOL    HW2 9239   4.850   9.028   3.126  1.3036  1.4462  0.8923
 2310SOL     MW 9240   4.872   9.043   3.043 -0.1076  0.8820  0.3704
 2311SOL     OW 9241   5.190   0.783   9.936  0.3632  0.4301  0.3862
 2311SOL    HW1 9242   5.229   0.858   9.890  0.2782  1.4971  1.9754
 2311SOL    HW2 9243   5.114   0.820   9.980  0.6261 -0.4778  1.6267
 2311SOL     MW 9244   5.185   0.798   9.935  0.3871  0.4515  0.7670
 2312SOL     OW 9245   4.347   1.330   9.942  0.4012 -0.2333  0.3726
 2312SOL    HW1 9246   4.402   1.401   9.909 -0.9979  1.1355  0.8352
 2312SOL    HW2 9247   4.348   1.342  10.037 -1.4089  0.4484  0.3475
 2312SOL     MW 9248   4.354   1.341   9.950 -0.0307  0.0427  0.4315
 2313SOL     OW 9249   7.432   0.671   6.886  0.0249 -0.1171 -0.2205
 2313SOL    HW1 9250   7.424   0.576   6.880 -1.3087  0.0091 -0.6267
 2313SOL    HW2 9251   7.347   0.705   6.858  0.1252  1.1696  0.9232
 2313SOL     MW 9252   7.420   0.663   6.881 -0.1411  0.0730 -0.1213
 2314SOL     OW 9253   4.861   9.542   3.573 -0.0541  0.0348  0.5897
 2314SOL    HW1 9254   4.899   9.612   3.520 -0.8618  0.6459  0.8078
 2314SOL    HW2 9255   4.824   9.481   3.509 -1.1709  0.8543  0.4358
 2314SOL     MW 9256   4.862   9.543   3.557 -0.3131  0.2273  0.5983
 2315SOL     OW 9257   5.003   8.558   8.057 -0.1040 -0.1328 -0.1515
 2315SOL    HW1 9258   4.985   8.475   8.102 -1.2082  0.8499  1.3549
 2315SOL    HW2 9259   5.075   8.539   7.997  0.4380 -1.9018  0.9889
 2315SOL     MW 9260   5.010   8.545   8.055 -0.1797 -0.2386  0.2047
 2316SOL     OW 9261   3.926   0.382   6.448 -0.1336 -0.3105  0.0988
 2316SOL    HW1 9262   3.840   0.366   6.408 -0.1772 -0.4928  0.2618
 2316SOL    HW2 9263   3.909   0.379   6.542  0.2365 -1.4586  0.1533
 2316SOL     MW 9264   3.912   0.379   6.455 -0.0897 -0.4895  0.1281
 2317SOL     OW 9265   5.906   1.994   7.414  0.1761 -0.2047  0.0346
 2317SOL    HW1 9266   5.892   1.993   7.508 -0.4308 -1.8881 -0.0356
 2317SOL    HW2 9267   5.819   1.980   7.376  0.4814 -0.0303 -0.7594
 2317SOL     MW 9268   5.892   1.992   7.422  0.1355 -0.4078 -0.0817
 2318SOL     OW 9269   4.304   0.627   8.210  0.3447 -0.3907 -0.1850
 2318SOL    HW1 9270   4.349   0.711   8.208 -1.4082  0.6754  1.3634
 2318SOL    HW2 9271   4.369   0.566   8.246  0.6807  1.0531  1.8468
 2318SOL     MW 9272   4.319   0.630   8.215  0.1540 -0.0529  0.2968
 2319SOL     OW 9273   8.202   9.940   5.942  0.3981  0.0853 -0.0488
 2319SOL    HW1 9274   8.186   9.964   6.033  0.1265 -0.2738  0.0018
 2319SOL    HW2 9275   8.252  10.014   5.906  0.3323  0.3206  0.3335
 2319SOL     MW 9276   8.206   9.953   5.949  0.3527  0.0686  0.0094
 2320SOL     OW 9277   5.837   8.850   0.958  0.2846 -0.1001 -0.2104
 2320SOL    HW1 9278   5.758   8.901   0.941  0.3142 -0.0648 -0.2404
 2320SOL    HW2 9279   5.814   8.761   0.928  0.0061 -0.2566  0.4600
 2320SOL     MW 9280   5.823   8.845   0.951  0.2511 -0.1164 -0.1242
 2321SOL     OW 9281   5.070   1.504   0.900 -0.3618 -0.0499 -0.0238
 2321SOL    HW1 9282   5.027   1.421   0.878 -0.3522 -0.0591 -0.0079
 2321SOL    HW2 9283   5.034   1.567   0.837 -1.0645  0.1405  0.5538
 2321SOL     MW 9284   5.059   1.501   0.889 -0.4550 -0.0255  0.0561
 2322SOL     OW 9285   4.191   0.436   3.086 -0.2129  0.2568 -0.0124
 2322SOL    HW1 9286   4.135   0.461   3.159 -0.7611  0.7479 -0.5879
 2322SOL    HW2 9287   4.275   0.479   3.104 -0.3087  0.2834  0.3820
 2322SOL     MW 9288   4.195   0.445   3.098 -0.2996  0.3265 -0.0368
 2323SOL     OW 9289   6.033   9.795   1.910 -0.1406  0.2523  0.2325
 2323SOL    HW1 9290   6.126   9.815   1.923  0.4081 -1.1133 -1.1235
 2323SOL    HW2 9291   5.997   9.788   1.998  0.6580  2.3388  0.7789
 2323SOL     MW 9292   6.041   9.797   1.923  0.0407  0.3493  0.1235
 2324SOL     OW 9293   5.573   8.990   2.228 -0.0560  0.1201  0.2086
 2324SOL    HW1 9294   5.651   9.008   2.176  0.7862  0.3492  1.5052
 2324SOL    HW2 9295   5.528   8.919   2.180 -0.7305  2.0223 -2.1985
 2324SOL     MW 9296   5.577   8.983   2.214 -0.0335  0.4069  0.0592
 2325SOL     OW 9297   6.426   0.906   4.461  0.6997 -0.3333  0.2484
 2325SOL    HW1 9298   6.389   0.825   4.428 -0.3131  0.3626 -0.3876
 2325SOL    HW2 9299   6.428   0.895   4.556  2.9172 -2.0517  0.0892
 2325SOL     MW 9300   6.422   0.894   4.469  0.8619 -0.4709  0.1414
 2326SOL     OW 9301   7.102   0.964   7.228 -0.4152 -0.2217  0.6311
 2326SOL    HW1 9302   7.027   1.019   7.248  0.3690  0.5922  1.3909
 2326SOL    HW2 9303   7.158   1.018   7.172 -0.0447 -0.5407  0.6857
 2326SOL     MW 9304   7.099   0.978   7.223 -0.2598 -0.1551  0.7407
 2327SOL     OW 9305   4.035   0.141   7.494 -0.1855  0.5597 -0.0758
 2327SOL    HW1 9306   4.126   0.148   7.465  0.0159  0.0949  0.4257
 2327SOL    HW2 9307   3.988   0.108   7.418  0.2240 -0.0485 -0.0700
 2327SOL     MW 9308   4.041   0.138   7.480 -0.1033  0.4153 -0.0075
 2328SOL     OW 9309   4.876   9.167   8.249  0.3638 -0.0886  0.0160
 2328SOL    HW1 9310   4.791   9.212   8.250 -0.7115 -1.7971 -2.8474
 2328SOL    HW2 9311   4.932   9.220   8.306 -1.8311  2.7174 -0.2152
 2328SOL     MW 9312   4.872   9.180   8.257 -0.0763  0.0591 -0.4005
 2329SOL     OW 9313   5.603   9.783   0.341  0.2570 -0.3398  0.2535
 2329SOL    HW1 9314   5.542   9.831   0.397  1.9586  1.6787  0.4722
 2329SOL    HW2 9315   5.603   9.832   0.259  1.4089 -0.4031  0.1981
 2329SOL     MW 9316   5.595   9.796   0.338  0.6410 -0.0766  0.2755
 2330SOL     OW 9317   6.347   8.690   8.675  0.5382  0.0530 -0.1430
 2330SOL    HW1 9318   6.352   8.689   8.770 -1.2816 -2.2160  0.0035
 2330SOL    HW2 9319   6.288   8.763   8.655  0.0717 -0.1273  0.5426
 2330SOL     MW 9320   6.340   8.700   8.685  0.2305 -0.2766 -0.0310
 2331SOL     OW 9321   7.392   0.705   1.169  0.6316  0.1723  0.5605
 2331SOL    HW1 9322   7.325   0.656   1.216 -0.6326  1.7690  0.5225
 2331SOL    HW2 9323   7.386   0.675   1.079  0.3690 -0.0997  0.6676
 2331SOL     MW 9324   7.382   0.695   1.163  0.4261  0.3506  0.5698
 2332SOL     OW 9325   5.504   2.060   7.419  0.2427  0.3499  0.5453
 2332SOL    HW1 9326   5.572   2.027   7.359 -0.3555 -0.6610  0.3885
 2332SOL    HW2 9327   5.499   2.153   7.400  1.4771  0.4167  0.4485
 2332SOL     MW 9328   5.513   2.068   7.408  0.3283  0.2229  0.5112
 2333SOL     OW 9329   4.391   0.179   5.661  0.3351  0.0451 -0.1001
 2333SOL    HW1 9330   4.475   0.153   5.699  0.6311  0.8012 -0.2120
 2333SOL    HW2 9331   4.391   0.140   5.574  0.3089 -0.4508  0.1215
 2333SOL     MW 9332   4.402   0.170   5.654  0.3714  0.0801 -0.0853
 2334SOL     OW 9333   5.143   1.192   4.307  0.1205  0.2472 -0.1696
 2334SOL    HW1 9334   5.094   1.114   4.330  0.7092 -0.1053 -0.0861
 2334SOL    HW2 9335   5.235   1.165   4.313  0.3548  1.1903  0.7366
 2334SOL     MW 9336   5.149   1.178   4.311  0.2312  0.3267 -0.0364
 2335SOL     OW 9337   6.871   1.434   4.338  0.5230  0.0976  0.1985
 2335SOL    HW1 9338   6.828   1.460   4.420 -0.4216 -1.2109  0.1532
 2335SOL    HW2 9339   6.942   1.376   4.366  0.1259 -0.4441  0.0953
 2335SOL     MW 9340   6.874   1.430   4.353  0.3424 -0.1514  0.1785
 2336SOL     OW 9341   3.718   9.954   1.604  0.1214 -0.1526 -0.4609
 2336SOL    HW1 9342   3.720   9.932   1.511  0.1562 -0.5403 -0.3683
 2336SOL    HW2 9343   3.772  10.033   1.611  0.4840 -0.3754 -0.7036
 2336SOL     MW 9344   3.726   9.962   1.593  0.1748 -0.2348 -0.4811
 2337SOL     OW 9345   5.743   9.291   7.197  0.3577 -0.1276 -0.0671
 2337SOL    HW1 9346   5.697   9.222   7.244 -2.3852  1.4686 -0.2263
 2337SOL    HW2 9347   5.753   9.362   7.261  1.3555  0.1077 -0.4539
 2337SOL     MW 9348   5.738   9.291   7.212  0.1229  0.1189 -0.1406
 2338SOL     OW 9349   5.446   9.434   5.440 -0.0226 -0.3160 -0.1110
 2338SOL    HW1 9350   5.357   9.433   5.405  0.6408 -1.7487 -1.9120
 2338SOL    HW2 9351   5.438   9.476   5.526 -2.2300  0.5914 -0.7103
 2338SOL     MW 9352   5.433   9.439   5.447 -0.2304 -0.3867 -0.4340
 2339SOL     OW 9353   5.628   7.860   9.486 -0.1319  0.1079 -0.0225
 2339SOL    HW1 9354   5.672   7.789   9.439  1.4409  0.4819  0.7976
 2339SOL    HW2 9355   5.690   7.934   9.481 -0.6020  0.6218  1.2882
 2339SOL     MW 9356   5.643   7.861   9.479  0.0165  0.2274  0.2642
 2340SOL     OW 9357   6.186   1.245   9.474 -0.5249 -0.4981  0.2012
 2340SOL    HW1 9358   6.091   1.244   9.461 -0.4818 -1.0578 -0.1061
 2340SOL    HW2 9359   6.211   1.336   9.462 -1.0689 -0.2921  0.6097
 2340SOL     MW 9360   6.177   1.257   9.471 -0.5923 -0.5457  0.2149
 2341SOL     OW 9361   7.122   8.940   0.911 -0.2351  0.4194  0.1055
 2341SOL    HW1 9362   7.209   8.976   0.895 -0.1826 -0.4186 -1.6533
 2341SOL    HW2 9363   7.062   9.003   0.871 -0.3372  0.1505 -0.1648
 2341SOL     MW 9364   7.126   8.954   0.904 -0.2418  0.2704 -0.1675
 2342SOL     OW 9365   6.417   0.215   3.317 -0.0329  0.1499  0.6841
 2342SOL    HW1 9366   6.332   0.228   3.359 -0.8872  1.6544 -1.3323
 2342SOL    HW2 9367   6.409   0.261   3.233  1.7099 -2.2352 -0.9229
 2342SOL     MW 9368   6.404   0.223   3.311  0.0867  0.0314  0.1965
 2343SOL     OW 9369   7.806   8.644   4.791  0.2223 -0.0321  0.2957
 2343SOL    HW1 9370   7.831   8.588   4.717 -1.9967  0.4881 -0.9526
 2343SOL    HW2 9371   7.761   8.718   4.751  1.0003  1.4881  2.0732
 2343SOL     MW 9372   7.803   8.646   4.776  0.0284  0.2425  0.3669
 2344SOL     OW 9373   7.500   1.329   5.299  0.5828 -0.9547 -0.5361
 2344SOL    HW1 9374   7.555   1.399   5.333  0.6103 -1.6822  0.9868
 2344SOL    HW2 9375   7.548   1.249   5.321 -0.1645 -1.5204 -0.9266
 2344SOL     MW 9376   7.514   1.327   5.306  0.4859 -1.1287 -0.3837
 2345SOL     OW 9377   3.875   0.525   5.927 -0.2714  0.2509  0.0050
 2345SOL    HW1 9378   3.895   0.600   5.872 -0.4468 -0.5245 -1.1574
 2345SOL    HW2 9379   3.925   0.453   5.889 -0.5579 -0.3581  0.7390
 2345SOL     MW 9380   3.884   0.525   5.915 -0.3335  0.0646 -0.0526
 2346SOL     OW 9381   4.168   8.734   8.316 -0.5257  0.6885 -0.0579
 2346SOL    HW1 9382   4.148   8.736   8.410  2.6707 -1.5536  0.8207
 2346SOL    HW2 9383   4.216   8.816   8.301  0.1841  0.4227  0.6464
 2346SOL     MW 9384   4.172   8.746   8.327 -0.0000  0.3510  0.1551
 2347SOL     OW 9385   6.871   0.707   4.116  0.5483 -0.6119 -0.3087
 2347SOL    HW1 9386   6.811   0.678   4.048 -1.4946  2.4835 -0.0584
 2347SOL    HW2 9387   6.833   0.674   4.197  0.3764 -0.4708 -0.3302
 2347SOL     MW 9388   6.858   0.699   4.118  0.2502 -0.1763 -0.2779
 2348SOL     OW 9389   3.873   8.790   7.636 -0.6378 -0.4818  0.3798
 2348SOL    HW1 9390   3.888   8.784   7.542 -3.0092 -0.3448 -0.0921
 2348SOL    HW2 9391   3.959   8.778   7.676  0.6419  0.6516 -1.8320
 2348SOL     MW 9392   3.886   8.788   7.629 -0.7847 -0.3108  0.0186
 2349SOL     OW 9393   6.210   9.798   8.604 -0.1984 -0.7773  0.0942
 2349SOL    HW1 9394   6.298   9.762   8.612  0.1912  0.2576  0.5729
 2349SOL    HW2 9395   6.221   9.880   8.555 -0.6494  0.1687  1.5029
 2349SOL     MW 9396   6.223   9.804   8.598 -0.2067 -0.5107  0.3482
 2350SOL     OW 9397   5.362   1.354   1.481  0.1009 -0.1194  0.3764
 2350SOL    HW1 9398   5.344   1.438   1.524 -0.0870 -1.2734  2.6935
 2350SOL    HW2 9399   5.293   1.296   1.512 -0.1235 -1.0330 -1.6629
 2350SOL     MW 9400   5.350   1.358   1.491  0.0454 -0.3977  0.4138
 2351SOL     OW 9401   4.752   8.714   3.918 -0.1404  0.0697  0.2720
 2351SOL    HW1 9402   4.728   8.675   4.002 -0.1121  0.8172  0.6303
 2351SOL    HW2 9403   4.846   8.700   3.910 -0.2062 -0.3403  0.1821
 2351SOL     MW 9404   4.761   8.707   3.928 -0.1455  0.1151  0.3081
 2352SOL     OW 9405   6.589  10.158   5.771  0.1881  0.3639 -0.1822
 2352SOL    HW1 9406   6.560  10.160   5.862  0.8349  0.6418  0.0168
 2352SOL    HW2 9407   6.681  10.132   5.775 -0.2467 -1.4922 -0.8634
 2352SOL     MW 9408   6.597  10.155   5.784  0.2167  0.1515 -0.2471
 2353SOL     OW 9409   7.574   9.353   4.954  0.1628  0.3540 -0.0493
 2353SOL    HW1 9410   7.647   9.292   4.949  0.3587  0.4438  1.3438
 2353SOL    HW2 9411   7.519   9.319   5.024 -2.0348 -0.6269 -2.1194
 2353SOL     MW 9412   7.576   9.340   4.963 -0.1066  0.2341 -0.1404
 2354SOL     OW 9413   4.124   8.530   4.216  0.3360  0.2745 -0.5058
 2354SOL    HW1 9414   4.143   8.623   4.224 -2.4119  0.8182  0.8331
 2354SOL    HW2 9415   4.107   8.516   4.123 -0.2374  1.3443 -0.5723
 2354SOL     MW 9416   4.125   8.540   4.205 -0.1110  0.4916 -0.3345
 2355SOL     OW 9417   5.885   8.032   9.294 -0.2511  0.1287  0.0289
 2355SOL    HW1 9418   5.888   8.121   9.260 -0.8660  0.3912  0.6392
 2355SOL    HW2 9419   5.976   8.002   9.290  0.2269  1.3174  1.1560
 2355SOL     MW 9420   5.898   8.040   9.289 -0.2695  0.3240  0.2627
 2356SOL     OW 9421   6.194   1.607   0.592 -0.1973  0.4527  0.1062
 2356SOL    HW1 9422   6.255   1.549   0.637  0.3385  0.2282 -0.8676
 2356SOL    HW2 9423   6.166   1.557   0.515 -0.1710  1.2572 -0.4430
 2356SOL     MW 9424   6.199   1.592   0.588 -0.1216  0.5308 -0.0988
 2357SOL     OW 9425   6.520   8.407   3.119 -0.0815 -0.7309  0.1508
 2357SOL    HW1 9426   6.511   8.346   3.045  2.7281 -0.5553 -0.4566
 2357SOL    HW2 9427   6.598   8.375   3.166  1.0649  1.9202  0.2128
 2357SOL     MW 9428   6.530   8.394   3.115  0.4509 -0.3505  0.0774
 2358SOL     OW 9429   6.972   9.868   2.292 -0.5417  0.0131 -0.4892
 2358SOL    HW1 9430   6.958   9.881   2.198 -0.2242 -1.1623 -0.7141
 2358SOL    HW2 9431   6.890   9.830   2.323  0.1473 -1.7385 -0.7462
 2358SOL     MW 9432   6.959   9.865   2.284 -0.4062 -0.3809 -0.5541
 2359SOL     OW 9433   4.543   8.482   0.861 -0.2579 -0.4688  0.2711
 2359SOL    HW1 9434   4.583   8.396   0.869  0.4938 -0.0489  1.4927
 2359SOL    HW2 9435   4.496   8.494   0.944  0.2654  0.5749  0.4329
 2359SOL     MW 9436   4.542   8.472   0.874 -0.0863 -0.2718  0.4573
 2360SOL     OW 9437   6.481   9.904   0.563  0.7126 -0.1310 -0.2067
 2360SOL    HW1 9438   6.496   9.928   0.472 -0.3191  1.3328 -0.0092
 2360SOL    HW2 9439   6.544   9.956   0.613 -0.2634  0.8101  0.0757
 2360SOL     MW 9440   6.492   9.914   0.558  0.4424  0.1927 -0.1421
 2361SOL     OW 9441   4.063   0.635   5.057 -0.0856  0.3676  0.2132
 2361SOL    HW1 9442   4.156   0.655   5.051 -0.0076 -0.1026 -0.2567
 2361SOL    HW2 9443   4.061   0.548   5.098 -0.0747 -1.5585 -3.4301
 2361SOL     MW 9444   4.075   0.626   5.062 -0.0737  0.0451 -0.3403
 2362SOL     OW 9445   6.069   7.881   3.089 -0.6323  0.3335  0.3763
 2362SOL    HW1 9446   6.151   7.844   3.056 -0.5822 -0.3885  1.2652
 2362SOL    HW2 9447   6.073   7.974   3.066 -0.4972 -0.0825 -1.4024
 2362SOL     MW 9448   6.080   7.888   3.082 -0.6074  0.1803  0.2565
 2363SOL     OW 9449   7.713   0.312   6.902  0.4377 -0.1641  0.0967
 2363SOL    HW1 9450   7.630   0.350   6.872 -0.3702 -1.5887  0.4576
 2363SOL    HW2 9451   7.777   0.340   6.836 -0.5968 -0.2414 -0.9777
 2363SOL     MW 9452   7.710   0.321   6.889  0.1898 -0.3662  0.0007
 2364SOL     OW 9453   6.011   8.498   8.373 -0.2572  0.1921  0.3114
 2364SOL    HW1 9454   6.064   8.487   8.294 -0.6013 -1.0947  0.2271
 2364SOL    HW2 9455   6.075   8.510   8.443  0.1383 -0.7971  0.1343
 2364SOL     MW 9456   6.026   8.498   8.371 -0.2503 -0.1142  0.2762
 2365SOL     OW 9457   6.551   1.214   1.562 -0.1155 -0.9137  0.4276
 2365SOL    HW1 9458   6.592   1.158   1.628  0.3347  0.7891  1.6646
 2365SOL    HW2 9459   6.459   1.220   1.590  0.0314 -0.3489  0.7972
 2365SOL     MW 9460   6.544   1.207   1.574 -0.0352 -0.6086  0.6438
 2366SOL     OW 9461   6.507   7.517   4.380  0.0968  0.1783  0.1917
 2366SOL    HW1 9462   6.602   7.505   4.383  0.1332  0.5444  0.9066
 2366SOL    HW2 9463   6.487   7.563   4.462 -0.6128  0.6936 -0.2641
 2366SOL     MW 9464   6.517   7.522   4.392  0.0062  0.2969  0.2266
 2367SOL     OW 9465   5.873   1.334   6.895 -0.1856 -0.5283 -0.1832
 2367SOL    HW1 9466   5.953   1.356   6.847  1.2584 -2.5864  1.1013
 2367SOL    HW2 9467   5.806   1.326   6.827  0.5895  1.5231 -1.2684
 2367SOL     MW 9468   5.875   1.336   6.880  0.1130 -0.5292 -0.1564
 2368SOL     OW 9469   6.043   0.892   7.906  0.1748  0.2653 -0.4155
 2368SOL    HW1 9470   5.953   0.924   7.901  0.2827  0.4009 -3.2789
 2368SOL    HW2 9471   6.094   0.967   7.937 -0.3658  1.0057 -1.2769
 2368SOL     MW 9472   6.038   0.906   7.910  0.1166  0.3832 -0.9168
 2369SOL     OW 9473   7.177   0.483   2.987 -0.3782  0.3394  0.3706
 2369SOL    HW1 9474   7.133   0.567   2.977  3.5016  2.6677  0.5776
 2369SOL    HW2 9475   7.188   0.451   2.898  1.1173  1.9089 -0.0661
 2369SOL     MW 9476   7.173   0.490   2.974  0.3452  0.8640  0.3397
 2370SOL     OW 9477   5.445   0.678   5.933 -0.1729  0.3612 -0.1548
 2370SOL    HW1 9478   5.359   0.685   5.891  0.5595 -0.1741 -1.8453
 2370SOL    HW2 9479   5.435   0.607   5.996 -1.9193  2.6005  2.2791
 2370SOL     MW 9480   5.432   0.669   5.936 -0.3093  0.5905 -0.0548
 2371SOL     OW 9481   5.806   9.686   9.958  0.4456  0.7783  0.3540
 2371SOL    HW1 9482   5.830   9.604   9.916 -1.6692  0.3834 -0.1868
 2371SOL    HW2 9483   5.875   9.747   9.932  2.0274 -0.7701  0.7219
 2371SOL     MW 9484   5.818   9.683   9.949  0.3739  0.5168  0.3308
 2372SOL     OW 9485   7.477   9.893   4.610  0.4480  0.3608 -0.1729
 2372SOL    HW1 9486   7.433   9.959   4.557  0.2576  0.4457  0.0854
 2372SOL    HW2 9487   7.462   9.921   4.700  0.5368  0.0714 -0.0660
 2372SOL     MW 9488   7.469   9.906   4.615  0.4343  0.3333 -0.1237
 2373SOL     OW 9489   4.417   0.360   0.462 -0.0072  0.0200 -0.3046
 2373SOL    HW1 9490   4.434   0.267   0.454  2.2195  0.4459 -1.3151
 2373SOL    HW2 9491   4.356   0.380   0.390 -2.1557 -0.9205  1.1416
 2373SOL     MW 9492   4.411   0.350   0.451  0.0033 -0.0492 -0.2460
 2374SOL     OW 9493   5.490   9.726   3.565 -0.1491 -0.0209 -0.6081
 2374SOL    HW1 9494   5.525   9.637   3.569  0.9713  0.4570  0.8191
 2374SOL    HW2 9495   5.540   9.775   3.630 -0.8161  1.6425 -1.2923
 2374SOL     MW 9496   5.501   9.720   3.574 -0.0881  0.2672 -0.5081
 2375SOL     OW 9497   5.324  10.132   0.218 -0.1522  0.6126  0.9234
 2375SOL    HW1 9498   5.396  10.164   0.164 -0.4358  0.5338  0.4899
 2375SOL    HW2 9499   5.351  10.151   0.308 -0.0544  1.5153  0.7107
 2375SOL     MW 9500   5.337  10.138   0.223 -0.1772  0.7235  0.8365
 2376SOL     OW 9501   6.247   9.551   7.710 -0.0063  0.0833  0.1094
 2376SOL    HW1 9502   6.340   9.537   7.689 -0.4425  0.1237 -2.1337
 2376SOL    HW2 9503   6.214   9.464   7.732  0.5319  0.0502  0.8056
 2376SOL     MW 9504   6.255   9.538   7.710  0.0074  0.0843 -0.0988
 2377SOL     OW 9505   4.130   8.584   0.952  0.0118  0.0495  0.2689
 2377SOL    HW1 9506   4.132   8.559   0.859 -1.8145 -1.3640  0.5399
 2377SOL    HW2 9507   4.217   8.563   0.985  0.1606 -1.1064 -0.7664
 2377SOL     MW 9508   4.142   8.578   0.944 -0.2139 -0.2963  0.1660
 2378SOL     OW 9509   6.132   7.837   6.119  0.0162 -0.6810 -0.2190
 2378SOL    HW1 9510   6.076   7.901   6.075  1.3844 -0.8099 -2.3181
 2378SOL    HW2 9511   6.155   7.774   6.050  3.7934  0.1151  0.0787
 2378SOL     MW 9512   6.128   7.837   6.104  0.7086 -0.5912 -0.4614
 2379SOL     OW 9513   5.472   8.643   7.952 -0.2862  0.4264  0.3621
 2379SOL    HW1 9514   5.397   8.696   7.925  0.2140  0.5641 -0.8254
 2379SOL    HW2 9515   5.441   8.596   8.029 -1.0485  1.7301  0.8888
 2379SOL     MW 9516   5.457   8.644   7.958 -0.3215  0.6204  0.2732
 2380SOL     OW 9517   5.084   0.288   8.819 -0.0784 -0.0064  0.0441
 2380SOL    HW1 9518   5.083   0.197   8.789 -0.6774  0.1961 -0.5783
 2380SOL    HW2 9519   4.998   0.323   8.794 -0.2057  0.4742  1.1015
 2380SOL     MW 9520   5.072   0.281   8.811 -0.1762  0.0856  0.1027
 2381SOL     OW 9521   6.518   9.853   7.937 -0.7219  0.2539 -0.2165
 2381SOL    HW1 9522   6.449   9.790   7.957 -0.2847 -0.4030 -0.7345
 2381SOL    HW2 9523   6.581   9.841   8.007 -0.1350 -0.6547 -0.8682
 2381SOL     MW 9524   6.517   9.843   7.949 -0.5841  0.0432 -0.3740
 2382SOL     OW 9525   8.030   0.220   7.119 -0.0825 -0.5632 -0.3647
 2382SOL    HW1 9526   7.943   0.258   7.128 -0.2880 -0.2746 -2.7912
 2382SOL    HW2 9527   8.048   0.181   7.204 -2.4447 -0.3488  0.3132
 2382SOL     MW 9528   8.020   0.220   7.132 -0.4281 -0.4955 -0.6000
 2383SOL     OW 9529   3.520   9.867   2.685 -0.3530 -0.7050  0.2007
 2383SOL    HW1 9530   3.512   9.773   2.668 -0.4308 -0.7980  0.7529
 2383SOL    HW2 9531   3.553   9.903   2.602  0.3750 -1.3155  0.2149
 2383SOL     MW 9532   3.523   9.859   2.671 -0.2655 -0.7997  0.2770
 2384SOL     OW 9533   5.652   8.073   2.624 -0.3257 -0.0436 -0.3289
 2384SOL    HW1 9534   5.673   8.145   2.565  1.2569 -0.9777 -0.9587
 2384SOL    HW2 9535   5.696   8.095   2.706  1.2863 -0.8912 -0.9332
 2384SOL     MW 9536   5.660   8.085   2.627  0.1042 -0.2834 -0.4950
 2385SOL     OW 9537   5.983   8.973   0.037 -0.3668  0.2497  0.4283
 2385SOL    HW1 9538   5.998   9.010  -0.050 -0.3156  0.8153  0.6712
 2385SOL    HW2 9539   6.042   9.022   0.094  2.6123 -2.7817  0.2250
 2385SOL     MW 9540   5.993   8.985   0.033  0.0410 -0.0822  0.4336
 2386SOL     OW 9541   5.994   0.413   1.568 -0.3222  0.8863 -0.1473
 2386SOL    HW1 9542   5.969   0.422   1.476 -1.0383  0.5814  0.0024
 2386SOL    HW2 9543   6.061   0.479   1.582 -0.3662  1.0853 -0.8352
 2386SOL     MW 9544   6.000   0.423   1.558 -0.4245  0.8720 -0.2197
 2387SOL     OW 9545   4.661   8.957   8.479  0.1509 -0.3496 -0.4182
 2387SOL    HW1 9546   4.734   9.017   8.496  0.2958 -1.0477  1.8030
 2387SOL    HW2 9547   4.583   9.005   8.508 -0.1112 -0.1378 -1.4467
 2387SOL     MW 9548   4.660   8.971   8.486  0.1351 -0.4151 -0.2577
 2388SOL     OW 9549   7.410   9.679   5.341 -0.5024 -0.5696 -0.1442
 2388SOL    HW1 9550   7.334   9.629   5.311  0.2996 -0.2730 -3.0186
 2388SOL    HW2 9551   7.481   9.614   5.346 -0.5240 -0.5285  0.7299
 2388SOL     MW 9552   7.410   9.663   5.337 -0.3974 -0.5241 -0.4134
 2389SOL     OW 9553   7.418   8.853   3.945 -0.4094  0.4490 -0.1264
 2389SOL    HW1 9554   7.333   8.835   3.986  1.1787 -0.3060  3.0940
 2389SOL    HW2 9555   7.478   8.789   3.983  2.0145  2.0995 -0.9234
 2389SOL     MW 9556   7.414   8.842   3.956  0.1305  0.5696  0.1998
 2390SOL     OW 9557   5.105   9.866   9.793 -0.0060 -0.7676  0.2754
 2390SOL    HW1 9558   5.051   9.795   9.758  0.2050 -0.5993 -0.4097
 2390SOL    HW2 9559   5.146   9.828   9.871 -2.4398 -0.3667  1.8595
 2390SOL     MW 9560   5.103   9.851   9.799 -0.3052 -0.6910  0.3964
 2391SOL     OW 9561   5.844   1.520   9.438 -0.2402  0.5657  0.0609
 2391SOL    HW1 9562   5.770   1.540   9.380  1.5474 -0.8179 -2.9097
 2391SOL    HW2 9563   5.913   1.581   9.411  0.6858 -0.1763  0.6910
 2391SOL     MW 9564   5.843   1.531   9.427  0.1250  0.2796 -0.2541
 2392SOL     OW 9565   6.765   1.685   7.417 -0.0907 -0.1580 -0.3218
 2392SOL    HW1 9566   6.830   1.701   7.348  0.6148  0.6909  0.5100
 2392SOL    HW2 9567   6.684   1.722   7.383  0.0975 -0.3261 -0.9625
 2392SOL     MW 9568   6.763   1.692   7.403  0.0296 -0.0664 -0.2961
 2393SOL     OW 9569   7.111   9.608  10.086  0.2060  0.5042 -0.4726
 2393SOL    HW1 9570   7.073   9.523  10.062 -0.6119  1.0001 -0.9985
 2393SOL    HW2 9571   7.036   9.661  10.112  0.6171  1.2963 -0.8571
 2393SOL     MW 9572   7.096   9.604  10.086  0.1513  0.6775 -0.5951
 2394SOL     OW 9573   5.612   8.026   7.588 -0.4640  0.2158  0.1162
 2394SOL    HW1 9574   5.632   8.091   7.522  0.3314  0.6188  0.7343
 2394SOL    HW2 9575   5.695   8.012   7.634 -0.9545 -0.1943  0.9001
 2394SOL     MW 9576   5.626   8.033   7.586 -0.4229  0.2148  0.3049
 2395SOL     OW 9577   6.169   0.816   1.344 -0.3507  0.2431 -0.3646
 2395SOL    HW1 9578   6.136   0.890   1.293 -0.4818 -0.2823 -1.0494
 2395SOL    HW2 9579   6.107   0.807   1.416  1.1409  2.5586  1.3889
 2395SOL     MW 9580   6.157   0.825   1.347 -0.1676  0.4840 -0.2208
 2396SOL     OW 9581   5.676   9.115   1.373 -0.2160  0.4984  0.2756
 2396SOL    HW1 9582   5.751   9.056   1.364 -1.0569 -0.3584 -1.8834
 2396SOL    HW2 9583   5.703   9.194   1.325 -0.0680  0.8558  0.9435
 2396SOL     MW 9584   5.690   9.118   1.365 -0.3093  0.4312  0.0749
 2397SOL     OW 9585   5.798   1.982   6.945 -0.1756 -0.3052 -0.2256
 2397SOL    HW1 9586   5.856   2.057   6.932  1.0036 -1.4657 -2.2496
 2397SOL    HW2 9587   5.720   2.002   6.894  0.5377 -0.8027 -1.5704
 2397SOL     MW 9588   5.796   1.995   6.936  0.0791 -0.5283 -0.6789
 2398SOL     OW 9589   6.313   8.931   2.173 -0.0756  0.2817 -0.3166
 2398SOL    HW1 9590   6.224   8.953   2.147 -0.1864  0.7599  0.4196
 2398SOL    HW2 9591   6.327   8.980   2.254  1.1764  0.9225 -0.8994
 2398SOL     MW 9592   6.303   8.940   2.181  0.0780  0.4323 -0.2959
 2399SOL     OW 9593   7.022   8.698   0.112  0.0043 -0.2438 -0.5516
 2399SOL    HW1 9594   6.948   8.744   0.074 -0.7202 -1.1490 -0.2729
 2399SOL    HW2 9595   7.097   8.726   0.060 -0.2184  2.0514  0.2750
 2399SOL     MW 9596   7.022   8.708   0.100 -0.1232 -0.0568 -0.4028
 2400SOL     OW 9597   5.054   0.406   4.137  0.4647 -0.1206  0.2203
 2400SOL    HW1 9598   5.139   0.438   4.108  0.8505 -0.7115  0.6562
 2400SOL    HW2 9599   5.005   0.485   4.158  0.4837  0.2770 -1.1396
 2400SOL     MW 9600   5.059   0.421   4.136  0.5192 -0.1466  0.0959
 2401SOL     OW 9601   4.645   9.913   3.859  0.2465  0.0564 -0.3158
 2401SOL    HW1 9602   4.656   9.830   3.814 -1.2791  0.7745 -2.1647
 2401SOL    HW2 9603   4.654   9.979   3.790  1.4670  1.4574  1.1038
 2401SOL     MW 9604   4.648   9.911   3.844  0.2054  0.3416 -0.3736
 2402SOL     OW 9605   6.378   0.847   7.538  0.1656 -0.1879 -0.3250
 2402SOL    HW1 9606   6.374   0.799   7.455  1.0307 -0.0620 -0.4523
 2402SOL    HW2 9607   6.299   0.821   7.585 -0.8167  0.4298 -1.5591
 2402SOL     MW 9608   6.367   0.837   7.533  0.1498 -0.0879 -0.5082
 2403SOL     OW 9609   8.340   0.016   5.795 -0.0151 -0.0359 -0.4586
 2403SOL    HW1 9610   8.301   0.022   5.708  1.5040  1.1378 -1.1007
 2403SOL    HW2 9611   8.434   0.023   5.780  0.2740  0.4552  1.3167
 2403SOL     MW 9612   8.348   0.018   5.781  0.2283  0.1882 -0.3061
 2404SOL     OW 9613   5.851   7.517   0.749  0.0384  0.1692  0.4164
 2404SOL    HW1 9614   5.758   7.540   0.757 -0.6133 -1.6823 -1.0376
 2404SOL    HW2 9615   5.888   7.534   0.836 -1.6987  0.7433  1.0838
 2404SOL     MW 9616   5.843   7.523   0.762 -0.2831 -0.0027  0.3106
 2405SOL     OW 9617   6.778   9.609   2.090  0.0786  0.6574  0.2580
 2405SOL    HW1 9618   6.689   9.580   2.111  0.1162  0.1057 -0.2866
 2405SOL    HW2 9619   6.832   9.532   2.106  0.3695  0.8060 -0.0026
 2405SOL     MW 9620   6.773   9.595   2.095  0.1228  0.6032  0.1497
 2406SOL     OW 9621   6.083   8.087  10.101 -0.0494  0.0210 -0.4680
 2406SOL    HW1 9622   6.078   8.175  10.066 -1.7582 -0.1382 -0.6982
 2406SOL    HW2 9623   6.021   8.087  10.174 -0.4963 -1.1495 -0.8355
 2406SOL     MW 9624   6.074   8.099  10.106 -0.3395 -0.1580 -0.5485
 2407SOL     OW 9625   5.679   8.509   8.250 -0.0787  0.2105 -0.0329
 2407SOL    HW1 9626   5.726   8.591   8.266  0.4745 -0.1278  0.0996
 2407SOL    HW2 9627   5.746   8.448   8.220 -0.4372 -0.2791  0.1405
 2407SOL     MW 9628   5.694   8.512   8.248 -0.0525  0.0991  0.0083
 2408SOL     OW 9629   5.943   8.544   5.014 -0.1425 -0.1229 -0.2680
 2408SOL    HW1 9630   5.996   8.554   5.093 -0.1400 -0.5932 -0.2118
 2408SOL    HW2 9631   5.966   8.458   4.980  1.1379  0.7340 -1.7265
 2408SOL     MW 9632   5.953   8.534   5.020  0.0301 -0.0708 -0.4567
 2409SOL     OW 9633   6.405   8.572   6.470 -0.1793  0.3501  0.1322
 2409SOL    HW1 9634   6.411   8.547   6.378  0.4227  2.4679 -0.4471
 2409SOL    HW2 9635   6.324   8.622   6.477  0.0763  0.7005  0.6240
 2409SOL     MW 9636   6.395   8.575   6.459 -0.0639  0.6823  0.1204
 2410SOL     OW 9637   5.577  10.128   4.140 -0.2673  0.1695  0.2327
 2410SOL    HW1 9638   5.552  10.046   4.098 -1.1988  0.7906 -0.4861
 2410SOL    HW2 9639   5.607  10.103   4.227 -1.4761 -0.8451  0.3811
 2410SOL     MW 9640   5.578  10.114   4.146 -0.5553  0.1165  0.1560
 2411SOL     OW 9641   4.723   0.740   2.757  0.2209 -0.1465 -0.1593
 2411SOL    HW1 9642   4.750   0.773   2.671  0.1627  0.3758  0.0206
 2411SOL    HW2 9643   4.760   0.651   2.761  0.0933 -0.2307 -0.7841
 2411SOL     MW 9644   4.732   0.732   2.746  0.1959 -0.0876 -0.2192
 2412SOL     OW 9645   6.264   8.731   3.093 -0.5342 -0.0188  0.2659
 2412SOL    HW1 9646   6.330   8.751   3.027  1.1137 -0.6506  1.6251
 2412SOL    HW2 9647   6.256   8.636   3.090  2.1208 -0.5033  3.1129
 2412SOL     MW 9648   6.272   8.721   3.084  0.0449 -0.1690  0.8320
 2413SOL     OW 9649   4.725   0.887   3.232  0.6065  0.3351  0.2187
 2413SOL    HW1 9650   4.681   0.901   3.316  0.1471  1.5836 -0.2091
 2413SOL    HW2 9651   4.657   0.851   3.175  0.6985  0.2906  0.1352
 2413SOL     MW 9652   4.710   0.884   3.235  0.5570  0.4971  0.1499
 2414SOL     OW 9653   5.310   0.356   5.316  0.0448  0.2291  0.2676
 2414SOL    HW1 9654   5.391   0.400   5.342 -0.5845  0.9407  1.0876
 2414SOL    HW2 9655   5.272   0.325   5.398 -1.7447  2.0935  0.2284
 2414SOL     MW 9656   5.316   0.358   5.331 -0.2807  0.5758  0.3727
 2415SOL     OW 9657   6.853   0.763   8.776  0.0055 -0.4085 -0.1752
 2415SOL    HW1 9658   6.896   0.731   8.855  1.4718  1.4906 -0.1358
 2415SOL    HW2 9659   6.911   0.832   8.743 -0.4681 -1.2011 -3.0004
 2415SOL     MW 9660   6.867   0.768   8.782  0.1391 -0.2596 -0.5501
 2416SOL     OW 9661   5.653   0.937   5.676 -0.0262  0.3364  0.3036
 2416SOL    HW1 9662   5.642   1.032   5.678  1.3038  0.5617 -0.9825
 2416SOL    HW2 9663   5.593   0.908   5.607  0.2346  0.3695  0.0590
 2416SOL     MW 9664   5.644   0.946   5.667  0.1879  0.3712  0.0976
 2417SOL     OW 9665   7.757   9.158   4.101  0.7186  0.0127 -0.1255
 2417SOL    HW1 9666   7.767   9.251   4.121 -1.4467  0.4570 -0.7713
 2417SOL    HW2 9667   7.730   9.118   4.184 -2.9103  0.8904 -0.6830
 2417SOL     MW 9668   7.755   9.165   4.115 -0.0612  0.1906 -0.2875
 2418SOL     OW 9669   5.366   9.485   7.450 -0.3479 -0.2261 -0.0999
 2418SOL    HW1 9670   5.312   9.537   7.391  0.3960 -0.3212 -0.8760
 2418SOL    HW2 9671   5.372   9.399   7.409  1.5740  0.1853 -0.7962
 2418SOL     MW 9672   5.359   9.481   7.437  0.0108 -0.1835 -0.2981
 2419SOL     OW 9673   6.207   0.947   2.723 -0.0164 -0.2998  0.2977
 2419SOL    HW1 9674   6.230   1.005   2.796  0.1759  1.0610 -0.7904
 2419SOL    HW2 9675   6.289   0.934   2.675 -0.0274 -1.6253  0.6150
 2419SOL     MW 9676   6.221   0.953   2.726  0.0080 -0.2950  0.1940
 2420SOL     OW 9677   5.881   7.974   7.268 -0.3214 -0.1810 -0.1901
 2420SOL    HW1 9678   5.798   7.985   7.220 -0.4651 -3.4849 -0.8898
 2420SOL    HW2 9679   5.948   8.006   7.207 -0.7688 -1.4474 -1.3895
 2420SOL     MW 9680   5.879   7.980   7.253 -0.4009 -0.7961 -0.4457
 2421SOL     OW 9681   6.008   7.974   3.355 -0.1102 -0.2294 -0.6598
 2421SOL    HW1 9682   6.021   7.928   3.272  0.7595 -0.3484 -0.4639
 2421SOL    HW2 9683   5.915   7.959   3.376 -0.4881  0.3120 -1.8989
 2421SOL     MW 9684   5.997   7.966   3.347 -0.0440 -0.1726 -0.8002
 2422SOL     OW 9685   6.361   7.836   3.074  0.9442 -0.3924  0.0147
 2422SOL    HW1 9686   6.448   7.858   3.040  0.9947 -1.4113 -0.5860
 2422SOL    HW2 9687   6.374   7.821   3.168  0.9622  1.6694  0.3814
 2422SOL     MW 9688   6.374   7.837   3.082  0.9534 -0.2520 -0.0168
 2423SOL     OW 9689   3.958   0.412   8.342  0.3164 -0.1297  0.5784
 2423SOL    HW1 9690   3.869   0.383   8.363 -0.1822  1.0530  0.1715
 2423SOL    HW2 9691   3.957   0.423   8.247  0.4374  1.2975  0.7191
 2423SOL     MW 9692   3.946   0.409   8.332  0.2656  0.2215  0.5426
 2424SOL     OW 9693   7.475   9.651   5.041 -0.3244  0.3182 -0.2973
 2424SOL    HW1 9694   7.450   9.642   5.133 -0.3586  0.0205 -0.3333
 2424SOL    HW2 9695   7.449   9.568   5.001  0.4637  0.1015 -0.3906
 2424SOL     MW 9696   7.468   9.639   5.048 -0.2230  0.2490 -0.3147
 2425SOL     OW 9697   6.885   1.587   9.461 -0.2881 -0.2037  0.8760
 2425SOL    HW1 9698   6.797   1.555   9.440 -0.3781 -0.2549  1.3164
 2425SOL    HW2 9699   6.937   1.567   9.383 -0.5340 -0.7014  0.8327
 2425SOL     MW 9700   6.880   1.580   9.448 -0.3333 -0.2775  0.9294
 2426SOL     OW 9701   5.098   8.270   9.956  0.0669  0.1455 -0.0137
 2426SOL    HW1 9702   5.139   8.185   9.939 -2.6044 -0.8102 -2.4509
 2426SOL    HW2 9703   5.137   8.329   9.891  1.9065  0.8852  1.6658
 2426SOL     MW 9704   5.108   8.266   9.945 -0.0450  0.1165 -0.1157
 2427SOL     OW 9705   6.398   7.927   7.260  0.3015  0.0373 -0.2044
 2427SOL    HW1 9706   6.364   7.838   7.270  1.4755 -0.4633 -0.5472
 2427SOL    HW2 9707   6.489   7.916   7.233  0.7071  1.3489  0.5224
 2427SOL     MW 9708   6.406   7.914   7.258  0.5141  0.1465 -0.1527
 2428SOL     OW 9709   4.159   8.486   5.505  0.1243 -0.4568 -0.0808
 2428SOL    HW1 9710   4.208   8.408   5.479  0.6327 -0.9678  2.2508
 2428SOL    HW2 9711   4.083   8.452   5.553  0.0306  0.4631  0.4446
 2428SOL     MW 9712   4.155   8.471   5.508  0.1801 -0.4017  0.3037
 2429SOL     OW 9713   4.708   8.886   2.191  0.2626 -0.2916  0.3388
 2429SOL    HW1 9714   4.674   8.802   2.222 -0.5685  0.5426  1.8544
 2429SOL    HW2 9715   4.786   8.864   2.140 -0.0898 -1.9865  0.4865
 2429SOL     MW 9716   4.714   8.872   2.189  0.1034 -0.4074  0.5627
 2430SOL     OW 9717   4.243   9.167   3.226 -0.4109  0.4225  0.0523
 2430SOL    HW1 9718   4.199   9.118   3.157 -1.0326  0.1195  0.6460
 2430SOL    HW2 9719   4.174   9.183   3.291 -0.2387  2.1742 -0.1643
 2430SOL     MW 9720   4.228   9.162   3.226 -0.4714  0.6175  0.1030
 2431SOL     OW 9721   7.153   9.012   5.910 -0.1678 -0.6419 -0.3794
 2431SOL    HW1 9722   7.089   8.973   5.849 -0.0118 -0.4202 -0.6854
 2431SOL    HW2 9723   7.140   9.106   5.901 -0.4390 -0.6163  0.2510
 2431SOL     MW 9724   7.142   9.019   5.901 -0.1833 -0.6086 -0.3358
 2432SOL     OW 9725   4.497  10.014   9.728 -0.1817 -0.0235 -0.0598
 2432SOL    HW1 9726   4.429  10.045   9.668 -0.9836  0.3045  0.9823
 2432SOL    HW2 9727   4.547  10.092   9.752  0.4176 -0.2247 -0.6340
 2432SOL     MW 9728   4.494  10.029   9.724 -0.2090 -0.0064  0.0032
 2433SOL     OW 9729   6.210   0.367   2.069 -0.9774  0.4790 -0.2675
 2433SOL    HW1 9730   6.245   0.401   2.152 -0.0227 -0.0262 -0.4459
 2433SOL    HW2 9731   6.149   0.434   2.040 -1.9399  0.3155  1.2324
 2433SOL     MW 9732   6.207   0.380   2.076 -0.9785  0.3890 -0.0897
 2434SOL     OW 9733   6.388   1.903   1.096 -0.1995 -0.0612 -0.2782
 2434SOL    HW1 9734   6.475   1.893   1.135 -0.3126 -1.1350 -0.2914
 2434SOL    HW2 9735   6.406   1.921   1.003  0.0146  0.1061 -0.2062
 2434SOL     MW 9736   6.402   1.904   1.089 -0.1859 -0.1832 -0.2702
 2435SOL     OW 9737   6.266   9.961   7.215 -0.6826 -0.3161 -0.1869
 2435SOL    HW1 9738   6.271   9.931   7.124  1.2916 -0.5410 -0.0284
 2435SOL    HW2 9739   6.294  10.052   7.212  1.6052 -0.9509  0.4604
 2435SOL     MW 9740   6.270   9.969   7.203 -0.1090 -0.4318 -0.0784
 2436SOL     OW 9741   5.812   0.090   3.231  0.4580 -0.1736 -0.1004
 2436SOL    HW1 9742   5.770   0.009   3.204 -0.0275  0.5370 -1.6226
 2436SOL    HW2 9743   5.886   0.100   3.171  0.6922  0.3531  0.2621
 2436SOL     MW 9744   5.817   0.081   3.219  0.4242 -0.0071 -0.2565
 2437SOL     OW 9745   7.693   9.197   3.629 -0.1501  0.0012 -0.6668
 2437SOL    HW1 9746   7.687   9.138   3.704 -0.8983  0.6228 -0.2139
 2437SOL    HW2 9747   7.777   9.242   3.640  0.7510 -1.4321 -1.3861
 2437SOL     MW 9748   7.703   9.196   3.641 -0.1295 -0.1081 -0.7026
 2438SOL     OW 9749   6.552   0.474   5.499 -0.3836 -0.1534  0.3807
 2438SOL    HW1 9750   6.619   0.418   5.538  1.5565  0.4803 -1.7656
 2438SOL    HW2 9751   6.588   0.562   5.505 -1.3971  0.3163 -0.1224
 2438SOL     MW 9752   6.566   0.478   5.505 -0.2589 -0.0049  0.0242
 2439SOL     OW 9753   4.951   0.826  10.092 -0.3232 -0.5361  0.1852
 2439SOL    HW1 9754   4.970   0.766  10.165 -1.6675 -0.1549  0.8994
 2439SOL    HW2 9755   4.896   0.894  10.132 -0.8625 -0.1757 -1.1286
 2439SOL     MW 9756   4.946   0.827  10.108 -0.5767 -0.4363  0.1045
 2440SOL     OW 9757   5.119   0.292   6.708 -0.0925 -0.6136  0.0909
 2440SOL    HW1 9758   5.209   0.323   6.707 -0.8503  1.9583  1.6967
 2440SOL    HW2 9759   5.125   0.199   6.729  2.2576 -1.3125 -2.8973
 2440SOL     MW 9760   5.132   0.284   6.711  0.1218 -0.3615 -0.0952
 2441SOL     OW 9761   4.033   8.830   6.644  0.3157 -0.4271  0.0171
 2441SOL    HW1 9762   3.973   8.819   6.571 -0.2425  0.3045  0.3534
 2441SOL    HW2 9763   4.095   8.757   6.636  0.4823 -0.1584 -1.3774
 2441SOL     MW 9764   4.034   8.818   6.633  0.2630 -0.2925 -0.1253
 2442SOL     OW 9765   6.603   0.821   1.615  0.2074 -0.3968 -0.0678
 2442SOL    HW1 9766   6.670   0.753   1.621  0.2970 -0.4143 -1.0805
 2442SOL    HW2 9767   6.559   0.805   1.531 -0.2446  0.3593  0.0079
 2442SOL     MW 9768   6.606   0.810   1.604  0.1586 -0.2974 -0.1939
 2443SOL     OW 9769   5.225   9.360   3.111  0.1463  0.2344  0.2691
 2443SOL    HW1 9770   5.268   9.349   3.196 -0.2678 -0.7660  0.3742
 2443SOL    HW2 9771   5.287   9.323   3.048 -0.1190 -0.2853  0.3053
 2443SOL     MW 9772   5.239   9.353   3.114  0.0549  0.0298  0.2881
 2444SOL     OW 9773   7.423   9.460   2.553  0.7969  0.5195 -0.0365
 2444SOL    HW1 9774   7.437   9.554   2.559 -0.4812  0.7720 -0.6180
 2444SOL    HW2 9775   7.425   9.442   2.459 -0.3936  0.2180 -0.0163
 2444SOL     MW 9776   7.425   9.470   2.541  0.4647  0.5129 -0.1120
 2445SOL     OW 9777   4.058   0.201   7.036 -0.3860  0.6265  0.0030
 2445SOL    HW1 9778   4.078   0.117   7.078  2.4175  0.1977 -1.9564
 2445SOL    HW2 9779   4.138   0.251   7.043 -1.6227  2.7067 -0.0048
 2445SOL     MW 9780   4.071   0.196   7.043 -0.1751  0.8487 -0.2617
 2446SOL     OW 9781   6.225   1.567   1.958 -0.0279  0.6119  0.4354
 2446SOL    HW1 9782   6.157   1.559   2.024  1.5527  0.2309  2.0921
 2446SOL    HW2 9783   6.211   1.493   1.899  0.0860 -0.6303  1.8935
 2446SOL     MW 9784   6.214   1.556   1.959  0.2001  0.3935  0.8546
 2447SOL     OW 9785   5.402   9.219   7.375  0.3201 -0.2207 -0.2970
 2447SOL    HW1 9786   5.412   9.188   7.465 -1.4370 -0.7385 -0.2490
 2447SOL    HW2 9787   5.438   9.148   7.322  1.9706  0.3691 -0.0166
 2447SOL     MW 9788   5.408   9.205   7.380  0.3058 -0.2110 -0.2528
 2448SOL     OW 9789   8.061   9.131   0.576  0.1566  0.6047  0.3270
 2448SOL    HW1 9790   8.087   9.082   0.655  1.3464 -1.8316 -1.4492
 2448SOL    HW2 9791   7.991   9.079   0.538  1.0135  0.5633 -1.2791
 2448SOL     MW 9792   8.055   9.117   0.582  0.4320  0.2712 -0.1282
 2449SOL     OW 9793   4.067   0.600   8.894  0.4026  0.3319  0.5033
 2449SOL    HW1 9794   4.002   0.569   8.957  1.5881 -0.4958  1.3824
 2449SOL    HW2 9795   4.060   0.695   8.897 -0.1999  0.2767  1.2114
 2449SOL     MW 9796   4.057   0.608   8.903  0.4810  0.2131  0.7169
 2450SOL     OW 9797   6.965   0.277   1.222 -0.5101  0.0886  0.2517
 2450SOL    HW1 9798   6.873   0.301   1.238 -0.1064  0.4192  2.4029
 2450SOL    HW2 9799   7.014   0.325   1.288  1.2889  0.1822 -1.0675
 2450SOL     MW 9800   6.959   0.287   1.233 -0.2137  0.1457  0.3637
 2451SOL     OW 9801   5.041   8.880   9.459  0.1683 -0.4053 -0.4413
 2451SOL    HW1 9802   4.989   8.864   9.537 -0.6373  0.5669 -0.7637
 2451SOL    HW2 9803   5.132   8.880   9.490 -0.2060  2.1806  0.9765
 2451SOL     MW 9804   5.047   8.878   9.473  0.0095  0.0736 -0.2939
 2452SOL     OW 9805   4.808   1.177   2.563  0.4777 -0.1487  0.2969
 2452SOL    HW1 9806   4.824   1.134   2.647 -0.7489  0.8912  1.0920
 2452SOL    HW2 9807   4.730   1.133   2.528  0.2636  0.2479  0.2775
 2452SOL     MW 9808   4.800   1.165   2.569  0.2838  0.0446  0.4013
 2453SOL     OW 9809   6.583   9.947   3.919  0.7734 -0.3588 -0.0211
 2453SOL    HW1 9810   6.654   9.989   3.967  0.3311  0.9649 -0.4917
 2453SOL    HW2 9811   6.511   9.943   3.982  0.8850 -0.6226  0.0912
 2453SOL     MW 9812   6.583   9.952   3.934  0.7289 -0.2161 -0.0693
 2454SOL     OW 9813   5.983   8.242   6.787  0.0095 -0.1387 -0.2342
 2454SOL    HW1 9814   6.016   8.156   6.762 -1.6631 -1.1407  0.8525
 2454SOL    HW2 9815   5.892   8.243   6.757  0.2653  1.6602 -1.1156
 2454SOL     MW 9816   5.975   8.231   6.779 -0.1812 -0.0315 -0.2066
 2455SOL     OW 9817   4.932   0.696   3.170 -0.0812  0.4470  0.0579
 2455SOL    HW1 9818   4.875   0.753   3.221  0.2379  0.8901 -0.0742
 2455SOL    HW2 9819   5.021   0.725   3.191  0.0568  0.6075 -0.7131
 2455SOL     MW 9820   4.936   0.708   3.180 -0.0197  0.5283 -0.0636
 2456SOL     OW 9821   5.249   1.450  10.144 -0.1614 -0.4271  0.9072
 2456SOL    HW1 9822   5.253   1.477  10.052 -1.1968  0.3298  1.0638
 2456SOL    HW2 9823   5.322   1.497  10.186  2.6298 -3.4928 -0.1125
 2456SOL     MW 9824   5.259   1.460  10.138  0.0749 -0.7378  0.7910
 2457SOL     OW 9825   5.990   8.302   2.047 -0.0676 -0.0985  0.0802
 2457SOL    HW1 9826   5.915   8.284   2.103  0.3548 -1.0062  0.3771
 2457SOL    HW2 9827   6.054   8.345   2.104  0.2704 -0.8104  0.2508
 2457SOL     MW 9828   5.989   8.305   2.062  0.0347 -0.3165  0.1431
 2458SOL     OW 9829   7.113   8.554   1.893 -0.2239  0.2579  0.2795
 2458SOL    HW1 9830   7.134   8.474   1.845  0.2688 -0.0291  0.9543
 2458SOL    HW2 9831   7.060   8.605   1.833 -0.2033 -0.4022 -0.3086
 2458SOL     MW 9832   7.109   8.550   1.879 -0.1548  0.1304  0.2912
 2459SOL     OW 9833   5.866   8.645   6.968  0.5120  0.0840 -0.1307
 2459SOL    HW1 9834   5.776   8.672   6.987 -0.0556 -1.1589 -0.8969
 2459SOL    HW2 9835   5.918   8.724   6.980 -0.5038  0.5636  1.4686
 2459SOL     MW 9836   5.861   8.659   6.972  0.2989 -0.0187 -0.0186
 2460SOL     OW 9837   7.307   0.089   5.702  0.0255 -0.1672 -0.5725
 2460SOL    HW1 9838   7.340  -0.001   5.706  0.3074 -0.0535 -0.2997
 2460SOL    HW2 9839   7.345   0.132   5.779 -1.9222 -0.4114  0.6037
 2460SOL     MW 9840   7.317   0.082   5.713 -0.1987 -0.1848 -0.3775
 2461SOL     OW 9841   7.589   0.112   7.823  0.1443 -0.4281 -0.2608
 2461SOL    HW1 9842   7.600   0.017   7.817  0.0859 -0.5489  1.3301
 2461SOL    HW2 9843   7.666   0.148   7.778 -0.8195 -1.1580 -2.7060
 2461SOL     MW 9844   7.601   0.104   7.816  0.0067 -0.5425 -0.3758
 2462SOL     OW 9845   5.233   1.055   6.049 -0.6035 -0.5530 -0.7582
 2462SOL    HW1 9846   5.188   1.136   6.022 -0.1216 -1.0990 -3.4721
 2462SOL    HW2 9847   5.193   1.033   6.133 -2.1226  1.4571 -0.8708
 2462SOL     MW 9848   5.221   1.063   6.057 -0.7431 -0.3559 -1.1386
 2463SOL     OW 9849   7.109   0.958   1.835  0.6148 -0.5667 -0.4675
 2463SOL    HW1 9850   7.164   0.902   1.890 -1.6201 -0.0533  2.6087
 2463SOL    HW2 9851   7.152   1.043   1.836  1.1180 -0.8194 -0.3468
 2463SOL     MW 9852   7.122   0.962   1.843  0.3818 -0.5316 -0.0373
 2464SOL     OW 9853   6.818   9.657   9.797 -0.1523  0.1662  0.7378
 2464SOL    HW1 9854   6.802   9.748   9.820  1.6471  0.9518 -0.8896
 2464SOL    HW2 9855   6.913   9.647   9.802 -0.3222 -1.7275  1.1687
 2464SOL     MW 9856   6.829   9.668   9.801  0.0670  0.0171  0.5768
 2465SOL     OW 9857   3.705   9.344   8.742 -0.2457  0.5409  0.8348
 2465SOL    HW1 9858   3.767   9.351   8.815  1.5299  0.4151 -0.6011
 2465SOL    HW2 9859   3.706   9.430   8.701 -0.5417  0.3386  0.3961
 2465SOL     MW 9860   3.713   9.357   8.746 -0.0466  0.4968  0.5825
 2466SOL     OW 9861   5.791  10.104   8.395 -0.0614  0.6339 -0.3226
 2466SOL    HW1 9862   5.723  10.157   8.438  1.8193  2.5180  0.4870
 2466SOL    HW2 9863   5.845  10.072   8.467  0.7636  0.3988 -1.0385
 2466SOL     MW 9864   5.789  10.107   8.411  0.3027  0.8558 -0.3100
 2467SOL     OW 9865   5.685  10.043   1.849 -0.0167  0.1701  0.2707
 2467SOL    HW1 9866   5.675  10.137   1.836  0.2614 -0.0417 -1.7227
 2467SOL    HW2 9867   5.776  10.026   1.825  0.2657 -0.4836  1.6635
 2467SOL     MW 9868   5.696  10.054   1.844  0.0587  0.0536  0.1899
 2468SOL     OW 9869   3.739   9.823   8.080 -0.5234  0.0888  0.2017
 2468SOL    HW1 9870   3.729   9.897   8.140  0.3840 -0.5332  1.1436
 2468SOL    HW2 9871   3.795   9.761   8.127 -1.2322 -1.1873 -0.5751
 2468SOL     MW 9872   3.745   9.824   8.094 -0.4967 -0.1667  0.2239
 2469SOL     OW 9873   6.370   1.045   6.951 -0.0224  0.2915  0.0143
 2469SOL    HW1 9874   6.394   0.954   6.932 -1.1255 -0.2720  1.1748
 2469SOL    HW2 9875   6.442   1.078   7.005 -0.2024 -0.3046  0.6312
 2469SOL     MW 9876   6.383   1.037   6.956 -0.1951  0.1355  0.2535
 2470SOL     OW 9877   7.825   9.804   4.998  0.1785 -0.3743  0.0437
 2470SOL    HW1 9878   7.920   9.812   5.011  0.1820 -0.1298 -0.1235
 2470SOL    HW2 9879   7.817   9.744   4.923  0.2426  0.6754 -0.8275
 2470SOL     MW 9880   7.837   9.797   4.990  0.1876 -0.2001 -0.0961
 2471SOL     OW 9881   6.165   8.718   9.089 -0.0306 -0.7782 -0.5167
 2471SOL    HW1 9882   6.174   8.655   9.161 -0.3681 -0.5989 -0.3134
 2471SOL    HW2 9883   6.090   8.686   9.039 -3.1455  1.7795  2.0547
 2471SOL     MW 9884   6.156   8.705   9.092 -0.4952 -0.4099 -0.1433
 2472SOL     OW 9885   4.637   0.595   6.223 -0.2467 -0.1171 -0.0527
 2472SOL    HW1 9886   4.566   0.649   6.257 -2.7003 -3.4810  0.7292
 2472SOL    HW2 9887   4.610   0.574   6.133  0.0367 -0.9223  0.0416
 2472SOL     MW 9888   4.623   0.599   6.215 -0.5387 -0.6782  0.0652
 2473SOL     OW 9889   5.373   9.681   4.203 -0.3170 -0.4620  0.1994
 2473SOL    HW1 9890   5.403   9.695   4.293 -0.0054  0.5312 -0.0399
 2473SOL    HW2 9891   5.283   9.652   4.212 -0.5716  0.4805  0.8189
 2473SOL     MW 9892   5.365   9.679   4.217 -0.3093 -0.2015  0.2505
 2474SOL     OW 9893   5.023   7.972   3.387  0.0147  0.1456  0.2337
 2474SOL    HW1 9894   5.032   8.068   3.390  0.5182  0.0921  0.5619
 2474SOL    HW2 9895   5.101   7.939   3.432 -0.4249 -0.4119  0.6046
 2474SOL     MW 9896   5.035   7.981   3.394  0.0233  0.0634  0.3278
 2475SOL     OW 9897   5.650   9.879   2.897 -0.4040 -0.3408  0.9574
 2475SOL    HW1 9898   5.733   9.845   2.864  1.1254  1.1408  3.0313
 2475SOL    HW2 9899   5.599   9.800   2.917 -0.0615 -1.2761 -1.4772
 2475SOL     MW 9900   5.654   9.864   2.895 -0.1521 -0.2672  0.9088
 2476SOL     OW 9901   7.190   9.033   6.193  0.4732  0.3970  0.6491
 2476SOL    HW1 9902   7.128   9.074   6.253  1.8528  2.4711  0.7375
 2476SOL    HW2 9903   7.163   9.063   6.106 -0.9906 -1.9154  0.1941
 2476SOL     MW 9904   7.178   9.042   6.189  0.4619  0.3649  0.5998
 2477SOL     OW 9905   7.728   9.306   1.029 -0.2051 -0.0900 -0.6769
 2477SOL    HW1 9906   7.636   9.282   1.033 -0.4151  0.8954  1.5129
 2477SOL    HW2 9907   7.772   9.240   1.083 -0.1008  1.2832  0.9908
 2477SOL     MW 9908   7.722   9.294   1.037 -0.2193  0.2274 -0.1577
 2478SOL     OW 9909   6.035   8.261   8.678 -0.1507  0.0086  0.1500
 2478SOL    HW1 9910   6.112   8.305   8.642  1.0018 -0.9879  1.3213
 2478SOL    HW2 9911   5.998   8.324   8.739  1.2110 -0.4056  1.4566
 2478SOL     MW 9912   6.040   8.275   8.681  0.1877 -0.1812  0.4835
 2479SOL     OW 9913   5.717   0.208   5.152 -0.3025  0.0740 -0.1990
 2479SOL    HW1 9914   5.803   0.178   5.181 -0.5230  0.1032  0.5199
 2479SOL    HW2 9915   5.687   0.140   5.092 -0.8410 -1.2605  1.4814
 2479SOL     MW 9916   5.724   0.194   5.148 -0.4046 -0.1016  0.1239
 2480SOL     OW 9917   5.020   7.757   5.958  0.0085 -0.0472 -0.1424
 2480SOL    HW1 9918   4.999   7.808   6.036  0.3896  0.1778 -0.1863
 2480SOL    HW2 9919   4.957   7.786   5.892 -1.2944 -1.2818  0.4890
 2480SOL     MW 9920   5.009   7.768   5.959 -0.1155 -0.1830 -0.0633
 2481SOL     OW 9921   6.858   0.448   7.063  0.1492 -0.0120  0.4703
 2481SOL    HW1 9922   6.824   0.500   6.990 -0.2678 -0.3769  0.4020
 2481SOL    HW2 9923   6.825   0.492   7.141 -1.3379 -0.9324  0.3873
 2481SOL     MW 9924   6.849   0.461   7.063 -0.1070 -0.1850  0.4499
 2482SOL     OW 9925   3.950   9.647   0.370 -0.0183  0.0314  0.2174
 2482SOL    HW1 9926   3.970   9.655   0.276  1.1257 -0.5488  0.3922
 2482SOL    HW2 9927   3.893   9.721   0.389  0.8441  0.9521 -0.6573
 2482SOL     MW 9928   3.945   9.658   0.360  0.2517  0.0772  0.1232
 2483SOL     OW 9929   6.561   1.807   0.499  0.6497  0.0730 -0.0331
 2483SOL    HW1 9930   6.587   1.886   0.546 -0.9239  0.1465  0.7638
 2483SOL    HW2 9931   6.589   1.735   0.555 -1.2666  0.1606  1.1174
 2483SOL     MW 9932   6.568   1.808   0.513  0.1800  0.0947  0.2290
 2484SOL     OW 9933   6.183   1.620   2.376 -0.0716 -0.0060 -0.2837
 2484SOL    HW1 9934   6.196   1.533   2.413 -0.4913 -0.0723 -0.2836
 2484SOL    HW2 9935   6.113   1.608   2.312  0.0829  0.2705 -0.5074
 2484SOL     MW 9936   6.175   1.606   2.372 -0.1073  0.0223 -0.3138
 2485SOL     OW 9937   5.577   7.715   4.328  0.4543  0.0651 -0.0559
 2485SOL    HW1 9938   5.517   7.643   4.310 -0.3637  1.1137 -1.6676
 2485SOL    HW2 9939   5.523   7.782   4.371  1.1088 -0.0678  1.0222
 2485SOL     MW 9940   5.562   7.714   4.332  0.4323  0.1884 -0.1277
 2486SOL     OW 9941   5.693   8.746   0.234 -0.0298 -0.2922  0.6270
 2486SOL    HW1 9942   5.667   8.837   0.248  1.0061  0.1409 -0.1493
 2486SOL    HW2 9943   5.787   8.745   0.250 -0.1500 -1.3965  1.3638
 2486SOL     MW 9944   5.702   8.758   0.238  0.0934 -0.3825  0.6217
 2487SOL     OW 9945   6.912   9.715   0.058 -0.2240  0.1091 -0.2345
 2487SOL    HW1 9946   6.836   9.766   0.031 -0.2601  1.2826  1.8481
 2487SOL    HW2 9947   6.971   9.779   0.098 -0.2169 -1.3964  2.3969
 2487SOL     MW 9948   6.910   9.730   0.060 -0.2279  0.0644  0.3999
 2488SOL     OW 9949   5.953   9.481   2.182 -0.0731  0.0548 -0.4524
 2488SOL    HW1 9950   5.908   9.517   2.259 -2.1162  2.7854 -2.7252
 2488SOL    HW2 9951   5.882   9.450   2.126  1.4093 -2.5169 -1.0501
 2488SOL     MW 9952   5.937   9.482   2.185 -0.1485  0.0762 -0.8387
 2489SOL     OW 9953   5.964   1.018   2.788  0.6774 -0.2241 -0.3266
 2489SOL    HW1 9954   5.905   0.968   2.731  0.6347 -0.7241  0.1492
 2489SOL    HW2 9955   6.052   0.992   2.759  0.6827  0.9611 -1.4233
 2489SOL     MW 9956   5.968   1.008   2.776  0.6724 -0.1319 -0.4102
 2490SOL     OW 9957   5.911   0.750   3.146  0.4677 -0.3613 -0.1630
 2490SOL    HW1 9958   5.816   0.760   3.144  0.5835  0.8892 -0.2352
 2490SOL    HW2 9959   5.931   0.725   3.236  0.2794  2.3146  0.7314
 2490SOL     MW 9960   5.901   0.748   3.158  0.4580  0.1671 -0.0524
 2491SOL     OW 9961   5.415   9.852   0.753  0.8912 -0.2486 -0.0690
 2491SOL    HW1 9962   5.451   9.786   0.812 -0.7210 -2.3629 -1.3202
 2491SOL    HW2 9963   5.321   9.851   0.770  0.7848  1.6198 -0.2900
 2491SOL     MW 9964   5.408   9.843   0.763  0.6599 -0.2817 -0.2671
 2492SOL     OW 9965   4.275   9.197   4.241  0.4234  0.6013 -0.1009
 2492SOL    HW1 9966   4.279   9.129   4.308  2.1873 -0.9780 -1.6599
 2492SOL    HW2 9967   4.220   9.159   4.172  0.3070  1.3152 -0.4039
 2492SOL     MW 9968   4.268   9.182   4.241  0.6451  0.4849 -0.3515
 2493SOL     OW 9969   5.367   1.764   7.024 -0.7334 -0.0061  0.2367
 2493SOL    HW1 9970   5.415   1.745   7.105 -1.3535 -1.5416  0.2922
 2493SOL    HW2 9971   5.435   1.767   6.956 -0.1460  1.8301  0.8496
 2493SOL     MW 9972   5.383   1.762   7.026 -0.7378  0.0344  0.3266
 2494SOL     OW 9973   5.556   1.905   9.849  0.1128 -0.0727  0.3003
 2494SOL    HW1 9974   5.545   1.915   9.943  1.5520  1.6574  0.3334
 2494SOL    HW2 9975   5.509   1.824   9.828  0.1347 -0.7334  2.5512
 2494SOL     MW 9976   5.548   1.896   9.858  0.3094  0.0712  0.6077
 2495SOL     OW 9977   4.452   0.530   5.185 -0.3875 -0.2593  0.2045
 2495SOL    HW1 9978   4.532   0.582   5.190 -0.0392 -0.7615  0.0292
 2495SOL    HW2 9979   4.399   0.574   5.118  0.3773 -0.7434 -0.7513
 2495SOL     MW 9980   4.456   0.543   5.177 -0.2377 -0.3920  0.0523
 2496SOL     OW 9981   7.225   9.024   8.072 -0.0667  0.0454  0.1370
 2496SOL    HW1 9982   7.273   8.942   8.081  2.0142  1.1366 -0.3963
 2496SOL    HW2 9983   7.219   9.059   8.161  1.9835  0.8472  0.0103
 2496SOL     MW 9984   7.231   9.018   8.085  0.4892  0.3002  0.0482
 2497SOL     OW 9985   6.275   7.897   7.877 -0.5173 -0.2269  0.0637
 2497SOL    HW1 9986   6.306   7.841   7.947 -2.5042 -1.0855  0.3404
 2497SOL    HW2 9987   6.305   7.985   7.900 -1.9849 -0.3092  2.5761
 2497SOL     MW 9988   6.283   7.902   7.889 -0.9822 -0.3536  0.4391
 2498SOL     OW 9989   5.017   0.161   3.114  0.3263  0.2915 -0.3086
 2498SOL    HW1 9990   5.102   0.206   3.115  0.3666  0.2892  2.0414
 2498SOL    HW2 9991   5.037   0.071   3.138 -0.2337  0.0359 -0.7855
 2498SOL     MW 9992   5.031   0.155   3.117  0.2564  0.2568 -0.0565
 2499SOL     OW 9993   5.004   9.247   9.221 -0.2711  0.2267 -0.2814
 2499SOL    HW1 9994   5.015   9.153   9.213 -2.4857 -0.2208  1.0850
 2499SOL    HW2 9995   4.953   9.273   9.144  0.5072  0.3583 -0.7592
 2499SOL     MW 9996   4.998   9.238   9.210 -0.4644  0.1842 -0.1618
 2500SOL     OW 9997   7.052   9.462   1.052  0.1447  0.3713  0.4957
 2500SOL    HW1 9998   7.140   9.471   1.016  0.3119 -1.3089  0.3949
 2500SOL    HW2 9999   7.004   9.538   1.018  0.9864  0.1925 -1.1885
 2500SOL     MW10000   7.057   9.473   1.043  0.2804  0.1211  0.2555
 2501SOL     OW10001   4.209   0.564   5.862 -0.0835 -0.2932  0.0399
 2501SOL    HW110002   4.139   0.620   5.831  0.8283 -0.5564 -2.7174
 2501SOL    HW210003   4.175   0.475   5.852  0.4371 -0.4032 -0.8769
 2501SOL     MW10004   4.195   0.559   5.857  0.1093 -0.3435 -0.4546
 2502SOL     OW10005   5.837   0.435   2.207  0.0946  0.1528  0.1996
 2502SOL    HW110006   5.782   0.456   2.283 -1.9138  1.9156 -1.5934
 2502SOL    HW210007   5.815   0.345   2.184 -0.9789  0.3663  0.3709
 2502SOL     MW10008   5.827   0.426   2.214 -0.3202  0.4188 -0.0186
 2503SOL     OW10009   7.137   1.165   2.959 -0.2230  0.4986 -0.1976
 2503SOL    HW110010   7.076   1.094   2.981 -0.0833  0.1191 -1.0031
 2503SOL    HW210011   7.113   1.236   3.019 -0.9636  0.0911  0.0081
 2503SOL     MW10012   7.126   1.165   2.970 -0.3038  0.3927 -0.2783
 2504SOL     OW10013   4.554   9.192   3.277  0.2350 -0.2138 -0.0789
 2504SOL    HW110014   4.543   9.177   3.184  0.4511  0.8001 -0.2791
 2504SOL    HW210015   4.491   9.133   3.319 -0.7495  0.2302 -0.9162
 2504SOL     MW10016   4.544   9.182   3.270  0.1316 -0.0176 -0.2185
 2505SOL     OW10017   6.780   9.469   6.807  0.4333 -0.2351 -0.0648
 2505SOL    HW110018   6.765   9.520   6.887  2.4035  1.8041 -0.8935
 2505SOL    HW210019   6.721   9.509   6.742  0.3609 -0.4948 -0.1601
 2505SOL     MW10020   6.770   9.481   6.809  0.6887  0.0044 -0.1892
 2506SOL     OW10021   5.509   1.771   7.247  0.1449 -0.5591 -0.1930
 2506SOL    HW110022   5.525   1.677   7.249  0.9465 -0.4424  2.1801
 2506SOL    HW210023   5.445   1.787   7.317  1.3371  0.8069  0.6605
 2506SOL     MW10024   5.503   1.761   7.257  0.4132 -0.3596  0.2412
 2507SOL     OW10025   4.523   9.800   5.888  0.4989  0.3369  0.3684
 2507SOL    HW110026   4.608   9.806   5.931  1.3550 -1.2713 -1.0045
 2507SOL    HW210027   4.525   9.868   5.821  1.1990 -0.4600 -0.4388
 2507SOL     MW10028   4.534   9.810   5.885  0.7083  0.0132  0.0750
 2508SOL     OW10029   4.915   8.604   3.271  0.2546 -0.3192 -0.2951
 2508SOL    HW110030   4.872   8.648   3.344  1.0118  0.5993 -0.3728
 2508SOL    HW210031   4.871   8.520   3.263 -1.7642  0.6889 -0.5780
 2508SOL     MW10032   4.903   8.599   3.280  0.0848 -0.0599 -0.3436
 2509SOL     OW10033   4.871   8.405   6.378  0.3631 -0.1499  0.0025
 2509SOL    HW110034   4.940   8.455   6.422 -0.4152  1.2235 -0.2888
 2509SOL    HW210035   4.869   8.439   6.289 -0.6586 -0.2016 -0.0087
 2509SOL     MW10036   4.880   8.416   6.372  0.1209  0.0279 -0.0382
 2510SOL     OW10037   6.557   0.239   3.686  0.5586  0.5668 -0.1542
 2510SOL    HW110038   6.584   0.221   3.776 -0.6848 -1.1064 -0.0649
 2510SOL    HW210039   6.631   0.211   3.632  1.3697  1.7191  0.3259
 2510SOL     MW10040   6.571   0.233   3.691  0.5004  0.4967 -0.0776
 2511SOL     OW10041   6.012   0.548   2.979 -0.2258  0.3903 -0.8145
 2511SOL    HW110042   5.976   0.605   3.046  0.8442  1.5105 -1.1647
 2511SOL    HW210043   6.045   0.607   2.911 -1.2741 -0.7004 -2.3544
 2511SOL     MW10044   6.012   0.564   2.979 -0.2229  0.3943 -1.0689
 2512SOL     OW10045   6.655   9.086   3.568  0.1879 -0.4601 -0.0475
 2512SOL    HW110046   6.570   9.041   3.569  0.1793 -0.4532  1.2480
 2512SOL    HW210047   6.644   9.156   3.505 -1.5024  0.8611  1.5830
 2512SOL     MW10048   6.642   9.089   3.560 -0.0407 -0.2813  0.3463
 2513SOL     OW10049   6.380   0.124   0.367 -0.0454  0.0140 -0.5309
 2513SOL    HW110050   6.410   0.124   0.458 -1.5009  1.4922 -0.0128
 2513SOL    HW210051   6.453   0.163   0.318 -0.4841  2.3253  0.5076
 2513SOL     MW10052   6.394   0.129   0.373 -0.3003  0.5240 -0.3214
 2514SOL     OW10053   7.209   9.066   7.697 -0.2846 -0.0331  0.4853
 2514SOL    HW110054   7.276   9.129   7.672  0.6553 -1.1152  0.2012
 2514SOL    HW210055   7.156   9.054   7.618 -1.9394  2.0886  1.1594
 2514SOL     MW10056   7.211   9.072   7.683 -0.3808  0.1068  0.5378
 2515SOL     OW10057   7.904   0.315   5.955 -0.1626 -0.2653 -0.1892
 2515SOL    HW110058   7.953   0.254   6.009 -0.4442 -1.0303 -0.7790
 2515SOL    HW210059   7.970   0.367   5.909  0.1638  2.3853  2.9450
 2515SOL     MW10060   7.919   0.314   5.956 -0.1566 -0.0115  0.1532
 2516SOL     OW10061   3.726   9.020   6.446 -0.4147  0.3496  0.2589
 2516SOL    HW110062   3.785   9.079   6.494 -0.9996  0.3238  1.0253
 2516SOL    HW210063   3.660   9.078   6.408 -0.3439  0.2990  0.0581
 2516SOL     MW10064   3.725   9.036   6.447 -0.4839  0.3393  0.3350
 2517SOL     OW10065   6.969   8.102   6.310 -0.2308 -0.2537  0.7245
 2517SOL    HW110066   6.926   8.050   6.241 -0.3371 -0.8808  1.2583
 2517SOL    HW210067   6.905   8.105   6.381 -1.0639  2.3028 -0.0265
 2517SOL     MW10068   6.954   8.096   6.310 -0.3572  0.0060  0.6953
 2518SOL     OW10069   3.744   9.191   3.760 -0.0409  0.3292 -0.1004
 2518SOL    HW110070   3.746   9.096   3.746  0.7991  0.4692 -1.0307
 2518SOL    HW210071   3.708   9.226   3.679 -0.3670  0.8113  0.2519
 2518SOL     MW10072   3.740   9.183   3.747  0.0283  0.4129 -0.1782
 2519SOL     OW10073   4.613   0.398   3.615 -0.5997  0.3909 -0.4855
 2519SOL    HW110074   4.707   0.385   3.618 -0.4852  0.8177 -1.8307
 2519SOL    HW210075   4.576   0.310   3.620 -0.2745  0.3118  2.6797
 2519SOL     MW10076   4.620   0.385   3.616 -0.5406  0.4377 -0.2406
 2520SOL     OW10077   4.775   9.057   9.103 -0.0098  0.6319  0.1536
 2520SOL    HW110078   4.867   9.034   9.115 -0.1603  0.3570  0.8209
 2520SOL    HW210079   4.732   9.027   9.183 -1.2188 -2.0890 -1.3710
 2520SOL     MW10080   4.781   9.050   9.115 -0.1927  0.2287  0.0382
 2521SOL     OW10081   5.801   1.526   1.015 -0.5037  0.1905 -0.0326
 2521SOL    HW110082   5.737   1.551   1.082 -0.4944  1.4918 -0.4742
 2521SOL    HW210083   5.862   1.600   1.011 -1.3048  0.8357 -2.4127
 2521SOL     MW10084   5.800   1.540   1.023 -0.6102  0.4525 -0.4123
 2522SOL     OW10085   7.956   0.184   9.361 -0.1534  0.3082 -0.0082
 2522SOL    HW110086   7.868   0.177   9.326 -0.1596 -0.9314  0.1905
 2522SOL    HW210087   8.009   0.217   9.289 -0.9371  2.1153  0.1786
 2522SOL     MW10088   7.952   0.187   9.347 -0.2597  0.3846  0.0437
 2523SOL     OW10089   6.847  10.138   2.058 -0.0506  0.6450 -0.0700
 2523SOL    HW110090   6.839  10.043   2.050  1.3143  0.3927  1.1475
 2523SOL    HW210091   6.937  10.157   2.029  0.8916  1.0834  2.7756
 2523SOL     MW10092   6.858  10.128   2.053  0.2599  0.6700  0.4768
 2524SOL     OW10093   5.835   7.874   2.950 -0.0326  0.3845  0.6326
 2524SOL    HW110094   5.923   7.876   2.988 -0.1108 -2.6242  1.2505
 2524SOL    HW210095   5.776   7.880   3.025 -0.2833  0.0369  0.4684
 2524SOL     MW10096   5.839   7.875   2.965 -0.0769 -0.0672  0.6937
 2525SOL     OW10097   6.415  10.095   1.852 -0.0681  0.1296 -0.3542
 2525SOL    HW110098   6.354  10.062   1.918  1.1446 -0.0998  0.6970
 2525SOL    HW210099   6.379  10.179   1.825 -0.4108  0.3962  0.8772
 2525SOL     MW10100   6.402  10.102   1.857  0.0490  0.1346 -0.0470
 2526SOL     OW10101   7.803   0.501   1.180 -0.1126  0.4568  0.4946
 2526SOL    HW110102   7.855   0.441   1.233  0.0506  0.6932  0.6081
 2526SOL    HW210103   7.828   0.588   1.213  1.0028  0.6803 -0.8668
 2526SOL     MW10104   7.814   0.505   1.192  0.0595  0.5187  0.3267
 2527SOL     OW10105   4.430   0.354  10.083  0.6768 -0.3012  0.1059
 2527SOL    HW110106   4.496   0.413  10.046 -1.6151  2.0574 -0.5206
 2527SOL    HW210107   4.381   0.324  10.006  0.1793 -0.9458  0.6715
 2527SOL     MW10108   4.432   0.358  10.067  0.3014 -0.0705  0.0977
 2528SOL     OW10109   5.195   0.014   5.114 -0.0541  0.1413  0.1577
 2528SOL    HW110110   5.125   0.070   5.081  0.2233  0.0951 -0.5291
 2528SOL    HW210111   5.149  -0.060   5.154 -0.4152  0.7831  0.9532
 2528SOL     MW10112   5.179   0.011   5.115 -0.0653  0.2214  0.1723
 2529SOL     OW10113   7.910   9.936   1.083  0.2732  0.1805 -0.0837
 2529SOL    HW110114   7.820   9.905   1.086  0.4701 -0.3156  1.3805
 2529SOL    HW210115   7.943   9.907   0.998  0.0825 -2.5949  0.7094
 2529SOL     MW10116   7.902   9.928   1.072  0.2741 -0.2598  0.2201
 2530SOL     OW10117   6.262   1.004   0.889  0.1454  0.4066  0.1038
 2530SOL    HW110118   6.193   0.937   0.889 -0.6199  0.9993 -3.3854
 2530SOL    HW210119   6.343   0.954   0.879 -0.1944 -0.1337 -0.0153
 2530SOL     MW10120   6.263   0.988   0.888 -0.0033  0.4136 -0.3818
 2531SOL     OW10121   5.806   9.274   3.805 -0.0606 -0.1462 -0.1845
 2531SOL    HW110122   5.901   9.263   3.811  0.1314  1.1932 -0.3395
 2531SOL    HW210123   5.793   9.369   3.812 -1.3933 -0.3141 -0.1360
 2531SOL     MW10124   5.817   9.285   3.807 -0.2142  0.0114 -0.1989
 2532SOL     OW10125   5.590   9.922   4.517  0.9126  0.4214  0.2218
 2532SOL    HW110126   5.631   9.911   4.603  1.4684 -1.1993 -0.2133
 2532SOL    HW210127   5.553  10.010   4.520  0.8071  0.3677  2.1572
 2532SOL     MW10128   5.591   9.932   4.529  0.9732  0.1961  0.4237
 2533SOL     OW10129   6.340  -0.007   4.930 -0.3950  0.2663 -0.4258
 2533SOL    HW110130   6.307   0.062   4.988 -1.9608 -1.0265  0.3334
 2533SOL    HW210131   6.412   0.033   4.882 -0.7919  2.1917  0.5004
 2533SOL     MW10132   6.345   0.008   4.932 -0.6591  0.3514 -0.1990
 2534SOL     OW10133   6.198   9.593   4.545  0.3332  0.2299  0.3284
 2534SOL    HW110134   6.197   9.581   4.641  0.4757 -1.0874  0.1874
 2534SOL    HW210135   6.290   9.595   4.522  0.3540 -1.8978 -0.0115
 2534SOL     MW10136   6.210   9.592   4.555  0.3552 -0.2338  0.2637
 2535SOL     OW10137   4.371   9.877   3.977 -0.0576 -0.3021 -0.4231
 2535SOL    HW110138   4.454   9.873   3.929 -0.9604 -0.7295 -2.0025
 2535SOL    HW210139   4.334   9.962   3.952  0.8704  0.9428  2.0414
 2535SOL     MW10140   4.378   9.888   3.967 -0.0542 -0.1921 -0.3040
 2536SOL     OW10141   4.390   9.351   0.770  0.0042  0.0191  0.5117
 2536SOL    HW110142   4.441   9.357   0.851  0.2129 -0.7296  0.4455
 2536SOL    HW210143   4.429   9.277   0.723 -0.7220 -0.1512  0.1640
 2536SOL     MW10144   4.402   9.342   0.775 -0.0654 -0.1046  0.4560
 2537SOL     OW10145   7.046   0.059   7.835  0.8627 -0.3911 -0.7431
 2537SOL    HW110146   6.973   0.066   7.773  1.3468  0.2488 -1.2610
 2537SOL    HW210147   7.006   0.076   7.921  0.4363  0.2113 -1.0512
 2537SOL     MW10148   7.031   0.062   7.838  0.8704 -0.2239 -0.8542
 2538SOL     OW10149   6.186   7.410   5.849 -0.5414  0.0124  0.2059
 2538SOL    HW110150   6.126   7.387   5.920 -0.9142  1.0619  0.2410
 2538SOL    HW210151   6.259   7.350   5.860 -1.4701 -1.1424  0.3022
 2538SOL     MW10152   6.188   7.399   5.860 -0.7166 -0.0018  0.2236
 2539SOL     OW10153   4.088   9.492   7.930 -0.0573 -0.3742  0.2600
 2539SOL    HW110154   4.138   9.538   7.862  0.2774 -0.2106  0.6105
 2539SOL    HW210155   4.072   9.559   7.996  0.6446 -0.8091  0.8896
 2539SOL     MW10156   4.093   9.508   7.930  0.0822 -0.4107  0.3919
 2540SOL     OW10157   5.549   0.008   2.843  0.6220 -0.2904  0.0303
 2540SOL    HW110158   5.613  -0.061   2.863  0.5369 -0.6894 -0.9882
 2540SOL    HW210159   5.580   0.084   2.892  1.1827 -0.8268  0.5296
 2540SOL     MW10160   5.562   0.009   2.852  0.6860 -0.4163 -0.0396
 2541SOL     OW10161   6.112   8.478   0.636 -0.1921 -0.1025 -0.3655
 2541SOL    HW110162   6.031   8.513   0.599  0.5459 -0.1821 -2.1517
 2541SOL    HW210163   6.176   8.548   0.625  0.3354 -0.5718 -0.3391
 2541SOL     MW10164   6.110   8.492   0.629 -0.0218 -0.1763 -0.6023
 2542SOL     OW10165   7.764   0.119  10.144  0.3052  0.1514 -0.3820
 2542SOL    HW110166   7.721   0.127  10.230  0.3680  0.1751 -0.3523
 2542SOL    HW210167   7.692   0.116  10.081  0.0939 -2.5873 -0.1580
 2542SOL     MW10168   7.748   0.119  10.147  0.2852 -0.2140 -0.3478
 2543SOL     OW10169   7.171   7.966   5.047  0.2056 -0.6406  0.3499
 2543SOL    HW110170   7.208   7.900   5.106  1.3585  0.0502  0.4236
 2543SOL    HW210171   7.142   8.036   5.105 -1.0375 -1.0589  0.2724
 2543SOL     MW10172   7.172   7.966   5.063  0.1935 -0.6040  0.3494
 2544SOL     OW10173   5.497   9.055   3.979  0.5774 -0.0190 -0.0013
 2544SOL    HW110174   5.539   8.979   3.939  0.4777  0.9758 -2.1251
 2544SOL    HW210175   5.569   9.108   4.013  0.7382 -0.3566  0.1830
 2544SOL     MW10176   5.512   9.052   3.978  0.5857  0.0694 -0.2623
 2545SOL     OW10177   5.169   0.635   3.878  0.3028 -0.4200 -0.3718
 2545SOL    HW110178   5.125   0.717   3.901  0.0355 -0.9214  0.9654
 2545SOL    HW210179   5.102   0.586   3.831  0.7831  0.5123 -2.1452
 2545SOL     MW10180   5.154   0.640   3.874  0.3314 -0.3620 -0.4305
 2546SOL     OW10181   4.263   9.968   8.131 -0.0086  0.1525 -0.1272
 2546SOL    HW110182   4.210  10.039   8.166  0.6838 -0.4943  2.4613
 2546SOL    HW210183   4.199   9.903   8.100 -0.7479 -0.0704  1.7614
 2546SOL     MW10184   4.247   9.969   8.131 -0.0149  0.0354  0.4753
 2547SOL     OW10185   6.446   0.635   1.798  0.4284  0.6439  0.1299
 2547SOL    HW110186   6.516   0.641   1.732  0.7863  1.0163  0.5404
 2547SOL    HW210187   6.444   0.542   1.822 -0.5270  0.2682 -1.2844
 2547SOL     MW10188   6.455   0.623   1.792  0.3480  0.6435 -0.0052
 2548SOL     OW10189   5.636   9.497   3.637  0.4159 -0.0137  0.2737
 2548SOL    HW110190   5.624   9.418   3.584  3.0301 -1.4643  1.6366
 2548SOL    HW210191   5.716   9.537   3.603  0.2684  0.8908  0.9473
 2548SOL     MW10192   5.645   9.491   3.626  0.7479 -0.0872  0.5478
 2549SOL     OW10193   5.978   8.316   9.721 -0.1499 -0.1935 -0.1157
 2549SOL    HW110194   6.015   8.331   9.808 -0.7191 -1.3258  0.3510
 2549SOL    HW210195   5.921   8.240   9.733 -1.2540  0.4298 -1.1860
 2549SOL     MW10196   5.975   8.308   9.734 -0.3751 -0.2620 -0.1969
 2550SOL     OW10197   5.327   8.289   0.737  0.2247 -0.1110  0.0898
 2550SOL    HW110198   5.411   8.327   0.712  1.5580 -1.7980  1.7568
 2550SOL    HW210199   5.331   8.198   0.708 -0.3808 -0.6194  1.4971
 2550SOL     MW10200   5.339   8.282   0.730  0.3226 -0.4065  0.5035
 2551SOL     OW10201   6.243   1.683   9.911 -0.3593  0.1884  0.1651
 2551SOL    HW110202   6.334   1.695   9.939  0.8751 -1.6360 -2.6307
 2551SOL    HW210203   6.231   1.749   9.842 -0.6929 -0.4497 -0.3906
 2551SOL     MW10204   6.254   1.694   9.906 -0.2381 -0.1430 -0.2860
 2552SOL     OW10205   7.833   0.177   8.941 -0.8266  0.0634  0.2549
 2552SOL    HW110206   7.852   0.219   8.857 -0.3554 -0.4881  0.0824
 2552SOL    HW210207   7.858   0.086   8.929 -0.4838  0.0398  1.0849
 2552SOL     MW10208   7.839   0.170   8.928 -0.7171 -0.0140  0.3434
 2553SOL     OW10209   7.938   9.179   8.208 -0.2744 -0.8289  0.9233
 2553SOL    HW110210   7.848   9.162   8.238  0.1480  0.4955  3.1641
 2553SOL    HW210211   7.993   9.128   8.268  0.4923 -2.3332 -0.9786
 2553SOL     MW10212   7.933   9.170   8.220 -0.1144 -0.8531  0.9689
 2554SOL     OW10213   6.869   8.481   6.091 -0.1014 -0.0669 -0.0909
 2554SOL    HW110214   6.801   8.516   6.034 -0.2131  0.1285  0.1611
 2554SOL    HW210215   6.951   8.516   6.054 -0.0036 -1.3731 -1.1905
 2554SOL     MW10216   6.871   8.491   6.078 -0.1032 -0.2164 -0.2050
 2555SOL     OW10217   6.130   0.805   7.669 -0.1806  0.1134 -0.7486
 2555SOL    HW110218   6.077   0.726   7.674  0.2375 -0.1193  0.4317
 2555SOL    HW210219   6.112   0.850   7.751  0.2005  0.8465 -1.0629
 2555SOL     MW10220   6.120   0.800   7.681 -0.0730  0.1808 -0.6320
 2556SOL     OW10221   4.007   8.583   2.209  0.0673  0.1017 -0.1373
 2556SOL    HW110222   3.951   8.609   2.137  0.2509  0.4962 -0.1369
 2556SOL    HW210223   4.071   8.654   2.218  1.8596 -1.2487 -1.4830
 2556SOL     MW10224   4.008   8.596   2.201  0.3332 -0.0270 -0.3183
 2557SOL     OW10225   6.534   0.613   4.723  0.0157 -0.2549 -0.1130
 2557SOL    HW110226   6.439   0.614   4.735 -0.0691  3.7813  0.4060
 2557SOL    HW210227   6.569   0.628   4.811  1.0389  0.0899 -0.5601
 2557SOL     MW10228   6.526   0.615   4.737  0.1420  0.3347 -0.1033
 2558SOL     OW10229   6.735   9.643   7.022 -0.4778 -0.1787  0.3581
 2558SOL    HW110230   6.808   9.687   7.065  0.1973 -1.0070  0.0955
 2558SOL    HW210231   6.682   9.608   7.093  0.1817 -0.8276  0.5399
 2558SOL     MW10232   6.738   9.644   7.037 -0.2982 -0.3775  0.3472
 2559SOL     OW10233   5.582   8.702   5.255  0.4199  0.2668  0.1009
 2559SOL    HW110234   5.632   8.643   5.198  1.5642  0.2686  1.0559
 2559SOL    HW210235   5.532   8.643   5.312 -1.0528  0.2641 -1.1271
 2559SOL     MW10236   5.582   8.686   5.255  0.3757  0.2667  0.0642
 2560SOL     OW10237   6.279   9.497   2.488 -0.7015  0.1868 -0.0443
 2560SOL    HW110238   6.322   9.583   2.496 -1.4906  0.7763 -1.6882
 2560SOL    HW210239   6.347   9.434   2.512  0.4641  1.1814 -0.6199
 2560SOL     MW10240   6.294   9.500   2.492 -0.6508  0.4000 -0.3430
 2561SOL     OW10241   7.927   0.045   1.822 -0.1214 -0.3116 -0.8048
 2561SOL    HW110242   7.963   0.025   1.735 -1.6068  0.3105 -1.5965
 2561SOL    HW210243   7.914   0.140   1.820 -1.3337 -0.4575 -0.3703
 2561SOL     MW10244   7.930   0.055   1.810 -0.4845 -0.2475 -0.8529
 2562SOL     OW10245   4.771   1.200   4.004  0.6096 -0.3957  0.7992
 2562SOL    HW110246   4.694   1.207   4.061 -1.9806 -2.3143 -2.1089
 2562SOL    HW210247   4.803   1.111   4.019  0.1436 -0.7765 -0.3442
 2562SOL     MW10248   4.765   1.189   4.014  0.1983 -0.7051  0.2540
 2563SOL     OW10249   7.171   9.028   1.173 -0.3161  0.3852 -0.1584
 2563SOL    HW110250   7.138   8.996   1.089 -1.5711  0.8977  0.1198
 2563SOL    HW210251   7.147   9.120   1.175  0.2983  0.5356  0.4816
 2563SOL     MW10252   7.163   9.036   1.162 -0.4023  0.4744 -0.0348
 2564SOL     OW10253   6.705   8.314   3.312 -0.2598  0.5768  0.8286
 2564SOL    HW110254   6.775   8.342   3.253 -0.8271 -1.1760 -0.7907
 2564SOL    HW210255   6.738   8.233   3.352 -0.7018  0.6501  1.3677
 2564SOL     MW10256   6.719   8.307   3.310 -0.3957  0.3508  0.6832
 2565SOL     OW10257   4.779   1.554   4.201  0.6956 -0.0970  0.2642
 2565SOL    HW110258   4.807   1.493   4.269 -1.2455  1.0318  2.1970
 2565SOL    HW210259   4.842   1.626   4.205 -0.2157  0.6509  1.9436
 2565SOL     MW10260   4.791   1.555   4.211  0.3117  0.1556  0.7503
 2566SOL     OW10261   5.152   1.109   7.883  0.0529 -0.3961  0.2077
 2566SOL    HW110262   5.236   1.153   7.866  0.1067 -0.1349  1.0957
 2566SOL    HW210263   5.088   1.161   7.834  0.4994 -1.1006 -1.1867
 2566SOL     MW10264   5.155   1.122   7.874  0.1202 -0.4558  0.1396
 2567SOL     OW10265   6.929   8.294   3.125 -0.7290  0.7385 -0.3297
 2567SOL    HW110266   7.024   8.287   3.124 -0.7534  0.3927 -0.4653
 2567SOL    HW210267   6.907   8.347   3.049 -0.5322  2.4252  0.7396
 2567SOL     MW10268   6.939   8.300   3.115 -0.7058  0.9190 -0.2041
 2568SOL     OW10269   4.715   1.357   7.121 -0.1069  0.7741  0.1579
 2568SOL    HW110270   4.794   1.304   7.112 -0.6652 -0.0730  0.0932
 2568SOL    HW210271   4.715   1.413   7.043  0.1185  0.3564 -0.1468
 2568SOL     MW10272   4.726   1.358   7.109 -0.1517  0.6039  0.1082
 2569SOL     OW10273   5.618   0.252   9.290 -0.7599 -0.1129 -0.4166
 2569SOL    HW110274   5.682   0.319   9.265 -2.1733  0.6979 -2.0418
 2569SOL    HW210275   5.540   0.273   9.240 -0.8755 -3.7795 -2.1288
 2569SOL     MW10276   5.616   0.264   9.280 -0.9657 -0.4972 -0.8658
 2570SOL     OW10277   6.691   8.022   8.729  0.0388 -0.1265 -0.6212
 2570SOL    HW110278   6.769   8.076   8.743 -0.1947  0.3261 -1.0514
 2570SOL    HW210279   6.648   8.020   8.815  1.5311 -2.0267  0.1706
 2570SOL     MW10280   6.696   8.029   8.742  0.2082 -0.3213 -0.5726
 2571SOL     OW10281   8.128   9.495   3.247  0.0993 -0.0493 -0.5749
 2571SOL    HW110282   8.083   9.467   3.167  0.8579  0.6484 -1.2714
 2571SOL    HW210283   8.217   9.462   3.238  0.0247 -0.5116  0.2916
 2571SOL     MW10284   8.134   9.487   3.235  0.1914 -0.0176 -0.5520
 2572SOL     OW10285   6.230   7.986   9.626  0.3626  0.4818 -0.4029
 2572SOL    HW110286   6.240   8.079   9.608  1.4489  0.6597  0.9986
 2572SOL    HW210287   6.208   7.981   9.719  1.5968 -0.6986 -0.1427
 2572SOL     MW10288   6.228   7.998   9.636  0.6749  0.3469 -0.1793
 2573SOL     OW10289   6.280   9.097   9.262 -0.7720  0.0676  0.3935
 2573SOL    HW110290   6.203   9.066   9.215  1.2738 -1.2896 -2.3273
 2573SOL    HW210291   6.307   9.022   9.315 -0.4682  0.0101  0.1581
 2573SOL     MW10292   6.273   9.082   9.263 -0.4558 -0.1228 -0.0044
 2574SOL     OW10293   7.459   0.628   7.184 -0.1464  0.0087 -0.1577
 2574SOL    HW110294   7.488   0.692   7.249 -0.6483  1.3499 -1.2238
 2574SOL    HW210295   7.480   0.668   7.099 -0.9766 -0.9928 -0.8568
 2574SOL     MW10296   7.466   0.642   7.181 -0.3257  0.0544 -0.3952
 2575SOL     OW10297   5.803   1.125   0.803 -0.4494 -0.5091  0.4093
 2575SOL    HW110298   5.776   1.202   0.753 -1.0902 -0.8165  0.2624
 2575SOL    HW210299   5.722   1.095   0.845 -0.6683 -2.2728 -1.1382
 2575SOL     MW10300   5.788   1.131   0.802 -0.5651 -0.7878  0.1812
 2576SOL     OW10301   6.795   1.342   0.937  0.8659  0.4296  0.1881
 2576SOL    HW110302   6.791   1.303   0.850  0.0640 -0.2229  0.5116
 2576SOL    HW210303   6.871   1.400   0.933  2.0506 -1.0969 -0.3279
 2576SOL     MW10304   6.805   1.344   0.924  0.9174  0.1364  0.1622
 2577SOL     OW10305   8.022   9.477   6.829  0.0696  0.3232  0.4453
 2577SOL    HW110306   7.955   9.441   6.771 -0.5344  0.4693  1.0359
 2577SOL    HW210307   8.011   9.429   6.911 -0.0640  1.1308  0.9098
 2577SOL     MW10308   8.012   9.466   6.833 -0.0297  0.4516  0.5873
 2578SOL     OW10309   5.938   9.014   1.260  0.1530 -0.1669  0.1461
 2578SOL    HW110310   6.005   8.953   1.290  0.4189  1.0995  2.3384
 2578SOL    HW210311   5.977   9.057   1.184  2.0591  0.8091  1.5952
 2578SOL     MW10312   5.952   9.012   1.254  0.4453  0.1349  0.6362
 2579SOL     OW10313   5.696   1.011   3.059 -0.3645  0.3111 -0.6828
 2579SOL    HW110314   5.636   1.066   3.110 -0.7838 -1.0251  0.3492
 2579SOL    HW210315   5.668   1.021   2.969 -0.2700  1.9476 -0.5645
 2579SOL     MW10316   5.684   1.020   3.054 -0.4082  0.3515 -0.5280
 2580SOL     OW10317   8.228   0.139   6.012 -0.6455  0.0422  0.1552
 2580SOL    HW110318   8.261   0.102   5.931 -0.5035 -0.1483  0.3005
 2580SOL    HW210319   8.255   0.231   6.010 -2.1140  0.5034 -0.8252
 2580SOL     MW10320   8.236   0.147   6.001 -0.8240  0.0786  0.0428
 2581SOL     OW10321   7.148   0.181   5.191  0.1250 -0.4836 -0.5036
 2581SOL    HW110322   7.157   0.088   5.208 -0.3363 -0.7326 -1.5285
 2581SOL    HW210323   7.201   0.224   5.258  0.3539 -1.4794 -0.0414
 2581SOL     MW10324   7.156   0.174   5.202  0.0937 -0.6511 -0.5793
 2582SOL     OW10325   6.717   9.073   0.291  0.2867 -0.0359 -0.1042
 2582SOL    HW110326   6.798   9.030   0.266  1.1549  0.2710  1.9319
 2582SOL    HW210327   6.695   9.129   0.217  1.7386 -0.3784 -0.8311
 2582SOL     MW10328   6.725   9.075   0.278  0.5989 -0.0407  0.0720
 2583SOL     OW10329   5.840   9.593   4.797  0.3980 -0.1363 -0.5189
 2583SOL    HW110330   5.778   9.549   4.855  0.6086 -0.8792 -0.8421
 2583SOL    HW210331   5.895   9.646   4.855 -0.2036  0.1234 -0.1786
 2583SOL     MW10332   5.839   9.594   4.812  0.3454 -0.2014 -0.5166
 2584SOL     OW10333   6.501   1.321   9.843 -0.2988 -0.6223  0.4773
 2584SOL    HW110334   6.425   1.372   9.814  0.8287  0.4103 -0.8047
 2584SOL    HW210335   6.538   1.372   9.914  2.3852  1.9834 -2.5016
 2584SOL     MW10336   6.496   1.335   9.849  0.2142 -0.1327 -0.0961
 2585SOL     OW10337   4.320   9.104   1.447 -0.3483  0.2507  0.3976
 2585SOL    HW110338   4.345   9.153   1.526  0.0661 -0.2104  0.5592
 2585SOL    HW210339   4.352   9.157   1.375 -1.5206  1.1275  0.4940
 2585SOL     MW10340   4.328   9.118   1.448 -0.4503  0.3066  0.4324
 2586SOL     OW10341   5.929   9.647   0.616  0.6217  0.0740 -0.2541
 2586SOL    HW110342   5.997   9.592   0.577 -1.0607 -0.8742 -2.0246
 2586SOL    HW210343   5.885   9.688   0.541 -0.5702  0.8860  0.8454
 2586SOL     MW10344   5.932   9.645   0.601  0.2349  0.0557 -0.3444
 2587SOL     OW10345   7.065   9.982   6.997 -0.2030  0.0808 -0.1610
 2587SOL    HW110346   7.156   9.952   6.995 -0.3598 -0.3841 -0.7260
 2587SOL    HW210347   7.064  10.052   7.061  0.5223 -0.0280 -0.0243
 2587SOL     MW10348   7.077   9.987   7.005 -0.1265  0.0036 -0.2186
 2588SOL     OW10349   6.453   9.286   6.007 -0.1701  0.2352 -0.4947
 2588SOL    HW110350   6.455   9.369   5.959 -0.0943 -0.2978 -1.4373
 2588SOL    HW210351   6.544   9.270   6.031 -0.1556  0.3182 -0.4926
 2588SOL     MW10352   6.465   9.295   6.004 -0.1580  0.1747 -0.6213
 2589SOL     OW10353   4.155   0.180   2.556  0.4139 -0.2585  0.0033
 2589SOL    HW110354   4.165   0.239   2.482 -0.8764  0.3011  0.2488
 2589SOL    HW210355   4.202   0.224   2.628 -0.4274  0.4402  0.1502
 2589SOL     MW10356   4.163   0.194   2.556  0.1271 -0.0891  0.0561
 2590SOL     OW10357   7.362   1.276   2.412  0.2401  0.3434  0.0350
 2590SOL    HW110358   7.314   1.352   2.444  0.1618 -0.6170  2.3726
 2590SOL    HW210359   7.300   1.232   2.353  0.5917  2.4556 -2.0581
 2590SOL     MW10360   7.347   1.280   2.408  0.2769  0.4984  0.0679
 2591SOL     OW10361   7.595   8.695   0.552  0.0366 -0.6555  0.6833
 2591SOL    HW110362   7.637   8.680   0.467 -0.2268 -4.0133  0.9783
 2591SOL    HW210363   7.666   8.688   0.615  0.2721  2.0784  0.8262
 2591SOL     MW10364   7.610   8.692   0.549  0.0329 -0.7394  0.7423
 2592SOL     OW10365   6.714   9.780   1.374  0.2551 -0.4029 -0.4780
 2592SOL    HW110366   6.665   9.738   1.445  1.6862 -1.8002 -0.2884
 2592SOL    HW210367   6.698   9.874   1.388  1.7332 -0.4846  2.6999
 2592SOL     MW10368   6.705   9.787   1.386  0.6466 -0.6019 -0.0248
 2593SOL     OW10369   4.078   9.338   5.282 -0.1668 -0.2315 -0.0192
 2593SOL    HW110370   4.069   9.280   5.358 -0.7820  0.1170  0.1823
 2593SOL    HW210371   4.151   9.301   5.232 -0.6181 -1.2428  0.0409
 2593SOL     MW10372   4.086   9.325   5.286 -0.3103 -0.3207  0.0160
 2594SOL     OW10373   6.522   7.621   8.102 -0.1170 -0.1778  0.4929
 2594SOL    HW110374   6.577   7.583   8.033  0.0422 -0.7890  0.9474
 2594SOL    HW210375   6.432   7.607   8.072 -0.0938 -1.8503  1.1157
 2594SOL     MW10376   6.517   7.614   8.089 -0.0924 -0.4851  0.6379
 2595SOL     OW10377   3.803   0.028   3.157  0.5823  0.2713 -0.1349
 2595SOL    HW110378   3.799   0.033   3.062  2.2029 -1.5684 -0.3629
 2595SOL    HW210379   3.818   0.118   3.186 -0.8847  1.0086 -1.5088
 2595SOL     MW10380   3.804   0.041   3.148  0.6030  0.1229 -0.3505
 2596SOL     OW10381   4.854   8.662   6.103 -0.2959  0.3486  0.5028
 2596SOL    HW110382   4.924   8.727   6.115  0.4728 -0.3977  0.1747
 2596SOL    HW210383   4.792   8.705   6.044  1.7060 -0.2755 -2.2317
 2596SOL     MW10384   4.855   8.677   6.097  0.0770  0.1641  0.0906
 2597SOL     OW10385   6.108   9.288   3.457 -0.0980 -0.0518 -0.3079
 2597SOL    HW110386   6.044   9.318   3.393 -2.0140 -1.1059  1.0284
 2597SOL    HW210387   6.121   9.362   3.516  0.8898  0.5720 -1.2737
 2597SOL     MW10388   6.101   9.302   3.456 -0.2229 -0.1097 -0.2581
 2598SOL     OW10389   5.568   0.352   4.314  0.4283  0.4168 -0.2505
 2598SOL    HW110390   5.551   0.409   4.239  1.1227 -0.4519 -1.0999
 2598SOL    HW210391   5.482   0.318   4.338  0.4120 -1.0678 -2.1470
 2598SOL     MW10392   5.554   0.355   4.307  0.5196  0.1001 -0.6200
 2599SOL     OW10393   5.331   0.213   4.393  0.3190 -0.5543  1.1843
 2599SOL    HW110394   5.309   0.159   4.317  0.9714  0.5936  0.1531
 2599SOL    HW210395   5.253   0.266   4.409  0.3519 -0.4529  1.0106
 2599SOL     MW10396   5.318   0.213   4.385  0.4113 -0.3861  1.0222
 2600SOL     OW10397   5.085   1.173   8.505  0.1006  0.5999  0.2480
 2600SOL    HW110398   5.032   1.183   8.426 -1.2510  1.7190  1.2346
 2600SOL    HW210399   5.149   1.106   8.483 -1.2530 -0.2666 -1.2781
 2600SOL     MW10400   5.086   1.165   8.492 -0.2635  0.6339  0.1754
 2601SOL     OW10401   3.738   9.530   3.527  0.2888 -0.4029  0.2514
 2601SOL    HW110402   3.758   9.595   3.459 -0.1343 -0.7959 -0.2593
 2601SOL    HW210403   3.700   9.580   3.599  1.3154  0.1014  0.4547
 2601SOL     MW10404   3.735   9.545   3.528  0.3700 -0.3879  0.2100
 2602SOL     OW10405   4.063   9.744   3.236 -0.4573 -0.3037  0.4771
 2602SOL    HW110406   4.071   9.734   3.141 -0.9186  0.7939  0.3133
 2602SOL    HW210407   3.969   9.739   3.253 -0.3309 -1.2699  0.9846
 2602SOL     MW10408   4.051   9.742   3.226 -0.5024 -0.2860  0.5234
 2603SOL     OW10409   5.782   0.132   0.161  0.0801  0.3642  0.0627
 2603SOL    HW110410   5.802   0.173   0.245 -1.5043  0.5196  0.3865
 2603SOL    HW210411   5.831   0.050   0.163 -1.5814 -0.6743  2.0993
 2603SOL     MW10412   5.792   0.126   0.173 -0.3567  0.2453  0.3804
 2604SOL     OW10413   5.540   9.880   6.401  0.3685 -0.2862 -0.2793
 2604SOL    HW110414   5.496   9.916   6.478 -0.7951  0.9237 -1.4759
 2604SOL    HW210415   5.630   9.865   6.431 -0.1504 -0.2667  1.4253
 2604SOL     MW10416   5.546   9.883   6.416  0.1421 -0.1208 -0.2109
 2605SOL     OW10417   4.513   9.717   6.316 -0.4572  0.2242  0.1325
 2605SOL    HW110418   4.592   9.770   6.304 -1.1272  0.8058 -2.3212
 2605SOL    HW210419   4.532   9.635   6.272 -0.6779 -0.2709  0.9342
 2605SOL     MW10420   4.526   9.713   6.309 -0.5771  0.2358 -0.0898
 2606SOL     OW10421   5.309   0.422   2.687 -0.9808 -0.5476  0.2088
 2606SOL    HW110422   5.316   0.505   2.640 -2.3930 -0.4953  0.0698
 2606SOL    HW210423   5.223   0.388   2.665 -0.7221 -1.6965  0.8666
 2606SOL     MW10424   5.298   0.429   2.678 -1.1361 -0.6952  0.2786
 2607SOL     OW10425   7.420   9.629   4.553 -0.5057 -0.2147 -0.5825
 2607SOL    HW110426   7.515   9.618   4.555 -0.4929 -0.0805  0.7082
 2607SOL    HW210427   7.406   9.723   4.548 -0.5728 -0.2575 -1.2041
 2607SOL     MW10428   7.430   9.640   4.553 -0.5130 -0.2024 -0.4925
 2608SOL     OW10429   5.029   8.348   2.775  0.3220  0.3602  0.2502
 2608SOL    HW110430   5.122   8.327   2.777  0.1429 -0.4270  1.2074
 2608SOL    HW210431   4.987   8.269   2.741  0.1503  1.4629 -2.3333
 2608SOL     MW10432   5.036   8.334   2.771  0.2748  0.4027  0.0313
 2609SOL     OW10433   4.439   0.764   2.372  1.2011  0.0983 -0.0518
 2609SOL    HW110434   4.479   0.746   2.287 -0.1327 -0.1725 -0.6318
 2609SOL    HW210435   4.345   0.766   2.356  0.8989 -0.2093  1.4614
 2609SOL     MW10436   4.432   0.762   2.359  0.9809  0.0204  0.0738
 2610SOL     OW10437   3.626   9.509   8.431  0.4450  0.0308 -0.2915
 2610SOL    HW110438   3.621   9.512   8.336  1.1234  1.6886 -0.2984
 2610SOL    HW210439   3.632   9.600   8.458  0.0967 -0.3998  1.3596
 2610SOL     MW10440   3.626   9.521   8.422  0.4894  0.1960 -0.0702
 2611SOL     OW10441   7.357  10.011   9.877 -0.2728  0.4715  0.1616
 2611SOL    HW110442   7.345   9.918   9.896  0.5392  0.0733 -1.1044
 2611SOL    HW210443   7.373  10.014   9.782  1.2803  1.7204  0.4103
 2611SOL     MW10444   7.358   9.999   9.867  0.0455  0.5860  0.0247
 2612SOL     OW10445   5.101   7.643   1.229  0.4237  0.1590  0.1980
 2612SOL    HW110446   5.068   7.709   1.290 -0.6867 -1.9374  1.9972
 2612SOL    HW210447   5.187   7.619   1.263  0.4698  0.0967  0.0386
 2612SOL     MW10448   5.108   7.648   1.241  0.2805 -0.1315  0.4187
 2613SOL     OW10449   5.998   7.857   8.594 -0.8913 -0.5525  0.0467
 2613SOL    HW110450   6.041   7.918   8.653  1.8581 -1.1641 -1.1597
 2613SOL    HW210451   6.002   7.899   8.508 -1.7962 -1.1093 -0.2925
 2613SOL     MW10452   6.004   7.870   8.590 -0.6431 -0.7097 -0.1613
 2614SOL     OW10453   6.423   1.382   9.137  0.3433 -0.2042 -0.4295
 2614SOL    HW110454   6.421   1.308   9.198 -1.1573 -0.5992 -0.8977
 2614SOL    HW210455   6.355   1.441   9.170  0.5451  0.2766 -0.8709
 2614SOL     MW10456   6.414   1.380   9.150  0.1685 -0.1927 -0.5519
 2615SOL     OW10457   7.494   0.652   5.211 -0.5107 -0.3117 -0.6847
 2615SOL    HW110458   7.522   0.561   5.196 -1.1009 -0.4335 -1.0936
 2615SOL    HW210459   7.454   0.651   5.298 -0.3204 -0.3907 -0.5962
 2615SOL     MW10460   7.493   0.639   5.221 -0.5645 -0.3387 -0.7278
 2616SOL     OW10461   4.075   8.965   9.869  0.9506 -0.0822  0.3749
 2616SOL    HW110462   4.012   8.994   9.802  1.7739  0.2325 -0.2792
 2616SOL    HW210463   4.071   8.870   9.865 -0.1737 -0.0877  1.0147
 2616SOL     MW10464   4.066   8.956   9.859  0.9101 -0.0406  0.3729
 2617SOL     OW10465   4.569   9.745   0.639  0.2468  0.6300 -0.0937
 2617SOL    HW110466   4.578   9.775   0.729  1.0723 -1.0390  0.4145
 2617SOL    HW210467   4.659   9.743   0.605  0.3798 -2.1369  0.2358
 2617SOL     MW10468   4.583   9.749   0.647  0.3758  0.0330  0.0190
 2618SOL     OW10469   5.165   1.382   7.086  0.1522 -0.2316  0.1381
 2618SOL    HW110470   5.233   1.343   7.141  0.7563  1.1801  0.4395
 2618SOL    HW210471   5.100   1.313   7.076  0.9951 -1.1805  0.9513
 2618SOL     MW10472   5.165   1.368   7.092  0.3469 -0.1693  0.2881
 2619SOL     OW10473   5.757   7.963   8.333 -0.0487 -0.1247  0.1615
 2619SOL    HW110474   5.806   8.042   8.357 -0.6468  0.1016  0.6721
 2619SOL    HW210475   5.811   7.921   8.266  0.4067  0.5765  0.0727
 2619SOL     MW10476   5.771   7.968   8.328 -0.0679  0.0001  0.2183
 2620SOL     OW10477   4.223   1.192   0.384  0.3882  0.2541  0.0171
 2620SOL    HW110478   4.310   1.155   0.370  1.6622  3.3987 -1.2132
 2620SOL    HW210479   4.185   1.198   0.296 -0.1441  1.0283  0.2915
 2620SOL     MW10480   4.229   1.188   0.370  0.4880  0.7815 -0.1115
 2621SOL     OW10481   4.435   9.101   6.319 -0.3571  0.2545 -0.3604
 2621SOL    HW110482   4.420   9.192   6.295  0.0235  0.2585 -0.6029
 2621SOL    HW210483   4.531   9.092   6.318 -0.3774 -0.0477  0.0382
 2621SOL     MW10484   4.446   9.112   6.316 -0.3086  0.2144 -0.3394
 2622SOL     OW10485   3.933   9.087   6.972 -0.8045  0.3921 -0.0766
 2622SOL    HW110486   3.973   9.108   7.056 -0.5501  1.3400 -0.4194
 2622SOL    HW210487   4.008   9.079   6.912 -0.9000 -1.3448 -0.0113
 2622SOL     MW10488   3.949   9.089   6.975 -0.7831  0.2859 -0.1140
 2623SOL     OW10489   4.706   1.034   5.062  0.1263  0.1675 -0.1686
 2623SOL    HW110490   4.707   1.114   5.115 -2.2699 -0.4371  0.9485
 2623SOL    HW210491   4.774   1.048   4.996  0.6091  2.5961  0.7310
 2623SOL     MW10492   4.715   1.047   5.060 -0.1312  0.4130  0.1028
 2624SOL     OW10493   6.206   7.849   3.466  0.1378  0.2455 -0.1786
 2624SOL    HW110494   6.180   7.812   3.551  2.2046  0.1765  0.4786
 2624SOL    HW210495   6.127   7.891   3.433 -1.1204 -1.0085  1.0810
 2624SOL     MW10496   6.192   7.850   3.473  0.2466  0.0675  0.0794
 2625SOL     OW10497   7.433   1.312   9.367 -0.2747  0.0016  0.0858
 2625SOL    HW110498   7.362   1.364   9.403 -0.4292 -0.3230  0.2548
 2625SOL    HW210499   7.407   1.296   9.276 -0.1567  0.3395 -0.0084
 2625SOL     MW10500   7.420   1.317   9.359 -0.2796  0.0034  0.0959
 2626SOL     OW10501   6.005   7.385   5.211 -0.1433  0.0425  0.1277
 2626SOL    HW110502   5.972   7.468   5.244  1.2619  1.0660 -0.9131
 2626SOL    HW210503   6.054   7.348   5.284 -0.3381  0.3756  0.4339
 2626SOL     MW10504   6.007   7.391   5.225  0.0196  0.2250  0.0288
 2627SOL     OW10505   5.190   0.484   9.457  0.8326  0.4817  0.6289
 2627SOL    HW110506   5.222   0.439   9.378 -0.3167  1.3202 -0.3657
 2627SOL    HW210507   5.148   0.416   9.508  0.8155  0.0809  0.0902
 2627SOL     MW10508   5.189   0.469   9.453  0.6756  0.5406  0.4226
 2628SOL     OW10509   5.283   9.360   2.245  0.1604  0.1591  0.3536
 2628SOL    HW110510   5.363   9.406   2.217  0.4939 -0.9376 -0.5293
 2628SOL    HW210511   5.298   9.269   2.222 -2.2702  0.2297 -1.9234
 2628SOL     MW10512   5.296   9.354   2.238 -0.1218  0.0210 -0.0716
 2629SOL     OW10513   6.441   0.998   5.292 -0.5488  0.2378  0.2975
 2629SOL    HW110514   6.515   1.009   5.351 -0.1054  0.0273 -0.2080
 2629SOL    HW210515   6.366   1.032   5.340 -0.1998  0.0326  0.9913
 2629SOL     MW10516   6.441   1.004   5.306 -0.4422  0.1819  0.3228
 2630SOL     OW10517   5.551   0.388   4.745  0.1866  0.7860 -0.3516
 2630SOL    HW110518   5.595   0.314   4.703  0.3633 -0.0945  1.2907
 2630SOL    HW210519   5.462   0.357   4.761  0.0122  1.2453 -0.4173
 2630SOL     MW10520   5.545   0.374   4.742  0.1869  0.7293 -0.1394
 2631SOL     OW10521   6.838   9.816   3.581  0.3227 -0.2848 -0.0698
 2631SOL    HW110522   6.802   9.904   3.593  1.8567  0.5129 -1.0358
 2631SOL    HW210523   6.836   9.778   3.669 -1.7228  0.1436  0.1180
 2631SOL     MW10524   6.833   9.823   3.595  0.2538 -0.1198 -0.1746
 2632SOL     OW10525   4.886   1.438   5.679  0.0494  0.2352 -0.1718
 2632SOL    HW110526   4.936   1.356   5.680 -0.5947 -0.6923 -5.7531
 2632SOL    HW210527   4.807   1.418   5.729  0.8675 -1.8484  0.4064
 2632SOL     MW10528   4.882   1.424   5.686  0.0728 -0.1700 -0.8451
 2633SOL     OW10529   5.595   8.937   6.146  0.0472 -0.2651  0.2964
 2633SOL    HW110530   5.562   9.025   6.131 -1.4665 -0.7371  0.6334
 2633SOL    HW210531   5.569   8.888   6.067 -0.7160 -0.8219  0.8779
 2633SOL     MW10532   5.587   8.942   6.133 -0.2592 -0.4035  0.4200
 2634SOL     OW10533   4.077   0.153   9.788  0.0728  0.4200 -0.2371
 2634SOL    HW110534   4.063   0.081   9.726 -1.1346  0.6849 -0.2942
 2634SOL    HW210535   4.067   0.112   9.874  1.2267  0.1618 -0.2039
 2634SOL     MW10536   4.074   0.138   9.791  0.0656  0.4209 -0.2403
 2635SOL     OW10537   4.486   9.375   1.030  0.1101  0.5182 -0.1079
 2635SOL    HW110538   4.552   9.306   1.024  0.0131  0.3205  0.9509
 2635SOL    HW210539   4.423   9.342   1.095 -0.2267  1.3685  0.0039
 2635SOL     MW10540   4.486   9.361   1.038  0.0517  0.6060  0.0496
 2636SOL     OW10541   7.841   8.842   0.713  0.1894  0.6286 -0.2621
 2636SOL    HW110542   7.818   8.870   0.624 -0.5218  1.8332  0.2730
 2636SOL    HW210543   7.760   8.807   0.749  0.8927 -1.6066 -0.6642
 2636SOL     MW10544   7.827   8.841   0.706  0.1883  0.4899 -0.2442
 2637SOL     OW10545   6.534   8.011   8.988  0.3384 -0.3913 -0.0824
 2637SOL    HW110546   6.502   7.921   8.992 -1.7624  0.3317  0.8170
 2637SOL    HW210547   6.582   8.022   9.070  0.0118 -0.4874  0.1229
 2637SOL     MW10548   6.536   8.000   9.000  0.0117 -0.3069  0.0663
 2638SOL     OW10549   4.524   1.042   2.882  0.4316 -0.2101  0.1713
 2638SOL    HW110550   4.466   1.034   2.806 -0.9492  1.5430  0.9495
 2638SOL    HW210551   4.612   1.038   2.846 -0.1957  0.1701 -1.4760
 2638SOL     MW10552   4.528   1.040   2.867  0.1613  0.0770  0.0543
 2639SOL     OW10553   4.618   9.283   1.968 -0.0287  0.0116 -0.2555
 2639SOL    HW110554   4.709   9.272   1.995  0.0719 -0.2929 -0.7007
 2639SOL    HW210555   4.573   9.315   2.046  0.8182  1.9723 -0.5045
 2639SOL     MW10556   4.624   9.286   1.982  0.0988  0.2345 -0.3489
 2640SOL     OW10557   5.477   0.550   5.552 -0.0504  0.1853  0.0277
 2640SOL    HW110558   5.487   0.641   5.522 -0.0054 -0.0998 -0.8373
 2640SOL    HW210559   5.389   0.548   5.591  0.4265  0.9057  1.1912
 2640SOL     MW10560   5.466   0.562   5.553  0.0199  0.2439  0.0679
 2641SOL     OW10561   7.408   9.994   6.027 -0.0818  0.0063 -0.5791
 2641SOL    HW110562   7.367   9.926   5.973 -0.5926  0.0896 -0.3055
 2641SOL    HW210563   7.419   9.952   6.112  1.8394 -0.5313 -1.0507
 2641SOL     MW10564   7.404   9.979   6.031  0.1080 -0.0548 -0.6057
 2642SOL     OW10565   3.970   9.588   0.878 -0.0636  0.2913  0.0758
 2642SOL    HW110566   3.914   9.660   0.847  0.5952  0.8969  0.2685
 2642SOL    HW210567   3.932   9.510   0.838 -0.5308  0.7985 -0.5033
 2642SOL     MW10568   3.957   9.587   0.868 -0.0378  0.4410  0.0238
 2643SOL     OW10569   4.510   9.467   3.489  0.2959 -0.0703  0.5030
 2643SOL    HW110570   4.504   9.486   3.583  0.4567 -1.1943  0.7535
 2643SOL    HW210571   4.597   9.430   3.478 -0.4934 -2.0289  0.3337
 2643SOL     MW10572   4.521   9.464   3.500  0.2113 -0.4852  0.5139
 2644SOL     OW10573   5.010   9.996   4.433 -0.2281  0.1686 -0.1145
 2644SOL    HW110574   4.946   9.925   4.427 -0.4883  0.3722  0.2392
 2644SOL    HW210575   5.059   9.978   4.514  2.6257 -2.0252 -2.1304
 2644SOL     MW10576   5.008   9.984   4.443  0.1209 -0.0992 -0.3382
 2645SOL     OW10577   3.564   9.145   6.255 -0.1409 -0.5798  0.3342
 2645SOL    HW110578   3.640   9.116   6.204 -0.7611 -0.1257 -0.8876
 2645SOL    HW210579   3.492   9.143   6.193 -0.9723 -0.2022  1.2682
 2645SOL     MW10580   3.565   9.141   6.240 -0.3363 -0.4679  0.2955
 2646SOL     OW10581   4.697   0.710   9.433  0.5607 -0.4976 -0.4603
 2646SOL    HW110582   4.609   0.743   9.417  0.6414  0.6970  1.2692
 2646SOL    HW210583   4.689   0.657   9.511  0.9530 -2.4909 -1.7084
 2646SOL     MW10584   4.684   0.708   9.441  0.6243 -0.6051 -0.3955
 2647SOL     OW10585   5.398   0.063   6.763 -0.1151 -0.2446 -0.2721
 2647SOL    HW110586   5.375  -0.010   6.706 -0.0127 -1.6592  1.4154
 2647SOL    HW210587   5.490   0.048   6.786 -0.4948 -0.4610  1.2616
 2647SOL     MW10588   5.408   0.051   6.759 -0.1524 -0.4641  0.1614
 2648SOL     OW10589   4.900   1.694   7.759 -0.2548 -0.4374  0.8734
 2648SOL    HW110590   4.887   1.660   7.847 -0.5160 -0.7680  0.7094
 2648SOL    HW210591   4.840   1.642   7.704  0.5086 -0.8116  0.3723
 2648SOL     MW10592   4.890   1.682   7.763 -0.1872 -0.5323  0.7839
 2649SOL     OW10593   6.839   8.495   5.066 -0.0059  0.0079 -0.8017
 2649SOL    HW110594   6.822   8.584   5.037  0.6608  0.3264 -0.2442
 2649SOL    HW210595   6.933   8.482   5.048  0.0461 -0.3515 -0.2974
 2649SOL     MW10596   6.850   8.505   5.060  0.0908  0.0024 -0.6588
 2650SOL     OW10597   4.529   9.652   8.299  0.1034 -0.5052  0.3184
 2650SOL    HW110598   4.607   9.659   8.355  0.5670 -2.8681  0.0339
 2650SOL    HW210599   4.563   9.627   8.213 -0.7232  1.8649 -0.7912
 2650SOL     MW10600   4.544   9.650   8.295  0.0546 -0.5042  0.1308
 2651SOL     OW10601   7.563   8.605  10.049 -0.6036  0.2479 -0.1475
 2651SOL    HW110602   7.532   8.663   9.978 -0.6895  2.2997  1.4748
 2651SOL    HW210603   7.503   8.531  10.047 -0.3353  0.0199 -2.4839
 2651SOL     MW10604   7.551   8.603  10.039 -0.5790  0.4933 -0.2436
 2652SOL     OW10605   4.764   7.644   5.984  0.9389 -0.5389  0.2619
 2652SOL    HW110606   4.853   7.627   6.015  1.0760  0.2730  0.3252
 2652SOL    HW210607   4.776   7.683   5.897  0.6541 -0.2373  0.3570
 2652SOL     MW10608   4.778   7.647   5.976  0.9191 -0.3891  0.2833
 2653SOL     OW10609   6.297   1.673   3.554 -0.2721  0.1260 -0.1042
 2653SOL    HW110610   6.252   1.713   3.480 -1.3150 -1.1231 -0.1727
 2653SOL    HW210611   6.352   1.606   3.515  0.1773  0.3359  0.1561
 2653SOL     MW10612   6.299   1.670   3.539 -0.3520 -0.0139 -0.0784
 2654SOL     OW10613   7.351  10.008   6.760 -0.4448 -0.5677 -0.2883
 2654SOL    HW110614   7.432   9.994   6.710 -1.2679 -0.8602 -1.6116
 2654SOL    HW210615   7.352   9.941   6.828 -0.8324 -2.3917 -1.9804
 2654SOL     MW10616   7.362   9.997   6.762 -0.6077 -0.8526 -0.6941
 2655SOL     OW10617   4.690   9.817   4.322  0.0246 -0.0463 -0.2216
 2655SOL    HW110618   4.692   9.854   4.233 -1.1577 -0.2670 -0.3594
 2655SOL    HW210619   4.637   9.879   4.372 -1.4729 -1.1950 -0.3100
 2655SOL     MW10620   4.683   9.831   4.317 -0.3361 -0.2305 -0.2521
 2656SOL     OW10621   6.628   9.702   1.640  0.0895  0.0342 -1.0182
 2656SOL    HW110622   6.689   9.772   1.665 -0.5239 -0.3868  2.0232
 2656SOL    HW210623   6.666   9.623   1.677 -2.1383 -0.2604  0.8331
 2656SOL     MW10624   6.642   9.701   1.648 -0.2929 -0.0621 -0.3597
 2657SOL     OW10625   8.035   0.282   9.105  0.1342 -0.2573 -0.1233
 2657SOL    HW110626   8.007   0.373   9.108 -0.6163 -0.4966  1.4095
 2657SOL    HW210627   7.969   0.238   9.052  0.0828 -0.0370 -0.2418
 2657SOL     MW10628   8.023   0.288   9.098  0.0263 -0.2598  0.0670
 2658SOL     OW10629   4.359   9.481   1.365  0.0092  0.4752  0.2792
 2658SOL    HW110630   4.386   9.557   1.417  1.7557  0.3388 -0.3513
 2658SOL    HW210631   4.304   9.430   1.424  0.4794  1.2242  1.4018
 2658SOL     MW10632   4.356   9.485   1.380  0.3075  0.5577  0.3454
 2659SOL     OW10633   6.848   9.244   7.702  0.1760  0.4863 -0.2349
 2659SOL    HW110634   6.773   9.278   7.654 -0.1960  2.4054  1.5671
 2659SOL    HW210635   6.844   9.149   7.691 -2.1977  0.5992 -0.6388
 2659SOL     MW10636   6.838   9.236   7.694 -0.1935  0.7597 -0.0468
 2660SOL     OW10637   4.224   9.955   3.282 -0.1890  0.2407 -0.1832
 2660SOL    HW110638   4.171   9.878   3.261 -0.1271 -0.1881  1.1607
 2660SOL    HW210639   4.297   9.952   3.219 -0.5188 -0.4511 -0.5414
 2660SOL     MW10640   4.227   9.945   3.270 -0.2251  0.0899 -0.0506
 2661SOL     OW10641   4.801   1.102   2.820  0.4624 -0.3288 -0.2718
 2661SOL    HW110642   4.814   1.056   2.903 -1.3008 -1.6736 -0.6683
 2661SOL    HW210643   4.807   1.195   2.842  2.1918 -0.6864  0.9366
 2661SOL     MW10644   4.803   1.108   2.834  0.4578 -0.5579 -0.1625
 2662SOL     OW10645   7.489   8.162   8.197 -0.0167  0.4614 -0.0220
 2662SOL    HW110646   7.401   8.182   8.227 -0.1522  0.0672 -0.1609
 2662SOL    HW210647   7.541   8.240   8.221  0.1222 -0.2574  2.1917
 2662SOL     MW10648   7.484   8.175   8.204 -0.0163  0.3116  0.2573
 2663SOL     OW10649   4.926   1.570   6.724  0.0174  0.3522  0.0344
 2663SOL    HW110650   4.951   1.594   6.635  1.5430  0.7676  0.5409
 2663SOL    HW210651   5.004   1.587   6.777 -0.5351 -0.7928  1.3023
 2663SOL     MW10652   4.940   1.575   6.719  0.1483  0.2540  0.2732
 2664SOL     OW10653   5.489   1.077   6.129  0.7683 -0.1752 -0.3928
 2664SOL    HW110654   5.405   1.073   6.083  0.7715 -1.1544 -0.3359
 2664SOL    HW210655   5.546   1.017   6.081  1.3631  0.2966 -0.2831
 2664SOL     MW10656   5.485   1.068   6.117  0.8488 -0.2435 -0.3704
 2665SOL     OW10657   5.234   8.355   9.340 -0.4784 -0.1918  0.1725
 2665SOL    HW110658   5.157   8.304   9.365 -0.0355 -0.5822  0.7989
 2665SOL    HW210659   5.242   8.342   9.246 -0.6204 -0.9536  0.2557
 2665SOL     MW10660   5.225   8.346   9.331 -0.4379 -0.3469  0.2680
 2666SOL     OW10661   7.411   9.131   0.414  0.2629 -0.0175 -0.0548
 2666SOL    HW110662   7.420   9.171   0.500 -1.8798  0.8452 -0.1781
 2666SOL    HW210663   7.501   9.126   0.381  0.9308  1.6318  1.3463
 2666SOL     MW10664   7.424   9.136   0.421  0.0645  0.3206  0.1172
 2667SOL     OW10665   6.686   0.905   9.732 -0.5591 -0.1366 -0.3353
 2667SOL    HW110666   6.666   0.964   9.806  1.0503 -0.1685  0.1501
 2667SOL    HW210667   6.612   0.917   9.672 -1.4638  0.5572  0.8712
 2667SOL     MW10668   6.673   0.915   9.734 -0.4643 -0.0475 -0.1076
 2668SOL     OW10669   7.833   9.210   2.713  0.3634 -0.1872  0.1574
 2668SOL    HW110670   7.911   9.265   2.724  0.1798  0.1443 -0.1467
 2668SOL    HW210671   7.760   9.272   2.711  0.2725 -0.2730 -1.6543
 2668SOL     MW10672   7.834   9.226   2.714  0.3264 -0.1541 -0.1274
 2669SOL     OW10673   4.614   0.455   6.611 -0.1964  0.6704  0.7989
 2669SOL    HW110674   4.559   0.533   6.607 -1.0786  0.0775  1.1743
 2669SOL    HW210675   4.685   0.473   6.549 -0.6923  1.5325  0.4613
 2669SOL     MW10676   4.617   0.468   6.602 -0.3819  0.7066  0.8040
 2670SOL     OW10677   3.802   9.378   2.214  0.3461 -0.3697 -0.4771
 2670SOL    HW110678   3.897   9.380   2.212  0.3657  1.2747  0.7105
 2670SOL    HW210679   3.780   9.337   2.297  0.0379  0.8676  0.0622
 2670SOL     MW10680   3.812   9.373   2.225  0.3073  0.0181 -0.2447
 2671SOL     OW10681   4.293   1.050   9.925 -0.3052  0.1587  0.0712
 2671SOL    HW110682   4.262   1.018   9.841 -0.1091 -0.2140  0.1363
 2671SOL    HW210683   4.305   1.144   9.913  0.9853 -0.0775 -0.7236
 2671SOL     MW10684   4.290   1.059   9.912 -0.1052  0.0768 -0.0270
 2672SOL     OW10685   5.870   1.039   3.426 -0.8237 -0.0016 -0.1365
 2672SOL    HW110686   5.839   1.092   3.353  0.7393  1.5060  0.2043
 2672SOL    HW210687   5.866   1.097   3.502  1.1110 -0.2470  0.2263
 2672SOL     MW10688   5.866   1.054   3.427 -0.3530  0.1682 -0.0418
 2673SOL     OW10689   6.592   0.826   3.218  0.1229 -0.3228 -0.8635
 2673SOL    HW110690   6.613   0.916   3.241 -0.9051 -0.9133  3.2233
 2673SOL    HW210691   6.652   0.773   3.270 -1.3061 -1.9667 -0.7879
 2673SOL     MW10692   6.603   0.831   3.228 -0.2077 -0.6235 -0.3033
 2674SOL     OW10693   3.591   9.663   6.288 -0.0769  0.2416  0.1391
 2674SOL    HW110694   3.598   9.574   6.255 -0.1735 -0.3612  1.6491
 2674SOL    HW210695   3.643   9.663   6.369 -2.8180  0.5645  2.0469
 2674SOL     MW10696   3.599   9.651   6.294 -0.4588  0.2039  0.5991
 2675SOL     OW10697   6.557   8.711   9.935 -0.1719 -0.3261  0.7121
 2675SOL    HW110698   6.633   8.656   9.954 -0.3461  0.0709  2.8433
 2675SOL    HW210699   6.545   8.763  10.015 -1.5889  0.9234 -0.2613
 2675SOL     MW10700   6.566   8.711   9.948 -0.3861 -0.1045  0.8679
 2676SOL     OW10701   6.249   1.302   6.216  0.4942  0.8243  0.0550
 2676SOL    HW110702   6.329   1.341   6.251  0.9496  0.9386 -1.0767
 2676SOL    HW210703   6.279   1.224   6.170 -0.2570 -0.1346  1.1368
 2676SOL     MW10704   6.263   1.297   6.214  0.4544  0.7107  0.0483
 2677SOL     OW10705   7.427   0.370   1.021 -0.9631  0.3536  0.2699
 2677SOL    HW110706   7.426   0.377   1.117 -1.7323  1.4284  0.2054
 2677SOL    HW210707   7.512   0.407   0.996 -1.4442  1.6745  0.4705
 2677SOL     MW10708   7.438   0.376   1.031 -1.1313  0.6760  0.2882
 2678SOL     OW10709   4.786   8.857   0.275  0.7954  0.0345  0.1251
 2678SOL    HW110710   4.815   8.836   0.364 -0.9409  0.0876  0.7448
 2678SOL    HW210711   4.731   8.935   0.285 -2.1925 -1.8185 -0.4086
 2678SOL     MW10712   4.782   8.865   0.288  0.1596 -0.2077  0.1367
 2679SOL     OW10713   5.731   8.571   2.795  0.3695  0.6554  0.1959
 2679SOL    HW110714   5.819   8.573   2.833  0.3981  0.4730  0.1392
 2679SOL    HW210715   5.685   8.644   2.837  0.3002  0.2580  0.8185
 2679SOL     MW10716   5.736   8.581   2.806  0.3640  0.5773  0.2721
 2680SOL     OW10717   4.410   8.642   0.413  0.0163  0.1642  0.3361
 2680SOL    HW110718   4.453   8.578   0.470  1.2297  0.9269  0.3013
 2680SOL    HW210719   4.475   8.664   0.347 -0.6153  0.9364 -0.0515
 2680SOL     MW10720   4.424   8.637   0.412  0.0946  0.3708  0.2792
 2681SOL     OW10721   6.820   8.250   9.943  0.5397  0.6406 -0.1207
 2681SOL    HW110722   6.780   8.337   9.940  0.4622  0.5967 -0.4029
 2681SOL    HW210723   6.790   8.212  10.026  0.1841  0.6972 -0.2244
 2681SOL     MW10724   6.810   8.256   9.954  0.4814  0.6423 -0.1727
 2682SOL     OW10725   5.630   9.697   7.690  0.8062  0.1925 -0.0025
 2682SOL    HW110726   5.599   9.686   7.601  1.5615 -1.5098 -0.0847
 2682SOL    HW210727   5.718   9.735   7.680  1.4495 -1.2692 -0.0640
 2682SOL     MW10728   5.638   9.701   7.677  0.9944 -0.2333 -0.0219
 2683SOL     OW10729   7.322   8.671   0.378  0.5910 -0.0014 -0.1149
 2683SOL    HW110730   7.232   8.647   0.398  0.6359  0.1449  0.2777
 2683SOL    HW210731   7.368   8.666   0.462  1.0765 -0.6205 -0.4147
 2683SOL     MW10732   7.316   8.667   0.392  0.6624 -0.0650 -0.1024
 2684SOL     OW10733   5.313   9.692   1.325 -0.7292 -0.2903 -0.4049
 2684SOL    HW110734   5.246   9.659   1.384 -0.4468  2.1705  1.4669
 2684SOL    HW210735   5.395   9.653   1.356 -0.9454 -1.4434 -1.2110
 2684SOL     MW10736   5.315   9.683   1.337 -0.7203 -0.1143 -0.2615
 2685SOL     OW10737   6.757   8.533   9.959  0.4379 -0.2941 -0.2351
 2685SOL    HW110738   6.834   8.582   9.930  1.0258 -1.3186 -0.4710
 2685SOL    HW210739   6.768   8.522  10.053 -0.4994  1.3616  0.1092
 2685SOL     MW10740   6.769   8.538   9.968  0.3909 -0.2091 -0.2205
 2686SOL     OW10741   3.984   0.324   0.405  0.4914 -0.3225  0.1344
 2686SOL    HW110742   4.055   0.265   0.430 -0.6051 -1.6315  0.2263
 2686SOL    HW210743   3.945   0.353   0.487  0.3302 -0.3332  0.0635
 2686SOL     MW10744   3.988   0.320   0.419  0.3222 -0.5001  0.1372
 2687SOL     OW10745   5.472   9.317   1.062 -0.1022 -0.1743 -0.1293
 2687SOL    HW110746   5.562   9.318   1.095 -0.1723 -0.0396  0.0531
 2687SOL    HW210747   5.482   9.297   0.969  0.2698  1.9493 -0.5931
 2687SOL     MW10748   5.486   9.314   1.054 -0.0616  0.1296 -0.1671
 2688SOL     OW10749   6.392   8.463   6.914 -0.5979 -0.2735 -0.1277
 2688SOL    HW110750   6.444   8.392   6.951  0.0650  0.0129 -0.4917
 2688SOL    HW210751   6.370   8.518   6.989 -0.3801 -0.4044  0.0343
 2688SOL     MW10752   6.396   8.461   6.929 -0.4794 -0.2526 -0.1549
 2689SOL     OW10753   4.466   9.741   2.913 -0.0601  0.0598 -0.2005
 2689SOL    HW110754   4.517   9.694   2.979 -2.7274 -1.9522  0.6097
 2689SOL    HW210755   4.515   9.729   2.831  1.7072 -0.0756  0.8268
 2689SOL     MW10756   4.479   9.733   2.911 -0.1812 -0.2292  0.0468
 2690SOL     OW10757   5.195   9.910   0.071  0.0133  0.5612 -0.7761
 2690SOL    HW110758   5.143   9.976   0.025 -0.8180 -0.5322 -1.4667
 2690SOL    HW210759   5.231   9.956   0.147 -2.1471  1.3197 -0.1375
 2690SOL     MW10760   5.193   9.925   0.075 -0.3893  0.5161 -0.7831
 2691SOL     OW10761   5.004   0.903   8.185 -0.7965  0.0959  0.8882
 2691SOL    HW110762   5.047   0.987   8.169 -0.1597 -0.6161 -1.7585
 2691SOL    HW210763   5.050   0.866   8.260  0.7456  0.9883  0.4386
 2691SOL     MW10764   5.016   0.909   8.193 -0.5032  0.1202  0.4715
 2692SOL     OW10765   5.707   1.046   9.425  0.3967  0.4305 -0.1378
 2692SOL    HW110766   5.641   1.075   9.362  0.1026  0.4043  0.1571
 2692SOL    HW210767   5.775   1.113   9.421  1.6903 -0.8864 -2.4511
 2692SOL     MW10768   5.707   1.059   9.416  0.5312  0.2498 -0.4095
 2693SOL     OW10769   6.564  10.030   2.335 -0.4542  0.2543 -0.5649
 2693SOL    HW110770   6.653  10.066   2.333 -0.7757  1.0705 -0.2402
 2693SOL    HW210771   6.518  10.076   2.265 -0.9200  0.6298 -0.0203
 2693SOL     MW10772   6.570  10.041   2.325 -0.5601  0.4147 -0.4479
 2694SOL     OW10773   4.109   0.501   2.432 -0.1744  0.9749  1.0346
 2694SOL    HW110774   4.122   0.594   2.416  1.5685  0.2511 -2.9493
 2694SOL    HW210775   4.193   0.461   2.411 -1.7648 -1.7599 -0.8047
 2694SOL     MW10776   4.122   0.508   2.427 -0.1539  0.5094  0.2510
 2695SOL     OW10777   6.955   8.315   1.063 -0.1816  0.5050 -0.3138
 2695SOL    HW110778   6.904   8.350   0.991  0.6818 -0.1758 -1.2879
 2695SOL    HW210779   6.908   8.236   1.090  0.0331  0.1994 -0.8221
 2695SOL     MW10780   6.942   8.309   1.057 -0.0365  0.3723 -0.5133
 2696SOL     OW10781   7.028   1.297   2.061  0.2949 -0.5574  0.1814
 2696SOL    HW110782   6.953   1.245   2.033  0.8126 -1.0618 -0.3058
 2696SOL    HW210783   7.007   1.386   2.033 -0.5531 -0.5142  0.9230
 2696SOL     MW10784   7.015   1.302   2.053  0.2505 -0.6194  0.2157
 2697SOL     OW10785   5.978   9.236   4.278 -0.5050 -0.5137 -0.1026
 2697SOL    HW110786   5.917   9.217   4.207 -0.5746 -1.7910  0.2671
 2697SOL    HW210787   6.006   9.327   4.263 -0.0461 -0.9396 -2.1044
 2697SOL     MW10788   5.974   9.246   4.266 -0.4526 -0.7429 -0.3223
 2698SOL     OW10789   5.728   8.289   2.466  0.4519  0.2407 -0.0606
 2698SOL    HW110790   5.769   8.289   2.379 -0.0213  0.1384 -0.2827
 2698SOL    HW210791   5.637   8.313   2.451  0.4826  0.7241  0.4688
 2698SOL     MW10792   5.722   8.292   2.452  0.3923  0.2920 -0.0193
 2699SOL     OW10793   4.266   0.605   6.157  0.1252 -0.5278  0.4679
 2699SOL    HW110794   4.260   0.627   6.065 -0.8034  0.5098  0.7568
 2699SOL    HW210795   4.176   0.589   6.185  0.2255  0.4872  1.4753
 2699SOL     MW10796   4.253   0.606   6.149  0.0137 -0.2516  0.6424
 2700SOL     OW10797   4.509   9.270   3.927  0.2785  0.3033  0.0275
 2700SOL    HW110798   4.478   9.305   4.010  0.8797  1.7321 -0.3144
 2700SOL    HW210799   4.445   9.203   3.903  0.0659 -0.0989  1.5970
 2700SOL     MW10800   4.496   9.266   3.935  0.3308  0.4415  0.1927
 2701SOL     OW10801   7.778  10.097   4.981 -0.6437  0.2875  0.4719
 2701SOL    HW110802   7.784  10.003   4.995  0.4286  0.2205 -0.3601
 2701SOL    HW210803   7.834  10.114   4.905 -1.8190  1.4188 -0.1873
 2701SOL     MW10804   7.786  10.087   4.972 -0.6576  0.4307  0.2712
 2702SOL     OW10805   4.060   9.115   6.217 -0.1772 -0.1763 -0.0808
 2702SOL    HW110806   4.072   9.157   6.302  0.6878 -1.0242  0.2275
 2702SOL    HW210807   4.085   9.024   6.231 -1.4284 -0.6732 -0.8908
 2702SOL     MW10808   4.065   9.109   6.230 -0.2292 -0.3573 -0.1483
 2703SOL     OW10809   6.383   9.756   2.484  0.5396  0.7666 -0.4520
 2703SOL    HW110810   6.426   9.758   2.570 -2.6955  0.6645  1.3213
 2703SOL    HW210811   6.338   9.840   2.478  0.0227  0.4248 -1.6728
 2703SOL     MW10812   6.383   9.768   2.495  0.0347  0.7069 -0.3777
 2704SOL     OW10813   4.728   1.573   7.584 -0.4380 -0.1830 -0.9955
 2704SOL    HW110814   4.753   1.554   7.493 -2.7413 -1.4326 -1.4427
 2704SOL    HW210815   4.663   1.506   7.606 -0.6756  0.6955  1.2535
 2704SOL     MW10816   4.723   1.562   7.574 -0.7800 -0.2330 -0.7530
 2705SOL     OW10817   4.137   9.345   8.849  0.1235  0.0586 -0.1804
 2705SOL    HW110818   4.196   9.381   8.915  0.3656 -1.0319  0.2058
 2705SOL    HW210819   4.127   9.253   8.872 -2.1179  0.2963  0.0527
 2705SOL     MW10820   4.144   9.338   8.861 -0.1456 -0.0562 -0.0970
 2706SOL     OW10821   4.853   9.821   7.347 -0.2813  0.2814 -0.5393
 2706SOL    HW110822   4.909   9.756   7.389  0.8802  1.2394 -0.5241
 2706SOL    HW210823   4.841   9.889   7.413  0.5627  1.2251 -1.3163
 2706SOL     MW10824   4.859   9.822   7.361 -0.0114  0.5373 -0.6418
 2707SOL     OW10825   4.339   0.220   3.480 -0.2941 -0.1334  0.4326
 2707SOL    HW110826   4.297   0.133   3.481 -0.0494 -0.2726 -0.2779
 2707SOL    HW210827   4.363   0.232   3.388  4.4095 -1.5753  1.2241
 2707SOL     MW10828   4.336   0.210   3.467  0.3719 -0.3462  0.4435
 2708SOL     OW10829   6.212   9.665   3.854  0.2580  0.1128 -0.3625
 2708SOL    HW110830   6.256   9.730   3.799 -0.3161  1.3940  0.6451
 2708SOL    HW210831   6.119   9.675   3.832 -0.0226  0.8976  1.0488
 2708SOL     MW10832   6.206   9.675   3.843  0.1430  0.3908 -0.0369
 2709SOL     OW10833   7.735   9.761   2.493 -0.2331  0.0804  0.0661
 2709SOL    HW110834   7.722   9.834   2.432 -1.6098 -1.4773 -1.6163
 2709SOL    HW210835   7.734   9.683   2.438  0.8910 -1.2752  1.8453
 2709SOL     MW10836   7.733   9.760   2.477 -0.2671 -0.3117  0.0791
 2710SOL     OW10837   6.750   0.046   0.575 -0.2551 -0.1196 -0.2617
 2710SOL    HW110838   6.741   0.001   0.659 -0.5400 -0.3467 -0.4078
 2710SOL    HW210839   6.665   0.087   0.561 -0.0405  0.3481 -0.1975
 2710SOL     MW10840   6.737   0.045   0.585 -0.2646 -0.0872 -0.2727
 2711SOL     OW10841   6.754   8.296   0.262  0.2020 -0.6796 -0.0601
 2711SOL    HW110842   6.788   8.218   0.307  0.4974 -1.2639 -1.2470
 2711SOL    HW210843   6.710   8.346   0.330  1.5302 -1.0120  1.0956
 2711SOL     MW10844   6.753   8.292   0.277  0.4205 -0.8030 -0.0643
 2712SOL     OW10845   5.684   1.400   8.966  0.6360 -0.1423  0.1986
 2712SOL    HW110846   5.677   1.419   9.060  2.0832  0.4414  0.2207
 2712SOL    HW210847   5.606   1.441   8.928 -1.4846 -2.7385  1.3986
 2712SOL     MW10848   5.672   1.408   8.974  0.5454 -0.4132  0.3631
 2713SOL     OW10849   7.634   1.141   4.385 -0.4970 -0.0232 -0.0379
 2713SOL    HW110850   7.625   1.132   4.291 -0.3051 -0.5193 -0.0079
 2713SOL    HW210851   7.550   1.180   4.413 -0.5487  0.1348 -0.4083
 2713SOL     MW10852   7.621   1.145   4.376 -0.4782 -0.0687 -0.0837
 2714SOL     OW10853   5.532   0.541   7.127 -0.0724 -0.1212  0.1317
 2714SOL    HW110854   5.583   0.538   7.045  1.5047  0.6472  1.0374
 2714SOL    HW210855   5.587   0.496   7.191 -1.1765 -0.4853  0.8335
 2714SOL     MW10856   5.547   0.534   7.124 -0.0087 -0.0668  0.3480
 2715SOL     OW10857   6.377   9.241   4.698 -0.3844 -0.0694  0.0522
 2715SOL    HW110858   6.445   9.306   4.713  0.4565 -0.9198  0.0377
 2715SOL    HW210859   6.378   9.226   4.603  0.8731 -1.5762  0.2562
 2715SOL     MW10860   6.386   9.248   4.687 -0.1020 -0.3867  0.0777
 2716SOL     OW10861   7.575   9.313   0.068  0.0916 -0.0302 -0.0549
 2716SOL    HW110862   7.657   9.329   0.023 -0.4023 -0.0090 -0.9636
 2716SOL    HW210863   7.523   9.261   0.006 -1.1394  1.2005 -0.0968
 2716SOL     MW10864   7.579   9.308   0.054 -0.1406  0.1383 -0.1829
 2717SOL     OW10865   4.514   9.423   5.027 -0.1937 -0.1240 -0.0912
 2717SOL    HW110866   4.489   9.491   4.964 -3.1078 -2.5121 -1.8035
 2717SOL    HW210867   4.598   9.390   4.994 -0.6479  0.0910 -1.5299
 2717SOL     MW10868   4.522   9.428   5.014 -0.6470 -0.4164 -0.5153
 2718SOL     OW10869   4.895   7.997   8.739  0.3443 -0.3400  0.3749
 2718SOL    HW110870   4.948   7.924   8.772  0.8437  0.7215  2.0282
 2718SOL    HW210871   4.835   8.017   8.811  2.1835  2.7523  1.1924
 2718SOL     MW10872   4.894   7.990   8.753  0.6591  0.2190  0.7074
 2719SOL     OW10873   7.043   8.500   7.311  0.5357 -0.5750 -0.4640
 2719SOL    HW110874   7.091   8.439   7.255 -1.4927 -4.0748  1.2823
 2719SOL    HW210875   6.960   8.515   7.266  0.5045 -0.1015 -0.2625
 2719SOL     MW10876   7.038   8.494   7.297  0.2585 -0.9823 -0.2019
 2720SOL     OW10877   8.017   9.025   0.820 -0.1917 -0.2799 -0.1328
 2720SOL    HW110878   7.955   8.958   0.791 -0.9721 -0.0902  1.0240
 2720SOL    HW210879   8.046   8.995   0.907  1.0727 -0.1791 -0.5025
 2720SOL     MW10880   8.013   9.012   0.828 -0.1266 -0.2408 -0.0269
 2721SOL     OW10881   6.310   8.400   3.301  0.3737  0.8652 -0.0578
 2721SOL    HW110882   6.393   8.405   3.254  1.0411  0.6709  1.0710
 2721SOL    HW210883   6.295   8.489   3.333  2.0604  0.2561  2.8559
 2721SOL     MW10884   6.319   8.413   3.299  0.6905  0.7571  0.4863
 2722SOL     OW10885   5.625   1.540   6.105  0.2962  0.1844  0.1446
 2722SOL    HW110886   5.558   1.582   6.159 -3.1442 -1.7832 -2.1962
 2722SOL    HW210887   5.682   1.612   6.078 -1.4172  2.1852  1.5260
 2722SOL     MW10888   5.623   1.556   6.108 -0.3974  0.1889  0.0154
 2723SOL     OW10889   7.423   9.106   5.600  0.4127 -0.2185  0.1162
 2723SOL    HW110890   7.351   9.136   5.544  1.1409  0.7358 -0.3422
 2723SOL    HW210891   7.381   9.052   5.667 -0.6903  0.1007 -0.3011
 2723SOL     MW10892   7.408   9.103   5.602  0.3623 -0.0471 -0.0017
 2724SOL     OW10893   5.647   9.208   9.971  0.4796 -0.2894  0.2247
 2724SOL    HW110894   5.634   9.281  10.032  1.4573  0.6477 -0.6233
 2724SOL    HW210895   5.563   9.163   9.969 -0.3103  1.1143  0.4140
 2724SOL     MW10896   5.634   9.212   9.979  0.5049  0.0256  0.1360
 2725SOL     OW10897   5.874   8.544   5.894  0.2958  0.0222 -0.6592
 2725SOL    HW110898   5.821   8.466   5.878 -0.9354  0.7066 -0.1408
 2725SOL    HW210899   5.856   8.566   5.986  0.6784  0.8671 -0.7776
 2725SOL     MW10900   5.864   8.537   5.904  0.1816  0.2280 -0.6054
 2726SOL     OW10901   4.613   9.794   5.453 -0.3036  0.3735 -0.2143
 2726SOL    HW110902   4.707   9.807   5.442 -0.5093  1.9896 -0.3666
 2726SOL    HW210903   4.605   9.716   5.507  1.0856 -0.3931 -1.0682
 2726SOL     MW10904   4.624   9.785   5.459 -0.1443  0.4879 -0.3497
 2727SOL     OW10905   3.988   0.567   6.190 -0.6579 -0.4348 -0.2730
 2727SOL    HW110906   3.930   0.577   6.114  0.9756 -1.0382 -1.6703
 2727SOL    HW210907   3.932   0.532   6.259 -2.3546  0.8340 -0.9527
 2727SOL     MW10908   3.973   0.563   6.189 -0.6664 -0.3453 -0.5526
 2728SOL     OW10909   7.156   8.673   0.920  0.0913  0.1597 -0.3555
 2728SOL    HW110910   7.235   8.670   0.866  0.0846  1.2652 -0.4558
 2728SOL    HW210911   7.130   8.765   0.918  0.1890  0.2718  1.6783
 2728SOL     MW10912   7.163   8.685   0.912  0.1035  0.3236 -0.0953
 2729SOL     OW10913   5.001   0.138   8.274  0.1729  0.0640 -0.0756
 2729SOL    HW110914   4.934   0.206   8.272  0.3131  0.2363  0.7399
 2729SOL    HW210915   5.023   0.123   8.182 -1.2079 -0.2302 -0.3721
 2729SOL     MW10916   4.995   0.145   8.261  0.0059  0.0476 -0.0058
 2730SOL     OW10917   6.667   7.994   9.579 -0.0201  0.0901 -0.0982
 2730SOL    HW110918   6.605   8.040   9.522 -0.8173 -2.5641 -1.5458
 2730SOL    HW210919   6.746   7.985   9.527 -1.0554 -3.1680 -1.3593
 2730SOL     MW10920   6.669   7.999   9.565 -0.2667 -0.7056 -0.4627
 2731SOL     OW10921   4.587   0.951   4.183  0.0168 -0.6761  0.2584
 2731SOL    HW110922   4.575   1.045   4.197  0.1287 -0.3230 -1.7644
 2731SOL    HW210923   4.545   0.910   4.259  0.2125  0.9976  1.3181
 2731SOL     MW10924   4.580   0.958   4.195  0.0582 -0.4033  0.1288
 2732SOL     OW10925   6.096   8.666   9.926 -0.4481  0.1747  0.3108
 2732SOL    HW110926   6.053   8.602   9.870 -1.6041 -0.1325  1.5065
 2732SOL    HW210927   6.113   8.741   9.868 -3.4517  0.6874 -0.0589
 2732SOL     MW10928   6.093   8.668   9.910 -1.0079  0.2024  0.4220
 2733SOL     OW10929   5.327   8.171   7.633  0.0566 -0.1849  0.0107
 2733SOL    HW110930   5.306   8.135   7.547 -0.1321 -2.4166  0.9189
 2733SOL    HW210931   5.310   8.099   7.694 -0.4715  1.5284  2.0104
 2733SOL     MW10932   5.322   8.156   7.629 -0.0399 -0.2547  0.4020
 2734SOL     OW10933   7.208   9.270   5.237 -0.3505 -0.0037  0.2248
 2734SOL    HW110934   7.147   9.244   5.168 -0.3932  1.6146 -0.3720
 2734SOL    HW210935   7.194   9.364   5.248  0.7025  0.0428  1.4193
 2734SOL     MW10936   7.198   9.279   5.229 -0.2145  0.2204  0.3052
 2735SOL     OW10937   4.843   8.147   9.102 -0.0758  0.5064 -0.3101
 2735SOL    HW110938   4.908   8.086   9.136 -0.6057  0.3428  0.4597
 2735SOL    HW210939   4.888   8.232   9.101  0.7214  0.0925 -1.5636
 2735SOL     MW10940   4.858   8.151   9.107 -0.0398  0.4287 -0.3752
 2736SOL     OW10941   6.629   7.913   7.086  0.2872 -0.6108 -0.5440
 2736SOL    HW110942   6.707   7.937   7.136  0.0545  0.9372 -0.8968
 2736SOL    HW210943   6.633   7.967   7.008  0.6716 -3.0220 -2.2993
 2736SOL     MW10944   6.640   7.923   7.083  0.3076 -0.7270 -0.8277
 2737SOL     OW10945   3.628  10.091   5.255  0.3116  0.2977 -0.0721
 2737SOL    HW110946   3.595  10.155   5.192  0.8675 -0.2942 -0.9822
 2737SOL    HW210947   3.581  10.111   5.336 -0.6507  0.8654 -0.7508
 2737SOL     MW10948   3.618  10.102   5.258  0.2569  0.2945 -0.2860
 2738SOL     OW10949   4.506   9.064   7.778  0.2705  0.1926  0.2198
 2738SOL    HW110950   4.472   8.982   7.741 -0.2090 -0.2193  1.5114
 2738SOL    HW210951   4.489   9.056   7.872  3.2956  0.2876  0.8678
 2738SOL     MW10952   4.499   9.052   7.785  0.6131  0.1500  0.4808
 2739SOL     OW10953   3.728   9.811   9.646  0.0120  0.0827  0.5067
 2739SOL    HW110954   3.794   9.822   9.577 -0.0043 -1.4720  0.1984
 2739SOL    HW210955   3.715   9.899   9.682  0.2643  0.8737 -1.2477
 2739SOL     MW10956   3.735   9.824   9.642  0.0437 -0.0201  0.2291
 2740SOL     OW10957   3.820   8.811   6.035 -0.3639 -0.1114  0.3253
 2740SOL    HW110958   3.892   8.850   5.986 -0.5270 -0.3654 -0.1278
 2740SOL    HW210959   3.857   8.734   6.076 -0.3915 -0.2839  0.0307
 2740SOL     MW10960   3.834   8.806   6.034 -0.3896 -0.1688  0.2247
 2741SOL     OW10961   6.473   1.716   3.796  0.0688 -0.2894  0.0013
 2741SOL    HW110962   6.417   1.723   3.719 -1.3469  0.5334  1.0483
 2741SOL    HW210963   6.488   1.806   3.824 -0.9319 -0.5942  1.6802
 2741SOL     MW10964   6.467   1.729   3.789 -0.2564 -0.2197  0.3681
 2742SOL     OW10965   7.431   8.631   5.772 -0.1774 -0.1925  0.1475
 2742SOL    HW110966   7.449   8.597   5.860  0.6447 -1.6219 -0.5287
 2742SOL    HW210967   7.416   8.725   5.785  0.9874 -0.1758  1.6720
 2742SOL     MW10968   7.431   8.639   5.786  0.0900 -0.3826  0.2616
 2743SOL     OW10969   4.003  10.110   1.375 -0.5199  0.1144 -0.1827
 2743SOL    HW110970   3.986  10.144   1.463 -0.1753 -0.7975  0.2519
 2743SOL    HW210971   4.091  10.073   1.380 -0.7362 -0.4909 -0.7404
 2743SOL     MW10972   4.013  10.110   1.388 -0.5026 -0.0898 -0.1993
 2744SOL     OW10973   6.340   9.718   5.979 -0.1145 -0.3396 -0.2973
 2744SOL    HW110974   6.350   9.644   5.919 -2.3513 -2.3605  1.5601
 2744SOL    HW210975   6.408   9.705   6.045  1.3751  1.0246 -1.4902
 2744SOL     MW10976   6.350   9.706   5.980 -0.2151 -0.4280 -0.2079
 2745SOL     OW10977   3.605   9.686   2.933  0.0796 -0.6654 -0.6338
 2745SOL    HW110978   3.530   9.665   2.879 -0.9217  0.1862  0.3607
 2745SOL    HW210979   3.619   9.780   2.919  0.2577 -0.5891  0.0196
 2745SOL     MW10980   3.597   9.696   2.924 -0.0312 -0.5405 -0.4120
 2746SOL     OW10981   4.828   8.991   6.597  0.1126 -0.1795  0.5128
 2746SOL    HW110982   4.749   9.013   6.645 -0.6699 -0.2505 -0.6981
 2746SOL    HW210983   4.868   9.075   6.575  0.5066 -0.1500  1.3224
 2746SOL     MW10984   4.823   9.005   6.600  0.0603 -0.1851  0.4588
 2747SOL     OW10985   6.299   8.443   1.938  0.3695  0.3499  0.2646
 2747SOL    HW110986   6.284   8.356   1.901  0.4109  0.6172 -0.4104
 2747SOL    HW210987   6.395   8.452   1.938  0.3439  0.6639 -0.3284
 2747SOL     MW10988   6.310   8.433   1.933  0.3716  0.4281  0.0939
 2748SOL     OW10989   7.935   0.335   1.386  0.4679 -0.0592  0.3672
 2748SOL    HW110990   7.983   0.254   1.369  2.0398  0.7649  0.6717
 2748SOL    HW210991   7.857   0.307   1.434  0.3740 -1.5022 -0.5780
 2748SOL     MW10992   7.931   0.320   1.390  0.6668 -0.1425  0.2809
 2749SOL     OW10993   4.802   0.544   0.622  0.5229  0.0713 -0.1585
 2749SOL    HW110994   4.890   0.574   0.644  0.9551 -0.2118 -1.4340
 2749SOL    HW210995   4.814   0.456   0.586 -0.3675 -0.2759  0.3677
 2749SOL     MW10996   4.815   0.536   0.620  0.4612 -0.0136 -0.2593
 2750SOL     OW10997   4.915   8.266   0.815 -0.2383 -0.4096  0.1332
 2750SOL    HW110998   4.931   8.290   0.724 -2.2252 -2.1879 -0.7697
 2750SOL    HW210999   5.000   8.236   0.847 -0.0643 -2.7178 -2.1535
 2750SOL     MW11000   4.928   8.265   0.807 -0.4823 -0.9595 -0.2961
 2751SOL     OW11001   6.348   7.915   6.818  0.3616 -0.6712 -0.2863
 2751SOL    HW111002   6.272   7.960   6.780  0.9735 -0.4195 -1.2522
 2751SOL    HW211003   6.409   7.906   6.745  0.8092 -1.8811  0.2195
 2751SOL     MW11004   6.346   7.920   6.803  0.5042 -0.8001 -0.3482
 2752SOL     OW11005   7.054   0.420   9.460  0.3563  0.0238 -0.0589
 2752SOL    HW111006   6.990   0.371   9.409  1.4562 -0.0683 -1.3959
 2752SOL    HW211007   7.031   0.401   9.551 -0.7749 -0.9596 -0.5220
 2752SOL     MW11008   7.043   0.411   9.465  0.3521 -0.1209 -0.3012
 2753SOL     OW11009   6.081   9.862   3.242 -0.4119  0.2138 -0.4122
 2753SOL    HW111010   6.011   9.832   3.301  0.0053 -0.7778 -0.4078
 2753SOL    HW211011   6.052   9.834   3.155  0.1148 -0.4755 -0.3724
 2753SOL     MW11012   6.067   9.854   3.238 -0.2848 -0.0124 -0.4062
 2754SOL     OW11013   6.014   0.307   2.568 -0.3097 -0.0623  0.3845
 2754SOL    HW111014   5.977   0.357   2.642  0.1714  2.8430 -1.1813
 2754SOL    HW211015   5.943   0.249   2.541 -1.7386  1.3016  1.0326
 2754SOL     MW11016   5.999   0.306   2.574 -0.4373  0.5122  0.2610
 2755SOL     OW11017   7.443   9.883   6.303 -0.4057  0.2003  0.0244
 2755SOL    HW111018   7.531   9.845   6.306  0.1331  1.2967 -1.0643
 2755SOL    HW211019   7.385   9.808   6.302  0.5749 -0.5715 -0.6640
 2755SOL     MW11020   7.447   9.868   6.303 -0.2012  0.2440 -0.2148
 2756SOL     OW11021   4.390  10.059   1.578 -0.2065 -0.0090  0.2531
 2756SOL    HW111022   4.347  10.139   1.608  0.9388  0.3495  1.0024
 2756SOL    HW211023   4.417  10.015   1.658  0.9921 -0.1256 -0.1976
 2756SOL     MW11024   4.387  10.064   1.593  0.1089  0.0235  0.2933
 2757SOL     OW11025   3.740   9.360   2.777 -0.1303  0.2389  0.2684
 2757SOL    HW111026   3.780   9.446   2.765  0.3209 -0.0830 -0.6223
 2757SOL    HW211027   3.813   9.303   2.800 -0.2303 -0.1416 -0.3262
 2757SOL     MW11028   3.755   9.364   2.779 -0.0830  0.1444  0.0685
 2758SOL     OW11029   6.353   9.679   9.955  0.3716  0.4660 -0.1191
 2758SOL    HW111030   6.310   9.637   9.880 -0.4051 -1.0151  1.1180
 2758SOL    HW211031   6.414   9.613   9.988  1.0260  1.2650  0.3177
 2758SOL     MW11032   6.355   9.665   9.949  0.3551  0.3742  0.1062
 2759SOL     OW11033   4.996   7.645   8.638  0.3304  0.2506 -0.0249
 2759SOL    HW111034   4.920   7.700   8.618  0.0065 -0.4355 -0.7635
 2759SOL    HW211035   5.023   7.672   8.726  0.8743  2.3406 -0.7952
 2759SOL     MW11036   4.989   7.656   8.647  0.3600  0.4396 -0.2280
 2760SOL     OW11037   7.807   9.054   1.169 -0.0062  0.3237 -0.3311
 2760SOL    HW111038   7.804   9.098   1.254  0.8221 -1.2482  0.5566
 2760SOL    HW211039   7.900   9.046   1.149 -0.0399 -2.0973  0.1751
 2760SOL     MW11040   7.819   9.059   1.177  0.1008 -0.2136 -0.1435
 2761SOL     OW11041   6.950   8.294   2.675  0.4033 -0.5805 -0.5277
 2761SOL    HW111042   6.986   8.366   2.623 -1.0441  1.2989  0.9071
 2761SOL    HW211043   6.890   8.249   2.615  1.1759 -0.4936 -1.3881
 2761SOL     MW11044   6.946   8.298   2.660  0.3125 -0.3159 -0.4504
 2762SOL     OW11045   6.965   9.297   9.490 -0.6097 -0.5051 -0.3126
 2762SOL    HW111046   6.970   9.240   9.567 -1.5098  1.2949  1.1901
 2762SOL    HW211047   6.927   9.378   9.524  0.6496  1.0219 -2.3026
 2762SOL     MW11048   6.961   9.301   9.505 -0.5613 -0.0573 -0.3782
 2763SOL     OW11049   4.967   9.343   1.775  0.0293  0.2506  0.3017
 2763SOL    HW111050   4.913   9.350   1.696 -0.5885 -1.1989  0.5754
 2763SOL    HW211051   4.970   9.249   1.794  0.3586  0.5605  1.8904
 2763SOL     MW11052   4.960   9.331   1.767 -0.0095  0.0972  0.5523
 2764SOL     OW11053   6.288   0.860   6.251  0.2367 -0.0417  0.3282
 2764SOL    HW111054   6.218   0.795   6.250  0.0517  0.1580 -0.3318
 2764SOL    HW211055   6.365   0.813   6.219  0.0207  0.1391 -0.4919
 2764SOL     MW11056   6.289   0.845   6.246  0.1827  0.0095  0.1290
 2765SOL     OW11057   5.846   7.995   7.727 -0.3108  0.2101 -0.0144
 2765SOL    HW111058   5.912   8.008   7.659 -0.4805  1.9657  0.0972
 2765SOL    HW211059   5.896   7.999   7.809 -0.4618  0.9388  0.0481
 2765SOL     MW11060   5.862   7.998   7.729 -0.3539  0.5444  0.0090
 2766SOL     OW11061   6.022   0.554   1.985  0.6561 -0.4980  0.0473
 2766SOL    HW111062   5.984   0.484   1.932  1.9209 -0.4543 -0.9642
 2766SOL    HW211063   5.982   0.543   2.071 -0.1429 -1.6568 -0.4463
 2766SOL     MW11064   6.012   0.543   1.989  0.7188 -0.6481 -0.1553
 2767SOL     OW11065   5.433   1.622   2.233  0.0518 -0.5217  0.1147
 2767SOL    HW111066   5.506   1.623   2.171 -0.0206 -0.8090  0.0246
 2767SOL    HW211067   5.462   1.566   2.304 -0.4027 -1.3300 -0.3189
 2767SOL     MW11068   5.447   1.614   2.234 -0.0191 -0.6691  0.0442
 2768SOL     OW11069   7.355   8.181   4.926  0.4608  0.6664 -0.2180
 2768SOL    HW111070   7.290   8.247   4.949 -1.4774 -0.6898 -1.4589
 2768SOL    HW211071   7.319   8.099   4.959  0.8199 -0.3164 -2.0908
 2768SOL     MW11072   7.341   8.179   4.933  0.2483  0.3516 -0.6370
 2769SOL     OW11073   5.158   8.549   2.458 -0.6620  0.0521 -0.6516
 2769SOL    HW111074   5.070   8.552   2.495  0.2360  0.5116  1.6305
 2769SOL    HW211075   5.179   8.456   2.454 -1.2475 -0.0612 -1.2461
 2769SOL     MW11076   5.149   8.537   2.462 -0.6199  0.0987 -0.4245
 2770SOL     OW11077   5.722   7.974   5.820  0.0473 -0.2225  0.2728
 2770SOL    HW111078   5.690   7.887   5.796  0.2558  0.2608 -1.9258
 2770SOL    HW211079   5.654   8.034   5.788 -0.2199  0.4435  1.9954
 2770SOL     MW11080   5.709   7.971   5.812  0.0394 -0.0678  0.2087
 2771SOL     OW11081   4.448   0.089   5.405 -0.5317 -0.4552 -0.0644
 2771SOL    HW111082   4.483   0.168   5.364 -0.1263 -0.8427 -0.4818
 2771SOL    HW211083   4.494   0.017   5.361  0.0312 -0.8746  1.1700
 2771SOL     MW11084   4.459   0.090   5.394 -0.4014 -0.5638  0.0455
 2772SOL     OW11085   6.493   1.111   3.218 -0.6521 -0.2134  0.0542
 2772SOL    HW111086   6.567   1.171   3.233  1.9884 -2.8819 -1.2139
 2772SOL    HW211087   6.478   1.070   3.303 -1.1594  0.7801  0.4644
 2772SOL     MW11088   6.501   1.114   3.232 -0.3650 -0.4389 -0.0613
 2773SOL     OW11089   4.286   0.554   9.819 -0.3487 -0.4491 -0.4661
 2773SOL    HW111090   4.317   0.463   9.820  0.5100 -0.1654 -0.3179
 2773SOL    HW211091   4.352   0.601   9.768 -1.9709 -0.3049 -2.5664
 2773SOL     MW11092   4.299   0.548   9.812 -0.4514 -0.3915 -0.7288
 2774SOL     OW11093   7.810   0.206   8.038  0.3240  0.1430 -0.5829
 2774SOL    HW111094   7.804   0.227   8.131  0.7302  2.1809 -0.9648
 2774SOL    HW211095   7.869   0.130   8.035  0.3235  0.0584  0.8063
 2774SOL     MW11096   7.817   0.199   8.050  0.3786  0.4058 -0.4473
 2775SOL     OW11097   4.928   0.098   3.667  0.1401 -0.0680  0.3780
 2775SOL    HW111098   4.927   0.192   3.652 -1.6794  0.1996  1.7623
 2775SOL    HW211099   4.982   0.063   3.597 -1.3254  1.7369 -1.7967
 2775SOL     MW11100   4.936   0.106   3.656 -0.3020  0.2109  0.2716
 2776SOL     OW11101   6.264   9.534   0.272 -0.1849 -0.3751 -0.4404
 2776SOL    HW111102   6.233   9.473   0.206 -1.4403  1.1167 -1.2846
 2776SOL    HW211103   6.221   9.506   0.353  1.6188 -2.4146 -0.1033
 2776SOL     MW11104   6.254   9.522   0.274 -0.1111 -0.4488 -0.5087
 2777SOL     OW11105   4.664   9.520   1.785  0.1736  0.1495 -0.2131
 2777SOL    HW111106   4.731   9.584   1.808  1.5181 -1.2963  0.0517
 2777SOL    HW211107   4.678   9.448   1.846 -0.5654 -0.8809 -1.2166
 2777SOL     MW11108   4.675   9.519   1.796  0.2550 -0.1837 -0.3125
 2778SOL     OW11109   7.756   0.105   0.926  0.3386 -0.0679  0.2975
 2778SOL    HW111110   7.803   0.099   1.009  1.9001 -0.3918 -0.5732
 2778SOL    HW211111   7.664   0.093   0.950  0.6534  0.7682  2.0769
 2778SOL     MW11112   7.750   0.103   0.941  0.5911  0.0010  0.4198
 2779SOL     OW11113   5.154   1.618   0.429  0.2347  0.1671  0.2066
 2779SOL    HW111114   5.081   1.611   0.492  0.2835  0.0075  0.2461
 2779SOL    HW211115   5.225   1.568   0.470 -0.1602 -1.1060 -0.5880
 2779SOL     MW11116   5.153   1.610   0.443  0.1881 -0.0257  0.1050
 2780SOL     OW11117   6.566   9.312   3.383  0.0525 -0.0432  0.4731
 2780SOL    HW111118   6.543   9.373   3.453  0.9870  0.2434  0.5422
 2780SOL    HW211119   6.483   9.298   3.336 -0.0659  1.7932  0.0655
 2780SOL     MW11120   6.551   9.319   3.386  0.1623  0.2425  0.4276
 2781SOL     OW11121   4.646   8.404   6.719  0.5820  0.2894  0.0777
 2781SOL    HW111122   4.594   8.421   6.797  1.2477  1.1994  0.3397
 2781SOL    HW211123   4.685   8.318   6.734 -0.0963  0.0131  0.2881
 2781SOL     MW11124   4.645   8.395   6.731  0.5803  0.3747  0.1413
 2782SOL     OW11125   6.326   8.252   3.533 -0.1288  0.0155 -0.0110
 2782SOL    HW111126   6.342   8.314   3.461  0.9242 -0.4323 -0.1850
 2782SOL    HW211127   6.378   8.175   3.510 -2.3744 -1.4610 -0.4376
 2782SOL     MW11128   6.335   8.250   3.520 -0.2893 -0.2434 -0.0919
 2783SOL     OW11129   4.743   8.342   8.506  0.3027 -0.4835 -0.4144
 2783SOL    HW111130   4.727   8.269   8.445 -0.1741 -0.3410 -0.4628
 2783SOL    HW211131   4.674   8.405   8.486 -1.4241 -1.4796  1.9394
 2783SOL     MW11132   4.732   8.340   8.495  0.0061 -0.5984 -0.1042
 2784SOL     OW11133   3.810   8.988   2.697  0.1455  0.4203 -0.1071
 2784SOL    HW111134   3.749   9.044   2.649 -0.0498 -1.1167 -1.7250
 2784SOL    HW211135   3.783   8.899   2.677  0.8276 -0.2975  1.9261
 2784SOL     MW11136   3.798   8.984   2.688  0.2110  0.1168 -0.0512
 2785SOL     OW11137   7.399   9.939   5.396 -0.1860 -0.5484 -0.5567
 2785SOL    HW111138   7.419   9.926   5.489  3.1850 -0.9258 -1.2258
 2785SOL    HW211139   7.385   9.851   5.362 -2.6003 -0.3412 -0.2669
 2785SOL     MW11140   7.400   9.926   5.404 -0.0572 -0.5713 -0.6078
 2786SOL     OW11141   6.999   0.979   7.546 -0.1974 -0.4436  0.2246
 2786SOL    HW111142   6.946   1.001   7.469  0.7523  0.9152 -0.0909
 2786SOL    HW211143   7.088   1.001   7.520  0.1109  0.3135  1.7961
 2786SOL     MW11144   7.004   0.985   7.532 -0.0281 -0.1589  0.3936
 2787SOL     OW11145   7.917   9.346   3.685  0.3749  0.0869  0.5145
 2787SOL    HW111146   7.942   9.424   3.735 -1.9229  1.1616  0.1484
 2787SOL    HW211147   7.970   9.350   3.605  0.5907  1.0718  0.6948
 2787SOL     MW11148   7.927   9.357   3.681  0.0947  0.3641  0.4895
 2788SOL     OW11149   3.767  10.049   8.412 -0.2708 -0.5535 -0.2733
 2788SOL    HW111150   3.788  10.072   8.321  0.8013  0.2380  0.1550
 2788SOL    HW211151   3.719  10.125   8.445  2.0401  0.5384  0.7236
 2788SOL     MW11152   3.763  10.062   8.404  0.1845 -0.3000 -0.0815
 2789SOL     OW11153   5.299   1.514   7.563 -0.4053 -0.5838 -0.0686
 2789SOL    HW111154   5.315   1.420   7.555 -0.5716 -0.9832  3.0487
 2789SOL    HW211155   5.234   1.521   7.633  0.1708  1.8929  0.3105
 2789SOL     MW11156   5.292   1.502   7.571 -0.3502 -0.3042  0.4020
 2790SOL     OW11157   7.383   0.988   5.152  0.3465  0.3695  0.0667
 2790SOL    HW111158   7.456   0.939   5.114  0.8452  2.0920 -1.2770
 2790SOL    HW211159   7.405   1.080   5.138 -2.0590  0.9476 -0.3361
 2790SOL     MW11160   7.396   0.994   5.145  0.0899  0.6791 -0.1684
 2791SOL     OW11161   4.169   0.937   9.051 -0.3207 -0.2786  0.0573
 2791SOL    HW111162   4.218   1.002   9.102 -0.9603 -0.3397  0.7693
 2791SOL    HW211163   4.230   0.908   8.983  0.3227  0.2949  0.3838
 2791SOL     MW11164   4.184   0.942   9.049 -0.3202 -0.2096  0.1971
 2792SOL     OW11165   6.741   7.814   4.960  0.1999  0.2518 -0.0173
 2792SOL    HW111166   6.827   7.857   4.959  0.3748  0.0455  1.9490
 2792SOL    HW211167   6.716   7.815   5.052 -0.7556 -1.9814 -0.2045
 2792SOL     MW11168   6.750   7.820   4.972  0.0948 -0.0765  0.2221
 2793SOL     OW11169   5.958   9.724   5.016  0.0251  0.1686 -0.0856
 2793SOL    HW111170   6.038   9.772   5.036  1.2998 -2.4026  1.4704
 2793SOL    HW211171   5.906   9.728   5.096 -0.2570 -0.2753 -0.2375
 2793SOL     MW11172   5.962   9.731   5.030  0.1587 -0.2372  0.1033
 2794SOL     OW11173   7.250   0.502   4.584  0.2562  0.0052  0.1395
 2794SOL    HW111174   7.254   0.543   4.498  0.5374 -0.7946 -0.2419
 2794SOL    HW211175   7.303   0.423   4.575 -0.4688 -0.5660  0.7725
 2794SOL     MW11176   7.258   0.497   4.571  0.1965 -0.1793  0.1733
 2795SOL     OW11177   5.457   8.793   0.525  0.5585 -0.2175 -0.0539
 2795SOL    HW111178   5.455   8.720   0.463 -0.8929 -1.2054  1.0975
 2795SOL    HW211179   5.386   8.850   0.497  0.2182 -0.4149  0.4072
 2795SOL     MW11180   5.447   8.791   0.513  0.3174 -0.3770  0.1631
 2796SOL     OW11181   5.694   2.002   9.602 -0.4213  0.1639  0.0312
 2796SOL    HW111182   5.643   1.976   9.678 -0.2456  1.6163  0.6920
 2796SOL    HW211183   5.654   2.084   9.574  2.5995  2.4667  1.7761
 2796SOL     MW11184   5.682   2.010   9.609  0.0089  0.6693  0.3549
 2797SOL     OW11185   4.931  10.087   5.504 -0.1098 -0.0681 -0.2161
 2797SOL    HW111186   4.906  10.148   5.573  0.2012 -0.1279 -0.0507
 2797SOL    HW211187   4.900  10.129   5.423  0.8428  0.7171 -0.1914
 2797SOL     MW11188   4.923  10.101   5.502  0.0603  0.0295 -0.1906
 2798SOL     OW11189   7.352   0.901   8.768  0.0844  0.2618  0.2568
 2798SOL    HW111190   7.348   0.980   8.823 -1.1363  1.1218 -0.9944
 2798SOL    HW211191   7.376   0.831   8.828 -0.6524  1.2577  1.7774
 2798SOL     MW11192   7.355   0.903   8.783 -0.1790  0.5116  0.2930
 2799SOL     OW11193   5.634   0.743   3.144  0.0237  0.3359 -0.2622
 2799SOL    HW111194   5.599   0.732   3.232 -1.7061 -0.7687 -1.0490
 2799SOL    HW211195   5.633   0.838   3.130  0.3191  0.5283  0.8657
 2799SOL     MW11196   5.629   0.754   3.154 -0.1693  0.2131 -0.2163
 2800SOL     OW11197   6.721  10.150   7.096  0.5703 -0.0960  0.0459
 2800SOL    HW111198   6.700  10.085   7.030 -0.2389  0.9478 -0.7738
 2800SOL    HW211199   6.816  10.148   7.104  0.6347 -0.5611 -0.8208
 2800SOL     MW11200   6.731  10.141   7.088  0.4701 -0.0181 -0.1810
 2801SOL     OW11201   6.425   7.712   6.598 -0.1692 -0.1806 -0.0370
 2801SOL    HW111202   6.450   7.749   6.513 -0.5629 -1.4848 -0.7434
 2801SOL    HW211203   6.509   7.686   6.637 -0.1139 -1.6310 -1.0276
 2801SOL     MW11204   6.440   7.714   6.592 -0.2148 -0.5513 -0.2654
 2802SOL     OW11205   7.499   0.026   4.266 -0.9668  0.1593 -0.6173
 2802SOL    HW111206   7.537   0.042   4.352 -2.2602 -0.1923  0.0418
 2802SOL    HW211207   7.572  -0.002   4.212 -0.1603  0.2641  0.3994
 2802SOL     MW11208   7.514   0.025   4.270 -1.0323  0.1261 -0.3918
 2803SOL     OW11209   4.186   0.436   8.700 -0.1335 -0.1127  0.4938
 2803SOL    HW111210   4.218   0.503   8.640  0.4231 -0.8429 -0.0530
 2803SOL    HW211211   4.117   0.479   8.751  0.3055  0.8996  0.2494
 2803SOL     MW11212   4.181   0.451   8.699  0.0005 -0.0747  0.3873
 2804SOL     OW11213   4.072   0.827   3.159 -0.2151 -0.6024  0.0046
 2804SOL    HW111214   4.099   0.774   3.083  0.3807 -0.0496 -0.1791
 2804SOL    HW211215   4.152   0.871   3.187 -0.7667  0.5057 -0.0900
 2804SOL     MW11216   4.087   0.826   3.152 -0.2091 -0.3789 -0.0329
 2805SOL     OW11217   7.309   0.226   0.370 -0.3878  0.0689  0.4434
 2805SOL    HW111218   7.387   0.211   0.317 -1.2043  1.4811 -1.2539
 2805SOL    HW211219   7.340   0.278   0.444  0.6347 -1.2742  1.0060
 2805SOL     MW11220   7.323   0.231   0.373 -0.3601  0.0782  0.2907
 2806SOL     OW11221   4.295   9.669   7.326  0.0055 -0.0925  0.0583
 2806SOL    HW111222   4.248   9.657   7.409 -0.8059 -0.6726 -0.4664
 2806SOL    HW211223   4.367   9.728   7.347  0.5823 -1.2259  1.4737
 2806SOL     MW11224   4.298   9.675   7.340 -0.0261 -0.3231  0.1782
 2807SOL     OW11225   7.242   8.820   8.638  0.0691 -0.3683  0.2028
 2807SOL    HW111226   7.288   8.862   8.710 -0.1029  0.4571 -0.1610
 2807SOL    HW211227   7.276   8.863   8.559 -0.7994 -0.2515 -0.1148
 2807SOL     MW11228   7.253   8.831   8.637 -0.0710 -0.2415  0.1111
 2808SOL     OW11229   5.997   8.557   2.906 -0.0571  0.0616  0.8773
 2808SOL    HW111230   6.058   8.500   2.953 -1.0173 -0.9791  0.8945
 2808SOL    HW211231   5.970   8.622   2.971  0.6425  0.2431  1.0009
 2808SOL     MW11232   6.002   8.558   2.921 -0.0922 -0.0540  0.8962
 2809SOL     OW11233   3.825   9.178   7.923  0.1733 -0.0006 -0.1899
 2809SOL    HW111234   3.805   9.095   7.967  1.6107 -0.0025  0.5337
 2809SOL    HW211235   3.816   9.158   7.829 -1.3389 -0.4399  0.0249
 2809SOL     MW11236   3.821   9.164   7.916  0.1632 -0.0600 -0.0636
 2810SOL     OW11237   5.065   0.656   6.235 -0.2498  0.4717  0.0595
 2810SOL    HW111238   5.063   0.568   6.199 -0.0408 -0.1856  1.5516
 2810SOL    HW211239   5.017   0.709   6.172  0.7665 -0.4350 -1.5253
 2810SOL     MW11240   5.058   0.651   6.222 -0.0849  0.2612  0.0471
 2811SOL     OW11241   5.467   0.835   5.479 -0.2319  0.2719  0.1222
 2811SOL    HW111242   5.477   0.912   5.423 -0.8241 -0.7837 -1.4986
 2811SOL    HW211243   5.385   0.850   5.526 -0.1011  0.8270  0.1843
 2811SOL     MW11244   5.457   0.847   5.478 -0.2940  0.2046 -0.0876
 2812SOL     OW11245   5.258   0.994   1.418 -0.3391  0.7380 -0.7848
 2812SOL    HW111246   5.231   0.903   1.425  1.2501  0.2496 -0.7457
 2812SOL    HW211247   5.350   0.991   1.394  0.8046  2.2755  2.7777
 2812SOL     MW11248   5.267   0.982   1.415  0.0287  0.8792 -0.3001
 2813SOL     OW11249   4.491   9.452   9.693  0.0542  0.5704 -0.7164
 2813SOL    HW111250   4.436   9.448   9.771  0.8401  1.5266 -0.0932
 2813SOL    HW211251   4.499   9.360   9.664 -2.7368  0.4777 -1.4899
 2813SOL     MW11252   4.485   9.439   9.700 -0.2157  0.6866 -0.7366
 2814SOL     OW11253   6.402   1.527   2.188  0.0363 -0.2065 -0.5154
 2814SOL    HW111254   6.365   1.532   2.100  0.3278  2.6492 -0.5702
 2814SOL    HW211255   6.367   1.603   2.233 -1.0166 -2.1897  2.2927
 2814SOL     MW11256   6.393   1.538   2.182 -0.0662 -0.0891 -0.1449
 2815SOL     OW11257   6.225   1.565   9.190  0.5848  0.0386 -0.1862
 2815SOL    HW111258   6.259   1.630   9.252  0.1768  0.8347 -0.7759
 2815SOL    HW211259   6.195   1.617   9.115 -0.2364 -0.7833 -0.4512
 2815SOL     MW11260   6.225   1.581   9.188  0.4194  0.0351 -0.3012
 2816SOL     OW11261   4.650   8.027   6.142  0.0341 -0.4247  0.0664
 2816SOL    HW111262   4.726   7.976   6.169  0.9196  0.5833 -0.4557
 2816SOL    HW211263   4.626   8.078   6.220  0.3857 -0.1695  0.0119
 2816SOL     MW11264   4.657   8.027   6.156  0.2006 -0.2547 -0.0112
 2817SOL     OW11265   5.292   8.873   1.012  0.1721  0.2379  0.3308
 2817SOL    HW111266   5.306   8.911   0.925 -0.7849  0.3327  0.1992
 2817SOL    HW211267   5.233   8.799   0.996 -0.7287  0.7844  0.9860
 2817SOL     MW11268   5.286   8.869   0.998 -0.0779  0.3242  0.4012
 2818SOL     OW11269   6.476   8.473   8.126 -0.0798 -0.1730  0.1133
 2818SOL    HW111270   6.472   8.482   8.031  1.3532 -0.8337 -0.0344
 2818SOL    HW211271   6.418   8.542   8.159 -0.7064 -0.0211 -1.2255
 2818SOL     MW11272   6.467   8.483   8.117  0.0287 -0.2415 -0.0867
 2819SOL     OW11273   4.270   0.194   6.715 -0.3156  0.0543  0.4349
 2819SOL    HW111274   4.180   0.161   6.716 -0.0090 -0.8910 -0.8458
 2819SOL    HW211275   4.287   0.215   6.624  0.6042  0.7223  0.7472
 2819SOL     MW11276   4.260   0.192   6.703 -0.1505  0.0170  0.3046
 2820SOL     OW11277   6.466   8.254   0.919  0.5657  0.2859 -0.0237
 2820SOL    HW111278   6.408   8.329   0.904  1.1375  0.8993  0.7693
 2820SOL    HW211279   6.501   8.234   0.832  0.5786  1.0799 -0.2140
 2820SOL     MW11280   6.463   8.262   0.905  0.6444  0.4753  0.0574
 2821SOL     OW11281   5.599   0.394   0.223 -0.1711 -0.4251  0.5082
 2821SOL    HW111282   5.604   0.345   0.141 -1.2483  0.0544  0.1329
 2821SOL    HW211283   5.588   0.485   0.196 -0.3138 -0.2327  1.1857
 2821SOL     MW11284   5.598   0.400   0.209 -0.3353 -0.3347  0.5489
 2822SOL     OW11285   6.396   1.168   9.309 -0.1066 -0.1900 -0.1506
 2822SOL    HW111286   6.365   1.098   9.251 -0.8854  1.2807 -1.5908
 2822SOL    HW211287   6.330   1.172   9.379 -0.5728 -0.2929 -0.5737
 2822SOL     MW11288   6.383   1.159   9.310 -0.2741 -0.0059 -0.4014
 2823SOL     OW11289   6.366   1.443   0.959 -0.4106  0.5628 -0.5297
 2823SOL    HW111290   6.339   1.365   1.008 -0.2377  0.7458 -0.1404
 2823SOL    HW211291   6.317   1.515   0.998  0.1838  0.8067 -0.2109
 2823SOL     MW11292   6.356   1.442   0.971 -0.3074  0.6202 -0.4344
 2824SOL     OW11293   4.775   0.311   0.464 -0.3086  0.4632  0.1637
 2824SOL    HW111294   4.790   0.217   0.462  2.2660  0.7960 -0.1015
 2824SOL    HW211295   4.793   0.340   0.375  2.3565  1.5473  0.9549
 2824SOL     MW11296   4.779   0.302   0.452  0.3965  0.6539  0.2345
 2825SOL     OW11297   5.149   8.369   7.618 -0.4041  0.0416  0.1967
 2825SOL    HW111298   5.231   8.322   7.606 -0.8832 -0.6583 -0.4955
 2825SOL    HW211299   5.160   8.450   7.567  0.0578  0.2112  0.5650
 2825SOL     MW11300   5.161   8.373   7.609 -0.4064 -0.0298  0.1531
 2826SOL     OW11301   4.384   0.153   1.904 -0.2165 -0.2978 -0.2180
 2826SOL    HW111302   4.340   0.147   1.989 -1.9269 -1.1078 -1.1193
 2826SOL    HW211303   4.436   0.234   1.911 -3.4434  1.9536  0.2487
 2826SOL     MW11304   4.385   0.163   1.916 -0.8810 -0.1038 -0.2765
 2827SOL     OW11305   6.851   9.266   0.926 -0.8353 -0.1153 -0.0969
 2827SOL    HW111306   6.904   9.341   0.952  0.2578 -0.3706 -1.4825
 2827SOL    HW211307   6.908   9.214   0.869 -2.6080 -0.3059 -1.8170
 2827SOL     MW11308   6.865   9.269   0.922 -0.9267 -0.1753 -0.5149
 2828SOL     OW11309   4.261   0.178   1.233  0.0346  0.2574  0.5619
 2828SOL    HW111310   4.267   0.215   1.321  0.8142  0.6574  0.3478
 2828SOL    HW211311   4.271   0.253   1.175 -0.6143  0.0141  0.1211
 2828SOL     MW11312   4.263   0.193   1.237  0.0522  0.2785  0.4738
 2829SOL     OW11313   5.741   9.190   0.430  0.7246 -0.1150 -0.1269
 2829SOL    HW111314   5.692   9.270   0.454 -0.7610 -1.2769  0.9255
 2829SOL    HW211315   5.685   9.147   0.365  2.7205  0.8723 -2.7022
 2829SOL     MW11316   5.727   9.195   0.424  0.7933 -0.1385 -0.3318
 2830SOL     OW11317   5.959   9.251   5.582 -0.3209  0.4822  0.1964
 2830SOL    HW111318   5.946   9.341   5.549 -2.2927  0.4587  0.7550
 2830SOL    HW211319   5.971   9.199   5.503 -1.5936  0.9145 -0.3098
 2830SOL     MW11320   5.959   9.256   5.567 -0.7575  0.5372  0.2034
 2831SOL     OW11321   6.960   7.965   4.866 -0.2345  0.5893 -0.0225
 2831SOL    HW111322   7.041   7.963   4.918  0.5552  0.1461 -1.2314
 2831SOL    HW211323   6.987   7.936   4.779 -1.7411  0.2753 -0.4017
 2831SOL     MW11324   6.975   7.961   4.861 -0.3310  0.4874 -0.2362
 2832SOL     OW11325   6.795   8.748   1.419  0.4076 -0.3337 -0.1495
 2832SOL    HW111326   6.804   8.684   1.490 -0.2961 -0.0981  0.1614
 2832SOL    HW211327   6.880   8.746   1.374  0.8152 -0.5830  0.6105
 2832SOL     MW11328   6.808   8.739   1.422  0.3677 -0.3356 -0.0054
 2833SOL     OW11329   4.977   1.218   0.830  0.6075 -0.2562  0.2707
 2833SOL    HW111330   4.990   1.182   0.742 -0.6963  2.7709 -1.2998
 2833SOL    HW211331   4.895   1.267   0.823  0.9162  0.7606  2.9588
 2833SOL     MW11332   4.968   1.219   0.817  0.4736  0.2881  0.4211
 2834SOL     OW11333   7.167   0.589   6.488  0.5145 -0.1542  0.9944
 2834SOL    HW111334   7.242   0.534   6.510  1.1262  0.6802  1.0620
 2834SOL    HW211335   7.126   0.608   6.573  0.6833  0.0068  1.0425
 2834SOL     MW11336   7.171   0.584   6.503  0.6196 -0.0202  1.0099
 2835SOL     OW11337   7.786   0.496   2.458 -0.2943  0.2678 -0.0475
 2835SOL    HW111338   7.836   0.479   2.379 -1.3743  0.2388 -0.7451
 2835SOL    HW211339   7.852   0.509   2.526  0.6403 -0.5852 -0.7597
 2835SOL     MW11340   7.802   0.495   2.457 -0.3138  0.1491 -0.2372
 2836SOL     OW11341   6.932   1.567   6.252 -0.1180 -0.0424  0.4101
 2836SOL    HW111342   6.956   1.476   6.236 -1.3198 -0.4028  0.5674
 2836SOL    HW211343   6.962   1.585   6.341 -0.6435 -0.5508  0.6898
 2836SOL     MW11344   6.940   1.557   6.262 -0.3504 -0.1593  0.4689
 2837SOL     OW11345   5.523   8.864   4.383 -0.0101  0.2987 -0.3758
 2837SOL    HW111346   5.461   8.893   4.316  0.0711 -0.2217 -0.6905
 2837SOL    HW211347   5.601   8.840   4.333  1.1052  2.5732  0.1518
 2837SOL     MW11348   5.525   8.864   4.367  0.1509  0.5347 -0.3472
 2838SOL     OW11349   6.442   8.299   9.711  0.5480 -0.2889 -0.6091
 2838SOL    HW111350   6.393   8.353   9.773  1.3974  1.0131 -1.0188
 2838SOL    HW211351   6.466   8.221   9.760  1.2710  0.7415  0.7425
 2838SOL     MW11352   6.438   8.296   9.726  0.7596  0.0250 -0.4823
 2839SOL     OW11353   4.313   8.635   9.845  0.5374  0.5663  0.3808
 2839SOL    HW111354   4.338   8.700   9.910  1.9329  1.5991 -1.1086
 2839SOL    HW211355   4.219   8.648   9.833  0.2576  0.3504  2.1535
 2839SOL     MW11356   4.304   8.645   9.852  0.6875  0.6762  0.4189
 2840SOL     OW11357   5.427   9.236   0.758 -0.3818  0.2236  0.0494
 2840SOL    HW111358   5.420   9.142   0.739  0.6298 -0.1819  1.4688
 2840SOL    HW211359   5.343   9.272   0.730 -1.3310 -1.3489  0.7192
 2840SOL     MW11360   5.415   9.228   0.752 -0.3734 -0.0426  0.3305
 2841SOL     OW11361   6.511   8.832   0.033 -0.0786 -0.2872 -0.5233
 2841SOL    HW111362   6.484   8.914   0.075  1.8610 -0.1928  0.6407
 2841SOL    HW211363   6.462   8.764   0.080  2.7473 -0.2897  2.8071
 2841SOL     MW11364   6.501   8.834   0.045  0.5627 -0.2748  0.0816
 2842SOL     OW11365   6.993   9.502   2.865  0.0415 -0.1013  0.2752
 2842SOL    HW111366   7.051   9.570   2.900  1.8500 -1.6899  0.5163
 2842SOL    HW211367   7.051   9.443   2.817 -1.5182 -1.2949 -0.2294
 2842SOL     MW11368   7.009   9.503   2.863  0.0750 -0.4757  0.2397
 2843SOL     OW11369   4.187   8.760   0.535  0.0079 -0.1617  0.0912
 2843SOL    HW111370   4.125   8.815   0.488 -0.5334 -0.3230  0.6115
 2843SOL    HW211371   4.255   8.741   0.470  0.3300  1.3024 -0.0382
 2843SOL     MW11372   4.188   8.765   0.520 -0.0216  0.0136  0.1438
 2844SOL     OW11373   6.606   0.684   6.250 -0.1267 -0.0388 -0.0652
 2844SOL    HW111374   6.637   0.654   6.165  0.8779 -1.1650  0.6589
 2844SOL    HW211375   6.525   0.636   6.265 -0.3097  0.1688 -0.3872
 2844SOL     MW11376   6.599   0.674   6.241 -0.0162 -0.1624 -0.0111
 2845SOL     OW11377   7.228   8.437   8.955  0.2686  0.3590 -0.5956
 2845SOL    HW111378   7.202   8.362   9.009 -0.9060  1.3016  0.2143
 2845SOL    HW211379   7.185   8.423   8.871 -2.1710  1.3756  0.3932
 2845SOL     MW11380   7.218   8.425   8.951 -0.2178  0.6226 -0.3535
 2846SOL     OW11381   7.971   0.183   6.361  0.1365  0.0488  0.6519
 2846SOL    HW111382   7.891   0.231   6.380 -0.7064 -0.9710 -0.1633
 2846SOL    HW211383   7.989   0.133   6.441 -1.0391 -1.0334  0.2774
 2846SOL     MW11384   7.963   0.183   6.374 -0.1352 -0.2341  0.4918
 2847SOL     OW11385   6.023   7.862   5.088  0.2987  0.4022 -0.2519
 2847SOL    HW111386   6.056   7.894   5.004 -3.3375  2.1788 -1.1979
 2847SOL    HW211387   6.028   7.938   5.146  1.6654 -0.4916  0.8782
 2847SOL     MW11388   6.028   7.877   5.084 -0.0067  0.5210 -0.2271
 2848SOL     OW11389   6.584   7.959   3.744  0.3926  0.1336 -0.1841
 2848SOL    HW111390   6.585   7.944   3.650  1.2429 -0.9171 -0.0282
 2848SOL    HW211391   6.675   7.980   3.766  0.0963  0.9472  0.3279
 2848SOL     MW11392   6.597   7.960   3.734  0.4672  0.1017 -0.0942
 2849SOL     OW11393   5.514   9.339   7.050 -0.8473 -0.0997  0.1965
 2849SOL    HW111394   5.594   9.312   7.096 -1.3177  1.4378  2.0545
 2849SOL    HW211395   5.443   9.296   7.098 -1.3167  1.1495  0.6747
 2849SOL     MW11396   5.515   9.330   7.063 -0.9738  0.2753  0.5109
 2850SOL     OW11397   4.722   1.335  10.036 -0.5773 -0.0294 -0.1993
 2850SOL    HW111398   4.783   1.277   9.990 -1.9975 -2.0482  0.3322
 2850SOL    HW211399   4.664   1.368   9.968 -2.0066 -2.1657 -0.1236
 2850SOL     MW11400   4.722   1.331  10.021 -0.9608 -0.5886 -0.1176
 2851SOL     OW11401   4.340   0.132   7.787 -0.1989 -0.5601  0.0755
 2851SOL    HW111402   4.333   0.222   7.755  0.1432 -0.8791 -0.9402
 2851SOL    HW211403   4.346   0.141   7.882 -0.7239  0.4530  0.0352
 2851SOL     MW11404   4.340   0.145   7.795 -0.2235 -0.4667 -0.0666
 2852SOL     OW11405   4.490   9.442  -0.000 -0.0164 -0.0535  0.1824
 2852SOL    HW111406   4.533   9.408   0.078 -0.1788 -0.3967  0.1234
 2852SOL    HW211407   4.562   9.469  -0.057  0.0904  0.9616  0.7787
 2852SOL     MW11408   4.506   9.441   0.003 -0.0239  0.0369  0.2547
 2853SOL     OW11409   7.845   0.299   1.779  0.1639 -0.0196  0.5713
 2853SOL    HW111410   7.875   0.390   1.791  1.6130 -0.3136 -0.5415
 2853SOL    HW211411   7.752   0.308   1.758  0.1237  1.1503  1.1112
 2853SOL     MW11412   7.836   0.313   1.778  0.3535  0.0983  0.4942
 2854SOL     OW11413   4.889   9.926   9.576 -0.1418 -0.1638  0.0238
 2854SOL    HW111414   4.965   9.877   9.543 -0.1481  0.9341 -1.7088
 2854SOL    HW211415   4.815   9.870   9.556  0.0005 -0.2100 -0.3761
 2854SOL     MW11416   4.890   9.912   9.569 -0.1235 -0.0223 -0.2632
 2855SOL     OW11417   6.065   7.780   1.197 -0.7012  0.1816 -0.3457
 2855SOL    HW111418   6.002   7.763   1.268 -1.3001  1.4261 -0.5493
 2855SOL    HW211419   6.145   7.805   1.242 -0.4352 -1.0275 -0.0922
 2855SOL     MW11420   6.067   7.781   1.213 -0.7460  0.1863 -0.3390
 2856SOL     OW11421   5.025   0.037   1.889 -0.5489  0.6830 -0.2949
 2856SOL    HW111422   5.030   0.111   1.951 -1.2338  0.5704 -0.0995
 2856SOL    HW211423   5.005  -0.039   1.944  0.2222  0.3338 -0.4889
 2856SOL     MW11424   5.023   0.037   1.905 -0.5373  0.6209 -0.2947
 2857SOL     OW11425   5.398   7.765   2.217  0.0765 -0.0674  0.2709
 2857SOL    HW111426   5.484   7.757   2.177  0.1212 -1.4617  0.5868
 2857SOL    HW211427   5.414   7.809   2.301  0.3255  0.5959 -0.1199
 2857SOL     MW11428   5.412   7.770   2.223  0.1160 -0.1658  0.2608
 2858SOL     OW11429   3.819   9.259   5.876 -0.3640 -0.1814  0.1344
 2858SOL    HW111430   3.798   9.193   5.941 -1.0692  0.4293  0.5406
 2858SOL    HW211431   3.769   9.336   5.902  0.4527  0.5263 -0.3191
 2858SOL     MW11432   3.809   9.261   5.888 -0.3490 -0.0040  0.1280
 2859SOL     OW11433   5.850   9.538   3.910 -0.1462  0.3205  0.4304
 2859SOL    HW111434   5.882   9.527   3.999 -0.4352  1.2618  0.6629
 2859SOL    HW211435   5.873   9.628   3.887  0.1976 -0.0096 -0.5633
 2859SOL     MW11436   5.857   9.549   3.919 -0.1389  0.4028  0.3279
 2860SOL     OW11437   6.590   1.458  10.053  0.4415  0.2263 -0.2395
 2860SOL    HW111438   6.554   1.547  10.051 -1.2182 -0.3885  0.3867
 2860SOL    HW211439   6.682   1.469  10.074  0.1813  1.7755  0.1692
 2860SOL     MW11440   6.597   1.471  10.055  0.1832  0.3521 -0.1002
 2861SOL     OW11441   5.335   7.873   8.848 -0.0664 -0.0422  0.2417
 2861SOL    HW111442   5.356   7.927   8.772  1.5486 -2.8391 -1.4872
 2861SOL    HW211443   5.418   7.830   8.871 -0.7010  0.0249  3.0914
 2861SOL     MW11444   5.349   7.874   8.841  0.0656 -0.4096  0.3925
 2862SOL     OW11445   6.737   0.840   7.842  0.3500 -0.2216 -0.7116
 2862SOL    HW111446   6.743   0.806   7.931  1.2768 -1.6534 -1.2901
 2862SOL    HW211447   6.672   0.784   7.799  0.5588 -0.1099 -1.1805
 2862SOL     MW11448   6.729   0.828   7.848  0.5028 -0.3993 -0.8526
 2863SOL     OW11449   6.301   1.491   7.102 -0.0552 -0.2002  0.1831
 2863SOL    HW111450   6.268   1.558   7.163  0.1953  1.3727 -1.3253
 2863SOL    HW211451   6.232   1.424   7.101 -2.0648  1.7303 -0.8914
 2863SOL     MW11452   6.287   1.491   7.110 -0.2919  0.2713 -0.1645
 2864SOL     OW11453   3.921   0.386   9.757  0.1607 -0.0627 -0.3029
 2864SOL    HW111454   3.894   0.428   9.839  1.2502 -0.1124  0.1022
 2864SOL    HW211455   3.972   0.310   9.786 -0.9530 -1.1216 -1.0252
 2864SOL     MW11456   3.924   0.381   9.772  0.1574 -0.2119 -0.3456
 2865SOL     OW11457   8.022   9.421   5.431 -0.3823  0.8616 -0.4244
 2865SOL    HW111458   8.092   9.432   5.496 -0.1526  0.3669 -0.5751
 2865SOL    HW211459   8.043   9.484   5.362 -0.5311  1.2686 -0.0935
 2865SOL     MW11460   8.035   9.431   5.430 -0.3714  0.8498 -0.4002
 2866SOL     OW11461   7.736   9.967   2.815 -0.5923 -0.5445 -0.0566
 2866SOL    HW111462   7.652   9.991   2.854 -0.9559  0.7289 -1.5607
 2866SOL    HW211463   7.800  10.020   2.863 -0.8972  0.1257 -0.3808
 2866SOL     MW11464   7.733   9.977   2.827 -0.6822 -0.2829 -0.3026
 2867SOL     OW11465   7.748   9.350   3.099  0.2910 -0.1925 -0.1494
 2867SOL    HW111466   7.761   9.273   3.155 -0.6617 -1.0324 -1.0366
 2867SOL    HW211467   7.723   9.420   3.159  0.1229 -0.8499  0.5615
 2867SOL     MW11468   7.747   9.349   3.115  0.1402 -0.3940 -0.1731
 2868SOL     OW11469   7.319   8.532   8.279 -0.3202  0.1007  0.1629
 2868SOL    HW111470   7.333   8.515   8.372 -1.2132  1.8786  0.6733
 2868SOL    HW211471   7.223   8.539   8.270 -0.1854  1.2559 -0.6128
 2868SOL     MW11472   7.308   8.530   8.290 -0.4222  0.4955  0.1272
 2869SOL     OW11473   5.927   9.978   4.169 -0.1462 -0.1091 -0.0518
 2869SOL    HW111474   5.925  10.048   4.234 -2.1255 -0.2972  0.1402
 2869SOL    HW211475   5.844   9.932   4.180 -0.0085 -0.8931 -1.8958
 2869SOL     MW11476   5.916   9.981   4.179 -0.3941 -0.2399 -0.2741
 2870SOL     OW11477   6.230   1.219   1.065 -0.3814 -0.3769  0.1494
 2870SOL    HW111478   6.218   1.136   1.019  1.1894 -1.5822  1.7516
 2870SOL    HW211479   6.141   1.249   1.083 -1.0119 -0.8216 -1.9002
 2870SOL     MW11480   6.216   1.212   1.061 -0.2549 -0.5989  0.0892
 2871SOL     OW11481   5.351   8.391   0.055 -0.5819  0.5342  0.4653
 2871SOL    HW111482   5.307   8.347  -0.017  1.0561  0.3222 -0.4649
 2871SOL    HW211483   5.444   8.384   0.033 -0.0728  0.9012  2.3545
 2871SOL     MW11484   5.358   8.384   0.042 -0.2929  0.5551  0.5943
 2872SOL     OW11485   3.952   9.465   9.398  0.2909 -0.2664 -0.0513
 2872SOL    HW111486   3.922   9.510   9.477 -0.4065 -0.5373 -0.1608
 2872SOL    HW211487   4.003   9.391   9.430  0.3029 -0.1765  0.1408
 2872SOL     MW11488   3.955   9.461   9.413  0.1987 -0.2908 -0.0402
 2873SOL     OW11489   4.250   0.005   6.352  0.8705 -0.1916 -0.2829
 2873SOL    HW111490   4.178   0.068   6.360 -0.7400 -2.0441  0.9373
 2873SOL    HW211491   4.312   0.031   6.420 -0.9848 -1.2898  1.9704
 2873SOL     MW11492   4.249   0.017   6.362  0.4041 -0.5887  0.1846
 2874SOL     OW11493   6.962   9.247   8.559 -0.3150 -0.1207 -0.3966
 2874SOL    HW111494   6.933   9.191   8.631 -0.2953 -0.5958 -0.7542
 2874SOL    HW211495   7.031   9.301   8.597 -0.0619 -0.6123 -0.1501
 2874SOL     MW11496   6.967   9.246   8.574 -0.2783 -0.2508 -0.4116
 2875SOL     OW11497   6.875   8.668   9.320 -0.2287 -0.3441  0.4831
 2875SOL    HW111498   6.796   8.665   9.375 -2.0310 -0.0426 -1.8958
 2875SOL    HW211499   6.913   8.754   9.336 -1.3788  0.1897  0.4631
 2875SOL     MW11500   6.869   8.679   9.329 -0.6260 -0.2317  0.1602
 2876SOL     OW11501   5.874   8.039   0.114  0.3403  0.0919 -0.0342
 2876SOL    HW111502   5.808   8.019   0.048  0.2040  0.1871  0.0740
 2876SOL    HW211503   5.878   7.960   0.169 -0.8285  0.6712  0.9299
 2876SOL     MW11504   5.866   8.025   0.112  0.1646  0.1827  0.1101
 2877SOL     OW11505   7.203   0.509   8.808 -0.4211  0.0836 -0.2316
 2877SOL    HW111506   7.133   0.553   8.857 -0.3924 -0.3495  0.1973
 2877SOL    HW211507   7.205   0.420   8.843 -0.1457 -0.1209 -0.7568
 2877SOL     MW11508   7.194   0.503   8.819 -0.3801 -0.0022 -0.2445
 2878SOL     OW11509   7.529  10.003   8.227  0.7863  0.0986  0.0181
 2878SOL    HW111510   7.584  10.014   8.304  0.9038  0.7455 -0.1572
 2878SOL    HW211511   7.533  10.087   8.181 -0.4594  0.2103  0.0714
 2878SOL     MW11512   7.537  10.016   8.231  0.6344  0.2007  0.0017
 2879SOL     OW11513   5.164   7.988   4.632  0.3667 -0.1498 -0.0557
 2879SOL    HW111514   5.091   7.990   4.571  1.3224  0.7508 -1.2317
 2879SOL    HW211515   5.196   8.078   4.634  0.7388 -0.2817  1.3390
 2879SOL     MW11516   5.159   8.000   4.624  0.5454 -0.0463 -0.0263
 2880SOL     OW11517   8.086   0.126   7.382 -0.3847  0.0501  0.0073
 2880SOL    HW111518   8.137   0.202   7.410  0.5398 -0.7078  0.4548
 2880SOL    HW211519   8.000   0.139   7.421  0.0215  0.4564  0.7931
 2880SOL     MW11520   8.081   0.138   7.391 -0.2056  0.0028  0.1733
 2881SOL     OW11521   5.802   0.456   1.072  0.1500  0.5132 -0.0772
 2881SOL    HW111522   5.840   0.396   1.008  1.9130 -0.1704  1.5149
 2881SOL    HW211523   5.713   0.424   1.086 -0.1025  0.3856 -1.7752
 2881SOL     MW11524   5.795   0.444   1.065  0.3533  0.4040 -0.0915
 2882SOL     OW11525   4.609   1.290   1.267  0.4447  0.0463  0.2535
 2882SOL    HW111526   4.549   1.261   1.199 -0.0077 -0.9031  1.0367
 2882SOL    HW211527   4.691   1.308   1.221 -0.2904  0.9200 -0.7559
 2882SOL     MW11528   4.612   1.289   1.252  0.2849  0.0361  0.2231
 2883SOL     OW11529   7.223   8.862   4.369 -0.2371  0.0539  0.3832
 2883SOL    HW111530   7.220   8.947   4.326  0.3199  0.1375  0.4989
 2883SOL    HW211531   7.131   8.841   4.387 -0.4079  0.4272 -0.0353
 2883SOL     MW11532   7.210   8.871   4.366 -0.1851  0.1154  0.3425
 2884SOL     OW11533   6.119   8.796   1.311  0.7308 -0.3247 -0.0634
 2884SOL    HW111534   6.104   8.716   1.362  2.0152 -1.2360 -1.0366
 2884SOL    HW211535   6.201   8.779   1.264  0.4127  1.1047 -1.2001
 2884SOL     MW11536   6.128   8.783   1.311  0.8609 -0.2550 -0.3474
 2885SOL     OW11537   4.477   8.780   4.485 -0.6175 -0.4999  0.2899
 2885SOL    HW111538   4.555   8.824   4.450 -2.1298  0.5584 -1.9787
 2885SOL    HW211539   4.467   8.703   4.430 -1.1186 -0.7043  0.6601
 2885SOL     MW11540   4.486   8.775   4.473 -0.8884 -0.3850  0.0344
 2886SOL     OW11541   7.745   9.703   5.278  0.7140 -0.1529 -0.1758
 2886SOL    HW111542   7.719   9.795   5.275 -0.5635 -0.4479  0.8843
 2886SOL    HW211543   7.711   9.665   5.198 -0.2376 -0.0480  0.1674
 2886SOL     MW11544   7.737   9.710   5.267  0.4140 -0.1785  0.0131
 2887SOL     OW11545   6.527  10.097   8.253  0.4143 -0.0366  0.2095
 2887SOL    HW111546   6.517  10.098   8.348 -0.6084  1.6052  0.1446
 2887SOL    HW211547   6.585  10.171   8.235  0.8392 -0.5226 -0.4218
 2887SOL     MW11548   6.533  10.107   8.264  0.3339  0.1189  0.1158
 2888SOL     OW11549   4.441   9.080   6.980 -0.0330 -0.1975  0.6750
 2888SOL    HW111550   4.533   9.076   7.009 -0.0859 -0.4589  0.8090
 2888SOL    HW211551   4.422   9.174   6.974  0.2422 -0.1421  0.6524
 2888SOL     MW11552   4.451   9.092   6.983 -0.0031 -0.2252  0.6900
 2889SOL     OW11553   4.663   9.789   7.698 -0.1233 -0.3892  0.4648
 2889SOL    HW111554   4.688   9.871   7.655 -2.0317  0.0260  0.0836
 2889SOL    HW211555   4.747   9.749   7.723  0.9043  0.9023 -0.7521
 2889SOL     MW11556   4.678   9.795   7.696 -0.2418 -0.1595  0.2498
 2890SOL     OW11557   5.458   9.606   7.063 -0.3888 -0.1581 -0.2740
 2890SOL    HW111558   5.476   9.512   7.058  1.5948  0.2212 -1.2709
 2890SOL    HW211559   5.410   9.617   7.145  0.9666 -1.8031  0.8201
 2890SOL     MW11560   5.454   9.595   7.073  0.0606 -0.3284 -0.2609
 2891SOL     OW11561   5.427   8.928   3.689 -0.3078  0.2780  0.2359
 2891SOL    HW111562   5.507   8.978   3.671 -0.2208 -0.0293 -0.2504
 2891SOL    HW211563   5.378   8.930   3.607 -0.0895 -0.8142  0.0584
 2891SOL     MW11564   5.432   8.935   3.676 -0.2667  0.0896  0.1465
 2892SOL     OW11565   7.365   9.828   2.743  0.3530 -0.1778 -0.4878
 2892SOL    HW111566   7.388   9.756   2.802  0.8260  0.1668 -0.2423
 2892SOL    HW211567   7.402   9.802   2.658  0.3598 -0.3084 -0.4459
 2892SOL     MW11568   7.373   9.815   2.740  0.4176 -0.1490 -0.4491
 2893SOL     OW11569   7.242   8.359   7.708 -0.2206 -0.0597 -0.1142
 2893SOL    HW111570   7.292   8.281   7.687  0.9933  0.1955  1.6102
 2893SOL    HW211571   7.153   8.327   7.725 -0.1295 -0.8212 -1.0262
 2893SOL     MW11572   7.237   8.344   7.708 -0.0449 -0.1278 -0.0048
 2894SOL     OW11573   5.866   7.784   1.393 -0.1353  0.3021 -0.0797
 2894SOL    HW111574   5.853   7.741   1.477 -2.1704  1.3178  0.1833
 2894SOL    HW211575   5.778   7.795   1.357  0.7072 -1.6424 -3.2008
 2894SOL     MW11576   5.853   7.780   1.399 -0.2958  0.1771 -0.4644
 2895SOL     OW11577   4.953   7.935   7.577  0.0489 -0.1049  0.0295
 2895SOL    HW111578   5.001   7.857   7.603  2.3551  1.0013 -0.5816
 2895SOL    HW211579   4.978   8.002   7.641 -0.5292  0.5731 -0.4275
 2895SOL     MW11580   4.963   7.934   7.589  0.2815  0.1352 -0.1142
 2896SOL     OW11581   4.206   0.699   7.282  0.3222  0.2688  0.2298
 2896SOL    HW111582   4.278   0.762   7.283 -0.4501  1.1986 -0.4799
 2896SOL    HW211583   4.225   0.644   7.206  0.1044  0.7340 -0.1647
 2896SOL     MW11584   4.219   0.700   7.272  0.1889  0.4565  0.0812
 2897SOL     OW11585   5.938   8.578   9.707 -0.7259  0.2169  0.0199
 2897SOL    HW111586   5.856   8.599   9.751 -0.7053 -0.7303  0.5320
 2897SOL    HW211587   5.942   8.482   9.707  1.2876  0.2297  1.7715
 2897SOL     MW11588   5.928   8.568   9.713 -0.4521  0.0912  0.3246
 2898SOL     OW11589   7.395   8.254   2.808 -0.6608 -0.1585 -0.1137
 2898SOL    HW111590   7.347   8.295   2.880 -1.5341  1.5294 -1.5674
 2898SOL    HW211591   7.395   8.321   2.739  0.5401 -1.5419 -1.5162
 2898SOL     MW11592   7.389   8.269   2.808 -0.6167 -0.1175 -0.4981
 2899SOL     OW11593   5.119   9.771   1.929 -0.0009  0.4371 -0.3820
 2899SOL    HW111594   5.194   9.830   1.939  0.9917 -0.5887 -1.4600
 2899SOL    HW211595   5.129   9.707   2.000  1.4297 -0.9866 -1.7916
 2899SOL     MW11596   5.131   9.771   1.940  0.3252  0.1075 -0.7168
 2900SOL     OW11597   5.571   1.624   4.837  0.3202  0.0932 -0.8134
 2900SOL    HW111598   5.531   1.547   4.876 -0.2029  1.3135  1.1772
 2900SOL    HW211599   5.531   1.631   4.750 -0.1816 -1.4026 -0.7232
 2900SOL     MW11600   5.561   1.615   4.830  0.1823  0.0561 -0.5334
 2901SOL     OW11601   6.489   1.399   2.416 -0.2608  0.6326 -0.2792
 2901SOL    HW111602   6.492   1.304   2.403 -1.4703  0.6807 -1.0567
 2901SOL    HW211603   6.434   1.431   2.345 -0.6444  1.8174  0.5221
 2901SOL     MW11604   6.482   1.390   2.405 -0.4752  0.7985 -0.2760
 2902SOL     OW11605   7.350   8.416   0.257  0.2652  0.1161  0.6669
 2902SOL    HW111606   7.304   8.344   0.300  1.9037 -0.6686  1.1632
 2902SOL    HW211607   7.338   8.491   0.316  1.6500 -0.6935  2.0358
 2902SOL     MW11608   7.342   8.417   0.271  0.6721 -0.0984  0.9179
 2903SOL     OW11609   6.033   1.264   9.818  0.3751 -0.0730 -0.0307
 2903SOL    HW111610   5.986   1.329   9.765 -2.2819  0.6938  2.9767
 2903SOL    HW211611   5.976   1.188   9.820  0.5053 -0.1629  1.4731
 2903SOL     MW11612   6.019   1.263   9.811  0.0350  0.0181  0.5764
 2904SOL     OW11613   4.808   9.082   9.565 -0.4592 -0.5301 -0.0015
 2904SOL    HW111614   4.774   9.027   9.495 -0.6315 -0.4749  0.0385
 2904SOL    HW211615   4.849   9.021   9.627 -0.2337 -0.5705 -0.1913
 2904SOL     MW11616   4.809   9.067   9.564 -0.4521 -0.5281 -0.0216
 2905SOL     OW11617   5.003   8.370   8.883 -0.1769 -0.2075  0.0263
 2905SOL    HW111618   4.979   8.413   8.965 -1.5711 -0.5239 -0.1906
 2905SOL    HW211619   4.919   8.357   8.837  0.6169  0.7300 -1.8210
 2905SOL     MW11620   4.988   8.374   8.888 -0.2577 -0.1239 -0.2515
 2906SOL     OW11621   5.812   1.240   3.608 -0.3508 -0.0819 -0.1870
 2906SOL    HW111622   5.848   1.236   3.696 -1.1092 -0.2320  0.1289
 2906SOL    HW211623   5.825   1.331   3.580 -3.7533  1.1732  1.7196
 2906SOL     MW11624   5.818   1.251   3.616 -0.9108  0.0668  0.1121
 2907SOL     OW11625   4.071   9.837   1.140  0.5437 -0.2461  0.1780
 2907SOL    HW111626   4.127   9.760   1.146  2.6380  1.0947 -1.0504
 2907SOL    HW211627   4.067   9.871   1.229  1.1852 -0.6826  0.3797
 2907SOL     MW11628   4.078   9.831   1.152  0.9119 -0.1244  0.0398
 2908SOL     OW11629   5.540   0.211   7.096  0.2766 -0.2864 -0.3990
 2908SOL    HW111630   5.452   0.216   7.058  0.1685 -0.4334 -0.1696
 2908SOL    HW211631   5.599   0.214   7.020 -0.0001 -4.0017 -0.9469
 2908SOL     MW11632   5.536   0.212   7.081  0.2248 -0.8062 -0.4419
 2909SOL     OW11633   4.608   9.864   8.048 -0.1507 -0.3524  0.3767
 2909SOL    HW111634   4.584   9.930   7.983  2.5212 -0.6239 -1.0281
 2909SOL    HW211635   4.673   9.906   8.103 -1.2765 -0.6289  1.9999
 2909SOL     MW11636   4.613   9.878   8.046  0.0574 -0.4261  0.4061
 2910SOL     OW11637   7.975   9.646   0.931  0.1716 -0.5324 -0.0772
 2910SOL    HW111638   8.027   9.567   0.914 -1.2569 -1.4557 -0.2527
 2910SOL    HW211639   7.905   9.617   0.989 -0.0238  0.7419  0.3362
 2910SOL     MW11640   7.973   9.631   0.936 -0.0469 -0.4852 -0.0452
 2911SOL     OW11641   7.506   0.300   4.196 -0.4242  0.2432  0.1454
 2911SOL    HW111642   7.511   0.330   4.106 -1.9920 -0.8203 -0.3372
 2911SOL    HW211643   7.527   0.207   4.192 -1.1206  0.0449  0.7731
 2911SOL     MW11644   7.509   0.291   4.184 -0.7289  0.0734  0.1649
 2912SOL     OW11645   5.316   9.309   5.084 -0.5481  0.1545 -0.0770
 2912SOL    HW111646   5.357   9.333   5.001 -1.4132 -0.9432 -0.8500
 2912SOL    HW211647   5.387   9.269   5.134 -0.2298 -0.0348 -0.6617
 2912SOL     MW11648   5.331   9.307   5.079 -0.6217 -0.0187 -0.2597
 2913SOL     OW11649   5.126   0.746   9.471  0.0987 -0.2542 -0.2194
 2913SOL    HW111650   5.145   0.652   9.482 -0.1175 -0.1356  1.4968
 2913SOL    HW211651   5.204   0.790   9.507 -0.6201  0.2050  0.8209
 2913SOL     MW11652   5.139   0.739   9.477 -0.0271 -0.1765  0.1516
 2914SOL     OW11653   5.604   8.796   4.010 -0.0435 -0.3481 -0.0352
 2914SOL    HW111654   5.674   8.859   4.025 -1.2051  1.0574 -0.1821
 2914SOL    HW211655   5.632   8.745   3.934  0.0112  1.4694 -1.2916
 2914SOL     MW11656   5.617   8.798   4.002 -0.1925  0.0856 -0.2240
 2915SOL     OW11657   5.958   8.791   1.736  0.2087  0.0665 -0.5021
 2915SOL    HW111658   5.959   8.737   1.815  0.4970  1.8423  0.7902
 2915SOL    HW211659   5.870   8.829   1.734  0.9194  1.9297  0.4223
 2915SOL     MW11660   5.947   8.789   1.746  0.3432  0.5563 -0.2038
 2916SOL     OW11661   7.298   9.234   8.888  0.2439  0.0472 -0.2201
 2916SOL    HW111662   7.327   9.143   8.885 -0.9025 -0.3072 -1.3299
 2916SOL    HW211663   7.366   9.279   8.938 -0.0371 -1.7240  1.9193
 2916SOL     MW11664   7.311   9.228   8.894  0.0518 -0.2389 -0.0815
 2917SOL     OW11665   3.903   0.708   4.848 -0.3945 -0.6480 -0.1925
 2917SOL    HW111666   3.810   0.698   4.871 -0.4148 -1.1780 -0.4777
 2917SOL    HW211667   3.950   0.679   4.926 -0.4693 -0.7151 -0.1714
 2917SOL     MW11668   3.897   0.703   4.861 -0.4073 -0.7284 -0.2280
 2918SOL     OW11669   7.386   0.695   4.740 -0.5199  0.0735  0.0643
 2918SOL    HW111670   7.317   0.740   4.790 -0.3039 -0.2121  0.6283
 2918SOL    HW211671   7.344   0.615   4.708 -0.3669 -0.2526  0.6694
 2918SOL     MW11672   7.371   0.690   4.743 -0.4702 -0.0088  0.2216
 2919SOL     OW11673   4.716   8.156   1.144 -0.1534  0.5822 -0.2715
 2919SOL    HW111674   4.666   8.180   1.222 -2.1902 -0.6160 -1.1061
 2919SOL    HW211675   4.737   8.063   1.157  0.3894  0.6426 -0.6935
 2919SOL     MW11676   4.712   8.146   1.156 -0.3545  0.4291 -0.4407
 2920SOL     OW11677   5.919   8.665   9.444  0.0703 -0.0447  1.1693
 2920SOL    HW111678   5.835   8.626   9.419 -0.4888  1.0833  1.2144
 2920SOL    HW211679   5.938   8.627   9.530 -1.0570  0.6510  1.7512
 2920SOL     MW11680   5.910   8.655   9.452 -0.1566  0.2008  1.2537
 2921SOL     OW11681   6.682   9.980   4.931 -0.5417  0.2526 -0.0784
 2921SOL    HW111682   6.666  10.058   4.984 -2.1216 -0.4030  0.4651
 2921SOL    HW211683   6.717   9.916   4.993 -0.0490  0.2439 -0.3550
 2921SOL     MW11684   6.685   9.982   4.946 -0.6880  0.1632 -0.0425
 2922SOL     OW11685   7.253   8.294   9.353 -0.4095  0.5252  0.1873
 2922SOL    HW111686   7.333   8.340   9.325 -0.5948  0.2415 -0.8380
 2922SOL    HW211687   7.197   8.364   9.387 -0.3782  0.9645 -0.6365
 2922SOL     MW11688   7.256   8.310   9.354 -0.4302  0.5461 -0.0615
 2923SOL     OW11689   5.076   0.632   5.088  0.0080  0.1745  0.1724
 2923SOL    HW111690   5.124   0.593   5.015  0.6321  0.5464  0.3742
 2923SOL    HW211691   5.134   0.620   5.163  0.3988  1.8399  0.1599
 2923SOL     MW11692   5.090   0.625   5.088  0.1446  0.4487  0.1979
 2924SOL     OW11693   4.932   7.758   0.741  0.1266  0.6462  0.2812
 2924SOL    HW111694   4.975   7.807   0.671  1.6978 -1.0575 -0.0273
 2924SOL    HW211695   4.992   7.767   0.816  0.9032 -1.4179 -0.0325
 2924SOL     MW11696   4.946   7.766   0.742  0.4426  0.1392  0.1975
 2925SOL     OW11697   4.920   1.234   3.739 -0.5496 -0.1764 -0.7304
 2925SOL    HW111698   4.834   1.222   3.779 -0.6847 -2.2010 -1.5312
 2925SOL    HW211699   4.974   1.165   3.777  0.0154 -0.5255 -2.1124
 2925SOL     MW11700   4.916   1.223   3.750 -0.4917 -0.4958 -1.0242
 2926SOL     OW11701   6.249   7.984   2.245 -0.3108  0.4750 -0.8077
 2926SOL    HW111702   6.183   7.986   2.176 -0.2119  2.2019 -0.8918
 2926SOL    HW211703   6.261   8.075   2.269  1.7188  0.1540 -0.4604
 2926SOL     MW11704   6.242   7.996   2.239 -0.0244  0.6642 -0.7723
 2927SOL     OW11705   6.930   9.681   0.963 -0.4402 -0.0392  0.4045
 2927SOL    HW111706   6.997   9.728   1.013  0.2124  0.1771 -0.6403
 2927SOL    HW211707   6.965   9.676   0.874 -2.4454  1.4565 -0.5710
 2927SOL     MW11708   6.944   9.687   0.957 -0.6222  0.1912  0.1326
 2928SOL     OW11709   3.791   9.388   4.347 -0.0397  1.2584 -0.2384
 2928SOL    HW111710   3.851   9.347   4.409  0.5909  1.1617 -0.8942
 2928SOL    HW211711   3.718   9.419   4.400 -0.4018 -0.4623  0.3244
 2928SOL     MW11712   3.789   9.387   4.362 -0.0036  1.0138 -0.2509
 2929SOL     OW11713   7.339   0.909   6.039  0.0892 -0.1193 -0.2540
 2929SOL    HW111714   7.414   0.954   6.001 -0.0443 -1.0557 -1.7059
 2929SOL    HW211715   7.263   0.957   6.006 -0.0019 -0.3926 -0.4440
 2929SOL     MW11716   7.339   0.921   6.030  0.0589 -0.2821 -0.4750
 2930SOL     OW11717   6.915   1.597   7.623 -0.2905  0.3217 -0.4242
 2930SOL    HW111718   6.880   1.647   7.549  0.3829  1.5827  0.0877
 2930SOL    HW211719   6.877   1.638   7.700  1.3484  0.9547  0.0851
 2930SOL     MW11720   6.905   1.609   7.623  0.0207  0.5766 -0.2867
 2931SOL     OW11721   5.656   0.348   5.372  0.3625  0.1931  0.0997
 2931SOL    HW111722   5.640   0.442   5.380 -0.4129  0.1352 -0.6185
 2931SOL    HW211723   5.637   0.328   5.280 -0.4369 -0.8334  0.4646
 2931SOL     MW11724   5.651   0.358   5.361  0.1506  0.0471  0.0522
 2932SOL     OW11725   7.399   0.148   5.448  0.1243  0.2574  0.6916
 2932SOL    HW111726   7.357   0.233   5.432 -0.8777 -0.3555 -0.0383
 2932SOL    HW211727   7.352   0.112   5.522 -1.1033 -0.7037 -0.5147
 2932SOL     MW11728   7.387   0.155   5.456 -0.1758  0.0456  0.4310
 2933SOL     OW11729   5.290   0.136   7.019  0.1274  0.4584 -0.4514
 2933SOL    HW111730   5.263   0.228   7.007  1.0074  0.6077 -1.4210
 2933SOL    HW211731   5.309   0.105   6.930  1.3205 -0.1954  0.0102
 2933SOL     MW11732   5.289   0.144   7.005  0.4064  0.3905 -0.5197
 2934SOL     OW11733   3.986   8.882   5.049  0.5448  0.4564 -0.3858
 2934SOL    HW111734   3.962   8.958   4.996  1.5279 -0.0191 -1.5665
 2934SOL    HW211735   4.074   8.901   5.081  0.6372 -0.0132 -0.3480
 2934SOL     MW11736   3.994   8.895   5.046  0.6895  0.3292 -0.5397
 2935SOL     OW11737   6.071   9.538   5.606 -0.2397 -0.6509  0.1405
 2935SOL    HW111738   6.100   9.528   5.516  0.7620 -0.0445  0.3710
 2935SOL    HW211739   6.135   9.599   5.645 -0.3397 -1.3082  1.3916
 2935SOL     MW11740   6.083   9.545   5.599 -0.1183 -0.6577  0.3399
 2936SOL     OW11741   3.576   9.412   4.540 -0.2035  0.0304 -0.3250
 2936SOL    HW111742   3.517   9.484   4.517 -0.4623 -0.4656 -1.2789
 2936SOL    HW211743   3.646   9.453   4.589 -1.3344  0.6354  0.8540
 2936SOL     MW11744   3.577   9.427   4.543 -0.3905  0.0450 -0.2947
 2937SOL     OW11745   6.128   7.936   9.251  0.3991 -0.6000  0.6721
 2937SOL    HW111746   6.151   8.000   9.183  2.1636 -0.9714  0.8675
 2937SOL    HW211747   6.100   7.859   9.203  0.6999 -0.5254  0.3715
 2937SOL     MW11748   6.128   7.934   9.236  0.6771 -0.6399  0.6579
 2938SOL     OW11749   7.706   8.764   2.590 -0.3019 -0.4951  0.0453
 2938SOL    HW111750   7.722   8.845   2.638 -1.5262 -0.6925  0.8177
 2938SOL    HW211751   7.618   8.774   2.554  0.7617 -0.1248 -2.6891
 2938SOL     MW11752   7.696   8.776   2.591 -0.3235 -0.4718 -0.2187
 2939SOL     OW11753   6.799   0.827   4.838  0.1452  0.9552  0.7801
 2939SOL    HW111754   6.743   0.754   4.863  0.0438  0.6845 -0.1982
 2939SOL    HW211755   6.819   0.871   4.921 -1.6333  1.1645  1.1458
 2939SOL     MW11756   6.794   0.823   4.853 -0.1078  0.9469  0.6977
 2940SOL     OW11757   7.461   0.468   1.577 -0.0329  0.3292 -0.1436
 2940SOL    HW111758   7.374   0.504   1.595  0.0151 -0.3683  1.7347
 2940SOL    HW211759   7.521   0.539   1.599 -0.0399 -0.0916  1.3801
 2940SOL     MW11760   7.458   0.483   1.582 -0.0274  0.1787  0.3143
 2941SOL     OW11761   7.426  10.114   1.992 -0.0786 -0.7445  1.0798
 2941SOL    HW111762   7.490  10.160   2.046 -0.6063 -1.5976  2.4718
 2941SOL    HW211763   7.440  10.149   1.904  1.4767 -0.0479  1.5679
 2941SOL     MW11764   7.436  10.125   1.987  0.0597 -0.7655  1.3328
 2942SOL     OW11765   6.051   9.857   0.786  0.2810 -0.0773  0.0601
 2942SOL    HW111766   6.011   9.798   0.722 -0.8513  0.9229 -0.2047
 2942SOL    HW211767   5.976   9.902   0.826  0.9711 -0.5308  1.9608
 2942SOL     MW11768   6.036   9.855   0.783  0.2215 -0.0037  0.2802
 2943SOL     OW11769   5.450   0.818   0.596  0.6864 -0.2081  0.5968
 2943SOL    HW111770   5.391   0.763   0.544  0.6892  0.5287 -0.2071
 2943SOL    HW211771   5.537   0.781   0.581  0.4241 -1.5914  2.1586
 2943SOL     MW11772   5.454   0.806   0.587  0.6515 -0.2951  0.6988
 2944SOL     OW11773   4.696   0.365   1.710 -0.6025 -0.2575 -0.8776
 2944SOL    HW111774   4.719   0.458   1.710  0.4360 -0.3987  2.1867
 2944SOL    HW211775   4.635   0.356   1.637 -0.3289  2.7035 -1.6155
 2944SOL     MW11776   4.691   0.376   1.701 -0.4259  0.1220 -0.5645
 2945SOL     OW11777   7.648   0.255   2.883 -0.3091  0.0472 -0.1845
 2945SOL    HW111778   7.635   0.268   2.977 -0.1642  0.4086 -0.2122
 2945SOL    HW211779   7.608   0.332   2.843 -1.0577 -0.4779 -0.4653
 2945SOL     MW11780   7.641   0.267   2.890 -0.3903  0.0252 -0.2260
 2946SOL     OW11781   4.784   9.542   0.798  0.5494 -0.1632 -0.0095
 2946SOL    HW111782   4.740   9.627   0.797 -0.9118 -0.8791 -1.0062
 2946SOL    HW211783   4.869   9.559   0.756 -0.6600  0.3966 -2.4201
 2946SOL     MW11784   4.790   9.556   0.792  0.1900 -0.1842 -0.4681
 2947SOL     OW11785   8.178   9.419   4.237 -0.1150 -0.0911 -0.0044
 2947SOL    HW111786   8.141   9.474   4.167  0.5849 -1.3917 -1.4545
 2947SOL    HW211787   8.105   9.364   4.265 -0.0598 -0.5282 -0.7006
 2947SOL     MW11788   8.163   9.419   4.231 -0.0134 -0.3249 -0.2932
 2948SOL     OW11789   7.732   0.119   9.204 -0.0279 -0.3441 -0.7215
 2948SOL    HW111790   7.755   0.144   9.115 -2.1241 -1.6047 -1.6885
 2948SOL    HW211791   7.647   0.160   9.219  0.0604 -0.5754  0.4987
 2948SOL     MW11792   7.723   0.128   9.194 -0.2982 -0.5449 -0.6875
 2949SOL     OW11793   6.958   1.630   4.147 -0.4489 -0.5066  0.0745
 2949SOL    HW111794   6.900   1.686   4.095  0.3260 -0.2895 -0.5682
 2949SOL    HW211795   6.899   1.565   4.186 -1.3829  0.7718  0.8941
 2949SOL     MW11796   6.942   1.629   4.146 -0.4703 -0.3054  0.0983
 2950SOL     OW11797   5.404   9.099   9.945  0.3144 -0.5895 -0.0971
 2950SOL    HW111798   5.438   9.012   9.963 -0.3853 -0.7005  0.7552
 2950SOL    HW211799   5.343   9.086   9.872  1.6677 -0.4692 -1.2882
 2950SOL     MW11800   5.400   9.085   9.937  0.4023 -0.5883 -0.1427
 2951SOL     OW11801   6.505   1.803   6.092  0.9521  0.2508  0.0938
 2951SOL    HW111802   6.535   1.741   6.026  1.0618  1.3208 -0.9018
 2951SOL    HW211803   6.478   1.880   6.042 -1.7819  0.0327  1.0453
 2951SOL     MW11804   6.505   1.805   6.076  0.5989  0.3655  0.0878
 2952SOL     OW11805   5.330   9.800   7.970 -0.0804 -0.6771  0.2455
 2952SOL    HW111806   5.368   9.852   7.900  0.3357  0.6646  1.4241
 2952SOL    HW211807   5.352   9.710   7.948 -1.2919 -0.4827 -2.1511
 2952SOL     MW11808   5.338   9.795   7.958 -0.1874 -0.4704  0.0816
 2953SOL     OW11809   6.294   9.915   3.494 -0.4617 -0.0335  0.1511
 2953SOL    HW111810   6.356   9.893   3.563 -0.2250  0.2187  0.0211
 2953SOL    HW211811   6.283   9.834   3.444  0.1611  0.0571 -0.1370
 2953SOL     MW11812   6.301   9.901   3.496 -0.3460  0.0126  0.0948
 2954SOL     OW11813   6.455   0.964   9.580  0.4318  0.3585  0.1978
 2954SOL    HW111814   6.364   0.965   9.610 -0.5261 -0.9150 -2.2766
 2954SOL    HW211815   6.482   1.056   9.580 -0.5715  0.6744  1.7310
 2954SOL     MW11816   6.446   0.977   9.584  0.1678  0.2297  0.0711
 2955SOL     OW11817   3.670   0.101   6.671 -0.2404  0.4837 -0.2246
 2955SOL    HW111818   3.647   0.078   6.762 -0.3763 -0.5840 -0.5098
 2955SOL    HW211819   3.713   0.186   6.678 -0.0362  0.3110  0.8796
 2955SOL     MW11820   3.673   0.109   6.684 -0.2312  0.3168 -0.1144
 2956SOL     OW11821   6.101   1.189   8.579 -0.0407  0.5721 -0.1150
 2956SOL    HW111822   6.007   1.188   8.594  0.2304  1.4139  1.8641
 2956SOL    HW211823   6.131   1.105   8.614 -0.1691 -0.2659 -1.9037
 2956SOL     MW11824   6.093   1.177   8.586 -0.0215  0.5726 -0.0894
 2957SOL     OW11825   6.289   1.734   2.631  0.0112  0.3382  0.5458
 2957SOL    HW111826   6.382   1.727   2.611  0.4615  0.3026  2.4537
 2957SOL    HW211827   6.245   1.711   2.549  1.6641 -0.7682 -0.0875
 2957SOL     MW11828   6.295   1.730   2.618  0.2942  0.1845  0.7174
 2958SOL     OW11829   4.328   1.462   0.317  0.1813 -0.0061  0.1753
 2958SOL    HW111830   4.301   1.371   0.329  0.7727 -0.1439  0.4484
 2958SOL    HW211831   4.250   1.505   0.282  0.1921 -0.8282 -0.8981
 2958SOL     MW11832   4.313   1.455   0.314  0.2623 -0.1353  0.0676
 2959SOL     OW11833   4.889   8.102   8.100  0.9169 -0.0526  0.0378
 2959SOL    HW111834   4.830   8.079   8.172  0.2312 -1.5634 -0.9452
 2959SOL    HW211835   4.942   8.024   8.086  0.3304 -0.1909 -1.7331
 2959SOL     MW11836   4.888   8.089   8.107  0.7457 -0.2745 -0.3328
 2960SOL     OW11837   6.103   7.803   0.065  0.6112 -0.4808 -0.3846
 2960SOL    HW111838   6.095   7.899   0.065  1.5764 -0.3886 -0.9745
 2960SOL    HW211839   6.053   7.775  -0.011  0.2188 -0.4559 -0.1366
 2960SOL     MW11840   6.096   7.812   0.055  0.6883 -0.4650 -0.4306
 2961SOL     OW11841   4.885   8.941   0.895 -0.1272 -0.1473 -0.2337
 2961SOL    HW111842   4.847   8.860   0.860 -0.2780 -0.0934 -0.1959
 2961SOL    HW211843   4.898   8.924   0.988  0.2769 -0.2914 -0.3149
 2961SOL     MW11844   4.882   8.928   0.903 -0.0931 -0.1594 -0.2396
 2962SOL     OW11845   6.514   0.889   0.449 -0.3800 -0.7441  0.1864
 2962SOL    HW111846   6.457   0.965   0.440  0.2949 -0.3725 -1.2533
 2962SOL    HW211847   6.572   0.894   0.374  0.3463 -2.1340  0.6242
 2962SOL     MW11848   6.514   0.900   0.438 -0.1914 -0.8811  0.0516
 2963SOL     OW11849   4.903   8.878   7.669  0.7868 -0.3496 -0.1838
 2963SOL    HW111850   4.849   8.956   7.665  1.6534  0.3744  1.4889
 2963SOL    HW211851   4.841   8.805   7.667 -0.2498  0.4412  1.3080
 2963SOL     MW11852   4.888   8.879   7.668  0.7639 -0.1457  0.2420
 2964SOL     OW11853   6.052   0.565   6.102 -0.4273 -0.3314 -0.1839
 2964SOL    HW111854   5.963   0.533   6.089 -0.7248  0.5966 -0.5196
 2964SOL    HW211855   6.053   0.598   6.192 -0.8256  0.8576 -0.5957
 2964SOL     MW11856   6.040   0.565   6.113 -0.5209 -0.0465 -0.2845
 2965SOL     OW11857   6.788   8.179   4.918  0.3632 -0.5843  0.3889
 2965SOL    HW111858   6.827   8.267   4.915  0.1035 -0.4475  0.8461
 2965SOL    HW211859   6.861   8.120   4.904  0.2089 -0.2515 -2.1199
 2965SOL     MW11860   6.803   8.183   4.916  0.3075 -0.5211  0.1128
 2966SOL     OW11861   7.561   1.038   2.078 -0.1071 -0.0053 -0.1514
 2966SOL    HW111862   7.634   1.005   2.130 -1.2194 -1.3823  0.6092
 2966SOL    HW211863   7.527   1.112   2.129 -0.4348 -0.5872  0.4921
 2966SOL     MW11864   7.566   1.044   2.092 -0.3009 -0.2690  0.0375
 2967SOL     OW11865   4.821   9.325   6.184 -0.3889  0.4002 -0.2209
 2967SOL    HW111866   4.846   9.359   6.098  0.7026  0.6273  0.1689
 2967SOL    HW211867   4.843   9.232   6.181 -0.6063  0.3492 -0.2727
 2967SOL     MW11868   4.827   9.317   6.172 -0.2713  0.4239 -0.1754
 2968SOL     OW11869   5.128   9.393   4.687 -0.0852  0.1036  0.7069
 2968SOL    HW111870   5.127   9.332   4.761  0.8796  0.9696  1.4535
 2968SOL    HW211871   5.175   9.470   4.719 -0.1306  0.7224 -0.6348
 2968SOL     MW11872   5.134   9.395   4.701  0.0385  0.3034  0.6268
 2969SOL     OW11873   6.589   9.227   8.817  0.1092  0.2027 -0.0112
 2969SOL    HW111874   6.563   9.211   8.908 -0.8240 -0.0717 -0.3188
 2969SOL    HW211875   6.557   9.316   8.799 -2.1673 -0.7190 -0.8979
 2969SOL     MW11876   6.581   9.237   8.827 -0.3227  0.0417 -0.1719
 2970SOL     OW11877   8.197   9.488   5.647 -0.1321  0.3672 -0.3249
 2970SOL    HW111878   8.290   9.468   5.658 -0.0151  0.2367 -1.4787
 2970SOL    HW211879   8.188   9.577   5.680  0.3242  0.2393  0.1539
 2970SOL     MW11880   8.208   9.497   5.653 -0.0549  0.3324 -0.4158
 2971SOL     OW11881   8.153   9.766   5.747  0.2851 -0.1859 -0.5382
 2971SOL    HW111882   8.170   9.832   5.814 -2.4297 -1.4803  1.6957
 2971SOL    HW211883   8.117   9.815   5.673 -1.0410  0.9684  0.8011
 2971SOL     MW11884   8.150   9.781   5.746 -0.2587 -0.2047 -0.0574
 2972SOL     OW11885   5.407   8.923   6.962 -0.0513  0.3342  0.2592
 2972SOL    HW111886   5.455   8.989   6.913 -0.1544 -0.8060 -1.5105
 2972SOL    HW211887   5.328   8.908   6.909 -1.0977  0.3466  1.7670
 2972SOL     MW11888   5.403   8.930   6.948 -0.2060  0.1824  0.2240
 2973SOL     OW11889   7.912   0.771   1.521 -0.0144 -0.3172  0.0524
 2973SOL    HW111890   7.912   0.853   1.569 -2.5625 -0.2921  0.1224
 2973SOL    HW211891   7.864   0.790   1.440  1.8795 -1.0331 -1.3112
 2973SOL     MW11892   7.906   0.785   1.516 -0.1025 -0.4102 -0.1217
 2974SOL     OW11893   6.198   0.587   6.652 -0.0369 -0.3309  0.3848
 2974SOL    HW111894   6.126   0.649   6.664  0.9656  0.9374  0.1124
 2974SOL    HW211895   6.175   0.539   6.572  0.3252  1.4372 -0.8372
 2974SOL     MW11896   6.185   0.589   6.643  0.1468  0.0777  0.1837
 2975SOL     OW11897   5.741   0.802   6.350  0.2833  0.2440 -0.1931
 2975SOL    HW111898   5.795   0.850   6.287 -1.4204  0.0453 -1.9113
 2975SOL    HW211899   5.712   0.869   6.413 -0.9272  1.2599 -1.7522
 2975SOL     MW11900   5.745   0.818   6.350 -0.1089  0.3540 -0.6342
 2976SOL     OW11901   4.936   7.683   0.341  0.7244  0.1991  0.3389
 2976SOL    HW111902   4.876   7.738   0.392  1.7751  0.6220  1.1400
 2976SOL    HW211903   4.962   7.613   0.401 -0.7271 -1.3279 -0.7194
 2976SOL     MW11904   4.931   7.681   0.356  0.6705  0.0505  0.3043
 2977SOL     OW11905   6.378   0.690   9.215 -0.7159 -0.0002 -0.2740
 2977SOL    HW111906   6.400   0.709   9.306  0.6794 -0.3798 -0.5145
 2977SOL    HW211907   6.293   0.647   9.220 -2.2668  2.8956  0.5673
 2977SOL     MW11908   6.370   0.687   9.228 -0.7368  0.3385 -0.1932
 2978SOL     OW11909   5.580   8.802   2.858 -0.4373  0.5096 -0.4615
 2978SOL    HW111910   5.545   8.836   2.940 -1.0531  0.5373 -0.7266
 2978SOL    HW211911   5.639   8.871   2.826 -0.8597  0.8769 -0.4667
 2978SOL     MW11912   5.583   8.816   2.864 -0.5770  0.5628 -0.4979
 2979SOL     OW11913   4.373   8.703   4.737 -0.0013 -0.6180  0.2328
 2979SOL    HW111914   4.385   8.768   4.806  0.1248 -0.8241  0.4065
 2979SOL    HW211915   4.427   8.734   4.664 -1.5103  0.5491 -0.4429
 2979SOL     MW11916   4.382   8.716   4.736 -0.1874 -0.4887  0.1653
 2980SOL     OW11917   5.973   1.041   0.622  0.3338 -0.3890  0.0774
 2980SOL    HW111918   5.994   0.948   0.631  2.3092  0.2217  2.6273
 2980SOL    HW211919   5.911   1.059   0.693  0.5796  0.4091  0.0994
 2980SOL     MW11920   5.967   1.031   0.632  0.6327 -0.1994  0.4235
 2981SOL     OW11921   6.205   8.374   0.880 -0.1232  0.1612 -0.2266
 2981SOL    HW111922   6.170   8.408   0.798 -1.1241  0.5425  0.3322
 2981SOL    HW211923   6.188   8.444   0.944 -1.0653 -0.8598  0.6802
 2981SOL     MW11924   6.198   8.388   0.878 -0.3847  0.0751 -0.0293
 2982SOL     OW11925   4.376   9.349   6.231  0.1630 -1.0370  0.2275
 2982SOL    HW111926   4.455   9.403   6.229  0.6210 -1.7177 -0.8204
 2982SOL    HW211927   4.309   9.405   6.270  0.6339  0.2511 -0.7759
 2982SOL     MW11928   4.378   9.364   6.236  0.2880 -0.9553 -0.0486
 2983SOL     OW11929   7.245   8.895   6.635 -0.4890 -0.2288  0.2766
 2983SOL    HW111930   7.193   8.859   6.564 -1.5298 -1.6465  1.6743
 2983SOL    HW211931   7.335   8.870   6.614 -0.8151 -0.8771 -0.3957
 2983SOL     MW11932   7.250   8.887   6.623 -0.6730 -0.5068  0.3743
 2984SOL     OW11933   5.056   7.890   5.527  0.0042 -0.3868 -0.3002
 2984SOL    HW111934   5.094   7.805   5.551  0.5120 -0.0066  0.2712
 2984SOL    HW211935   5.111   7.954   5.572 -0.5038  0.2380 -0.5604
 2984SOL     MW11936   5.068   7.887   5.536  0.0042 -0.2515 -0.2583
 2985SOL     OW11937   5.173  10.143   5.906  0.0530 -0.0144 -0.1508
 2985SOL    HW111938   5.261  10.119   5.879  0.1633  0.6688 -0.4359
 2985SOL    HW211939   5.170  10.124   6.000  0.3623 -0.4282 -0.2233
 2985SOL     MW11940   5.185  10.137   5.915  0.1095  0.0219 -0.1989
 2986SOL     OW11941   4.991   8.071   2.737 -0.3421 -0.2610  0.0846
 2986SOL    HW111942   4.942   8.050   2.658  0.6023 -0.2033 -0.5420
 2986SOL    HW211943   4.968   8.003   2.799  0.0067 -1.1619 -0.7399
 2986SOL     MW11944   4.981   8.059   2.734 -0.1681 -0.3745 -0.1107
 2987SOL     OW11945   4.045   8.641   2.948  0.3213 -0.0372 -0.0344
 2987SOL    HW111946   3.952   8.660   2.963 -0.3814 -2.6795 -0.5009
 2987SOL    HW211947   4.070   8.697   2.875 -1.1187  0.1754 -0.3895
 2987SOL     MW11948   4.036   8.651   2.940  0.0330 -0.3642 -0.1450
 2988SOL     OW11949   5.887   1.183   4.232  0.3235 -0.2575 -0.7314
 2988SOL    HW111950   5.924   1.213   4.315  1.5161  1.6618 -1.8725
 2988SOL    HW211951   5.954   1.124   4.196  0.7541  0.4900 -1.2021
 2988SOL     MW11952   5.901   1.179   4.238  0.5420  0.1014 -0.9483
 2989SOL     OW11953   6.325   9.270   3.262 -0.4412  0.8143  0.2582
 2989SOL    HW111954   6.276   9.249   3.342  0.2836 -1.6643  0.1511
 2989SOL    HW211955   6.343   9.185   3.223  2.5092  1.7093 -0.5575
 2989SOL     MW11956   6.321   9.256   3.268  0.0534  0.6012  0.1340
 2990SOL     OW11957   8.136   0.401   7.454  0.7519  0.1433  0.0634
 2990SOL    HW111958   8.148   0.401   7.549  1.9084  0.6721 -0.0639
 2990SOL    HW211959   8.115   0.492   7.433  0.7308  0.0729 -0.2170
 2990SOL     MW11960   8.135   0.413   7.464  0.9047  0.2050  0.0085
 2991SOL     OW11961   7.869  -0.027   9.552 -0.0562 -0.3880 -0.0164
 2991SOL    HW111962   7.919   0.029   9.493 -0.6343  0.2368  0.0803
 2991SOL    HW211963   7.876   0.016   9.638  2.1164 -2.1104  0.7620
 2991SOL     MW11964   7.877  -0.014   9.556  0.1584 -0.5357  0.1014
 2992SOL     OW11965   3.425   9.853   4.570 -0.1911 -0.2781  0.4427
 2992SOL    HW111966   3.410   9.909   4.493  0.6560 -1.6475 -0.7840
 2992SOL    HW211967   3.409   9.764   4.538  0.1612 -0.8885  1.8835
 2992SOL     MW11968   3.421   9.848   4.555 -0.0297 -0.5446  0.4716
 2993SOL     OW11969   7.716   0.294   0.734  0.2217 -0.1687  0.1492
 2993SOL    HW111970   7.701   0.375   0.784 -1.5850 -0.9273  0.9052
 2993SOL    HW211971   7.748   0.231   0.799  2.0850  0.0011 -0.5244
 2993SOL     MW11972   7.719   0.297   0.750  0.2293 -0.2479  0.1603
 2994SOL     OW11973   5.314   9.241   0.034  0.4898  0.4111 -0.1997
 2994SOL    HW111974   5.385   9.301   0.012 -0.3982  1.1023 -1.3423
 2994SOL    HW211975   5.325   9.167  -0.025 -0.0962  0.8266 -0.8513
 2994SOL     MW11976   5.325   9.239   0.023  0.2914  0.5600 -0.4411
 2995SOL     OW11977   6.840   7.810   2.103  0.3007  0.6144 -0.3168
 2995SOL    HW111978   6.767   7.852   2.149 -0.6925 -0.8539 -0.4604
 2995SOL    HW211979   6.916   7.830   2.157 -0.7384 -0.5835  1.7697
 2995SOL     MW11980   6.840   7.818   2.117  0.0272  0.2556 -0.0553
 2996SOL     OW11981   4.666   1.005   0.466 -0.5509  0.3353  0.1412
 2996SOL    HW111982   4.575   1.016   0.437 -0.0733 -0.6465 -1.9365
 2996SOL    HW211983   4.715   1.072   0.417  0.3884 -1.8003 -2.0307
 2996SOL     MW11984   4.661   1.016   0.455 -0.3602 -0.0842 -0.4307
 2997SOL     OW11985   3.978   9.512   1.134 -0.0902  0.0036  0.3492
 2997SOL    HW111986   4.071   9.532   1.149  0.1144 -1.3797  1.0762
 2997SOL    HW211987   3.962   9.541   1.044  1.2839 -0.5177 -0.0978
 2997SOL     MW11988   3.988   9.518   1.124  0.1223 -0.2528  0.3869
 2998SOL     OW11989   4.506   1.235   8.451 -0.4198  0.0564  0.1394
 2998SOL    HW111990   4.468   1.197   8.531 -1.1829  0.4749 -0.0109
 2998SOL    HW211991   4.575   1.293   8.482 -0.4450 -0.0926  0.4751
 2998SOL     MW11992   4.510   1.238   8.466 -0.5259  0.0927  0.1644
 2999SOL     OW11993   7.369   0.906   4.222 -0.0806  0.0154  0.0355
 2999SOL    HW111994   7.382   0.870   4.310 -0.3316  1.5023  0.7233
 2999SOL    HW211995   7.279   0.938   4.223  0.7351  2.4921  0.2105
 2999SOL     MW11996   7.359   0.905   4.234 -0.0046  0.5489  0.1516
 3000SOL     OW11997   5.958   9.249   8.653 -0.1086 -0.1094 -0.4399
 3000SOL    HW111998   5.914   9.332   8.671 -1.4753 -0.4952 -1.7778
 3000SOL    HW211999   6.009   9.265   8.574 -1.5885 -0.9017 -1.6124
 3000SOL     MW12000   5.959   9.262   8.645 -0.4917 -0.2680 -0.7778
 3001SOL     OW12001   6.148   8.802   4.386  0.3771  0.0281  0.1615
 3001SOL    HW112002   6.131   8.852   4.466 -1.0958 -0.3729  0.1354
 3001SOL    HW212003   6.165   8.868   4.319 -0.7909  0.4955  0.3000
 3001SOL     MW12004   6.148   8.817   4.387  0.0217  0.0370  0.1766
 3002SOL     OW12005   7.214   8.735   3.692  0.1259 -0.3256  0.2061
 3002SOL    HW112006   7.123   8.759   3.710  0.3212  1.3777 -0.8334
 3002SOL    HW212007   7.254   8.727   3.779 -0.7783 -0.1265  0.6550
 3002SOL     MW12008   7.207   8.737   3.706  0.0305 -0.0696  0.1266
 3003SOL     OW12009   3.892   9.579   9.638  0.1732 -0.1223 -0.4259
 3003SOL    HW112010   3.838   9.523   9.693 -1.4545 -0.8038 -2.5441
 3003SOL    HW212011   3.843   9.661   9.630  1.7438  1.0698  1.3098
 3003SOL     MW12012   3.878   9.582   9.644  0.1655 -0.0536 -0.4774
 3004SOL     OW12013   6.945   8.399   8.090 -0.3729 -0.1574  1.0341
 3004SOL    HW112014   7.000   8.324   8.066  0.3872  0.9348 -0.8676
 3004SOL    HW212015   6.865   8.360   8.125 -0.6899 -1.9426 -1.4479
 3004SOL     MW12016   6.942   8.383   8.091 -0.3133 -0.2507  0.4441
 3005SOL     OW12017   4.003   0.902   0.161 -0.0381  0.1166  0.2979
 3005SOL    HW112018   3.938   0.847   0.116 -0.5284 -0.1205  1.2748
 3005SOL    HW212019   4.036   0.960   0.092 -1.3188  0.2777 -0.2209
 3005SOL     MW12020   3.998   0.903   0.145 -0.2764  0.1064  0.3595
 3006SOL     OW12021   4.432   0.948   6.130 -0.2232 -0.2341 -0.0734
 3006SOL    HW112022   4.405   0.891   6.203  0.9059 -0.2478  0.3648
 3006SOL    HW212023   4.521   0.976   6.154 -0.3369  0.8183 -0.8292
 3006SOL     MW12024   4.440   0.944   6.143 -0.0866 -0.0943 -0.1161
 3007SOL     OW12025   5.584   0.465   8.299 -0.2911 -0.5044 -0.7872
 3007SOL    HW112026   5.584   0.446   8.205  1.0824 -0.3410 -0.8426
 3007SOL    HW212027   5.655   0.529   8.310  0.3093 -1.3528  0.5102
 3007SOL     MW12028   5.594   0.471   8.288 -0.0254 -0.5966 -0.6201
 3008SOL     OW12029   4.007  10.138  10.014 -0.0337 -0.0542  0.0174
 3008SOL    HW112030   3.993  10.213  10.071  0.3822  0.0225  0.0262
 3008SOL    HW212031   4.029  10.066  10.074  0.9079  0.1497 -0.0690
 3008SOL     MW12032   4.008  10.138  10.030  0.1490 -0.0164  0.0070
 3009SOL     OW12033   5.654   0.480   5.755  0.5019 -0.4797  0.5467
 3009SOL    HW112034   5.605   0.539   5.812  1.8056  0.1971  1.0038
 3009SOL    HW212035   5.610   0.485   5.671 -0.2529  0.0412  0.9666
 3009SOL     MW12036   5.642   0.488   5.752  0.5758 -0.3185  0.6647
 3010SOL     OW12037   4.084   8.584   1.236  0.0368  0.1117  0.2340
 3010SOL    HW112038   4.091   8.556   1.145 -0.3175 -0.1334  0.2787
 3010SOL    HW212039   4.159   8.543   1.280 -0.6039 -0.9887  0.3474
 3010SOL     MW12040   4.095   8.575   1.230 -0.0971 -0.0694  0.2553
 3011SOL     OW12041   7.522   9.550   0.191  0.5468  0.2019 -0.1788
 3011SOL    HW112042   7.561   9.475   0.146  0.5062  0.7447 -1.1346
 3011SOL    HW212043   7.428   9.536   0.185  0.5444 -0.3259  0.7965
 3011SOL     MW12044   7.514   9.538   0.184  0.5410  0.2039 -0.1762
 3012SOL     OW12045   4.395   0.844   7.002 -0.0761  0.4529  0.3215
 3012SOL    HW112046   4.389   0.875   7.092  0.4728  1.2647  0.0901
 3012SOL    HW212047   4.479   0.798   6.998 -0.0612  0.4896  0.2040
 3012SOL     MW12048   4.405   0.842   7.013 -0.0002  0.5671  0.2746
 3013SOL     OW12049   4.869   0.534   4.439 -0.4678  0.4268  0.3609
 3013SOL    HW112050   4.874   0.576   4.353  0.9907  2.5662  1.4235
 3013SOL    HW212051   4.922   0.455   4.430  1.1343  1.5363 -0.2338
 3013SOL     MW12052   4.877   0.529   4.426 -0.0559  0.8640  0.4238
 3014SOL     OW12053   4.706   8.823   7.309 -0.6665  0.6631 -0.2721
 3014SOL    HW112054   4.703   8.816   7.214 -1.6392  0.2842 -0.2275
 3014SOL    HW212055   4.696   8.917   7.326  2.2686  1.1262 -0.5882
 3014SOL     MW12056   4.704   8.835   7.299 -0.4024  0.6745 -0.3087
 3015SOL     OW12057   4.717   0.960   9.828  0.2171 -0.3492  0.5644
 3015SOL    HW112058   4.748   0.870   9.835  0.9142 -0.0731  1.1224
 3015SOL    HW212059   4.795   1.013   9.842 -0.0730  0.3477 -0.3637
 3015SOL     MW12060   4.731   0.955   9.831  0.2719 -0.2183  0.5146
 3016SOL     OW12061   6.284   1.095   4.302  0.2571 -0.2176 -0.4474
 3016SOL    HW112062   6.344   1.046   4.359  0.9046  1.3621  0.2730
 3016SOL    HW212063   6.219   1.132   4.362 -0.1477 -0.0722 -0.9701
 3016SOL     MW12064   6.283   1.093   4.318  0.2897  0.0145 -0.4208
 3017SOL     OW12065   7.611   8.963   9.040  0.1347 -0.3176  0.2241
 3017SOL    HW112066   7.689   9.007   9.074 -1.0914  0.5966  2.0426
 3017SOL    HW212067   7.626   8.956   8.946  2.1128  0.4060  0.4386
 3017SOL     MW12068   7.624   8.968   9.032  0.2359 -0.0972  0.4977
 3018SOL     OW12069   5.184   9.691   6.466 -0.0561  0.5437  0.0156
 3018SOL    HW112070   5.214   9.638   6.540  1.0063  1.4473  0.2480
 3018SOL    HW212071   5.189   9.632   6.391  2.6393  0.6996 -0.0212
 3018SOL     MW12072   5.189   9.676   6.466  0.4496  0.6863  0.0419
 3019SOL     OW12073   6.720   0.869   2.949 -0.1353  0.1018 -0.1571
 3019SOL    HW112074   6.677   0.862   3.034 -0.6852  1.5362 -0.2847
 3019SOL    HW212075   6.663   0.927   2.898  1.2449  0.9512 -0.7920
 3019SOL     MW12076   6.707   0.876   2.954 -0.0236  0.4092 -0.2597
 3020SOL     OW12077   4.686   9.170   3.650 -0.4784 -0.3892 -0.0145
 3020SOL    HW112078   4.756   9.158   3.586 -0.1940 -0.1414  0.2480
 3020SOL    HW212079   4.730   9.201   3.729 -0.8028 -0.8544  0.3623
 3020SOL     MW12080   4.701   9.172   3.652 -0.4838 -0.4185  0.0715
 3021SOL     OW12081   7.779   0.815   9.278  0.1879  0.3269  0.4371
 3021SOL    HW112082   7.688   0.797   9.299  0.1295  0.6624  0.4772
 3021SOL    HW212083   7.829   0.755   9.335  0.0282  1.1147  1.4338
 3021SOL     MW12084   7.774   0.804   9.289  0.1585  0.4781  0.5766
 3022SOL     OW12085   5.839   0.225   7.434  0.2105  0.4940 -0.1257
 3022SOL    HW112086   5.844   0.258   7.524  0.6124 -0.4220  0.2051
 3022SOL    HW212087   5.787   0.290   7.387  1.3164  1.7963  0.3981
 3022SOL     MW12088   5.833   0.238   7.440  0.4134  0.5460 -0.0107
 3023SOL     OW12089   5.084   9.427   1.330  0.2733  0.4209 -0.7857
 3023SOL    HW112090   5.003   9.377   1.318 -1.1782  1.4760  2.9857
 3023SOL    HW212091   5.154   9.362   1.319 -1.3273 -1.6024  0.1921
 3023SOL     MW12092   5.082   9.411   1.327 -0.1375  0.2906 -0.1466
 3024SOL     OW12093   6.080   1.987   1.475 -0.7128 -0.4877  0.3351
 3024SOL    HW112094   6.039   1.908   1.441  1.4615 -1.4386 -0.2121
 3024SOL    HW212095   6.149   2.008   1.413 -0.4169  1.1333  1.1438
 3024SOL     MW12096   6.083   1.979   1.462 -0.3803 -0.3975  0.3703
 3025SOL     OW12097   7.193   9.380   2.714 -0.4581 -0.0742 -0.0303
 3025SOL    HW112098   7.236   9.424   2.641 -2.6761  1.1835 -0.6818
 3025SOL    HW212099   7.183   9.290   2.684  1.3227 -0.3260  0.0099
 3025SOL     MW12100   7.197   9.374   2.700 -0.5170  0.0612 -0.1126
 3026SOL     OW12101   4.459   0.931   4.995  0.3678 -0.0797  0.2193
 3026SOL    HW112102   4.542   0.966   5.029  0.0374  0.8334  0.0990
 3026SOL    HW212103   4.402   0.928   5.072 -0.1267  1.2353 -0.0708
 3026SOL     MW12104   4.463   0.935   5.010  0.2568  0.2201  0.1641
 3027SOL     OW12105   5.096   0.323   0.533  0.7933  0.1192 -0.2352
 3027SOL    HW112106   5.071   0.377   0.459  1.4017  1.5425  0.5541
 3027SOL    HW212107   5.056   0.238   0.515 -0.2967  0.8445 -1.4571
 3027SOL     MW12108   5.087   0.319   0.521  0.7285  0.4084 -0.2935
 3028SOL     OW12109   5.581   0.839  10.021 -0.0073 -0.0273 -0.4059
 3028SOL    HW112110   5.507   0.778  10.014 -2.1002  2.3681 -0.9801
 3028SOL    HW212111   5.540   0.924  10.039  2.5749  1.5687 -1.4367
 3028SOL     MW12112   5.565   0.842  10.023  0.0586  0.5098 -0.6219
 3029SOL     OW12113   7.824   8.541   4.521 -0.7247  0.3183 -0.6753
 3029SOL    HW112114   7.828   8.450   4.493 -0.3979  0.0977  0.0533
 3029SOL    HW212115   7.890   8.585   4.468 -1.3782  0.2839 -1.5409
 3029SOL     MW12116   7.833   8.535   4.510 -0.7687  0.2840 -0.6937
 3030SOL     OW12117   6.629   1.652   6.314  0.2382  0.7526  0.3278
 3030SOL    HW112118   6.724   1.654   6.317  0.2772  0.9297 -0.6936
 3030SOL    HW212119   6.605   1.722   6.253 -0.4180 -0.6666 -1.1233
 3030SOL     MW12120   6.638   1.661   6.306  0.1552  0.5854 -0.0049
 3031SOL     OW12121   5.056   7.865   0.175  0.0428  0.4053  0.3003
 3031SOL    HW112122   5.034   7.786   0.226 -0.9645 -0.2038 -1.0225
 3031SOL    HW212123   5.051   7.837   0.084 -1.2048  2.2054 -0.2372
 3031SOL     MW12124   5.052   7.850   0.170 -0.2606  0.5656  0.0500
 3032SOL     OW12125   5.819   9.989   5.497 -0.0440  0.6066  0.0866
 3032SOL    HW112126   5.825   9.900   5.530 -0.6462  0.9079  1.0681
 3032SOL    HW212127   5.787  10.040   5.572 -1.4733  1.3255 -0.9683
 3032SOL     MW12128   5.815   9.984   5.512 -0.3174  0.7439  0.0767
 3033SOL     OW12129   6.855   0.053  10.115 -0.4715 -0.4061 -0.1902
 3033SOL    HW112130   6.763   0.029  10.124 -0.7694  0.9133  0.6090
 3033SOL    HW212131   6.877   0.093  10.199  0.5942  0.0535 -0.6724
 3033SOL     MW12132   6.846   0.056  10.127 -0.3682 -0.1667 -0.1476
 3034SOL     OW12133   4.620   0.042   7.687  0.3057 -0.1851 -0.7004
 3034SOL    HW112134   4.634  -0.037   7.634 -0.8683 -0.3343 -0.8116
 3034SOL    HW212135   4.527   0.041   7.707  0.1230  1.5577 -1.3078
 3034SOL     MW12136   4.610   0.031   7.683  0.1231  0.0294 -0.7971
 3035SOL     OW12137   5.327   1.805   1.438  0.0079  0.2066  0.5651
 3035SOL    HW112138   5.311   1.795   1.344  1.5050  0.5073  0.2664
 3035SOL    HW212139   5.275   1.882   1.463 -0.0503  0.3911 -0.1068
 3035SOL     MW12140   5.318   1.814   1.429  0.2015  0.2719  0.4344
 3036SOL     OW12141   7.938  10.048   0.034 -0.1866 -0.3336  0.1718
 3036SOL    HW112142   7.871  10.117   0.028 -0.8925 -1.1080 -1.6199
 3036SOL    HW212143   8.021  10.094   0.019 -0.5166  0.3383  0.3615
 3036SOL     MW12144   7.940  10.064   0.031 -0.3260 -0.3474 -0.0438
 3037SOL     OW12145   7.210   7.938   7.876 -0.0718 -0.4451 -0.1952
 3037SOL    HW112146   7.170   7.867   7.926  1.2785 -0.6474  0.6406
 3037SOL    HW212147   7.174   7.928   7.788 -0.0129 -2.0781 -0.0622
 3037SOL     MW12148   7.200   7.927   7.871  0.1178 -0.6921 -0.0648
 3038SOL     OW12149   5.899   0.073   4.780  0.1165 -0.0966 -0.3841
 3038SOL    HW112150   5.847   0.043   4.855 -0.7386  1.5184 -0.2888
 3038SOL    HW212151   5.834   0.105   4.717  0.8923 -0.1885 -1.2513
 3038SOL     MW12152   5.883   0.073   4.781  0.1058  0.1084 -0.4880
 3039SOL     OW12153   5.356   1.559   6.707  0.3989 -0.2249  0.2176
 3039SOL    HW112154   5.298   1.573   6.782  1.4526  1.6940  0.7311
 3039SOL    HW212155   5.397   1.475   6.724 -0.4589 -0.5006  1.0442
 3039SOL     MW12156   5.354   1.550   6.719  0.4252 -0.0038  0.3980
 3040SOL     OW12157   6.478   7.679   4.659  0.0240  0.0233 -0.4152
 3040SOL    HW112158   6.567   7.662   4.688  0.2709 -1.1668 -1.7641
 3040SOL    HW212159   6.476   7.773   4.642  0.3955  0.4319  1.5354
 3040SOL     MW12160   6.490   7.689   4.661  0.1072 -0.0819 -0.3342
 3041SOL     OW12161   6.438   0.878  10.111 -0.2442 -0.3328  0.0792
 3041SOL    HW112162   6.363   0.857  10.166 -1.1856 -0.5405 -1.2385
 3041SOL    HW212163   6.402   0.931  10.040  0.5929 -1.5531 -1.3130
 3041SOL     MW12164   6.423   0.882  10.109 -0.2583 -0.5250 -0.2855
 3042SOL     OW12165   5.786   8.034   4.687 -0.3282 -0.1276  0.0267
 3042SOL    HW112166   5.760   8.023   4.778 -1.4400 -0.5995 -0.3322
 3042SOL    HW212167   5.795   7.945   4.654  0.7888  0.0327 -0.1394
 3042SOL     MW12168   5.784   8.021   4.695 -0.3275 -0.1695 -0.0439
 3043SOL     OW12169   6.164  10.114   3.262 -0.0544 -0.5600  0.2457
 3043SOL    HW112170   6.238  10.106   3.201 -0.5856  1.0027 -0.6760
 3043SOL    HW212171   6.136  10.025   3.279  2.8317 -1.3254  1.6327
 3043SOL     MW12172   6.170  10.101   3.256  0.2625 -0.4527  0.3084
 3044SOL     OW12173   7.659   9.266   6.750  0.2069 -0.0513  0.3785
 3044SOL    HW112174   7.681   9.173   6.743  0.5719 -0.0048  0.8128
 3044SOL    HW212175   7.576   9.275   6.705  0.5747 -0.4372 -0.3933
 3044SOL     MW12176   7.651   9.254   6.743  0.3055 -0.0970  0.3331
 3045SOL     OW12177   7.405   0.034   3.803 -0.4123  0.4779  0.2477
 3045SOL    HW112178   7.398   0.129   3.813  0.9303  0.6058  0.1053
 3045SOL    HW212179   7.318   0.001   3.825 -0.4687  1.6028  1.8494
 3045SOL     MW12180   7.392   0.042   3.807 -0.2392  0.6465  0.4441
 3046SOL     OW12181   7.214   0.555   1.690 -0.5900 -0.1166  0.0278
 3046SOL    HW112182   7.196   0.645   1.662  0.7961  0.4706  0.8912
 3046SOL    HW212183   7.246   0.564   1.780 -0.9946 -1.5430  0.3402
 3046SOL     MW12184   7.216   0.569   1.699 -0.4579 -0.2295  0.1861
 3047SOL     OW12185   4.197   0.277   9.094 -0.3192  0.0229  0.0784
 3047SOL    HW112186   4.199   0.229   9.177  0.1394 -0.1276 -0.0153
 3047SOL    HW212187   4.238   0.218   9.031 -0.0285  0.4115 -0.1049
 3047SOL     MW12188   4.203   0.263   9.097 -0.2184  0.0550  0.0411
 3048SOL     OW12189   7.295   1.566   8.549  0.1869  0.2819 -0.0746
 3048SOL    HW112190   7.377   1.523   8.524 -0.9429 -1.3282 -1.1604
 3048SOL    HW212191   7.227   1.502   8.529 -1.4284  1.9196 -0.0441
 3048SOL     MW12192   7.297   1.552   8.543 -0.1825  0.2856 -0.2166
 3049SOL     OW12193   5.789   9.555   1.257 -0.5653  0.3492 -0.4747
 3049SOL    HW112194   5.860   9.612   1.226  0.4777 -0.3269  0.5655
 3049SOL    HW212195   5.830   9.500   1.324 -1.8273 -0.8165 -0.6120
 3049SOL     MW12196   5.804   9.555   1.262 -0.5948  0.1013 -0.3532
 3050SOL     OW12197   7.166   0.711   7.917 -0.3536 -0.1495 -0.1138
 3050SOL    HW112198   7.101   0.741   7.854  0.5326 -0.8999 -1.4281
 3050SOL    HW212199   7.134   0.743   8.001 -1.9495  0.2519 -0.8343
 3050SOL     MW12200   7.153   0.719   7.920 -0.4491 -0.1964 -0.3876
 3051SOL     OW12201   5.351   9.939   1.943 -1.0825  0.3278  0.7981
 3051SOL    HW112202   5.322  10.025   1.913 -0.8302 -0.1364 -0.8733
 3051SOL    HW212203   5.388   9.897   1.865 -1.0223 -1.2251  1.6125
 3051SOL     MW12204   5.352   9.945   1.929 -1.0405  0.0564  0.6828
 3052SOL     OW12205   7.991   9.845   1.345 -0.1148 -0.0585  0.2805
 3052SOL    HW112206   7.956   9.876   1.262  0.5288 -0.3145 -0.0983
 3052SOL    HW212207   8.062   9.785   1.320 -0.6591 -1.0336  0.9988
 3052SOL     MW12208   7.996   9.841   1.331 -0.1014 -0.2242  0.3262
 3053SOL     OW12209   6.423   9.942   1.630 -0.2380 -0.0812 -0.1337
 3053SOL    HW112210   6.416   9.992   1.712  0.2569 -0.7020  0.2912
 3053SOL    HW212211   6.472   9.864   1.653 -0.6021 -0.5504 -0.9021
 3053SOL     MW12212   6.429   9.938   1.644 -0.2204 -0.2279 -0.1799
 3054SOL     OW12213   7.251   9.490   0.170  0.0378  0.1339 -0.3114
 3054SOL    HW112214   7.199   9.415   0.198  0.2067 -0.1284 -0.6975
 3054SOL    HW212215   7.199   9.531   0.100 -0.5307  0.9681  0.5744
 3054SOL     MW12216   7.237   9.486   0.164 -0.0160  0.2109 -0.2442
 3055SOL     OW12217   6.569   0.144   7.705 -0.3510  0.0716 -0.3733
 3055SOL    HW112218   6.508   0.217   7.688  0.0980  0.1033 -1.9946
 3055SOL    HW212219   6.512   0.068   7.715 -0.7233  0.3158 -0.6049
 3055SOL     MW12220   6.553   0.144   7.704 -0.3407  0.1087 -0.6227
 3056SOL     OW12221   5.655   7.425   5.222  0.0738  0.2325  0.3929
 3056SOL    HW112222   5.695   7.338   5.220 -2.2178 -0.9799  1.9417
 3056SOL    HW212223   5.663   7.453   5.313 -1.1118  0.6326  0.3982
 3056SOL     MW12224   5.661   7.417   5.234 -0.3942  0.1232  0.6020
 3057SOL     OW12225   5.643   9.995   3.142 -0.1952  0.3568  0.0393
 3057SOL    HW112226   5.666   9.926   3.204  1.8654  2.3102  1.6095
 3057SOL    HW212227   5.651   9.954   3.056 -2.3091 -2.2038  0.9477
 3057SOL     MW12228   5.647   9.980   3.139 -0.2024  0.2751  0.3729
 3058SOL     OW12229   4.594   1.427   9.815  0.2308 -0.3899 -0.2238
 3058SOL    HW112230   4.582   1.356   9.752  1.6351 -0.8885  0.0275
 3058SOL    HW212231   4.674   1.471   9.786  0.6635 -0.3658  0.9456
 3058SOL     MW12232   4.603   1.423   9.802  0.4780 -0.4537 -0.0326
 3059SOL     OW12233   5.922   1.722   7.064  0.0577 -0.3440 -0.3144
 3059SOL    HW112234   5.900   1.715   7.157  2.5103  0.7580  0.4481
 3059SOL    HW212235   5.927   1.816   7.048  2.7958 -0.4653 -0.6501
 3059SOL     MW12236   5.920   1.734   7.075  0.7563 -0.2120 -0.2569
 3060SOL     OW12237   5.230   8.629   1.965  0.6140 -0.0959 -0.1725
 3060SOL    HW112238   5.172   8.653   2.037  0.9415  0.8940 -0.2260
 3060SOL    HW212239   5.211   8.693   1.896  0.6069 -0.7740 -0.8124
 3060SOL     MW12240   5.220   8.641   1.965  0.6571 -0.0539 -0.2658
 3061SOL     OW12241   6.348   8.250   8.206 -0.8795  0.6361 -0.4867
 3061SOL    HW112242   6.271   8.243   8.149 -1.2052  3.2419 -0.4860
 3061SOL    HW212243   6.405   8.313   8.162  1.0543 -0.8311 -0.2123
 3061SOL     MW12244   6.345   8.258   8.192 -0.6630  0.7894 -0.4497
 3062SOL     OW12245   6.313   9.652   7.969  0.0136 -0.5513  0.4335
 3062SOL    HW112246   6.357   9.579   8.014 -0.2815 -0.9568  0.0728
 3062SOL    HW212247   6.281   9.614   7.887  0.5877  0.1972 -0.1502
 3062SOL     MW12248   6.314   9.637   7.964  0.0512 -0.5051  0.3064
 3063SOL     OW12249   5.973   8.949   8.230  0.4559  0.2469 -0.0717
 3063SOL    HW112250   5.931   8.873   8.268 -0.4117  1.0435  0.6191
 3063SOL    HW212251   5.914   9.022   8.251  2.0376  1.3697  0.6960
 3063SOL     MW12252   5.960   8.949   8.238  0.5520  0.5052  0.1246
 3064SOL     OW12253   5.933   1.429   8.146 -0.4823 -0.2894  0.9172
 3064SOL    HW112254   5.950   1.371   8.220 -2.0377 -1.6515  0.2668
 3064SOL    HW212255   5.884   1.376   8.084  1.3275  0.5920 -1.4392
 3064SOL     MW12256   5.929   1.414   8.147 -0.4481 -0.3541  0.5125
 3065SOL     OW12257   6.117   1.167   2.308  0.2130  0.0534 -0.4379
 3065SOL    HW112258   6.181   1.170   2.237 -0.0240  0.6889 -0.6309
 3065SOL    HW212259   6.039   1.209   2.272 -0.4468 -1.0402 -0.3329
 3065SOL     MW12260   6.115   1.173   2.294  0.0923 -0.0083 -0.4497
 3066SOL     OW12261   7.196   1.011   0.041  0.2739  0.0754  0.3335
 3066SOL    HW112262   7.154   1.095   0.055  1.3352  1.2501 -2.6125
 3066SOL    HW212263   7.183   0.963   0.123 -2.6002  2.0789  1.2056
 3066SOL     MW12264   7.189   1.015   0.054  0.0299  0.5032  0.0544
 3067SOL     OW12265   5.214   9.799   3.906  0.4527 -0.5819  0.3901
 3067SOL    HW112266   5.198   9.799   3.812  0.7171 -0.1649  0.3396
 3067SOL    HW212267   5.225   9.707   3.930 -0.5247 -0.7605  0.1725
 3067SOL     MW12268   5.213   9.787   3.897  0.3567 -0.5498  0.3540
 3068SOL     OW12269   6.565   9.742   2.265 -0.0159  0.0022  0.3740
 3068SOL    HW112270   6.514   9.759   2.345 -0.1199 -0.6939  0.4615
 3068SOL    HW212271   6.600   9.827   2.240 -0.1563  0.2621  1.0481
 3068SOL     MW12272   6.563   9.756   2.273 -0.0488 -0.0565  0.4765
 3069SOL     OW12273   5.459   0.280   1.981  0.1781 -0.6333 -0.1194
 3069SOL    HW112274   5.508   0.230   1.915  0.5580 -0.6486  0.1707
 3069SOL    HW212275   5.504   0.364   1.984 -0.2481 -0.3924 -0.3553
 3069SOL     MW12276   5.472   0.285   1.972  0.1719 -0.6029 -0.1121
 3070SOL     OW12277   7.686   9.494   1.417 -0.2741  0.1579  0.3492
 3070SOL    HW112278   7.730   9.572   1.450 -0.5162  0.2125  0.5432
 3070SOL    HW212279   7.617   9.527   1.360  0.1035  0.0636 -0.1637
 3070SOL     MW12280   7.683   9.509   1.414 -0.2559  0.1525  0.3063
 3071SOL     OW12281   7.956   0.658   7.666  0.1190  0.5465 -0.3785
 3071SOL    HW112282   7.997   0.682   7.749  1.0575 -2.3506  0.1269
 3071SOL    HW212283   7.904   0.580   7.687  2.5494 -2.0183 -2.8636
 3071SOL     MW12284   7.954   0.651   7.680  0.5724 -0.1885 -0.6449
 3072SOL     OW12285   7.276   0.114   3.133 -0.2448 -0.2676  0.2560
 3072SOL    HW112286   7.333   0.142   3.061  0.3147 -1.4711  0.2041
 3072SOL    HW212287   7.193   0.159   3.116  0.5611  1.2177  0.1281
 3072SOL     MW12288   7.272   0.124   3.121 -0.0610 -0.2297  0.2318
 3073SOL     OW12289   6.309   8.239   2.303  0.1171  0.1545  0.0033
 3073SOL    HW112290   6.243   8.305   2.281 -0.1392  0.0842  0.5470
 3073SOL    HW212291   6.358   8.277   2.376  0.7093  0.2209 -0.4173
 3073SOL     MW12292   6.307   8.253   2.310  0.1623  0.1539  0.0199
 3074SOL     OW12293   4.200   8.151   7.137 -0.1763 -0.5342  0.1015
 3074SOL    HW112294   4.118   8.123   7.096  0.2011 -0.1205 -0.9680
 3074SOL    HW212295   4.199   8.246   7.130 -0.0988 -0.4599  1.0658
 3074SOL     MW12296   4.189   8.160   7.130 -0.1150 -0.4685  0.0874
 3075SOL     OW12297   4.596   9.695   8.810 -0.3217  0.3759  0.6610
 3075SOL    HW112298   4.618   9.618   8.862  1.4417 -0.0696 -0.6632
 3075SOL    HW212299   4.616   9.769   8.867  1.7405 -0.0997  0.6358
 3075SOL     MW12300   4.602   9.694   8.825  0.1931  0.2519  0.4794
 3076SOL     OW12301   5.412   0.902   6.938  0.5900 -0.0831  0.3762
 3076SOL    HW112302   5.397   0.867   7.026 -2.2339  2.1962  0.9567
 3076SOL    HW212303   5.444   0.991   6.952  2.1960 -0.3872 -0.9999
 3076SOL     MW12304   5.414   0.909   6.952  0.4261  0.1827  0.2691
 3077SOL     OW12305   6.798   8.551   1.622  0.0686  0.0242  0.5817
 3077SOL    HW112306   6.857   8.478   1.606 -0.7425 -0.2559 -1.3012
 3077SOL    HW212307   6.713   8.511   1.641 -0.7221  0.4191 -1.8323
 3077SOL     MW12308   6.794   8.536   1.622 -0.1470  0.0396  0.0034
 3078SOL     OW12309   6.494   0.570   0.758 -0.2480 -0.2926  0.1788
 3078SOL    HW112310   6.414   0.545   0.804 -0.7705 -0.0711 -0.5768
 3078SOL    HW212311   6.463   0.596   0.671  0.6332 -0.0484 -0.0641
 3078SOL     MW12312   6.479   0.570   0.752 -0.1997 -0.2300  0.0445
 3079SOL     OW12313   4.276   8.966   8.203 -0.5078  0.0345 -0.0141
 3079SOL    HW112314   4.213   8.958   8.132  0.7490 -0.4106 -1.1197
 3079SOL    HW212315   4.351   9.011   8.164  0.3180 -0.4662  0.9574
 3079SOL     MW12316   4.277   8.971   8.188 -0.2275 -0.0927 -0.0322
 3080SOL     OW12317   5.874   1.241   3.881  0.4707 -0.0194 -0.3885
 3080SOL    HW112318   5.846   1.321   3.925  0.4171 -0.0711 -0.3288
 3080SOL    HW212319   5.810   1.175   3.908  0.2354  0.0320 -0.8287
 3080SOL     MW12320   5.862   1.243   3.891  0.4318 -0.0194 -0.4397
 3081SOL     OW12321   4.935   9.258   0.709 -0.3858  0.3400  0.2935
 3081SOL    HW112322   4.910   9.254   0.802  0.5619 -0.0044  0.5434
 3081SOL    HW212323   4.857   9.293   0.665 -1.2898 -0.6334  1.0541
 3081SOL     MW12324   4.921   9.262   0.716 -0.3799  0.1627  0.4295
 3082SOL     OW12325   7.249   9.459   4.089  0.4520  0.7103  0.3897
 3082SOL    HW112326   7.162   9.418   4.089  0.4699  0.6466 -0.7682
 3082SOL    HW212327   7.233   9.549   4.061  0.7660  0.6976  0.1764
 3082SOL     MW12328   7.235   9.466   4.085  0.4967  0.7000  0.2052
 3083SOL     OW12329   4.424   0.854   5.520  0.7664 -0.4630 -0.1796
 3083SOL    HW112330   4.503   0.803   5.504 -0.6052 -2.4194 -1.0824
 3083SOL    HW212331   4.383   0.862   5.434 -0.0422  0.4872  0.2797
 3083SOL     MW12332   4.429   0.848   5.506  0.4730 -0.5984 -0.2393
 3084SOL     OW12333   7.168   8.995   3.111  0.3742  0.5243 -0.5755
 3084SOL    HW112334   7.174   9.010   3.017  0.9067 -1.1017 -0.8221
 3084SOL    HW212335   7.075   8.974   3.127  0.5550 -0.6542 -0.9895
 3084SOL     MW12336   7.156   8.994   3.101  0.4702  0.1469 -0.6644
 3085SOL     OW12337   6.836   0.471   3.449 -0.3501  0.1741  0.3069
 3085SOL    HW112338   6.804   0.560   3.460 -2.2268 -0.3793 -0.3896
 3085SOL    HW212339   6.758   0.418   3.432  0.7153 -1.5998  0.5986
 3085SOL     MW12340   6.821   0.476   3.448 -0.4592 -0.1391  0.2524
 3086SOL     OW12341   6.052   7.407   5.625 -0.1708 -0.3914 -0.7580
 3086SOL    HW112342   6.100   7.400   5.708 -0.4082 -0.3164 -0.6148
 3086SOL    HW212343   6.091   7.483   5.581 -0.4856 -0.0361 -0.4261
 3086SOL     MW12344   6.064   7.416   5.630 -0.2451 -0.3335 -0.6941
 3087SOL     OW12345   6.977   9.630   9.312 -0.2601  0.3990  0.0177
 3087SOL    HW112346   6.912   9.603   9.376 -0.3684 -2.0521 -1.0068
 3087SOL    HW212347   6.933   9.696   9.258 -0.8095  1.0450  1.2351
 3087SOL     MW12348   6.962   9.635   9.313 -0.3486  0.1561  0.0436
 3088SOL     OW12349   4.591   0.308   7.637  0.2460 -0.3389  0.3961
 3088SOL    HW112350   4.574   0.313   7.543 -1.0734  0.2677  0.6524
 3088SOL    HW212351   4.600   0.214   7.654 -1.3981 -0.6096 -0.0445
 3088SOL     MW12352   4.590   0.296   7.626 -0.1529 -0.2937  0.3713
 3089SOL     OW12353   6.861   0.865   6.941 -0.0851 -0.4355 -0.3808
 3089SOL    HW112354   6.948   0.897   6.916  0.8995 -2.7898 -0.2872
 3089SOL    HW212355   6.867   0.852   7.036 -0.6758 -0.2522 -0.3169
 3089SOL     MW12356   6.874   0.867   6.950 -0.0321 -0.7277 -0.3596
 3090SOL     OW12357   7.244   8.403   6.227  0.1355 -0.4946 -0.0243
 3090SOL    HW112358   7.184   8.416   6.153  0.9727  0.2555 -0.5956
 3090SOL    HW212359   7.319   8.460   6.208  1.5184 -2.1584  0.1283
 3090SOL     MW12360   7.246   8.412   6.214  0.4342 -0.6175 -0.0806
 3091SOL     OW12361   4.249  10.108   7.116 -0.1030 -0.3868  0.7685
 3091SOL    HW112362   4.298  10.170   7.062  0.0199  0.1126  1.4453
 3091SOL    HW212363   4.270  10.022   7.079 -0.0039 -0.0511  0.0396
 3091SOL     MW12364   4.259  10.105   7.104 -0.0731 -0.2744  0.7615
 3092SOL     OW12365   7.088   8.314   6.434 -0.6761 -0.3604  0.2725
 3092SOL    HW112366   7.150   8.359   6.378 -1.0496 -0.8558 -0.5579
 3092SOL    HW212367   7.046   8.249   6.377 -1.2468 -0.7033  1.0560
 3092SOL     MW12368   7.091   8.311   6.419 -0.8032 -0.4732  0.2662
 3093SOL     OW12369   7.167   9.564   5.304  0.0361  0.4847  0.0395
 3093SOL    HW112370   7.098   9.582   5.368 -1.2342  0.2680 -1.2369
 3093SOL    HW212371   7.128   9.583   5.219  1.1979 -0.6687 -0.8036
 3093SOL     MW12372   7.153   9.569   5.301  0.0215  0.3003 -0.2457
 3094SOL     OW12373   6.749   1.199   0.207 -0.3374 -0.0919  0.5816
 3094SOL    HW112374   6.773   1.179   0.117 -0.3009  0.6887  0.4120
 3094SOL    HW212375   6.731   1.114   0.246 -1.2042 -0.3953 -0.4081
 3094SOL     MW12376   6.750   1.185   0.200 -0.4491 -0.0277  0.4256
 3095SOL     OW12377   5.683   0.149   0.715 -0.0205 -0.3501  0.3427
 3095SOL    HW112378   5.658   0.160   0.623  0.9686 -0.6711  0.0177
 3095SOL    HW212379   5.613   0.095   0.752 -0.5687  0.0085 -0.1475
 3095SOL     MW12380   5.671   0.143   0.708  0.0389 -0.3451  0.2330
 3096SOL     OW12381   5.393   7.942   9.397  0.2268  0.0920  0.0272
 3096SOL    HW112382   5.408   7.952   9.303  0.9604  0.5923  0.1889
 3096SOL    HW212383   5.480   7.930   9.434 -0.0273  0.2306  0.6848
 3096SOL     MW12384   5.407   7.942   9.389  0.2913  0.1780  0.1374
 3097SOL     OW12385   5.324   7.594   1.738 -0.4246 -0.5099 -0.3840
 3097SOL    HW112386   5.306   7.574   1.830 -0.9003 -0.0378 -0.3719
 3097SOL    HW212387   5.242   7.630   1.704 -0.4152 -1.1655 -1.1387
 3097SOL     MW12388   5.311   7.596   1.746 -0.4874 -0.5346 -0.4840
 3098SOL     OW12389   6.204   8.459   3.060 -0.2799 -0.1112  0.6328
 3098SOL    HW112390   6.271   8.410   3.014 -1.1955 -1.6422  0.8564
 3098SOL    HW212391   6.220   8.440   3.153 -1.1801 -0.7569  0.6746
 3098SOL     MW12392   6.215   8.450   3.067 -0.5242 -0.4042  0.6685
 3099SOL     OW12393   4.711   9.793   4.842 -0.1596  0.1941  0.6317
 3099SOL    HW112394   4.763   9.870   4.818 -0.5467 -0.3046 -2.0359
 3099SOL    HW212395   4.752   9.720   4.797 -0.2506 -1.0958  2.5313
 3099SOL     MW12396   4.723   9.794   4.833 -0.2239 -0.0466  0.5283
 3100SOL     OW12397   6.600   9.224   0.041  0.5946  0.5084  0.0542
 3100SOL    HW112398   6.569   9.299  -0.010 -2.5650 -1.0972 -0.6223
 3100SOL    HW212399   6.641   9.166  -0.024  0.4340  0.3698  0.0763
 3100SOL     MW12400   6.601   9.226   0.025  0.1478  0.2737 -0.0339
 3101SOL     OW12401   7.148   1.360   0.408 -0.6320  0.0911 -0.0550
 3101SOL    HW112402   7.183   1.442   0.373  0.9843 -0.7873 -0.6378
 3101SOL    HW212403   7.090   1.386   0.479 -1.2380  1.7768 -1.1113
 3101SOL     MW12404   7.145   1.374   0.413 -0.4960  0.1997 -0.2756
 3102SOL     OW12405   4.573   8.424   3.540  0.2153 -0.3234  0.3165
 3102SOL    HW112406   4.636   8.471   3.594 -0.6038 -1.8268  2.7709
 3102SOL    HW212407   4.520   8.374   3.603 -1.6061 -1.2870 -1.8257
 3102SOL     MW12408   4.574   8.423   3.556 -0.1401 -0.6554  0.3585
 3103SOL     OW12409   7.477   9.995   2.934  0.2169 -0.4333 -0.1337
 3103SOL    HW112410   7.449   9.976   3.023  1.0861  0.5271  0.3639
 3103SOL    HW212411   7.434   9.928   2.881 -0.9686 -0.5296  0.8894
 3103SOL     MW12412   7.467   9.983   2.939  0.1743 -0.3170  0.0709
 3104SOL     OW12413   6.712   0.613   9.476 -0.1767  0.2713  0.2085
 3104SOL    HW112414   6.755   0.630   9.392  0.1738 -0.0890  0.3100
 3104SOL    HW212415   6.623   0.645   9.464 -0.4002 -0.5858 -0.6236
 3104SOL     MW12416   6.706   0.619   9.463 -0.1596  0.1075  0.1102
 3105SOL     OW12417   7.682   8.618   2.180  0.2487 -0.1678 -0.1502
 3105SOL    HW112418   7.626   8.549   2.215 -0.6216  0.0688 -1.0497
 3105SOL    HW212419   7.687   8.599   2.086 -0.2768  1.1790 -0.4622
 3105SOL     MW12420   7.675   8.606   2.172  0.0608  0.0453 -0.3133
 3106SOL     OW12421   6.259  10.066   3.883  0.2419 -0.2782  0.2348
 3106SOL    HW112422   6.186  10.102   3.934  0.0662  0.5266 -0.5627
 3106SOL    HW212423   6.315  10.023   3.948 -0.8218 -0.7184  0.8939
 3106SOL     MW12424   6.257  10.065   3.899  0.0751 -0.2291  0.2162
 3107SOL     OW12425   6.373   0.534   6.297 -0.1269 -0.7490  0.4939
 3107SOL    HW112426   6.302   0.510   6.357 -0.2266 -0.8824  0.3225
 3107SOL    HW212427   6.370   0.467   6.229  0.0889 -0.6874  0.4243
 3107SOL     MW12428   6.363   0.521   6.296 -0.1113 -0.7587  0.4615
 3108SOL     OW12429   6.024   1.984   7.934  0.2513 -0.3641  0.0816
 3108SOL    HW112430   5.995   2.073   7.954  1.9011  0.6298 -1.5922
 3108SOL    HW212431   5.963   1.928   7.982 -1.1407  1.6353  0.8186
 3108SOL     MW12432   6.012   1.988   7.943  0.2860  0.0387 -0.0445
 3109SOL     OW12433   7.102   0.148   0.762  0.3858 -0.5869 -0.0283
 3109SOL    HW112434   7.106   0.100   0.845  2.5618 -1.5483 -0.6157
 3109SOL    HW212435   7.123   0.238   0.786  0.0296 -0.6559  0.5818
 3109SOL     MW12436   7.105   0.153   0.776  0.6307 -0.7256 -0.0253
 3110SOL     OW12437   5.039   8.132   6.606  0.0593 -0.7774 -0.3377
 3110SOL    HW112438   5.016   8.047   6.645 -0.6162 -0.4456  0.0023
 3110SOL    HW212439   5.095   8.174   6.672  1.1758 -1.3302 -0.9019
 3110SOL     MW12440   5.043   8.126   6.620  0.1186 -0.8071 -0.3679
 3111SOL     OW12441   5.478   0.085   3.602 -0.2879  0.2927  0.0114
 3111SOL    HW112442   5.501   0.092   3.509  1.1475  1.1717  0.3934
 3111SOL    HW212443   5.560   0.062   3.645 -0.2541  2.6223  1.3567
 3111SOL     MW12444   5.492   0.083   3.595 -0.0902  0.7245  0.2439
 3112SOL     OW12445   5.499   0.881   3.870  0.6606  0.1447  0.5408
 3112SOL    HW112446   5.432   0.864   3.937 -0.8991 -2.0075 -1.4144
 3112SOL    HW212447   5.503   0.800   3.820  0.7980  2.0723 -2.8250
 3112SOL     MW12448   5.491   0.868   3.873  0.4692  0.1145 -0.1753
 3113SOL     OW12449   3.852   0.307   6.714  0.1562  0.4530 -0.1790
 3113SOL    HW112450   3.898   0.230   6.746 -2.1848 -0.3585  1.5474
 3113SOL    HW212451   3.873   0.376   6.777  0.4367  0.6106 -0.4391
 3113SOL     MW12452   3.861   0.306   6.727 -0.1211  0.3650  0.0183
 3114SOL     OW12453   4.650   0.077   3.369 -0.0410  0.2279  0.1990
 3114SOL    HW112454   4.579   0.125   3.327 -0.8976 -1.4974 -0.3999
 3114SOL    HW212455   4.609   0.031   3.442  0.4380 -0.7757 -0.1413
 3114SOL     MW12456   4.635   0.077   3.373 -0.0918 -0.1393  0.0726
 3115SOL     OW12457   5.408   0.568   1.551  0.5263 -0.2208 -0.1190
 3115SOL    HW112458   5.406   0.632   1.622 -0.2342  0.6339 -0.8801
 3115SOL    HW212459   5.349   0.499   1.578  0.2196  0.1128  0.0664
 3115SOL     MW12460   5.400   0.568   1.564  0.3827 -0.0609 -0.1964
 3116SOL     OW12461   6.736   1.717   9.853 -0.3002  0.0132  0.1058
 3116SOL    HW112462   6.783   1.645   9.810 -0.1304  0.3081 -0.2133
 3116SOL    HW212463   6.802   1.786   9.860 -0.0028 -0.3986  1.8407
 3116SOL     MW12464   6.751   1.716   9.848 -0.2373 -0.0025  0.2964
 3117SOL     OW12465   6.191   0.280   0.939 -0.5199 -0.2327  0.2060
 3117SOL    HW112466   6.102   0.252   0.957 -0.1657 -1.1562  0.5473
 3117SOL    HW212467   6.227   0.211   0.883 -0.3172  0.6072 -0.7462
 3117SOL     MW12468   6.184   0.267   0.934 -0.4450 -0.2440  0.1238
 3118SOL     OW12469   4.748   9.487   9.438  0.2195 -0.0332 -0.2743
 3118SOL    HW112470   4.686   9.420   9.409  0.7613 -0.9902  0.7194
 3118SOL    HW212471   4.825   9.438   9.465  0.3860  0.9472  1.1141
 3118SOL     MW12472   4.750   9.471   9.437  0.3148 -0.0301  0.0463
 3119SOL     OW12473   7.045   1.346   5.915 -0.0002  0.1604  0.3622
 3119SOL    HW112474   6.997   1.344   5.832 -1.9478 -1.4782  1.4112
 3119SOL    HW212475   7.072   1.255   5.929  1.9850  0.7523  0.6566
 3119SOL     MW12476   7.042   1.333   5.906  0.0049  0.0195  0.5430
 3120SOL     OW12477   5.967   9.428   4.602 -0.1891 -0.1025  0.3482
 3120SOL    HW112478   6.030   9.483   4.556 -1.7063  0.4155 -1.2160
 3120SOL    HW212479   5.951   9.473   4.684  1.6571 -0.3942  0.9097
 3120SOL     MW12480   5.974   9.441   4.607 -0.1448 -0.0720  0.2133
 3121SOL     OW12481   6.316   1.889   7.184  0.7136  0.5890  0.3032
 3121SOL    HW112482   6.352   1.949   7.117  1.2651  1.3895  1.2845
 3121SOL    HW212483   6.222   1.907   7.184  0.9034  1.7102  0.7901
 3121SOL     MW12484   6.309   1.900   7.175  0.8134  0.8476  0.5008
 3122SOL     OW12485   6.254   9.940   2.020  0.5723  0.3140  0.6902
 3122SOL    HW112486   6.254   9.987   2.103  3.6372  1.6500  0.0422
 3122SOL    HW212487   6.318   9.870   2.032  0.0662 -0.3142 -0.1407
 3122SOL     MW12488   6.262   9.937   2.033  0.9167  0.4092  0.4912
 3123SOL     OW12489   4.091   8.500   3.950  0.6524 -0.2794  0.1847
 3123SOL    HW112490   4.120   8.436   3.885  1.3237  0.2455 -0.0495
 3123SOL    HW212491   4.126   8.584   3.918 -3.4201  0.9864 -1.6779
 3123SOL     MW12492   4.100   8.503   3.937  0.1947 -0.0384 -0.0975
 3124SOL     OW12493   5.251   8.192   9.655  0.1734 -0.7180  0.5507
 3124SOL    HW112494   5.250   8.098   9.641 -0.6653 -1.0927  2.7007
 3124SOL    HW212495   5.335   8.221   9.619 -1.2611 -1.4880 -4.2023
 3124SOL     MW12496   5.262   8.183   9.648 -0.1325 -0.8721  0.2004
 3125SOL     OW12497   5.302   1.325   8.433 -0.2753 -0.2376 -0.2327
 3125SOL    HW112498   5.219   1.290   8.465 -0.8442  0.4004 -0.9638
 3125SOL    HW212499   5.369   1.283   8.487 -1.1502  0.2710  1.2824
 3125SOL     MW12500   5.300   1.315   8.444 -0.4696 -0.0833 -0.1272
 3126SOL     OW12501   6.979   8.673   9.923  0.0181  0.6838 -0.7081
 3126SOL    HW112502   7.026   8.746   9.965  0.2692  1.2166 -1.8826
 3126SOL    HW212503   7.016   8.668   9.835 -0.2014 -0.6942 -0.7407
 3126SOL     MW12504   6.991   8.682   9.917  0.0224  0.5701 -0.8706
 3127SOL     OW12505   6.676   7.539   7.875 -0.0661 -0.4112 -0.6166
 3127SOL    HW112506   6.755   7.490   7.851  1.2438  1.5499 -0.5382
 3127SOL    HW212507   6.620   7.533   7.797  0.9306 -0.3449 -1.3614
 3127SOL     MW12508   6.679   7.531   7.861  0.2443 -0.1384 -0.7062
 3128SOL     OW12509   6.137   0.359   9.806  0.0994  0.1082  0.2809
 3128SOL    HW112510   6.076   0.424   9.770  0.0232  1.1805  2.2038
 3128SOL    HW212511   6.129   0.369   9.901  2.7622 -0.1788  0.6126
 3128SOL     MW12512   6.128   0.369   9.814  0.4475  0.2139  0.5843
 3129SOL     OW12513   4.117   0.829   4.389 -0.5455 -0.1653 -0.1465
 3129SOL    HW112514   4.118   0.737   4.363 -1.3861 -0.4735  0.8661
 3129SOL    HW212515   4.151   0.876   4.312  1.1450 -1.4109 -0.2077
 3129SOL     MW12516   4.122   0.823   4.375 -0.4311 -0.3744 -0.0185
 3130SOL     OW12517   4.570   0.788   2.116 -0.6328  0.6685  0.1561
 3130SOL    HW112518   4.558   0.843   2.039  0.0192  1.3050  0.4990
 3130SOL    HW212519   4.657   0.750   2.105 -0.4795  0.8691  0.6336
 3130SOL     MW12520   4.580   0.790   2.104 -0.5244  0.7812  0.2665
 3131SOL     OW12521   5.106   0.695   0.157 -0.2277  0.3464 -0.7597
 3131SOL    HW112522   5.170   0.673   0.090  0.7689  0.6593  0.0685
 3131SOL    HW212523   5.136   0.778   0.193 -0.6051  0.0679  0.2363
 3131SOL     MW12524   5.119   0.703   0.153 -0.1444  0.3510 -0.5142
 3132SOL     OW12525   5.542   0.268   2.584  0.0302 -0.3436  0.2295
 3132SOL    HW112526   5.473   0.315   2.630 -0.3923 -0.4638 -0.2660
 3132SOL    HW212527   5.607   0.248   2.651 -0.1661  0.2338  0.6005
 3132SOL     MW12528   5.541   0.272   2.599 -0.0531 -0.2821  0.2128
 3133SOL     OW12529   6.602   1.013   7.342  0.4060  0.1021  0.1484
 3133SOL    HW112530   6.614   0.946   7.275  3.0669  0.0664  0.5355
 3133SOL    HW212531   6.524   0.986   7.390  0.7217 -2.0886 -0.4492
 3133SOL     MW12532   6.593   1.000   7.339  0.8066 -0.1975  0.1201
 3134SOL     OW12533   5.196   8.621   6.875 -0.0264  0.9172 -0.1929
 3134SOL    HW112534   5.132   8.550   6.882  0.6493  0.1023 -1.7592
 3134SOL    HW212535   5.275   8.586   6.915  0.3594  0.7158 -1.1223
 3134SOL     MW12536   5.198   8.607   6.881  0.1165  0.7805 -0.5288
 3135SOL     OW12537   4.843   0.053   7.159 -0.1596  0.0222 -0.0919
 3135SOL    HW112538   4.933   0.084   7.170 -1.1124  2.6738  1.0632
 3135SOL    HW212539   4.816   0.088   7.074 -1.0579  2.1243  0.9741
 3135SOL     MW12540   4.852   0.062   7.150 -0.4087  0.6620  0.2070
 3136SOL     OW12541   4.224   9.675   4.311  0.4713 -0.2308 -0.0694
 3136SOL    HW112542   4.183   9.666   4.224 -0.9830 -0.2433  0.5859
 3136SOL    HW212543   4.265   9.761   4.309  1.3117 -0.6352 -1.1039
 3136SOL     MW12544   4.224   9.685   4.299  0.3886 -0.2869 -0.1204
 3137SOL     OW12545   5.798   9.079   0.676 -0.3934 -0.2531  0.3994
 3137SOL    HW112546   5.894   9.074   0.671 -0.3673  0.4770 -0.0013
 3137SOL    HW212547   5.774   9.136   0.603 -1.2724 -1.8575 -0.6436
 3137SOL     MW12548   5.808   9.086   0.665 -0.5082 -0.3708  0.2051
 3138SOL     OW12549   5.922   9.300   6.042  0.4723 -0.2905 -0.2350
 3138SOL    HW112550   5.969   9.275   5.963  0.0354 -0.7454 -0.3583
 3138SOL    HW212551   5.916   9.219   6.094  0.8685  0.0300  0.3278
 3138SOL     MW12552   5.927   9.286   6.039  0.4668 -0.3086 -0.1759
 3139SOL     OW12553   6.045   9.191   2.503  0.0320 -0.1875  0.5138
 3139SOL    HW112554   6.069   9.198   2.411  0.9681  0.4007  0.7853
 3139SOL    HW212555   6.044   9.282   2.534  0.9440 -0.4651  1.3764
 3139SOL     MW12556   6.048   9.204   2.495  0.2808 -0.1457  0.6664
 3140SOL     OW12557   4.849   9.780  10.069  0.3524 -0.4366 -0.2427
 3140SOL    HW112558   4.862   9.849  10.004 -0.0538 -0.6769 -0.5829
 3140SOL    HW212559   4.923   9.720  10.056  1.1352  0.3208  0.5691
 3140SOL     MW12560   4.861   9.781  10.059  0.4031 -0.3670 -0.1793
 3141SOL     OW12561   6.206   8.976   7.518  0.2519  0.6466  0.5145
 3141SOL    HW112562   6.178   8.997   7.608  4.0851  0.8008  1.8598
 3141SOL    HW212563   6.234   8.885   7.523 -0.2112  0.4102 -0.7966
 3141SOL     MW12564   6.206   8.967   7.531  0.7054  0.6356  0.5191
 3142SOL     OW12565   5.249   8.456   1.073 -0.2822 -0.5003  0.0277
 3142SOL    HW112566   5.196   8.381   1.045 -0.4634 -1.5861  2.9365
 3142SOL    HW212567   5.337   8.420   1.081  0.0458  0.1640 -0.5259
 3142SOL     MW12568   5.253   8.441   1.070 -0.2624 -0.5570  0.3447
 3143SOL     OW12569   6.408   8.968   3.542 -0.3247  0.0268 -0.4888
 3143SOL    HW112570   6.458   8.919   3.608  0.5552 -0.4755 -1.4968
 3143SOL    HW212571   6.430   8.925   3.459  0.5341  2.1546 -1.4228
 3143SOL     MW12572   6.418   8.955   3.540 -0.0907  0.2455 -0.7501
 3144SOL     OW12573   6.411   8.354   6.621 -0.5480  0.4013 -0.1924
 3144SOL    HW112574   6.414   8.437   6.574  0.1085  1.3640  1.4472
 3144SOL    HW212575   6.435   8.377   6.711 -1.2527 -1.4265  0.5103
 3144SOL     MW12576   6.414   8.368   6.627 -0.5545  0.2849  0.1228
 3145SOL     OW12577   8.131   0.260   4.559  0.3093 -0.4624 -0.3357
 3145SOL    HW112578   8.040   0.289   4.550 -0.5832 -2.7589  0.4562
 3145SOL    HW212579   8.164   0.308   4.634 -0.0686  0.7680 -0.9308
 3145SOL     MW12580   8.123   0.270   4.568  0.1384 -0.6059 -0.3092
 3146SOL     OW12581   4.225   0.142   5.238 -0.2312 -0.1127  0.6102
 3146SOL    HW112582   4.306   0.121   5.285  1.0840  1.6678 -0.6979
 3146SOL    HW212583   4.220   0.077   5.168 -0.0051 -0.3386  0.8024
 3146SOL     MW12584   4.235   0.131   5.235 -0.0238  0.0965  0.4600
 3147SOL     OW12585   5.389   7.670   0.342 -0.2002  0.6569  0.0085
 3147SOL    HW112586   5.457   7.668   0.410 -0.0253  1.8379 -0.1173
 3147SOL    HW212587   5.438   7.684   0.260 -0.4312 -0.5013 -0.3504
 3147SOL     MW12588   5.405   7.672   0.340 -0.2077  0.6600 -0.0567
 3148SOL     OW12589   4.938   0.665   5.467  0.0481  0.4278 -0.0032
 3148SOL    HW112590   4.988   0.746   5.459  2.4666 -0.9370  0.4117
 3148SOL    HW212591   4.951   0.621   5.383 -1.1762  0.4025 -0.1941
 3148SOL     MW12592   4.947   0.670   5.455  0.2088  0.2407  0.0269
 3149SOL     OW12593   4.847   0.994   1.962 -0.0158 -0.3578  0.2006
 3149SOL    HW112594   4.819   1.081   1.990  3.7354  0.4433  2.0674
 3149SOL    HW212595   4.887   1.008   1.876 -0.2934 -0.4341  0.0581
 3149SOL     MW12596   4.848   1.008   1.954  0.4517 -0.2603  0.4327
 3150SOL     OW12597   6.416   9.941   1.163  0.3556  0.0920  0.3103
 3150SOL    HW112598   6.344   9.949   1.101  1.4842  2.6139 -0.8241
 3150SOL    HW212599   6.377   9.961   1.248 -0.8107 -1.4847  0.1901
 3150SOL     MW12600   6.401   9.945   1.166  0.3505  0.2192  0.1415
 3151SOL     OW12601   5.789   0.634   8.278  0.1874 -0.6511 -0.3592
 3151SOL    HW112602   5.867   0.630   8.334  0.1011 -1.1432 -0.2724
 3151SOL    HW212603   5.775   0.728   8.263 -0.0975 -0.4716  0.8871
 3151SOL     MW12604   5.797   0.646   8.284  0.1374 -0.6931 -0.1798
 3152SOL     OW12605   3.957   9.140   1.352  0.3253  0.2127  0.1413
 3152SOL    HW112606   3.997   9.053   1.356  0.5983  0.3477  0.5379
 3152SOL    HW212607   4.023   9.197   1.391 -0.0800  0.5080  0.4006
 3152SOL     MW12608   3.971   9.136   1.358  0.3075  0.2706  0.2295
 3153SOL     OW12609   5.447   9.245   8.155  0.6555  0.1765 -0.1021
 3153SOL    HW112610   5.382   9.192   8.200  1.4879 -0.5339  0.2987
 3153SOL    HW212611   5.399   9.289   8.085  0.0113 -1.4260 -0.7140
 3153SOL     MW12612   5.432   9.244   8.152  0.6808 -0.1348 -0.1305
 3154SOL     OW12613   4.470   8.987   0.081  0.1487 -0.0546  0.4677
 3154SOL    HW112614   4.422   8.971   0.162  1.9673  0.0360  1.5896
 3154SOL    HW212615   4.426   8.931   0.017 -0.3862 -1.2791  1.8464
 3154SOL     MW12616   4.457   8.977   0.083  0.3214 -0.2072  0.8042
 3155SOL     OW12617   7.896   0.045   5.227 -0.3623 -0.1337  0.2668
 3155SOL    HW112618   7.837   0.082   5.293 -0.4280 -0.2245  0.2611
 3155SOL    HW212619   7.837   0.007   5.162 -0.3076 -0.9122  0.6481
 3155SOL     MW12620   7.880   0.045   5.227 -0.3638 -0.2507  0.3173
 3156SOL     OW12621   6.926   1.346   8.110  0.2953  0.1183  0.2159
 3156SOL    HW112622   7.004   1.382   8.068  0.7563  0.2530  1.1548
 3156SOL    HW212623   6.960   1.276   8.166 -0.4457 -0.8934 -0.5695
 3156SOL     MW12624   6.941   1.341   8.112  0.2576  0.0003  0.2366
 3157SOL     OW12625   5.547   1.179   1.193 -0.6029 -0.0966  0.0988
 3157SOL    HW112626   5.492   1.256   1.182 -0.0415  0.3215  0.1817
 3157SOL    HW212627   5.627   1.212   1.234 -1.3550 -1.0986  2.5523
 3157SOL     MW12628   5.550   1.194   1.197 -0.6286 -0.1751  0.4402
 3158SOL     OW12629   8.148   9.145   8.651 -0.0451 -0.0487  0.1758
 3158SOL    HW112630   8.076   9.179   8.705 -0.2943 -0.2318 -0.0411
 3158SOL    HW212631   8.205   9.099   8.713 -0.4176 -0.3999  0.2563
 3158SOL     MW12632   8.146   9.143   8.667 -0.1287 -0.1206  0.1574
 3159SOL     OW12633   6.230  10.025   8.436 -0.2779 -0.2813  0.3233
 3159SOL    HW112634   6.262  10.096   8.493  1.0859 -0.1509 -0.5558
 3159SOL    HW212635   6.137  10.018   8.457 -0.2243  1.0797  1.1666
 3159SOL     MW12636   6.222  10.034   8.447 -0.0871 -0.0806  0.3185
 3160SOL     OW12637   6.516   1.559   4.193  0.4990 -0.3542  0.1032
 3160SOL    HW112638   6.513   1.602   4.278 -2.7626  1.8861 -0.9621
 3160SOL    HW212639   6.500   1.467   4.213 -0.3753  0.1356  1.9472
 3160SOL     MW12640   6.513   1.552   4.207 -0.0576  0.0132  0.2080
 3161SOL     OW12641   4.843   0.796   0.345 -0.2142  0.2819  0.5486
 3161SOL    HW112642   4.787   0.718   0.341 -0.4684  0.4571  0.6836
 3161SOL    HW212643   4.787   0.864   0.381  0.4772  0.1220  1.9902
 3161SOL     MW12644   4.828   0.795   0.349 -0.1553  0.2840  0.7608
 3162SOL     OW12645   6.570   9.508   9.437 -0.2648  0.2214 -0.0425
 3162SOL    HW112646   6.568   9.477   9.346  3.4458 -1.5495  0.2959
 3162SOL    HW212647   6.567   9.603   9.429 -0.4286  0.1100 -1.9793
 3162SOL     MW12648   6.569   9.516   9.423  0.2125 -0.0319 -0.2576
 3163SOL     OW12649   7.673   9.312   8.766  0.1021 -0.4269  0.1375
 3163SOL    HW112650   7.749   9.370   8.769 -0.7834  0.8753 -1.3295
 3163SOL    HW212651   7.639   9.322   8.677 -1.0441 -1.9608  0.3724
 3163SOL     MW12652   7.678   9.321   8.755 -0.1713 -0.4581 -0.0283
 3164SOL     OW12653   4.575   8.822   1.821 -0.3618  0.2642 -0.2252
 3164SOL    HW112654   4.638   8.768   1.869  0.7788  1.5322 -0.2293
 3164SOL    HW212655   4.568   8.902   1.874  1.0512  1.7753 -2.1619
 3164SOL     MW12656   4.583   8.825   1.835 -0.0182  0.6382 -0.4864
 3165SOL     OW12657   6.439   9.371   7.198  0.2879  0.0376  0.0719
 3165SOL    HW112658   6.389   9.429   7.140  2.1531  1.4871 -0.1775
 3165SOL    HW212659   6.474   9.303   7.140 -0.0232 -0.0228 -0.0429
 3165SOL     MW12660   6.437   9.369   7.182  0.4970  0.2245  0.0228
 3166SOL     OW12661   5.462   9.720   1.013  0.0408 -0.4822  1.1408
 3166SOL    HW112662   5.434   9.771   1.089  0.0389 -0.2751  1.0022
 3166SOL    HW212663   5.557   9.711   1.024  0.0682 -0.2827  1.0632
 3166SOL     MW12664   5.471   9.726   1.025  0.0443 -0.4275  1.1117
 3167SOL     OW12665   4.570   9.357   6.645  0.4625  0.0451 -0.2314
 3167SOL    HW112666   4.600   9.266   6.654 -2.4326 -1.0724 -0.6769
 3167SOL    HW212667   4.563   9.389   6.735 -0.3441 -0.8985  0.0672
 3167SOL     MW12668   4.573   9.349   6.658 -0.0357 -0.2323 -0.2512
 3168SOL     OW12669   7.206   8.790   4.819 -0.1211 -0.0316 -0.2730
 3168SOL    HW112670   7.264   8.864   4.837  0.2713 -0.1941 -0.8377
 3168SOL    HW212671   7.121   8.829   4.801  0.2455  0.3417 -1.2745
 3168SOL     MW12672   7.203   8.805   4.819 -0.0190 -0.0032 -0.4838
 3169SOL     OW12673   4.672   8.622   2.371 -0.4932 -0.2662  0.1797
 3169SOL    HW112674   4.608   8.679   2.414 -1.8222 -2.3761  1.1471
 3169SOL    HW212675   4.712   8.572   2.442  2.4964  1.1186 -0.3642
 3169SOL     MW12676   4.669   8.623   2.386 -0.2697 -0.3638  0.2367
 3170SOL     OW12677   7.578   0.623   6.623  0.4722 -0.5793 -0.2055
 3170SOL    HW112678   7.569   0.690   6.556  0.6823 -1.8088 -1.5153
 3170SOL    HW212679   7.525   0.654   6.696 -0.0107  0.6463 -1.0519
 3170SOL     MW12680   7.570   0.636   6.624  0.4355 -0.5798 -0.4957
 3171SOL     OW12681   6.945   7.702   4.186 -0.7333  0.3202  0.1012
 3171SOL    HW112682   6.862   7.745   4.164 -1.1287  0.2763  1.4149
 3171SOL    HW212683   7.004   7.774   4.209 -1.2721  0.2213  1.9014
 3171SOL     MW12684   6.941   7.718   4.186 -0.8590  0.3010  0.5202
 3172SOL     OW12685   6.244   1.193   3.197  0.3397  0.0592 -0.3542
 3172SOL    HW112686   6.335   1.165   3.205  0.1653  0.0015  2.5096
 3172SOL    HW212687   6.203   1.166   3.279 -2.2176  0.3238 -1.4490
 3172SOL     MW12688   6.251   1.186   3.209 -0.0279  0.0870 -0.1161
 3173SOL     OW12689   5.101   1.639   9.722  0.2378 -0.4523 -0.4774
 3173SOL    HW112690   5.099   1.734   9.707 -0.3244 -0.1061  1.4745
 3173SOL    HW212691   5.011   1.611   9.711 -0.1771 -0.1991  1.8717
 3173SOL     MW12692   5.089   1.648   9.719  0.1063 -0.3716  0.1015
 3174SOL     OW12693   5.734   9.718   1.002  0.6203 -0.6783  0.4315
 3174SOL    HW112694   5.799   9.699   1.069  0.5576 -0.0622  0.6824
 3174SOL    HW212695   5.758   9.664   0.927  1.3799 -0.5007  0.5453
 3174SOL     MW12696   5.746   9.708   1.001  0.7141 -0.5715  0.4806
 3175SOL     OW12697   5.007   9.639   0.646  0.2579  0.1824  0.1628
 3175SOL    HW112698   4.935   9.679   0.598  0.4617 -0.2263 -0.4932
 3175SOL    HW212699   5.050   9.713   0.690  0.8262  0.7627 -1.2910
 3175SOL     MW12700   5.003   9.654   0.645  0.3618  0.2055 -0.1211
 3176SOL     OW12701   4.279   9.066   9.597  0.0487 -0.2916 -0.1219
 3176SOL    HW112702   4.284   9.081   9.692 -0.9405  0.9010 -0.2459
 3176SOL    HW212703   4.208   9.122   9.567  0.6767 -0.2790 -1.6610
 3176SOL     MW12704   4.270   9.075   9.606  0.0001 -0.1294 -0.3457
 3177SOL     OW12705   5.157   9.456   9.838  0.5514 -0.3374  0.3056
 3177SOL    HW112706   5.164   9.391   9.767  0.9720  0.0562 -0.0144
 3177SOL    HW212707   5.123   9.534   9.795 -0.7283 -0.5764  0.8423
 3177SOL     MW12708   5.153   9.458   9.823  0.4358 -0.3166  0.3348
 3178SOL     OW12709   6.696   9.616   0.397 -0.6666  1.1651  0.3086
 3178SOL    HW112710   6.638   9.549   0.434  1.5495 -0.5968  0.8442
 3178SOL    HW212711   6.734   9.575   0.320  0.4739  1.9365  0.4343
 3178SOL     MW12712   6.693   9.601   0.392 -0.2149  1.0318  0.3976
 3179SOL     OW12713   4.953   7.622   5.218  0.1188  0.3258  0.8191
 3179SOL    HW112714   4.935   7.697   5.162 -1.3543  0.4336  1.3949
 3179SOL    HW212715   5.047   7.606   5.207  0.3015  1.7354  0.0629
 3179SOL     MW12716   4.964   7.630   5.209 -0.0549  0.5300  0.7948
 3180SOL     OW12717   7.175   9.499   8.353  0.0811  0.0643  0.2115
 3180SOL    HW112718   7.132   9.541   8.428  0.3328  0.1543  0.3087
 3180SOL    HW212719   7.159   9.558   8.280  1.9875  1.3132  0.7167
 3180SOL     MW12720   7.167   9.512   8.354  0.3715  0.2445  0.2926
 3181SOL     OW12721   7.763   0.509   8.584 -0.0035 -0.2406  0.2247
 3181SOL    HW112722   7.815   0.457   8.645 -0.2805  1.4018  1.9704
 3181SOL    HW212723   7.738   0.587   8.635  2.3500  2.8187 -2.8751
 3181SOL     MW12724   7.767   0.513   8.599  0.2759  0.3921  0.0425
 3182SOL     OW12725   4.521   8.743   3.279  0.3995  0.5248 -0.0552
 3182SOL    HW112726   4.493   8.822   3.324  1.3863  0.4342  0.7499
 3182SOL    HW212727   4.473   8.672   3.323  0.4362  0.5533  0.0300
 3182SOL     MW12728   4.511   8.744   3.291  0.5372  0.5164  0.0646
 3183SOL     OW12729   4.544   7.844   7.039  0.1530  0.8825  0.6366
 3183SOL    HW112730   4.491   7.876   7.113 -0.7565  0.8977  0.0005
 3183SOL    HW212731   4.482   7.839   6.966  0.7817 -0.2033  0.1540
 3183SOL     MW12732   4.528   7.848   7.039  0.1152  0.7384  0.4860
 3184SOL     OW12733   4.414   8.683   9.585 -0.0321 -0.9538  0.3403
 3184SOL    HW112734   4.375   8.672   9.671 -0.3950 -0.3543  0.2557
 3184SOL    HW212735   4.385   8.606   9.535 -1.7795 -0.1300  0.0348
 3184SOL     MW12736   4.405   8.671   9.590 -0.3161 -0.7622  0.2878
 3185SOL     OW12737   7.267   8.719  -0.002 -0.2543 -0.3427 -0.1723
 3185SOL    HW112738   7.291   8.626   0.007 -0.4074 -0.3580  0.0595
 3185SOL    HW212739   7.327   8.765   0.056  0.0210 -0.2672 -0.5129
 3185SOL     MW12740   7.279   8.713   0.007 -0.2378 -0.3346 -0.1869
 3186SOL     OW12741   6.514   0.340   6.671 -0.4284  0.1077 -0.1581
 3186SOL    HW112742   6.426   0.361   6.701 -0.3227  1.4186 -0.7077
 3186SOL    HW212743   6.501   0.280   6.598 -0.9977  1.6931 -1.4337
 3186SOL     MW12744   6.500   0.335   6.666 -0.4908  0.4975 -0.4037
 3187SOL     OW12745   7.164   0.783   8.203 -0.2834 -0.0098 -0.2593
 3187SOL    HW112746   7.188   0.876   8.204  0.4601 -0.1850 -0.8052
 3187SOL    HW212747   7.215   0.744   8.273  1.2300 -0.4103 -1.5203
 3187SOL     MW12748   7.174   0.790   8.212  0.0203 -0.0873 -0.5025
 3188SOL     OW12749   5.903   1.280   5.940 -0.0028  0.3062  0.1253
 3188SOL    HW112750   5.956   1.341   5.991 -0.6196 -0.4368  1.7105
 3188SOL    HW212751   5.820   1.275   5.988 -0.4478 -0.7339 -0.7349
 3188SOL     MW12752   5.899   1.288   5.953 -0.1457  0.0662  0.2229
 3189SOL     OW12753   4.971   1.048   4.875  0.1576  0.2601 -0.3102
 3189SOL    HW112754   5.016   1.094   4.805 -1.7019  0.9513 -1.1043
 3189SOL    HW212755   4.919   0.981   4.830 -0.5787  0.3038  0.4483
 3189SOL     MW12756   4.970   1.045   4.860 -0.1917  0.3590 -0.3150
 3190SOL     OW12757   6.959   0.978   3.062 -0.4622 -0.2512  0.3157
 3190SOL    HW112758   6.975   0.933   3.144  0.3036  0.8649  0.8040
 3190SOL    HW212759   6.875   0.943   3.031 -1.1934 -0.0989  2.0005
 3190SOL     MW12760   6.950   0.967   3.069 -0.4575 -0.0805  0.6082
 3191SOL     OW12761   4.477   8.800   7.694  0.0324 -0.2631  0.0011
 3191SOL    HW112762   4.424   8.729   7.728 -0.4880  0.4363  0.6976
 3191SOL    HW212763   4.567   8.774   7.713 -0.1916 -0.3955  0.9560
 3191SOL     MW12764   4.482   8.787   7.701 -0.0678 -0.1868  0.2233
 3192SOL     OW12765   4.846  10.093   2.711 -0.1392 -0.1797 -0.1565
 3192SOL    HW112766   4.929  10.137   2.731  0.1457 -1.4204  1.6910
 3192SOL    HW212767   4.779  10.153   2.742  0.1211  0.1945 -0.3088
 3192SOL     MW12768   4.848  10.107   2.718 -0.0659 -0.2963  0.0717
 3193SOL     OW12769   6.274   1.451   9.756 -0.3455 -0.2673 -0.6715
 3193SOL    HW112770   6.208   1.389   9.789  0.5490 -0.6630  0.4532
 3193SOL    HW212771   6.261   1.530   9.808 -1.4920  0.5343 -2.1145
 3193SOL     MW12772   6.263   1.453   9.768 -0.3794 -0.2127 -0.7144
 3194SOL     OW12773   8.063   0.502   1.587  0.1874  0.1079  0.1523
 3194SOL    HW112774   8.033   0.445   1.517  2.3170 -0.5495 -0.3090
 3194SOL    HW212775   8.059   0.590   1.550  2.5814 -0.3364 -1.4122
 3194SOL     MW12776   8.058   0.506   1.573  0.7962 -0.0404 -0.1204
 3195SOL     OW12777   6.250   8.899   8.358 -0.4623  0.2687  0.1539
 3195SOL    HW112778   6.163   8.889   8.319 -1.0085 -0.1240  1.4321
 3195SOL    HW212779   6.279   8.986   8.329 -1.6114  0.7273  0.3254
 3195SOL     MW12780   6.242   8.909   8.349 -0.6904  0.2775  0.3490
 3196SOL     OW12781   3.863   9.966   5.011 -0.0818  0.2830  0.1733
 3196SOL    HW112782   3.876  10.000   5.099  0.4551 -1.8834  0.9881
 3196SOL    HW212783   3.770   9.942   5.008 -0.3084  1.1605 -0.1803
 3196SOL     MW12784   3.852   9.967   5.022 -0.0400  0.1095  0.2353
 3197SOL     OW12785   6.475   1.911   4.034 -0.1542 -0.0804 -0.1874
 3197SOL    HW112786   6.476   1.932   4.127 -1.5056  0.6766 -0.3225
 3197SOL    HW212787   6.414   1.837   4.027 -1.3095  0.8994 -0.6593
 3197SOL     MW12788   6.467   1.904   4.046 -0.4916  0.1533 -0.2691
 3198SOL     OW12789   4.205   0.572   4.336  0.2974  0.3284 -0.1602
 3198SOL    HW112790   4.164   0.501   4.386  0.4308  0.0814 -0.4029
 3198SOL    HW212791   4.178   0.557   4.246  0.7974  0.2548 -0.2995
 3198SOL     MW12792   4.196   0.560   4.331  0.3826  0.2853 -0.2116
 3199SOL     OW12793   5.692  10.109   5.009 -0.2012 -0.4257  0.2222
 3199SOL    HW112794   5.701  10.076   5.099 -0.5069 -1.9895 -0.2956
 3199SOL    HW212795   5.634  10.046   4.966  1.1886 -0.6064 -1.4960
 3199SOL     MW12796   5.686  10.096   5.015 -0.0553 -0.6605 -0.0787
 3200SOL     OW12797   4.303   0.791   4.591  0.0218  0.1546 -0.2711
 3200SOL    HW112798   4.318   0.873   4.637 -0.9846  0.5140 -0.5668
 3200SOL    HW212799   4.228   0.807   4.535  1.5224 -0.1218 -2.4810
 3200SOL     MW12800   4.295   0.804   4.590  0.0883  0.1658 -0.6083
 3201SOL     OW12801   5.051   9.575  10.068  0.3635 -0.2837  0.2489
 3201SOL    HW112802   5.121   9.584  10.133 -0.1335  0.7812  0.6642
 3201SOL    HW212803   5.096   9.559   9.986  1.2159  2.1825  0.1705
 3201SOL     MW12804   5.066   9.574  10.066  0.4114  0.1915  0.2943
 3202SOL     OW12805   6.133   0.307   2.950  0.7318  0.2398  0.1402
 3202SOL    HW112806   6.212   0.336   2.996 -0.3256  1.7391  1.0855
 3202SOL    HW212807   6.070   0.377   2.964 -1.0401 -1.2734  0.0527
 3202SOL     MW12808   6.135   0.320   2.958  0.3510  0.2380  0.2556
 3203SOL     OW12809   5.351   9.936   0.494 -0.2032 -0.1831  0.2717
 3203SOL    HW112810   5.379   9.915   0.583 -1.5347 -1.4310  0.4354
 3203SOL    HW212811   5.277   9.877   0.478 -2.1004  2.2310 -0.4776
 3203SOL     MW12812   5.345   9.926   0.504 -0.6377 -0.0262  0.1929
 3204SOL     OW12813   7.033   9.925   9.896 -0.2177  0.6830 -0.1307
 3204SOL    HW112814   6.947   9.938   9.855 -0.1902  1.2102 -0.0289
 3204SOL    HW212815   7.067   9.846   9.855 -0.7881  0.4214 -0.1109
 3204SOL     MW12816   7.026   9.916   9.885 -0.2907  0.7188 -0.1143
 3205SOL     OW12817   6.355   8.386   0.247  0.0262  0.1149 -0.4195
 3205SOL    HW112818   6.374   8.335   0.168 -1.6029  0.8570 -1.3345
 3205SOL    HW212819   6.271   8.352   0.277  0.2324  0.4173  0.5328
 3205SOL     MW12820   6.346   8.374   0.241 -0.1653  0.2555 -0.4145
 3206SOL     OW12821   7.013   9.121   0.668  0.1603  0.2122  0.0070
 3206SOL    HW112822   7.056   9.049   0.622 -1.4749 -0.4753 -0.5199
 3206SOL    HW212823   6.943   9.149   0.609  0.7038  2.2225  0.2279
 3206SOL     MW12824   7.009   9.115   0.654  0.0134  0.3902 -0.0342
 3207SOL     OW12825   7.564   0.543   5.668 -0.2793 -0.5955 -0.2879
 3207SOL    HW112826   7.589   0.559   5.759 -0.9236  0.6085 -0.3125
 3207SOL    HW212827   7.576   0.448   5.656  1.3655 -0.5250  0.5634
 3207SOL     MW12828   7.569   0.532   5.678 -0.1446 -0.4240 -0.1766
 3208SOL     OW12829   7.513   0.502   7.645 -0.2735 -0.0353 -0.6406
 3208SOL    HW112830   7.441   0.503   7.582  0.6937 -0.2443 -1.7862
 3208SOL    HW212831   7.474   0.466   7.725 -1.2365 -1.0039 -1.5050
 3208SOL     MW12832   7.498   0.497   7.647 -0.2729 -0.1937 -0.9111
 3209SOL     OW12833   4.651   9.146   1.664 -0.1037  0.4532 -0.1620
 3209SOL    HW112834   4.687   9.067   1.622 -0.6242  0.5737 -0.8610
 3209SOL    HW212835   4.698   9.218   1.623 -0.3812  0.5587 -0.2923
 3209SOL     MW12836   4.662   9.145   1.653 -0.2111  0.4836 -0.2736
 3210SOL     OW12837   4.664   0.184   3.900 -0.2245  0.0313 -0.5547
 3210SOL    HW112838   4.715   0.265   3.888  2.7138 -1.6499 -0.4924
 3210SOL    HW212839   4.618   0.173   3.817  1.9716  0.1562 -1.8892
 3210SOL     MW12840   4.665   0.194   3.887  0.4665 -0.1781 -0.7259
 3211SOL     OW12841   7.447   8.456   5.310  0.3351  0.1012  0.4002
 3211SOL    HW112842   7.407   8.521   5.252  0.5239 -0.6804 -0.6410
 3211SOL    HW212843   7.500   8.402   5.252  0.7140 -0.5709  1.3496
 3211SOL     MW12844   7.448   8.458   5.294  0.4115 -0.0945  0.3878
 3212SOL     OW12845   7.609   8.825   7.801 -0.0469  0.4531  0.0472
 3212SOL    HW112846   7.525   8.828   7.755 -0.9157 -1.7402  1.3486
 3212SOL    HW212847   7.668   8.780   7.740  0.4406  2.6079 -1.1515
 3212SOL     MW12848   7.606   8.819   7.786 -0.0982  0.4479  0.0610
 3213SOL     OW12849   5.438   9.912   7.748  0.2586  0.2855  0.1831
 3213SOL    HW112850   5.463   9.992   7.795 -0.5670 -0.4065  1.9139
 3213SOL    HW212851   5.520   9.864   7.736  0.5628  0.7271  0.4709
 3213SOL     MW12852   5.452   9.916   7.753  0.1884  0.2518  0.4548
 3214SOL     OW12853   6.251   8.200   1.585  0.3267  0.6250  0.2205
 3214SOL    HW112854   6.162   8.170   1.604  0.7474 -0.2281  0.8890
 3214SOL    HW212855   6.253   8.290   1.617 -0.4665  0.8472 -0.3371
 3214SOL     MW12856   6.239   8.208   1.592  0.2766  0.5401  0.2354
 3215SOL     OW12857   4.865   1.106   8.912  0.2559 -0.0199  0.4799
 3215SOL    HW112858   4.873   1.162   8.989  0.5719  1.1024 -0.3305
 3215SOL    HW212859   4.772   1.082   8.909 -0.5209  2.7146 -0.6052
 3215SOL     MW12860   4.854   1.110   8.922  0.1939  0.4991  0.2248
 3216SOL     OW12861   4.814   0.979   0.122  0.1416  0.3062  0.1338
 3216SOL    HW112862   4.732   1.029   0.116 -0.6921 -0.9972  0.3785
 3216SOL    HW212863   4.806   0.930   0.204  0.6924 -0.6469 -0.3656
 3216SOL     MW12864   4.802   0.979   0.132  0.1035  0.0025  0.0995
 3217SOL     OW12865   6.639   7.655   6.799  0.1370 -0.1791 -0.5209
 3217SOL    HW112866   6.580   7.661   6.874  0.6116 -2.2288  0.0932
 3217SOL    HW212867   6.727   7.658   6.838  0.4031 -0.3265 -1.0964
 3217SOL     MW12868   6.643   7.656   6.815  0.2367 -0.4748 -0.5157
 3218SOL     OW12869   4.259   9.109   0.517  0.0535 -0.0207  0.0345
 3218SOL    HW112870   4.227   9.072   0.599 -0.1150 -1.6603 -0.7439
 3218SOL    HW212871   4.348   9.138   0.537  0.3735 -1.3175  0.5489
 3218SOL     MW12872   4.267   9.108   0.531  0.0739 -0.4159 -0.0011
 3219SOL     OW12873   6.927   0.733   5.376 -0.0407  0.7108 -0.2580
 3219SOL    HW112874   6.917   0.778   5.293  0.8359  0.8259 -0.3080
 3219SOL    HW212875   6.943   0.641   5.353  1.5436  0.9629 -0.2887
 3219SOL     MW12876   6.928   0.726   5.362  0.2905  0.7602 -0.2689
 3220SOL     OW12877   4.138   8.646   5.262  0.1640 -0.3189 -0.2816
 3220SOL    HW112878   4.049   8.680   5.258  0.5366  0.6323 -0.8381
 3220SOL    HW212879   4.142   8.596   5.343 -0.8436 -0.2863 -0.2059
 3220SOL     MW12880   4.127   8.644   5.272  0.0786 -0.1865 -0.3463
 3221SOL     OW12881   5.563   0.577   9.880  0.8787 -0.7816  0.1208
 3221SOL    HW112882   5.620   0.628   9.821 -0.0391 -0.6711 -0.6866
 3221SOL    HW212883   5.624   0.520   9.927  1.6447 -0.8414 -0.8952
 3221SOL     MW12884   5.579   0.576   9.878  0.8583 -0.7747 -0.1246
 3222SOL     OW12885   6.542  -0.004   9.426 -0.1539 -0.6372  0.0659
 3222SOL    HW112886   6.446   0.005   9.432 -0.1211 -0.5999  0.6017
 3222SOL    HW212887   6.573   0.084   9.410 -0.0769 -0.2835  1.9106
 3222SOL     MW12888   6.533   0.009   9.425 -0.1391 -0.5845  0.3863
 3223SOL     OW12889   5.304   0.383   0.287  0.4527 -0.5687  0.0839
 3223SOL    HW112890   5.396   0.390   0.263  0.4114  0.4909  0.1550
 3223SOL    HW212891   5.304   0.345   0.374  0.7541 -1.6602 -0.3811
 3223SOL     MW12892   5.316   0.379   0.295  0.4877 -0.5730  0.0309
 3224SOL     OW12893   4.928   9.773   6.765 -0.3794 -0.7552  0.1282
 3224SOL    HW112894   4.902   9.781   6.673  0.0780 -2.0702 -0.1349
 3224SOL    HW212895   4.949   9.681   6.776 -0.4222 -0.6151  1.5636
 3224SOL     MW12896   4.927   9.762   6.754 -0.3236 -0.9133  0.2859
 3225SOL     OW12897   4.691   8.513   3.014 -0.0719  0.2646  0.3588
 3225SOL    HW112898   4.605   8.490   2.979  0.1183 -0.7888  0.5531
 3225SOL    HW212899   4.692   8.609   3.016 -0.7758  0.3082 -0.7938
 3225SOL     MW12900   4.680   8.523   3.010 -0.1410  0.1287  0.2298
 3226SOL     OW12901   5.354   1.074   3.731 -0.1544  0.1930 -0.2447
 3226SOL    HW112902   5.416   1.008   3.759  0.4932  0.3863 -1.1900
 3226SOL    HW212903   5.345   1.061   3.637  0.3057  1.7067 -0.5189
 3226SOL     MW12904   5.361   1.064   3.722 -0.0053  0.4227 -0.4088
 3227SOL     OW12905   5.669   8.635   9.799 -0.0599  0.2459 -0.2634
 3227SOL    HW112906   5.600   8.621   9.864 -0.7590  0.0484 -1.0287
 3227SOL    HW212907   5.646   8.717   9.756  1.2818  1.2348  0.7976
 3227SOL     MW12908   5.657   8.644   9.802  0.0266  0.3524 -0.2236
 3228SOL     OW12909   4.711   8.853   8.937 -0.0546  0.3310 -0.9461
 3228SOL    HW112910   4.734   8.931   8.988  0.2402 -0.4169  0.1093
 3228SOL    HW212911   4.632   8.878   8.889 -0.7907  0.8503  0.4729
 3228SOL     MW12912   4.703   8.867   8.938 -0.1140  0.3003 -0.6131
 3229SOL     OW12913   5.204   0.397   7.546 -0.0633  0.1142  0.3077
 3229SOL    HW112914   5.163   0.454   7.481  0.6087  2.3806  1.7430
 3229SOL    HW212915   5.161   0.312   7.534 -1.1042  0.8839 -1.9559
 3229SOL     MW12916   5.193   0.393   7.536 -0.1130  0.5228  0.1962
 3230SOL     OW12917   4.840  10.125   8.958  0.3853  0.0656 -0.0684
 3230SOL    HW112918   4.783  10.202   8.953 -1.1179 -1.0557 -0.9931
 3230SOL    HW212919   4.891  10.138   9.038 -0.0564  1.8404 -0.0262
 3230SOL     MW12920   4.839  10.137   8.968  0.1236  0.1535 -0.1872
 3231SOL     OW12921   4.524   9.333   8.713 -0.5896  0.0772  0.3924
 3231SOL    HW112922   4.436   9.355   8.685 -1.1543 -0.4627  1.6411
 3231SOL    HW212923   4.519   9.332   8.809  0.9705  0.8213  0.5166
 3231SOL     MW12924   4.512   9.336   8.722 -0.4557  0.1047  0.5772
 3232SOL     OW12925   5.864   9.808   2.129  0.1520 -0.5582  0.4563
 3232SOL    HW112926   5.804   9.883   2.132  0.7395 -0.0716  0.2236
 3232SOL    HW212927   5.915   9.816   2.210 -1.4023 -2.1012  1.6785
 3232SOL     MW12928   5.863   9.819   2.141  0.0219 -0.7004  0.5895
 3233SOL     OW12929   6.736   1.025   9.069 -0.1124 -0.2927  0.2058
 3233SOL    HW112930   6.709   1.053   9.157 -1.2424  0.1633 -0.2621
 3233SOL    HW212931   6.731   1.105   9.016  2.2861 -0.1680  0.0741
 3233SOL     MW12932   6.731   1.039   9.074  0.0583 -0.2145  0.1251
 3234SOL     OW12933   6.296   7.999   6.285  0.1529  0.0703  0.0690
 3234SOL    HW112934   6.312   8.078   6.233  0.2062  0.3234  0.4606
 3234SOL    HW212935   6.250   7.940   6.226  1.6871 -0.3027 -0.7818
 3234SOL     MW12936   6.292   8.002   6.270  0.3665  0.0542  0.0072
 3235SOL     OW12937   4.438   8.466   1.736  0.0540 -0.3608  0.3559
 3235SOL    HW112938   4.385   8.386   1.732 -0.5721 -0.0479  1.7486
 3235SOL    HW212939   4.521   8.438   1.774  1.3804 -1.0408 -2.7046
 3235SOL     MW12940   4.442   8.451   1.741  0.1483 -0.4102  0.1315
 3236SOL     OW12941   5.950   0.737   0.677 -0.5789  0.1186 -0.1155
 3236SOL    HW112942   6.006   0.672   0.637 -1.1988  0.1638 -1.0853
 3236SOL    HW212943   5.991   0.756   0.761  1.2776  0.7135 -1.1111
 3236SOL     MW12944   5.963   0.731   0.683 -0.4125  0.2047 -0.3800
 3237SOL     OW12945   4.243   8.869   5.341 -0.0959 -0.0516  0.0274
 3237SOL    HW112946   4.230   8.927   5.265  0.9166  1.1912  0.7620
 3237SOL    HW212947   4.230   8.781   5.306  1.0486  0.4393 -1.7687
 3237SOL     MW12948   4.239   8.865   5.326  0.1944  0.1817 -0.1155
 3238SOL     OW12949   6.470   9.498   5.843  0.1108 -0.8363 -0.3274
 3238SOL    HW112950   6.440   9.463   5.759 -3.2902 -0.6074  0.6513
 3238SOL    HW212951   6.539   9.559   5.820  0.9581 -2.5246 -2.7213
 3238SOL     MW12952   6.475   9.501   5.828 -0.2329 -1.0327 -0.5179
 3239SOL     OW12953   7.192   0.903   1.136 -0.2856 -0.2156  0.2572
 3239SOL    HW112954   7.120   0.844   1.113 -0.2308 -0.1028 -0.2078
 3239SOL    HW212955   7.269   0.846   1.140  0.1140  0.0730 -1.9773
 3239SOL     MW12956   7.192   0.887   1.134 -0.2244 -0.1616 -0.1061
 3240SOL     OW12957   5.874   8.401   0.329  0.2637  0.0752 -0.2571
 3240SOL    HW112958   5.795   8.358   0.294  0.1666  0.2195 -0.2150
 3240SOL    HW212959   5.841   8.475   0.380  0.4975  1.0553 -1.5058
 3240SOL     MW12960   5.859   8.405   0.331  0.2821  0.2265 -0.4195
 3241SOL     OW12961   5.048   9.957   5.213  0.2123  0.3337  0.3193
 3241SOL    HW112962   4.963   9.999   5.202 -0.6278 -1.7056 -1.8405
 3241SOL    HW212963   5.043   9.914   5.298 -2.0042 -1.8253 -0.7834
 3241SOL     MW12964   5.036   9.957   5.223 -0.1990 -0.2313 -0.1198
 3242SOL     OW12965   7.845   9.654   8.405  0.1172 -0.6876  0.1615
 3242SOL    HW112966   7.767   9.654   8.350  1.1087  1.7647 -1.3978
 3242SOL    HW212967   7.816   9.694   8.487 -0.0681  1.4476 -0.8762
 3242SOL     MW12968   7.831   9.660   8.409  0.2257 -0.0702 -0.1880
 3243SOL     OW12969   4.980   8.635   1.688  0.1630  0.3348  0.0877
 3243SOL    HW112970   4.919   8.610   1.619 -1.2198  1.6042  0.8000
 3243SOL    HW212971   5.037   8.558   1.699 -1.0969 -0.7687 -0.8045
 3243SOL     MW12972   4.980   8.621   1.680 -0.1926  0.3571  0.0635
 3244SOL     OW12973   4.617   8.382   7.396 -0.5836 -0.2818 -0.3561
 3244SOL    HW112974   4.594   8.290   7.408 -1.1234 -0.1247 -0.1265
 3244SOL    HW212975   4.712   8.382   7.383 -0.1363 -0.6510  2.2763
 3244SOL     MW12976   4.627   8.370   7.396 -0.5961 -0.3103  0.0290
 3245SOL     OW12977   5.605   0.904   5.948 -0.0266 -0.0110 -0.2497
 3245SOL    HW112978   5.551   0.825   5.943 -1.7659  1.0973 -0.2637
 3245SOL    HW212979   5.622   0.926   5.856 -1.1398  0.6161 -0.3265
 3245SOL     MW12980   5.600   0.897   5.935 -0.4105  0.2225 -0.2619
 3246SOL     OW12981   5.095   0.248   5.817 -0.5202 -0.2064 -0.0403
 3246SOL    HW112982   5.148   0.311   5.865 -1.9180  0.4332  0.7275
 3246SOL    HW212983   5.122   0.163   5.851 -1.8025  0.2406  2.3570
 3246SOL     MW12984   5.106   0.245   5.828 -0.8809 -0.0602  0.3857
 3247SOL     OW12985   7.408   1.273   4.466  0.1913 -0.1202  0.0325
 3247SOL    HW112986   7.403   1.368   4.474  1.3659 -0.0763  0.3096
 3247SOL    HW212987   7.337   1.251   4.405 -0.8558  0.8003  0.8606
 3247SOL     MW12988   7.398   1.283   4.459  0.2085  0.0096  0.1812
 3248SOL     OW12989   5.891   8.616   0.542 -0.3729 -0.2741 -0.3985
 3248SOL    HW112990   5.921   8.654   0.459 -1.5912 -0.4568 -0.9362
 3248SOL    HW212991   5.833   8.682   0.580  0.0042 -0.2842  0.2184
 3248SOL     MW12992   5.888   8.630   0.536 -0.4861 -0.3000 -0.3878
 3249SOL     OW12993   7.540   9.031   8.528  0.0712  0.3258 -0.0758
 3249SOL    HW112994   7.618   8.993   8.487 -0.7807 -0.6939 -0.8052
 3249SOL    HW212995   7.560   9.124   8.535  1.0573  0.1997 -0.9275
 3249SOL     MW12996   7.553   9.038   8.523  0.0892  0.1716 -0.2886
 3250SOL     OW12997   6.562   8.026   1.533  0.2250 -0.1707  0.1194
 3250SOL    HW112998   6.652   8.033   1.501  0.8140 -2.7625  1.0280
 3250SOL    HW212999   6.563   8.075   1.615  0.8286 -0.3154  0.2030
 3250SOL     MW13000   6.574   8.034   1.539  0.3855 -0.5390  0.2529
 3251SOL     OW13001   4.366   8.612   8.690 -0.0005  0.0939  0.7157
 3251SOL    HW113002   4.327   8.558   8.758  2.2616 -2.3488  0.2537
 3251SOL    HW213003   4.415   8.680   8.737 -1.0339  0.3794  1.3952
 3251SOL     MW13004   4.368   8.614   8.705  0.1649 -0.1964  0.7450
 3252SOL     OW13005   3.661   9.059   8.683  0.2511 -0.0669  0.1573
 3252SOL    HW113006   3.708   9.060   8.600 -0.0327  0.2358 -0.0023
 3252SOL    HW213007   3.646   9.152   8.704 -1.0587 -0.1607 -0.2517
 3252SOL     MW13008   3.665   9.072   8.675  0.0366 -0.0388  0.0808
 3253SOL     OW13009   6.881   8.578   3.268 -0.0670  0.0663 -0.3517
 3253SOL    HW113010   6.860   8.583   3.362 -0.9876  0.6810 -0.5771
 3253SOL    HW213011   6.938   8.502   3.260 -0.5728 -0.4260  0.6014
 3253SOL     MW13012   6.886   8.569   3.280 -0.2590  0.0828 -0.2538
 3254SOL     OW13013   6.683   0.053   5.065  0.0652  0.6721  0.2828
 3254SOL    HW113014   6.749   0.083   5.128 -0.7069  1.6908  0.6211
 3254SOL    HW213015   6.698   0.106   4.987  1.9739 -1.5797 -0.9991
 3254SOL     MW13016   6.694   0.064   5.063  0.2182  0.5061  0.1558
 3255SOL     OW13017   4.398   0.710   1.661 -0.2019  0.1585 -0.5201
 3255SOL    HW113018   4.441   0.761   1.730 -1.0070  0.8869 -0.5332
 3255SOL    HW213019   4.457   0.716   1.586 -0.1494  0.8639 -0.4344
 3255SOL     MW13020   4.412   0.718   1.660 -0.3032  0.3515 -0.5104
 3256SOL     OW13021   6.366   7.706   4.218  0.0950  0.1143 -0.2160
 3256SOL    HW113022   6.413   7.624   4.231 -0.5439 -0.5949 -2.0606
 3256SOL    HW213023   6.280   7.691   4.259 -0.9099 -1.0870 -2.6036
 3256SOL     MW13024   6.361   7.693   4.226 -0.1262 -0.1428 -0.7856
 3257SOL     OW13025   7.170   8.374   3.494  0.0364 -0.0530  0.1275
 3257SOL    HW113026   7.136   8.426   3.567 -0.9262 -0.7979  0.2220
 3257SOL    HW213027   7.224   8.307   3.535  2.0149  1.3396 -0.0392
 3257SOL     MW13028   7.173   8.372   3.509  0.1732  0.0342  0.1178
 3258SOL     OW13029   6.072   9.322   9.781 -0.2903  0.4939 -0.3453
 3258SOL    HW113030   6.067   9.289   9.691  0.6386  0.3033 -0.3336
 3258SOL    HW213031   5.992   9.375   9.791 -0.8472 -0.2063 -0.9818
 3258SOL     MW13032   6.060   9.325   9.770 -0.2402  0.3740 -0.4294
 3259SOL     OW13033   7.691   9.585   0.749 -0.3121  0.1644 -0.4029
 3259SOL    HW113034   7.655   9.665   0.711 -2.2839 -1.0063 -1.1769
 3259SOL    HW213035   7.655   9.582   0.837 -0.0625  0.2109 -0.2966
 3259SOL     MW13036   7.681   9.595   0.756 -0.5438  0.0131 -0.4927
 3260SOL     OW13037   4.715   1.041   7.554  0.0701 -0.0215  0.1352
 3260SOL    HW113038   4.646   1.097   7.589  0.7927  0.3707  0.9935
 3260SOL    HW213039   4.669   0.970   7.510 -0.9018  1.6361 -1.6938
 3260SOL     MW13040   4.700   1.039   7.553  0.0365  0.2543  0.0045
 3261SOL     OW13041   7.798   0.773   1.265 -0.2883 -0.0283  0.1649
 3261SOL    HW113042   7.824   0.850   1.214 -0.1385 -1.7519 -2.5603
 3261SOL    HW213043   7.703   0.784   1.278 -0.0206  1.3275  1.2161
 3261SOL     MW13044   7.788   0.785   1.260 -0.2321 -0.0778 -0.0604
 3262SOL     OW13045   4.258   9.961   1.931  0.6389  0.3759 -0.2898
 3262SOL    HW113046   4.171   9.984   1.899  0.0964 -0.3165  0.6498
 3262SOL    HW213047   4.261   9.997   2.020  1.0255 -0.2552 -0.0452
 3262SOL     MW13048   4.247   9.969   1.939  0.6179  0.1978 -0.1305
 3263SOL     OW13049   7.483   0.097   1.012  0.1096  0.2338 -0.2022
 3263SOL    HW113050   7.461   0.190   1.022 -0.2746  0.0450  0.8271
 3263SOL    HW213051   7.435   0.069   0.935 -1.0313  0.5153  0.3898
 3263SOL     MW13052   7.474   0.106   1.003 -0.0956  0.2463  0.0160
 3264SOL     OW13053   5.718   0.522   6.921 -0.2719 -0.2240 -0.4959
 3264SOL    HW113054   5.793   0.555   6.971 -0.4888  0.4715 -0.6159
 3264SOL    HW213055   5.727   0.427   6.924  0.9792 -0.1504 -1.0436
 3264SOL     MW13056   5.729   0.514   6.928 -0.1327 -0.1205 -0.5857
 3265SOL     OW13057   5.802   8.124   9.769 -0.3896 -0.5574 -0.0859
 3265SOL    HW113058   5.811   8.029   9.780 -0.1091 -0.4180  0.9702
 3265SOL    HW213059   5.724   8.146   9.821 -1.2875 -0.3867 -1.4434
 3265SOL     MW13060   5.792   8.114   9.777 -0.4727 -0.5157 -0.1264
 3266SOL     OW13061   4.364   0.488   9.497  0.5185 -0.0624  0.3306
 3266SOL    HW113062   4.396   0.470   9.409  0.9477 -1.5154  0.7633
 3266SOL    HW213063   4.269   0.481   9.491  0.6058 -1.2743  0.2062
 3266SOL     MW13064   4.356   0.485   9.484  0.5880 -0.4211  0.3721
 3267SOL     OW13065   7.191   9.738   9.023  0.6000 -0.5263  0.0612
 3267SOL    HW113066   7.250   9.743   8.948  1.4955 -1.1189  0.6986
 3267SOL    HW213067   7.213   9.655   9.065  0.3577 -0.0520  1.1623
 3267SOL     MW13068   7.202   9.727   9.019  0.6879 -0.5422  0.2952
 3268SOL     OW13069   6.507   9.893   3.240 -0.2295 -0.3246 -0.0001
 3268SOL    HW113070   6.524   9.957   3.309 -0.1092 -2.8284  2.4478
 3268SOL    HW213071   6.588   9.841   3.236 -0.5914 -0.8132 -1.3869
 3268SOL     MW13072   6.520   9.895   3.249 -0.2620 -0.7273  0.1427
 3269SOL     OW13073   8.075   9.824   4.155  0.0111  0.3187  0.3325
 3269SOL    HW113074   8.100   9.905   4.110 -0.4673  0.6290  0.6050
 3269SOL    HW213075   8.011   9.853   4.221 -1.2381 -0.4580 -0.4953
 3269SOL     MW13076   8.070   9.839   4.158 -0.2214  0.2559  0.2578
 3270SOL     OW13077   5.697   1.343   6.691 -0.0905 -0.1054 -0.4631
 3270SOL    HW113078   5.605   1.325   6.711 -0.2941  1.3460  0.0746
 3270SOL    HW213079   5.721   1.276   6.628 -2.4028  1.1290 -2.8813
 3270SOL     MW13080   5.688   1.332   6.685 -0.4291  0.2560 -0.7162
 3271SOL     OW13081   6.446   1.462   7.396 -0.3894  0.6986  0.2453
 3271SOL    HW113082   6.532   1.447   7.435  0.3652  1.4747 -1.0316
 3271SOL    HW213083   6.385   1.460   7.470  0.3260 -2.5039  0.9075
 3271SOL     MW13084   6.450   1.459   7.411 -0.1915  0.3721  0.1626
 3272SOL     OW13085   7.157   9.287   5.912  0.7430 -0.0226  0.4482
 3272SOL    HW113086   7.215   9.276   5.987  0.8241 -1.3154  0.2291
 3272SOL    HW213087   7.213   9.325   5.844  0.9216  0.2273  0.7314
 3272SOL     MW13088   7.173   9.291   5.913  0.7779 -0.1630  0.4568
 3273SOL     OW13089   5.520   2.010   6.801 -0.1723 -0.1458 -0.1738
 3273SOL    HW113090   5.464   2.029   6.876  0.1411  0.2972 -0.0467
 3273SOL    HW213091   5.535   1.916   6.804  1.1212  0.0633  1.2417
 3273SOL     MW13092   5.515   2.000   6.812  0.0439 -0.0580  0.0338
 3274SOL     OW13093   7.146   0.258   8.934 -0.0556 -0.5017  0.3241
 3274SOL    HW113094   7.114   0.226   9.019 -0.3945  0.2336  0.4894
 3274SOL    HW213095   7.217   0.199   8.911 -0.7616 -1.4649  0.5299
 3274SOL     MW13096   7.151   0.246   8.942 -0.1962 -0.5324  0.3740
 3275SOL     OW13097   4.972   8.085   7.345 -0.2469  0.5610 -0.4207
 3275SOL    HW113098   4.947   8.176   7.364 -0.3306  0.1494  1.7973
 3275SOL    HW213099   4.935   8.035   7.418  0.4565 -1.1554 -1.1907
 3275SOL     MW13100   4.964   8.091   7.358 -0.1635  0.2746 -0.2258
 3276SOL     OW13101   6.255   8.648   3.373  0.2406  0.4932 -0.5577
 3276SOL    HW113102   6.306   8.712   3.324  5.1920 -2.4158  0.1081
 3276SOL    HW213103   6.305   8.634   3.454 -1.4809 -2.8920  0.1118
 3276SOL     MW13104   6.268   8.655   3.378  0.6753 -0.3538 -0.3780
 3277SOL     OW13105   5.745   7.752   4.606  0.0194 -0.6727 -0.4897
 3277SOL    HW113106   5.691   7.727   4.682 -0.3667  0.9254 -0.2056
 3277SOL    HW213107   5.686   7.745   4.532  0.1098 -1.2627 -0.5076
 3277SOL     MW13108   5.730   7.748   4.607 -0.0204 -0.5371 -0.4539
 3278SOL     OW13109   6.769   9.495   3.286  0.0769 -0.2425 -0.5006
 3278SOL    HW113110   6.835   9.437   3.248 -1.7324 -1.7196 -1.5340
 3278SOL    HW213111   6.691   9.440   3.294 -0.5473  0.8955  2.4618
 3278SOL     MW13112   6.767   9.480   3.282 -0.2506 -0.2881 -0.2410
 3279SOL     OW13113   6.868   8.276   9.515 -0.0075  0.4391  0.1433
 3279SOL    HW113114   6.912   8.263   9.598  0.6014  0.1897 -0.2151
 3279SOL    HW213115   6.785   8.318   9.538 -0.4767 -0.8962  1.0025
 3279SOL     MW13116   6.862   8.280   9.529  0.0113  0.2258  0.2107
 3280SOL     OW13117   5.197   0.953   0.242 -0.2652  0.4911 -0.2068
 3280SOL    HW113118   5.149   1.035   0.227 -0.7671  0.4124  0.8783
 3280SOL    HW213119   5.289   0.979   0.240 -0.3915  0.9200 -0.7674
 3280SOL     MW13120   5.203   0.968   0.239 -0.3498  0.5382 -0.1362
 3281SOL     OW13121   7.612   9.205   2.215 -0.0972  0.4244  0.1764
 3281SOL    HW113122   7.648   9.137   2.159 -0.7265 -0.2588  0.5770
 3281SOL    HW213123   7.642   9.288   2.177  0.4992 -0.0735 -0.4356
 3281SOL     MW13124   7.621   9.207   2.203 -0.1016  0.2654  0.1480
 3282SOL     OW13125   6.096   1.911   6.351 -0.3665 -1.0661 -0.0031
 3282SOL    HW113126   6.078   1.845   6.418  0.5555  0.1076  1.4339
 3282SOL    HW213127   6.171   1.876   6.303  2.2750  0.2477  2.8008
 3282SOL     MW13128   6.104   1.897   6.353  0.1131 -0.7313  0.5676
 3283SOL     OW13129   3.524  10.115   6.181 -0.2647 -0.1086 -0.2260
 3283SOL    HW113130   3.578  10.180   6.135 -0.5905 -0.2413 -0.8081
 3283SOL    HW213131   3.562  10.110   6.268 -0.5493  1.2499  0.0104
 3283SOL     MW13132   3.536  10.123   6.186 -0.3468  0.0564 -0.2725
 3284SOL     OW13133   8.015   9.911   6.544 -0.3589 -0.1291 -0.3425
 3284SOL    HW113134   8.001   9.999   6.580  1.1122  0.0357 -0.1011
 3284SOL    HW213135   8.038   9.858   6.621 -0.7636 -0.6206 -0.5560
 3284SOL     MW13136   8.016   9.916   6.559 -0.2154 -0.1730 -0.3388
 3285SOL     OW13137   4.848   9.549   4.800 -0.3411  0.2320  0.1880
 3285SOL    HW113138   4.934   9.589   4.811 -0.1618 -0.3768  1.0654
 3285SOL    HW213139   4.844   9.526   4.707 -0.0518  1.3454 -0.1169
 3285SOL     MW13140   4.859   9.551   4.789 -0.2780  0.3000  0.2650
 3286SOL     OW13141   4.585   8.126   6.387  0.7544  0.6642  0.7694
 3286SOL    HW113142   4.611   8.212   6.420 -0.1746  1.5272 -0.6069
 3286SOL    HW213143   4.490   8.125   6.397  0.9010 -0.9895  2.4693
 3286SOL     MW13144   4.575   8.138   6.392  0.6491  0.5578  0.8129
 3287SOL     OW13145   6.383  10.069   3.079  0.3452 -0.0024  0.0666
 3287SOL    HW113146   6.460  10.125   3.069  0.3189  0.3103  1.4133
 3287SOL    HW213147   6.413   9.998   3.136 -0.1348 -0.3349 -0.0932
 3287SOL     MW13148   6.398  10.067   3.085  0.2770 -0.0051  0.2263
 3288SOL     OW13149   4.428   0.750   6.323 -0.0283 -0.0866 -0.0378
 3288SOL    HW113150   4.428   0.729   6.417  1.7072 -1.9879 -0.3938
 3288SOL    HW213151   4.357   0.696   6.287 -0.8955  0.8704  0.1843
 3288SOL     MW13152   4.419   0.740   6.331  0.0885 -0.2137 -0.0558
 3289SOL     OW13153   6.445   0.358   4.598 -0.0784 -0.1275  0.1200
 3289SOL    HW113154   6.357   0.395   4.590 -0.5138 -0.9709  0.7946
 3289SOL    HW213155   6.498   0.430   4.633  0.0817  1.1308 -2.4848
 3289SOL     MW13156   6.440   0.373   4.602 -0.1155 -0.0717 -0.1398
 3290SOL     OW13157   7.895   0.162   2.781 -0.7378 -0.0638  0.1930
 3290SOL    HW113158   7.910   0.083   2.834  0.3487  0.0187  0.0389
 3290SOL    HW213159   7.807   0.191   2.805 -0.7595 -0.7520  1.0014
 3290SOL     MW13160   7.885   0.155   2.791 -0.5945 -0.1453  0.2810
 3291SOL     OW13161   4.855   9.550   4.002  0.9064 -0.8189 -0.1763
 3291SOL    HW113162   4.855   9.644   4.016  1.2806 -1.0558  1.6455
 3291SOL    HW213163   4.944   9.530   3.971  0.2778 -0.3813 -2.4719
 3291SOL     MW13164   4.867   9.560   4.000  0.8722 -0.7919 -0.2401
 3292SOL     OW13165   4.827   9.267   2.768  0.7737 -0.5100 -0.7040
 3292SOL    HW113166   4.878   9.248   2.847 -1.7276 -0.1682  1.1018
 3292SOL    HW213167   4.815   9.362   2.769 -2.0735 -0.7968  0.4587
 3292SOL     MW13168   4.832   9.277   2.779  0.0539 -0.5026 -0.3045
 3293SOL     OW13169   4.125   8.981  10.140  0.4727  0.1097 -0.1643
 3293SOL    HW113170   4.063   8.970  10.069  0.1918 -0.7106  0.1978
 3293SOL    HW213171   4.115   9.072  10.168 -0.6169 -0.0305 -0.0650
 3293SOL     MW13172   4.116   8.992  10.134  0.2882 -0.0195 -0.1022
 3294SOL     OW13173   5.459   1.477   3.413 -0.0542  0.3595 -0.2043
 3294SOL    HW113174   5.366   1.458   3.407  0.1578 -1.7254  1.7903
 3294SOL    HW213175   5.491   1.475   3.323 -1.7290  0.0923 -0.8174
 3294SOL     MW13176   5.451   1.474   3.400 -0.2511  0.0429 -0.0184
 3295SOL     OW13177   5.824   0.253   7.703 -0.0936  0.0812 -0.8769
 3295SOL    HW113178   5.735   0.267   7.735 -0.5116  0.9940 -2.3510
 3295SOL    HW213179   5.840   0.160   7.715 -0.8681  0.0835  0.3164
 3295SOL     MW13180   5.814   0.243   7.709 -0.2541  0.2044 -0.9147
 3296SOL     OW13181   7.564   1.071   6.027 -0.3084  0.1681 -0.2048
 3296SOL    HW113182   7.648   1.026   6.039  0.2844  1.2157 -0.3014
 3296SOL    HW213183   7.536   1.094   6.116 -0.2774  0.1912 -0.2011
 3296SOL     MW13184   7.572   1.068   6.041 -0.2245  0.3122 -0.2173
 3297SOL     OW13185   4.843   9.485   3.127  0.2012  0.3604 -0.6980
 3297SOL    HW113186   4.889   9.416   3.079  0.5913 -0.0678  0.2589
 3297SOL    HW213187   4.911   9.549   3.149 -0.0343  0.7144 -1.0038
 3297SOL     MW13188   4.858   9.484   3.124  0.2220  0.3504 -0.6104
 3298SOL     OW13189   6.830   9.841   1.775 -0.0218  0.7729  0.5085
 3298SOL    HW113190   6.898   9.781   1.745 -0.9152 -0.9827  1.8126
 3298SOL    HW213191   6.838   9.841   1.870 -1.5829  0.8264  0.6660
 3298SOL     MW13192   6.840   9.833   1.784 -0.3521  0.5439  0.7052
 3299SOL     OW13193   7.420   9.996   5.708 -0.0932  0.7547  0.2174
 3299SOL    HW113194   7.387   9.915   5.747 -2.0391  0.3469 -2.0710
 3299SOL    HW213195   7.514   9.994   5.725 -0.1814 -1.6927  0.7388
 3299SOL     MW13196   7.428   9.985   5.715 -0.3669  0.3704 -0.0204
 3300SOL     OW13197   7.041   9.285   6.578 -1.0305 -0.1387  0.3032
 3300SOL    HW113198   6.998   9.365   6.549 -0.7444  0.2082  0.8148
 3300SOL    HW213199   6.970   9.230   6.609 -1.4240 -0.8002 -1.6356
 3300SOL     MW13200   7.026   9.288   6.579 -1.0449 -0.1810  0.1111
 3301SOL     OW13201   7.060   9.665   0.689 -0.2689 -0.3464 -0.4424
 3301SOL    HW113202   6.966   9.649   0.676 -0.5060 -0.5565  1.2530
 3301SOL    HW213203   7.064   9.757   0.717 -0.0531 -0.5310  0.1460
 3301SOL     MW13204   7.048   9.675   0.691 -0.2718 -0.3995 -0.1350
 3302SOL     OW13205   5.511   1.148   7.010 -0.7171  1.0274  0.4294
 3302SOL    HW113206   5.599   1.153   7.049 -0.0218  1.2683 -1.0934
 3302SOL    HW213207   5.453   1.180   7.079  0.0984 -1.1203  2.2512
 3302SOL     MW13208   5.515   1.153   7.025 -0.5138  0.7707  0.4696
 3303SOL     OW13209   3.608   0.392   3.340 -0.3256  0.2419 -0.4038
 3303SOL    HW113210   3.514   0.384   3.328 -0.7937  3.1184  0.5599
 3303SOL    HW213211   3.628   0.337   3.415 -1.2217 -0.3885 -0.6153
 3303SOL     MW13212   3.598   0.384   3.348 -0.5092  0.5442 -0.3026
 3304SOL     OW13213   7.659   8.930   1.538 -0.4647  0.1838  0.1174
 3304SOL    HW113214   7.657   8.836   1.522  0.0975  0.3666 -1.1449
 3304SOL    HW213215   7.568   8.958   1.523 -0.2057  0.1547 -1.7058
 3304SOL     MW13216   7.646   8.921   1.534 -0.3542  0.2045 -0.2978
 3305SOL     OW13217   5.977   0.553   9.038 -0.4329  0.3674 -0.0130
 3305SOL    HW113218   5.973   0.648   9.037 -0.0622  0.3851  0.0790
 3305SOL    HW213219   6.020   0.530   8.956 -0.1365  0.3001  0.1593
 3305SOL     MW13220   5.982   0.562   9.027 -0.3431  0.3607  0.0226
 3306SOL     OW13221   5.657   0.179   1.808 -0.1703 -0.3930 -0.8076
 3306SOL    HW113222   5.648   0.189   1.713 -2.6232 -0.6325 -0.6706
 3306SOL    HW213223   5.723   0.243   1.833 -0.2476  0.4191 -2.5670
 3306SOL     MW13224   5.664   0.189   1.799 -0.5108 -0.3159 -1.0260
 3307SOL     OW13225   6.952   8.730   8.626  0.3457 -0.0002  0.1298
 3307SOL    HW113226   7.042   8.756   8.646  1.0206 -2.3799  0.3910
 3307SOL    HW213227   6.940   8.755   8.534  1.3671  0.0588  0.0038
 3307SOL     MW13228   6.963   8.737   8.616  0.5740 -0.3125  0.1480
 3308SOL     OW13229   6.839   8.760   4.996 -0.3210 -0.1079  0.2130
 3308SOL    HW113230   6.869   8.785   4.909 -0.7291  2.0288  0.6352
 3308SOL    HW213231   6.749   8.793   5.001  0.4287  1.8671  2.2010
 3308SOL     MW13232   6.831   8.767   4.985 -0.2750  0.4454  0.5373
 3309SOL     OW13233   5.171   0.952   6.848 -0.1209 -0.4298  0.2782
 3309SOL    HW113234   5.255   0.921   6.881  1.3676  0.7716 -2.1302
 3309SOL    HW213235   5.190   1.037   6.810 -2.5425  0.0700  0.0527
 3309SOL     MW13236   5.185   0.959   6.847 -0.2465 -0.2008 -0.0762
 3310SOL     OW13237   6.621   7.771  -0.008 -0.7822 -0.1528  0.1646
 3310SOL    HW113238   6.572   7.713  -0.066 -1.9822  0.7218  0.2731
 3310SOL    HW213239   6.602   7.737   0.080 -0.8188 -0.0997  0.1774
 3310SOL     MW13240   6.612   7.759  -0.004 -0.9486 -0.0279  0.1810
 3311SOL     OW13241   6.853   0.595   1.922 -0.2434  0.2363 -0.5009
 3311SOL    HW113242   6.858   0.500   1.932  0.3859  0.3478  0.3709
 3311SOL    HW213243   6.858   0.610   1.828  0.3627 -0.5596 -0.6043
 3311SOL     MW13244   6.855   0.584   1.911 -0.0771  0.1442 -0.3975
 3312SOL     OW13245   6.707   1.411   6.152 -0.0089 -0.4806  0.3219
 3312SOL    HW113246   6.718   1.324   6.190 -1.7541 -0.8522  0.0515
 3312SOL    HW213247   6.768   1.466   6.202 -0.7646 -1.3337  2.2982
 3312SOL     MW13248   6.717   1.407   6.164 -0.3455 -0.6454  0.5515
 3313SOL     OW13249   5.829   1.647   8.276  0.4317  0.4304  0.4973
 3313SOL    HW113250   5.901   1.680   8.329  1.1351 -0.9782  0.4546
 3313SOL    HW213251   5.870   1.586   8.215 -0.6942  0.1867 -0.0423
 3313SOL     MW13252   5.844   1.643   8.275  0.3748  0.2080  0.4189
 3314SOL     OW13253   7.300   8.976   3.582 -0.1376 -0.4344  0.0314
 3314SOL    HW113254   7.279   8.960   3.490 -2.0056 -3.3280  0.7975
 3314SOL    HW213255   7.258   8.903   3.629  0.3546  1.1442  3.2311
 3314SOL     MW13256   7.291   8.964   3.576 -0.3228 -0.6114  0.5651
 3315SOL     OW13257   6.879   9.294   9.045 -0.2886 -0.0098 -0.4583
 3315SOL    HW113258   6.961   9.266   9.086 -0.6317  1.0829  1.0494
 3315SOL    HW213259   6.872   9.240   8.966  0.5931 -1.9516  0.7219
 3315SOL     MW13260   6.889   9.283   9.040 -0.2161 -0.1241 -0.0966
 3316SOL     OW13261   3.935   0.234   3.682 -1.2444 -0.0478 -0.0514
 3316SOL    HW113262   3.898   0.299   3.741  2.8066  1.4871  1.1534
 3316SOL    HW213263   3.993   0.283   3.624 -0.3515 -2.2256 -1.1432
 3316SOL     MW13264   3.938   0.249   3.682 -0.5791 -0.1343 -0.0362
 3317SOL     OW13265   5.109   0.033   7.214 -0.0069 -0.0212 -0.1793
 3317SOL    HW113266   5.179   0.043   7.150  0.3637  2.1134  0.4638
 3317SOL    HW213267   5.067  -0.050   7.191  0.7090  0.1935 -2.5844
 3317SOL     MW13268   5.112   0.023   7.202  0.1393  0.2949 -0.4164
 3318SOL     OW13269   4.628   9.689   2.239 -0.0496  0.2278 -0.3140
 3318SOL    HW113270   4.537   9.660   2.237 -0.1611  0.5685 -2.0856
 3318SOL    HW213271   4.678   9.616   2.203  0.1307  0.7212 -1.1079
 3318SOL     MW13272   4.623   9.675   2.234 -0.0404  0.3401 -0.6593
 3319SOL     OW13273   5.206   9.191   7.814 -0.5985  0.4446 -0.2187
 3319SOL    HW113274   5.212   9.232   7.900 -1.7112  1.6470 -0.6825
 3319SOL    HW213275   5.169   9.104   7.832  1.5920 -0.3472  0.7475
 3319SOL     MW13276   5.202   9.185   7.828 -0.4535  0.4998 -0.1511
 3320SOL     OW13277   5.437  10.017   5.779  0.3393 -0.2881 -0.0941
 3320SOL    HW113278   5.508  10.080   5.795  1.1603 -1.1809 -0.1361
 3320SOL    HW213279   5.388  10.054   5.706  1.5309 -0.2797 -0.9066
 3320SOL     MW13280   5.440  10.031   5.772  0.6101 -0.4071 -0.2091
 3321SOL     OW13281   5.693   8.196   8.878 -0.7022  0.1632 -0.1049
 3321SOL    HW113282   5.600   8.199   8.854 -0.4710 -0.3798 -1.1603
 3321SOL    HW213283   5.707   8.106   8.906 -0.1980 -0.1780 -1.3602
 3321SOL     MW13284   5.682   8.184   8.878 -0.6032  0.0442 -0.4159
 3322SOL     OW13285   4.986   9.225   7.028 -0.0333  0.2616 -0.1782
 3322SOL    HW113286   5.054   9.210   6.963 -0.9004  0.1038 -1.0774
 3322SOL    HW213287   5.033   9.254   7.106  0.9996  0.8336 -0.9916
 3322SOL     MW13288   5.002   9.227   7.030 -0.0110  0.3173 -0.4087
 3323SOL     OW13289   5.809   8.570   6.175 -0.0269  0.2387 -0.3631
 3323SOL    HW113290   5.883   8.574   6.235 -0.5598  1.2007  0.2508
 3323SOL    HW213291   5.753   8.501   6.210 -0.5686  1.1177  0.5298
 3323SOL     MW13292   5.811   8.561   6.188 -0.1716  0.4865 -0.1603
 3324SOL     OW13293   6.815   8.774   3.818 -0.0365 -0.4538 -0.5319
 3324SOL    HW113294   6.726   8.776   3.783  0.1052  2.5397 -0.9977
 3324SOL    HW213295   6.821   8.689   3.862 -2.6741 -1.2851 -1.5309
 3324SOL     MW13296   6.804   8.763   3.819 -0.3724 -0.1628 -0.7291
 3325SOL     OW13297   6.907   9.358   3.812 -0.0268  0.3557 -0.8069
 3325SOL    HW113298   6.845   9.286   3.820 -0.3476  0.6818 -0.3115
 3325SOL    HW213299   6.953   9.341   3.730  0.2379 -0.6713 -0.4652
 3325SOL     MW13300   6.905   9.346   3.802 -0.0344  0.2614 -0.6942
 3326SOL     OW13301   7.558   8.614   8.706 -0.0667  0.2884 -0.0168
 3326SOL    HW113302   7.467   8.591   8.686 -0.4348 -0.1041  1.9076
 3326SOL    HW213303   7.603   8.612   8.621 -1.3382 -1.8250 -0.6940
 3326SOL     MW13304   7.552   8.611   8.692 -0.2874 -0.0489  0.1510
 3327SOL     OW13305   6.120   8.725   0.076 -0.2824  0.1291 -0.1524
 3327SOL    HW113306   6.083   8.807   0.045 -0.4877  0.1731  0.2084
 3327SOL    HW213307   6.080   8.658   0.021  1.5552  0.4263 -1.9945
 3327SOL     MW13308   6.110   8.727   0.064 -0.0627  0.1750 -0.3518
 3328SOL     OW13309   6.331   0.081   8.612 -0.3899 -0.3124 -0.7314
 3328SOL    HW113310   6.422   0.093   8.585 -0.0735 -1.4681 -0.2367
 3328SOL    HW213311   6.335   0.076   8.707 -1.0844  0.4514 -0.6570
 3328SOL     MW13312   6.344   0.082   8.621 -0.4408 -0.3651 -0.6548
 3329SOL     OW13313   3.968   9.495   1.932  0.3567 -0.4826 -0.1334
 3329SOL    HW113314   3.872   9.497   1.939  0.2868 -0.0922 -1.0648
 3329SOL    HW213315   3.984   9.475   1.840  1.1523  1.8393 -0.5649
 3329SOL     MW13316   3.957   9.493   1.921  0.4544 -0.1175 -0.3168
 3330SOL     OW13317   4.379   0.241   8.716 -0.1660  0.0590 -0.2733
 3330SOL    HW113318   4.353   0.182   8.787 -1.6001 -0.4445 -1.1751
 3330SOL    HW213319   4.306   0.302   8.708  0.6136  1.0139 -0.4032
 3330SOL     MW13320   4.366   0.241   8.725 -0.2541  0.1198 -0.4121
 3331SOL     OW13321   6.146   1.248   7.124  0.0882 -0.9448  0.3027
 3331SOL    HW113322   6.172   1.232   7.034 -0.2357 -1.1447  0.2421
 3331SOL    HW213323   6.214   1.206   7.177  0.2288 -0.9065  0.1527
 3331SOL     MW13324   6.158   1.240   7.119  0.0635 -0.9665  0.2743
 3332SOL     OW13325   3.941   9.699   2.303  0.9488  0.4083  0.1496
 3332SOL    HW113326   4.030   9.722   2.276  1.8350 -0.3124  2.2468
 3332SOL    HW213327   3.943   9.604   2.314 -0.6279  0.1282 -1.4312
 3332SOL     MW13328   3.953   9.689   2.301  0.8558  0.2737  0.2191
 3333SOL     OW13329   5.517   0.284   6.611 -0.1662  0.0400  0.1972
 3333SOL    HW113330   5.468   0.209   6.646 -0.1467 -0.1453 -0.1657
 3333SOL    HW213331   5.607   0.252   6.602 -0.1988  0.0447 -0.1472
 3333SOL     MW13332   5.522   0.270   6.615 -0.1680  0.0157  0.1020
 3334SOL     OW13333   6.058   1.499   4.822  0.1362 -0.3023  0.4445
 3334SOL    HW113334   6.118   1.564   4.857  0.4024 -0.7210  0.7792
 3334SOL    HW213335   6.097   1.415   4.847 -0.3490 -0.5838  0.2618
 3334SOL     MW13336   6.072   1.496   4.830  0.1067 -0.3966  0.4650
 3335SOL     OW13337   6.093   0.443   5.755  0.4698 -0.0046 -0.6041
 3335SOL    HW113338   6.098   0.393   5.836 -0.0921 -0.8250 -1.0577
 3335SOL    HW213339   6.180   0.435   5.716  0.4784 -0.3665 -0.5114
 3335SOL     MW13340   6.105   0.435   5.761  0.3953 -0.1637 -0.6526
 3336SOL     OW13341   6.015   8.002   2.408 -0.8266  0.1120 -0.4633
 3336SOL    HW113342   6.021   8.006   2.504 -1.9662 -3.6797 -0.0474
 3336SOL    HW213343   6.095   7.956   2.381 -0.5111  1.1520 -1.3669
 3336SOL     MW13344   6.027   7.996   2.417 -0.9375 -0.2583 -0.5289
 3337SOL     OW13345   4.826   0.065   4.447  0.2002  0.4369 -0.1377
 3337SOL    HW113346   4.844   0.127   4.376 -0.6668  0.2708 -0.5222
 3337SOL    HW213347   4.887  -0.008   4.431  0.1151  0.4699 -0.6240
 3337SOL     MW13348   4.837   0.063   4.435  0.0720  0.4190 -0.2549
 3338SOL     OW13349   5.893   1.726   7.341 -0.3553  0.3873 -0.1357
 3338SOL    HW113350   5.912   1.813   7.378  0.1145  1.0371 -1.7889
 3338SOL    HW213351   5.813   1.698   7.385  1.8789 -0.4968  3.8917
 3338SOL     MW13352   5.885   1.734   7.352  0.0086  0.3557  0.1838
 3339SOL     OW13353   6.362   0.662   3.253  0.3497  0.1977  0.3880
 3339SOL    HW113354   6.357   0.617   3.338  2.1437  0.0369  0.4449
 3339SOL    HW213355   6.450   0.699   3.251  0.2277  0.4613 -1.2995
 3339SOL     MW13356   6.373   0.661   3.264  0.5747  0.2116  0.1686
 3340SOL     OW13357   4.294   1.125   7.393 -0.3957  1.0046  0.5282
 3340SOL    HW113358   4.275   1.181   7.319  0.4604 -2.3147 -2.4803
 3340SOL    HW213359   4.212   1.078   7.409 -0.5635  1.6685  1.7099
 3340SOL     MW13360   4.280   1.126   7.385 -0.3030  0.6472  0.2824
 3341SOL     OW13361   5.846   8.570   3.249  0.3298  0.3223  0.3218
 3341SOL    HW113362   5.794   8.536   3.322  0.1175  0.7182  0.3574
 3341SOL    HW213363   5.892   8.493   3.214 -2.9985 -0.8343 -2.0172
 3341SOL     MW13364   5.846   8.555   3.254 -0.1467  0.2199  0.0118
 3342SOL     OW13365   4.213   1.078   4.629 -0.1743 -0.1417  0.4039
 3342SOL    HW113366   4.232   1.099   4.538  1.2479 -1.8228  0.2430
 3342SOL    HW213367   4.137   1.019   4.625  0.3177 -0.7821  0.2095
 3342SOL     MW13368   4.206   1.073   4.616  0.0833 -0.4542  0.3561
 3343SOL     OW13369   5.353   8.685   2.719  0.1681  0.0241  0.3423
 3343SOL    HW113370   5.308   8.614   2.764 -0.2178  0.3584  0.4922
 3343SOL    HW213371   5.412   8.722   2.785 -0.8446  0.9091  0.7702
 3343SOL     MW13372   5.355   8.681   2.734 -0.0201  0.1882  0.4200
 3344SOL     OW13373   4.461   8.515   2.801 -0.3061  0.0169  0.5547
 3344SOL    HW113374   4.410   8.556   2.732  0.1279 -0.4904 -0.0864
 3344SOL    HW213375   4.433   8.558   2.882 -1.1175  0.3295  0.1111
 3344SOL     MW13376   4.450   8.526   2.803 -0.3569 -0.0093  0.4087
 3345SOL     OW13377   6.790   0.626   6.853  0.1871  0.0423 -0.3429
 3345SOL    HW113378   6.815   0.716   6.873  1.7245 -0.7836  1.7813
 3345SOL    HW213379   6.706   0.634   6.808 -1.1816  2.4254  2.3443
 3345SOL     MW13380   6.782   0.639   6.850  0.2098  0.2519  0.3046
 3346SOL     OW13381   6.371   9.806   8.359 -0.1931  0.4995  0.1288
 3346SOL    HW113382   6.319   9.886   8.350 -0.4138  0.9501  3.8285
 3346SOL    HW213383   6.310   9.742   8.396  0.9384 -0.1723  0.8612
 3346SOL     MW13384   6.356   9.808   8.363 -0.0706  0.4697  0.7253
 3347SOL     OW13385   6.261   8.487   5.608 -0.9672  0.5204 -0.1100
 3347SOL    HW113386   6.204   8.492   5.685 -2.2341  1.6006 -1.0756
 3347SOL    HW213387   6.349   8.480   5.644 -1.6951 -1.7964  1.4356
 3347SOL     MW13388   6.265   8.487   5.623 -1.2357  0.3540 -0.0320
 3348SOL     OW13389   7.034   8.557   8.282  0.1432  0.0217 -0.4892
 3348SOL    HW113390   6.978   8.631   8.307  0.2563  0.4758 -1.5345
 3348SOL    HW213391   6.989   8.515   8.209  0.0389 -1.0240  0.1532
 3348SOL     MW13392   7.021   8.562   8.276  0.1444 -0.0579 -0.5434
 3349SOL     OW13393   6.048   7.815   5.680 -0.5452  0.0880  0.5381
 3349SOL    HW113394   6.012   7.868   5.752 -1.1360 -0.1243  0.3973
 3349SOL    HW213395   5.986   7.744   5.668 -0.6772  0.3578 -0.4745
 3349SOL     MW13396   6.035   7.813   5.688 -0.6425  0.0957  0.3829
 3350SOL     OW13397   5.168   1.191  10.093  0.4214  0.5380  0.2765
 3350SOL    HW113398   5.120   1.168  10.173 -0.8125  1.1701 -0.2597
 3350SOL    HW213399   5.195   1.282  10.108 -0.6477  0.9801 -0.4064
 3350SOL     MW13400   5.165   1.200  10.106  0.1115  0.6826  0.1124
 3351SOL     OW13401   7.268   0.813   2.803 -0.2159 -0.4604 -0.1717
 3351SOL    HW113402   7.326   0.886   2.824  1.2754 -1.0987 -1.7399
 3351SOL    HW213403   7.319   0.760   2.741 -2.2274 -1.4523 -1.0726
 3351SOL     MW13404   7.283   0.816   2.798 -0.2859 -0.6798 -0.5040
 3352SOL     OW13405   7.558   0.406   1.306  0.0600 -0.3342 -0.2237
 3352SOL    HW113406   7.606   0.480   1.270 -1.5048  0.5465 -0.6305
 3352SOL    HW213407   7.520   0.439   1.387 -2.7083  0.2468 -1.5967
 3352SOL     MW13408   7.559   0.421   1.312 -0.5232 -0.1375 -0.4632
 3353SOL     OW13409   7.103   1.433   7.294  0.0328  0.2735 -0.6800
 3353SOL    HW113410   7.140   1.423   7.207  1.5277  1.4957 -0.2328
 3353SOL    HW213411   7.170   1.397   7.353  0.1744  1.7331  0.0929
 3353SOL     MW13412   7.117   1.427   7.291  0.2530  0.6344 -0.5158
 3354SOL     OW13413   4.759   0.023   7.920 -0.9029 -0.5982  0.1156
 3354SOL    HW113414   4.710   0.026   7.838 -0.9995 -1.1456  0.1505
 3354SOL    HW213415   4.849   0.002   7.894 -0.7148  0.2248  0.0675
 3354SOL     MW13416   4.765   0.021   7.906 -0.8906 -0.5611  0.1138
 3355SOL     OW13417   6.116   1.111   5.900  0.5712  0.7328 -0.3888
 3355SOL    HW113418   6.086   1.048   5.835 -0.1655 -1.3265  1.7845
 3355SOL    HW213419   6.037   1.163   5.921 -0.0326 -0.6651  0.9941
 3355SOL     MW13420   6.101   1.110   5.894  0.3908  0.2676  0.0898
 3356SOL     OW13421   7.848   0.502   6.166 -0.4586 -0.7860  0.6960
 3356SOL    HW113422   7.848   0.459   6.081 -0.0672 -1.3666  0.9824
 3356SOL    HW213423   7.931   0.476   6.206  0.9739  2.1417 -0.0688
 3356SOL     MW13424   7.859   0.493   6.160 -0.2131 -0.4701  0.6316
 3357SOL     OW13425   6.259   0.037   8.232  0.2878 -0.0141 -0.3734
 3357SOL    HW113426   6.342   0.003   8.197 -0.0039 -0.3387 -0.7446
 3357SOL    HW213427   6.242  -0.018   8.308  0.1843 -0.2369 -0.5565
 3357SOL     MW13428   6.268   0.025   8.238  0.2346 -0.0878 -0.4480
 3358SOL     OW13429   5.371   0.705   6.286 -0.5833  0.9704 -0.6061
 3358SOL    HW113430   5.277   0.693   6.277 -0.4564  0.5190 -1.4748
 3358SOL    HW213431   5.382   0.796   6.311 -1.2509  1.0230 -0.4892
 3358SOL     MW13432   5.360   0.715   6.288 -0.6560  0.9167 -0.7073
 3359SOL     OW13433   6.561   8.776   6.374 -0.1073  0.1308  0.1550
 3359SOL    HW113434   6.511   8.700   6.404 -2.4016 -0.4800 -4.2732
 3359SOL    HW213435   6.629   8.738   6.318  0.2075  1.2477 -0.2430
 3359SOL     MW13436   6.563   8.760   6.370 -0.3737  0.1989 -0.4945
 3360SOL     OW13437   3.956   0.560   7.653 -0.1497 -0.5968  0.2265
 3360SOL    HW113438   3.951   0.609   7.734  0.0240  0.3274 -0.3091
 3360SOL    HW213439   3.913   0.477   7.672 -0.7296 -0.1149  1.0555
 3360SOL     MW13440   3.949   0.555   7.666 -0.2044 -0.4075  0.2660
 3361SOL     OW13441   5.677   8.233   0.200  0.7925 -0.3320  0.4500
 3361SOL    HW113442   5.746   8.168   0.183  0.2366 -0.5314 -1.2781
 3361SOL    HW213443   5.603   8.181   0.233  0.5891 -0.5023 -0.2509
 3361SOL     MW13444   5.676   8.217   0.202  0.6903 -0.3818  0.1231
 3362SOL     OW13445   6.544   8.312   4.139  0.1616 -0.3173 -0.1584
 3362SOL    HW113446   6.494   8.270   4.069  0.2425  0.5125 -0.7350
 3362SOL    HW213447   6.525   8.260   4.217  0.7752 -1.7921 -0.9654
 3362SOL     MW13448   6.534   8.300   4.140  0.2550 -0.4041 -0.3446
 3363SOL     OW13449   5.787   0.435   9.207  0.5647  0.0544  0.1291
 3363SOL    HW113450   5.726   0.505   9.228 -0.1851 -0.3346 -0.7124
 3363SOL    HW213451   5.850   0.475   9.147  1.0650  0.4064  0.8610
 3363SOL     MW13452   5.787   0.450   9.202  0.5312  0.0495  0.1144
 3364SOL     OW13453   6.332   0.923   1.717 -0.4206  0.0906  0.1311
 3364SOL    HW113454   6.276   0.849   1.741  0.8205 -1.4231 -1.4335
 3364SOL    HW213455   6.421   0.893   1.735  0.0779  1.6068  0.4114
 3364SOL     MW13456   6.336   0.909   1.723 -0.1865  0.0910 -0.0418
 3365SOL     OW13457   3.588   9.879   6.057  0.3054 -0.1480  0.3923
 3365SOL    HW113458   3.552   9.955   6.103 -1.0549 -0.6081  0.1638
 3365SOL    HW213459   3.579   9.806   6.119 -0.4952 -0.5439 -0.1541
 3365SOL     MW13460   3.582   9.879   6.071  0.0146 -0.2632  0.2880
 3366SOL     OW13461   4.682   0.573   9.663  0.2975 -0.2897 -0.1838
 3366SOL    HW113462   4.677   0.477   9.666  0.9926 -0.3380 -0.5354
 3366SOL    HW213463   4.735   0.596   9.739  0.8991 -0.2469 -0.6095
 3366SOL     MW13464   4.688   0.563   9.674  0.4720 -0.2904 -0.2884
 3367SOL     OW13465   7.074   9.593   8.770 -0.3879 -0.5429 -1.2553
 3367SOL    HW113466   7.135   9.655   8.809 -1.9602  0.3289 -0.0613
 3367SOL    HW213467   7.049   9.632   8.686  0.8056 -1.0063 -1.8467
 3367SOL     MW13468   7.079   9.607   8.764 -0.4388 -0.4879 -1.1742
 3368SOL     OW13469   7.504   9.061   2.621  0.0567  0.5995  0.0456
 3368SOL    HW113470   7.556   9.030   2.695 -0.1738 -0.4551 -0.2164
 3368SOL    HW213471   7.568   9.086   2.555  0.3053 -2.0857 -0.8485
 3368SOL     MW13472   7.519   9.060   2.622  0.0591  0.0962 -0.1100
 3369SOL     OW13473   4.492   0.482   8.391 -0.6341  0.0883  0.0257
 3369SOL    HW113474   4.478   0.394   8.426 -1.2569  0.3201  0.3664
 3369SOL    HW213475   4.585   0.483   8.365 -0.0096  0.0700  2.1214
 3369SOL     MW13476   4.503   0.470   8.392 -0.6339  0.1171  0.3536
 3370SOL     OW13477   5.757   0.371   9.932  0.2195 -0.0609 -0.2084
 3370SOL    HW113478   5.825   0.336   9.990  0.8627 -1.3385 -1.6342
 3370SOL    HW213479   5.767   0.320   9.852 -2.4118 -0.2508 -0.4916
 3370SOL     MW13480   5.768   0.359   9.929 -0.0481 -0.2584 -0.4384
 3371SOL     OW13481   6.756   0.345   5.613  0.1289  0.4234 -0.4329
 3371SOL    HW113482   6.755   0.253   5.589 -3.1615  0.0099  0.7421
 3371SOL    HW213483   6.754   0.345   5.708 -0.6105  1.6717 -0.4244
 3371SOL     MW13484   6.756   0.333   5.622 -0.4134  0.5357 -0.2736
 3372SOL     OW13485   5.411   1.048  10.108  0.3065  0.4916 -0.5032
 3372SOL    HW113486   5.425   1.047  10.203  0.1304  0.4055 -0.4777
 3372SOL    HW213487   5.323   1.085  10.098  0.6362  1.2576 -0.6700
 3372SOL     MW13488   5.401   1.053  10.120  0.3272  0.5831 -0.5222
 3373SOL     OW13489   5.865   0.536   4.213 -0.4646 -0.6486  0.5887
 3373SOL    HW113490   5.896   0.530   4.304  1.6401  0.1192 -0.0208
 3373SOL    HW213491   5.793   0.598   4.216 -0.4941 -0.7145  1.7436
 3373SOL     MW13492   5.859   0.543   4.226 -0.1854 -0.5542  0.6621
 3374SOL     OW13493   6.351   9.010   9.656  0.4346  0.0484  0.1988
 3374SOL    HW113494   6.365   9.103   9.674  0.7686 -0.3259  2.1099
 3374SOL    HW213495   6.436   8.969   9.672 -0.1722 -0.8272  1.3664
 3374SOL     MW13496   6.364   9.017   9.661  0.3979 -0.1198  0.6131
 3375SOL     OW13497   6.654   1.566   1.213 -0.4790 -0.2730  0.0556
 3375SOL    HW113498   6.653   1.561   1.118  0.2088  0.8554 -0.0300
 3375SOL    HW213499   6.742   1.539   1.238 -0.2427  0.6497  0.2684
 3375SOL     MW13500   6.666   1.562   1.204 -0.3547  0.0030  0.0727
 3376SOL     OW13501   5.935   0.714   6.622  0.5027 -0.2085  0.0028
 3376SOL    HW113502   5.921   0.808   6.638  1.3000 -0.0098 -0.4035
 3376SOL    HW213503   5.848   0.676   6.626  0.1600  0.5605  0.1275
 3376SOL     MW13504   5.921   0.722   6.625  0.5639 -0.0783 -0.0351
 3377SOL     OW13505   4.099   8.982   7.985 -0.1713  0.1173  0.1694
 3377SOL    HW113506   4.080   9.076   7.987 -0.5637  0.1389 -2.0031
 3377SOL    HW213507   4.014   8.940   7.999  0.1179  0.0313  1.8937
 3377SOL     MW13508   4.085   8.989   7.987 -0.1852  0.1087  0.1091
 3378SOL     OW13509   6.167   0.200   3.441  0.2174 -0.6512 -0.0318
 3378SOL    HW113510   6.183   0.165   3.529 -0.0382  2.3450  1.3022
 3378SOL    HW213511   6.159   0.122   3.386 -2.4586 -2.8138  3.0216
 3378SOL     MW13512   6.168   0.185   3.446 -0.1771 -0.5390  0.5587
 3379SOL     OW13513   5.609   1.321   4.600 -0.2402  0.1756  0.2255
 3379SOL    HW113514   5.540   1.372   4.558 -1.9325 -1.3922  0.9929
 3379SOL    HW213515   5.674   1.386   4.626 -0.3033  1.4696 -2.4880
 3379SOL     MW13516   5.608   1.337   4.598 -0.4764  0.1388 -0.0364
 3380SOL     OW13517   6.168   0.978   8.746 -0.0760 -0.3764 -0.3048
 3380SOL    HW113518   6.102   1.007   8.809  0.4201  0.2435 -0.0606
 3380SOL    HW213519   6.250   0.981   8.794  0.2456 -0.3630 -0.8470
 3380SOL     MW13520   6.170   0.982   8.761  0.0340 -0.2912 -0.3449
 3381SOL     OW13521   5.026   8.980   0.644  0.1149  0.0242  0.0613
 3381SOL    HW113522   4.999   9.070   0.625  1.9784  0.8117  0.9001
 3381SOL    HW213523   4.988   8.962   0.730 -2.1052 -0.8495 -1.0286
 3381SOL     MW13524   5.017   8.990   0.653  0.0669  0.0126  0.0275
 3382SOL     OW13525   6.067   8.171   8.148 -0.2349  0.1125 -0.3950
 3382SOL    HW113526   5.989   8.226   8.144  0.5645  1.3662  0.5384
 3382SOL    HW213527   6.057   8.109   8.076 -0.5855  2.2586 -2.2942
 3382SOL     MW13528   6.055   8.170   8.138 -0.1745  0.5700 -0.5250
 3383SOL     OW13529   6.364   8.949   6.643 -0.2849  0.3199 -0.2151
 3383SOL    HW113530   6.428   8.896   6.691 -1.2809 -0.7239  0.0071
 3383SOL    HW213531   6.333   9.013   6.706  0.6506  0.9443 -0.3721
 3383SOL     MW13532   6.369   8.950   6.658 -0.2931  0.2635 -0.2063
 3384SOL     OW13533   5.934   9.463   3.235 -0.1214 -0.3733  0.6953
 3384SOL    HW113534   5.919   9.370   3.214 -2.2661  0.1374 -0.3655
 3384SOL    HW213535   5.973   9.499   3.156 -0.2019 -0.1727  0.7481
 3384SOL     MW13536   5.937   9.455   3.221 -0.4209 -0.2776  0.5596
 3385SOL     OW13537   7.282   1.201   9.855 -0.2168 -0.0630  0.0107
 3385SOL    HW113538   7.207   1.143   9.867  0.2187 -1.0926 -1.9019
 3385SOL    HW213539   7.349   1.167   9.914 -0.5937 -0.3650  0.2642
 3385SOL     MW13540   7.281   1.188   9.865 -0.2089 -0.2422 -0.2126
 3386SOL     OW13541   5.534   7.672   1.574  0.9563  0.3137  0.7287
 3386SOL    HW113542   5.469   7.638   1.635 -1.1509  0.5673 -1.2155
 3386SOL    HW213543   5.533   7.767   1.586 -0.3920  0.4819 -0.4910
 3386SOL     MW13544   5.525   7.680   1.583  0.4913  0.3705  0.3029
 3387SOL     OW13545   4.637   0.714   7.056 -0.2543  0.2323  0.2705
 3387SOL    HW113546   4.708   0.737   6.996  1.7100  0.0765  2.4231
 3387SOL    HW213547   4.663   0.630   7.093 -1.4744  0.2724  1.2591
 3387SOL     MW13548   4.650   0.706   7.053 -0.1542  0.2168  0.6932
 3388SOL     OW13549   7.395   0.701   3.723  0.0835 -0.5954 -0.2214
 3388SOL    HW113550   7.344   0.632   3.679  0.9540 -0.8996 -0.7944
 3388SOL    HW213551   7.356   0.708   3.810  1.1434 -3.1618  0.5421
 3388SOL     MW13552   7.383   0.692   3.729  0.3433 -0.9818 -0.1957
 3389SOL     OW13553   6.791   9.016   9.637 -0.5902  0.2699 -0.1226
 3389SOL    HW113554   6.714   8.963   9.653  0.0999 -0.0661  2.4192
 3389SOL    HW213555   6.833   8.974   9.561 -0.7821 -2.0274  0.9512
 3389SOL     MW13556   6.787   9.003   9.629 -0.5231 -0.0845  0.3640
 3390SOL     OW13557   7.068   8.274   2.243 -0.1084  0.2053 -0.3271
 3390SOL    HW113558   7.099   8.346   2.299  1.3935 -0.7760  0.1649
 3390SOL    HW213559   6.976   8.265   2.265 -0.3755  2.0496 -0.4939
 3390SOL     MW13560   7.060   8.283   2.253  0.0578  0.3214 -0.2834
 3391SOL     OW13561   4.602   8.299   3.976 -0.0404 -0.7077 -0.4939
 3391SOL    HW113562   4.687   8.293   3.933  0.1003  1.5233 -0.6551
 3391SOL    HW213563   4.540   8.272   3.908  0.2395  2.1081 -2.0516
 3391SOL     MW13564   4.605   8.295   3.961  0.0162 -0.0285 -0.7252
 3392SOL     OW13565   5.426   1.718   0.963 -0.2439 -0.2728  0.6690
 3392SOL    HW113566   5.410   1.624   0.962  0.1563 -0.3450  0.6991
 3392SOL    HW213567   5.414   1.745   0.872 -1.5616 -0.1313  0.8625
 3392SOL     MW13568   5.422   1.709   0.950 -0.3674 -0.2635  0.6991
 3393SOL     OW13569   7.887   9.099   1.558  0.8947  0.2554 -0.3750
 3393SOL    HW113570   7.906   9.081   1.650  0.0160 -1.3920 -0.4769
 3393SOL    HW213571   7.819   9.036   1.534  0.4412  1.2654 -1.9123
 3393SOL     MW13572   7.881   9.088   1.567  0.7154  0.1696 -0.5956
 3394SOL     OW13573   5.149   8.760   9.860 -0.3668 -0.1290  0.3406
 3394SOL    HW113574   5.233   8.716   9.844 -1.3981 -1.6736 -1.2305
 3394SOL    HW213575   5.119   8.724   9.943  0.1101 -0.2552  0.4626
 3394SOL     MW13576   5.156   8.749   9.869 -0.4414 -0.3539  0.1456
 3395SOL     OW13577   5.513   8.506   9.583 -0.4589  0.2266  0.0334
 3395SOL    HW113578   5.532   8.413   9.597  1.9889  0.5373 -0.7433
 3395SOL    HW213579   5.552   8.550   9.658 -0.3882  0.7100 -0.2810
 3395SOL     MW13580   5.521   8.499   9.595 -0.1199  0.3334 -0.1134
 3396SOL     OW13581   5.139   0.820   3.599  0.0522  0.1463 -0.1243
 3396SOL    HW113582   5.070   0.771   3.644 -0.1522  1.9537  1.6708
 3396SOL    HW213583   5.094   0.898   3.565  0.9523  0.6816 -0.1110
 3396SOL     MW13584   5.124   0.824   3.601  0.1458  0.4616  0.1191
 3397SOL     OW13585   7.461   1.236   7.926  0.4202  0.1395  0.4525
 3397SOL    HW113586   7.402   1.160   7.931  0.0441  0.4828  1.5993
 3397SOL    HW213587   7.509   1.234   8.009  2.0835 -0.1562 -0.4809
 3397SOL     MW13588   7.459   1.226   7.938  0.5934  0.1459  0.4812
 3398SOL     OW13589   5.752   9.010   7.216  0.3877 -0.0847 -0.2746
 3398SOL    HW113590   5.791   9.001   7.129 -0.3225 -1.3982 -0.4882
 3398SOL    HW213591   5.826   9.029   7.274  1.3543 -2.2025 -0.7099
 3398SOL     MW13592   5.767   9.012   7.212  0.4222 -0.5465 -0.3619
 3399SOL     OW13593   5.844   8.193   2.235  0.4904 -0.1100  0.1127
 3399SOL    HW113594   5.761   8.145   2.224  0.1206  0.0069  1.9843
 3399SOL    HW213595   5.909   8.124   2.252  0.5212 -0.1185 -0.0363
 3399SOL     MW13596   5.841   8.177   2.236  0.4448 -0.0954  0.3445
 3400SOL     OW13597   6.055   8.358   7.716 -0.3379  0.0871  0.0175
 3400SOL    HW113598   6.028   8.362   7.624 -2.7073  1.9529  0.6989
 3400SOL    HW213599   6.095   8.443   7.733  0.1232 -0.2608  0.7398
 3400SOL     MW13600   6.057   8.370   7.706 -0.5947  0.2914  0.2064
 3401SOL     OW13601   6.596   7.866   8.201 -0.2114 -0.2744 -0.0595
 3401SOL    HW113602   6.681   7.846   8.238  0.8107  0.8183 -1.7042
 3401SOL    HW213603   6.560   7.781   8.176 -0.5968 -0.9629  2.5598
 3401SOL     MW13604   6.602   7.852   8.203 -0.1257 -0.2200  0.0717
 3402SOL     OW13605   6.695   1.494   8.138  0.0516 -0.3139  0.3904
 3402SOL    HW113606   6.625   1.442   8.098  0.4246 -1.7077  1.4835
 3402SOL    HW213607   6.775   1.444   8.121  0.8125  1.1782 -0.6951
 3402SOL     MW13608   6.696   1.481   8.130  0.2042 -0.3007  0.3914
 3403SOL     OW13609   4.444   0.714   2.659 -0.2747 -0.2986 -0.6064
 3403SOL    HW113610   4.469   0.755   2.576 -0.5574  2.7469  0.6997
 3403SOL    HW213611   4.527   0.700   2.705 -0.3058  1.1793 -0.0595
 3403SOL     MW13612   4.459   0.717   2.654 -0.3169  0.3102 -0.3570
 3404SOL     OW13613   5.508   9.853   1.728 -0.5041 -0.0737  0.3874
 3404SOL    HW113614   5.528   9.759   1.726 -1.6955 -0.3853  1.5412
 3404SOL    HW213615   5.582   9.892   1.774  0.3083 -0.3409 -0.6507
 3404SOL     MW13616   5.520   9.845   1.734 -0.5551 -0.1516  0.4030
 3405SOL     OW13617   5.740   8.082   1.348 -0.3678 -0.3290  0.1228
 3405SOL    HW113618   5.781   8.159   1.388  0.0924 -0.8451  0.6762
 3405SOL    HW213619   5.802   8.055   1.280 -0.8768  0.2078 -0.5698
 3405SOL     MW13620   5.754   8.089   1.344 -0.3744 -0.3262  0.1041
 3406SOL     OW13621   4.641   0.712   1.101 -0.1268 -0.2175 -0.3596
 3406SOL    HW113622   4.648   0.808   1.105 -2.4506 -0.0298  0.9263
 3406SOL    HW213623   4.649   0.692   1.008  1.5616  1.0788 -0.5477
 3406SOL     MW13624   4.643   0.722   1.089 -0.2123 -0.0178 -0.2119
 3407SOL     OW13625   6.506   1.648   7.640 -0.0436 -0.6127 -0.8502
 3407SOL    HW113626   6.503   1.662   7.735 -0.2163 -1.6852 -0.6746
 3407SOL    HW213627   6.595   1.619   7.623 -0.4098 -1.8683 -0.7639
 3407SOL     MW13628   6.517   1.646   7.651 -0.1162 -0.9260 -0.8149
 3408SOL     OW13629   4.891   0.879   0.854  0.6466 -0.0229 -0.2868
 3408SOL    HW113630   4.809   0.884   0.804  0.0272  1.4223  0.7961
 3408SOL    HW213631   4.949   0.942   0.811  1.0766 -0.7466 -0.7987
 3408SOL     MW13632   4.888   0.888   0.841  0.6211  0.0742 -0.2100
 3409SOL     OW13633   6.497   7.813   6.350  0.3766 -0.4101  0.3375
 3409SOL    HW113634   6.425   7.864   6.314 -0.5388 -1.3429  0.7945
 3409SOL    HW213635   6.541   7.776   6.274 -0.4883 -0.9614  0.0923
 3409SOL     MW13636   6.493   7.815   6.335  0.1370 -0.6098  0.3660
 3410SOL     OW13637   4.176   9.504   3.752  0.0825  0.0773 -0.0535
 3410SOL    HW113638   4.270   9.523   3.747 -0.0319  0.4759 -0.7657
 3410SOL    HW213639   4.151   9.477   3.664 -0.3259 -0.7627  0.3113
 3410SOL     MW13640   4.185   9.503   3.740  0.0122  0.0179 -0.1002
 3411SOL     OW13641   6.320   8.580   7.136 -0.6025  0.3428  0.2593
 3411SOL    HW113642   6.328   8.675   7.142  1.5428  0.2582 -0.5885
 3411SOL    HW213643   6.244   8.559   7.190 -1.0217  2.5145  0.5878
 3411SOL     MW13644   6.311   8.590   7.144 -0.3702  0.6237  0.1894
 3412SOL     OW13645   5.111   9.607   1.510 -0.6251 -0.3410 -0.0423
 3412SOL    HW113646   5.088   9.531   1.457 -2.1848  0.3606 -0.4347
 3412SOL    HW213647   5.125   9.572   1.597 -2.1863 -1.0027 -0.0187
 3412SOL     MW13648   5.110   9.592   1.514 -1.0451 -0.3356 -0.0919
 3413SOL     OW13649   5.949   8.355   7.045 -0.4420  0.7622 -0.2770
 3413SOL    HW113650   5.936   8.449   7.038  0.8470  0.9610 -0.2598
 3413SOL    HW213651   5.959   8.325   6.955 -0.2888  0.7318 -0.2502
 3413SOL     MW13652   5.949   8.364   7.032 -0.2479  0.7849 -0.2711
 3414SOL     OW13653   3.872   9.549   4.136 -0.1357 -0.4109 -0.2710
 3414SOL    HW113654   3.961   9.518   4.119 -0.0140 -1.0304  1.3115
 3414SOL    HW213655   3.843   9.498   4.211 -2.2046 -0.8913 -1.3180
 3414SOL     MW13656   3.880   9.538   4.144 -0.3978 -0.5589 -0.1989
 3415SOL     OW13657   6.270   7.648   7.228 -0.4528 -0.4328  0.0485
 3415SOL    HW113658   6.334   7.653   7.157 -1.4359  1.4716 -0.7689
 3415SOL    HW213659   6.299   7.573   7.281  0.4155 -1.8036 -2.2236
 3415SOL     MW13660   6.283   7.639   7.226 -0.4682 -0.3610 -0.3673
 3416SOL     OW13661   8.035   9.405   6.130 -0.2430  0.6124 -0.2786
 3416SOL    HW113662   7.978   9.464   6.180 -0.4582  0.3953 -0.2634
 3416SOL    HW213663   8.045   9.328   6.187 -0.1935  0.5176 -0.4149
 3416SOL     MW13664   8.029   9.402   6.144 -0.2653  0.5704 -0.2949
 3417SOL     OW13665   5.410   0.042   0.449 -0.2199  0.1340  0.0752
 3417SOL    HW113666   5.372   0.090   0.523  2.3251  1.9068  0.3800
 3417SOL    HW213667   5.412  -0.049   0.477 -3.6115  0.0038  0.2024
 3417SOL     MW13668   5.405   0.036   0.463 -0.3338  0.3551  0.1333
 3418SOL     OW13669   4.287   8.951   9.021 -0.2793 -0.4191 -0.7150
 3418SOL    HW113670   4.291   8.862   9.056  1.4798 -1.3584 -3.0753
 3418SOL    HW213671   4.195   8.965   9.000 -0.9952 -0.6951  1.8855
 3418SOL     MW13672   4.275   8.941   9.023 -0.1389 -0.5826 -0.6827
 3419SOL     OW13673   7.645   9.882   3.567 -0.1702  0.3588  0.2376
 3419SOL    HW113674   7.603   9.920   3.490 -0.1613 -0.9335 -0.4213
 3419SOL    HW213675   7.617   9.939   3.639 -0.2077  1.5641 -0.6968
 3419SOL     MW13676   7.635   9.895   3.567 -0.1740  0.3471  0.0232
 3420SOL     OW13677   4.769   8.590   3.674  0.6488  0.1830  0.1491
 3420SOL    HW113678   4.726   8.649   3.613 -0.5003  0.9174  1.6055
 3420SOL    HW213679   4.754   8.629   3.760  2.1318 -0.8639  0.9212
 3420SOL     MW13680   4.761   8.603   3.678  0.6938  0.1409  0.4490
 3421SOL     OW13681   3.988   8.847   7.369 -0.5799 -0.3900 -0.1706
 3421SOL    HW113682   3.980   8.785   7.297 -1.1957 -1.5632  0.8752
 3421SOL    HW213683   4.082   8.851   7.387 -0.4278 -0.1554 -0.9604
 3421SOL     MW13684   4.000   8.839   7.361 -0.6423 -0.5163 -0.1361
 3422SOL     OW13685   6.193   9.454   1.789  0.2938 -0.3055 -0.7632
 3422SOL    HW113686   6.269   9.455   1.848 -1.4497  0.2502  1.6460
 3422SOL    HW213687   6.150   9.371   1.806 -0.3621 -0.0413 -1.0924
 3422SOL     MW13688   6.197   9.443   1.799 -0.0291 -0.1952 -0.4833
 3423SOL     OW13689   4.847   1.367   2.764  0.4850  0.1806 -0.2905
 3423SOL    HW113690   4.795   1.332   2.692  0.7145  0.8780 -0.8035
 3423SOL    HW213691   4.783   1.405   2.824  0.3131 -0.1360 -0.2717
 3423SOL     MW13692   4.832   1.367   2.762  0.4928  0.2319 -0.3570
 3424SOL     OW13693   6.671   0.881   3.813  0.1270 -0.0630  0.3614
 3424SOL    HW113694   6.585   0.858   3.778  0.5022 -0.9863  0.0141
 3424SOL    HW213695   6.716   0.797   3.824  0.5416  0.3154  1.7225
 3424SOL     MW13696   6.665   0.866   3.809  0.2333 -0.1363  0.4979
 3425SOL     OW13697   6.194   9.037   4.241 -0.0485  0.0841 -0.0749
 3425SOL    HW113698   6.231   9.058   4.155 -0.3396  1.8835  0.2062
 3425SOL    HW213699   6.121   9.098   4.251 -1.6980 -1.8624  0.3614
 3425SOL     MW13700   6.189   9.048   4.230 -0.3096  0.0643  0.0216
 3426SOL     OW13701   7.641   9.318   0.626 -0.9610  0.4307 -0.2928
 3426SOL    HW113702   7.685   9.276   0.699  0.1470 -0.2858 -1.3428
 3426SOL    HW213703   7.655   9.412   0.640 -0.0891  0.2637  0.0105
 3426SOL     MW13704   7.649   9.325   0.638 -0.6946  0.3118 -0.3933
 3427SOL     OW13705   4.420   9.901   8.351 -0.6296 -0.5411  0.2341
 3427SOL    HW113706   4.473   9.824   8.331  2.2807  1.7603 -1.5795
 3427SOL    HW213707   4.359   9.908   8.278 -0.1272 -0.4578 -0.1734
 3427SOL     MW13708   4.419   9.891   8.339 -0.1703 -0.2202 -0.0648
 3428SOL     OW13709   4.130   1.242   0.138 -0.0729 -0.0754  0.1042
 3428SOL    HW113710   4.073   1.201   0.073 -0.5220  0.9969 -0.2079
 3428SOL    HW213711   4.214   1.251   0.094  0.8099 -2.8522  0.9955
 3428SOL     MW13712   4.134   1.238   0.123 -0.0145 -0.3048  0.1821
 3429SOL     OW13713   3.846   9.838   0.771  0.0574  0.5106  0.7060
 3429SOL    HW113714   3.859   9.843   0.677 -1.1833  0.5770  0.5120
 3429SOL    HW213715   3.863   9.926   0.803 -0.0531  0.6201  0.4636
 3429SOL     MW13716   3.850   9.850   0.763 -0.1244  0.5343  0.6473
 3430SOL     OW13717   7.098   9.953   6.408 -0.8631  0.0773 -0.3081
 3430SOL    HW113718   7.061  10.001   6.483 -0.5528  0.6122 -0.4871
 3430SOL    HW213719   7.146   9.881   6.447 -1.5899 -0.2726 -0.0432
 3430SOL     MW13720   7.100   9.950   6.423 -0.9192  0.1022 -0.2965
 3431SOL     OW13721   6.174   0.654   2.784 -0.3363  0.2601 -0.2769
 3431SOL    HW113722   6.196   0.743   2.758  1.6052 -0.5933 -1.7480
 3431SOL    HW213723   6.241   0.630   2.848 -0.7614 -0.2027  0.0079
 3431SOL     MW13724   6.186   0.662   2.789 -0.1322  0.0829 -0.4365
 3432SOL     OW13725   6.528   0.522   0.092 -0.2695  0.0129 -0.3423
 3432SOL    HW113726   6.486   0.495   0.011  0.9229  0.5345 -1.1724
 3432SOL    HW213727   6.573   0.604   0.069  0.4807 -0.0823  0.7180
 3432SOL     MW13728   6.528   0.530   0.078 -0.0081  0.0703 -0.3113
 3433SOL     OW13729   4.721   9.096   6.972  0.1582 -0.1761 -0.1470
 3433SOL    HW113730   4.797   9.154   6.978  0.0646  0.1494 -1.6690
 3433SOL    HW213731   4.753   9.011   7.002  0.5212  0.4422  1.3133
 3433SOL     MW13732   4.736   9.092   6.977  0.1945 -0.0491 -0.1553
 3434SOL     OW13733   6.448   9.041   0.188  0.1311 -0.2187 -0.0688
 3434SOL    HW113734   6.522   9.036   0.249 -0.2428 -1.1896  0.3196
 3434SOL    HW213735   6.475   9.106   0.123  1.0106 -0.0038  0.4952
 3434SOL     MW13736   6.462   9.049   0.187  0.1992 -0.3204  0.0593
 3435SOL     OW13737   6.816  10.069   7.420  0.4492 -0.1859  0.3365
 3435SOL    HW113738   6.816  10.136   7.488  1.1099  0.7727 -0.5737
 3435SOL    HW213739   6.728  10.031   7.424  1.1763 -1.9382  3.3457
 3435SOL     MW13740   6.804  10.073   7.430  0.6360 -0.2927  0.6190
 3436SOL     OW13741   5.690   8.742   6.329 -0.2593 -0.0183  0.5132
 3436SOL    HW113742   5.733   8.678   6.273 -0.9466 -0.5029  0.5263
 3436SOL    HW213743   5.657   8.809   6.268  0.1456  0.1439  0.4685
 3436SOL     MW13744   5.691   8.743   6.313 -0.2973 -0.0617  0.5090
 3437SOL     OW13745   4.403   9.329   2.806 -0.2897 -0.2095  0.0987
 3437SOL    HW113746   4.449   9.337   2.722  2.3428  0.2107  1.4724
 3437SOL    HW213747   4.360   9.243   2.802 -3.0094  1.0807 -2.8459
 3437SOL     MW13748   4.403   9.318   2.794 -0.3014  0.0207 -0.1127
 3438SOL     OW13749   4.594   1.023   2.472  0.4644  0.3045  0.0371
 3438SOL    HW113750   4.511   1.030   2.519  0.3733  1.3304 -0.2498
 3438SOL    HW213751   4.573   1.050   2.383  0.8107 -0.8314 -0.4092
 3438SOL     MW13752   4.580   1.027   2.466  0.4988  0.2897 -0.0615
 3439SOL     OW13753   4.418   8.419   0.610 -0.2928 -0.3497  0.5775
 3439SOL    HW113754   4.327   8.447   0.618  0.0050  0.7477  0.3451
 3439SOL    HW213755   4.459   8.446   0.692  0.2047  0.7471 -0.0082
 3439SOL     MW13756   4.412   8.427   0.622 -0.1858 -0.0544  0.4674
 3440SOL     OW13757   7.270   8.279   4.665 -0.0157 -0.0699 -0.1291
 3440SOL    HW113758   7.292   8.372   4.670  0.9699 -0.2525 -0.7290
 3440SOL    HW213759   7.296   8.244   4.751  0.9124 -0.0307 -0.3769
 3440SOL     MW13760   7.277   8.287   4.677  0.2418 -0.0892 -0.2432
 3441SOL     OW13761   7.848   9.858   4.315  0.5731  0.2690  0.2829
 3441SOL    HW113762   7.798   9.925   4.269 -0.9833  0.7847  2.5366
 3441SOL    HW213763   7.794   9.779   4.310  0.3410  0.3539  1.2567
 3441SOL     MW13764   7.834   9.856   4.308  0.3324  0.3498  0.7173
 3442SOL     OW13765   5.572   7.815   5.344  0.0825 -0.1296 -0.3119
 3442SOL    HW113766   5.638   7.811   5.275 -0.4625  0.6065 -0.8755
 3442SOL    HW213767   5.582   7.902   5.383 -0.3442 -0.1311 -0.1881
 3442SOL     MW13768   5.582   7.826   5.340 -0.0483 -0.0307 -0.3711
 3443SOL     OW13769   5.916   1.950   7.680 -0.2181  0.4726 -0.1549
 3443SOL    HW113770   5.873   1.870   7.708  2.1087 -0.6526  0.5032
 3443SOL    HW213771   5.959   1.983   7.759  1.2151  0.7563 -1.0125
 3443SOL     MW13772   5.916   1.944   7.695  0.2879  0.3594 -0.1817
 3444SOL     OW13773   8.093   0.429   6.274 -0.2892  0.1808 -0.2391
 3444SOL    HW113774   8.090   0.344   6.317 -1.2715  0.9168  1.2853
 3444SOL    HW213775   8.095   0.492   6.347  2.3097  1.4503 -1.3041
 3444SOL     MW13776   8.093   0.426   6.290 -0.0717  0.4507 -0.1773
 3445SOL     OW13777   6.526   9.046   8.477  0.7558  0.0535 -0.6721
 3445SOL    HW113778   6.556   8.961   8.444  1.5338  0.8135 -1.9981
 3445SOL    HW213779   6.484   9.025   8.561  2.6857 -1.4031  0.0233
 3445SOL     MW13780   6.524   9.032   8.484  1.1202 -0.0402 -0.7570
 3446SOL     OW13781   6.547   1.881   0.844 -0.6152 -0.2284  0.2511
 3446SOL    HW113782   6.634   1.885   0.883 -0.6258  0.5255  0.1998
 3446SOL    HW213783   6.544   1.795   0.802  0.6059  0.2717 -0.9330
 3446SOL     MW13784   6.558   1.870   0.844 -0.4523 -0.0596  0.0848
 3447SOL     OW13785   4.989   9.707   8.731  0.2361  0.1479 -0.3799
 3447SOL    HW113786   4.965   9.778   8.672  0.7378  0.6621  0.0192
 3447SOL    HW213787   4.981   9.628   8.678 -0.2744  0.5044 -0.8473
 3447SOL     MW13788   4.985   9.706   8.716  0.2349  0.2650 -0.3891
 3448SOL     OW13789   7.906   0.645   9.423 -0.1365 -0.2386  0.2738
 3448SOL    HW113790   7.904   0.556   9.458 -1.1619 -0.2653  0.1848
 3448SOL    HW213791   7.931   0.700   9.497 -0.1162 -0.5376  0.4904
 3448SOL     MW13792   7.909   0.640   9.437 -0.2718 -0.2824  0.2910
 3449SOL     OW13793   5.738   0.782   2.012  0.1112  0.7409 -0.0426
 3449SOL    HW113794   5.735   0.869   1.973  1.3828  1.6146  1.6960
 3449SOL    HW213795   5.806   0.787   2.078 -1.2580 -0.9375  1.6159
 3449SOL     MW13796   5.747   0.794   2.015  0.0981  0.6326  0.4146
 3450SOL     OW13797   3.928  10.103   0.324 -0.2874 -0.1317 -0.2524
 3450SOL    HW113798   3.887  10.171   0.270  0.6661  0.3545 -0.3776
 3450SOL    HW213799   4.005  10.146   0.362 -0.7656 -0.5428  1.2726
 3450SOL     MW13800   3.933  10.118   0.322 -0.2234 -0.1216 -0.0640
 3451SOL     OW13801   5.812   8.197   5.135 -0.0610 -0.4377 -0.0789
 3451SOL    HW113802   5.859   8.230   5.058 -1.5622  2.3031  0.0532
 3451SOL    HW213803   5.879   8.156   5.189  1.4843 -0.0558 -1.6405
 3451SOL     MW13804   5.827   8.196   5.132 -0.0550 -0.0174 -0.2713
 3452SOL     OW13805   4.597   0.036   5.748 -0.2715 -0.0532  0.4151
 3452SOL    HW113806   4.683   0.056   5.710 -0.9521  1.9146 -0.2079
 3452SOL    HW213807   4.564  -0.035   5.694  0.3132  0.2469 -0.3729
 3452SOL     MW13808   4.604   0.029   5.736 -0.2844  0.2520  0.2252
 3453SOL     OW13809   6.521   1.710   8.580  0.1622 -0.2069  0.0868
 3453SOL    HW113810   6.564   1.657   8.513  1.1656 -1.2308  1.4749
 3453SOL    HW213811   6.577   1.701   8.657 -0.7969  1.1707  0.9922
 3453SOL     MW13812   6.534   1.701   8.581  0.1681 -0.1593  0.3954
 3454SOL     OW13813   5.882   9.821   7.733  0.3751 -0.1086  0.0992
 3454SOL    HW113814   5.976   9.822   7.716  0.6722 -1.8224  1.3506
 3454SOL    HW213815   5.872   9.862   7.819  0.0222 -0.2480  0.1264
 3454SOL     MW13816   5.894   9.827   7.742  0.3676 -0.3580  0.2713
 3455SOL     OW13817   6.032   1.026   1.196 -0.2023 -0.4954 -0.2447
 3455SOL    HW113818   5.955   1.018   1.140 -0.1849  0.1952 -0.3835
 3455SOL    HW213819   6.004   1.084   1.267  0.1399 -0.3624 -0.2166
 3455SOL     MW13820   6.018   1.033   1.198 -0.1539 -0.3846 -0.2596
 3456SOL     OW13821   6.328   1.080   6.085 -0.1283  0.1529  0.7797
 3456SOL    HW113822   6.252   1.088   6.027 -1.3120  0.8206  2.3310
 3456SOL    HW213823   6.307   1.005   6.141  0.2258  0.4942  1.3825
 3456SOL     MW13824   6.315   1.071   6.085 -0.2399  0.2887  1.0696
 3457SOL     OW13825   4.965   7.988   4.466  0.2295  0.4349 -0.1326
 3457SOL    HW113826   4.895   8.045   4.499  1.2101  1.6240 -0.0620
 3457SOL    HW213827   4.982   8.018   4.377 -0.7320 -1.1966 -0.9170
 3457SOL     MW13828   4.958   8.000   4.459  0.2321  0.3754 -0.2286
 3458SOL     OW13829   4.890   9.393   6.812 -0.2273  0.7018 -0.5710
 3458SOL    HW113830   4.799   9.422   6.813 -0.4383  0.0572  0.3291
 3458SOL    HW213831   4.906   9.361   6.901  1.5533  2.8351 -0.0296
 3458SOL     MW13832   4.880   9.393   6.824 -0.0160  0.9022 -0.3770
 3459SOL     OW13833   4.189   0.800   2.720 -0.2303 -0.1370 -0.2913
 3459SOL    HW113834   4.150   0.741   2.785  2.8472 -0.2244  1.6306
 3459SOL    HW213835   4.268   0.754   2.690 -0.5408  0.7673 -2.7701
 3459SOL     MW13836   4.194   0.786   2.725  0.1421 -0.0270 -0.3663
 3460SOL     OW13837   7.674   0.485   0.920  0.8795 -0.5418  0.2378
 3460SOL    HW113838   7.641   0.575   0.918  0.7109 -0.6116 -0.4076
 3460SOL    HW213839   7.733   0.483   0.996  1.0712  0.1789  0.1229
 3460SOL     MW13840   7.678   0.497   0.930  0.8826 -0.4542  0.1354
 3461SOL     OW13841   5.102   9.849   9.215 -0.4427 -0.6670  0.4787
 3461SOL    HW113842   5.194   9.847   9.188 -0.6532 -0.9494 -0.2543
 3461SOL    HW213843   5.057   9.793   9.151 -1.8548  2.9671 -2.0425
 3461SOL     MW13844   5.108   9.841   9.203 -0.6610 -0.2159  0.0407
 3462SOL     OW13845   5.564   0.290   7.807  0.2408 -0.7617  0.2967
 3462SOL    HW113846   5.522   0.339   7.737 -1.5971 -0.1553  1.7369
 3462SOL    HW213847   5.505   0.217   7.825  1.3158 -1.6459  0.3821
 3462SOL     MW13848   5.551   0.287   7.800  0.1382 -0.7991  0.5020
 3463SOL     OW13849   5.513   0.031   8.131 -0.4142 -0.2442 -0.1857
 3463SOL    HW113850   5.609   0.035   8.131 -0.4156  0.2344  1.0992
 3463SOL    HW213851   5.493  -0.056   8.164 -0.3878  0.5907  2.2199
 3463SOL     MW13852   5.523   0.020   8.135 -0.4108 -0.0674  0.3110
 3464SOL     OW13853   7.343   8.329   4.108 -0.1421  0.3055 -0.7755
 3464SOL    HW113854   7.416   8.364   4.057  1.1591 -1.0700  0.0479
 3464SOL    HW213855   7.297   8.272   4.047  1.0640 -0.8784 -0.6332
 3464SOL     MW13856   7.347   8.326   4.093  0.1953 -0.0390 -0.6455
 3465SOL     OW13857   6.310   7.866   1.311  0.3842  0.1479  0.0761
 3465SOL    HW113858   6.297   7.960   1.325 -1.2031  0.0971 -0.8616
 3465SOL    HW213859   6.313   7.829   1.399 -1.9139  0.7386  0.4655
 3465SOL     MW13860   6.309   7.874   1.325 -0.1387  0.2206  0.0023
 3466SOL     OW13861   7.257   0.248   2.164  0.2817  0.4634 -0.2951
 3466SOL    HW113862   7.193   0.272   2.096  0.2330  1.6039  0.1341
 3466SOL    HW213863   7.342   0.258   2.121  0.2488  1.1212 -0.2141
 3466SOL     MW13864   7.260   0.253   2.149  0.2707  0.7054 -0.2265
 3467SOL     OW13865   6.467   0.306   7.147 -0.1777 -0.1578  0.1321
 3467SOL    HW113866   6.547   0.283   7.101 -0.4937 -1.0667  0.0139
 3467SOL    HW213867   6.496   0.339   7.232  0.3155 -0.5305  0.1075
 3467SOL     MW13868   6.482   0.307   7.153 -0.1538 -0.3303  0.1129
 3468SOL     OW13869   7.618   1.242   8.163 -0.1253 -0.1025  0.0063
 3468SOL    HW113870   7.563   1.316   8.186 -0.1358  0.3562 -1.4226
 3468SOL    HW213871   7.599   1.176   8.230 -2.1245  0.1789 -0.2388
 3468SOL     MW13872   7.608   1.243   8.175 -0.3958 -0.0029 -0.2190
 3469SOL     OW13873   7.350  10.012   4.421  0.4834  0.4493 -0.3799
 3469SOL    HW113874   7.277   9.974   4.373  1.1134 -1.1970 -0.0960
 3469SOL    HW213875   7.403  10.056   4.354 -1.3105  2.6749 -0.4369
 3469SOL     MW13876   7.347  10.013   4.406  0.3268  0.5272 -0.3493
 3470SOL     OW13877   6.693   1.482   4.613 -0.0173 -0.8241  0.1498
 3470SOL    HW113878   6.645   1.402   4.593 -2.7879  0.7306  0.0559
 3470SOL    HW213879   6.711   1.477   4.707 -0.4625 -1.3864  0.2064
 3470SOL     MW13880   6.689   1.470   4.623 -0.4501 -0.6906  0.1448
 3471SOL     OW13881   5.513   8.687   1.064  0.5695 -0.1419  0.7007
 3471SOL    HW113882   5.545   8.683   0.973  2.6173 -0.1165  1.3624
 3471SOL    HW213883   5.441   8.750   1.061  0.3120 -0.4557 -0.9762
 3471SOL     MW13884   5.508   8.695   1.051  0.8105 -0.1807  0.5641
 3472SOL     OW13885   6.502   1.673   4.474 -0.1495 -0.1632 -0.0509
 3472SOL    HW113886   6.421   1.667   4.523 -0.4050 -2.1618 -0.6211
 3472SOL    HW213887   6.564   1.620   4.523  0.4840  0.3775 -0.2486
 3472SOL     MW13888   6.500   1.665   4.487 -0.0986 -0.3594 -0.1542
 3473SOL     OW13889   6.316   1.736   0.397  0.0755  0.2102 -0.1267
 3473SOL    HW113890   6.277   1.705   0.479  0.8422 -3.3455 -0.9304
 3473SOL    HW213891   6.402   1.769   0.422  0.6022 -1.5338  0.4795
 3473SOL     MW13892   6.322   1.737   0.411  0.2496 -0.5030 -0.1533
 3474SOL     OW13893   7.377   0.424   6.529 -0.0362  0.5687  0.1938
 3474SOL    HW113894   7.453   0.470   6.565 -0.3628 -0.7979  2.8743
 3474SOL    HW213895   7.383   0.336   6.567 -3.0589  0.4739  0.6655
 3474SOL     MW13896   7.388   0.418   6.539 -0.4869  0.3720  0.6180
 3475SOL     OW13897   7.393   1.195   5.845  0.0955  0.0333 -0.1922
 3475SOL    HW113898   7.383   1.131   5.775  1.9663 -0.0423 -0.4421
 3475SOL    HW213899   7.469   1.165   5.895 -0.4068  0.8002  1.1007
 3475SOL     MW13900   7.402   1.182   5.842  0.2797  0.1263 -0.0518
 3476SOL     OW13901   4.051   9.955   2.847  0.4437  0.1077  0.0191
 3476SOL    HW113902   4.044   9.861   2.864 -0.0809  0.2064  0.3644
 3476SOL    HW213903   4.072   9.994   2.932  1.4799  0.2299 -0.2710
 3476SOL     MW13904   4.053   9.948   2.861  0.5126  0.1374  0.0265
 3477SOL     OW13905   7.628   8.836   1.127  1.1404 -0.9386  0.3599
 3477SOL    HW113906   7.686   8.912   1.130 -0.2565  0.1884  0.3135
 3477SOL    HW213907   7.543   8.869   1.157  0.0992 -2.0970 -1.0897
 3477SOL     MW13908   7.624   8.851   1.131  0.8123 -0.9429  0.1586
 3478SOL     OW13909   5.545   0.047   0.072  0.1138 -0.1692  0.3066
 3478SOL    HW113910   5.552  -0.032   0.020  0.9397  0.7463 -1.0383
 3478SOL    HW213911   5.631   0.058   0.112  0.5009  0.8391 -0.7464
 3478SOL     MW13912   5.557   0.038   0.071  0.2770  0.0898 -0.0161
 3479SOL     OW13913   5.616   9.660   2.198  0.7940 -0.1671 -0.6700
 3479SOL    HW113914   5.588   9.727   2.260 -1.1218 -1.1739 -0.3708
 3479SOL    HW213915   5.705   9.685   2.173  0.4813  1.9274  0.1644
 3479SOL     MW13916   5.624   9.672   2.203  0.4941 -0.0207 -0.5175
 3480SOL     OW13917   4.227   0.164   2.164 -0.0732 -0.2570  0.6032
 3480SOL    HW113918   4.182   0.217   2.098  0.6652 -1.6605 -1.1026
 3480SOL    HW213919   4.276   0.228   2.217 -0.8245  0.9191 -0.0715
 3480SOL     MW13920   4.228   0.180   2.162 -0.0750 -0.2876  0.2828
 3481SOL     OW13921   5.923   9.555   6.460  0.1333  0.0641  0.1304
 3481SOL    HW113922   5.981   9.512   6.523  0.2338  0.9497  0.6563
 3481SOL    HW213923   5.959   9.532   6.374  0.7445 -0.0979  0.4290
 3481SOL     MW13924   5.935   9.546   6.457  0.2291  0.1614  0.2414
 3482SOL     OW13925   5.017   8.984   9.194  0.1428 -0.8197 -0.1868
 3482SOL    HW113926   5.015   8.960   9.287  0.7312  0.8647  0.2935
 3482SOL    HW213927   5.106   8.961   9.167  0.5774  0.3627  0.1710
 3482SOL     MW13928   5.029   8.977   9.203  0.2805 -0.4339 -0.0740
 3483SOL     OW13929   5.115   9.770   2.361  0.3070  0.5475 -0.0105
 3483SOL    HW113930   5.197   9.749   2.406 -0.1599  1.4339  1.3030
 3483SOL    HW213931   5.052   9.708   2.396  0.0619  0.8833  0.1431
 3483SOL     MW13932   5.118   9.759   2.372  0.2112  0.7120  0.1870
 3484SOL     OW13933   3.943   9.734   1.798 -0.4982 -0.6656  0.1724
 3484SOL    HW113934   3.956   9.653   1.846 -0.0631 -1.0636 -0.5971
 3484SOL    HW213935   3.849   9.738   1.781 -0.3815 -1.5870 -0.7646
 3484SOL     MW13936   3.932   9.724   1.802 -0.4240 -0.8431 -0.0572
 3485SOL     OW13937   6.036   1.379   7.347  0.3389  0.0856  0.1955
 3485SOL    HW113938   6.084   1.461   7.341  1.5620 -0.6021  0.3025
 3485SOL    HW213939   6.062   1.330   7.268  0.4303 -0.6149  0.6519
 3485SOL     MW13940   6.046   1.383   7.335  0.5158 -0.1012  0.2713
 3486SOL     OW13941   4.269   9.429   8.606 -0.2063  0.4896  0.0122
 3486SOL    HW113942   4.196   9.392   8.656 -1.8775  0.7441 -2.0934
 3486SOL    HW213943   4.286   9.514   8.647 -1.4706  0.6574  0.2329
 3486SOL     MW13944   4.262   9.435   8.618 -0.6014  0.5465 -0.2415
 3487SOL     OW13945   4.648   7.940   1.719 -0.1741  0.3249  0.2096
 3487SOL    HW113946   4.606   7.950   1.805  0.0854  1.5399  0.2198
 3487SOL    HW213947   4.625   7.852   1.690 -0.4342 -0.0239  1.4385
 3487SOL     MW13948   4.640   7.929   1.727 -0.1742  0.4415  0.3764
 3488SOL     OW13949   7.094  10.061   6.674  0.7085 -0.7965  0.4197
 3488SOL    HW113950   7.083  10.154   6.653 -0.5895 -0.9544  0.2787
 3488SOL    HW213951   7.186  10.051   6.695  0.3556  1.1288  3.4348
 3488SOL     MW13952   7.105  10.072   6.674  0.4863 -0.5586  0.8065
 3489SOL     OW13953   4.622   9.943   8.967  0.2768  0.2120 -0.2595
 3489SOL    HW113954   4.699   9.993   8.942  0.0706  0.5236 -0.2741
 3489SOL    HW213955   4.554   9.970   8.905  0.7026 -1.5715 -1.5792
 3489SOL     MW13956   4.623   9.953   8.956  0.3064  0.0139 -0.4390
 3490SOL     OW13957   3.612   9.587   2.219 -0.0581 -0.1112  0.4915
 3490SOL    HW113958   3.619   9.682   2.217 -1.3420  0.0016  0.8188
 3490SOL    HW213959   3.702   9.557   2.234  0.2378  1.0714  1.2342
 3490SOL     MW13960   3.625   9.596   2.221 -0.1911  0.0632  0.6355
 3491SOL     OW13961   7.817   9.314  10.084  0.1612  0.8445 -0.2354
 3491SOL    HW113962   7.862   9.347  10.007  0.7650  0.8304  0.1062
 3491SOL    HW213963   7.859   9.358  10.158 -1.7557  2.4313 -0.0132
 3491SOL     MW13964   7.829   9.324  10.084 -0.0155  1.0562 -0.1595
 3492SOL     OW13965   5.830   9.837   1.587  0.0535 -0.1269  0.0741
 3492SOL    HW113966   5.860   9.895   1.657  1.4163 -1.2961  0.5235
 3492SOL    HW213967   5.901   9.839   1.523  0.1561 -1.3081  0.1290
 3492SOL     MW13968   5.844   9.845   1.588  0.2507 -0.4432  0.1420
 3493SOL     OW13969   5.476   8.325   3.470 -0.0350 -0.1677  0.0429
 3493SOL    HW113970   5.450   8.294   3.384 -0.9692 -2.0986  0.9397
 3493SOL    HW213971   5.393   8.335   3.518  0.5204 -0.1104  1.0156
 3493SOL     MW13972   5.461   8.322   3.465 -0.0859 -0.4198  0.2945
 3494SOL     OW13973   3.701   8.706   7.830  0.0533 -0.1772 -0.1615
 3494SOL    HW113974   3.623   8.663   7.794 -0.0580  1.0464 -1.4570
 3494SOL    HW213975   3.753   8.729   7.753  0.9024  0.5055  0.5995
 3494SOL     MW13976   3.697   8.703   7.815  0.1526  0.0794 -0.2334
 3495SOL     OW13977   4.922   9.261   0.991 -0.0840 -0.4164 -0.6195
 3495SOL    HW113978   4.935   9.352   1.015 -1.1294 -0.3058 -0.4277
 3495SOL    HW213979   5.008   9.221   0.999  0.0594  0.1536  1.0412
 3495SOL     MW13980   4.935   9.268   0.996 -0.2054 -0.3248 -0.3702
 3496SOL     OW13981   7.082   8.838   9.023 -0.1304 -0.2258  0.2850
 3496SOL    HW113982   7.099   8.909   9.086 -0.6770  0.4702 -0.3346
 3496SOL    HW213983   7.163   8.787   9.023  1.4926  2.0845 -1.4108
 3496SOL     MW13984   7.095   8.841   9.032  0.0144  0.1787 -0.0266
 3497SOL     OW13985   6.049   8.581   1.566 -0.2733  0.1908 -0.4164
 3497SOL    HW113986   6.012   8.497   1.595  1.5194 -0.1812  0.9962
 3497SOL    HW213987   6.008   8.646   1.624  0.4330 -0.0939  0.4374
 3497SOL     MW13988   6.038   8.578   1.578  0.0630  0.1024 -0.1114
 3498SOL     OW13989   6.692   9.762   2.938 -0.1472 -0.0388  0.2173
 3498SOL    HW113990   6.614   9.746   2.884 -0.3544 -0.9723  0.7828
 3498SOL    HW213991   6.765   9.728   2.885 -0.1647  0.3949 -0.0996
 3498SOL     MW13992   6.691   9.756   2.923 -0.1775 -0.1061  0.2507
 3499SOL     OW13993   4.999   9.685   9.024  0.2365 -0.1045  0.2483
 3499SOL    HW113994   4.910   9.676   9.059  0.0333 -0.5766 -0.3673
 3499SOL    HW213995   4.987   9.721   8.936  0.5866 -1.0860 -0.2147
 3499SOL     MW13996   4.985   9.689   9.017  0.2562 -0.3001  0.1031
 3500SOL     OW13997   7.972   0.635   4.967  0.6147  0.4029  0.5030
 3500SOL    HW113998   8.045   0.589   4.925  2.1467  1.6056  1.6929
 3500SOL    HW213999   7.942   0.698   4.901  0.5739 -0.1876 -0.0453
 3500SOL     MW14000   7.978   0.638   4.952  0.8154  0.4853  0.5893
 3501SOL     OW14001   5.766   7.657   9.354 -0.0516 -0.2610 -0.1802
 3501SOL    HW114002   5.785   7.716   9.281 -0.9233 -0.2175 -0.3746
 3501SOL    HW214003   5.760   7.571   9.313 -1.0770 -0.1636 -0.2486
 3501SOL     MW14004   5.768   7.653   9.338 -0.3069 -0.2421 -0.2156
 3502SOL     OW14005   5.835   9.729   9.615  0.4073  0.7772 -0.4367
 3502SOL    HW114006   5.784   9.775   9.681  0.0270  1.2460 -1.0459
 3502SOL    HW214007   5.789   9.746   9.533  1.3681  0.9618 -0.9568
 3502SOL     MW14008   5.822   9.738   9.613  0.4854  0.8651 -0.5887
 3503SOL     OW14009   5.499   8.843   9.732  0.7447  0.0479 -0.4381
 3503SOL    HW114010   5.450   8.862   9.653  0.7254 -0.8080 -0.6499
 3503SOL    HW214011   5.566   8.911   9.737 -0.4819  1.2756 -0.1059
 3503SOL     MW14012   5.501   8.854   9.722  0.5770  0.0979 -0.4219
 3504SOL     OW14013   7.807   0.024   2.074 -0.3492 -0.4664 -0.0936
 3504SOL    HW114014   7.869   0.007   2.004  0.3809  0.1569  0.3864
 3504SOL    HW214015   7.807   0.119   2.084 -0.3513 -0.5497  0.8237
 3504SOL     MW14016   7.815   0.035   2.066 -0.2512 -0.3937  0.0945
 3505SOL     OW14017   7.060   8.782   6.444 -0.0251  0.7873 -0.3875
 3505SOL    HW114018   7.022   8.803   6.359 -0.0719 -0.0882 -0.5875
 3505SOL    HW214019   6.997   8.723   6.485  1.0956 -0.7342 -0.7454
 3505SOL     MW14020   7.046   8.777   6.438  0.1195  0.4647 -0.4626
 3506SOL     OW14021   4.743   9.274   4.949  0.6034 -0.2153 -0.3296
 3506SOL    HW114022   4.708   9.199   4.901  1.2508 -0.2574 -0.7465
 3506SOL    HW214023   4.791   9.324   4.883  1.1532 -0.0516  0.1889
 3506SOL     MW14024   4.745   9.270   4.934  0.7645 -0.1989 -0.3159
 3507SOL     OW14025   5.008   0.586   8.543  0.8516  0.2448  0.5641
 3507SOL    HW114026   5.041   0.502   8.511  3.0057  1.0280  0.5747
 3507SOL    HW214027   4.984   0.569   8.634  0.4367 -0.5514  0.3121
 3507SOL     MW14028   5.009   0.572   8.551  1.0857  0.2431  0.5316
 3508SOL     OW14029   4.930   9.162   0.375 -0.9989  0.1146  0.0409
 3508SOL    HW114030   4.835   9.155   0.375 -0.9907 -1.2091 -2.5235
 3508SOL    HW214031   4.948   9.246   0.416 -3.3144  0.7946 -0.1909
 3508SOL     MW14032   4.920   9.172   0.380 -1.3094  0.0280 -0.3354
 3509SOL     OW14033   5.675  10.007   8.922 -0.1591  0.2190 -0.4285
 3509SOL    HW114034   5.683   9.913   8.934  1.2449  0.3196 -0.4266
 3509SOL    HW214035   5.678  10.043   9.011  0.3609  0.3207 -0.4820
 3509SOL     MW14036   5.677  10.000   8.935  0.0998  0.2462 -0.4354
 3510SOL     OW14037   5.224  10.080   5.581  0.2584  0.1104 -0.1793
 3510SOL    HW114038   5.131  10.067   5.563  0.2623  1.2299 -1.0560
 3510SOL    HW214039   5.269  10.026   5.515  0.2549 -0.7849  0.5213
 3510SOL     MW14040   5.218  10.071   5.569  0.2585  0.1406 -0.2030
 3511SOL     OW14041   5.461   0.493   6.149 -0.2422 -0.2105 -0.2275
 3511SOL    HW114042   5.454   0.427   6.218 -0.2438 -0.0597 -0.0830
 3511SOL    HW214043   5.426   0.573   6.188  0.1657 -0.0166 -0.2543
 3511SOL     MW14044   5.456   0.494   6.163 -0.1875 -0.1641 -0.2117
 3512SOL     OW14045   4.432   8.200   9.157  0.1875 -0.2210 -0.0447
 3512SOL    HW114046   4.503   8.260   9.136 -0.3644  0.1129 -1.0358
 3512SOL    HW214047   4.449   8.173   9.247 -0.0165  2.0899  0.7523
 3512SOL     MW14048   4.444   8.204   9.166  0.0858  0.1350 -0.0708
 3513SOL     OW14049   5.240   0.218   5.547  0.1180 -0.0998 -0.1628
 3513SOL    HW114050   5.190   0.235   5.626 -1.5731  0.7394 -1.3512
 3513SOL    HW214051   5.203   0.137   5.512 -0.3338  0.4375 -0.9625
 3513SOL     MW14052   5.228   0.209   5.553 -0.1704  0.0854 -0.4304
 3514SOL     OW14053   7.760   9.264   9.180 -0.3046 -0.1065  0.0710
 3514SOL    HW114054   7.696   9.306   9.123 -0.3774  1.0555  0.9760
 3514SOL    HW214055   7.825   9.331   9.197 -0.7321 -0.1286  2.0353
 3514SOL     MW14056   7.760   9.279   9.174 -0.3719  0.0469  0.4571
 3515SOL     OW14057   7.688   0.114   3.591  0.0804  0.0190  0.5140
 3515SOL    HW114058   7.630   0.054   3.545 -0.5461  1.3715 -0.5274
 3515SOL    HW214059   7.636   0.193   3.604  0.7414  0.2139  2.2543
 3515SOL     MW14060   7.673   0.116   3.586  0.0850  0.2272  0.6081
 3516SOL     OW14061   6.250   9.075   3.975 -0.4242  0.3337  0.2497
 3516SOL    HW114062   6.341   9.105   3.967  0.4134 -1.8403  1.0319
 3516SOL    HW214063   6.202   9.130   3.913  1.8054 -0.0073 -1.9425
 3516SOL     MW14064   6.256   9.087   3.966 -0.0114 -0.0048  0.0600
 3517SOL     OW14065   5.202   9.019   2.529 -0.5363  0.1623 -0.0468
 3517SOL    HW114066   5.148   8.968   2.468 -0.6367 -0.3687  0.4804
 3517SOL    HW214067   5.158   9.104   2.534 -0.3858  0.2991 -0.9078
 3517SOL     MW14068   5.189   9.024   2.522 -0.5296  0.1093 -0.0917
 3518SOL     OW14069   5.021  10.116   9.187  0.6706  0.3217  0.4835
 3518SOL    HW114070   5.098  10.168   9.211  0.8867 -0.4433  1.4909
 3518SOL    HW214071   5.050  10.025   9.195 -0.7422 -0.0064  2.3511
 3518SOL     MW14072   5.035  10.111   9.191  0.5095  0.1746  0.8704
 3519SOL     OW14073   5.955  10.024   1.756  0.1067  0.2105  0.3070
 3519SOL    HW114074   5.984   9.951   1.811 -1.0522  0.3518  1.1563
 3519SOL    HW214075   5.982  10.102   1.805  0.4958  0.3415 -0.1210
 3519SOL     MW14076   5.962  10.025   1.770  0.0031  0.2472  0.3637
 3520SOL     OW14077   6.557   8.165   1.776  0.0435 -0.0207  0.2530
 3520SOL    HW114078   6.558   8.255   1.744 -0.1556 -0.2240 -0.3283
 3520SOL    HW214079   6.647   8.149   1.804  0.1543  0.2512  0.0547
 3520SOL     MW14080   6.569   8.175   1.776  0.0316 -0.0114  0.1481
 3521SOL     OW14081   8.113   9.833   8.053 -0.0549  0.0546  0.3917
 3521SOL    HW114082   8.065   9.779   7.990 -0.7248  1.0311  0.0327
 3521SOL    HW214083   8.204   9.831   8.022 -0.1628 -0.4601  0.1040
 3521SOL     MW14084   8.119   9.826   8.040 -0.1596  0.1168  0.3046
 3522SOL     OW14085   4.817   1.516   9.712 -0.9913  0.0214 -0.5155
 3522SOL    HW114086   4.803   1.561   9.629 -2.3093 -0.8725 -0.8077
 3522SOL    HW214087   4.863   1.436   9.689  0.0373  0.5033 -0.1784
 3522SOL     MW14088   4.821   1.511   9.698 -1.0303 -0.0341 -0.5094
 3523SOL     OW14089   6.843   0.337   6.542  0.0559 -0.1569 -0.5776
 3523SOL    HW114090   6.771   0.362   6.484 -1.0009 -0.6371  0.4775
 3523SOL    HW214091   6.859   0.415   6.595  1.0403  0.2912 -1.4896
 3523SOL     MW14092   6.835   0.351   6.541  0.0462 -0.1612 -0.5583
 3524SOL     OW14093   4.141   8.843   4.611  0.1727  0.0045 -0.2047
 3524SOL    HW114094   4.205   8.785   4.653 -0.4249 -0.1506  0.5024
 3524SOL    HW214095   4.121   8.909   4.677 -0.5843 -0.0940 -0.3296
 3524SOL     MW14096   4.147   8.844   4.625 -0.0096 -0.0296 -0.1263
 3525SOL     OW14097   6.448   9.486   1.926  0.6768  0.1685 -0.6811
 3525SOL    HW114098   6.396   9.552   1.972  0.4804  0.7407 -1.6808
 3525SOL    HW214099   6.451   9.411   1.985  0.6313  0.9563  0.3435
 3525SOL     MW14100   6.442   9.485   1.940  0.6443  0.3515 -0.6777
 3526SOL     OW14101   6.423   9.010   6.390  0.2492  0.2575 -0.1033
 3526SOL    HW114102   6.486   8.938   6.392 -0.0495 -0.0447 -0.9259
 3526SOL    HW214103   6.378   9.005   6.474  2.3145  1.4143  1.1408
 3526SOL     MW14104   6.425   8.999   6.401  0.4870  0.3725 -0.0466
 3527SOL     OW14105   6.232  10.068   2.261 -1.0244  0.6345  0.1716
 3527SOL    HW114106   6.244  10.086   2.354 -0.5810  1.9443 -0.1242
 3527SOL    HW214107   6.174  10.139   2.231 -1.6346 -0.1070 -0.4403
 3527SOL     MW14108   6.226  10.080   2.270 -1.0468  0.7110  0.0494
 3528SOL     OW14109   4.907   8.340   3.034 -0.0226 -0.0077  0.2530
 3528SOL    HW114110   4.833   8.401   3.030 -0.7021 -0.8810 -1.8232
 3528SOL    HW214111   4.950   8.349   2.948 -1.1869 -3.6102 -0.8619
 3528SOL     MW14112   4.903   8.350   3.022 -0.2707 -0.6101 -0.1764
 3529SOL     OW14113   7.624   9.697   3.150 -0.0105 -0.3843 -0.3445
 3529SOL    HW114114   7.628   9.642   3.228 -1.4791  1.1335  0.9104
 3529SOL    HW214115   7.634   9.786   3.184  0.1729  0.2585 -2.0177
 3529SOL     MW14116   7.626   9.702   3.165 -0.1835 -0.0935 -0.4008
 3530SOL     OW14117   7.822   9.707   7.664  0.1218  0.1578  0.2931
 3530SOL    HW114118   7.759   9.639   7.640 -0.2265  0.3175  0.7575
 3530SOL    HW214119   7.865   9.673   7.743 -0.0613  0.4831  0.5323
 3530SOL     MW14120   7.820   9.693   7.671  0.0503  0.2231  0.3878
 3531SOL     OW14121   6.533   9.319   2.342  0.0587  0.0988 -0.2460
 3531SOL    HW114122   6.540   9.354   2.431  0.4553 -2.1575  0.6901
 3531SOL    HW214123   6.617   9.342   2.301 -0.0341  0.9522  0.0276
 3531SOL     MW14124   6.545   9.327   2.349  0.0996 -0.0900 -0.0832
 3532SOL     OW14125   6.034   8.056   5.253  0.2339 -0.2095 -0.2057
 3532SOL    HW114126   6.004   8.038   5.343 -1.4937 -2.7010 -1.1678
 3532SOL    HW214127   6.129   8.068   5.261  0.0235  0.4378  2.0269
 3532SOL     MW14128   6.043   8.056   5.266 -0.0269 -0.4577 -0.0347
 3533SOL     OW14129   3.856   8.701   8.595  0.9435  0.3466 -0.7499
 3533SOL    HW114130   3.791   8.756   8.638 -0.0146 -1.2262 -0.0871
 3533SOL    HW214131   3.832   8.704   8.502 -1.2632 -1.5485 -0.3532
 3533SOL     MW14132   3.844   8.708   8.588  0.5176 -0.1201 -0.6073
 3534SOL     OW14133   5.780   0.917   5.313 -0.1393  0.2128 -0.0481
 3534SOL    HW114134   5.789   0.822   5.302  0.1876  0.2457 -0.0752
 3534SOL    HW214135   5.685   0.933   5.311 -0.2462 -0.2307  0.9259
 3534SOL     MW14136   5.768   0.906   5.311 -0.1097  0.1575  0.0793
 3535SOL     OW14137   6.350   0.046  10.027 -0.5990 -0.0508  0.5882
 3535SOL    HW114138   6.431   0.091  10.051 -0.8569  0.1774  1.0373
 3535SOL    HW214139   6.328  -0.007  10.104  0.4528 -2.0779 -0.4061
 3535SOL     MW14140   6.358   0.045  10.041 -0.4921 -0.2929  0.5148
 3536SOL     OW14141   4.054   8.685   7.091  0.2592 -0.0795 -0.1056
 3536SOL    HW114142   4.010   8.687   7.006  0.9104  0.5561 -0.4397
 3536SOL    HW214143   4.124   8.749   7.083  1.6393 -1.4906  0.1930
 3536SOL     MW14144   4.057   8.694   7.079  0.5325 -0.1839 -0.1104
 3537SOL     OW14145   5.852   1.623   7.781  0.1414 -0.3140  0.2663
 3537SOL    HW114146   5.945   1.603   7.765  0.0718 -3.3272  2.8264
 3537SOL    HW214147   5.851   1.669   7.864 -0.6736 -0.3194  0.2683
 3537SOL     MW14148   5.865   1.627   7.790  0.0223 -0.7202  0.6111
 3538SOL     OW14149   4.762   9.860   6.300 -0.4184 -0.1680 -0.0153
 3538SOL    HW114150   4.829   9.824   6.358 -0.4800 -0.5738 -0.1972
 3538SOL    HW214151   4.783   9.824   6.214 -1.6207 -1.3394  0.1501
 3538SOL     MW14152   4.774   9.850   6.296 -0.5885 -0.3803 -0.0175
 3539SOL     OW14153   5.972   9.954   4.700  0.1373  0.5418 -0.1153
 3539SOL    HW114154   5.890   9.909   4.720  1.3981 -0.7452  2.6409
 3539SOL    HW214155   5.954  10.046   4.718 -1.1874  0.5511 -1.3432
 3539SOL     MW14156   5.959   9.961   4.705  0.1287  0.3699  0.0904
 3540SOL     OW14157   5.244   1.764   1.182 -0.1227 -0.0523  0.0147
 3540SOL    HW114158   5.160   1.720   1.172 -0.9475  1.1319  1.2992
 3540SOL    HW214159   5.295   1.737   1.105 -0.1256 -4.0325  1.1955
 3540SOL     MW14160   5.240   1.754   1.170 -0.2341 -0.4286  0.3465
 3541SOL     OW14161   4.238   0.317   2.758 -0.4797  0.6745  0.2022
 3541SOL    HW114162   4.313   0.364   2.793 -1.2899  2.4320 -0.3150
 3541SOL    HW214163   4.209   0.260   2.829  0.7612  0.6689  0.7132
 3541SOL     MW14164   4.244   0.316   2.772 -0.4217  0.9102  0.2014
 3542SOL     OW14165   6.808   9.376   4.222 -0.1173 -0.1472  0.2595
 3542SOL    HW114166   6.729   9.347   4.176  1.2059  0.4369 -2.6383
 3542SOL    HW214167   6.802   9.472   4.220  0.0059 -0.0997  1.3656
 3542SOL     MW14168   6.797   9.385   4.216  0.0774 -0.0622  0.0184
 3543SOL     OW14169   8.015   9.446   1.310 -0.1979  0.0763 -0.6605
 3543SOL    HW114170   7.947   9.383   1.333 -0.0087  0.6976  1.8463
 3543SOL    HW214171   8.075   9.397   1.252  0.0464 -2.1365  1.3225
 3543SOL     MW14172   8.014   9.431   1.305 -0.1396 -0.1379 -0.0563
 3544SOL     OW14173   7.371   8.435   2.621  0.4322  0.4408 -0.6256
 3544SOL    HW114174   7.464   8.432   2.598  0.3670  2.2987 -1.3655
 3544SOL    HW214175   7.357   8.524   2.654 -0.8797 -0.1396  0.4891
 3544SOL     MW14176   7.382   8.447   2.622  0.2468  0.6127 -0.5751
 3545SOL     OW14177   5.747   8.189   3.211  0.5611  0.0190 -0.3722
 3545SOL    HW114178   5.828   8.237   3.195  0.7088 -0.4457 -1.0794
 3545SOL    HW214179   5.770   8.123   3.276  0.5865  0.3015 -0.0914
 3545SOL     MW14180   5.761   8.186   3.217  0.5844 -0.0055 -0.4296
 3546SOL     OW14181   6.791   8.246   8.463  0.7234 -0.8181 -0.4670
 3546SOL    HW114182   6.777   8.312   8.531 -0.4452  1.0551 -2.3983
 3546SOL    HW214183   6.877   8.265   8.428  0.5603 -0.6066 -0.7485
 3546SOL     MW14184   6.801   8.257   8.468  0.5442 -0.5376 -0.7648
 3547SOL     OW14185   4.450   9.361   2.182  0.4642 -0.1895  0.0026
 3547SOL    HW114186   4.361   9.331   2.163  0.7481 -0.3395 -1.2033
 3547SOL    HW214187   4.439   9.427   2.250 -0.2842 -2.2317  1.9878
 3547SOL     MW14188   4.436   9.365   2.189  0.4017 -0.4846  0.1075
 3548SOL     OW14189   6.535   9.240   6.467 -0.3717 -0.3030 -0.1017
 3548SOL    HW114190   6.501   9.307   6.409  0.9956  0.2963 -0.2479
 3548SOL    HW214191   6.472   9.168   6.461 -0.6512  0.0555 -1.7170
 3548SOL     MW14192   6.522   9.239   6.459 -0.2253 -0.1741 -0.3388
 3549SOL     OW14193   4.573   1.232   4.204  0.3461 -0.3739 -0.1379
 3549SOL    HW114194   4.646   1.261   4.258  1.0918 -1.6920 -0.4027
 3549SOL    HW214195   4.548   1.309   4.154 -0.3497  0.8973  2.0244
 3549SOL     MW14196   4.579   1.246   4.205  0.3528 -0.3802  0.1174
 3550SOL     OW14197   6.181   9.294   6.387  0.3809  0.1277 -0.1800
 3550SOL    HW114198   6.111   9.335   6.338 -0.4402  1.4777  1.9952
 3550SOL    HW214199   6.157   9.201   6.390 -0.8699  0.4345 -0.2105
 3550SOL     MW14200   6.169   9.287   6.381  0.1021  0.3507  0.1087
 3551SOL     OW14201   5.168   9.942   1.299  0.6385  0.4784  0.5561
 3551SOL    HW114202   5.091   9.891   1.274 -0.4412  1.5258  1.6333
 3551SOL    HW214203   5.236   9.876   1.317 -0.0857 -0.4724 -0.0768
 3551SOL     MW14204   5.167   9.926   1.298  0.3958  0.4914  0.6159
 3552SOL     OW14205   6.285   9.847   6.958 -0.1448  0.4522  0.2108
 3552SOL    HW114206   6.212   9.845   6.895 -0.5182  1.2501  0.6028
 3552SOL    HW214207   6.355   9.894   6.912  0.4519 -1.0403 -0.4824
 3552SOL     MW14208   6.284   9.853   6.943 -0.1148  0.3587  0.1703
 3553SOL     OW14209   6.039  10.109   5.394 -0.2784  0.2330  0.1766
 3553SOL    HW114210   6.067  10.137   5.482  0.5182  1.1760 -0.3577
 3553SOL    HW214211   5.952  10.071   5.408  0.6847 -1.5985  1.6890
 3553SOL     MW14212   6.031  10.108   5.408 -0.0416  0.1134  0.3083
 3554SOL     OW14213   5.607   1.641   3.574  0.7027  0.2753 -0.2408
 3554SOL    HW114214   5.684   1.606   3.529 -0.6976 -1.7169 -1.2090
 3554SOL    HW214215   5.532   1.600   3.531 -0.9255  1.7626  0.9963
 3554SOL     MW14216   5.607   1.631   3.562  0.2952  0.2073 -0.2046
 3555SOL     OW14217   4.980   8.852   5.346  0.2465  0.6208  0.1236
 3555SOL    HW114218   4.909   8.905   5.310  1.1510  1.3487 -0.6456
 3555SOL    HW214219   4.942   8.764   5.355 -0.8273  1.0622  0.0004
 3555SOL     MW14220   4.965   8.847   5.342  0.2237  0.7782  0.0035
 3556SOL     OW14221   7.816  10.017   6.259 -0.4500  0.3187 -0.5332
 3556SOL    HW114222   7.782  10.050   6.176 -0.6172 -0.0783 -0.6241
 3556SOL    HW214223   7.904   9.985   6.237 -0.1534  1.0004 -0.3751
 3556SOL     MW14224   7.823  10.017   6.245 -0.4326  0.3570 -0.5241
 3557SOL     OW14225   6.875   7.825   9.921 -0.1638  0.1647 -0.7023
 3557SOL    HW114226   6.804   7.772   9.957 -0.2364  0.7306 -0.0040
 3557SOL    HW214227   6.845   7.848   9.832 -0.8886  0.4582 -0.3920
 3557SOL     MW14228   6.861   7.821   9.914 -0.2711  0.2804 -0.5666
 3558SOL     OW14229   4.329   8.554   5.061 -0.1715 -0.1754  0.1700
 3558SOL    HW114230   4.338   8.459   5.066  0.5244 -0.1560 -0.5149
 3558SOL    HW214231   4.254   8.574   5.117 -1.5673 -1.3148 -1.2045
 3558SOL     MW14232   4.320   8.544   5.069 -0.2657 -0.3261 -0.1071
 3559SOL     OW14233   6.975   9.592   6.235 -0.1373 -0.1675  0.1789
 3559SOL    HW114234   6.986   9.521   6.172 -0.1541 -1.0157  1.1090
 3559SOL    HW214235   6.963   9.548   6.319  2.1962  0.9392  1.1824
 3559SOL     MW14236   6.975   9.577   6.238  0.1745 -0.1327  0.4391
 3560SOL     OW14237   5.279   8.135   8.201 -0.4295 -0.8196 -0.1632
 3560SOL    HW114238   5.216   8.208   8.209  0.3704  0.2740 -2.7619
 3560SOL    HW214239   5.346   8.155   8.267  0.0564  1.1789 -1.1654
 3560SOL     MW14240   5.279   8.148   8.211 -0.2565 -0.4035 -0.6478
 3561SOL     OW14241   5.348   8.260   4.536 -0.3425 -0.1405 -0.4742
 3561SOL    HW114242   5.325   8.344   4.577  0.2742  0.0129 -0.4307
 3561SOL    HW214243   5.438   8.243   4.566 -0.4089 -0.7389 -0.6085
 3561SOL     MW14244   5.357   8.269   4.546 -0.2684 -0.2004 -0.4864
 3562SOL     OW14245   6.127   8.542   1.070  0.9740 -0.6079 -0.3818
 3562SOL    HW114246   6.080   8.579   0.995  0.8502 -0.7646 -0.3827
 3562SOL    HW214247   6.173   8.616   1.108  0.6584 -0.4354 -0.3313
 3562SOL     MW14248   6.127   8.557   1.065  0.9149 -0.6058 -0.3752
 3563SOL     OW14249   5.116   9.360   4.270 -0.2752 -0.2214  0.3435
 3563SOL    HW114250   5.166   9.343   4.190  1.7423  3.2735  0.6417
 3563SOL    HW214251   5.063   9.282   4.282  0.8211 -1.7548 -3.2715
 3563SOL     MW14252   5.116   9.347   4.261  0.1438  0.0425 -0.1029
 3564SOL     OW14253   6.257   0.049   9.392 -0.2467  0.0308  0.3500
 3564SOL    HW114254   6.166   0.038   9.421  0.3063  1.2255  2.8658
 3564SOL    HW214255   6.276   0.141   9.410  0.9781  0.2342 -1.7415
 3564SOL     MW14256   6.247   0.060   9.399 -0.0074  0.2190  0.4071
 3565SOL     OW14257   5.967   9.032   6.638 -0.1746 -0.1858  1.0477
 3565SOL    HW114258   5.922   8.950   6.615  0.8210 -1.1279  2.3287
 3565SOL    HW214259   5.897   9.096   6.649 -1.0927 -1.2586  1.5782
 3565SOL     MW14260   5.951   9.030   6.636 -0.1642 -0.4570  1.2915
 3566SOL     OW14261   4.685   8.882   1.585 -0.7628 -0.0496 -0.0906
 3566SOL    HW114262   4.648   8.848   1.666 -2.1659 -1.0844 -1.1283
 3566SOL    HW214263   4.610   8.892   1.526  0.0115  1.9946 -0.8504
 3566SOL     MW14264   4.670   8.879   1.588 -0.8474  0.0862 -0.3325
 3567SOL     OW14265   6.805   1.150   4.885  0.0603  0.0727  0.2960
 3567SOL    HW114266   6.738   1.105   4.834  0.6261 -0.4935  0.0391
 3567SOL    HW214267   6.882   1.151   4.828 -0.3107  2.6074 -0.2661
 3567SOL     MW14268   6.806   1.144   4.870  0.0865  0.3376  0.1858
 3568SOL     OW14269   7.314   0.792   7.613 -0.1911  0.0644 -0.0161
 3568SOL    HW114270   7.405   0.793   7.641  0.2478  0.7650 -1.3567
 3568SOL    HW214271   7.305   0.712   7.561 -0.4393 -0.1718  0.3829
 3568SOL     MW14272   7.325   0.781   7.609 -0.1654  0.1269 -0.1428
 3569SOL     OW14273   7.583   8.214   2.428  0.0193 -0.1625  0.0706
 3569SOL    HW114274   7.533   8.186   2.505 -0.8237 -1.6544 -0.9795
 3569SOL    HW214275   7.652   8.270   2.464  0.5411 -1.9616  2.0879
 3569SOL     MW14276   7.586   8.218   2.443 -0.0239 -0.6054  0.2008
 3570SOL     OW14277   6.598   0.224   0.237  0.0671  0.3532 -0.2399
 3570SOL    HW114278   6.615   0.318   0.249 -0.7794  0.5669 -0.5924
 3570SOL    HW214279   6.684   0.184   0.233  0.4511  1.2052 -0.7036
 3570SOL     MW14280   6.612   0.232   0.238  0.0049  0.4966 -0.3497
 3571SOL     OW14281   6.195  10.043   6.248  0.5629  0.4898 -0.2630
 3571SOL    HW114282   6.099  10.043   6.249  0.5372  2.2253  0.3020
 3571SOL    HW214283   6.217  10.034   6.155 -0.1575  0.3932 -0.4329
 3571SOL     MW14284   6.185  10.042   6.235  0.4625  0.7104 -0.2098
 3572SOL     OW14285   6.378   0.733   8.372  0.3581 -0.4109 -0.2480
 3572SOL    HW114286   6.374   0.655   8.427 -2.1242 -0.3010 -0.1671
 3572SOL    HW214287   6.423   0.799   8.425 -0.3928 -0.8409  0.9424
 3572SOL     MW14288   6.383   0.732   8.386 -0.0770 -0.4540 -0.0769
 3573SOL     OW14289   4.493   9.154   1.233  0.2625 -0.0875  0.5391
 3573SOL    HW114290   4.569   9.113   1.193 -0.6311 -0.6285 -0.6696
 3573SOL    HW214291   4.419   9.123   1.181 -0.6856  1.2082  1.0613
 3573SOL     MW14292   4.493   9.144   1.221  0.0147  0.0141  0.4467
 3574SOL     OW14293   5.611   0.993   9.701 -0.1002  0.2613 -0.4996
 3574SOL    HW114294   5.622   1.022   9.610 -1.6855  0.1076 -0.7669
 3574SOL    HW214295   5.686   1.031   9.747 -0.4091  2.1874 -1.4481
 3574SOL     MW14296   5.622   1.002   9.695 -0.3551  0.4998 -0.6632
 3575SOL     OW14297   6.190   8.790   5.929 -0.4262  0.3052  0.1139
 3575SOL    HW114298   6.249   8.817   5.999 -1.1754 -0.5526  1.1087
 3575SOL    HW214299   6.103   8.815   5.961 -0.7823 -0.1491 -0.4811
 3575SOL     MW14300   6.186   8.797   5.943 -0.5749  0.1287  0.1677
 3576SOL     OW14301   7.418   1.229   5.047 -0.0338  0.7981 -0.1338
 3576SOL    HW114302   7.325   1.243   5.030 -0.1867 -0.3227 -0.3042
 3576SOL    HW214303   7.438   1.285   5.122 -1.6379 -1.3742  2.0696
 3576SOL     MW14304   7.408   1.238   5.055 -0.2702  0.3549  0.1398
 3577SOL     OW14305   7.244   9.631   8.109  0.1135 -0.7718  0.4571
 3577SOL    HW114306   7.179   9.655   8.042  0.3651 -0.2887  0.3778
 3577SOL    HW214307   7.281   9.549   8.078 -1.2204 -1.6265  1.0549
 3577SOL     MW14308   7.240   9.623   8.096 -0.0322 -0.8218  0.5269
 3578SOL     OW14309   7.477   8.652   5.493 -0.8034  0.0729  0.0023
 3578SOL    HW114310   7.479   8.627   5.586 -0.7577  1.1435  0.3030
 3578SOL    HW214311   7.493   8.570   5.446  5.4592  0.2268  1.0253
 3578SOL     MW14312   7.479   8.638   5.499  0.0456  0.2377  0.1805
 3579SOL     OW14313   4.203  10.085   4.583  0.3958  0.1291 -0.9672
 3579SOL    HW114314   4.229  10.158   4.639  0.2607 -1.2512  0.9785
 3579SOL    HW214315   4.250  10.100   4.501  2.3672  1.0675  0.2580
 3579SOL     MW14316   4.212  10.097   4.579  0.6429  0.0696 -0.5405
 3580SOL     OW14317   3.804   9.880   1.062 -0.5184  0.0679 -0.0739
 3580SOL    HW114318   3.897   9.860   1.076 -0.7321 -0.2442  0.9399
 3580SOL    HW214319   3.781   9.830   0.983  0.4455  1.0400 -1.0036
 3580SOL     MW14320   3.814   9.871   1.053 -0.4175  0.1567 -0.0626
 3581SOL     OW14321   4.633   8.223   2.704 -0.0748  0.2658  0.3256
 3581SOL    HW114322   4.638   8.310   2.666  0.3997 -0.0282 -0.3061
 3581SOL    HW214323   4.540   8.199   2.700  0.2288 -0.8209 -3.1570
 3581SOL     MW14324   4.621   8.231   2.699  0.0299  0.0800 -0.2281
 3582SOL     OW14325   7.774   8.859   3.044  0.1823 -0.1532  0.0503
 3582SOL    HW114326   7.759   8.776   2.998  0.4263 -1.2383  1.7914
 3582SOL    HW214327   7.686   8.893   3.061  0.0947  1.0195 -2.3863
 3582SOL     MW14328   7.760   8.852   3.040  0.2033 -0.1414 -0.0433
 3583SOL     OW14329   7.570   0.262   8.851 -0.0004  0.2842 -0.1643
 3583SOL    HW114330   7.587   0.261   8.757 -0.2984  0.8901 -0.2274
 3583SOL    HW214331   7.639   0.207   8.889  0.2623  0.2383 -0.7120
 3583SOL     MW14332   7.582   0.254   8.844 -0.0052  0.3596 -0.2465
 3584SOL     OW14333   6.461   1.725   7.919 -0.3629 -0.0850  0.3016
 3584SOL    HW114334   6.423   1.661   7.979 -0.1891  2.0164  2.8706
 3584SOL    HW214335   6.387   1.776   7.888 -0.3762 -0.7452 -0.8056
 3584SOL     MW14336   6.446   1.724   7.923 -0.3413  0.1090  0.4983
 3585SOL     OW14337   5.700   0.957   7.647 -0.3645  0.0953 -0.2773
 3585SOL    HW114338   5.670   1.048   7.650  0.1838  0.2680  0.0998
 3585SOL    HW214339   5.659   0.921   7.568 -1.5548  0.3176  0.2217
 3585SOL     MW14340   5.690   0.965   7.637 -0.4509  0.1485 -0.1594
 3586SOL     OW14341   5.913   1.135   5.426  0.1777 -0.3107 -0.2747
 3586SOL    HW114342   5.868   1.062   5.383  0.0028  0.3734 -1.2816
 3586SOL    HW214343   6.001   1.134   5.387  0.2059 -0.0430 -0.2166
 3586SOL     MW14344   5.919   1.125   5.415  0.1579 -0.1826 -0.4024
 3587SOL     OW14345   5.080   9.967   4.705  0.2274  0.3881 -0.1168
 3587SOL    HW114346   5.098   9.874   4.720  0.4112  0.7840  2.5497
 3587SOL    HW214347   4.987   9.977   4.724  0.2774  0.8085 -0.0931
 3587SOL     MW14348   5.070   9.956   4.709  0.2588  0.4980  0.2452
 3588SOL     OW14349   5.586   9.042   0.254  0.0837  0.1995  0.4313
 3588SOL    HW114350   5.642   9.092   0.195 -1.3137 -0.1082 -1.2524
 3588SOL    HW214351   5.509   9.097   0.266  0.0906 -0.0109  1.5191
 3588SOL     MW14352   5.583   9.056   0.248 -0.1035  0.1298  0.3511
 3589SOL     OW14353   3.788   9.480   7.591 -0.3125 -0.4209  0.6409
 3589SOL    HW114354   3.744   9.558   7.557 -0.3532 -0.3564  0.8455
 3589SOL    HW214355   3.776   9.484   7.685  1.6779  0.5809  0.9202
 3589SOL     MW14356   3.781   9.491   7.599 -0.0501 -0.2774  0.7060
 3590SOL     OW14357   5.087   0.384   8.358 -0.1575 -0.9242 -0.2215
 3590SOL    HW114358   5.059   0.426   8.276  0.5128 -1.0972 -0.5515
 3590SOL    HW214359   5.069   0.291   8.345 -0.3046 -0.9167 -0.0670
 3590SOL     MW14360   5.081   0.377   8.345 -0.0871 -0.9465 -0.2451
 3591SOL     OW14361   6.066   0.636   1.145 -0.5305  0.1522 -0.1180
 3591SOL    HW114362   5.972   0.618   1.144 -0.4924 -0.0421 -0.0041
 3591SOL    HW214363   6.076   0.705   1.210 -1.1233  2.9638 -2.7552
 3591SOL     MW14364   6.055   0.643   1.153 -0.6052  0.5044 -0.4576
 3592SOL     OW14365   4.428   8.622   8.292  0.0101 -0.2041 -0.0488
 3592SOL    HW114366   4.339   8.645   8.319 -0.2076  1.3152 -1.8452
 3592SOL    HW214367   4.466   8.581   8.369 -2.6135 -2.0788  0.3874
 3592SOL     MW14368   4.421   8.620   8.306 -0.3723 -0.2520 -0.2319
 3593SOL     OW14369   4.798   8.339   9.544 -0.7058  0.3814 -0.0033
 3593SOL    HW114370   4.814   8.304   9.632  3.3556  0.9324 -0.3223
 3593SOL    HW214371   4.772   8.430   9.559 -0.6492  0.3027  0.6166
 3593SOL     MW14372   4.797   8.347   9.558 -0.1516  0.4450  0.0372
 3594SOL     OW14373   4.980   0.503   8.138 -0.3486  0.4908  0.7345
 3594SOL    HW114374   4.892   0.494   8.102 -0.1682  0.9115  0.1548
 3594SOL    HW214375   5.022   0.567   8.080 -0.0142  1.1363  1.6635
 3594SOL     MW14376   4.974   0.511   8.125 -0.2793  0.6343  0.7815
 3595SOL     OW14377   5.784   0.645   5.326 -0.3871 -0.3424 -0.2584
 3595SOL    HW114378   5.861   0.629   5.272 -0.5089 -0.1584 -0.4895
 3595SOL    HW214379   5.819   0.653   5.415 -0.1060 -0.0253 -0.3918
 3595SOL     MW14380   5.799   0.644   5.331 -0.3657 -0.2750 -0.3075
 3596SOL     OW14381   4.278   8.724   9.133 -0.3783 -0.4178 -0.0946
 3596SOL    HW114382   4.368   8.710   9.162  0.0109  1.5766 -0.2207
 3596SOL    HW214383   4.228   8.734   9.213 -0.2638 -0.2628 -0.0428
 3596SOL     MW14384   4.283   8.723   9.147 -0.3105 -0.1285 -0.1046
 3597SOL     OW14385   5.751   0.522   8.736 -0.0401 -0.2831  0.3072
 3597SOL    HW114386   5.723   0.606   8.700 -1.0264 -0.4823  0.5665
 3597SOL    HW214387   5.844   0.517   8.716 -0.3171  0.1126 -1.2263
 3597SOL     MW14388   5.760   0.532   8.729 -0.2101 -0.2567  0.1357
 3598SOL     OW14389   4.741   8.325   8.781 -0.2601  0.2520 -0.7114
 3598SOL    HW114390   4.722   8.331   8.687 -0.4211 -0.8241 -0.7598
 3598SOL    HW214391   4.715   8.236   8.805  1.9562 -0.2951 -0.1422
 3598SOL     MW14392   4.735   8.314   8.772  0.0165  0.0336 -0.6413
 3599SOL     OW14393   5.574   8.704   7.014 -0.0128 -0.3207  0.4239
 3599SOL    HW114394   5.592   8.727   7.105  0.4512  0.4762  0.1423
 3599SOL    HW214395   5.494   8.752   6.993  0.9637  1.1171 -0.1682
 3599SOL     MW14396   5.566   8.714   7.024  0.1810 -0.0199  0.3063
 3600SOL     OW14397   3.704   9.524   3.138 -0.0673 -0.1008  0.2179
 3600SOL    HW114398   3.633   9.468   3.168  0.1287 -0.2883  0.3370
 3600SOL    HW214399   3.667   9.573   3.065  0.6280 -2.6035 -1.9556
 3600SOL     MW14400   3.690   9.523   3.132  0.0526 -0.4628 -0.0586
 3601SOL     OW14401   7.370   9.863   7.003 -0.1702  0.1146  0.0109
 3601SOL    HW114402   7.397   9.772   6.995  0.0861  0.1312  0.5904
 3601SOL    HW214403   7.423   9.897   7.076  0.1527  0.8808 -0.5700
 3601SOL     MW14404   7.381   9.855   7.012 -0.0922  0.2199  0.0107
 3602SOL     OW14405   4.118   8.806   7.781  0.2563  0.4427 -0.1511
 3602SOL    HW114406   4.180   8.745   7.821  2.1632  2.6976  0.5543
 3602SOL    HW214407   4.099   8.869   7.850 -2.8061 -0.0547 -0.3992
 3602SOL     MW14408   4.124   8.806   7.795  0.1008  0.6792 -0.0896
 3603SOL     OW14409   3.711   9.219   6.845  0.0195  0.5885 -0.3034
 3603SOL    HW114410   3.769   9.158   6.890 -1.2947  0.3169  1.1270
 3603SOL    HW214411   3.677   9.169   6.771 -0.1567 -0.0627  0.1982
 3603SOL     MW14412   3.714   9.204   6.841 -0.1811  0.4643 -0.0434
 3604SOL     OW14413   6.836   9.239   0.474  0.1402 -0.3087 -0.0851
 3604SOL    HW114414   6.818   9.180   0.401  1.9299 -1.4004  0.2846
 3604SOL    HW214415   6.876   9.316   0.433  1.7452 -1.1923 -0.2480
 3604SOL     MW14416   6.839   9.241   0.459  0.5970 -0.5746 -0.0573
 3605SOL     OW14417   4.658   8.497   2.620 -0.6202  0.2932  0.5293
 3605SOL    HW114418   4.593   8.514   2.687 -0.7959  0.5452  0.2989
 3605SOL    HW214419   4.734   8.549   2.646 -0.0807 -0.8782  1.4146
 3605SOL     MW14420   4.659   8.506   2.632 -0.5712  0.1695  0.6174
 3606SOL     OW14421   6.781   0.496   9.116 -0.1380 -0.3977  0.2740
 3606SOL    HW114422   6.715   0.563   9.127  0.2406 -0.2008  1.5479
 3606SOL    HW214423   6.775   0.470   9.024 -1.1865  0.4235  0.0984
 3606SOL     MW14424   6.772   0.501   9.105 -0.2281 -0.2607  0.4218
 3607SOL     OW14425   6.883   9.161   1.373  0.2058 -0.1893  0.2060
 3607SOL    HW114426   6.851   9.249   1.389 -0.3158 -0.0759 -1.3050
 3607SOL    HW214427   6.816   9.103   1.410 -0.3550  0.0553 -0.4113
 3607SOL     MW14428   6.870   9.165   1.380  0.0602 -0.1411 -0.0804
 3608SOL     OW14429   4.906   1.157   9.898 -0.3868 -0.3157 -0.6321
 3608SOL    HW114430   4.937   1.198   9.818 -2.1122 -0.8771 -1.6375
 3608SOL    HW214431   4.985   1.148   9.953  1.1884 -1.4401 -2.9169
 3608SOL     MW14432   4.921   1.161   9.895 -0.4070 -0.5426 -1.0749
 3609SOL     OW14433   4.842   0.325   2.500  0.1493  0.1891 -0.1928
 3609SOL    HW114434   4.795   0.258   2.449  0.8995  1.0513 -2.1274
 3609SOL    HW214435   4.786   0.403   2.493 -1.4189 -0.4761  3.1978
 3609SOL     MW14436   4.828   0.327   2.492  0.0393  0.2156  0.0031
 3610SOL     OW14437   7.627   0.099   9.496  0.0186 -0.3910  0.3701
 3610SOL    HW114438   7.698   0.035   9.489 -1.0182 -1.6782  1.2536
 3610SOL    HW214439   7.627   0.124   9.588  0.2574  0.7326  0.0809
 3610SOL     MW14440   7.637   0.094   9.507 -0.0888 -0.4130  0.4501
 3611SOL     OW14441   5.662   9.105   4.540 -0.2602  0.5691 -0.3317
 3611SOL    HW114442   5.725   9.089   4.611  0.1142  0.7047 -0.6296
 3611SOL    HW214443   5.581   9.063   4.570  0.1944 -0.3004 -0.2935
 3611SOL     MW14444   5.660   9.097   4.554 -0.1486  0.4703 -0.3666
 3612SOL     OW14445   6.880   9.178   2.895 -0.1629  0.6197 -0.0305
 3612SOL    HW114446   6.917   9.239   2.958  0.0695  0.1524  0.2915
 3612SOL    HW214447   6.948   9.113   2.882 -0.8812 -0.3000  0.6276
 3612SOL     MW14448   6.894   9.177   2.902 -0.2283  0.4330  0.1014
 3613SOL     OW14449   7.449   0.992   3.813  0.0903  0.3167 -0.5526
 3613SOL    HW114450   7.485   1.019   3.729  0.3106  0.8108 -0.3033
 3613SOL    HW214451   7.354   0.989   3.800  0.2211 -3.4116 -1.9527
 3613SOL     MW14452   7.441   0.995   3.800  0.1375 -0.1185 -0.7075
 3614SOL     OW14453   4.517   9.525   5.938 -0.2400  0.1596 -0.1990
 3614SOL    HW114454   4.431   9.492   5.913  0.0143 -1.4786  0.9322
 3614SOL    HW214455   4.526   9.608   5.891 -2.2171  0.1177 -0.7213
 3614SOL     MW14456   4.507   9.532   5.928 -0.4718 -0.0665 -0.1171
 3615SOL     OW14457   5.223   9.815   3.630 -0.2605 -0.0628  0.5436
 3615SOL    HW114458   5.305   9.789   3.587 -0.3884 -1.6630  1.1851
 3615SOL    HW214459   5.229   9.910   3.637  1.6108 -0.1544  0.7052
 3615SOL     MW14460   5.235   9.824   3.625 -0.0259 -0.2905  0.6516
 3616SOL     OW14461   6.218   1.108   1.894  0.0300 -0.2501 -0.1596
 3616SOL    HW114462   6.266   1.111   1.977 -0.0793  1.6353 -0.1185
 3616SOL    HW214463   6.253   1.031   1.849 -0.8732 -2.1845  2.1633
 3616SOL     MW14464   6.229   1.098   1.899 -0.1062 -0.2567  0.1586
 3617SOL     OW14465   6.438   0.626   3.943  0.0027  0.5595  0.3522
 3617SOL    HW114466   6.444   0.590   4.032 -0.9955 -2.5757 -0.7139
 3617SOL    HW214467   6.344   0.632   3.926  0.1900  0.3128 -0.8036
 3617SOL     MW14468   6.426   0.622   3.953 -0.1065  0.1044  0.0532
 3618SOL     OW14469   7.192  10.057   5.238  0.0327  0.9276 -0.2404
 3618SOL    HW114470   7.274  10.037   5.284 -0.0941  0.0545 -0.3771
 3618SOL    HW214471   7.202  10.014   5.153  0.8335  3.6178 -1.6334
 3618SOL     MW14472   7.204  10.048   5.233  0.1234  1.1722 -0.4463
 3619SOL     OW14473   5.174   8.646   3.231  0.7001  0.3434  0.2312
 3619SOL    HW114474   5.089   8.605   3.246  1.5417 -2.7085 -2.3382
 3619SOL    HW214475   5.217   8.644   3.316 -0.8709 -0.3385  1.0447
 3619SOL     MW14476   5.169   8.640   3.244  0.6020 -0.1591 -0.0051
 3620SOL     OW14477   5.531   9.840   5.591  0.7252 -0.1129 -0.5561
 3620SOL    HW114478   5.484   9.885   5.661  0.7393  2.0684 -1.8623
 3620SOL    HW214479   5.528   9.748   5.616 -2.3340  0.1621  0.5439
 3620SOL     MW14480   5.524   9.834   5.604  0.3154  0.2177 -0.5839
 3621SOL     OW14481   5.425   8.889   8.093  0.1222  0.7124  0.2134
 3621SOL    HW114482   5.454   8.805   8.059  1.2858  0.8468  0.8282
 3621SOL    HW214483   5.486   8.953   8.055 -0.2783  1.1937  0.3588
 3621SOL     MW14484   5.437   8.887   8.083  0.2249  0.7953  0.3157
 3622SOL     OW14485   6.873   0.906   1.962 -0.1236 -0.5208  0.0679
 3622SOL    HW114486   6.857   0.814   1.940 -1.6678 -0.0839 -0.7962
 3622SOL    HW214487   6.946   0.932   1.906 -0.4080 -0.9170 -0.4883
 3622SOL     MW14488   6.881   0.897   1.952 -0.3697 -0.5153 -0.1233
 3623SOL     OW14489   5.101   9.634   4.275  0.2490 -0.6655 -0.1516
 3623SOL    HW114490   5.086   9.539   4.282  0.3158 -0.7254 -0.7852
 3623SOL    HW214491   5.040   9.672   4.339 -0.3004 -1.0952 -0.4115
 3623SOL     MW14492   5.091   9.626   4.285  0.1840 -0.7314 -0.2719
 3624SOL     OW14493   4.019   9.674   0.103  0.2456  0.4634 -0.2156
 3624SOL    HW114494   4.011   9.764   0.073 -0.3139 -0.2377 -2.3835
 3624SOL    HW214495   4.107   9.648   0.076  0.1360  0.1432 -0.2692
 3624SOL     MW14496   4.030   9.682   0.095  0.1555  0.3259 -0.5145
 3625SOL     OW14497   7.132   1.656   6.845  0.6612 -0.5429 -0.2648
 3625SOL    HW114498   7.054   1.685   6.893  1.0038  0.4775 -0.2906
 3625SOL    HW214499   7.101   1.642   6.756  0.0984 -2.0875  0.1465
 3625SOL     MW14500   7.117   1.658   6.840  0.6315 -0.6135 -0.2129
 3626SOL     OW14501   4.656   8.003   7.584 -0.3921 -0.1895  0.6383
 3626SOL    HW114502   4.644   8.054   7.664  1.4524  0.9649  0.2352
 3626SOL    HW214503   4.742   7.962   7.594  0.0602  0.3077 -0.8913
 3626SOL     MW14504   4.666   8.004   7.596 -0.0830  0.0328  0.3782
 3627SOL     OW14505   3.873  10.123   6.296  0.1680 -0.2035 -0.0851
 3627SOL    HW114506   3.804  10.121   6.362  0.6662 -0.9941  0.4360
 3627SOL    HW214507   3.854  10.047   6.240 -0.3239  0.5368 -0.9332
 3627SOL     MW14508   3.861  10.112   6.298  0.1689 -0.2103 -0.1291
 3628SOL     OW14509   4.661   8.072   8.900 -0.0284  0.0029 -0.2933
 3628SOL    HW114510   4.693   8.112   8.981  0.2567  0.2105 -0.5052
 3628SOL    HW214511   4.574   8.039   8.922  0.5085 -1.0119  0.4455
 3628SOL     MW14512   4.654   8.073   8.914  0.0822 -0.1057 -0.2224
 3629SOL     OW14513   3.979   0.420   0.676  0.0804  0.1073  0.1877
 3629SOL    HW114514   3.943   0.336   0.703 -0.3578  0.3413  0.3543
 3629SOL    HW214515   4.073   0.406   0.669 -0.0127 -0.4438  0.0293
 3629SOL     MW14516   3.987   0.407   0.678  0.0089  0.0646  0.1888
 3630SOL     OW14517   4.837   9.400   0.094 -0.5056  0.1954  0.4776
 3630SOL    HW114518   4.818   9.447   0.012 -1.4861  0.2270  0.7027
 3630SOL    HW214519   4.910   9.343   0.073  1.1171  2.1986  0.3251
 3630SOL     MW14520   4.844   9.399   0.080 -0.4192  0.4692  0.4874
 3631SOL     OW14521   5.365   1.035   0.766  0.3733  0.1844  0.0587
 3631SOL    HW114522   5.300   0.996   0.823  0.3843  0.3632  0.1939
 3631SOL    HW214523   5.390   0.965   0.706  0.4216 -0.0277  0.3253
 3631SOL     MW14524   5.360   1.020   0.766  0.3813  0.1799  0.1128
 3632SOL     OW14525   7.139  -0.001   0.329  0.2505  0.6839  0.1885
 3632SOL    HW114526   7.180   0.074   0.372  1.9292 -1.4417  2.5689
 3632SOL    HW214527   7.081  -0.038   0.396 -1.9549  0.7854 -1.5321
 3632SOL     MW14528   7.136   0.004   0.343  0.1796  0.4115  0.2773
 3633SOL     OW14529   4.118   8.465   3.552  0.1918  0.1880  0.3337
 3633SOL    HW114530   4.070   8.546   3.534  0.6564  0.4411  0.2309
 3633SOL    HW214531   4.133   8.426   3.465 -0.0686 -0.0317  0.3860
 3633SOL     MW14532   4.113   8.471   3.538  0.2193  0.1925  0.3269
 3634SOL     OW14533   4.235   9.643   4.582 -0.0445 -0.0276  0.5158
 3634SOL    HW114534   4.193   9.719   4.622 -0.4411 -0.7311  1.4878
 3634SOL    HW214535   4.211   9.647   4.490 -1.3427  0.1855  0.8506
 3634SOL     MW14536   4.226   9.653   4.575 -0.2726 -0.0936  0.6916
 3635SOL     OW14537   7.290   9.738   9.913 -0.0712  0.2203  0.4669
 3635SOL    HW114538   7.233   9.720   9.989 -0.0480  0.8800  0.6442
 3635SOL    HW214539   7.343   9.659   9.904 -1.2700 -0.5761  0.0640
 3635SOL     MW14540   7.289   9.725   9.922 -0.2294  0.2019  0.4365
 3636SOL     OW14541   7.736   0.028   3.230 -0.0238 -0.2762  0.0630
 3636SOL    HW114542   7.791   0.052   3.305  0.4118 -0.1512 -0.2973
 3636SOL    HW214543   7.704   0.111   3.196  0.2457 -0.2976 -0.2453
 3636SOL     MW14544   7.739   0.042   3.236  0.0711 -0.2622 -0.0270
 3637SOL     OW14545   5.041   9.507   1.048 -0.5051  0.3664 -0.0982
 3637SOL    HW114546   5.060   9.483   1.139  0.6812  2.3014  0.2225
 3637SOL    HW214547   5.126   9.509   1.005 -1.0408 -0.3436 -1.2309
 3637SOL     MW14548   5.055   9.504   1.055 -0.4176  0.5313 -0.2075
 3638SOL     OW14549   4.185   0.167   2.980 -0.1150 -0.5750 -0.4469
 3638SOL    HW114550   4.146   0.101   3.037 -1.8382  0.9258  0.2106
 3638SOL    HW214551   4.182   0.248   3.031  1.8130  0.0685 -1.2719
 3638SOL     MW14552   4.179   0.169   2.995 -0.0874 -0.2864 -0.4695
 3639SOL     OW14553   7.626   9.732   9.615  0.7336 -0.2776  0.3837
 3639SOL    HW114554   7.606   9.769   9.701  0.8512  2.2642 -0.6061
 3639SOL    HW214555   7.708   9.774   9.589 -0.9556  1.7169 -2.3426
 3639SOL     MW14556   7.634   9.743   9.623  0.5221  0.3329 -0.1164
 3640SOL     OW14557   6.083   1.692  10.157 -0.4924  0.1085  0.3852
 3640SOL    HW114558   6.156   1.704  10.096 -1.1837 -0.8991 -0.6866
 3640SOL    HW214559   6.009   1.734  10.113 -1.5475 -2.5746 -0.6410
 3640SOL     MW14560   6.083   1.699  10.143 -0.7274 -0.3882  0.1028
 3641SOL     OW14561   3.715   9.837   2.213 -0.0296 -0.1062 -0.0283
 3641SOL    HW114562   3.802   9.811   2.243  0.3161  0.3745 -0.6008
 3641SOL    HW214563   3.674   9.877   2.290  0.4541  0.1574  0.0948
 3641SOL     MW14564   3.721   9.839   2.228  0.0821 -0.0060 -0.0888
 3642SOL     OW14565   6.205   8.632   3.992  0.7000  0.3466  0.3618
 3642SOL    HW114566   6.161   8.567   4.045 -0.7470  0.6343 -0.4449
 3642SOL    HW214567   6.150   8.710   3.998 -0.8511 -0.2774 -3.3501
 3642SOL     MW14568   6.192   8.634   4.000  0.2965  0.3013 -0.2463
 3643SOL     OW14569   5.185   0.162   9.966  1.2558  0.1254  0.6769
 3643SOL    HW114570   5.184   0.215  10.046  1.7925 -0.4819  1.1005
 3643SOL    HW214571   5.278   0.147   9.949  1.2120  1.2718 -0.7744
 3643SOL     MW14572   5.197   0.167   9.975  1.3221  0.1980  0.5386
 3644SOL     OW14573   4.502   1.328   5.047 -0.2267  0.1151 -0.5198
 3644SOL    HW114574   4.468   1.264   4.983 -0.7788 -1.5782  1.3564
 3644SOL    HW214575   4.443   1.402   5.040 -1.3610 -0.7795 -0.7670
 3644SOL     MW14576   4.489   1.329   5.037 -0.4537 -0.2332 -0.3006
 3645SOL     OW14577   3.683   0.198   3.530  0.2739 -0.0412  0.2814
 3645SOL    HW114578   3.768   0.197   3.572  1.4661 -0.5374 -1.9679
 3645SOL    HW214579   3.671   0.109   3.497 -0.8333  0.1866  0.0095
 3645SOL     MW14580   3.693   0.186   3.531  0.2853 -0.0773 -0.0579
 3646SOL     OW14581   4.240   9.104   2.815  0.0217  0.1410 -0.2384
 3646SOL    HW114582   4.201   9.045   2.880  0.1802 -0.1795 -0.4356
 3646SOL    HW214583   4.200   9.079   2.732 -1.2706  1.4904 -0.0794
 3646SOL     MW14584   4.229   9.093   2.813 -0.1309  0.2794 -0.2435
 3647SOL     OW14585   5.532   9.652   9.963 -0.4784 -0.2258  0.0188
 3647SOL    HW114586   5.504   9.617   9.879 -0.6602 -1.2936  0.5054
 3647SOL    HW214587   5.625   9.672   9.951 -1.1344  2.4657 -1.3216
 3647SOL     MW14588   5.541   9.650   9.950 -0.5911 -0.0073 -0.0961
 3648SOL     OW14589   3.793   8.956   2.158 -0.0161  0.2863  0.8769
 3648SOL    HW114590   3.761   8.999   2.079 -1.2166 -1.7619  0.1488
 3648SOL    HW214591   3.839   8.878   2.126  0.4552  0.0106  2.1632
 3648SOL     MW14592   3.795   8.951   2.143 -0.1143 -0.0264  0.9520
 3649SOL     OW14593   7.611   8.801   4.149  0.1314  0.5662 -0.5899
 3649SOL    HW114594   7.701   8.778   4.127  0.1670 -0.6468  0.7031
 3649SOL    HW214595   7.617   8.887   4.190  0.8267  0.1571  0.2030
 3649SOL     MW14596   7.624   8.809   4.152  0.2298  0.3479 -0.3092
 3650SOL     OW14597   4.840   0.070   0.887 -0.5428  0.0590  0.0361
 3650SOL    HW114598   4.909   0.133   0.863 -1.7049  1.1440 -0.5856
 3650SOL    HW214599   4.764   0.097   0.835 -1.7047 -0.5794  1.3432
 3650SOL     MW14600   4.839   0.082   0.877 -0.8555  0.1191  0.1284
 3651SOL     OW14601   7.926   9.275   9.585  0.2400 -0.2661  0.6232
 3651SOL    HW114602   7.956   9.185   9.599 -1.0452 -0.4858  2.2182
 3651SOL    HW214603   7.832   9.265   9.566  0.3212  0.6697 -0.3157
 3651SOL     MW14604   7.917   9.261   9.584  0.0780 -0.1697  0.7115
 3652SOL     OW14605   7.666   8.436   2.601 -0.1711 -0.3273  0.0617
 3652SOL    HW114606   7.695   8.456   2.690 -3.0140 -1.4918  1.3607
 3652SOL    HW214607   7.715   8.497   2.545  1.4622  0.6474  2.4261
 3652SOL     MW14608   7.677   8.447   2.605 -0.3339 -0.3528  0.5547
 3653SOL     OW14609   4.133   0.879   1.113  0.8398 -0.4760 -0.0458
 3653SOL    HW114610   4.163   0.967   1.137  2.0051 -0.7704 -0.3547
 3653SOL    HW214611   4.183   0.858   1.034 -1.3166 -0.4020 -1.5072
 3653SOL     MW14612   4.144   0.888   1.106  0.7064 -0.5057 -0.2840
 3654SOL     OW14613   7.320   9.176   4.619 -0.2701 -0.4793  0.6627
 3654SOL    HW114614   7.353   9.254   4.664 -1.7508  0.5431  0.0520
 3654SOL    HW214615   7.248   9.145   4.674  0.6002 -1.7403  1.1506
 3654SOL     MW14616   7.315   9.182   4.633 -0.3523 -0.5114  0.6462
 3655SOL     OW14617   4.138   0.084   9.356  0.3172 -0.2007 -0.0775
 3655SOL    HW114618   4.202   0.029   9.401  0.1413  0.6581  1.2589
 3655SOL    HW214619   4.098   0.026   9.291  0.9436 -1.3254  0.5198
 3655SOL     MW14620   4.141   0.069   9.353  0.3778 -0.2365  0.1827
 3656SOL     OW14621   6.021  10.037   0.501  0.2663 -0.2560 -0.2839
 3656SOL    HW114622   6.097  10.024   0.558  0.0926  0.0842  0.0301
 3656SOL    HW214623   6.057  10.083   0.425  0.0152  2.0154  0.8783
 3656SOL     MW14624   6.036  10.041   0.499  0.2091  0.0955 -0.0853
 3657SOL     OW14625   4.111   0.644   0.537  0.4245  0.0959  0.4105
 3657SOL    HW114626   4.043   0.585   0.570  1.4952 -0.5321  1.5742
 3657SOL    HW214627   4.086   0.730   0.571 -0.9068  0.2797 -0.9276
 3657SOL     MW14628   4.098   0.648   0.546  0.3894  0.0361  0.3871
 3658SOL     OW14629   3.833   9.637   2.796  0.1426 -0.1035 -0.6896
 3658SOL    HW114630   3.747   9.659   2.831 -0.6562 -1.4885 -1.7168
 3658SOL    HW214631   3.851   9.705   2.731  0.4276  0.9145  0.4130
 3658SOL     MW14632   3.824   9.649   2.792  0.0735 -0.1529 -0.6795
 3659SOL     OW14633   4.767   9.789   6.033  0.0943 -0.2926  0.0456
 3659SOL    HW114634   4.813   9.712   5.999 -1.4657 -0.6552 -1.4052
 3659SOL    HW214635   4.811   9.863   5.991  0.7589 -0.4811  0.4033
 3659SOL     MW14636   4.779   9.789   6.023 -0.0262 -0.3667 -0.1015
 3660SOL     OW14637   3.955   8.989   9.446  0.3154  0.0149 -0.2133
 3660SOL    HW114638   3.871   9.007   9.402  0.3281 -0.0250 -0.2530
 3660SOL    HW214639   3.943   9.024   9.534  0.8748  1.6287 -0.7491
 3660SOL     MW14640   3.942   8.996   9.452  0.3924  0.2267 -0.2908
 3661SOL     OW14641   7.610   0.276   3.146  0.4341  0.0210 -0.0855
 3661SOL    HW114642   7.563   0.298   3.226 -1.0839  2.4922 -1.5267
 3661SOL    HW214643   7.694   0.322   3.154  0.5051 -0.1834  0.3242
 3661SOL     MW14644   7.615   0.285   3.158  0.2394  0.3261 -0.2243
 3662SOL     OW14645   4.533   9.339   7.725 -0.1627  0.5814 -0.3143
 3662SOL    HW114646   4.501   9.251   7.745 -1.1842  0.7175 -1.2684
 3662SOL    HW214647   4.622   9.341   7.761 -0.3683 -0.6154  0.2914
 3662SOL     MW14648   4.541   9.327   7.732 -0.3278  0.4386 -0.3612
 3663SOL     OW14649   6.186   8.093   4.645  0.5224  0.0104 -0.4562
 3663SOL    HW114650   6.148   8.031   4.708 -1.5730  2.0280  0.4124
 3663SOL    HW214651   6.148   8.068   4.561 -2.0345  1.2909  0.2213
 3663SOL     MW14652   6.176   8.081   4.642 -0.1037  0.4542 -0.2481
 3664SOL     OW14653   3.896   0.553   9.188 -0.6076  0.7400  0.0889
 3664SOL    HW114654   3.819   0.565   9.244 -1.3307  0.1841 -0.7576
 3664SOL    HW214655   3.936   0.471   9.220  0.5337  1.7945  1.5163
 3664SOL     MW14656   3.891   0.543   9.200 -0.5513  0.8071  0.1671
 3665SOL     OW14657   7.000   7.953   9.700  0.4792  0.1161  0.1469
 3665SOL    HW114658   7.006   8.044   9.729 -0.1531  0.2516 -0.1393
 3665SOL    HW214659   7.000   7.902   9.782 -0.1384  0.4303  0.3512
 3665SOL     MW14660   7.001   7.958   9.715  0.3110  0.1767  0.1359
 3666SOL     OW14661   7.461   0.494   3.337  0.6227 -0.0492 -0.1701
 3666SOL    HW114662   7.464   0.515   3.243  1.3819 -1.9254 -0.6164
 3666SOL    HW214663   7.369   0.475   3.354  0.8118 -2.1494 -1.1839
 3666SOL     MW14664   7.449   0.495   3.326  0.7503 -0.5844 -0.3666
 3667SOL     OW14665   5.227   0.849   5.608 -0.1433 -0.3162 -0.1821
 3667SOL    HW114666   5.176   0.899   5.672  0.4385  0.5089 -0.3459
 3667SOL    HW214667   5.216   0.758   5.635 -1.6488 -0.1694 -0.1794
 3667SOL     MW14668   5.218   0.843   5.620 -0.2676 -0.1854 -0.2038
 3668SOL     OW14669   5.727   0.722   7.847  0.6217  0.6118  0.0721
 3668SOL    HW114670   5.653   0.691   7.795  2.3937  1.0526 -2.8898
 3668SOL    HW214671   5.727   0.817   7.834  0.9569  0.7810  1.1668
 3668SOL     MW14672   5.717   0.731   7.838  0.9053  0.6939 -0.1792
 3669SOL     OW14673   4.671   1.106   3.710  0.2955 -0.4068  0.1078
 3669SOL    HW114674   4.645   1.051   3.636 -0.7188  1.2549 -0.8190
 3669SOL    HW214675   4.637   1.060   3.787 -0.8909 -0.9019 -0.6763
 3669SOL     MW14676   4.663   1.092   3.710 -0.0007 -0.2498 -0.1224
 3670SOL     OW14677   5.333   7.720   0.831 -0.1833  0.2726  0.2867
 3670SOL    HW114678   5.253   7.722   0.884  0.1214 -0.1053  0.7702
 3670SOL    HW214679   5.307   7.675   0.750 -0.0684 -1.3552  1.1237
 3670SOL     MW14680   5.319   7.714   0.827 -0.1268  0.0027  0.4644
 3671SOL     OW14681   6.124   7.911   0.644 -0.2155 -0.4103  0.3018
 3671SOL    HW114682   6.184   7.982   0.665 -0.0776 -0.3803 -0.1796
 3671SOL    HW214683   6.039   7.939   0.679 -0.2297  0.1279 -0.1651
 3671SOL     MW14684   6.120   7.924   0.652 -0.1988 -0.3338  0.1742
 3672SOL     OW14685   5.631   9.861   3.760 -0.6945  0.2770  0.4324
 3672SOL    HW114686   5.645   9.956   3.763 -0.7136  0.2722  0.8723
 3672SOL    HW214687   5.594   9.840   3.846 -1.6571  0.0133 -0.0362
 3672SOL     MW14688   5.628   9.871   3.772 -0.8266  0.2409  0.4285
 3673SOL     OW14689   4.557   0.292   5.275 -0.1241 -0.0581  0.2460
 3673SOL    HW114690   4.510   0.363   5.231 -0.7844 -1.5238 -1.5826
 3673SOL    HW214691   4.587   0.329   5.357 -2.0978  1.7681  0.2135
 3673SOL     MW14692   4.554   0.306   5.280 -0.4786 -0.0096 -0.0045
 3674SOL     OW14693   5.697   8.387   5.328  0.0187  0.0234 -0.0562
 3674SOL    HW114694   5.730   8.314   5.275  1.0938  1.0793 -0.9213
 3674SOL    HW214695   5.768   8.405   5.390 -0.3265  0.1872  0.2927
 3674SOL     MW14696   5.711   8.380   5.329  0.1169  0.1875 -0.1256
 3675SOL     OW14697   5.761   9.126   2.088 -0.0415 -0.3806  0.2909
 3675SOL    HW114698   5.853   9.099   2.084 -0.3416 -1.7290  1.7143
 3675SOL    HW214699   5.761   9.215   2.053  1.6352 -0.7278 -0.7077
 3675SOL     MW14700   5.773   9.134   2.083  0.1437 -0.6088  0.3481
 3676SOL     OW14701   5.790   1.358   7.727 -0.0412  0.6534  0.1020
 3676SOL    HW114702   5.868   1.313   7.694  0.3203 -0.2574  2.0853
 3676SOL    HW214703   5.818   1.447   7.743  0.1673  0.7233 -0.5911
 3676SOL     MW14704   5.804   1.364   7.725  0.0355  0.5402  0.2756
 3677SOL     OW14705   4.881   8.495   2.221 -0.5213 -0.3867 -0.5816
 3677SOL    HW114706   4.904   8.433   2.290 -0.4492  1.1499  0.8255
 3677SOL    HW214707   4.801   8.538   2.253  0.3925  1.4788 -0.6734
 3677SOL     MW14708   4.873   8.492   2.235 -0.3886  0.0712 -0.4046
 3678SOL     OW14709   7.134   8.935   0.480  0.3535 -0.4356 -0.5941
 3678SOL    HW114710   7.226   8.910   0.488  0.6100  0.6842  0.1058
 3678SOL    HW214711   7.087   8.871   0.533  0.7558 -0.8180 -0.6926
 3678SOL     MW14712   7.140   8.923   0.488  0.4421 -0.3364 -0.5132
 3679SOL     OW14713   6.121   0.670   8.037 -0.1833 -0.4314 -0.1869
 3679SOL    HW114714   6.094   0.740   7.978  0.4479 -0.2458 -0.2665
 3679SOL    HW214715   6.050   0.606   8.032 -0.6784  0.1162 -0.2487
 3679SOL     MW14716   6.108   0.671   8.028 -0.1650 -0.3327 -0.2059
 3680SOL     OW14717   5.388   9.993   6.592  0.0394  0.5443  0.4738
 3680SOL    HW114718   5.396   9.929   6.663  0.0530 -0.6867 -0.6050
 3680SOL    HW214719   5.295   9.992   6.569 -0.0514  1.2965  0.7678
 3680SOL     MW14720   5.377   9.985   6.598  0.0290  0.4798  0.3682
 3681SOL     OW14721   7.796   0.681   5.565 -0.2140 -0.3248 -0.3754
 3681SOL    HW114722   7.769   0.703   5.476  0.7316 -5.2064 -2.1873
 3681SOL    HW214723   7.717   0.643   5.605 -1.0958  3.2070  1.6899
 3681SOL     MW14724   7.782   0.679   5.558 -0.2054 -0.5065 -0.3413
 3682SOL     OW14725   5.122   7.968   5.268 -0.3350 -0.3025  0.3814
 3682SOL    HW114726   5.087   7.922   5.345 -0.4103 -0.0600  0.4948
 3682SOL    HW214727   5.201   7.919   5.245 -1.3246 -1.5243 -0.5515
 3682SOL     MW14728   5.128   7.955   5.276 -0.4783 -0.4343  0.2711
 3683SOL     OW14729   4.387   7.851   6.803  0.0586 -1.2639  0.2710
 3683SOL    HW114730   4.429   7.782   6.751  1.0515 -0.8628  0.5293
 3683SOL    HW214731   4.405   7.931   6.755  1.3251 -0.8325  1.4172
 3683SOL     MW14732   4.395   7.852   6.789  0.3627 -1.1519  0.4600
 3684SOL     OW14733   5.521   1.208   3.177  0.2424 -0.0587 -0.3686
 3684SOL    HW114734   5.571   1.206   3.258  0.8545 -0.6279 -0.7511
 3684SOL    HW214735   5.509   1.301   3.158 -0.8142  0.0934  0.9161
 3684SOL     MW14736   5.526   1.220   3.185  0.1826 -0.1148 -0.2472
 3685SOL     OW14737   7.872   0.766   6.066  0.0096 -0.6022  0.0319
 3685SOL    HW114738   7.883   0.680   6.106  1.3092 -1.1246 -1.3508
 3685SOL    HW214739   7.911   0.758   5.979 -1.1253  0.9885 -0.6863
 3685SOL     MW14740   7.879   0.754   6.060  0.0317 -0.4584 -0.2509
 3686SOL     OW14741   5.192   1.104   6.444 -0.0788 -0.1057 -0.0022
 3686SOL    HW114742   5.282   1.084   6.422  0.0937 -0.2220  0.7671
 3686SOL    HW214743   5.141   1.032   6.406  0.0634  0.3279 -1.0464
 3686SOL     MW14744   5.197   1.091   6.436 -0.0365 -0.0630 -0.0392
 3687SOL     OW14745   3.892   9.797   2.562  0.2573 -0.2258  0.1721
 3687SOL    HW114746   3.912   9.889   2.544 -0.4982  0.1258  1.0396
 3687SOL    HW214747   3.906   9.753   2.478  0.3977  0.7190 -0.3195
 3687SOL     MW14748   3.897   9.804   2.548  0.1745 -0.0513  0.2227
 3688SOL     OW14749   4.132   9.356   6.772  0.2622  0.2608  0.2172
 3688SOL    HW114750   4.182   9.361   6.690 -0.5923 -0.0525 -0.3340
 3688SOL    HW214751   4.116   9.262   6.785 -0.7819  0.3947  0.0072
 3688SOL     MW14752   4.137   9.344   6.763  0.0067  0.2367  0.1148
 3689SOL     OW14753   5.898   0.340   1.840  0.1536 -0.0659 -0.8931
 3689SOL    HW114754   5.911   0.352   1.746 -0.3285 -2.1676 -1.2847
 3689SOL    HW214755   5.930   0.251   1.858 -1.3311 -0.3599  0.5852
 3689SOL     MW14756   5.904   0.329   1.830 -0.1111 -0.3883 -0.7469
 3690SOL     OW14757   5.667   7.913   8.907  0.3164  0.4040 -0.3170
 3690SOL    HW114758   5.699   7.859   8.980  0.8507  0.6367 -0.3769
 3690SOL    HW214759   5.694   7.865   8.829  0.2137  0.4291 -0.3682
 3690SOL     MW14760   5.675   7.899   8.906  0.3745  0.4387 -0.3320
 3691SOL     OW14761   6.220   0.821   2.141  0.2764  0.4810  0.3998
 3691SOL    HW114762   6.303   0.776   2.154  0.5593  1.1882  1.1198
 3691SOL    HW214763   6.206   0.819   2.047  0.0645 -1.4782  0.4399
 3691SOL     MW14764   6.229   0.815   2.130  0.2860  0.3125  0.5021
 3692SOL     OW14765   3.960   9.687   5.947  0.7941  0.0594 -0.0262
 3692SOL    HW114766   3.920   9.757   6.000 -2.2296 -1.7136  0.3121
 3692SOL    HW214767   3.977   9.729   5.862 -0.5599  1.3595  0.2750
 3692SOL     MW14768   3.957   9.702   5.943  0.2050 -0.0042  0.0599
 3693SOL     OW14769   4.985   0.292   0.799  0.1209 -0.8227 -0.1098
 3693SOL    HW114770   4.998   0.310   0.706  0.7803 -2.1411 -0.2973
 3693SOL    HW214771   5.074   0.291   0.836 -0.0532 -1.4364  0.3106
 3693SOL     MW14772   4.999   0.294   0.792  0.1862 -1.0828 -0.0784
 3694SOL     OW14773   7.456   9.215   1.031 -0.2830  0.1247  0.3682
 3694SOL    HW114774   7.409   9.295   1.008 -0.3926 -0.1536 -0.3979
 3694SOL    HW214775   7.434   9.153   0.962  0.2091 -0.4077  0.6778
 3694SOL     MW14776   7.447   9.217   1.019 -0.2315  0.0156  0.3067
 3695SOL     OW14777   4.236   9.599   1.149 -0.3434 -0.3567 -0.0376
 3695SOL    HW114778   4.262   9.553   1.228 -0.1438 -0.5841 -0.2337
 3695SOL    HW214779   4.317   9.607   1.098 -0.3008  0.5095  0.1440
 3695SOL     MW14780   4.250   9.594   1.153 -0.3108 -0.2708 -0.0395
 3696SOL     OW14781   3.668   0.350   5.861 -0.2383 -0.0016  0.1808
 3696SOL    HW114782   3.725   0.417   5.896 -0.8404  1.2612 -1.1278
 3696SOL    HW214783   3.602   0.398   5.810 -0.6412 -1.5729 -0.8885
 3696SOL     MW14784   3.667   0.365   5.859 -0.3735 -0.0431 -0.1392
 3697SOL     OW14785   4.673   0.508   2.128 -0.4877 -0.2523  0.4382
 3697SOL    HW114786   4.669   0.508   2.224 -0.1031  2.5217  0.5513
 3697SOL    HW214787   4.740   0.573   2.108  0.5187 -1.8626 -1.7489
 3697SOL     MW14788   4.681   0.517   2.138 -0.3005 -0.0957  0.1591
 3698SOL     OW14789   7.697   0.752   2.390 -0.3595 -0.1581 -0.0155
 3698SOL    HW114790   7.696   0.662   2.423  2.1930 -0.1352  0.2894
 3698SOL    HW214791   7.690   0.806   2.469  1.4238 -0.1255  0.1626
 3698SOL     MW14792   7.696   0.747   2.405  0.2240 -0.1506  0.0495
 3699SOL     OW14793   6.980   9.462   7.560  0.3664  0.4088 -0.0313
 3699SOL    HW114794   6.942   9.390   7.611  0.2547 -1.3524 -2.4196
 3699SOL    HW214795   6.934   9.458   7.476 -0.0792  3.7364 -0.0679
 3699SOL     MW14796   6.969   9.452   7.556  0.2914  0.6196 -0.3577
 3700SOL     OW14797   6.943   0.334   3.675 -0.2730  0.2068 -0.2653
 3700SOL    HW114798   7.028   0.368   3.703  0.3820 -0.3882 -1.4384
 3700SOL    HW214799   6.920   0.387   3.599 -0.4724 -0.2987 -0.5582
 3700SOL     MW14800   6.952   0.346   3.669 -0.2117  0.0587 -0.4626
 3701SOL     OW14801   4.321   0.433   5.607 -0.0251 -0.3428  0.3876
 3701SOL    HW114802   4.293   0.487   5.680 -0.1351 -1.8894  1.5444
 3701SOL    HW214803   4.332   0.346   5.644  2.0848 -0.7380 -0.9545
 3701SOL     MW14804   4.319   0.429   5.622  0.2440 -0.6041  0.3626
 3702SOL     OW14805   6.466   0.406   9.243  0.0222 -0.2565  0.2202
 3702SOL    HW114806   6.435   0.494   9.223 -0.4413 -0.3751  0.3941
 3702SOL    HW214807   6.414   0.379   9.319  0.5249 -0.4801  0.4913
 3702SOL     MW14808   6.455   0.414   9.251  0.0275 -0.3026  0.2801
 3703SOL     OW14809   4.063   0.513   0.965  0.3010  0.1772  0.0784
 3703SOL    HW114810   4.030   0.464   0.890 -0.4853 -1.1574  1.2360
 3703SOL    HW214811   4.143   0.467   0.991 -0.1755 -0.2406  0.8712
 3703SOL     MW14812   4.069   0.500   0.959  0.1311 -0.0587  0.3409
 3704SOL     OW14813   6.948   9.857   6.166  0.2879  0.0201  0.5681
 3704SOL    HW114814   6.996   9.897   6.238 -1.3606 -1.9840  2.9355
 3704SOL    HW214815   6.949   9.763   6.185 -0.6909 -0.5328 -1.7391
 3704SOL     MW14816   6.955   9.850   6.178 -0.0657 -0.3240  0.5762
 3705SOL     OW14817   7.303   0.600   4.329  0.1364  0.2450  0.2418
 3705SOL    HW114818   7.397   0.606   4.313 -0.3145  2.3765 -2.2826
 3705SOL    HW214819   7.279   0.513   4.300  1.1850  0.0170  0.0179
 3705SOL     MW14820   7.312   0.589   4.323  0.2168  0.5011 -0.1281
 3706SOL     OW14821   6.318   9.253   9.998  0.0566 -0.3892 -0.1696
 3706SOL    HW114822   6.313   9.273   9.904  2.0611 -0.8633 -0.4313
 3706SOL    HW214823   6.233   9.216  10.019 -0.0552 -1.3860 -2.0892
 3706SOL     MW14824   6.306   9.251   9.988  0.3113 -0.5872 -0.4632
 3707SOL     OW14825   7.885   9.984   9.896  0.0247 -0.3083  0.0199
 3707SOL    HW114826   7.884   9.997   9.991  0.8854 -0.2208  0.0254
 3707SOL    HW214827   7.798   9.953   9.875  0.4360 -2.3610  1.1222
 3707SOL     MW14828   7.873   9.982   9.906  0.1959 -0.5728  0.1690
 3708SOL     OW14829   5.645   0.361   7.303 -0.1721  0.2020  0.1691
 3708SOL    HW114830   5.584   0.352   7.376  1.2203 -1.1249  1.2365
 3708SOL    HW214831   5.608   0.306   7.234 -1.2776  1.1232  0.0012
 3708SOL     MW14832   5.632   0.353   7.304 -0.1335  0.1474  0.2901
 3709SOL     OW14833   4.164   9.310   7.356  0.2403 -0.3079  0.2104
 3709SOL    HW114834   4.115   9.243   7.309 -0.3622 -0.3693  0.9091
 3709SOL    HW214835   4.185   9.376   7.290 -2.4541  0.6815  0.2338
 3709SOL     MW14836   4.160   9.310   7.341 -0.2034 -0.1830  0.3076
 3710SOL     OW14837   3.954   0.693   1.202  0.3686  0.5538 -0.6930
 3710SOL    HW114838   3.957   0.638   1.124  0.1214 -0.4966  0.0126
 3710SOL    HW214839   4.004   0.771   1.179 -0.1912  0.5225 -2.0904
 3710SOL     MW14840   3.961   0.696   1.188  0.2600  0.4083 -0.7861
 3711SOL     OW14841   5.878   0.606   3.384 -0.6861 -0.1316  0.7246
 3711SOL    HW114842   5.957   0.577   3.430 -0.0463  1.6199  0.8401
 3711SOL    HW214843   5.848   0.682   3.434 -1.5250  0.1838 -0.2147
 3711SOL     MW14844   5.885   0.613   3.397 -0.7129  0.1465  0.6138
 3712SOL     OW14845   7.349   8.665   1.864  0.4827 -0.5799  0.6499
 3712SOL    HW114846   7.259   8.635   1.879  0.9004 -1.5975  1.1800
 3712SOL    HW214847   7.339   8.755   1.833 -0.7989 -1.1183 -0.6313
 3712SOL     MW14848   7.335   8.673   1.861  0.3664 -0.7893  0.5488
 3713SOL     OW14849   4.423   8.668   6.168  0.0940  0.5594 -0.0939
 3713SOL    HW114850   4.441   8.586   6.122 -0.8074 -0.2355  0.9218
 3713SOL    HW214851   4.386   8.641   6.252  0.7956  1.9838  0.7211
 3713SOL     MW14852   4.421   8.653   6.173  0.0671  0.6441  0.1524
 3714SOL     OW14853   5.025   9.829   7.937 -0.0639  0.6657  0.5132
 3714SOL    HW114854   4.981   9.757   7.893  0.4698 -0.7896  2.2731
 3714SOL    HW214855   5.115   9.799   7.949  0.3213  1.8603  0.7991
 3714SOL     MW14856   5.031   9.815   7.933  0.0598  0.6306  0.7885
 3715SOL     OW14857   4.109   9.905   9.780  0.5874 -0.1911 -0.5316
 3715SOL    HW114858   4.163   9.930   9.855 -0.2687 -0.4888  0.2087
 3715SOL    HW214859   4.109   9.982   9.724  2.6545 -0.5508 -1.1005
 3715SOL     MW14860   4.116   9.919   9.783  0.7503 -0.2796 -0.5085
 3716SOL     OW14861   7.177   0.067   4.473  0.2046 -0.0392  0.0774
 3716SOL    HW114862   7.233  -0.007   4.450  0.4991  0.3394 -0.4338
 3716SOL    HW214863   7.237   0.139   4.492 -0.0016 -0.3385  2.1799
 3716SOL     MW14864   7.193   0.067   4.473  0.2164 -0.0285  0.2915
 3717SOL     OW14865   7.067   0.102   9.180  0.5014 -0.1348  0.6726
 3717SOL    HW114866   7.058   0.009   9.163 -0.9163  0.2256 -0.7895
 3717SOL    HW214867   7.145   0.109   9.234  0.2957 -2.2148  1.3283
 3717SOL     MW14868   7.076   0.091   9.185  0.2829 -0.3662  0.5640
 3718SOL     OW14869   5.511   9.135   5.875  0.3200  0.4099  0.2802
 3718SOL    HW114870   5.548   9.175   5.796 -0.4712 -2.2978 -1.5978
 3718SOL    HW214871   5.416   9.138   5.861  0.1382  0.3834  1.4165
 3718SOL     MW14872   5.503   9.141   5.863  0.1890  0.0419  0.1804
 3719SOL     OW14873   5.751   9.092   3.396  0.4460 -0.5592  0.1870
 3719SOL    HW114874   5.716   9.063   3.480  0.8559 -0.7646  0.2871
 3719SOL    HW214875   5.750   9.013   3.341  0.6363 -0.5364  0.1512
 3719SOL     MW14876   5.746   9.078   3.400  0.5268 -0.5838  0.1957
 3720SOL     OW14877   3.655  10.059   6.458  0.1370  0.0677 -0.0030
 3720SOL    HW114878   3.632  10.121   6.527 -1.4312 -1.5031  0.9678
 3720SOL    HW214879   3.697   9.986   6.503  1.2314  0.0268 -1.0273
 3720SOL     MW14880   3.657  10.058   6.473  0.0733 -0.1492 -0.0102
 3721SOL     OW14881   3.884   0.153   2.614  0.2416 -0.1848  0.7166
 3721SOL    HW114882   3.837   0.205   2.548  1.2761  0.4196  0.4342
 3721SOL    HW214883   3.976   0.176   2.602  0.7883 -2.3303  0.3756
 3721SOL     MW14884   3.890   0.163   2.603  0.4544 -0.3922  0.6327
 3722SOL     OW14885   6.321   0.080   0.818  0.1130  0.0463 -0.2876
 3722SOL    HW114886   6.296  -0.012   0.809 -1.1138  0.1756  1.3471
 3722SOL    HW214887   6.384   0.081   0.890 -3.0954  0.8583  2.7896
 3722SOL     MW14888   6.326   0.068   0.827 -0.4839  0.1730  0.3465
 3723SOL     OW14889   5.429   0.801   9.170 -0.0337 -0.2791  0.3496
 3723SOL    HW114890   5.446   0.757   9.087 -0.9441  1.1527 -0.6384
 3723SOL    HW214891   5.349   0.761   9.203  0.2080 -0.6962  0.4364
 3723SOL     MW14892   5.421   0.790   9.163 -0.1237 -0.1426  0.2283
 3724SOL     OW14893   4.300   0.526   1.854 -0.2517 -0.1296 -0.3559
 3724SOL    HW114894   4.315   0.578   1.775 -1.7944 -0.6152 -0.9942
 3724SOL    HW214895   4.376   0.468   1.859 -0.3860 -0.4569 -1.7971
 3724SOL     MW14896   4.313   0.525   1.844 -0.4774 -0.2390 -0.6358
 3725SOL     OW14897   5.281   9.553   0.075 -0.4233  0.1029  0.1567
 3725SOL    HW114898   5.279   9.458   0.087 -0.0947 -0.2378 -2.0460
 3725SOL    HW214899   5.325   9.586   0.153 -0.1816 -1.5862  0.7793
 3725SOL     MW14900   5.287   9.544   0.087 -0.3466 -0.1703 -0.0560
 3726SOL     OW14901   6.786   9.730   8.395  0.4706  0.4138  0.0995
 3726SOL    HW114902   6.769   9.639   8.417  0.8410  0.3535  0.1332
 3726SOL    HW214903   6.711   9.755   8.339  1.8744 -0.8431 -2.5382
 3726SOL     MW14904   6.773   9.721   8.390  0.7094  0.2365 -0.2509
 3727SOL     OW14905   3.898   9.101   9.688 -0.3051  0.1276  0.4505
 3727SOL    HW114906   3.926   9.190   9.708 -0.2135  0.3064 -0.4569
 3727SOL    HW214907   3.816   9.090   9.736  0.3087  0.2613  1.5675
 3727SOL     MW14908   3.891   9.111   9.698 -0.2102  0.1696  0.4787
 3728SOL     OW14909   6.997   1.375   0.620 -0.0297  0.1411 -0.0831
 3728SOL    HW114910   6.978   1.458   0.662  0.1657  0.4503 -0.6001
 3728SOL    HW214911   6.921   1.320   0.640  0.4953 -0.0513  1.4849
 3728SOL     MW14912   6.984   1.379   0.628  0.0673  0.1568  0.0583
 3729SOL     OW14913   4.057   9.251   1.089  0.0392 -0.1231  0.1169
 3729SOL    HW114914   4.037   9.342   1.112  1.4563  0.4956 -0.9803
 3729SOL    HW214915   3.990   9.200   1.136  0.9428  1.2321  3.1497
 3729SOL     MW14916   4.045   9.257   1.098  0.3515  0.1425  0.3774
 3730SOL     OW14917   5.634   1.279   5.467  0.1920 -0.7555  0.5961
 3730SOL    HW114918   5.729   1.289   5.465  0.1217 -0.1121  0.1085
 3730SOL    HW214919   5.613   1.265   5.560  0.5315  1.6452  1.1066
 3730SOL     MW14920   5.644   1.279   5.479  0.2282 -0.3459  0.5992
 3731SOL     OW14921   5.472   0.629   7.731  0.0377  0.0949 -0.0695
 3731SOL    HW114922   5.440   0.713   7.698 -1.2367  0.0142  0.9079
 3731SOL    HW214923   5.397   0.589   7.774  0.9341 -1.0256  0.5302
 3731SOL     MW14924   5.458   0.635   7.732 -0.0131 -0.0668  0.1427
 3732SOL     OW14925   6.423   8.313   2.554 -0.5285  0.4433  0.2335
 3732SOL    HW114926   6.429   8.224   2.588  0.1546 -0.0793 -1.1529
 3732SOL    HW214927   6.354   8.354   2.605 -2.1198 -1.4317 -0.2945
 3732SOL     MW14928   6.415   8.307   2.566 -0.6507  0.1207 -0.0241
 3733SOL     OW14929   5.680   1.012   6.514 -0.2157 -0.1518 -0.2209
 3733SOL    HW114930   5.708   1.089   6.465  0.5656 -1.6095 -2.1990
 3733SOL    HW214931   5.750   0.997   6.577  0.4864 -0.2140 -0.9989
 3733SOL     MW14932   5.693   1.020   6.516 -0.0161 -0.3564 -0.5918
 3734SOL     OW14933   7.311   8.503   7.098  0.2086  0.1282  0.2079
 3734SOL    HW114934   7.279   8.593   7.100 -0.8315 -0.2133 -0.3175
 3734SOL    HW214935   7.321   8.483   7.005  0.8232 -0.1765  0.3291
 3734SOL     MW14936   7.308   8.512   7.086  0.1513  0.0412  0.1535
 3735SOL     OW14937   6.020   7.985   7.943  0.5304 -0.3333 -0.8809
 3735SOL    HW114938   6.107   7.950   7.922  0.8258  0.4952 -1.1179
 3735SOL    HW214939   5.987   7.928   8.012  1.5899 -0.2132 -0.2435
 3735SOL     MW14940   6.028   7.973   7.949  0.7127 -0.2057 -0.8270
 3736SOL     OW14941   6.137   0.812   8.281  0.0429  0.0119  0.0695
 3736SOL    HW114942   6.227   0.786   8.302  0.7972  1.3293 -1.3755
 3736SOL    HW214943   6.120   0.771   8.196  0.1164  1.5720 -0.7289
 3736SOL     MW14944   6.147   0.803   8.273  0.1543  0.3992 -0.2324
 3737SOL     OW14945   6.642   9.606   6.580  0.4602 -0.5669  0.1040
 3737SOL    HW114946   6.550   9.585   6.598  0.2890 -1.2193 -1.3886
 3737SOL    HW214947   6.638   9.685   6.526  0.8595  0.1573  1.1038
 3737SOL     MW14948   6.629   9.613   6.575  0.4909 -0.5572  0.0376
 3738SOL     OW14949   5.435   8.282   3.870 -0.2774 -0.2005  0.1126
 3738SOL    HW114950   5.411   8.338   3.944 -1.1732  0.8141 -0.9179
 3738SOL    HW214951   5.353   8.242   3.841  0.0253 -0.4157 -0.4686
 3738SOL     MW14952   5.421   8.284   3.876 -0.3572 -0.0930 -0.1043
 3739SOL     OW14953   3.831   8.610   1.510 -0.0736 -0.0905 -0.0277
 3739SOL    HW114954   3.847   8.636   1.419 -0.1775  2.0249  0.4950
 3739SOL    HW214955   3.901   8.653   1.560 -0.4395 -0.6193  0.9722
 3739SOL     MW14956   3.843   8.620   1.505 -0.1368  0.1230  0.1772
 3740SOL     OW14957   7.223   0.065   6.063 -0.1685 -0.4076 -0.0168
 3740SOL    HW114958   7.215   0.048   6.157  1.8702 -0.1808  0.2456
 3740SOL    HW214959   7.293   0.006   6.034 -0.9255 -0.6426 -1.4553
 3740SOL     MW14960   7.231   0.055   6.072  0.0040 -0.4087 -0.1751
 3741SOL     OW14961   5.197   7.667   5.487  0.3193  0.6227 -0.0258
 3741SOL    HW114962   5.220   7.676   5.394  0.8951  1.4926  0.1850
 3741SOL    HW214963   5.132   7.597   5.489  0.8294  0.0911 -1.0022
 3741SOL     MW14964   5.191   7.659   5.474  0.4654  0.6682 -0.1288
 3742SOL     OW14965   6.734   0.731   8.096 -0.1302 -0.1216  0.9044
 3742SOL    HW114966   6.791   0.752   8.170  0.4720  0.2921  0.3375
 3742SOL    HW214967   6.764   0.644   8.068  3.9712  2.0634 -2.6775
 3742SOL     MW14968   6.746   0.722   8.102  0.5028  0.2281  0.3460
 3743SOL     OW14969   7.425   9.306   3.924 -0.2245  0.6296  0.1810
 3743SOL    HW114970   7.355   9.266   3.873  1.0768 -0.6853 -0.6223
 3743SOL    HW214971   7.379   9.351   3.995 -1.7976 -2.3033  1.1921
 3743SOL     MW14972   7.409   9.307   3.927 -0.2611  0.0579  0.2089
 3744SOL     OW14973   4.630   0.118   2.775  0.5506 -0.0215  0.2373
 3744SOL    HW114974   4.585   0.115   2.859 -0.5317  0.0153 -0.3207
 3744SOL    HW214975   4.707   0.171   2.790  0.4380 -0.1293  1.2381
 3744SOL     MW14976   4.634   0.124   2.788  0.3898 -0.0311  0.2969
 3745SOL     OW14977   5.689   0.189   4.633  0.2334  0.4408 -0.0612
 3745SOL    HW114978   5.727   0.208   4.547 -2.0672  3.5826 -0.5348
 3745SOL    HW214979   5.636   0.111   4.618 -0.4595  1.1634 -1.6588
 3745SOL     MW14980   5.687   0.181   4.619 -0.1695  0.9609 -0.3399
 3746SOL     OW14981   5.180   7.709   8.258  0.2644  0.4867 -0.2205
 3746SOL    HW114982   5.273   7.718   8.235  0.0766  0.4002 -1.0448
 3746SOL    HW214983   5.165   7.615   8.261  0.2755  0.4967  0.2411
 3746SOL     MW14984   5.191   7.698   8.255  0.2406  0.4764 -0.2693
 3747SOL     OW14985   7.818   0.534   3.394  0.3064 -0.2085 -0.6193
 3747SOL    HW114986   7.776   0.620   3.388  0.3310 -0.0822  0.8690
 3747SOL    HW214987   7.852   0.529   3.483  0.6346 -1.6217 -0.7993
 3747SOL     MW14988   7.817   0.545   3.405  0.3539 -0.3817 -0.4432
 3748SOL     OW14989   7.800   8.975   0.427 -0.2957  0.1427 -0.1275
 3748SOL    HW114990   7.829   8.905   0.368  0.3595 -1.1572  1.6181
 3748SOL    HW214991   7.746   9.032   0.373  1.0074 -0.4514 -2.1826
 3748SOL     MW14992   7.797   8.973   0.412 -0.0322 -0.1122 -0.1691
 3749SOL     OW14993   4.413   1.163   4.838  0.1646  0.0183  0.2606
 3749SOL    HW114994   4.331   1.149   4.791 -0.2656  1.6325  0.4438
 3749SOL    HW214995   4.426   1.083   4.889 -0.5858 -0.7975 -0.7995
 3749SOL     MW14996   4.404   1.151   4.839  0.0057  0.1258  0.1426
 3750SOL     OW14997   5.251   9.139   5.883 -0.7032  0.3076 -0.0420
 3750SOL    HW114998   5.245   9.048   5.854  3.4975  0.3753 -1.8371
 3750SOL    HW214999   5.246   9.134   5.978 -0.2708 -1.8565 -0.0837
 3750SOL     MW15000   5.250   9.127   5.892 -0.0797  0.0254 -0.2892
 3751SOL     OW15001   6.671   0.728   5.521 -0.3575  0.1095 -0.4667
 3751SOL    HW115002   6.739   0.767   5.466  0.1708  2.2522  1.5237
 3751SOL    HW215003   6.624   0.803   5.557 -1.6309 -1.2455  0.8081
 3751SOL     MW15004   6.674   0.743   5.518 -0.4577  0.2155 -0.0273
 3752SOL     OW15005   6.871   1.336   5.685  0.3369  0.0576 -0.0456
 3752SOL    HW115006   6.879   1.254   5.637 -0.1299 -0.2858  0.4591
 3752SOL    HW215007   6.839   1.399   5.620  0.3592 -0.2376 -0.3453
 3752SOL     MW15008   6.868   1.334   5.670  0.2771 -0.0283 -0.0180
 3753SOL     OW15009   5.714   0.685   2.632  0.2041 -0.2667 -0.1836
 3753SOL    HW115010   5.725   0.776   2.604 -0.2669 -0.3935 -0.8194
 3753SOL    HW215011   5.650   0.689   2.703 -0.2645 -0.1527 -0.6043
 3753SOL     MW15012   5.707   0.698   2.637  0.0777 -0.2684 -0.3258
 3754SOL     OW15013   6.512   7.788   1.883  0.1861  0.4674 -0.3875
 3754SOL    HW115014   6.532   7.694   1.877 -0.9270  0.0791  1.3646
 3754SOL    HW215015   6.478   7.810   1.796  0.6432 -0.7011 -0.8924
 3754SOL     MW15016   6.510   7.778   1.870  0.0978  0.2579 -0.2196
 3755SOL     OW15017   7.334  10.068   1.224  0.1223 -0.3625 -0.3047
 3755SOL    HW115018   7.365  10.129   1.157  0.8033 -0.9297 -0.5209
 3755SOL    HW215019   7.240  10.064   1.211  0.2169 -0.2763 -1.0838
 3755SOL     MW15020   7.326  10.075   1.213  0.2267 -0.4272 -0.4386
 3756SOL     OW15021   5.698   2.011   4.738 -0.2333 -0.5439 -0.8273
 3756SOL    HW115022   5.604   2.021   4.721 -0.3176 -1.3339 -0.8293
 3756SOL    HW215023   5.704   1.941   4.803  0.4727 -2.1035 -2.4806
 3756SOL     MW15024   5.686   2.003   4.745 -0.1496 -0.8601 -1.0501
 3757SOL     OW15025   7.082   0.654   7.310  0.1253  0.4377 -0.1039
 3757SOL    HW115026   7.023   0.636   7.383  1.1070  1.3462  0.9515
 3757SOL    HW215027   7.086   0.750   7.305  0.5773  0.3831 -0.9295
 3757SOL     MW15028   7.074   0.664   7.319  0.3182  0.5526 -0.0730
 3758SOL     OW15029   5.385   9.928   2.706 -0.1982 -0.1220 -0.1048
 3758SOL    HW115030   5.461   9.975   2.740 -1.3926  0.6283  1.6782
 3758SOL    HW215031   5.346   9.988   2.643 -0.2959  0.2395  0.2934
 3758SOL     MW15032   5.390   9.943   2.702 -0.3721  0.0276  0.1887
 3759SOL     OW15033   4.360   9.154   6.019 -0.4590  0.1431  0.4607
 3759SOL    HW115034   4.289   9.192   5.966  0.1286  1.6944  0.7112
 3759SOL    HW215035   4.355   9.202   6.102  1.9969  1.6737 -0.1587
 3759SOL     MW15036   4.350   9.166   6.023 -0.0494  0.5579  0.4111
 3760SOL     OW15037   4.071   0.003   3.749  0.5645  0.2780  0.3709
 3760SOL    HW115038   4.006  -0.066   3.764  0.4108 -0.4522 -2.8817
 3760SOL    HW215039   4.019   0.080   3.726  0.7903  0.4671  0.4954
 3760SOL     MW15040   4.055   0.004   3.748  0.5742  0.2051 -0.0500
 3761SOL     OW15041   5.873   9.725   5.618 -0.1882  0.0221 -0.2775
 3761SOL    HW115042   5.811   9.668   5.665 -0.0071 -0.3510 -0.4898
 3761SOL    HW215043   5.945   9.667   5.594  0.2342  0.4482 -0.0555
 3761SOL     MW15044   5.874   9.710   5.621 -0.1070  0.0292 -0.2762
 3762SOL     OW15045   5.947   0.247   5.607  0.0715  0.3037  0.0085
 3762SOL    HW115046   5.968   0.309   5.676  2.1039  0.9546 -1.1182
 3762SOL    HW215047   6.008   0.174   5.620 -0.9792 -0.5769  0.1579
 3762SOL     MW15048   5.958   0.245   5.618  0.2036  0.2728 -0.1230
 3763SOL     OW15049   6.582   0.814   8.812  0.0259  0.0551  0.1445
 3763SOL    HW115050   6.574   0.762   8.893 -0.5930 -0.6298 -0.3426
 3763SOL    HW215051   6.676   0.813   8.792 -0.1494 -2.6930 -0.9864
 3763SOL     MW15052   6.594   0.807   8.821 -0.0810 -0.4069 -0.0733
 3764SOL     OW15053   6.324   9.691   3.339 -0.0940 -0.2627  0.2582
 3764SOL    HW115054   6.234   9.697   3.306  0.6005  0.5086 -1.6304
 3764SOL    HW215055   6.371   9.760   3.293  0.6253  2.3486  4.3555
 3764SOL     MW15056   6.318   9.701   3.328  0.0963  0.1925  0.5555
 3765SOL     OW15057   4.067   1.069  10.094  0.0884 -0.1398  0.5451
 3765SOL    HW115058   4.012   1.030  10.026  1.3657 -1.5223  0.2556
 3765SOL    HW215059   4.155   1.068  10.057  0.4138  1.6543  1.1574
 3765SOL     MW15060   4.071   1.064  10.080  0.3041 -0.0844  0.5886
 3766SOL     OW15061   4.343   8.348   5.338  0.0036 -0.2249  0.0286
 3766SOL    HW115062   4.385   8.297   5.407 -0.3359  0.0287  0.4288
 3766SOL    HW215063   4.401   8.424   5.326 -0.8521  0.6960  1.3440
 3766SOL     MW15064   4.357   8.352   5.346 -0.1573 -0.0668  0.2595
 3767SOL     OW15065   4.347   0.683   4.960 -0.0006  0.5154 -0.0730
 3767SOL    HW115066   4.346   0.645   4.872  1.3917 -1.0430  0.5259
 3767SOL    HW215067   4.384   0.771   4.947  2.2770 -0.4632 -0.8564
 3767SOL     MW15068   4.352   0.690   4.946  0.4933  0.1740 -0.0978
 3768SOL     OW15069   7.939   9.389   7.992  0.0644  0.3213  0.2598
 3768SOL    HW115070   7.891   9.340   7.925  3.2826 -0.9648 -1.3308
 3768SOL    HW215071   7.935   9.334   8.070  0.9071 -0.9932 -0.5723
 3768SOL     MW15072   7.932   9.375   7.993  0.6109 -0.0287 -0.0663
 3769SOL     OW15073   5.900   9.300   6.951 -0.0188  0.0060  0.3992
 3769SOL    HW115074   5.976   9.278   7.003  0.3000  1.7340  0.7264
 3769SOL    HW215075   5.825   9.285   7.009  0.1929 -0.0563  0.6530
 3769SOL     MW15076   5.900   9.295   6.966  0.0526  0.2301  0.4774
 3770SOL     OW15077   6.829   0.263   1.599 -0.0666 -0.2677  0.1443
 3770SOL    HW115078   6.915   0.286   1.565 -0.4839  0.6958 -0.2894
 3770SOL    HW215079   6.826   0.167   1.595  1.3241 -0.3760  1.0348
 3770SOL     MW15080   6.840   0.253   1.594  0.0644 -0.1526  0.2058
 3771SOL     OW15081   6.421   9.206   0.577 -0.1721 -0.1669 -0.1276
 3771SOL    HW115082   6.470   9.135   0.536 -1.5429 -0.4183 -1.3892
 3771SOL    HW215083   6.467   9.222   0.660  1.5460 -0.9277 -0.8790
 3771SOL     MW15084   6.434   9.199   0.583 -0.1254 -0.3031 -0.3985
 3772SOL     OW15085   4.797   1.223   0.351  0.1140  0.1528  0.0278
 3772SOL    HW115086   4.786   1.292   0.417  1.4362  1.5237 -1.1145
 3772SOL    HW215087   4.775   1.266   0.268  0.1891 -1.0374 -0.6219
 3772SOL     MW15088   4.792   1.238   0.349  0.3021  0.1771 -0.2134
 3773SOL     OW15089   4.148   9.328   4.833  0.1276  0.3389  0.0895
 3773SOL    HW115090   4.098   9.410   4.833 -0.3742  0.0467 -0.7475
 3773SOL    HW215091   4.081   9.260   4.841  0.1939 -0.1415 -2.6632
 3773SOL     MW15092   4.132   9.330   4.834  0.0690  0.2349 -0.3936
 3774SOL     OW15093   6.762   0.095   5.522  0.2952  0.2970 -0.0483
 3774SOL    HW115094   6.807   0.099   5.437 -0.9083 -1.5775 -0.8513
 3774SOL    HW215095   6.675   0.062   5.501 -0.9221  2.2033  1.6610
 3774SOL     MW15096   6.756   0.091   5.508 -0.0306  0.3013  0.0737
 3775SOL     OW15097   4.342   0.835   8.878  0.0953 -0.0265 -0.4222
 3775SOL    HW115098   4.430   0.864   8.899  0.6435 -1.6331 -0.3574
 3775SOL    HW215099   4.344   0.815   8.784 -0.6031  1.2062 -0.7263
 3775SOL     MW15100   4.354   0.836   8.868  0.0751 -0.0769 -0.4544
 3776SOL     OW15101   4.355   0.089   8.965  0.1245 -0.2304  0.3867
 3776SOL    HW115102   4.371   0.014   8.909  0.2184  0.4198 -0.4731
 3776SOL    HW215103   4.398   0.067   9.048 -0.1179 -1.2458  0.2521
 3776SOL     MW15104   4.363   0.076   8.969  0.1045 -0.2795  0.2529
 3777SOL     OW15105   6.131   0.565   9.258 -0.3162 -0.2187  0.3289
 3777SOL    HW115106   6.126   0.479   9.298  0.0644 -0.5196 -0.2591
 3777SOL    HW215107   6.083   0.556   9.175  0.5303 -0.1388 -0.1873
 3777SOL     MW15108   6.124   0.553   9.252 -0.1511 -0.2484  0.1803
 3778SOL     OW15109   5.567   7.781   7.435  0.2579  0.4247  0.3313
 3778SOL    HW115110   5.616   7.813   7.359  0.3540  0.5680  0.4531
 3778SOL    HW215111   5.574   7.852   7.499 -2.3252  1.6321 -0.5747
 3778SOL     MW15112   5.575   7.795   7.433 -0.0768  0.6065  0.2258
 3779SOL     OW15113   4.965   8.937   1.566 -0.7590 -0.4018  0.5659
 3779SOL    HW115114   4.876   8.910   1.541 -0.0160 -2.2857 -0.2237
 3779SOL    HW215115   4.996   8.987   1.490 -0.3041 -1.8438 -0.2398
 3779SOL     MW15116   4.957   8.940   1.552 -0.5978 -0.8494  0.3512
 3780SOL     OW15117   7.057   8.957   2.091 -0.6053  0.3299 -0.1018
 3780SOL    HW115118   7.071   9.008   2.011  1.9485  1.7103  1.0918
 3780SOL    HW215119   6.975   8.991   2.127  0.6334  3.2703  0.2645
 3780SOL     MW15120   7.048   8.968   2.085 -0.0949  0.9114  0.1081
 3781SOL     OW15121   6.526   1.913   1.498 -0.5743 -0.9365 -0.4360
 3781SOL    HW115122   6.466   1.987   1.483  1.2407  0.8919  0.7489
 3781SOL    HW215123   6.565   1.897   1.412 -2.0562 -1.5641 -1.0262
 3781SOL     MW15124   6.524   1.921   1.484 -0.5294 -0.7749 -0.3559
 3782SOL     OW15125   5.115   0.131   7.479  0.0926 -0.3548  0.2122
 3782SOL    HW115126   5.020   0.144   7.480  0.1538  0.1509  1.2841
 3782SOL    HW215127   5.137   0.118   7.387 -1.5224 -4.5332  0.1953
 3782SOL     MW15128   5.105   0.131   7.467 -0.1165 -0.8491  0.3542
 3783SOL     OW15129   5.280   9.283   4.474 -0.0882  0.1744  0.1001
 3783SOL    HW115130   5.215   9.303   4.542  0.1534 -1.8479  1.0192
 3783SOL    HW215131   5.238   9.309   4.392 -2.5988 -2.0063  0.5357
 3783SOL     MW15132   5.266   9.289   4.472 -0.3936 -0.3913  0.2824
 3784SOL     OW15133   5.675   8.148   0.679 -0.0269 -0.2231  0.1380
 3784SOL    HW115134   5.636   8.120   0.761  0.2225 -1.8170 -0.2495
 3784SOL    HW215135   5.632   8.094   0.612  2.6855 -1.9982 -0.3260
 3784SOL     MW15136   5.664   8.137   0.681  0.3717 -0.6765  0.0234
 3785SOL     OW15137   6.076   9.713   6.057 -0.0266 -0.4740  0.1190
 3785SOL    HW115138   6.099   9.759   6.137  1.4740  2.3698 -1.7587
 3785SOL    HW215139   6.161   9.693   6.016 -0.7371 -2.1439 -0.6199
 3785SOL     MW15140   6.091   9.717   6.062  0.0797 -0.3160 -0.2331
 3786SOL     OW15141   6.937   9.103   5.597 -0.6444  0.4911 -0.1088
 3786SOL    HW115142   7.021   9.147   5.583  0.0849 -0.0412  2.2028
 3786SOL    HW215143   6.960   9.017   5.631 -2.1273 -0.1764 -0.7005
 3786SOL     MW15144   6.951   9.097   5.600 -0.7458  0.3296  0.1227
 3787SOL     OW15145   7.801   9.668   3.478  0.2251 -0.0391 -0.3080
 3787SOL    HW115146   7.745   9.736   3.513 -0.3855 -1.0145  0.6752
 3787SOL    HW215147   7.858   9.643   3.551  0.8854 -0.1264 -0.8442
 3787SOL     MW15148   7.801   9.674   3.492  0.2318 -0.1821 -0.2478
 3788SOL     OW15149   5.846   7.777   2.377 -0.2122  0.0130  0.5617
 3788SOL    HW115150   5.902   7.855   2.369  0.5817 -0.4991  1.0293
 3788SOL    HW215151   5.841   7.761   2.471  0.1615 -0.8850  0.4327
 3788SOL     MW15152   5.853   7.786   2.388 -0.0551 -0.1768  0.6073
 3789SOL     OW15153   6.503   8.049   3.454 -0.0083  0.0480 -0.1208
 3789SOL    HW115154   6.589   8.069   3.416  0.4457 -0.1450  0.7741
 3789SOL    HW215155   6.486   7.959   3.428 -0.0623  0.1662 -0.5090
 3789SOL     MW15156   6.512   8.040   3.445  0.0455  0.0379 -0.0526
 3790SOL     OW15157   6.725   8.007   1.946  0.0126  0.3073  0.6781
 3790SOL    HW115158   6.642   7.978   1.910 -0.3617  1.7146  0.3464
 3790SOL    HW215159   6.775   7.926   1.960 -1.1964 -0.5126  0.3882
 3790SOL     MW15160   6.721   7.992   1.943 -0.2004  0.3864  0.5944
 3791SOL     OW15161   5.097   9.206   4.953 -0.0736  0.3996 -0.5091
 3791SOL    HW115162   5.028   9.194   5.018 -0.2916 -0.3363 -0.8685
 3791SOL    HW215163   5.175   9.224   5.005 -0.4764  0.9676 -0.0884
 3791SOL     MW15164   5.098   9.207   4.969 -0.1572  0.3770 -0.5009
 3792SOL     OW15165   4.539   0.928  10.037  0.0914  0.4344 -0.2027
 3792SOL    HW115166   4.612   0.932   9.975  0.3143  0.7916  0.0793
 3792SOL    HW215167   4.461   0.936   9.983  0.1038 -2.4699 -0.8261
 3792SOL     MW15168   4.538   0.930  10.022  0.1231  0.0916 -0.2486
 3793SOL     OW15169   6.160   8.364   9.299  0.3509 -0.0056 -0.1949
 3793SOL    HW115170   6.097   8.299   9.269 -0.7534 -0.1622  2.2564
 3793SOL    HW215171   6.180   8.338   9.389 -1.0432  3.6068  1.3507
 3793SOL     MW15172   6.154   8.352   9.307  0.0147  0.4595  0.3430
 3794SOL     OW15173   4.456   9.536   3.773 -0.2007  0.0597 -0.1135
 3794SOL    HW115174   4.541   9.577   3.791 -0.2463  0.2293 -0.2850
 3794SOL    HW215175   4.457   9.456   3.825 -0.4023  0.6366  0.7976
 3794SOL     MW15176   4.468   9.531   3.782 -0.2340  0.1602 -0.0140
 3795SOL     OW15177   3.664   9.752   4.707  0.0013 -0.1564 -0.0227
 3795SOL    HW115178   3.641   9.790   4.792 -1.7101 -0.4177 -0.3362
 3795SOL    HW215179   3.589   9.771   4.651  1.4194  0.6738 -1.7159
 3795SOL     MW15180   3.651   9.759   4.711 -0.0382 -0.0799 -0.2928
 3796SOL     OW15181   7.344   1.380   1.486 -0.3342  0.1483 -0.2394
 3796SOL    HW115182   7.257   1.357   1.520 -1.2796  0.2474 -2.4242
 3796SOL    HW215183   7.332   1.388   1.391  2.0238  0.4081 -0.5910
 3796SOL     MW15184   7.331   1.378   1.478 -0.1441  0.1966 -0.5808
 3797SOL     OW15185   6.010   2.017   5.178  0.0007 -0.1981 -0.1422
 3797SOL    HW115186   6.052   2.087   5.228 -0.8903  0.4703 -0.2900
 3797SOL    HW215187   6.056   1.937   5.205  0.3444  0.3031  0.8282
 3797SOL     MW15188   6.022   2.016   5.189 -0.0730 -0.0407 -0.0315
 3798SOL     OW15189   6.252   9.732   9.303  0.2508 -0.2840 -0.3070
 3798SOL    HW115190   6.274   9.822   9.276 -1.9995  0.1268 -1.0209
 3798SOL    HW215191   6.336   9.694   9.330  1.4024  1.7683 -0.7285
 3798SOL     MW15192   6.266   9.739   9.303  0.1029  0.0475 -0.4598
 3799SOL     OW15193   7.318   8.150   0.825  0.3853  0.0934  0.8854
 3799SOL    HW115194   7.262   8.073   0.826  0.5862 -0.0545  1.9433
 3799SOL    HW215195   7.295   8.198   0.905 -0.1773  1.4699 -0.0561
 3799SOL     MW15196   7.307   8.146   0.836  0.3366  0.2588  0.9011
 3800SOL     OW15197   7.983   9.495   3.007  0.5349 -0.2799 -0.0554
 3800SOL    HW115198   7.917   9.427   3.020  1.3394 -1.0108  0.3201
 3800SOL    HW215199   7.933   9.576   2.996 -0.4117 -0.4542  2.2875
 3800SOL     MW15200   7.968   9.497   3.007  0.5158 -0.4017  0.3105
 3801SOL     OW15201   4.575   9.105   4.833  0.2362  0.0752  0.1281
 3801SOL    HW115202   4.550   9.181   4.781 -1.3425 -1.2129 -1.1547
 3801SOL    HW215203   4.622   9.049   4.771 -0.7375 -1.0161  0.3363
 3801SOL     MW15204   4.578   9.107   4.818 -0.1073 -0.2450 -0.0165
 3802SOL     OW15205   3.854   9.305   9.209  0.0102  0.2416  0.5781
 3802SOL    HW115206   3.899   9.369   9.264 -0.4640  0.0458  1.2042
 3802SOL    HW215207   3.865   9.338   9.120  0.0817  1.0048  0.8628
 3802SOL     MW15208   3.861   9.318   9.205 -0.0440  0.3180  0.7007
 3803SOL     OW15209   7.137   9.239   9.134  0.3906 -0.2246  0.3385
 3803SOL    HW115210   7.174   9.232   9.046 -0.2304  1.3665 -0.0826
 3803SOL    HW215211   7.160   9.327   9.162  1.3681 -1.0134  2.1763
 3803SOL     MW15212   7.145   9.250   9.126  0.4386 -0.1166  0.5291
 3804SOL     OW15213   6.156   8.202   5.812 -0.4555 -0.3404 -0.3003
 3804SOL    HW115214   6.228   8.218   5.873 -0.8913 -2.8269  0.9974
 3804SOL    HW215215   6.198   8.193   5.727  0.4810  0.5368  0.0513
 3804SOL     MW15216   6.171   8.203   5.809 -0.3881 -0.5570 -0.0783
 3805SOL     OW15217   4.141   0.027   5.735  0.1091  0.2804 -0.1515
 3805SOL    HW115218   4.094   0.027   5.652  0.1349 -0.1622 -0.1692
 3805SOL    HW215219   4.210   0.093   5.723  0.7770 -0.5195 -0.8732
 3805SOL     MW15220   4.144   0.036   5.722  0.2025  0.1132 -0.2510
 3806SOL     OW15221   6.673   0.930   4.246 -0.2452  0.1866  0.0436
 3806SOL    HW115222   6.587   0.908   4.210 -0.9879  2.1283  0.5242
 3806SOL    HW215223   6.735   0.883   4.190 -1.5640 -0.5733 -0.8383
 3806SOL     MW15224   6.670   0.920   4.233 -0.5226  0.3456 -0.0104
 3807SOL     OW15225   7.120   0.545   6.098 -0.6216  0.4033  0.3692
 3807SOL    HW115226   7.213   0.533   6.083 -0.5244  2.1813 -0.6170
 3807SOL    HW215227   7.097   0.476   6.160  1.3255 -0.0809  0.6039
 3807SOL     MW15228   7.129   0.534   6.104 -0.3464  0.5774  0.2680
 3808SOL     OW15229   6.376   9.933   4.104 -0.2770  0.0585 -0.4011
 3808SOL    HW115230   6.342   9.983   4.177  0.0452 -0.8230  0.3769
 3808SOL    HW215231   6.347   9.843   4.120 -1.8882  0.1411 -2.3888
 3808SOL     MW15232   6.368   9.927   4.116 -0.4504 -0.0490 -0.5639
 3809SOL     OW15233   5.053   0.898   5.406  0.1344  0.4496 -0.4003
 3809SOL    HW115234   5.088   0.884   5.318  2.8176  0.7971  0.5286
 3809SOL    HW215235   5.126   0.882   5.464 -1.3495  1.0336  1.7526
 3809SOL     MW15236   5.067   0.894   5.402  0.2958  0.5749  0.0145
 3810SOL     OW15237   6.893   9.677   7.691 -0.3939 -0.0152  0.0735
 3810SOL    HW115238   6.921   9.750   7.635  0.0008  0.3373  0.7077
 3810SOL    HW215239   6.926   9.599   7.647  0.1609  0.2794 -0.0490
 3810SOL     MW15240   6.901   9.677   7.677 -0.2661  0.0719  0.1424
 3811SOL     OW15241   6.821   8.067   3.765 -0.3914  0.0238  0.1174
 3811SOL    HW115242   6.840   8.149   3.811 -1.3811 -0.1249  0.8386
 3811SOL    HW215243   6.904   8.042   3.724 -0.1426  1.4956 -0.2997
 3811SOL     MW15244   6.835   8.074   3.766 -0.4911  0.2019  0.1583
 3812SOL     OW15245   5.740   0.671   1.514  0.5617  0.1958  0.1272
 3812SOL    HW115246   5.704   0.587   1.486  0.8037 -0.2255  1.0423
 3812SOL    HW215247   5.728   0.672   1.609  2.4983  0.2530  0.4083
 3812SOL     MW15248   5.734   0.660   1.523  0.8549  0.1468  0.2882
 3813SOL     OW15249   4.430   0.742   0.727  0.0820  0.3051  0.2979
 3813SOL    HW115250   4.357   0.740   0.788  0.2135 -0.3615  0.4390
 3813SOL    HW215251   4.389   0.751   0.640 -0.1200  0.8205  0.4400
 3813SOL     MW15252   4.415   0.743   0.723  0.0725  0.2848  0.3360
 3814SOL     OW15253   6.628   9.229   5.294 -0.2340  0.4269  0.0689
 3814SOL    HW115254   6.612   9.309   5.345  0.7864  1.3166 -0.9402
 3814SOL    HW215255   6.543   9.207   5.256 -0.1829  2.0616 -1.0632
 3814SOL     MW15256   6.614   9.237   5.296 -0.0898  0.7666 -0.2192
 3815SOL     OW15257   7.231   0.781   4.994 -0.4561  0.6799 -0.2103
 3815SOL    HW115258   7.165   0.843   5.023  0.7294  1.5377  0.7581
 3815SOL    HW215259   7.305   0.794   5.054  0.8171  0.1813 -1.5877
 3815SOL     MW15260   7.232   0.791   5.006 -0.1252  0.7282 -0.2653
 3816SOL     OW15261   4.524   8.716   5.546  0.2842  0.1580 -0.0996
 3816SOL    HW115262   4.458   8.667   5.595  0.6345  0.2203  0.4419
 3816SOL    HW215263   4.485   8.803   5.535 -0.4895 -0.3264 -1.3711
 3816SOL     MW15264   4.510   8.721   5.551  0.2272  0.1012 -0.1979
 3817SOL     OW15265   6.905   9.842   2.037  0.1272  0.3236 -0.1029
 3817SOL    HW115266   6.868   9.756   2.057 -0.2436  0.7479  1.1957
 3817SOL    HW215267   6.998   9.827   2.022 -0.2864 -0.5772 -2.0242
 3817SOL     MW15268   6.912   9.829   2.038  0.0216  0.2594 -0.1867
 3818SOL     OW15269   6.605   7.957   2.962  0.3287 -0.1346 -0.2827
 3818SOL    HW115270   6.652   7.894   2.906  2.1551 -0.2866  1.3137
 3818SOL    HW215271   6.673   7.997   3.015 -1.2092  0.7812  1.0942
 3818SOL     MW15272   6.620   7.954   2.961  0.3675 -0.0318  0.1174
 3819SOL     OW15273   6.958   0.957   0.886  0.3612  0.1261  0.4452
 3819SOL    HW115274   6.929   1.012   0.959  0.3816  1.0352 -0.2122
 3819SOL    HW215275   6.982   0.874   0.926 -0.2998  0.3759  1.3823
 3819SOL     MW15276   6.958   0.954   0.901  0.2750  0.2820  0.4828
 3820SOL     OW15277   5.043   1.307   4.064  0.4354  0.6076 -0.1158
 3820SOL    HW115278   4.950   1.287   4.059  0.1922  1.5485  0.4138
 3820SOL    HW215279   5.077   1.245   4.129  0.4328 -0.5402 -1.1674
 3820SOL     MW15280   5.035   1.296   4.072  0.4023  0.5797 -0.1861
 3821SOL     OW15281   7.168   1.283   4.361 -0.1421 -0.3078 -0.4799
 3821SOL    HW115282   7.174   1.337   4.283 -0.7306 -0.4760 -0.6479
 3821SOL    HW215283   7.164   1.193   4.328  0.8721 -0.4707 -0.2030
 3821SOL     MW15284   7.169   1.278   4.346 -0.0848 -0.3524 -0.4653
 3822SOL     OW15285   7.376   8.978   8.826  0.3293  0.1830  0.4192
 3822SOL    HW115286   7.471   8.967   8.814  0.9058  0.8545  3.4928
 3822SOL    HW215287   7.353   8.913   8.892 -1.5807 -0.5401 -0.8806
 3822SOL     MW15288   7.386   8.968   8.834  0.1498  0.1761  0.6579
 3823SOL     OW15289   6.695   0.225   4.855 -0.2068 -0.4866  0.2539
 3823SOL    HW115290   6.692   0.303   4.911 -0.6295 -0.0580 -0.3627
 3823SOL    HW215291   6.761   0.246   4.789 -0.9097 -0.3223 -0.3999
 3823SOL     MW15292   6.704   0.238   4.854 -0.3583 -0.4068  0.0829
 3824SOL     OW15293   8.155   9.359   4.702 -0.0927 -0.4161 -0.2330
 3824SOL    HW115294   8.081   9.313   4.662  0.6504 -1.0176 -0.9582
 3824SOL    HW215295   8.223   9.358   4.635  0.0433  1.5523 -0.1755
 3824SOL     MW15296   8.154   9.353   4.688  0.0256 -0.2322 -0.3228
 3825SOL     OW15297   5.941   7.638   6.202  0.0331 -0.5517 -0.1328
 3825SOL    HW115298   5.985   7.584   6.267 -0.8673  0.8898  1.8005
 3825SOL    HW215299   6.001   7.711   6.187  0.1103 -0.7321 -0.7332
 3825SOL     MW15300   5.955   7.641   6.209 -0.0777 -0.3820  0.0466
 3826SOL     OW15301   5.359   9.241   2.925 -0.4427  0.0303 -0.3198
 3826SOL    HW115302   5.322   9.277   2.844 -1.0502 -0.5673 -0.3224
 3826SOL    HW215303   5.354   9.146   2.913 -0.7147 -0.0611  0.4939
 3826SOL     MW15304   5.353   9.233   2.912 -0.5611 -0.0624 -0.2106
 3827SOL     OW15305   6.448   0.380   1.908  0.3836 -0.3263  0.1665
 3827SOL    HW115306   6.527   0.336   1.940  0.4993 -0.5250 -0.3873
 3827SOL    HW215307   6.384   0.368   1.979  0.3863 -1.4631  0.0030
 3827SOL     MW15308   6.450   0.372   1.922  0.3995 -0.5061  0.0700
 3828SOL     OW15309   4.304   9.362   6.545  0.6866  0.0241 -0.2010
 3828SOL    HW115310   4.399   9.368   6.561  0.9585 -0.4264 -1.5463
 3828SOL    HW215311   4.283   9.442   6.496  0.4004  0.0166 -0.0925
 3828SOL     MW15312   4.314   9.374   6.541  0.6847 -0.0376 -0.3675
 3829SOL     OW15313   7.682   0.811   5.354  0.3933 -0.1358  0.4200
 3829SOL    HW115314   7.626   0.739   5.325  0.5145 -0.4912  1.0673
 3829SOL    HW215315   7.753   0.814   5.290  0.5483 -0.7812  0.5595
 3829SOL     MW15316   7.684   0.802   5.341  0.4305 -0.2705  0.5259
 3830SOL     OW15317   5.341   9.575   4.713 -0.9918  0.0873 -0.4679
 3830SOL    HW115318   5.400   9.612   4.647 -0.2739 -0.6655 -0.2740
 3830SOL    HW215319   5.385   9.495   4.741 -1.7214 -0.0595  0.2847
 3830SOL     MW15320   5.355   9.570   4.708 -0.9934 -0.0338 -0.3405
 3831SOL     OW15321   4.701   1.293   9.293 -0.0529 -0.1585 -0.4216
 3831SOL    HW115322   4.732   1.240   9.366  0.9187 -0.0633 -0.7491
 3831SOL    HW215323   4.713   1.383   9.322  0.7188 -0.1173 -0.8383
 3831SOL     MW15324   4.707   1.298   9.306  0.1817 -0.1401 -0.5217
 3832SOL     OW15325   5.433   9.179   8.983  0.0281 -0.8174 -0.0116
 3832SOL    HW115326   5.369   9.230   9.034 -0.5003 -0.6867 -0.7814
 3832SOL    HW215327   5.381   9.113   8.939  0.2075  0.1033 -1.6861
 3832SOL     MW15328   5.417   9.177   8.984 -0.0189 -0.6759 -0.3406
 3833SOL     OW15329   4.595   1.194   3.115 -0.2588  0.3804  0.1231
 3833SOL    HW115330   4.577   1.129   3.048  0.1547 -0.9622  1.2700
 3833SOL    HW215331   4.682   1.172   3.148  0.2624  2.0422 -0.0192
 3833SOL     MW15332   4.605   1.182   3.110 -0.1330  0.4233  0.2583
 3834SOL     OW15333   5.293   8.628   3.491  0.3710  0.3639 -0.0603
 3834SOL    HW115334   5.367   8.574   3.518 -0.0395 -0.1570  0.0471
 3834SOL    HW215335   5.221   8.600   3.548  0.0273  0.6846 -0.3330
 3834SOL     MW15336   5.293   8.617   3.502  0.2695  0.3369 -0.0825
 3835SOL     OW15337   7.373   8.857   1.250  0.2007 -0.1839  0.5425
 3835SOL    HW115338   7.386   8.860   1.345 -0.4605  0.7660  0.6183
 3835SOL    HW215339   7.296   8.912   1.235 -0.0252 -0.7577 -0.4935
 3835SOL     MW15340   7.364   8.865   1.261  0.0813 -0.1333  0.4133
 3836SOL     OW15341   5.915  10.085   3.547 -0.4859  0.2470 -0.1290
 3836SOL    HW115342   5.897  10.174   3.514 -1.0040 -0.1939 -1.0809
 3836SOL    HW215343   5.986  10.097   3.610 -0.7902  1.3892  0.0276
 3836SOL     MW15344   5.922  10.099   3.551 -0.5966  0.3414 -0.2360
 3837SOL     OW15345   7.403   8.506   9.291  0.2805  0.1843  0.0239
 3837SOL    HW115346   7.458   8.512   9.212 -1.2580  2.2990 -0.9810
 3837SOL    HW215347   7.421   8.587   9.338 -0.3135 -0.1425  0.8253
 3837SOL     MW15348   7.413   8.518   9.286 -0.0065  0.4249 -0.0035
 3838SOL     OW15349   5.997   0.574   0.275 -0.1040  0.0905 -0.1250
 3838SOL    HW115350   5.920   0.553   0.328 -0.4765 -0.5702 -0.9007
 3838SOL    HW215351   6.067   0.589   0.339 -0.4581 -1.0114  0.5533
 3838SOL     MW15352   5.996   0.573   0.291 -0.2018 -0.1467 -0.1381
 3839SOL     OW15353   6.233   7.650   8.052  0.3452  0.3904 -0.1316
 3839SOL    HW115354   6.174   7.646   8.127 -0.5917  0.6134 -0.8387
 3839SOL    HW215355   6.184   7.610   7.980  0.5683  1.6533 -1.0331
 3839SOL     MW15356   6.219   7.644   8.052  0.2492  0.5904 -0.3481
 3840SOL     OW15357   3.885   9.703   8.285  0.4087  0.3436 -0.1738
 3840SOL    HW115358   3.806   9.705   8.339  1.3822  0.3087  1.3283
 3840SOL    HW215359   3.956   9.724   8.346  1.8005 -1.6042 -0.9991
 3840SOL     MW15360   3.884   9.706   8.301  0.7270  0.0767 -0.0827
 3841SOL     OW15361   4.852   9.544   2.710  0.3687 -0.4729  0.2251
 3841SOL    HW115362   4.894   9.620   2.749  0.7921 -1.1676  1.1752
 3841SOL    HW215363   4.759   9.565   2.710  0.3330 -0.5045  1.7894
 3841SOL     MW15364   4.845   9.557   2.715  0.4209 -0.5706  0.5635
 3842SOL     OW15365   7.868   0.404   9.496 -0.5690  0.3191 -0.1851
 3842SOL    HW115366   7.907   0.339   9.438  0.0004 -2.4985  3.0271
 3842SOL    HW215367   7.781   0.420   9.460 -0.2411 -1.2697 -1.8187
 3842SOL     MW15368   7.862   0.397   9.483 -0.4483 -0.2739  0.0274
 3843SOL     OW15369   4.533   9.384   2.564 -0.3044 -0.1297  0.3554
 3843SOL    HW115370   4.588   9.305   2.567 -0.0832  0.0448  1.0376
 3843SOL    HW215371   4.458   9.359   2.509 -1.1144 -1.4044  1.9358
 3843SOL     MW15372   4.530   9.370   2.557 -0.3837 -0.2778  0.6599
 3844SOL     OW15373   7.735  10.006   4.536  0.2115  0.2219  0.6290
 3844SOL    HW115374   7.780   9.961   4.464  0.0132  0.4838  0.3404
 3844SOL    HW215375   7.662   9.948   4.559 -0.7117  0.8839 -0.4815
 3844SOL     MW15376   7.731   9.992   4.530  0.0606  0.3462  0.4407
 3845SOL     OW15377   6.022   0.766   1.552 -0.3849 -0.2367 -0.3321
 3845SOL    HW115378   6.000   0.852   1.590 -0.0591  0.9334 -2.6039
 3845SOL    HW215379   5.938   0.725   1.535 -0.6208  0.5116 -1.0430
 3845SOL     MW15380   6.008   0.772   1.555 -0.3728  0.0215 -0.7335
 3846SOL     OW15381   6.407   9.042   3.096  0.5669  0.2064 -0.6980
 3846SOL    HW115382   6.345   9.027   3.025  0.6051 -1.3331 -0.4407
 3846SOL    HW215383   6.484   9.081   3.053 -0.0161  0.7902 -1.2316
 3846SOL     MW15384   6.409   9.045   3.081  0.4936  0.0778 -0.7352
 3847SOL     OW15385   3.856   8.962   4.111  0.1096 -0.2932 -0.6180
 3847SOL    HW115386   3.821   8.915   4.035  1.0237 -1.8930 -0.0911
 3847SOL    HW215387   3.790   9.029   4.130 -0.6621 -0.5828 -2.1310
 3847SOL     MW15388   3.842   8.965   4.103  0.1288 -0.5475 -0.7507
 3848SOL     OW15389   5.297   7.965   0.710 -0.2317 -0.0272  0.2234
 3848SOL    HW115390   5.304   7.889   0.768  1.3197 -0.2684 -0.2308
 3848SOL    HW215391   5.223   7.944   0.653 -0.2616 -0.8882  0.5585
 3848SOL     MW15392   5.288   7.952   0.710 -0.0269 -0.1755  0.2074
 3849SOL     OW15393   6.979   9.682   4.362  0.0701 -0.3276 -0.4260
 3849SOL    HW115394   7.046   9.741   4.327  0.6855 -0.7180  0.0605
 3849SOL    HW215395   7.028   9.621   4.417 -0.4947 -1.5528 -1.2366
 3849SOL     MW15396   6.995   9.681   4.364  0.0769 -0.5451 -0.4696
 3850SOL     OW15397   5.279   0.978   8.472  0.1635 -0.3573  0.3483
 3850SOL    HW115398   5.235   0.893   8.466  0.0822 -0.4126  1.4216
 3850SOL    HW215399   5.284   0.996   8.566  2.7692 -0.5277  0.3319
 3850SOL     MW15400   5.274   0.969   8.484  0.5032 -0.3877  0.4905
 3851SOL     OW15401   6.514   9.876   5.719 -0.2230 -0.0567  0.2854
 3851SOL    HW115402   6.543   9.966   5.738 -1.9015  0.3640  1.0509
 3851SOL    HW215403   6.489   9.878   5.627 -2.9839  1.1345  0.9469
 3851SOL     MW15404   6.514   9.889   5.709 -0.8204  0.1602  0.4775
 3852SOL     OW15405   5.867   9.494   9.779  0.1679 -0.5853 -0.6974
 3852SOL    HW115406   5.856   9.571   9.723  0.3643 -1.0425 -1.3868
 3852SOL    HW215407   5.793   9.438   9.756  0.4645 -0.9447 -0.7863
 3852SOL     MW15408   5.855   9.497   9.768  0.2342 -0.6952 -0.8021
 3853SOL     OW15409   7.546   0.275   1.746  0.3797 -0.2078  0.4205
 3853SOL    HW115410   7.506   0.333   1.682 -0.9720  0.1385  1.5151
 3853SOL    HW215411   7.505   0.300   1.829  2.7982  0.0451  1.6069
 3853SOL     MW15412   7.535   0.286   1.749  0.5233 -0.1272  0.7275
 3854SOL     OW15413   6.452   9.294   3.871 -0.3038 -0.2866 -0.4261
 3854SOL    HW115414   6.496   9.353   3.933  2.0726 -2.0178 -0.3507
 3854SOL    HW215415   6.521   9.236   3.840 -2.1143 -1.6063 -2.2048
 3854SOL     MW15416   6.467   9.294   3.875 -0.2277 -0.6972 -0.6553
 3855SOL     OW15417   5.816   1.694   2.789  0.0629 -0.8302 -0.2211
 3855SOL    HW115418   5.769   1.690   2.872 -0.3504 -1.2046 -0.4689
 3855SOL    HW215419   5.762   1.644   2.728 -0.2062  0.3487 -0.9899
 3855SOL     MW15420   5.802   1.687   2.792 -0.0289 -0.7219 -0.3579
 3856SOL     OW15421   5.787   1.771   5.468  0.0582  0.0314 -0.1452
 3856SOL    HW115422   5.772   1.693   5.415  0.3744  0.4605 -0.8801
 3856SOL    HW215423   5.879   1.763   5.496  0.5117  0.8037 -1.3560
 3856SOL     MW15424   5.798   1.759   5.465  0.1618  0.1931 -0.4071
 3857SOL     OW15425   5.180   8.279   5.823  0.3856 -0.4672  0.3636
 3857SOL    HW115426   5.176   8.322   5.738 -0.1828  0.1015  0.6652
 3857SOL    HW215427   5.088   8.269   5.848  0.5533  1.4203  1.9247
 3857SOL     MW15428   5.167   8.283   5.815  0.3317 -0.1367  0.6143
 3858SOL     OW15429   6.070   9.328   7.764  0.5821  0.0838 -0.3370
 3858SOL    HW115430   6.026   9.329   7.678 -0.5379 -0.2233  0.2109
 3858SOL    HW215431   6.078   9.235   7.786 -1.0821  0.1787  0.8255
 3858SOL     MW15432   6.065   9.316   7.755  0.2074  0.0553 -0.1068
 3859SOL     OW15433   7.583   9.113   7.796 -0.2828 -0.2793  0.4893
 3859SOL    HW115434   7.582   9.018   7.791 -0.8511 -0.2881  0.8283
 3859SOL    HW215435   7.560   9.134   7.886 -0.0238  0.1792  0.4555
 3859SOL     MW15436   7.580   9.103   7.807 -0.3244 -0.2188  0.5304
 3860SOL     OW15437   4.381   0.191   4.059  0.5690  0.2032  0.5343
 3860SOL    HW115438   4.468   0.180   4.022  0.8666  0.4776  1.1320
 3860SOL    HW215439   4.334   0.245   3.996  0.1606 -1.6012 -0.7959
 3860SOL     MW15440   4.386   0.197   4.046  0.5540 -0.0027  0.4357
 3861SOL     OW15441   4.550   0.100   4.462 -0.8834  0.0994 -0.0131
 3861SOL    HW115442   4.537   0.136   4.549  0.1372 -2.2537  1.1962
 3861SOL    HW215443   4.645   0.097   4.451 -0.9968  1.2738 -1.6475
 3861SOL     MW15444   4.561   0.104   4.472 -0.7613 -0.0592 -0.0703
 3862SOL     OW15445   4.008   8.468   2.486 -0.0004  0.6437  0.2943
 3862SOL    HW115446   4.001   8.528   2.412  1.2669 -0.8141 -1.0901
 3862SOL    HW215447   4.085   8.414   2.466 -1.2617 -1.6663  1.2873
 3862SOL     MW15448   4.017   8.469   2.474  0.0004  0.1367  0.2416
 3863SOL     OW15449   5.992   1.766   9.375 -0.0440 -0.5021 -0.3433
 3863SOL    HW115450   6.088   1.771   9.373 -0.0432  0.2095  0.9074
 3863SOL    HW215451   5.968   1.795   9.463 -1.4569 -0.0183 -0.8642
 3863SOL     MW15452   6.002   1.770   9.386 -0.2340 -0.3412 -0.2451
 3864SOL     OW15453   7.492   0.093   8.099 -0.3178 -0.5750  0.1290
 3864SOL    HW115454   7.528   0.121   8.015 -0.0243  0.6795  0.6530
 3864SOL    HW215455   7.410   0.050   8.076 -0.0263 -0.6479 -0.8349
 3864SOL     MW15456   7.486   0.091   8.085 -0.2390 -0.4160  0.0698
 3865SOL     OW15457   7.672   9.730   0.355 -0.3681 -0.4507  0.6273
 3865SOL    HW115458   7.761   9.725   0.320 -0.4063 -0.2903  0.5037
 3865SOL    HW215459   7.617   9.695   0.286 -0.3974 -0.5790  0.7163
 3865SOL     MW15460   7.677   9.725   0.341 -0.3772 -0.4463  0.6226
 3866SOL     OW15461   6.089   1.314   5.233  0.6960  0.2493  0.9250
 3866SOL    HW115462   6.182   1.338   5.237  0.7328  0.3309 -0.1819
 3866SOL    HW215463   6.049   1.382   5.179  0.4040 -0.9667 -0.4351
 3866SOL     MW15464   6.096   1.326   5.226  0.6616  0.0967  0.5930
 3867SOL     OW15465   4.783   8.648   1.475 -0.5102  0.2412 -0.4040
 3867SOL    HW115466   4.752   8.729   1.516 -1.0137  0.1460 -0.5824
 3867SOL    HW215467   4.769   8.661   1.382  1.3324  0.7493 -0.6435
 3867SOL     MW15468   4.777   8.661   1.468 -0.3300  0.2968 -0.4603
 3868SOL     OW15469   5.626   8.173   0.963  0.0930 -0.2936  0.2539
 3868SOL    HW115470   5.587   8.113   1.026 -0.3764  2.0873  2.3919
 3868SOL    HW215471   5.719   8.176   0.987  0.2312 -0.5776 -0.2281
 3868SOL     MW15472   5.633   8.166   0.975  0.0484 -0.0114  0.4767
 3869SOL     OW15473   6.673   9.667   5.787 -0.3129  0.4538  0.0626
 3869SOL    HW115474   6.744   9.712   5.833 -0.2136 -0.7083  1.0970
 3869SOL    HW215475   6.612   9.737   5.763 -0.2332  1.1334  1.7444
 3869SOL     MW15476   6.675   9.683   5.790 -0.2888  0.3888  0.4281
 3870SOL     OW15477   5.541   1.064   5.318 -0.0466 -0.0753 -0.4348
 3870SOL    HW115478   5.450   1.057   5.289 -0.0230  2.2889 -1.3043
 3870SOL    HW215479   5.541   1.135   5.382  1.1449 -0.1561 -0.3191
 3870SOL     MW15480   5.529   1.073   5.323  0.1170  0.2320 -0.5362
 3871SOL     OW15481   4.700   9.868   2.022  0.5797  0.0973 -0.4692
 3871SOL    HW115482   4.662   9.956   2.028 -0.0401 -0.1175 -1.0985
 3871SOL    HW215483   4.693   9.833   2.111 -1.1553 -0.1071 -0.6383
 3871SOL     MW15484   4.694   9.875   2.035  0.2628  0.0409 -0.5767
 3872SOL     OW15485   4.658   0.533   4.066  0.2834 -0.0144  0.1840
 3872SOL    HW115486   4.591   0.505   4.129  1.5026 -0.5837  1.2840
 3872SOL    HW215487   4.717   0.457   4.059  0.5791  0.3117 -1.0952
 3872SOL     MW15488   4.657   0.519   4.073  0.4873 -0.0472  0.1599
 3873SOL     OW15489   4.468   0.897   1.875  0.0104  0.0526  0.0093
 3873SOL    HW115490   4.379   0.912   1.906  0.5641  1.2182  1.1706
 3873SOL    HW215491   4.499   0.984   1.849  0.9049 -0.2779 -0.0643
 3873SOL     MW15492   4.460   0.911   1.876  0.2053  0.1650  0.1557
 3874SOL     OW15493   6.353   1.341   6.591 -0.3772  0.1545  0.0454
 3874SOL    HW115494   6.416   1.349   6.519  0.1449  1.4306  0.6270
 3874SOL    HW215495   6.406   1.320   6.668 -1.0565 -2.5846 -0.1285
 3874SOL     MW15496   6.368   1.339   6.592 -0.3984 -0.0424  0.1002
 3875SOL     OW15497   6.829   8.645   5.738 -0.2075 -0.5115 -0.5097
 3875SOL    HW115498   6.819   8.551   5.756 -0.1207 -0.8261 -1.9627
 3875SOL    HW215499   6.740   8.676   5.724 -0.1779 -0.5492 -0.7894
 3875SOL     MW15500   6.816   8.636   5.738 -0.1918 -0.5589 -0.7429
 3876SOL     OW15501   3.932   0.471   2.165 -0.4188  0.3892  0.2198
 3876SOL    HW115502   3.991   0.481   2.240 -0.8909 -0.4342  0.7177
 3876SOL    HW215503   3.989   0.441   2.094 -0.2587 -0.6710  0.7697
 3876SOL     MW15504   3.947   0.468   2.166 -0.4608  0.1357  0.3608
 3877SOL     OW15505   5.664   7.752   8.048  0.4635  0.3841  0.4399
 3877SOL    HW115506   5.629   7.836   8.020 -0.1980  0.0239  0.1605
 3877SOL    HW215507   5.698   7.712   7.969  3.2767  1.5011  0.9713
 3877SOL     MW15508   5.664   7.758   8.034  0.7531  0.4860  0.4738
 3878SOL     OW15509   5.051   9.191   5.673  0.0934  0.3433 -0.2938
 3878SOL    HW115510   4.986   9.121   5.677  2.2010 -1.7997 -1.1450
 3878SOL    HW215511   5.102   9.182   5.753  1.5398 -0.3788 -1.2480
 3878SOL     MW15512   5.049   9.181   5.684  0.5717 -0.0423 -0.5367
 3879SOL     OW15513   6.764   0.367  10.059 -0.3184 -1.1651 -0.1451
 3879SOL    HW115514   6.727   0.404  10.139  0.6379 -0.7084  0.1102
 3879SOL    HW215515   6.704   0.394   9.990  0.3848  1.0433  0.0163
 3879SOL     MW15516   6.751   0.376  10.060 -0.0950 -0.8064 -0.0890
 3880SOL     OW15517   4.732   9.573   9.181  0.1786  0.1443 -0.0255
 3880SOL    HW115518   4.717   9.551   9.273  0.5286  1.0982  0.2732
 3880SOL    HW215519   4.797   9.508   9.152 -0.5762 -0.7132  0.1336
 3880SOL     MW15520   4.739   9.561   9.189  0.1241  0.1573  0.0361
 3881SOL     OW15521   3.712   9.517   5.921 -0.5145  0.3882 -0.1537
 3881SOL    HW115522   3.655   9.521   5.997 -2.9008  1.6485 -1.8866
 3881SOL    HW215523   3.781   9.581   5.938 -0.3331 -0.2066  1.4259
 3881SOL     MW15524   3.714   9.526   5.933 -0.8112  0.4778 -0.1744
 3882SOL     OW15525   6.709   7.885   5.247 -0.5574  0.2706 -0.2858
 3882SOL    HW115526   6.692   7.842   5.330  0.1634  1.5844  0.5701
 3882SOL    HW215527   6.757   7.965   5.270  2.7595 -0.9742 -2.1838
 3882SOL     MW15528   6.713   7.890   5.261 -0.0140  0.2799 -0.4260
 3883SOL     OW15529   6.737   1.276   8.956  0.3460 -0.4111 -0.6758
 3883SOL    HW115530   6.652   1.290   8.913  0.2559 -2.6064 -1.2921
 3883SOL    HW215531   6.796   1.336   8.910 -0.8615  1.3534 -0.0659
 3883SOL     MW15532   6.734   1.286   8.944  0.1714 -0.4690 -0.6767
 3884SOL     OW15533   4.213   0.622   8.481  0.0617  0.0094  0.5209
 3884SOL    HW115534   4.127   0.588   8.455 -0.0189  0.5816  0.0154
 3884SOL    HW215535   4.267   0.614   8.403  0.0371  1.0247  0.3845
 3884SOL     MW15536   4.208   0.617   8.467  0.0475  0.2230  0.4345
 3885SOL     OW15537   4.456   9.645   5.281 -0.3232 -0.0694 -0.3054
 3885SOL    HW115538   4.507   9.701   5.339  1.3443 -0.8595 -0.9359
 3885SOL    HW215539   4.485   9.556   5.301 -1.4792 -0.5626 -0.6917
 3885SOL     MW15540   4.467   9.641   5.291 -0.2544 -0.2421 -0.4423
 3886SOL     OW15541   7.275   8.189   2.028 -0.0918  0.0416  0.2141
 3886SOL    HW115542   7.279   8.095   2.047  0.4988  0.0263  0.0372
 3886SOL    HW215543   7.207   8.223   2.087 -0.6752 -0.5821 -0.0949
 3886SOL     MW15544   7.266   8.181   2.039 -0.0908 -0.0444  0.1487
 3887SOL     OW15545   4.045   0.373   5.137 -0.2166 -0.0216  0.0592
 3887SOL    HW115546   3.956   0.349   5.160 -1.1560  1.4677 -1.7733
 3887SOL    HW215547   4.100   0.317   5.192 -2.2543 -0.8879  1.3136
 3887SOL     MW15548   4.041   0.362   5.147 -0.6173  0.0622 -0.0186
 3888SOL     OW15549   6.095   9.494   5.071 -0.4073 -0.4596  0.4057
 3888SOL    HW115550   6.094   9.419   5.011  2.2555  0.7353 -1.3471
 3888SOL    HW215551   6.031   9.555   5.034 -1.0268 -1.0028  0.5836
 3888SOL     MW15552   6.087   9.492   5.058 -0.1323 -0.3719  0.1938
 3889SOL     OW15553   4.763   9.691   8.449  0.2430  0.5148  0.1940
 3889SOL    HW115554   4.729   9.673   8.536 -3.2591  0.7122 -0.9711
 3889SOL    HW215555   4.816   9.770   8.459 -0.8429  1.0619  1.9682
 3889SOL     MW15556   4.766   9.699   8.462 -0.3745  0.6150  0.2760
 3890SOL     OW15557   6.619   9.569   7.250  0.5730 -0.2599  0.0430
 3890SOL    HW115558   6.583   9.630   7.314  0.2216 -1.1778  0.7454
 3890SOL    HW215559   6.548   9.507   7.234  0.7026 -0.1197 -1.1537
 3890SOL     MW15560   6.605   9.569   7.256  0.5432 -0.3646 -0.0235
 3891SOL     OW15561   6.605   8.254   4.569 -0.0692 -0.1414  0.0604
 3891SOL    HW115562   6.561   8.295   4.643  0.5817 -0.1449  0.4576
 3891SOL    HW215563   6.663   8.321   4.535  0.2918 -0.4273  0.1125
 3891SOL     MW15564   6.607   8.268   4.575  0.0670 -0.1804  0.1209
 3892SOL     OW15565   5.992   8.744   3.394  0.6593  0.6604  0.2090
 3892SOL    HW115566   6.082   8.715   3.385  0.2510 -0.7263  0.4276
 3892SOL    HW215567   5.941   8.683   3.340 -0.0324  2.1568 -0.9211
 3892SOL     MW15568   5.997   8.732   3.385  0.5113  0.6752  0.0864
 3893SOL     OW15569   5.086   0.452   9.066 -0.0433 -0.2766 -0.5852
 3893SOL    HW115570   5.097   0.414   8.979 -2.4393  2.0300 -2.0848
 3893SOL    HW215571   4.999   0.424   9.094  0.5020 -0.5946  0.8796
 3893SOL     MW15572   5.075   0.443   9.058 -0.2923 -0.0090 -0.5899
 3894SOL     OW15573   7.474   0.480   3.959  0.3383 -0.0284 -0.4178
 3894SOL    HW115574   7.565   0.464   3.934  0.6676  0.2799  0.5390
 3894SOL    HW215575   7.467   0.575   3.968  0.4851 -0.1521  1.4516
 3894SOL     MW15576   7.486   0.490   3.957  0.4024 -0.0036 -0.0374
 3895SOL     OW15577   4.098   0.626  10.008  0.4455  0.0582 -0.3540
 3895SOL    HW115578   4.138   0.660  10.088  1.5214 -1.9699  0.0371
 3895SOL    HW215579   4.169   0.623   9.944  0.5776 -1.9405 -0.1845
 3895SOL     MW15580   4.113   0.630  10.010  0.6081 -0.4837 -0.2786
 3896SOL     OW15581   6.775   0.112   6.668 -0.2980  0.2378  0.0894
 3896SOL    HW115582   6.703   0.145   6.721  0.6640 -0.0370  1.6468
 3896SOL    HW215583   6.809   0.189   6.622 -1.2632  0.4526 -0.2700
 3896SOL     MW15584   6.770   0.126   6.669 -0.2984  0.2298  0.2506
 3897SOL     OW15585   6.498   0.099   6.791  0.0271 -0.1824  0.1125
 3897SOL    HW115586   6.497   0.175   6.733  1.4648 -1.4415 -1.6871
 3897SOL    HW215587   6.537   0.131   6.872  1.0721  0.9144 -0.7836
 3897SOL     MW15588   6.503   0.114   6.794  0.3612 -0.2043 -0.2503
 3898SOL     OW15589   7.079   9.672   5.048  0.2659  0.0983  0.2518
 3898SOL    HW115590   7.093   9.623   4.967 -2.0593  0.2469 -0.3187
 3898SOL    HW215591   7.131   9.751   5.037  1.0184 -0.4736 -0.5106
 3898SOL     MW15592   7.088   9.676   5.035  0.0543  0.0413  0.0724
 3899SOL     OW15593   4.601   1.163   0.060 -0.0970 -0.0590 -0.3538
 3899SOL    HW115594   4.551   1.110  -0.002 -0.4961  0.7348 -0.7341
 3899SOL    HW215595   4.651   1.223   0.004 -0.1439  0.3917  0.0783
 3899SOL     MW15596   4.601   1.164   0.044 -0.1570  0.1085 -0.3468
 3900SOL     OW15597   4.352   1.132   4.370 -0.3914  0.5808  0.1813
 3900SOL    HW115598   4.295   1.085   4.309 -0.5446  0.6810  0.2468
 3900SOL    HW215599   4.405   1.189   4.315  0.1333 -0.0131  0.0510
 3900SOL     MW15600   4.352   1.133   4.355 -0.3414  0.5143  0.1726
 3901SOL     OW15601   4.685   8.277   1.444 -0.4358  0.3289  0.0474
 3901SOL    HW115602   4.723   8.269   1.531  0.1035  1.0355 -0.1092
 3901SOL    HW215603   4.636   8.359   1.447  1.2618  1.4551 -0.8935
 3901SOL     MW15604   4.683   8.287   1.456 -0.1348  0.5756 -0.1003
 3902SOL     OW15605   5.377   0.415   0.575  0.0253 -0.3260 -0.1769
 3902SOL    HW115606   5.436   0.422   0.650 -0.8069  1.7531  0.3338
 3902SOL    HW215607   5.290   0.404   0.613 -0.0690 -2.6839 -0.9187
 3902SOL     MW15608   5.374   0.414   0.590 -0.0994 -0.3635 -0.2080
 3903SOL     OW15609   4.938   8.308   2.413 -0.0570  0.2094  0.1557
 3903SOL    HW115610   5.028   8.278   2.429 -0.3705 -1.2055 -0.5335
 3903SOL    HW215611   4.883   8.235   2.440 -0.9431  0.6442 -0.4114
 3903SOL     MW15612   4.943   8.294   2.419 -0.2184  0.0775 -0.0134
 3904SOL     OW15613   7.326   8.526   8.606  0.5232  0.0293  0.3295
 3904SOL    HW115614   7.267   8.462   8.647  1.1854  0.1207  1.4618
 3904SOL    HW215615   7.279   8.610   8.614 -0.2438 -0.2569 -0.9515
 3904SOL     MW15616   7.311   8.529   8.613  0.5091  0.0031  0.3095
 3905SOL     OW15617   6.376   0.152   5.643 -0.4669 -0.4269  0.2027
 3905SOL    HW115618   6.453   0.126   5.694 -0.4523  0.8687  0.8921
 3905SOL    HW215619   6.353   0.239   5.677 -0.7984  0.2572 -1.6283
 3905SOL     MW15620   6.384   0.160   5.655 -0.5095 -0.1605  0.0491
 3906SOL     OW15621   7.610   0.166   9.758 -0.2457  0.3370 -0.0674
 3906SOL    HW115622   7.558   0.118   9.822  1.3048  0.3651  1.2669
 3906SOL    HW215623   7.700   0.144   9.779  0.3978  2.0403 -0.8706
 3906SOL     MW15624   7.615   0.157   9.770  0.0496  0.5700  0.0040
 3907SOL     OW15625   6.337   8.713   1.170  0.2430  0.1949  0.6676
 3907SOL    HW115626   6.389   8.722   1.250  1.3480 -2.5625  0.3739
 3907SOL    HW215627   6.385   8.764   1.105  1.9545 -1.2572  0.7195
 3907SOL     MW15628   6.351   8.721   1.172  0.6221 -0.3716  0.6351
 3908SOL     OW15629   6.347   1.658   5.131  0.4648 -0.2688  0.0236
 3908SOL    HW115630   6.345   1.564   5.149  1.9308 -0.0107  1.7602
 3908SOL    HW215631   6.337   1.665   5.036 -0.0288 -2.1480 -0.0882
 3908SOL     MW15632   6.345   1.647   5.121  0.5957 -0.4870  0.2422
 3909SOL     OW15633   4.238   0.237   0.104  0.0382  0.0196  0.4637
 3909SOL    HW115634   4.295   0.162   0.119  1.6077  1.2204  0.7416
 3909SOL    HW215635   4.291   0.297   0.051 -2.0129 -0.0340 -1.8624
 3909SOL     MW15636   4.253   0.235   0.099 -0.0266  0.1740  0.1881
 3910SOL     OW15637   4.596   9.403   5.299 -0.1633  0.2508  0.3874
 3910SOL    HW115638   4.569   9.400   5.207 -0.6555 -0.5224  0.5512
 3910SOL    HW215639   4.692   9.409   5.296 -0.2355  1.4145 -0.1825
 3910SOL     MW15640   4.605   9.404   5.286 -0.2393  0.3034  0.3327
 3911SOL     OW15641   5.701   1.612   0.764 -0.2133  0.1923  0.1476
 3911SOL    HW115642   5.785   1.635   0.725 -0.5430  1.2684  0.0456
 3911SOL    HW215643   5.721   1.595   0.856  0.1923 -0.0210  0.0190
 3911SOL     MW15644   5.715   1.613   0.771 -0.2031  0.3084  0.1165
 3912SOL     OW15645   7.625   9.986   3.840  0.4847  0.3411 -0.6876
 3912SOL    HW115646   7.577   9.909   3.869  1.2793  0.4728  1.1520
 3912SOL    HW215647   7.558  10.054   3.830  0.0637  0.0632  0.1345
 3912SOL     MW15648   7.610   9.985   3.842  0.5350  0.3214 -0.3294
 3913SOL     OW15649   4.321   0.410   7.697 -0.5854  0.3910 -0.5784
 3913SOL    HW115650   4.408   0.374   7.684 -1.5377 -2.3215 -0.0026
 3913SOL    HW215651   4.315   0.482   7.634  1.5810 -0.2016 -1.5344
 3913SOL     MW15652   4.332   0.415   7.686 -0.4220 -0.0538 -0.6295
 3914SOL     OW15653   7.797   9.603   2.728 -0.1282  0.0123 -0.1912
 3914SOL    HW115654   7.820   9.676   2.670  1.5280  0.6559  1.1962
 3914SOL    HW215655   7.802   9.640   2.816  0.7353 -1.7546  0.5542
 3914SOL     MW15656   7.801   9.618   2.732  0.2109 -0.1389  0.0958
 3915SOL     OW15657   7.926   9.745   0.253  0.0926 -0.5441  0.1352
 3915SOL    HW115658   7.936   9.835   0.286 -0.5412 -0.7596  0.9588
 3915SOL    HW215659   7.985   9.693   0.307 -1.3997 -0.9932  1.4028
 3915SOL     MW15660   7.935   9.750   0.265 -0.1935 -0.6336  0.4166
 3916SOL     OW15661   4.435   0.683   6.584  0.4792 -0.8699 -0.1788
 3916SOL    HW115662   4.462   0.753   6.644 -0.0975 -0.3807 -0.4712
 3916SOL    HW215663   4.340   0.676   6.598  0.3043 -0.6170 -1.1540
 3916SOL     MW15664   4.426   0.692   6.594  0.3781 -0.7700 -0.3494
 3917SOL     OW15665   7.849   0.986   7.957  0.3278  0.3682 -0.2991
 3917SOL    HW115666   7.893   1.054   8.008  0.9986 -0.1955 -0.1046
 3917SOL    HW215667   7.777   0.956   8.013  1.7503 -1.0573  0.8665
 3917SOL     MW15668   7.845   0.991   7.971  0.6095  0.1005 -0.1160
 3918SOL     OW15669   7.188   9.094   4.223 -0.2927  0.1206  0.0812
 3918SOL    HW115670   7.274   9.077   4.183 -1.0710 -2.7678 -0.6110
 3918SOL    HW215671   7.125   9.073   4.155 -1.5895 -0.1645  1.3174
 3918SOL     MW15672   7.191   9.089   4.209 -0.5720 -0.3065  0.1544
 3919SOL     OW15673   4.778   7.726   6.871 -0.3478 -0.3686  0.4441
 3919SOL    HW115674   4.714   7.741   6.940 -0.6019 -0.4925  0.2359
 3919SOL    HW215675   4.861   7.712   6.918 -0.6769 -1.2904  0.7616
 3919SOL     MW15676   4.781   7.726   6.887 -0.4263 -0.5093  0.4588
 3920SOL     OW15677   5.643   1.188   9.982  0.6653  0.0873  0.2432
 3920SOL    HW115678   5.652   1.261  10.043  3.8238 -0.7929  1.0519
 3920SOL    HW215679   5.569   1.138  10.015  0.2059  1.4199  1.3456
 3920SOL     MW15680   5.634   1.191   9.995  1.0286  0.1482  0.5004
 3921SOL     OW15681   4.066   9.127   9.247  0.5643  0.1502  0.4268
 3921SOL    HW115682   3.985   9.168   9.218  0.8953  0.9779  0.6493
 3921SOL    HW215683   4.043   9.087   9.331  0.4965  0.7778  0.7129
 3921SOL     MW15684   4.052   9.127   9.255  0.5997  0.3460  0.4952
 3922SOL     OW15685   6.918   0.784   8.303  0.4093 -0.1326 -0.4918
 3922SOL    HW115686   6.908   0.737   8.386 -1.9533  0.2543 -0.4798
 3922SOL    HW215687   7.007   0.763   8.274  0.2420 -2.7936  0.6019
 3922SOL     MW15688   6.928   0.775   8.311  0.0688 -0.4386 -0.3430
 3923SOL     OW15689   5.752   9.379   2.004  0.0890  0.0849  0.0392
 3923SOL    HW115690   5.785   9.443   1.941 -0.5766  0.3435 -0.0523
 3923SOL    HW215691   5.678   9.422   2.045 -0.5573 -0.7432 -0.2375
 3923SOL     MW15692   5.747   9.394   2.001 -0.0876  0.0082 -0.0103
 3924SOL     OW15693   7.970   9.272   4.300  0.0133  0.3242  0.3422
 3924SOL    HW115694   7.902   9.309   4.244 -0.5191 -1.5857 -0.3513
 3924SOL    HW215695   8.003   9.197   4.251  0.5703 -0.5185  1.9377
 3924SOL     MW15696   7.965   9.267   4.286  0.0166 -0.0462  0.4636
 3925SOL     OW15697   5.813   0.807   9.316 -0.0402 -0.0435  0.1168
 3925SOL    HW115698   5.772   0.884   9.355 -0.3459  0.4717 -1.1885
 3925SOL    HW215699   5.740   0.747   9.300  0.0297 -0.0933 -0.0138
 3925SOL     MW15700   5.797   0.809   9.319 -0.0719  0.0191 -0.0765
 3926SOL     OW15701   7.922   0.444   5.171  0.2866 -0.1457  0.4063
 3926SOL    HW115702   7.966   0.366   5.137 -0.3724 -0.6315  0.6507
 3926SOL    HW215703   7.930   0.508   5.100 -0.8227 -1.0575 -0.5838
 3926SOL     MW15704   7.929   0.442   5.157  0.0486 -0.3338  0.3060
 3927SOL     OW15705   7.180   8.296   1.771 -0.8324  0.1713  0.0917
 3927SOL    HW115706   7.231   8.266   1.696 -1.0898 -1.4403  0.5250
 3927SOL    HW215707   7.228   8.266   1.847 -1.2857  0.5761  0.5457
 3927SOL     MW15708   7.193   8.288   1.771 -0.9280  0.0089  0.2111
 3928SOL     OW15709   4.238   1.159   5.736  0.2518 -0.1114 -0.7081
 3928SOL    HW115710   4.152   1.189   5.705  0.3623 -0.0342 -0.9440
 3928SOL    HW215711   4.236   1.064   5.721  0.1330 -0.1367 -0.5305
 3928SOL     MW15712   4.226   1.150   5.730  0.2507 -0.1044 -0.7159
 3929SOL     OW15713   4.190   8.414   7.153  0.3240 -0.1315  0.1533
 3929SOL    HW115714   4.119   8.478   7.157  0.6585  0.2026  1.0404
 3929SOL    HW215715   4.251   8.441   7.221  0.9900 -0.7947 -0.1562
 3929SOL     MW15716   4.189   8.426   7.162  0.4586 -0.1758  0.2310
 3930SOL     OW15717   5.987   8.292   4.931  0.2245  0.0071  0.0809
 3930SOL    HW115718   6.080   8.288   4.951  0.4042  1.5279 -0.3728
 3930SOL    HW215719   5.981   8.276   4.837  0.2454  1.8192 -0.2678
 3930SOL     MW15720   5.999   8.289   4.921  0.2515  0.4556 -0.0271
 3931SOL     OW15721   7.897   0.562   1.783 -0.1699  0.1888 -0.4109
 3931SOL    HW115722   7.957   0.530   1.715  0.3027  1.6688 -0.7208
 3931SOL    HW215723   7.821   0.593   1.735  0.2604  1.4505 -0.2996
 3931SOL     MW15724   7.895   0.562   1.767 -0.0484  0.5578 -0.4376
 3932SOL     OW15725   5.141   1.193   1.255 -0.1069 -0.0923 -0.6268
 3932SOL    HW115726   5.099   1.152   1.179  0.3168  0.5774 -1.2362
 3932SOL    HW215727   5.170   1.119   1.308 -1.0917 -0.5675 -0.7237
 3932SOL     MW15728   5.139   1.177   1.252 -0.1824 -0.0662 -0.7218
 3933SOL     OW15729   7.314   9.050   7.271 -0.1353  0.2548  0.5178
 3933SOL    HW115730   7.388   9.109   7.288 -0.4205  1.0907 -0.9469
 3933SOL    HW215731   7.297   9.059   7.177 -0.8593 -1.4070  0.4518
 3933SOL     MW15732   7.322   9.059   7.260 -0.2711  0.1436  0.3118
 3934SOL     OW15733   5.834   7.702   7.281  0.0525 -0.0502 -0.1568
 3934SOL    HW115734   5.858   7.794   7.273  0.9150 -0.3170 -0.7524
 3934SOL    HW215735   5.843   7.683   7.375 -2.1823  0.9902  0.3441
 3934SOL     MW15736   5.838   7.712   7.293 -0.1322  0.0539 -0.1696
 3935SOL     OW15737   5.110   8.745   4.243 -0.6267 -0.4350  0.0854
 3935SOL    HW115738   5.159   8.663   4.250 -1.0796 -0.8079 -0.9258
 3935SOL    HW215739   5.114   8.782   4.331  0.1669 -1.2016  0.3965
 3935SOL     MW15740   5.117   8.739   4.256 -0.5808 -0.5883 -0.0088
 3936SOL     OW15741   5.594   7.698   0.537  0.5852 -0.3068  0.4472
 3936SOL    HW115742   5.586   7.672   0.629  1.0626 -1.6876  0.1290
 3936SOL    HW215743   5.688   7.694   0.520  0.5675  0.6165  0.0619
 3936SOL     MW15744   5.606   7.694   0.547  0.6471 -0.3684  0.3525
 3937SOL     OW15745   6.116   0.355   0.675 -0.0597 -0.3235  0.3398
 3937SOL    HW115746   6.038   0.299   0.671 -0.5369  0.1720  2.0564
 3937SOL    HW215747   6.157   0.334   0.759  0.5822  0.8166  0.3324
 3937SOL     MW15748   6.111   0.345   0.686 -0.0375 -0.1034  0.5698
 3938SOL     OW15749   4.824   9.012   4.022  0.3797 -0.0270  0.0313
 3938SOL    HW115750   4.797   8.921   4.012  2.2172 -0.4400 -1.7525
 3938SOL    HW215751   4.913   9.007   4.057  0.8983  1.0156 -1.0617
 3938SOL     MW15752   4.833   8.999   4.025  0.6968  0.0577 -0.3559
 3939SOL     OW15753   5.241   9.519   6.270  0.0075  0.6015  0.5448
 3939SOL    HW115754   5.212   9.557   6.187  0.6077  1.1871  0.6079
 3939SOL    HW215755   5.172   9.455   6.291 -1.0102  1.6358  0.4460
 3939SOL     MW15756   5.228   9.515   6.261 -0.0487  0.8195  0.5400
 3940SOL     OW15757   6.654   8.293   5.152 -0.0566  0.4187  0.3369
 3940SOL    HW115758   6.710   8.369   5.136  3.1205 -1.4167  1.7722
 3940SOL    HW215759   6.664   8.239   5.074  0.8842 -0.2831  0.9274
 3940SOL     MW15760   6.663   8.296   5.139  0.4976  0.0772  0.6095
 3941SOL     OW15761   6.085   7.679   9.848  0.3765  0.5133  0.1013
 3941SOL    HW115762   6.026   7.668   9.774 -0.0735 -0.1565  0.5478
 3941SOL    HW215763   6.137   7.756   9.826 -0.0446  0.5763 -0.7108
 3941SOL     MW15764   6.084   7.688   9.835  0.2593  0.4316  0.0521
 3942SOL     OW15765   5.263   0.645   4.152  0.4381  0.2841 -0.1152
 3942SOL    HW115766   5.245   0.617   4.062  0.5788 -0.7278  0.1541
 3942SOL    HW215767   5.268   0.740   4.147 -1.0365  0.3408 -0.8985
 3942SOL     MW15768   5.261   0.654   4.139  0.2586  0.1555 -0.1844
 3943SOL     OW15769   4.412   8.007   5.101 -0.1830 -0.2741 -0.2359
 3943SOL    HW115770   4.394   7.961   5.019  0.6026  0.3574 -0.7699
 3943SOL    HW215771   4.507   8.015   5.104 -0.3136  1.8515 -0.4716
 3943SOL     MW15772   4.422   8.002   5.090 -0.0949  0.0969 -0.3395
 3944SOL     OW15773   5.132   1.049   8.965 -0.0278  0.3653 -0.5905
 3944SOL    HW115774   5.120   0.956   8.946 -0.0035  0.5868 -1.8047
 3944SOL    HW215775   5.048   1.089   8.945  0.2268  0.7253 -0.9829
 3944SOL     MW15776   5.119   1.042   8.960  0.0097  0.4436 -0.8067
 3945SOL     OW15777   5.081   8.974   3.670  0.0513  0.3696  0.1280
 3945SOL    HW115778   5.134   9.018   3.736 -0.7664 -0.1642  1.1745
 3945SOL    HW215779   5.144   8.932   3.612  0.9125 -3.1345  3.2493
 3945SOL     MW15780   5.097   8.974   3.671  0.0571 -0.1738  0.6889
 3946SOL     OW15781   6.105   8.888   0.901 -0.4318 -0.1526  0.4106
 3946SOL    HW115782   6.091   8.946   0.826 -0.1990  0.0599  0.5309
 3946SOL    HW215783   6.020   8.847   0.916 -1.2145  1.7978  1.7101
 3946SOL     MW15784   6.091   8.890   0.893 -0.5058  0.1385  0.6017
 3947SOL     OW15785   5.279   1.412   2.124  0.0327 -0.1039 -0.1130
 3947SOL    HW115786   5.310   1.321   2.121 -0.7067 -0.3677 -0.1129
 3947SOL    HW215787   5.352   1.461   2.160 -0.2121 -1.0013  1.7310
 3947SOL     MW15788   5.293   1.406   2.128 -0.0997 -0.2602  0.1352
 3948SOL     OW15789   4.919   0.351   3.538 -0.2130 -0.3604 -0.0046
 3948SOL    HW115790   4.889   0.331   3.449 -0.4191  0.6570 -0.1742
 3948SOL    HW215791   5.015   0.352   3.531 -0.2167 -0.6444 -0.1289
 3948SOL     MW15792   4.928   0.348   3.525 -0.2413 -0.2617 -0.0442
 3949SOL     OW15793   6.035   1.670   5.488 -0.5479  0.0531 -0.4221
 3949SOL    HW115794   6.063   1.579   5.490 -0.7209  0.0242  1.0805
 3949SOL    HW215795   6.067   1.702   5.403  1.2244 -0.8610 -0.1560
 3949SOL     MW15796   6.043   1.662   5.477 -0.3327 -0.0738 -0.1841
 3950SOL     OW15797   5.687   8.335   6.221  0.3291 -0.2996 -0.0423
 3950SOL    HW115798   5.593   8.319   6.231  0.3058  0.0362  0.2982
 3950SOL    HW215799   5.714   8.369   6.306  0.4334  1.1870 -0.6451
 3950SOL     MW15800   5.678   8.338   6.234  0.3400 -0.0544 -0.0776
 3951SOL     OW15801   5.661   7.758   9.733  0.2011  0.6817 -0.6000
 3951SOL    HW115802   5.634   7.785   9.646  0.2202  0.2186 -0.7538
 3951SOL    HW215803   5.745   7.714   9.719  0.4942  1.1295 -0.2720
 3951SOL     MW15804   5.669   7.756   9.719  0.2431  0.6796 -0.5766
 3952SOL     OW15805   6.604   8.385   9.508  0.0714  0.6013 -0.8329
 3952SOL    HW115806   6.544   8.363   9.579 -0.3616  0.7689 -1.1446
 3952SOL    HW215807   6.599   8.310   9.448  0.9719  0.1337 -0.3455
 3952SOL     MW15808   6.595   8.372   9.509  0.1343  0.5609 -0.8092
 3953SOL     OW15809   7.110   0.528   4.993 -0.3122  0.1692 -0.3512
 3953SOL    HW115810   7.149   0.444   4.971 -0.9173 -0.4209  0.7335
 3953SOL    HW215811   7.177   0.592   4.970 -0.1466 -0.5141 -1.9751
 3953SOL     MW15812   7.124   0.525   4.987 -0.3713 -0.0022 -0.4238
 3954SOL     OW15813   4.449   1.164   6.681  0.4263 -0.1272  0.3026
 3954SOL    HW115814   4.441   1.160   6.777 -0.8570  1.8918  0.3422
 3954SOL    HW215815   4.360   1.150   6.649  0.7332 -0.1378 -0.5772
 3954SOL     MW15816   4.436   1.162   6.690  0.2949  0.1431  0.1895
 3955SOL     OW15817   6.427   7.989  10.040 -0.3457  0.0655 -0.1412
 3955SOL    HW115818   6.469   7.903  10.050  0.8985  0.7308  0.5474
 3955SOL    HW215819   6.477   8.032   9.970 -0.7903  0.3410 -0.2930
 3955SOL     MW15820   6.439   7.983  10.032 -0.2381  0.1921 -0.0689
 3956SOL     OW15821   5.017   1.479   9.207  0.2165 -0.5213 -0.1627
 3956SOL    HW115822   5.056   1.517   9.129 -2.5206  1.3410 -0.7888
 3956SOL    HW215823   4.981   1.395   9.179 -0.5222  0.0193 -0.8635
 3956SOL     MW15824   5.017   1.473   9.193 -0.2513 -0.1979 -0.3413
 3957SOL     OW15825   6.725   9.257   6.023  0.2771 -0.1364  0.0643
 3957SOL    HW115826   6.785   9.332   6.028 -0.8468  0.7570  0.7653
 3957SOL    HW215827   6.722   9.236   5.929  0.5782  0.7321 -0.1550
 3957SOL     MW15828   6.732   9.264   6.011  0.1664  0.1007  0.1291
 3958SOL     OW15829   4.903   8.874   1.987  0.0228  0.0778 -0.0629
 3958SOL    HW115830   4.880   8.790   1.949 -0.3749 -0.1486  0.6678
 3958SOL    HW215831   4.923   8.930   1.912  1.7303 -1.0627 -0.5143
 3958SOL     MW15832   4.902   8.870   1.972  0.1991 -0.1062 -0.0253
 3959SOL     OW15833   5.324   0.069   4.148  0.0763  0.1009  0.2468
 3959SOL    HW115834   5.275  -0.006   4.182  1.7855 -0.4866  1.5947
 3959SOL    HW215835   5.413   0.035   4.134  0.0692  0.9553 -2.6472
 3959SOL     MW15836   5.330   0.054   4.150  0.3053  0.1368  0.0387
 3960SOL     OW15837   7.937   9.434   8.822 -0.2035 -0.4588  0.3501
 3960SOL    HW115838   7.994   9.413   8.748  0.3836 -0.0030  0.6670
 3960SOL    HW215839   7.979   9.392   8.897  0.2414  0.6658  0.7533
 3960SOL     MW15840   7.950   9.425   8.822 -0.0646 -0.2461  0.4470
 3961SOL     OW15841   7.041   1.181   8.290 -0.2859 -0.4990 -0.1643
 3961SOL    HW115842   7.116   1.123   8.277  0.1062  0.1702 -0.9778
 3961SOL    HW215843   6.981   1.130   8.344  1.0772 -0.7656  1.1994
 3961SOL     MW15844   7.043   1.167   8.296 -0.0497 -0.4448 -0.0902
 3962SOL     OW15845   5.424   9.521   9.743  0.5349  0.4322  0.0185
 3962SOL    HW115846   5.395   9.568   9.664  0.2331  0.7670  0.3232
 3962SOL    HW215847   5.343   9.489   9.783  0.7635 -0.7787 -0.4350
 3962SOL     MW15848   5.409   9.523   9.737  0.5250  0.3143 -0.0015
 3963SOL     OW15849   5.689   9.055   3.668  0.1756 -0.1185 -0.0548
 3963SOL    HW115850   5.757   8.994   3.697  0.4695  0.5716  0.7529
 3963SOL    HW215851   5.708   9.135   3.717 -1.9487 -0.2757  1.1253
 3963SOL     MW15852   5.701   9.057   3.679 -0.0707 -0.0468  0.2127
 3964SOL     OW15853   4.529   0.133   3.671 -0.3979  0.1332  0.4603
 3964SOL    HW115854   4.456   0.141   3.609  0.8627 -1.6729 -1.4127
 3964SOL    HW215855   4.574   0.052   3.645  1.0286  0.0308  2.9120
 3964SOL     MW15856   4.526   0.123   3.659 -0.0363 -0.1236  0.5382
 3965SOL     OW15857   7.485   0.266   8.326  0.6639  0.3167  0.0009
 3965SOL    HW115858   7.489   0.201   8.255  1.0703  1.0045 -0.6163
 3965SOL    HW215859   7.480   0.350   8.281  0.3305  0.7351  0.7991
 3965SOL     MW15860   7.485   0.268   8.310  0.6737  0.4656  0.0253
 3966SOL     OW15861   4.060   9.486   7.530  0.0016  0.0686  0.0865
 3966SOL    HW115862   4.087   9.414   7.473 -0.6360 -0.2416  0.1670
 3966SOL    HW215863   3.968   9.467   7.551  0.3497 -0.0652  1.5881
 3966SOL     MW15864   4.051   9.474   7.525 -0.0374  0.0089  0.2994
 3967SOL     OW15865   7.025   8.815   6.131 -0.3767  0.2669  0.2864
 3967SOL    HW115866   6.949   8.863   6.098 -0.8582 -0.1989  0.7088
 3967SOL    HW215867   7.088   8.884   6.154 -1.0624  0.7053  0.9006
 3967SOL     MW15868   7.023   8.831   6.129 -0.5338  0.2632  0.4259
 3968SOL     OW15869   5.917   8.858   5.070 -0.2561 -0.3029 -0.5359
 3968SOL    HW115870   5.842   8.912   5.044  0.6783  1.7528  0.8263
 3968SOL    HW215871   5.896   8.771   5.037 -3.8883 -0.1457  0.9554
 3968SOL     MW15872   5.904   8.854   5.062 -0.6192 -0.0051 -0.1518
 3969SOL     OW15873   4.322  10.143   2.436 -0.2419  0.2786 -0.0680
 3969SOL    HW115874   4.306  10.056   2.472 -1.2666 -0.1410 -1.4521
 3969SOL    HW215875   4.250  10.197   2.468  0.0680  0.4746  0.3083
 3969SOL     MW15876   4.310  10.139   2.445 -0.3381  0.2485 -0.2036
 3970SOL     OW15877   6.045   8.810   7.088  0.2608 -0.2782 -0.1168
 3970SOL    HW115878   6.122   8.827   7.033  0.6115 -1.5041 -0.0388
 3970SOL    HW215879   6.080   8.760   7.161 -0.4993 -0.1607  0.3316
 3970SOL     MW15880   6.060   8.806   7.090  0.2057 -0.4273 -0.0459
 3971SOL     OW15881   5.501   9.660   2.998  0.0073 -0.3912 -0.6598
 3971SOL    HW115882   5.532   9.603   3.068  0.6879  1.1606  0.3539
 3971SOL    HW215883   5.409   9.636   2.987  0.2603 -1.6407 -0.2451
 3971SOL     MW15884   5.493   9.649   3.006  0.1329 -0.3505 -0.4675
 3972SOL     OW15885   5.482   8.397   5.796 -0.0233 -0.2808 -0.1108
 3972SOL    HW115886   5.424   8.389   5.872 -0.7816  0.5595 -0.5758
 3972SOL    HW215887   5.565   8.359   5.824 -0.6416 -1.0164  0.7556
 3972SOL     MW15888   5.485   8.391   5.810 -0.2085 -0.2667 -0.0568
 3973SOL     OW15889   6.588   8.501   2.790  0.1074  0.8700 -0.2435
 3973SOL    HW115890   6.529   8.575   2.807  0.1005  1.2618 -1.7904
 3973SOL    HW215891   6.600   8.501   2.695  0.5530 -0.7970 -0.2251
 3973SOL     MW15892   6.582   8.511   2.779  0.1664  0.6984 -0.4492
 3974SOL     OW15893   5.741   8.650   3.810  0.6043 -0.5317 -0.3969
 3974SOL    HW115894   5.797   8.646   3.733  1.0654  0.0521 -0.0978
 3974SOL    HW215895   5.773   8.580   3.867  1.1593 -0.0724 -0.1427
 3974SOL     MW15896   5.753   8.640   3.807  0.7410 -0.3913 -0.3225
 3975SOL     OW15897   4.276   9.515   9.930  0.0648 -0.0264  0.4203
 3975SOL    HW115898   4.261   9.550   9.843  1.8377 -1.1955 -0.4084
 3975SOL    HW215899   4.188   9.501   9.965 -0.6799  1.1264 -0.8719
 3975SOL     MW15900   4.262   9.518   9.923  0.2031 -0.0286  0.1349
 3976SOL     OW15901   7.003   9.914   7.555  0.2711 -0.0381 -0.0449
 3976SOL    HW115902   7.064   9.973   7.600  0.1111  0.3776 -0.3648
 3976SOL    HW215903   6.943   9.973   7.509 -0.0958 -0.4491 -0.0990
 3976SOL     MW15904   7.003   9.930   7.555  0.2002 -0.0374 -0.0952
 3977SOL     OW15905   6.858   8.996   3.197 -0.3940  0.1575 -0.5600
 3977SOL    HW115906   6.830   8.923   3.141  2.2132 -0.8772 -0.6812
 3977SOL    HW215907   6.841   8.965   3.286 -1.5366  0.4367 -0.6738
 3977SOL     MW15908   6.852   8.982   3.202 -0.1969  0.0558 -0.5916
 3978SOL     OW15909   7.456   0.352   2.010 -0.2828  0.1603  0.0793
 3978SOL    HW115910   7.531   0.393   2.054  0.4997 -0.1557 -0.8990
 3978SOL    HW215911   7.401   0.425   1.983  0.4101  0.5047 -0.4511
 3978SOL     MW15912   7.459   0.367   2.012 -0.0842  0.1641 -0.1237
 3979SOL     OW15913   7.793   8.984   2.103 -0.4840 -0.9543  0.0937
 3979SOL    HW115914   7.722   8.924   2.079  0.1047 -1.4607 -0.4219
 3979SOL    HW215915   7.849   8.932   2.160 -0.6065 -0.5032  0.6307
 3979SOL     MW15916   7.791   8.969   2.107 -0.4212 -0.9618  0.0966
 3980SOL     OW15917   4.645   9.544   0.396  0.2677  0.2654  0.3131
 3980SOL    HW115918   4.734   9.546   0.360  0.5970  0.7605  1.1251
 3980SOL    HW215919   4.607   9.627   0.370 -0.8651 -0.9031 -2.1590
 3980SOL     MW15920   4.652   9.555   0.387  0.1596  0.1748  0.0897
 3981SOL     OW15921   6.854   0.892   5.130 -0.1383 -0.2539 -0.8795
 3981SOL    HW115922   6.940   0.932   5.119 -0.3570  0.3370 -0.5234
 3981SOL    HW215923   6.814   0.942   5.201  0.2013 -2.1673  0.7589
 3981SOL     MW15924   6.860   0.904   5.138 -0.1220 -0.4319 -0.6111
 3982SOL     OW15925   5.743   8.706   8.562 -0.2396 -0.0474 -0.3501
 3982SOL    HW115926   5.712   8.627   8.608  0.5372 -0.8886 -1.2219
 3982SOL    HW215927   5.821   8.732   8.610 -0.3427  0.0340 -0.2258
 3982SOL     MW15928   5.749   8.699   8.575 -0.1489 -0.1497 -0.4507
 3983SOL     OW15929   7.433   9.547   0.474 -0.0537  0.9467 -0.3648
 3983SOL    HW115930   7.470   9.539   0.386 -1.3275  2.2319 -1.0515
 3983SOL    HW215931   7.432   9.641   0.492 -4.1928  1.2031 -1.0171
 3983SOL     MW15932   7.438   9.558   0.465 -0.7821  1.1542 -0.5450
 3984SOL     OW15933   6.676   0.254   3.403  0.6532  0.3566  0.4931
 3984SOL    HW115934   6.729   0.198   3.347 -0.4182  1.2916 -1.5605
 3984SOL    HW215935   6.587   0.221   3.393  0.4045  0.7192  1.4444
 3984SOL     MW15936   6.671   0.242   3.394  0.4756  0.5312  0.3447
 3985SOL     OW15937   6.187   0.690   5.883  0.1855 -0.2210  0.3715
 3985SOL    HW115938   6.126   0.669   5.954  0.7518 -1.8787  0.3957
 3985SOL    HW215939   6.215   0.605   5.849  0.6584  0.5324 -1.2211
 3985SOL     MW15940   6.182   0.676   5.888  0.3254 -0.3427  0.1604
 3986SOL     OW15941   4.021   0.083   1.126  0.0643  0.0183  0.5524
 3986SOL    HW115942   4.112   0.112   1.129  0.1512 -0.2851  0.9118
 3986SOL    HW215943   4.006   0.043   1.212 -0.3427 -0.1186  0.4170
 3986SOL     MW15944   4.031   0.081   1.138  0.0212 -0.0409  0.5825
 3987SOL     OW15945   7.462   0.357   7.884  0.1039 -0.0602  0.2364
 3987SOL    HW115946   7.401   0.359   7.957  1.6129  0.5413  1.5378
 3987SOL    HW215947   7.482   0.264   7.873 -0.7794 -0.2333  0.0043
 3987SOL     MW15948   7.457   0.344   7.892  0.1881 -0.0026  0.3803
 3988SOL     OW15949   3.792   8.899   3.694  0.6158  0.0406 -0.7753
 3988SOL    HW115950   3.885   8.913   3.681  0.4020  0.4817 -1.9396
 3988SOL    HW215951   3.787   8.835   3.766  1.7428  1.3841  0.5608
 3988SOL     MW15952   3.804   8.892   3.702  0.7387  0.2808 -0.7522
 3989SOL     OW15953   6.950   1.733   7.193 -0.0722  0.4009 -0.2351
 3989SOL    HW115954   6.945   1.806   7.132 -0.7099  0.8207  0.3040
 3989SOL    HW215955   7.029   1.685   7.167 -0.4769  0.4163 -1.5331
 3989SOL     MW15956   6.960   1.736   7.181 -0.2125  0.4595 -0.3373
 3990SOL     OW15957   5.776   1.906   5.210 -0.4447 -0.1687 -0.0025
 3990SOL    HW115958   5.780   1.903   5.306 -1.0901  2.4564  0.1958
 3990SOL    HW215959   5.855   1.956   5.185 -0.6296 -0.2553 -0.7860
 3990SOL     MW15960   5.787   1.913   5.220 -0.5565  0.1730 -0.0812
 3991SOL     OW15961   6.087   8.044   2.028  0.0715 -0.0095 -0.0031
 3991SOL    HW115962   6.166   8.055   1.974  0.2361  0.3607  0.3105
 3991SOL    HW215963   6.051   8.132   2.035 -0.3202 -0.1636 -0.0628
 3991SOL     MW15964   6.093   8.057   2.022  0.0409  0.0196  0.0311
 3992SOL     OW15965   5.794   8.356   6.492 -0.0383 -0.8453 -0.6369
 3992SOL    HW115966   5.784   8.272   6.537 -0.7478 -0.1560  0.5432
 3992SOL    HW215967   5.767   8.421   6.556 -0.3970  0.2372 -1.8404
 3992SOL     MW15968   5.789   8.354   6.506 -0.1820 -0.6068 -0.6400
 3993SOL     OW15969   6.195   8.428   4.574 -0.6301 -0.3082  0.9634
 3993SOL    HW115970   6.107   8.449   4.607 -1.5061  1.7379 -2.1784
 3993SOL    HW215971   6.180   8.364   4.504  0.4813 -0.5353  0.9149
 3993SOL     MW15972   6.181   8.422   4.569 -0.5984 -0.0634  0.5341
 3994SOL     OW15973   5.763   0.521   3.856 -0.1417 -0.0033 -0.3296
 3994SOL    HW115974   5.793   0.612   3.862 -1.7761  0.5670 -0.2094
 3994SOL    HW215975   5.697   0.522   3.787  1.8597 -1.7286 -2.3907
 3994SOL     MW15976   5.758   0.533   3.848 -0.0923 -0.1587 -0.5908
 3995SOL     OW15977   4.828   1.748   0.355 -0.5398  0.1749 -0.3260
 3995SOL    HW115978   4.843   1.776   0.265 -1.5150  0.4033 -0.4306
 3995SOL    HW215979   4.750   1.693   0.351 -0.0622 -0.5820  0.2518
 3995SOL     MW15980   4.820   1.744   0.343 -0.6068  0.1038 -0.2623
 3996SOL     OW15981   5.023   8.627   9.316  0.1077 -0.0258 -0.6512
 3996SOL    HW115982   5.093   8.638   9.251 -0.3618  0.4166 -1.0951
 3996SOL    HW215983   5.032   8.703   9.374 -0.7814  0.7362 -1.4689
 3996SOL     MW15984   5.034   8.639   9.315 -0.0751  0.1363 -0.8210
 3997SOL     OW15985   6.149   7.659   5.463 -0.0632  0.1455  0.6853
 3997SOL    HW115986   6.071   7.679   5.412 -0.3428 -0.8951  0.6939
 3997SOL    HW215987   6.142   7.715   5.540  1.0218  2.7307 -0.9575
 3997SOL     MW15988   6.137   7.669   5.466  0.0452  0.3533  0.4654
 3998SOL     OW15989   5.204   9.381   0.690  0.0518  0.6963  0.2810
 3998SOL    HW115990   5.222   9.452   0.752 -1.1516  1.4079 -0.1716
 3998SOL    HW215991   5.129   9.335   0.727  2.2059 -1.8980  1.8396
 3998SOL     MW15992   5.197   9.384   0.704  0.1798  0.4429  0.4298
 3999SOL     OW15993   5.501   1.488   3.134  0.0715  0.1150 -0.0789
 3999SOL    HW115994   5.555   1.563   3.109 -0.4069  1.0525  1.5415
 3999SOL    HW215995   5.413   1.524   3.143 -0.1889 -0.6691  0.5985
 3999SOL     MW15996   5.497   1.503   3.132 -0.0279  0.1357  0.2303
 4000SOL     OW15997   6.824   7.525   4.371 -0.1320 -0.2186  0.0218
 4000SOL    HW115998   6.863   7.578   4.300 -0.2853 -0.8458 -0.5371
 4000SOL    HW215999   6.853   7.436   4.352 -1.3969 -0.6147 -0.0887
 4000SOL     MW16000   6.833   7.520   4.359 -0.3229 -0.3563 -0.0683
 4001SOL     OW16001   5.389   8.217   8.480  0.3348 -0.3536  0.4403
 4001SOL    HW116002   5.342   8.299   8.469 -0.7342 -0.9732  0.3346
 4001SOL    HW216003   5.482   8.242   8.473 -0.0133  0.6119 -1.0950
 4001SOL     MW16004   5.395   8.231   8.478  0.1441 -0.3071  0.2195
 4002SOL     OW16005   5.240   0.489   2.949 -0.3864 -0.5256  0.1356
 4002SOL    HW116006   5.222   0.408   2.998 -0.8327 -0.8569 -0.5677
 4002SOL    HW216007   5.262   0.459   2.861 -0.7309  0.1314 -0.1795
 4002SOL     MW16008   5.241   0.474   2.944 -0.4928 -0.4817 -0.0015
 4003SOL     OW16009   7.014   7.927   4.577 -0.3596  0.0387  0.7852
 4003SOL    HW116010   6.974   7.841   4.582 -0.0159 -0.3036 -1.3863
 4003SOL    HW216011   6.940   7.988   4.572 -0.5966 -0.2084  1.2293
 4003SOL     MW16012   6.999   7.924   4.577 -0.3452 -0.0407  0.5527
 4004SOL     OW16013   6.560   1.492   7.021 -0.4423  0.9298  0.1424
 4004SOL    HW116014   6.592   1.582   7.022 -1.1990  1.2150  0.6854
 4004SOL    HW216015   6.484   1.493   7.081  0.1344 -0.2879  0.9541
 4004SOL     MW16016   6.554   1.504   7.029 -0.4665  0.8043  0.3247
 4005SOL     OW16017   6.582   1.371   0.558 -0.2792 -0.1952  0.3051
 4005SOL    HW116018   6.496   1.368   0.601  0.0635  0.1315  1.0262
 4005SOL    HW216019   6.565   1.414   0.474 -1.0900 -1.5023 -0.2278
 4005SOL     MW16020   6.568   1.376   0.552 -0.3422 -0.3272  0.3304
 4006SOL     OW16021   7.015   0.478   5.844 -0.2899  0.2566  0.0776
 4006SOL    HW116022   7.064   0.513   5.918 -0.1609 -1.4184  0.8253
 4006SOL    HW216023   6.991   0.555   5.793  0.1449  1.4066  1.5297
 4006SOL     MW16024   7.018   0.493   5.847 -0.2140  0.1860  0.3737
 4007SOL     OW16025   4.851   0.529   6.450  0.0512  0.1454 -0.5404
 4007SOL    HW116026   4.924   0.581   6.485 -0.2529  0.7152 -0.7263
 4007SOL    HW216027   4.841   0.561   6.360 -1.2075  0.9509 -0.1400
 4007SOL     MW16028   4.859   0.541   6.443 -0.1591  0.3305 -0.5116
 4008SOL     OW16029   7.420   0.735   7.987  0.7680  0.0207 -0.5563
 4008SOL    HW116030   7.432   0.673   8.059  0.8952  0.3610 -0.2859
 4008SOL    HW216031   7.326   0.731   7.969  0.9558 -1.2627 -1.4540
 4008SOL     MW16032   7.409   0.726   7.994  0.8104 -0.1062 -0.6407
 4009SOL     OW16033   6.422   0.384   8.014  0.0973  0.0311 -0.7972
 4009SOL    HW116034   6.382   0.329   7.946 -1.6230 -0.0668  0.2302
 4009SOL    HW216035   6.410   0.474   7.982 -1.6183  0.0492 -0.2393
 4009SOL     MW16036   6.415   0.389   8.000 -0.3651  0.0204 -0.5839
 4010SOL     OW16037   6.559   1.546   5.966 -0.0533 -0.1424  0.0337
 4010SOL    HW116038   6.613   1.511   6.037 -0.6775 -0.5239  0.3311
 4010SOL    HW216039   6.621   1.588   5.907  0.5749 -0.6112  0.3476
 4010SOL     MW16040   6.575   1.547   5.968 -0.0527 -0.2568  0.1159
 4011SOL     OW16041   5.320   1.767   8.051 -0.2334 -0.0471  0.3515
 4011SOL    HW116042   5.232   1.801   8.037  0.0645  0.2443 -0.9301
 4011SOL    HW216043   5.313   1.673   8.033 -0.2821 -0.0334  0.3002
 4011SOL     MW16044   5.307   1.759   8.047 -0.1998 -0.0060  0.1721
 4012SOL     OW16045   6.475   0.406   7.652  0.6612 -0.2856  0.2016
 4012SOL    HW116046   6.507   0.496   7.665 -0.1518 -0.2395  2.2083
 4012SOL    HW216047   6.381   0.417   7.638  0.3102 -0.8992  1.9472
 4012SOL     MW16048   6.467   0.420   7.652  0.5046 -0.3620  0.7066
 4013SOL     OW16049   5.458   0.969   7.914 -0.3184  0.2706  0.2186
 4013SOL    HW116050   5.553   0.972   7.901 -0.2496 -0.7591  0.4016
 4013SOL    HW216051   5.423   0.955   7.826 -0.0954 -2.4082  0.4691
 4013SOL     MW16052   5.466   0.968   7.900 -0.2791 -0.2285  0.2769
 4014SOL     OW16053   6.285   1.390   8.691  0.5782 -0.5009  0.1178
 4014SOL    HW116054   6.367   1.369   8.647  0.0776 -1.0839 -0.5539
 4014SOL    HW216055   6.221   1.329   8.654 -0.6355  1.3190 -0.9185
 4014SOL     MW16056   6.287   1.379   8.680  0.3475 -0.3345 -0.1121
 4015SOL     OW16057   5.236   9.078   3.884  0.5295 -0.3728 -0.4401
 4015SOL    HW116058   5.325   9.046   3.899 -0.6501 -3.2938  1.0288
 4015SOL    HW216059   5.182   9.028   3.945 -2.2955  0.4459 -2.1089
 4015SOL     MW16060   5.241   9.067   3.895 -0.0094 -0.6558 -0.4670
 4016SOL     OW16061   5.429   9.916   8.212 -0.7259 -0.1353 -0.2423
 4016SOL    HW116062   5.360   9.899   8.276 -0.7954  0.4843 -0.1406
 4016SOL    HW216063   5.400   9.871   8.133 -0.8953 -0.4744  0.0098
 4016SOL     MW16064   5.416   9.908   8.210 -0.7581 -0.0976 -0.1947
 4017SOL     OW16065   6.029   7.647   7.080  0.2011  0.3334  0.2956
 4017SOL    HW116066   6.104   7.633   7.139 -0.3177  0.6666  1.0540
 4017SOL    HW216067   5.956   7.665   7.139 -0.4064  0.3553 -0.4524
 4017SOL     MW16068   6.030   7.647   7.096  0.0495  0.3812  0.2970
 4018SOL     OW16069   7.778   0.291   8.297 -0.1525  0.3433  0.1033
 4018SOL    HW116070   7.788   0.204   8.337 -1.0752 -1.7705 -3.7708
 4018SOL    HW216071   7.684   0.310   8.306 -0.1108  0.5107  0.1785
 4018SOL     MW16072   7.767   0.282   8.304 -0.2710  0.0814 -0.4080
 4019SOL     OW16073   5.885   8.920   5.587 -0.2661  0.4245 -0.2320
 4019SOL    HW116074   5.829   8.903   5.512 -0.1107 -1.1535 -0.0063
 4019SOL    HW216075   5.826   8.958   5.653 -1.1789 -1.4277  0.0916
 4019SOL     MW16076   5.870   8.923   5.586 -0.3681 -0.0371 -0.1581
 4020SOL     OW16077   6.839   8.347   5.762 -0.1555 -0.4903 -0.0682
 4020SOL    HW116078   6.823   8.280   5.828  0.3032 -0.8198 -0.2838
 4020SOL    HW216079   6.920   8.319   5.719  0.0234  0.1852 -0.1793
 4020SOL     MW16080   6.848   8.334   5.765 -0.0697 -0.4437 -0.1121
 4021SOL     OW16081   4.740   8.706   0.783 -0.2515  0.0427 -0.1787
 4021SOL    HW116082   4.676   8.659   0.837 -0.0129  1.1837  1.1625
 4021SOL    HW216083   4.746   8.655   0.702 -3.0509  0.0427 -0.4749
 4021SOL     MW16084   4.732   8.693   0.779 -0.5961  0.1963 -0.0381
 4022SOL     OW16085   5.010   0.339   9.863 -0.0242  0.0694  0.3059
 4022SOL    HW116086   5.067   0.408   9.829 -1.6639  1.1943 -0.2979
 4022SOL    HW216087   5.069   0.265   9.879  1.4011  0.7250 -1.5012
 4022SOL     MW16088   5.026   0.338   9.860 -0.0531  0.3090 -0.0186
 4023SOL     OW16089   5.266   9.000   8.824 -0.0306  0.0504 -0.6264
 4023SOL    HW116090   5.207   9.075   8.819 -1.3992 -0.9195  0.1830
 4023SOL    HW216091   5.262   8.973   8.916 -0.4479 -1.6675 -1.1124
 4023SOL     MW16092   5.258   9.007   8.836 -0.2709 -0.3113 -0.5829
 4024SOL     OW16093   7.230   9.108   2.626 -0.2740 -0.4413  0.1101
 4024SOL    HW116094   7.326   9.102   2.629  0.0603  2.1984 -1.6710
 4024SOL    HW216095   7.206   9.054   2.550 -0.4552 -2.4689  1.5287
 4024SOL     MW16096   7.240   9.100   2.616 -0.2534 -0.3589  0.0613
 4025SOL     OW16097   7.623   9.956   3.279  0.8784  0.0597  0.1005
 4025SOL    HW116098   7.656  10.042   3.252 -0.1409  0.4241 -0.0309
 4025SOL    HW216099   7.528   9.961   3.264  0.8859 -1.3299 -0.5630
 4025SOL     MW16100   7.615   9.969   3.274  0.7422 -0.0783 -0.0065
 4026SOL     OW16101   4.501   0.181   2.518 -0.1823 -0.3565  0.3109
 4026SOL    HW116102   4.427   0.124   2.498 -0.9125  0.2131  1.3254
 4026SOL    HW216103   4.524   0.160   2.609  0.0580  0.3942  0.4297
 4026SOL     MW16104   4.494   0.171   2.528 -0.2482 -0.1788  0.4634
 4027SOL     OW16105   4.485   0.247   3.229  0.4070  0.0321 -0.4502
 4027SOL    HW116106   4.478   0.335   3.191 -1.8698 -0.4293 -1.2885
 4027SOL    HW216107   4.464   0.189   3.156  2.9474 -1.3210 -0.1866
 4027SOL     MW16108   4.481   0.251   3.214  0.4425 -0.2121 -0.5276
 4028SOL     OW16109   6.192   0.122   6.811 -0.4342  0.3587 -0.2352
 4028SOL    HW116110   6.217   0.214   6.812 -0.3348  0.3569 -1.2234
 4028SOL    HW216111   6.275   0.074   6.808 -0.4887  0.2552 -0.0789
 4028SOL     MW16112   6.207   0.128   6.810 -0.4282  0.3445 -0.3471
 4029SOL     OW16113   5.559   1.219   7.678 -0.5174 -0.0943 -0.4388
 4029SOL    HW116114   5.510   1.241   7.757 -0.5964 -0.0047 -0.5126
 4029SOL    HW216115   5.626   1.287   7.672 -0.4680 -0.1403 -0.4117
 4029SOL     MW16116   5.562   1.231   7.688 -0.5214 -0.0884 -0.4451
 4030SOL     OW16117   5.382   9.030   4.587 -1.0981 -0.3145  0.2922
 4030SOL    HW116118   5.390   8.955   4.529 -3.8748 -0.0619 -0.5795
 4030SOL    HW216119   5.371   9.105   4.529  0.2714  0.6041  1.1617
 4030SOL     MW16120   5.382   9.030   4.572 -1.2875 -0.1569  0.2919
 4031SOL     OW16121   4.041   0.578   8.094  0.5036 -0.4980  0.4471
 4031SOL    HW116122   4.058   0.539   8.008 -1.5349 -0.2092 -0.1364
 4031SOL    HW216123   4.128   0.585   8.134  1.3974 -1.6267 -1.1427
 4031SOL     MW16124   4.055   0.574   8.088  0.3496 -0.6110  0.1546
 4032SOL     OW16125   6.460   7.709   7.012 -0.2956  0.2458 -0.3735
 4032SOL    HW116126   6.395   7.754   6.958 -0.0636  0.7146 -0.2720
 4032SOL    HW216127   6.528   7.775   7.026 -0.1527 -0.0067  0.1339
 4032SOL     MW16128   6.460   7.724   7.007 -0.2451  0.2749 -0.2915
 4033SOL     OW16129   7.381   0.080   0.753  0.1191  0.1890 -0.3903
 4033SOL    HW116130   7.291   0.107   0.731 -0.3607 -0.8827  0.1499
 4033SOL    HW216131   7.429   0.088   0.671 -0.6174  0.2449 -0.8279
 4033SOL     MW16132   7.375   0.085   0.739 -0.0446  0.0523 -0.3765
 4034SOL     OW16133   6.619   9.307   1.670  0.6313  0.4353 -0.1794
 4034SOL    HW116134   6.674   9.357   1.730  0.4884  0.7340 -0.2968
 4034SOL    HW216135   6.530   9.339   1.685  0.5347  0.2047 -0.2437
 4034SOL     MW16136   6.614   9.318   1.680  0.5991  0.4444 -0.2038
 4035SOL     OW16137   6.178   8.238   3.757  0.1324 -0.3994  0.3777
 4035SOL    HW116138   6.219   8.230   3.671 -0.1218 -0.7975  0.2905
 4035SOL    HW216139   6.251   8.236   3.819  0.2477 -1.3095  0.2331
 4035SOL     MW16140   6.193   8.237   3.754  0.1137 -0.5755  0.3465
 4036SOL     OW16141   4.081   0.612   2.916  0.0603 -0.8050  0.6882
 4036SOL    HW116142   4.053   0.557   2.842 -1.9262 -2.1319  2.3236
 4036SOL    HW216143   4.114   0.550   2.981 -1.1273 -0.0044  2.1069
 4036SOL     MW16144   4.082   0.596   2.915 -0.3668 -0.8758  1.0992
 4037SOL     OW16145   6.429   0.295   4.087  0.5047 -0.1943 -0.0762
 4037SOL    HW116146   6.423   0.270   4.179 -1.4777  0.3928  0.0038
 4037SOL    HW216147   6.342   0.276   4.052 -0.3173  3.9033 -0.6869
 4037SOL     MW16148   6.417   0.289   4.094  0.1273  0.4362 -0.1476
 4038SOL     OW16149   6.066   9.039   0.687  0.1854 -0.0868  0.4669
 4038SOL    HW116150   6.085   9.132   0.700 -0.7597  0.0524  0.9109
 4038SOL    HW216151   6.083   9.024   0.594 -0.5041  0.7410  0.1973
 4038SOL     MW16152   6.071   9.050   0.676 -0.0346  0.0433  0.4903
 4039SOL     OW16153   6.143   8.531   5.891 -0.4463 -0.1228 -0.5629
 4039SOL    HW116154   6.165   8.624   5.899  0.1029 -0.0519 -2.4066
 4039SOL    HW216155   6.048   8.528   5.894 -0.4525  0.4473 -0.0144
 4039SOL     MW16156   6.133   8.543   5.892 -0.3732 -0.0366 -0.7372
 4040SOL     OW16157   6.273   9.353   7.425 -0.1445  0.6338 -0.2852
 4040SOL    HW116158   6.333   9.373   7.498 -1.9657  0.8244  1.2240
 4040SOL    HW216159   6.327   9.364   7.346  2.3146 -1.0525  1.0409
 4040SOL     MW16160   6.289   9.357   7.424 -0.0587  0.4325  0.0963
 4041SOL     OW16161   4.473   8.862   1.404 -0.2000 -0.5749 -0.0081
 4041SOL    HW116162   4.436   8.950   1.404  1.5059  0.1969  1.5314
 4041SOL    HW216163   4.410   8.810   1.453 -1.5176 -0.4042 -1.4341
 4041SOL     MW16164   4.460   8.867   1.410 -0.1478 -0.4481  0.0072
 4042SOL     OW16165   6.636   0.259   2.064 -0.3855 -0.1200 -0.2190
 4042SOL    HW116166   6.586   0.180   2.086 -1.7043  0.8064  0.2409
 4042SOL    HW216167   6.690   0.275   2.141 -0.0498 -0.6121 -0.3472
 4042SOL     MW16168   6.637   0.251   2.078 -0.5178 -0.0615 -0.1743
 4043SOL     OW16169   5.137   9.719   5.088  0.3393  0.1242 -0.0436
 4043SOL    HW116170   5.068   9.656   5.112 -0.6145  0.8279 -0.8675
 4043SOL    HW216171   5.103   9.804   5.117  1.2486  0.3738  0.3063
 4043SOL     MW16172   5.123   9.722   5.095  0.3333  0.2525 -0.1074
 4044SOL     OW16173   6.463   9.221   8.057  0.3048  0.5743  0.4368
 4044SOL    HW116174   6.403   9.179   7.995  0.5245  1.3982 -0.3482
 4044SOL    HW216175   6.550   9.192   8.028  0.4336  1.2871  0.1024
 4044SOL     MW16176   6.466   9.211   8.045  0.3517  0.7811  0.2861
 4045SOL     OW16177   6.374   0.453  10.030 -0.0365 -0.2210  0.3087
 4045SOL    HW116178   6.331   0.372  10.057 -1.4313 -0.0687 -1.2641
 4045SOL    HW216179   6.419   0.430   9.948 -0.3306  0.5335 -0.0792
 4045SOL     MW16180   6.374   0.439  10.022 -0.2638 -0.0990  0.0448
 4046SOL     OW16181   7.849   0.864   7.538 -0.1356 -0.2998  0.2637
 4046SOL    HW116182   7.800   0.908   7.607  1.1223 -0.3537  1.2392
 4046SOL    HW216183   7.885   0.787   7.581  2.0515  0.5332  0.0582
 4046SOL     MW16184   7.848   0.860   7.553  0.3281 -0.1949  0.3673
 4047SOL     OW16185   6.077   1.397   5.523  0.1323  0.1239  0.0879
 4047SOL    HW116186   6.066   1.355   5.437  2.9763 -2.3591  0.7917
 4047SOL    HW216187   5.994   1.382   5.568 -1.0154  0.5102 -1.7768
 4047SOL     MW16188   6.064   1.389   5.517  0.3606 -0.1583 -0.0684
 4048SOL     OW16189   5.515   0.160   5.533 -0.4669 -0.2383 -0.5789
 4048SOL    HW116190   5.558   0.226   5.478 -1.8595  0.8534 -0.4093
 4048SOL    HW216191   5.430   0.198   5.554 -1.3224 -2.1086 -0.4801
 4048SOL     MW16192   5.509   0.174   5.528 -0.7695 -0.3431 -0.5428
 4049SOL     OW16193   4.782   0.793   2.491 -0.3790 -0.5697  0.3499
 4049SOL    HW116194   4.734   0.875   2.478  0.8412 -0.0759 -1.4532
 4049SOL    HW216195   4.874   0.819   2.492  0.0247 -1.8954 -0.1557
 4049SOL     MW16196   4.788   0.808   2.489 -0.1604 -0.6817  0.0392
 4050SOL     OW16197   7.651   9.020   3.853 -0.4403  0.0435 -0.3202
 4050SOL    HW116198   7.571   8.967   3.855  0.6746 -1.7084  0.5699
 4050SOL    HW216199   7.673   9.034   3.945  1.5393 -1.6062 -0.4609
 4050SOL     MW16200   7.643   9.015   3.865 -0.0238 -0.4143 -0.2193
 4051SOL     OW16201   6.607   0.390   6.377 -0.6407  0.6719  0.0505
 4051SOL    HW116202   6.657   0.436   6.310 -0.5388  0.4912  0.0026
 4051SOL    HW216203   6.526   0.441   6.385 -0.4164  1.0049  0.1839
 4051SOL     MW16204   6.603   0.403   6.369 -0.5968  0.6924  0.0620
 4052SOL     OW16205   4.671   8.386   1.861  0.4212 -0.1978 -0.5435
 4052SOL    HW116206   4.722   8.335   1.798 -0.9040 -1.3583 -0.7268
 4052SOL    HW216207   4.683   8.340   1.944 -1.6197 -1.5186 -0.9084
 4052SOL     MW16208   4.679   8.373   1.864 -0.0318 -0.5318 -0.6173
 4053SOL     OW16209   7.336   1.091   4.664 -0.1984  0.0340 -0.1428
 4053SOL    HW116210   7.358   1.175   4.624  0.1843  0.0502  0.0913
 4053SOL    HW216211   7.348   1.027   4.593 -0.1331  0.1337 -0.2219
 4053SOL     MW16212   7.341   1.093   4.649 -0.1381  0.0496 -0.1220
 4054SOL     OW16213   4.725   1.392   8.477 -0.7285 -0.1741 -0.1296
 4054SOL    HW116214   4.765   1.368   8.561 -0.8355  1.5757  0.4695
 4054SOL    HW216215   4.780   1.463   8.444 -0.4138 -1.1390 -1.8052
 4054SOL     MW16216   4.738   1.399   8.484 -0.7005 -0.0685 -0.2745
 4055SOL     OW16217   7.661   8.991   6.734 -0.5425 -0.2646  0.2351
 4055SOL    HW116218   7.610   8.926   6.686 -0.5937 -0.3738  0.4378
 4055SOL    HW216219   7.722   8.940   6.787 -0.3754 -0.1394  0.1621
 4055SOL     MW16220   7.662   8.976   6.735 -0.5269 -0.2624  0.2526
 4056SOL     OW16221   7.265   0.825   2.032 -0.2277  0.0761  0.4440
 4056SOL    HW116222   7.227   0.859   2.113 -0.7856  1.4641 -0.3595
 4056SOL    HW216223   7.359   0.834   2.044 -0.2517 -0.7958  1.3729
 4056SOL     MW16224   7.272   0.831   2.045 -0.3060  0.1455  0.4609
 4057SOL     OW16225   5.017   0.253   2.048  0.1591  0.4192  0.1021
 4057SOL    HW116226   4.924   0.231   2.053  0.3718 -0.6332 -0.4585
 4057SOL    HW216227   5.040   0.279   2.138 -0.3440 -0.6819  0.5621
 4057SOL     MW16228   5.008   0.254   2.061  0.1200  0.1293  0.0885
 4058SOL     OW16229   5.493   9.059   7.182 -0.1383  0.2723  0.6373
 4058SOL    HW116230   5.448   8.997   7.125  0.7038 -0.6357  0.9262
 4058SOL    HW216231   5.583   9.026   7.186 -0.2407  0.1435  2.7167
 4058SOL     MW16232   5.499   9.046   7.174 -0.0387  0.1328  0.9560
 4059SOL     OW16233   6.608   0.671   2.781  0.1002  0.8117  0.5104
 4059SOL    HW116234   6.673   0.735   2.811 -0.6466  1.2420  1.2640
 4059SOL    HW216235   6.651   0.625   2.709  0.6423  2.1843 -0.0818
 4059SOL     MW16236   6.623   0.673   2.776  0.0726  1.0544  0.5321
 4060SOL     OW16237   7.481   9.428   7.176 -0.4139 -0.4768 -0.0936
 4060SOL    HW116238   7.385   9.430   7.173 -0.4011  0.6415 -0.0176
 4060SOL    HW216239   7.508   9.496   7.116  0.2965  0.8367  1.6431
 4060SOL     MW16240   7.472   9.437   7.167 -0.3166 -0.1495  0.1503
 4061SOL     OW16241   6.201   9.538   5.365  0.8213 -0.3244  0.1280
 4061SOL    HW116242   6.248   9.618   5.343  0.7328 -0.0541  0.9128
 4061SOL    HW216243   6.164   9.508   5.281 -0.3220  1.2033  0.0418
 4061SOL     MW16244   6.202   9.545   5.351  0.6555 -0.0824  0.2220
 4062SOL     OW16245   5.766   0.851   1.311  0.7570  0.1567  0.5278
 4062SOL    HW116246   5.775   0.778   1.372  0.1068  0.3351  0.8409
 4062SOL    HW216247   5.676   0.881   1.322  0.2173 -0.5769 -1.3846
 4062SOL     MW16248   5.755   0.845   1.321  0.5969  0.0820  0.3125
 4063SOL     OW16249   6.950   1.301   6.511  0.0321 -0.7009 -0.2029
 4063SOL    HW116250   6.965   1.274   6.420 -0.6499 -2.7249  0.2216
 4063SOL    HW216251   6.988   1.231   6.563 -2.6292 -1.3819  0.9930
 4063SOL     MW16252   6.957   1.288   6.506 -0.4179 -1.0649  0.0151
 4064SOL     OW16253   6.097   1.447   0.139  0.2211 -0.5991  0.3704
 4064SOL    HW116254   6.087   1.528   0.089 -0.0807 -1.3603 -0.8515
 4064SOL    HW216255   6.083   1.377   0.075  3.4001 -1.6940  0.6714
 4064SOL     MW16256   6.094   1.448   0.124  0.6083 -0.8489  0.2464
 4065SOL     OW16257   6.973   0.475   2.259  0.3054  0.4339 -0.6336
 4065SOL    HW116258   6.897   0.421   2.280  0.2487  0.4408 -0.8180
 4065SOL    HW216259   7.025   0.475   2.339 -0.1374  0.8358 -0.3361
 4065SOL     MW16260   6.970   0.468   2.273  0.2382  0.4889 -0.6184
 4066SOL     OW16261   6.889   8.386   6.611 -0.1148 -0.0054 -0.4479
 4066SOL    HW116262   6.902   8.321   6.681 -0.2835 -1.8831 -2.0561
 4066SOL    HW216263   6.971   8.383   6.562 -0.7838 -0.3299 -1.5642
 4066SOL     MW16264   6.902   8.377   6.614 -0.2275 -0.3018 -0.8145
 4067SOL     OW16265   6.432   7.885   5.196 -0.1026  0.1694  0.1252
 4067SOL    HW116266   6.390   7.802   5.218 -0.4396  0.0630 -0.8557
 4067SOL    HW216267   6.518   7.880   5.238 -1.0006  0.3682  2.1035
 4067SOL     MW16268   6.438   7.873   5.204 -0.2688  0.1818  0.2594
 4068SOL     OW16269   7.067   9.935   2.959 -0.1839 -0.5188  0.1252
 4068SOL    HW116270   7.022   9.945   2.875 -0.4811  0.2648  0.3682
 4068SOL    HW216271   7.135  10.003   2.958 -0.9329  0.2655  0.9833
 4068SOL     MW16272   7.070   9.945   2.948 -0.3247 -0.3078  0.2734
 4069SOL     OW16273   7.836   9.711   8.874 -0.0452 -0.4305 -0.0257
 4069SOL    HW116274   7.878   9.746   8.952  0.7451  1.4685 -1.2421
 4069SOL    HW216275   7.871   9.622   8.865  2.0146  0.3228  0.2173
 4069SOL     MW16276   7.846   9.704   8.883  0.3384 -0.0736 -0.1567
 4070SOL     OW16277   7.948  10.038   1.540  0.1444  0.0163  0.4562
 4070SOL    HW116278   7.874  10.001   1.588  0.8138  0.2100  1.6582
 4070SOL    HW216279   7.975   9.968   1.480 -0.4844 -0.3452  0.5906
 4070SOL     MW16280   7.942  10.024   1.538  0.1498 -0.0063  0.6361
 4071SOL     OW16281   5.446   0.564   2.279  0.0648 -0.0577  0.6933
 4071SOL    HW116282   5.453   0.535   2.188 -0.5825  0.0207  0.6122
 4071SOL    HW216283   5.525   0.529   2.321  0.2049 -0.3780  0.1818
 4071SOL     MW16284   5.458   0.555   2.272 -0.0035 -0.0902  0.6135
 4072SOL     OW16285   3.697   9.270   7.200 -0.1533 -0.0509 -0.2970
 4072SOL    HW116286   3.673   9.203   7.137 -0.6130 -0.7039  0.5443
 4072SOL    HW216287   3.679   9.353   7.156  1.6030 -0.4195 -1.8101
 4072SOL     MW16288   3.691   9.272   7.186  0.0212 -0.1884 -0.3874
 4073SOL     OW16289   4.521   0.878   8.225 -0.1610  0.1141  0.5827
 4073SOL    HW116290   4.610   0.887   8.258  0.3909 -0.0754 -0.7658
 4073SOL    HW216291   4.486   0.967   8.224  0.6020  0.4211 -0.3892
 4073SOL     MW16292   4.528   0.891   8.229  0.0159  0.1299  0.2705
 4074SOL     OW16293   7.733   0.351   6.357 -0.1619  0.4014  0.5063
 4074SOL    HW116294   7.744   0.405   6.279 -3.0948  2.0718  1.1179
 4074SOL    HW216295   7.747   0.412   6.430 -1.8738 -0.0155  1.2183
 4074SOL     MW16296   7.737   0.367   6.356 -0.7870  0.5701  0.6845
 4075SOL     OW16297   6.579   8.464   1.980  0.1014 -0.0192 -0.1883
 4075SOL    HW116298   6.563   8.399   2.049  1.4493  0.2988  0.4665
 4075SOL    HW216299   6.645   8.424   1.924 -1.0386 -0.3056 -1.3823
 4075SOL     MW16300   6.585   8.450   1.982  0.1294 -0.0149 -0.2609
 4076SOL     OW16301   4.787  10.020   4.741  0.5140  0.1815  0.1617
 4076SOL    HW116302   4.738  10.072   4.804  0.1890  2.1946 -1.6052
 4076SOL    HW216303   4.729  10.013   4.665  1.6177 -0.3839 -0.6674
 4076SOL     MW16304   4.773  10.026   4.739  0.6188  0.3763 -0.1876
 4077SOL     OW16305   4.944   9.262   7.641 -0.2020 -0.1009  0.4873
 4077SOL    HW116306   4.879   9.196   7.615  0.0782  0.4416 -1.8826
 4077SOL    HW216307   5.006   9.214   7.696 -2.4814 -0.6523  2.8045
 4077SOL     MW16308   4.944   9.246   7.645 -0.4710 -0.1021  0.4802
 4078SOL     OW16309   6.943   0.170   8.725 -0.2539  0.9020 -0.2645
 4078SOL    HW116310   7.008   0.208   8.784 -0.8776 -0.2693  1.2311
 4078SOL    HW216311   6.964   0.207   8.639  1.7361  1.3293  0.3687
 4078SOL     MW16312   6.954   0.180   8.721 -0.0700  0.8019  0.0220
 4079SOL     OW16313   4.447  10.165   0.793  0.2437 -0.2946  0.3137
 4079SOL    HW116314   4.352  10.156   0.795  0.3805 -2.5947 -0.2860
 4079SOL    HW216315   4.477  10.115   0.869  0.9333  2.9535  2.3512
 4079SOL     MW16316   4.438  10.157   0.803  0.3549 -0.1670  0.5072
 4080SOL     OW16317   7.258   9.033   9.637  0.0371 -0.3317 -0.0553
 4080SOL    HW116318   7.351   9.047   9.656 -0.2502  0.4783  0.8502
 4080SOL    HW216319   7.250   9.046   9.543  0.5548  1.4173  0.1003
 4080SOL     MW16320   7.269   9.037   9.627  0.0681  0.0127  0.0875
 4081SOL     OW16321   6.838   0.297   4.356 -0.1790 -0.1081  0.3410
 4081SOL    HW116322   6.782   0.227   4.321 -1.6978  1.5310 -0.6478
 4081SOL    HW216323   6.845   0.277   4.449 -0.4238 -1.6631  0.0645
 4081SOL     MW16324   6.831   0.285   4.364 -0.4163 -0.0968  0.1707
 4082SOL     OW16325   6.655   0.426   8.589 -0.2015 -0.1459  0.5171
 4082SOL    HW116326   6.568   0.464   8.580  0.4348  1.3600  0.4698
 4082SOL    HW216327   6.667   0.417   8.684  0.7357  2.5637  0.7483
 4082SOL     MW16328   6.645   0.430   8.600  0.0103  0.4214  0.5418
 4083SOL     OW16329   7.435   9.487   4.295  0.1392  0.7089  0.0161
 4083SOL    HW116330   7.353   9.479   4.247  0.6369  1.3890 -0.9775
 4083SOL    HW216331   7.419   9.557   4.359  0.1698  1.3781 -0.6954
 4083SOL     MW16332   7.422   9.495   4.297  0.2103  0.8905 -0.2134
 4084SOL     OW16333   6.874   1.801   6.905 -0.8648  0.0619  0.1772
 4084SOL    HW116334   6.786   1.781   6.936 -1.3210 -0.0283 -1.1255
 4084SOL    HW216335   6.864   1.817   6.812  0.0079  3.1440  0.5222
 4084SOL     MW16336   6.861   1.800   6.897 -0.8088  0.4645  0.0483
 4085SOL     OW16337   4.695   8.951   4.380  0.2724 -0.5957 -0.2396
 4085SOL    HW116338   4.755   8.894   4.332  1.2482  1.5040 -1.6356
 4085SOL    HW216339   4.658   9.008   4.313  0.7170  1.6073  1.3136
 4085SOL     MW16340   4.698   8.951   4.365  0.4635 -0.0167 -0.2184
 4086SOL     OW16341   7.713   0.658   9.738  0.3090  0.3092  0.2667
 4086SOL    HW116342   7.654   0.638   9.665 -0.5063 -0.0440  0.9936
 4086SOL    HW216343   7.667   0.726   9.787  0.0448 -0.6151  1.3498
 4086SOL     MW16344   7.699   0.664   9.735  0.1637  0.1373  0.5103
 4087SOL     OW16345   5.996   1.290  10.109 -0.1944  0.1184  0.2409
 4087SOL    HW116346   5.993   1.198  10.135  0.7868  0.3856  1.3846
 4087SOL    HW216347   6.024   1.288  10.017  1.6295 -0.6792  0.7714
 4087SOL     MW16348   5.999   1.277  10.100  0.1831  0.0470  0.4662
 4088SOL     OW16349   6.546   7.942   0.613 -0.3093  0.0529 -0.0990
 4088SOL    HW116350   6.606   7.907   0.679  0.1681 -0.0056 -0.5555
 4088SOL    HW216351   6.474   7.980   0.663  0.6541  1.1389  0.5097
 4088SOL     MW16352   6.545   7.942   0.628 -0.1154  0.1912 -0.0786
 4089SOL     OW16353   5.603   9.901   1.446 -0.3212  0.7193  0.4082
 4089SOL    HW116354   5.683   9.870   1.489  0.1043 -0.0116 -0.8454
 4089SOL    HW216355   5.532   9.871   1.503  0.2521  0.5664  1.0566
 4089SOL     MW16356   5.604   9.893   1.459 -0.1868  0.6004  0.3267
 4090SOL     OW16357   4.448   0.337   7.132  0.3720  0.3784  0.4259
 4090SOL    HW116358   4.407   0.415   7.095  0.0956 -0.1065 -0.3282
 4090SOL    HW216359   4.412   0.265   7.081 -0.3260 -0.3759  1.9425
 4090SOL     MW16360   4.438   0.338   7.120  0.2409  0.2116  0.5285
 4091SOL     OW16361   7.748   8.365   4.299 -0.3168  0.1070 -0.0975
 4091SOL    HW116362   7.653   8.356   4.311 -0.0778 -0.7799  1.3266
 4091SOL    HW216363   7.786   8.293   4.349  1.2464  2.2770  2.1024
 4091SOL     MW16364   7.740   8.354   4.308 -0.0743  0.2797  0.3902
 4092SOL     OW16365   7.936   9.211   4.573  0.1952  0.2690  0.0063
 4092SOL    HW116366   7.953   9.250   4.488 -1.0679  0.5731 -0.1370
 4092SOL    HW216367   7.846   9.239   4.594  0.1127 -0.6514  0.9581
 4092SOL     MW16368   7.926   9.220   4.565  0.0141  0.1861  0.1151
 4093SOL     OW16369   5.080   0.028   3.457  0.1225 -0.1439  0.8990
 4093SOL    HW116370   5.129   0.107   3.434  0.9940 -0.5751  1.2538
 4093SOL    HW216371   5.144  -0.028   3.500 -0.4513 -1.1134  0.5055
 4093SOL     MW16372   5.095   0.031   3.460  0.1626 -0.3324  0.8938
 4094SOL     OW16373   5.334   0.665   6.578 -0.4510  1.0963 -0.0073
 4094SOL    HW116374   5.397   0.722   6.623  0.1973  0.5549 -0.2277
 4094SOL    HW216375   5.364   0.662   6.487 -1.7950  2.2450 -0.5390
 4094SOL     MW16376   5.346   0.672   6.572 -0.5447  1.1780 -0.1086
 4095SOL     OW16377   7.463   9.706   8.583 -0.0127 -0.0458 -0.3639
 4095SOL    HW116378   7.446   9.762   8.507 -1.2315  0.0233 -0.0499
 4095SOL    HW216379   7.439   9.618   8.555  0.4916 -0.1886 -0.3697
 4095SOL     MW16380   7.458   9.702   8.569 -0.1089 -0.0557 -0.3225
 4096SOL     OW16381   4.043   0.400   1.533  0.0317  0.7970  0.6082
 4096SOL    HW116382   4.133   0.384   1.505 -0.2243  2.5678 -1.4810
 4096SOL    HW216383   3.989   0.360   1.465 -0.7141  1.4741  0.7865
 4096SOL     MW16384   4.048   0.393   1.520 -0.1031  1.1264  0.3510
 4097SOL     OW16385   4.707   1.184   6.608 -0.0567 -0.1577 -0.3400
 4097SOL    HW116386   4.721   1.244   6.535 -1.2179  1.4743  0.7116
 4097SOL    HW216387   4.622   1.210   6.645  1.3099  0.4277  2.7619
 4097SOL     MW16388   4.698   1.196   6.603 -0.0291  0.1407  0.2190
 4098SOL     OW16389   4.186   8.336   9.219  0.2811  0.3349  0.2651
 4098SOL    HW116390   4.175   8.397   9.146 -0.9641 -0.4382 -0.2395
 4098SOL    HW216391   4.239   8.265   9.182 -0.5334 -0.1622  0.0207
 4098SOL     MW16392   4.192   8.334   9.204  0.0039  0.1640  0.1643
 4099SOL     OW16393   7.270   0.010   2.303 -0.1206  0.1020  0.7533
 4099SOL    HW116394   7.247   0.086   2.248  0.2360  0.7694  1.5065
 4099SOL    HW216395   7.342   0.041   2.358  1.1844 -1.3087 -0.0843
 4099SOL     MW16396   7.276   0.025   2.303  0.1030  0.0020  0.7420
 4100SOL     OW16397   4.576   9.646   2.684 -0.3157 -0.6603  0.1240
 4100SOL    HW116398   4.607   9.711   2.621 -3.6562  1.6170  0.6039
 4100SOL    HW216399   4.557   9.568   2.631 -0.4495  0.2744 -1.2500
 4100SOL     MW16400   4.578   9.644   2.668 -0.7833 -0.2280  0.0037
 4101SOL     OW16401   6.101   0.977   0.311 -0.3766  0.1626  0.5761
 4101SOL    HW116402   6.184   1.018   0.334 -0.2349 -0.2246  0.7521
 4101SOL    HW216403   6.125   0.896   0.266 -0.6547  0.4000 -0.0251
 4101SOL     MW16404   6.115   0.971   0.308 -0.3950  0.1425  0.5189
 4102SOL     OW16405   7.659   0.379   4.940 -0.4083 -0.2975  0.5692
 4102SOL    HW116406   7.661   0.387   5.035 -1.8516  0.3011  0.5721
 4102SOL    HW216407   7.643   0.468   4.909  0.1710 -0.4686 -0.2455
 4102SOL     MW16408   7.657   0.392   4.949 -0.5246 -0.2400  0.4599
 4103SOL     OW16409   5.397   1.755   4.290  0.4638 -0.6173  0.0576
 4103SOL    HW116410   5.406   1.791   4.202  0.1561 -0.0539  0.2462
 4103SOL    HW216411   5.310   1.714   4.290  0.6546 -1.0231 -0.0390
 4103SOL     MW16412   5.386   1.754   4.278  0.4480 -0.5961  0.0700
 4104SOL     OW16413   5.002   9.793   4.091  0.0544  0.0739 -0.0595
 4104SOL    HW116414   5.071   9.803   4.026 -0.1125 -0.6354 -0.3653
 4104SOL    HW216415   5.033   9.723   4.148  0.1628  0.6379  0.5837
 4104SOL     MW16416   5.016   9.785   4.090  0.0465  0.0543 -0.0141
 4105SOL     OW16417   5.152   0.750   2.839 -0.0735 -0.1182 -0.4232
 4105SOL    HW116418   5.068   0.786   2.868  0.9155  1.1178  1.0834
 4105SOL    HW216419   5.161   0.669   2.889 -0.0652  0.0969 -0.0738
 4105SOL     MW16420   5.142   0.744   2.850  0.0607  0.0771 -0.1734
 4106SOL     OW16421   6.070   8.017   8.786  0.0596  0.0673  0.1475
 4106SOL    HW116422   6.164   8.014   8.803  0.3476  1.0390 -1.0476
 4106SOL    HW216423   6.057   8.101   8.741 -1.5683  0.4933  1.3279
 4106SOL     MW16424   6.081   8.028   8.782 -0.1207  0.2554  0.1455
 4107SOL     OW16425   7.634   0.536   2.135 -1.0953 -0.2971 -0.0684
 4107SOL    HW116426   7.569   0.585   2.185 -0.2149 -1.4576  2.3790
 4107SOL    HW216427   7.717   0.550   2.181  0.0089 -0.5629 -1.8632
 4107SOL     MW16428   7.637   0.544   2.148 -0.8282 -0.4891  0.0194
 4108SOL     OW16429   7.280   1.282   7.516 -0.0514 -0.3286  0.5519
 4108SOL    HW116430   7.269   1.190   7.493  0.6720 -0.5658  1.1060
 4108SOL    HW216431   7.370   1.288   7.549 -0.6808  0.2118  2.2656
 4108SOL     MW16432   7.291   1.270   7.517 -0.0388 -0.2878  0.8571
 4109SOL     OW16433   4.556   0.529   3.384  0.3136  0.2967  0.3963
 4109SOL    HW116434   4.586   0.492   3.466  0.1876 -1.0426 -0.1414
 4109SOL    HW216435   4.627   0.512   3.322  1.4850  3.4010  0.6923
 4109SOL     MW16436   4.569   0.522   3.387  0.4543  0.5342  0.3638
 4110SOL     OW16437   4.584   7.841   2.196  0.3841  0.0954  0.4166
 4110SOL    HW116438   4.537   7.759   2.209  1.3823 -0.2579  2.3451
 4110SOL    HW216439   4.553   7.898   2.267 -0.8102  1.7009 -1.2913
 4110SOL     MW16440   4.574   7.838   2.208  0.3577  0.2639  0.4463
 4111SOL     OW16441   6.220   9.594   1.081  0.1833 -0.7205 -0.1945
 4111SOL    HW116442   6.220   9.528   1.151 -0.2242  1.3138  1.8382
 4111SOL    HW216443   6.307   9.633   1.085 -0.9064  1.8013  1.6931
 4111SOL     MW16444   6.232   9.590   1.091 -0.0182 -0.1073  0.3331
 4112SOL     OW16445   7.191   9.914   4.979 -0.2745 -0.6261  0.2983
 4112SOL    HW116446   7.280   9.900   4.949 -0.3851 -3.0647  0.9416
 4112SOL    HW216447   7.148   9.960   4.907  1.2735 -0.0894 -0.3174
 4112SOL     MW16448   7.197   9.918   4.965 -0.0810 -0.8821  0.3020
 4113SOL     OW16449   4.995   0.142   4.980 -0.2582 -0.6889  0.2172
 4113SOL    HW116450   4.907   0.171   5.001  0.3923  1.5504  0.0626
 4113SOL    HW216451   5.051   0.217   4.999  1.3131 -1.1849 -2.0097
 4113SOL     MW16452   4.991   0.156   4.985  0.0408 -0.4542 -0.1033
 4114SOL     OW16453   7.144   1.306   8.804 -0.2436 -0.0696  0.0983
 4114SOL    HW116454   7.145   1.286   8.711  0.5154  0.2400  0.0307
 4114SOL    HW216455   7.062   1.353   8.818 -0.8149 -0.9531 -0.2265
 4114SOL     MW16456   7.133   1.310   8.793 -0.2183 -0.1468  0.0455
 4115SOL     OW16457   4.458   8.871   5.989  0.3961  0.0997 -0.4322
 4115SOL    HW116458   4.455   8.815   6.067  0.1692 -0.2787 -0.7077
 4115SOL    HW216459   4.426   8.956   6.018 -0.9549 -0.3924 -0.4075
 4115SOL     MW16460   4.453   8.875   6.003  0.1837 -0.0175 -0.4659
 4116SOL     OW16461   4.132   0.399   7.890 -0.5140  0.1870 -0.6423
 4116SOL    HW116462   4.183   0.421   7.812  1.3990  1.0366  0.7724
 4116SOL    HW216463   4.058   0.348   7.857  1.1904 -1.0378 -2.8317
 4116SOL     MW16464   4.129   0.395   7.875 -0.0272  0.1365 -0.7465
 4117SOL     OW16465   3.819   0.315   3.160  0.3755 -0.1355 -0.2150
 4117SOL    HW116466   3.823   0.364   3.077  0.5788 -0.1066 -0.1893
 4117SOL    HW216467   3.734   0.336   3.196  1.2580  1.8939  0.8246
 4117SOL     MW16468   3.808   0.324   3.154  0.5216  0.1415 -0.0717
 4118SOL     OW16469   5.006   8.918   5.649  0.1387 -0.2125 -0.2616
 4118SOL    HW116470   4.994   8.916   5.554 -0.3693  0.5579 -0.2247
 4118SOL    HW216471   4.927   8.877   5.683  0.4053 -0.6553 -0.1741
 4118SOL     MW16472   4.994   8.912   5.641  0.1062 -0.1684 -0.2448
 4119SOL     OW16473   5.516   1.076   9.201 -0.3558  0.0144  0.1152
 4119SOL    HW116474   5.441   1.125   9.167 -0.4030  0.0269  0.2384
 4119SOL    HW216475   5.484   0.987   9.211 -0.9821  0.4224  2.1354
 4119SOL     MW16476   5.502   1.071   9.198 -0.4465  0.0710  0.4037
 4120SOL     OW16477   5.121   0.872   7.742  0.2488  0.0750 -0.4351
 4120SOL    HW116478   5.132   0.956   7.786 -1.0390  0.3450 -0.5954
 4120SOL    HW216479   5.033   0.875   7.706  0.3174 -1.2069 -0.7617
 4120SOL     MW16480   5.111   0.884   7.743  0.0847 -0.0612 -0.5006
 4121SOL     OW16481   6.109   8.131   9.030 -0.1973  0.7144  0.3013
 4121SOL    HW116482   6.185   8.175   8.992  0.8080 -0.0809  1.2914
 4121SOL    HW216483   6.070   8.083   8.957  0.1745  1.2413 -0.2550
 4121SOL     MW16484   6.114   8.130   9.015 -0.0119  0.6783  0.3597
 4122SOL     OW16485   6.041   9.823   2.942  0.5246  0.4733  0.0233
 4122SOL    HW116486   6.128   9.853   2.914  0.7317 -0.2849 -0.1586
 4122SOL    HW216487   6.051   9.729   2.956  0.0725  0.5935  1.3126
 4122SOL     MW16488   6.054   9.814   2.940  0.4916  0.3875  0.1723
 4123SOL     OW16489   7.378   9.293   6.103  0.1471  0.1890  0.5874
 4123SOL    HW116490   7.390   9.383   6.071  2.2837  0.1338  1.0796
 4123SOL    HW216491   7.374   9.303   6.199  0.3767 -0.2303  0.6403
 4123SOL     MW16492   7.379   9.307   6.112  0.4656  0.1251  0.6607
 4124SOL     OW16493   6.663   8.279   7.278 -0.3174 -0.1775 -0.3875
 4124SOL    HW116494   6.604   8.337   7.325  0.2989  0.3611 -0.2704
 4124SOL    HW216495   6.627   8.273   7.190 -0.6918 -0.0679 -0.2416
 4124SOL     MW16496   6.650   8.286   7.272 -0.2849 -0.0903 -0.3521
 4125SOL     OW16497   7.040   0.017   5.610 -0.1807  0.2930  0.6492
 4125SOL    HW116498   7.128   0.044   5.637  0.6301 -0.9313 -0.6187
 4125SOL    HW216499   7.000   0.098   5.577  1.3032  0.4812 -0.8248
 4125SOL     MW16500   7.046   0.032   5.609  0.1281  0.1535  0.2802
 4126SOL     OW16501   6.909   8.091   0.683 -0.1884  0.2049  0.2780
 4126SOL    HW116502   6.934   8.036   0.758  0.8533  0.7169  0.3293
 4126SOL    HW216503   6.969   8.165   0.687 -2.7104  2.3336  1.2731
 4126SOL     MW16504   6.921   8.093   0.694 -0.3876  0.5603  0.4188
 4127SOL     OW16505   4.539   8.252   0.241 -0.2301 -0.4910  0.0713
 4127SOL    HW116506   4.521   8.158   0.244 -1.1926 -0.3217 -0.0301
 4127SOL    HW216507   4.466   8.288   0.191 -1.1367  0.5898  2.0803
 4127SOL     MW16508   4.527   8.244   0.235 -0.4817 -0.3228  0.3281
 4128SOL     OW16509   6.747   9.755   3.208  0.5640  0.6089 -0.1099
 4128SOL    HW116510   6.761   9.666   3.242 -0.8138 -0.0075 -1.0498
 4128SOL    HW216511   6.715   9.741   3.119 -3.0657  1.8729  0.8321
 4128SOL     MW16512   6.744   9.741   3.200 -0.1099  0.6960 -0.1096
 4129SOL     OW16513   5.922   7.922   3.746 -0.0037 -0.4518 -0.1484
 4129SOL    HW116514   5.933   7.994   3.684  3.1155 -1.5122 -1.0120
 4129SOL    HW216515   5.943   7.960   3.831 -2.0592  0.4732 -0.0129
 4129SOL     MW16516   5.927   7.936   3.749  0.1395 -0.4700 -0.2464
 4130SOL     OW16517   7.302   0.572   0.298 -0.3216 -0.4446  0.4272
 4130SOL    HW116518   7.212   0.562   0.266 -0.2206 -0.8638  0.2724
 4130SOL    HW216519   7.322   0.665   0.283 -0.1088 -0.7113 -1.2054
 4130SOL     MW16520   7.292   0.583   0.292 -0.2793 -0.5369  0.1866
 4131SOL     OW16521   7.367   0.466   0.539  0.0684 -0.0835 -0.9879
 4131SOL    HW116522   7.339   0.494   0.452  1.9335  0.5988 -1.4085
 4131SOL    HW216523   7.460   0.486   0.542  0.2321 -0.9231  0.8561
 4131SOL     MW16524   7.376   0.473   0.527  0.3414 -0.1047 -0.7963
 4132SOL     OW16525   5.356   7.688   1.336  0.0798 -0.1667 -0.5871
 4132SOL    HW116526   5.396   7.670   1.421  0.9975 -1.7938 -1.3270
 4132SOL    HW216527   5.295   7.760   1.354 -1.2982 -1.7934  1.8811
 4132SOL     MW16528   5.353   7.695   1.350  0.0178 -0.6046 -0.3545
 4133SOL     OW16529   4.196   0.448   6.811 -0.0204 -0.1044  0.3922
 4133SOL    HW116530   4.206   0.353   6.808  1.7989 -0.0730  2.5251
 4133SOL    HW216531   4.203   0.476   6.720  3.0708 -1.7771 -0.0378
 4133SOL     MW16532   4.199   0.439   6.799  0.6404 -0.3253  0.6214
 4134SOL     OW16533   7.061   9.716   1.713  0.0315 -0.3133 -0.2526
 4134SOL    HW116534   7.116   9.751   1.643 -0.9193 -0.7811 -1.2535
 4134SOL    HW216535   7.038   9.628   1.685 -0.3990 -0.4960  0.6258
 4134SOL     MW16536   7.065   9.709   1.700 -0.1544 -0.4008 -0.2691
 4135SOL     OW16537   4.598   0.267   8.043  0.4448  0.2856  0.3093
 4135SOL    HW116538   4.649   0.196   8.002  2.3230  1.6742  0.1032
 4135SOL    HW216539   4.510   0.231   8.052  1.1772 -1.8416 -0.3757
 4135SOL     MW16540   4.593   0.252   8.039  0.7962  0.1862  0.1894
 4136SOL     OW16541   7.132   9.233   8.332 -0.2544 -0.0492 -0.1119
 4136SOL    HW116542   7.071   9.203   8.400 -0.9526 -0.0179 -0.7081
 4136SOL    HW216543   7.147   9.326   8.352 -0.9368  0.1163 -0.3421
 4136SOL     MW16544   7.126   9.242   8.344 -0.4402 -0.0227 -0.2231
 4137SOL     OW16545   7.709   9.044  10.037 -0.4886  0.2172 -0.0178
 4137SOL    HW116546   7.616   9.062  10.026 -0.2661  0.9191 -0.8800
 4137SOL    HW216547   7.751   9.130  10.038  0.1098 -0.0691  0.8555
 4137SOL     MW16548   7.702   9.058  10.035 -0.3781  0.2732 -0.0163
 4138SOL     OW16549   5.392   9.459   2.496  0.0047 -0.5896  0.1080
 4138SOL    HW116550   5.349   9.423   2.418 -2.1576  0.1262  0.9091
 4138SOL    HW216551   5.482   9.425   2.491  0.1730 -0.0108 -3.0454
 4138SOL     MW16552   5.399   9.450   2.485 -0.2636 -0.4154 -0.2086
 4139SOL     OW16553   4.899   9.153   5.138 -0.5499  0.7117  0.0543
 4139SOL    HW116554   4.868   9.067   5.168  0.5432  0.5677  0.8585
 4139SOL    HW216555   4.832   9.183   5.077 -0.8777 -0.7853 -0.3669
 4139SOL     MW16556   4.886   9.145   5.134 -0.4469  0.4909  0.1058
 4140SOL     OW16557   6.456   0.513   1.240 -0.0336  0.1142 -0.7726
 4140SOL    HW116558   6.429   0.595   1.282 -0.5828  0.1281 -1.1445
 4140SOL    HW216559   6.408   0.511   1.158  1.3743  0.3147 -1.6449
 4140SOL     MW16560   6.446   0.524   1.234  0.0819  0.1430 -0.9401
 4141SOL     OW16561   4.166   8.411   6.153 -1.1385 -0.1427  0.2661
 4141SOL    HW116562   4.189   8.332   6.104  0.2352  0.0050  0.6308
 4141SOL    HW216563   4.219   8.406   6.233 -3.2122 -0.3037  1.7100
 4141SOL     MW16564   4.176   8.399   6.157 -1.2327 -0.1445  0.5095
 4142SOL     OW16565   6.737  10.108   4.065  0.2307 -0.2727 -0.0426
 4142SOL    HW116566   6.715  10.137   4.154 -1.8052  0.7881 -0.8156
 4142SOL    HW216567   6.713  10.182   4.009 -0.6308 -1.7058 -1.6635
 4142SOL     MW16568   6.730  10.122   4.070 -0.1592 -0.3228 -0.3648
 4143SOL     OW16569   6.243   0.226   2.682 -0.6314 -0.1119  0.4051
 4143SOL    HW116570   6.176   0.247   2.617 -0.4805 -0.5761  0.0964
 4143SOL    HW216571   6.216   0.273   2.761  0.4020  2.3618 -0.6125
 4143SOL     MW16572   6.230   0.235   2.684 -0.4720  0.1586  0.2266
 4144SOL     OW16573   4.092   8.853   1.350 -0.3254 -0.3612 -0.0719
 4144SOL    HW116574   4.164   8.895   1.303 -2.0014  0.4539 -2.0740
 4144SOL    HW216575   4.091   8.763   1.317 -0.2811 -0.3457 -0.1133
 4144SOL     MW16576   4.102   8.847   1.339 -0.5450 -0.2494 -0.3469
 4145SOL     OW16577   6.682   0.038   4.322  0.3252  0.7868  0.3408
 4145SOL    HW116578   6.665  -0.023   4.394 -0.6252 -0.7200 -1.0837
 4145SOL    HW216579   6.606   0.096   4.322  1.5655  2.5532  2.1543
 4145SOL     MW16580   6.670   0.038   4.332  0.3642  0.8217  0.3931
 4146SOL     OW16581   6.018   1.900   4.916 -0.4016 -0.2402 -0.1664
 4146SOL    HW116582   5.936   1.851   4.920 -1.5389  1.3566 -2.3004
 4146SOL    HW216583   6.015   1.958   4.992 -0.5731 -1.1064  0.5168
 4146SOL     MW16584   6.007   1.901   4.927 -0.5777 -0.1419 -0.3616
 4147SOL     OW16585   6.203   9.979   1.004  0.1076 -0.4262  0.3680
 4147SOL    HW116586   6.144  10.054   1.009  1.9542  1.1252  0.1463
 4147SOL    HW216587   6.156   9.915   0.950 -1.9516  0.0995  1.4348
 4147SOL     MW16588   6.189   9.980   0.997  0.0790 -0.1467  0.4817
 4148SOL     OW16589   6.540   8.257   7.023 -0.0980 -0.3823 -0.0387
 4148SOL    HW116590   6.464   8.199   7.022  0.3305 -1.0218  1.4593
 4148SOL    HW216591   6.604   8.215   6.965  0.6259 -2.0749  1.8740
 4148SOL     MW16592   6.539   8.244   7.015  0.0571 -0.6962  0.4203
 4149SOL     OW16593   7.179   0.280   4.915  0.6808 -0.1938  0.4324
 4149SOL    HW116594   7.144   0.224   4.846  0.3450  0.3139  0.1771
 4149SOL    HW216595   7.153   0.237   4.996  0.2678 -0.3165  0.2403
 4149SOL     MW16596   7.171   0.267   4.917  0.5800 -0.1420  0.3722
 4150SOL     OW16597   4.246  -0.026   3.989 -0.1942 -0.0898 -0.0918
 4150SOL    HW116598   4.179  -0.020   3.921 -2.1241 -2.6775  1.3853
 4150SOL    HW216599   4.287   0.060   3.990 -2.6936  1.2664 -1.8935
 4150SOL     MW16600   4.242  -0.014   3.980 -0.7903 -0.2555 -0.1355
 4151SOL     OW16601   4.958   0.984   4.367  0.6553 -0.3902 -0.0178
 4151SOL    HW116602   4.880   1.004   4.419 -0.3341  0.5990 -1.7943
 4151SOL    HW216603   5.019   0.944   4.430 -1.0714 -0.7364  1.5219
 4151SOL     MW16604   4.956   0.981   4.383  0.2898 -0.3036 -0.0497
 4152SOL     OW16605   6.222   0.901   3.298 -0.3087  0.0877 -0.0826
 4152SOL    HW116606   6.274   0.821   3.285 -0.5804 -0.1328  0.1624
 4152SOL    HW216607   6.176   0.914   3.216 -0.5809 -0.2437  0.0127
 4152SOL     MW16608   6.223   0.892   3.285 -0.3819  0.0135 -0.0368
 4153SOL     OW16609   6.483   9.313   0.859  0.2622  0.0856  0.5064
 4153SOL    HW116610   6.556   9.350   0.810  0.4932 -1.1641 -0.1377
 4153SOL    HW216611   6.412   9.376   0.849  1.4484  1.7284  1.8229
 4153SOL     MW16612   6.484   9.326   0.851  0.4529  0.1385  0.5969
 4154SOL     OW16613   4.459  10.038   3.504  0.3419  0.0673 -0.0344
 4154SOL    HW116614   4.466   9.944   3.485  0.9601 -0.0305  0.6241
 4154SOL    HW216615   4.365  10.055   3.506  0.2206 -0.3551 -0.9926
 4154SOL     MW16616   4.447  10.028   3.501  0.4088 -0.0027 -0.0747
 4155SOL     OW16617   4.769   8.225   4.432 -0.1278  0.1373 -0.2365
 4155SOL    HW116618   4.688   8.224   4.380  0.1863 -0.0282 -0.7327
 4155SOL    HW216619   4.824   8.291   4.389  0.0637  0.1362  0.0050
 4155SOL     MW16620   4.765   8.234   4.419 -0.0598  0.1149 -0.2708
 4156SOL     OW16621   3.987   8.603   4.448 -0.0090 -0.1986 -0.3564
 4156SOL    HW116622   4.067   8.608   4.499 -1.0829 -0.6520  1.4611
 4156SOL    HW216623   4.014   8.564   4.364  1.5330 -0.9801  0.4653
 4156SOL     MW16624   4.001   8.598   4.443  0.0540 -0.3648 -0.0012
 4157SOL     OW16625   4.529   9.552   7.252 -0.1985  0.4031 -0.3273
 4157SOL    HW116626   4.571   9.549   7.338 -1.6124 -0.5170  0.3653
 4157SOL    HW216627   4.439   9.577   7.270 -0.4785  0.3428 -1.5656
 4157SOL     MW16628   4.523   9.555   7.266 -0.4265  0.2712 -0.4007
 4158SOL     OW16629   5.471   8.376   2.461  0.5032 -0.0882  0.1205
 4158SOL    HW116630   5.475   8.448   2.398  0.3764 -0.1467  0.0466
 4158SOL    HW216631   5.501   8.414   2.544 -1.4515  0.5701  0.5684
 4158SOL     MW16632   5.476   8.391   2.464  0.2231 -0.0075  0.1708
 4159SOL     OW16633   6.959   9.329   8.104  0.3433 -0.2999  0.0936
 4159SOL    HW116634   7.008   9.295   8.179 -0.7991 -1.8070  0.2033
 4159SOL    HW216635   7.012   9.309   8.028  0.9250  0.1053  0.3874
 4159SOL     MW16636   6.972   9.322   8.104  0.2678 -0.4482  0.1479
 4160SOL     OW16637   3.726   0.159   5.657 -0.3902 -0.2811  0.1194
 4160SOL    HW116638   3.716   0.230   5.721 -0.0947 -1.8600  2.0340
 4160SOL    HW216639   3.763   0.087   5.708  2.8661 -0.6835 -2.5029
 4160SOL     MW16640   3.730   0.159   5.673  0.0878 -0.5477  0.0241
 4161SOL     OW16641   4.943   1.204   7.498 -0.0290  0.6391  0.2929
 4161SOL    HW116642   4.877   1.137   7.483  0.4652  0.2327 -0.0802
 4161SOL    HW216643   4.922   1.274   7.436 -0.9804  1.1727  1.1727
 4161SOL     MW16644   4.931   1.205   7.488 -0.0906  0.6562  0.3611
 4162SOL     OW16645   6.939   0.029   3.675  0.0004  0.4591 -0.1724
 4162SOL    HW116646   6.955   0.121   3.652  1.3447  0.0184 -1.1434
 4162SOL    HW216647   6.844   0.023   3.684 -0.1676  1.7986 -0.7294
 4162SOL     MW16648   6.929   0.041   3.673  0.1587  0.5801 -0.3780
 4163SOL     OW16649   7.477  10.105   3.549 -0.3891  0.2905  0.5865
 4163SOL    HW116650   7.404  10.054   3.515 -0.2930  0.4525  0.1357
 4163SOL    HW216651   7.445  10.140   3.632 -0.6973  0.0678  0.5615
 4163SOL     MW16652   7.463  10.103   3.556 -0.4177  0.2823  0.5224
 4164SOL     OW16653   8.034   0.210   5.070 -0.2576 -0.1765  0.4914
 4164SOL    HW116654   7.982   0.151   5.124  2.0688 -3.6127 -0.6989
 4164SOL    HW216655   8.000   0.198   4.981 -0.2329  0.9352  0.3108
 4164SOL     MW16656   8.022   0.201   5.065  0.0588 -0.4894  0.3069
 4165SOL     OW16657   6.078   7.763   9.017  0.0758 -0.5608  0.0366
 4165SOL    HW116658   6.033   7.774   8.933 -0.4128  2.6221  0.5928
 4165SOL    HW216659   6.163   7.727   8.994 -0.3851 -0.6208 -1.7197
 4165SOL     MW16660   6.083   7.760   9.002 -0.0520 -0.1405 -0.1249
 4166SOL     OW16661   6.741   1.620   5.793  0.3915 -0.3300 -0.3488
 4166SOL    HW116662   6.743   1.617   5.697 -2.3492  2.1842 -0.6372
 4166SOL    HW216663   6.833   1.629   5.818  1.3896 -3.0499 -2.5361
 4166SOL     MW16664   6.754   1.621   5.783  0.1570 -0.3577 -0.6820
 4167SOL     OW16665   7.850   9.193   7.787 -0.0628  0.4112 -0.1656
 4167SOL    HW116666   7.762   9.156   7.787 -0.2559  0.8671  0.2375
 4167SOL    HW216667   7.898   9.141   7.852  0.1654 -0.2880 -0.8750
 4167SOL     MW16668   7.845   9.181   7.795 -0.0581  0.3784 -0.2068
 4168SOL     OW16669   6.619   1.109   8.469 -0.0063  0.0026  0.6699
 4168SOL    HW116670   6.590   1.105   8.378  0.5963 -2.0069  0.5057
 4168SOL    HW216671   6.578   1.033   8.510  1.9532 -0.7649  1.3312
 4168SOL     MW16672   6.610   1.098   8.462  0.3385 -0.3712  0.7368
 4169SOL     OW16673   7.329   1.333   1.222 -1.0944  0.4753  0.6258
 4169SOL    HW116674   7.389   1.263   1.247 -1.1525  0.2941  0.2560
 4169SOL    HW216675   7.248   1.289   1.198 -0.0191  0.2412 -3.4133
 4169SOL     MW16676   7.326   1.318   1.222 -0.9575  0.4194  0.0324
 4170SOL     OW16677   4.262   0.767   1.311 -0.2627  0.2863 -0.3968
 4170SOL    HW116678   4.210   0.713   1.370  0.0254 -1.6212 -1.7838
 4170SOL    HW216679   4.198   0.804   1.250 -0.2523 -0.1541 -0.6782
 4170SOL     MW16680   4.247   0.765   1.311 -0.2225 -0.0296 -0.6213
 4171SOL     OW16681   7.764   0.302   7.190  0.1943  0.3975  0.1289
 4171SOL    HW116682   7.764   0.393   7.218  0.6609  1.0021 -1.6895
 4171SOL    HW216683   7.739   0.305   7.097 -1.5352 -1.4923  0.4478
 4171SOL     MW16684   7.761   0.314   7.181  0.0244  0.2245 -0.0729
 4172SOL     OW16685   6.450   8.169   4.348 -0.4533 -0.4372  0.6297
 4172SOL    HW116686   6.462   8.075   4.335 -3.9830 -1.1285  1.1834
 4172SOL    HW216687   6.465   8.182   4.442  1.8073 -0.0129  0.2648
 4172SOL     MW16688   6.454   8.158   4.359 -0.6241 -0.4732  0.6551
 4173SOL     OW16689   5.797   7.600   7.543  0.0774  0.5251 -0.4412
 4173SOL    HW116690   5.800   7.638   7.631 -0.6679 -0.3857  0.0007
 4173SOL    HW216691   5.716   7.634   7.505  0.4030  0.9242 -0.7848
 4173SOL     MW16692   5.787   7.610   7.550  0.0210  0.4562 -0.4280
 4174SOL     OW16693   7.066   9.686   6.685  0.1733 -0.2971  0.4332
 4174SOL    HW116694   7.007   9.759   6.706 -2.0679 -1.4396 -1.4445
 4174SOL    HW216695   7.057   9.626   6.759 -2.0076 -0.9614 -0.2853
 4174SOL     MW16696   7.057   9.688   6.698 -0.4218 -0.5403  0.0838
 4175SOL     OW16697   6.397   1.459   9.509  1.0634 -0.2126 -0.6226
 4175SOL    HW116698   6.346   1.468   9.590  0.8190  1.1267 -0.8934
 4175SOL    HW216699   6.446   1.378   9.520  1.5851  0.3058  1.1912
 4175SOL     MW16700   6.397   1.449   9.522  1.1007  0.0374 -0.4149
 4176SOL     OW16701   6.725   9.159   4.868  0.4078 -0.0263  0.4023
 4176SOL    HW116702   6.640   9.134   4.902  0.4767  1.5382  1.8327
 4176SOL    HW216703   6.756   9.227   4.927  3.5119 -1.8240  1.0983
 4176SOL     MW16704   6.718   9.164   4.880  0.8348 -0.0577  0.6885
 4177SOL     OW16705   5.417   9.175   1.479  0.6906  0.6707  0.3620
 4177SOL    HW116706   5.367   9.097   1.501 -0.4326  1.0984 -0.5580
 4177SOL    HW216707   5.497   9.142   1.439  0.3397 -0.0104  0.2100
 4177SOL     MW16708   5.421   9.160   1.477  0.4922  0.6366  0.2177
 4178SOL     OW16709   5.175   8.500   0.678  1.1393 -0.2639 -0.0938
 4178SOL    HW116710   5.114   8.465   0.612  2.1704 -1.7448 -0.3070
 4178SOL    HW216711   5.220   8.423   0.711  2.1852  0.7092  0.8002
 4178SOL     MW16712   5.173   8.485   0.673  1.4188 -0.3322 -0.0021
 4179SOL     OW16713   6.408   8.664   4.792  0.4398  0.0557 -0.1346
 4179SOL    HW116714   6.449   8.697   4.712  0.1537 -0.1589 -0.3728
 4179SOL    HW216715   6.454   8.709   4.863 -0.5140  1.6181 -0.4797
 4179SOL     MW16716   6.420   8.674   4.791  0.2729  0.2371 -0.2131
 4180SOL     OW16717   8.010   9.739   3.304 -0.4409 -0.1687  0.6103
 4180SOL    HW116718   7.936   9.710   3.359  0.2126 -1.4108  0.8778
 4180SOL    HW216719   8.060   9.659   3.288  0.3566  0.5013 -0.3268
 4180SOL     MW16720   8.006   9.724   3.309 -0.2456 -0.2457  0.5202
 4181SOL     OW16721   6.565   8.979   0.507  0.0606  0.1495 -0.0112
 4181SOL    HW116722   6.610   8.910   0.555 -1.5848 -0.6534  0.4882
 4181SOL    HW216723   6.626   9.005   0.438  0.9404 -1.4334  0.1172
 4181SOL     MW16724   6.579   8.973   0.504 -0.0424 -0.1716  0.0733
 4182SOL     OW16725   5.712   1.813   9.349  1.3050  0.4032 -0.4964
 4182SOL    HW116726   5.713   1.876   9.421  1.7716 -0.1835  0.0247
 4182SOL    HW216727   5.805   1.799   9.329  1.1702  0.7710 -1.4074
 4182SOL     MW16728   5.725   1.820   9.356  1.3497  0.3737 -0.5489
 4183SOL     OW16729   4.631   8.700   6.874 -0.3132  0.2027  0.1012
 4183SOL    HW116730   4.589   8.735   6.796  2.1396  1.2608 -0.8397
 4183SOL    HW216731   4.560   8.693   6.938 -2.2993 -0.1615 -1.9938
 4183SOL     MW16732   4.616   8.703   6.872 -0.2504  0.2961 -0.3074
 4184SOL     OW16733   5.728   0.520   6.202 -0.2113 -0.2492  0.0607
 4184SOL    HW116734   5.735   0.609   6.238 -1.1941  0.1443 -0.6600
 4184SOL    HW216735   5.635   0.511   6.179 -0.0843 -1.3966 -0.0643
 4184SOL     MW16736   5.716   0.531   6.203 -0.3265 -0.3507 -0.0531
 4185SOL     OW16737   6.014   0.798   7.313 -0.3083  0.1709  0.0605
 4185SOL    HW116738   6.074   0.825   7.243 -1.5202 -0.8382 -1.4295
 4185SOL    HW216739   5.982   0.880   7.351  0.7739  0.7282 -0.1760
 4185SOL     MW16740   6.018   0.813   7.309 -0.3258  0.1101 -0.1719
 4186SOL     OW16741   4.672   0.146   0.687 -0.5347 -0.0963 -0.6015
 4186SOL    HW116742   4.591   0.096   0.698 -0.1761 -0.8777 -1.3961
 4186SOL    HW216743   4.650   0.214   0.623 -0.6654 -0.0648 -0.5237
 4186SOL     MW16744   4.658   0.149   0.680 -0.5040 -0.1972 -0.6980
 4187SOL     OW16745   6.420   0.330   6.118 -0.4122  0.2527  0.7626
 4187SOL    HW116746   6.471   0.356   6.041  0.4275 -0.1439  1.1813
 4187SOL    HW216747   6.475   0.267   6.164 -2.1263 -1.8519  0.1062
 4187SOL     MW16748   6.434   0.325   6.114 -0.5298 -0.0839  0.7306
 4188SOL     OW16749   4.771   7.835   0.523 -0.0249 -0.0006 -0.0346
 4188SOL    HW116750   4.677   7.855   0.528 -0.0167  0.8945 -2.1539
 4188SOL    HW216751   4.797   7.819   0.613 -1.8684  1.3852  0.8137
 4188SOL     MW16752   4.762   7.835   0.536 -0.2719  0.3064 -0.2057
 4189SOL     OW16753   7.743   8.164   3.835 -0.0067 -0.3896 -0.0713
 4189SOL    HW116754   7.811   8.231   3.825 -0.0457 -0.4115 -0.4909
 4189SOL    HW216755   7.790   8.086   3.865  0.3014 -0.6860 -1.2825
 4189SOL     MW16756   7.758   8.163   3.838  0.0295 -0.4324 -0.2908
 4190SOL     OW16757   4.456   9.719   6.867  0.0955 -0.1523 -0.3489
 4190SOL    HW116758   4.530   9.780   6.858  1.2480 -1.5626 -0.8722
 4190SOL    HW216759   4.409   9.726   6.784 -0.6005  1.0169  0.1234
 4190SOL     MW16760   4.460   9.728   6.854  0.1569 -0.1848 -0.3558
 4191SOL     OW16761   4.661  10.086   6.414  0.3784  0.1556 -0.5693
 4191SOL    HW116762   4.678   9.999   6.380 -0.3268 -0.3457  0.3200
 4191SOL    HW216763   4.648  10.140   6.336  0.9574 -0.4881 -1.1319
 4191SOL     MW16764   4.662  10.082   6.399  0.3614  0.0015 -0.5253
 4192SOL     OW16765   4.021   9.454  10.064 -0.4188  0.2000 -0.3406
 4192SOL    HW116766   4.038   9.382  10.124  2.0105  0.5314 -0.5281
 4192SOL    HW216767   3.983   9.522  10.120  0.2502 -0.0980  0.5146
 4192SOL     MW16768   4.019   9.454  10.080 -0.0018  0.2045 -0.2507
 4193SOL     OW16769   6.467   9.667   6.243 -0.8630  0.1575  0.1062
 4193SOL    HW116770   6.386   9.706   6.276  0.2281  2.6308  0.0653
 4193SOL    HW216771   6.454   9.573   6.253 -4.0514  0.4012 -0.6324
 4193SOL     MW16772   6.454   9.660   6.248 -1.1452  0.5232  0.0013
 4194SOL     OW16773   6.050   0.428   3.772  0.1572 -0.0836  0.0931
 4194SOL    HW116774   5.956   0.435   3.787  0.2565  0.3326  0.5462
 4194SOL    HW216775   6.062   0.458   3.682 -0.3349 -1.7340 -0.5461
 4194SOL     MW16776   6.039   0.433   3.762  0.1043 -0.2497  0.0680
 4195SOL     OW16777   6.285   7.903   3.976 -0.3960  0.8543  0.1118
 4195SOL    HW116778   6.236   7.891   4.057 -1.8459  1.3739 -0.6435
 4195SOL    HW216779   6.363   7.848   3.986 -0.2540  1.3323  2.0685
 4195SOL     MW16780   6.289   7.894   3.988 -0.5720  0.9886  0.2735
 4196SOL     OW16781   5.627   1.811   1.409 -0.5701 -0.1131  0.1546
 4196SOL    HW116782   5.535   1.821   1.435 -0.8386 -0.1140 -0.7448
 4196SOL    HW216783   5.674   1.875   1.461 -1.1936  0.4277  0.0688
 4196SOL     MW16784   5.621   1.821   1.419 -0.6901 -0.0404  0.0220
 4197SOL     OW16785   4.205   9.173   2.196  0.1804 -0.7340  0.4542
 4197SOL    HW116786   4.194   9.228   2.119  0.7430  0.1812  0.9970
 4197SOL    HW216787   4.219   9.085   2.162  0.1384 -0.3854 -0.4726
 4197SOL     MW16788   4.206   9.169   2.181  0.2504 -0.5639  0.4025
 4198SOL     OW16789   5.921   9.524   4.200  0.1483 -0.1621  0.0010
 4198SOL    HW116790   5.982   9.597   4.207 -0.6867  0.5111  0.4107
 4198SOL    HW216791   5.864   9.533   4.277  0.1700 -1.3686  0.1752
 4198SOL     MW16792   5.922   9.535   4.211  0.0388 -0.2339  0.0796
 4199SOL     OW16793   5.344   0.736   2.636 -0.4804  0.0966 -0.2416
 4199SOL    HW116794   5.419   0.716   2.693  0.3188  2.5321 -0.3088
 4199SOL    HW216795   5.268   0.729   2.693  0.0073 -0.4466  0.3556
 4199SOL     MW16796   5.344   0.733   2.652 -0.3072  0.3513 -0.1703
 4200SOL     OW16797   3.655   9.924   5.630 -0.2523  0.1577  0.4099
 4200SOL    HW116798   3.697   9.839   5.646 -0.6999  0.1012  1.3253
 4200SOL    HW216799   3.581   9.926   5.690  0.9521  2.0688  1.9601
 4200SOL     MW16800   3.651   9.913   5.640 -0.1504  0.4073  0.7417
 4201SOL     OW16801   5.751   1.778   4.962  0.3178 -0.0204 -0.0539
 4201SOL    HW116802   5.676   1.725   4.936 -1.6959  2.9929 -0.8919
 4201SOL    HW216803   5.738   1.794   5.056  0.2349 -0.0028 -0.0678
 4201SOL     MW16804   5.739   1.773   4.971  0.0357  0.3875 -0.1685
 4202SOL     OW16805   7.801   0.138   7.400 -0.3539  0.3238  0.0943
 4202SOL    HW116806   7.811   0.047   7.373  1.3692  0.8443 -1.1744
 4202SOL    HW216807   7.798   0.187   7.318  4.0702  1.8865  0.6245
 4202SOL     MW16808   7.802   0.132   7.385  0.4734  0.6041 -0.0051
 4203SOL     OW16809   5.880   0.096   1.258 -0.2315  0.5723 -0.2646
 4203SOL    HW116810   5.786   0.079   1.270 -0.3743  1.9472  0.7595
 4203SOL    HW216811   5.921   0.057   1.335 -0.2466  2.0868  0.5460
 4203SOL     MW16812   5.873   0.088   1.270 -0.2528  0.9612 -0.0177
 4204SOL     OW16813   7.469   1.119   1.310  0.2560  0.1736 -0.0257
 4204SOL    HW116814   7.503   1.136   1.398  0.2946 -0.8834  0.1836
 4204SOL    HW216815   7.517   1.041   1.281 -0.3164  0.0495 -0.6664
 4204SOL     MW16816   7.480   1.111   1.318  0.1842  0.0146 -0.0837
 4205SOL     OW16817   7.612   9.966   8.826  0.1276 -0.6186  0.1228
 4205SOL    HW116818   7.652  10.037   8.775 -0.6845 -0.7848 -0.7858
 4205SOL    HW216819   7.668   9.957   8.902  1.6651 -0.6484 -0.9623
 4205SOL     MW16820   7.625   9.975   8.829  0.2253 -0.6450 -0.1455
 4206SOL     OW16821   6.597   1.362   1.935 -0.3983 -0.1823  0.1087
 4206SOL    HW116822   6.654   1.289   1.959 -1.1986  0.0601  3.1788
 4206SOL    HW216823   6.585   1.411   2.017 -0.9464  2.6768 -1.5497
 4206SOL     MW16824   6.603   1.359   1.949 -0.5797  0.2351  0.2987
 4207SOL     OW16825   5.668   0.948   4.544  0.3221  0.1700 -0.0119
 4207SOL    HW116826   5.726   0.874   4.564 -0.9953 -0.7724  0.4784
 4207SOL    HW216827   5.589   0.931   4.597 -0.4952  1.2775 -0.8414
 4207SOL     MW16828   5.665   0.936   4.554  0.0348  0.1923 -0.0575
 4208SOL     OW16829   4.040   8.926   0.251 -0.0803 -0.6223  0.3258
 4208SOL    HW116830   4.042   8.941   0.157  0.2542  1.5390  0.6246
 4208SOL    HW216831   4.005   9.007   0.288  1.1651 -0.8485  2.1464
 4208SOL     MW16832   4.036   8.939   0.243  0.1324 -0.3619  0.6110
 4209SOL     OW16833   6.738   9.228   7.980  0.0805 -0.0468 -0.0203
 4209SOL    HW116834   6.801   9.287   8.022 -0.2131  1.4521 -1.5682
 4209SOL    HW216835   6.771   9.219   7.890 -0.6870 -1.0819 -0.2152
 4209SOL     MW16836   6.751   9.235   7.973 -0.0623  0.0156 -0.2549
 4210SOL     OW16837   6.328   1.635   5.596 -0.7023 -0.4006 -0.0676
 4210SOL    HW116838   6.302   1.606   5.684 -1.2592 -1.2414 -0.4972
 4210SOL    HW216839   6.253   1.686   5.565  0.3413  1.7447  0.7528
 4210SOL     MW16840   6.314   1.638   5.604 -0.6368 -0.2250 -0.0150
 4211SOL     OW16841   4.703   9.418   4.212 -0.2689 -0.5863 -0.2259
 4211SOL    HW116842   4.641   9.485   4.239  0.1618 -0.1627 -0.2733
 4211SOL    HW216843   4.765   9.463   4.155  0.9493 -0.6425  0.9858
 4211SOL     MW16844   4.703   9.433   4.208 -0.0470 -0.5369 -0.0692
 4212SOL     OW16845   6.761   8.061   9.181 -0.2666  0.0318  0.0515
 4212SOL    HW116846   6.826   8.038   9.247  0.0518 -1.0032 -0.5977
 4212SOL    HW216847   6.797   8.138   9.137 -0.7212  1.0550  1.3918
 4212SOL     MW16848   6.774   8.068   9.184 -0.2850  0.0302  0.1445
 4213SOL     OW16849   6.979   8.581   4.605 -0.2255 -0.0518  0.3826
 4213SOL    HW116850   6.922   8.532   4.545  0.6561  0.0817 -0.5979
 4213SOL    HW216851   7.065   8.579   4.562  0.2267  0.8012  1.2327
 4213SOL     MW16852   6.983   8.574   4.591 -0.0460  0.0810  0.3650
 4214SOL     OW16853   6.485   0.819   8.111  0.3108  0.2127  0.0188
 4214SOL    HW116854   6.573   0.781   8.101  0.7073  1.1361 -0.1011
 4214SOL    HW216855   6.453   0.782   8.193  2.0371  2.1385  1.6799
 4214SOL     MW16856   6.493   0.809   8.121  0.5965  0.5961  0.2262
 4215SOL     OW16857   7.036   0.670   0.272  0.4773 -0.6772 -0.1494
 4215SOL    HW116858   6.990   0.630   0.346  0.1070  0.6122  0.3510
 4215SOL    HW216859   6.991   0.636   0.195 -1.0472  0.1928  0.3156
 4215SOL     MW16860   7.023   0.660   0.272  0.2223 -0.3866 -0.0195
 4216SOL     OW16861   5.435   8.762   2.105  0.6229 -0.1290 -0.0736
 4216SOL    HW116862   5.386   8.714   2.038 -1.5000  1.9233 -0.1203
 4216SOL    HW216863   5.426   8.709   2.184  0.4283 -0.9844 -0.6518
 4216SOL     MW16864   5.427   8.748   2.106  0.3110  0.0321 -0.1577
 4217SOL     OW16865   6.073   9.207   3.793 -0.6987 -0.1106 -0.2449
 4217SOL    HW116866   6.133   9.278   3.771 -0.2681  0.0151  1.1880
 4217SOL    HW216867   6.063   9.157   3.712  1.7092 -0.3815 -0.4412
 4217SOL     MW16868   6.080   9.210   3.779 -0.3167 -0.1302 -0.0785
 4218SOL     OW16869   7.704   9.582   7.093 -0.2325  0.1892  0.0884
 4218SOL    HW116870   7.763   9.509   7.076  0.5261  0.1489  2.5188
 4218SOL    HW216871   7.710   9.637   7.015  0.3653 -1.5461 -1.1276
 4218SOL     MW16872   7.712   9.580   7.080 -0.0499 -0.0498  0.2518
 4219SOL     OW16873   6.492   0.551   4.201  0.0114 -0.2854 -0.3486
 4219SOL    HW116874   6.574   0.561   4.250 -0.3932  0.7469  0.1226
 4219SOL    HW216875   6.487   0.457   4.184  0.0588 -0.7446  1.8002
 4219SOL     MW16876   6.503   0.539   4.205 -0.0367 -0.2083  0.0040
 4220SOL     OW16877   6.613   8.570   5.971 -0.0041  0.1644 -0.7803
 4220SOL    HW116878   6.554   8.534   6.037  0.8960 -0.0028 -0.0516
 4220SOL    HW216879   6.616   8.663   5.990  1.4240 -0.1003  0.3761
 4220SOL     MW16880   6.605   8.577   5.982  0.3092  0.1063 -0.5266
 4221SOL     OW16881   5.822   1.769   8.011  0.3416  0.4579 -0.1065
 4221SOL    HW116882   5.734   1.773   7.973  0.0117 -1.9573  0.2422
 4221SOL    HW216883   5.807   1.738   8.100  1.5278  0.5278  0.1243
 4221SOL     MW16884   5.808   1.765   8.018  0.4568  0.1423 -0.0285
 4222SOL     OW16885   5.721  10.117   3.738 -0.1035  0.1498  0.8270
 4222SOL    HW116886   5.730  10.176   3.813  0.5558 -1.5781  2.1901
 4222SOL    HW216887   5.800  10.133   3.686 -0.4879  1.2553  0.5493
 4222SOL     MW16888   5.733  10.127   3.741 -0.0665  0.0660  0.9731
 4223SOL     OW16889   7.133   7.970   7.620 -0.0512 -0.1057  0.0428
 4223SOL    HW116890   7.202   7.935   7.565 -0.2533 -1.1255  0.4187
 4223SOL    HW216891   7.055   7.969   7.565  0.0667  0.3525 -0.1418
 4223SOL     MW16892   7.132   7.965   7.606 -0.0625 -0.1813  0.0686
 4224SOL     OW16893   4.405   0.077   0.435 -0.3265  0.0973 -0.1767
 4224SOL    HW116894   4.404   0.060   0.341  0.5257  0.4614 -0.2644
 4224SOL    HW216895   4.422  -0.008   0.476  0.1781  0.0867 -0.4036
 4224SOL     MW16896   4.407   0.064   0.428 -0.1439  0.1448 -0.2190
 4225SOL     OW16897   7.360   8.917   1.526  0.0159  0.0898 -0.0983
 4225SOL    HW116898   7.270   8.882   1.528 -0.3164  0.8862 -0.7966
 4225SOL    HW216899   7.370   8.962   1.610 -0.0591 -0.4308  0.1939
 4225SOL     MW16900   7.349   8.918   1.538 -0.0389  0.1269 -0.1530
 4226SOL     OW16901   5.290   9.660   7.270 -0.4742  0.2699 -0.0212
 4226SOL    HW116902   5.204   9.645   7.231 -0.2419  0.4353 -0.6018
 4226SOL    HW216903   5.290   9.753   7.293 -0.5819  0.1900  0.3147
 4226SOL     MW16904   5.278   9.670   7.268 -0.4574  0.2814 -0.0541
 4227SOL     OW16905   4.775   8.728   8.502  0.7352  0.5441 -0.1768
 4227SOL    HW116906   4.737   8.815   8.492 -0.1989 -0.0263 -2.5269
 4227SOL    HW216907   4.837   8.721   8.429 -0.7623 -1.4450 -1.3624
 4227SOL     MW16908   4.778   8.739   8.491  0.4079  0.1997 -0.6526
 4228SOL     OW16909   6.104   0.545   3.491  0.6315 -0.0058 -0.3789
 4228SOL    HW116910   6.137   0.624   3.534 -0.5168 -0.3533  1.2273
 4228SOL    HW216911   6.183   0.499   3.464  1.3257  1.5570 -1.1378
 4228SOL     MW16912   6.119   0.549   3.493  0.5704  0.1577 -0.2649
 4229SOL     OW16913   6.057   9.802   6.748 -0.1916 -0.3324  0.7675
 4229SOL    HW116914   6.024   9.753   6.824  1.1419 -1.0610  0.8973
 4229SOL    HW216915   5.987   9.865   6.729 -0.4759  0.0290  2.7227
 4229SOL     MW16916   6.043   9.804   6.756 -0.0504 -0.3818  1.0481
 4230SOL     OW16917   6.228   7.648   4.779  0.4160 -0.2038  0.4734
 4230SOL    HW116918   6.240   7.616   4.869 -0.5822  2.7336  1.7635
 4230SOL    HW216919   6.313   7.633   4.738  0.6116 -2.5274  1.5235
 4230SOL     MW16920   6.241   7.641   4.786  0.3080 -0.1212  0.7883
 4231SOL     OW16921   5.371   0.766   7.197 -0.3734 -0.3619 -0.3029
 4231SOL    HW116922   5.438   0.698   7.197  0.4913  0.4176  1.6796
 4231SOL    HW216923   5.312   0.742   7.269  0.9167  1.7940  1.6180
 4231SOL     MW16924   5.372   0.754   7.207 -0.0834  0.0331  0.2224
 4232SOL     OW16925   4.779   9.397   1.559  0.0921  0.1266 -0.4714
 4232SOL    HW116926   4.737   9.446   1.630  0.9855  0.5858 -0.2476
 4232SOL    HW216927   4.727   9.418   1.481 -0.1289  0.6395 -0.1926
 4232SOL     MW16928   4.766   9.406   1.558  0.1826  0.2574 -0.4037
 4233SOL     OW16929   5.706   1.689   3.980  0.4906  0.0201  0.3675
 4233SOL    HW116930   5.699   1.612   3.924  1.4581 -0.0147  0.2800
 4233SOL    HW216931   5.789   1.730   3.955  0.3462  0.6792  0.9285
 4233SOL     MW16932   5.716   1.684   3.969  0.6014  0.1041  0.4313
 4234SOL     OW16933   5.444   9.997   2.187  0.7588 -0.3024 -0.1568
 4234SOL    HW116934   5.418   9.970   2.099  2.7326  0.8642 -1.1807
 4234SOL    HW216935   5.404  10.083   2.198 -1.0333 -1.2100  0.9091
 4234SOL     MW16936   5.435  10.005   2.177  0.7833 -0.2675 -0.1512
 4235SOL     OW16937   7.829   0.732   4.740  0.5043  0.0871 -0.0047
 4235SOL    HW116938   7.795   0.794   4.675 -1.1928  1.6197  2.1850
 4235SOL    HW216939   7.751   0.696   4.782  1.4913 -2.6014 -0.2601
 4235SOL     MW16940   7.814   0.735   4.737  0.4087 -0.0685  0.2556
 4236SOL     OW16941   7.660   9.890   0.712  0.3611 -0.4822  0.3207
 4236SOL    HW116942   7.596   9.888   0.641  0.3977 -0.2746  0.2821
 4236SOL    HW216943   7.737   9.846   0.676  0.4133 -0.2899  0.2001
 4236SOL     MW16944   7.662   9.883   0.698  0.3731 -0.4284  0.2993
 4237SOL     OW16945   4.910   9.916   8.547  0.1887  0.1878  0.2830
 4237SOL    HW116946   4.994   9.962   8.547  0.1624  0.2414 -0.4427
 4237SOL    HW216947   4.844   9.985   8.542  0.1423  0.0869 -0.5372
 4237SOL     MW16948   4.913   9.931   8.546  0.1789  0.1814  0.0749
 4238SOL     OW16949   7.530   9.420   3.694 -0.0118 -0.0989  0.0258
 4238SOL    HW116950   7.472   9.381   3.759  0.0077  0.4153  0.3553
 4238SOL    HW216951   7.588   9.348   3.668  0.2398 -0.2236  0.8764
 4238SOL     MW16952   7.530   9.405   3.699  0.0247 -0.0465  0.1846
 4239SOL     OW16953   7.172   9.369   7.113 -0.0251 -0.7315  0.3840
 4239SOL    HW116954   7.174   9.412   7.198 -1.0946 -1.5616  0.8555
 4239SOL    HW216955   7.136   9.434   7.053  0.8187 -0.1125  0.5281
 4239SOL     MW16956   7.168   9.383   7.116 -0.0555 -0.7599  0.4669
 4240SOL     OW16957   7.406   8.491   0.588 -0.0019 -0.0142  0.0717
 4240SOL    HW116958   7.496   8.523   0.592 -0.2510  0.6956  0.1510
 4240SOL    HW216959   7.415   8.396   0.578  0.7552  0.1033 -0.4438
 4240SOL     MW16960   7.420   8.482   0.587  0.0665  0.0971  0.0130
 4241SOL     OW16961   4.998   9.130   4.368  0.2025 -0.0375 -0.4835
 4241SOL    HW116962   5.038   9.138   4.455 -0.6945 -2.2588  0.2009
 4241SOL    HW216963   4.909   9.162   4.379  0.3400  0.4732 -0.8157
 4241SOL     MW16964   4.992   9.135   4.381  0.1003 -0.2677 -0.4361
 4242SOL     OW16965   7.446   9.070   4.090 -0.1455  0.0794  0.3955
 4242SOL    HW116966   7.462   9.139   4.025 -1.3179  0.7808  0.8221
 4242SOL    HW216967   7.428   8.992   4.038  0.9972  0.1255 -0.0968
 4242SOL     MW16968   7.446   9.069   4.074 -0.1495  0.1800  0.3866
 4243SOL     OW16969   7.084   9.079   1.829 -0.2390  0.1463 -0.1657
 4243SOL    HW116970   7.052   9.052   1.743 -0.0445 -2.1664  0.4115
 4243SOL    HW216971   7.034   9.157   1.850 -0.8233  0.3313 -2.0521
 4243SOL     MW16972   7.073   9.086   1.820 -0.2914 -0.1400 -0.3419
 4244SOL     OW16973   4.619   8.116   7.321  0.0491  0.2877 -0.0568
 4244SOL    HW116974   4.639   8.081   7.408 -1.7286  0.3102  0.3943
 4244SOL    HW216975   4.545   8.064   7.291  0.4198  0.5226 -1.4227
 4244SOL     MW16976   4.612   8.104   7.329 -0.1403  0.3223 -0.1799
 4245SOL     OW16977   4.240   9.044   7.622  0.4188  0.4256  0.2630
 4245SOL    HW116978   4.149   9.071   7.637 -0.0445 -0.4526 -0.8466
 4245SOL    HW216979   4.247   8.958   7.663  0.0285 -0.5882 -1.6771
 4245SOL     MW16980   4.229   9.036   7.630  0.3039  0.1710 -0.1475
 4246SOL     OW16981   6.336   0.085   7.231 -0.0940 -0.1465  0.1963
 4246SOL    HW116982   6.265   0.114   7.288  0.1173 -1.5268  1.2278
 4246SOL    HW216983   6.370   0.165   7.192 -0.6754  0.7898  1.5297
 4246SOL     MW16984   6.331   0.099   7.234 -0.1438 -0.2062  0.5145
 4247SOL     OW16985   7.890   8.905   9.365 -0.3280 -0.5431 -0.0493
 4247SOL    HW116986   7.910   8.814   9.342 -1.2364 -0.6391 -0.5151
 4247SOL    HW216987   7.836   8.899   9.444 -0.3017 -0.4062 -0.0215
 4247SOL     MW16988   7.885   8.892   9.372 -0.4467 -0.5376 -0.1083
 4248SOL     OW16989   4.442   0.804   5.896 -0.5272 -0.2641  0.9336
 4248SOL    HW116990   4.508   0.860   5.857 -1.6932  0.3785 -0.1838
 4248SOL    HW216991   4.423   0.844   5.981  0.2606 -0.2556  1.1057
 4248SOL     MW16992   4.448   0.817   5.902 -0.5781 -0.1764  0.8064
 4249SOL     OW16993   4.599   9.988   4.509  0.0853  0.2677 -0.2514
 4249SOL    HW116994   4.539   9.948   4.572  1.6079 -1.0317  0.4445
 4249SOL    HW216995   4.566  10.078   4.498 -0.5156  0.3850  2.0166
 4249SOL     MW16996   4.586   9.995   4.516  0.2094  0.1086  0.1475
 4250SOL     OW16997   3.983   9.605   5.557  0.4424 -0.2486 -0.5545
 4250SOL    HW116998   3.912   9.544   5.537  0.5141  0.3453 -2.8755
 4250SOL    HW216999   4.062   9.560   5.529  0.6058  0.4521 -1.2496
 4250SOL     MW17000   3.984   9.591   5.551  0.4740 -0.0744 -0.9604
 4251SOL     OW17001   3.899   0.017   7.275 -0.4401 -0.5292  0.1406
 4251SOL    HW117002   3.868  -0.071   7.294  0.3491 -1.1362 -1.2616
 4251SOL    HW217003   3.831   0.056   7.221 -0.6293 -0.3933  0.4730
 4251SOL     MW17004   3.886   0.010   7.270 -0.3593 -0.5926 -0.0034
 4252SOL     OW17005   6.065   9.794   1.416 -0.5327  0.7982 -0.0187
 4252SOL    HW117006   6.113   9.717   1.447 -0.4025  0.1632 -1.6992
 4252SOL    HW217007   6.129   9.864   1.414 -0.5231  0.8307  1.0107
 4252SOL     MW17008   6.080   9.793   1.420 -0.5139  0.7171 -0.1063
 4253SOL     OW17009   5.908   7.632   5.311 -0.0577  0.2181 -0.0649
 4253SOL    HW117010   5.871   7.694   5.248  0.1661 -0.0608 -0.4758
 4253SOL    HW217011   5.832   7.597   5.358 -0.1540  1.0913  0.4491
 4253SOL     MW17012   5.893   7.636   5.309 -0.0406  0.2981 -0.0510
 4254SOL     OW17013   4.881   9.258   2.031  0.7233  0.0991 -0.2039
 4254SOL    HW117014   4.903   9.169   2.006 -1.2493 -0.1192 -1.3912
 4254SOL    HW217015   4.926   9.313   1.966  0.5922 -0.1232 -0.4838
 4254SOL     MW17016   4.890   9.254   2.019  0.4402  0.0398 -0.4014
 4255SOL     OW17017   5.745   0.817   3.555  0.3380  0.1376  0.1213
 4255SOL    HW117018   5.753   0.832   3.649  1.6780 -1.2500  0.2619
 4255SOL    HW217019   5.788   0.892   3.515 -1.0797  1.2422  0.5413
 4255SOL     MW17020   5.752   0.829   3.562  0.3275  0.0995  0.1968
 4256SOL     OW17021   6.843   1.241   3.515 -0.1846 -0.8589  0.1055
 4256SOL    HW117022   6.814   1.152   3.536  1.6005 -1.4367  0.2262
 4256SOL    HW217023   6.856   1.282   3.600 -2.4378  0.0732  0.0827
 4256SOL     MW17024   6.841   1.235   3.530 -0.2476 -0.8112  0.1187
 4257SOL     OW17025   3.990   9.814   6.290 -0.3345 -0.3120  0.1556
 4257SOL    HW117026   3.943   9.851   6.215 -0.3108 -0.1204  0.2364
 4257SOL    HW217027   4.082   9.815   6.263 -0.3909 -0.8445 -0.0699
 4257SOL     MW17028   3.996   9.819   6.276 -0.3389 -0.3578  0.1361
 4258SOL     OW17029   4.050   0.046   4.193 -0.0727 -0.0879  0.2300
 4258SOL    HW117030   4.093   0.060   4.278 -0.1270 -0.8941  0.4007
 4258SOL    HW217031   4.121   0.043   4.130  0.0850 -0.9464  0.4477
 4258SOL     MW17032   4.065   0.048   4.196 -0.0588 -0.3119  0.2823
 4259SOL     OW17033   5.880   8.203   2.789  0.2147  0.1275  0.1675
 4259SOL    HW117034   5.888   8.280   2.732  0.5902  0.3477  0.5078
 4259SOL    HW217035   5.797   8.216   2.834 -0.0910 -0.0551 -0.3398
 4259SOL     MW17036   5.870   8.215   2.788  0.2241  0.1326  0.1450
 4260SOL     OW17037   7.384   9.401   4.743 -0.5234 -0.0751  0.4826
 4260SOL    HW117038   7.425   9.475   4.697  0.4091 -0.8224  0.0819
 4260SOL    HW217039   7.445   9.380   4.814 -0.2665 -1.0983 -0.0231
 4260SOL     MW17040   7.398   9.408   4.746 -0.3633 -0.3133  0.3606
 4261SOL     OW17041   4.745   0.486   3.176  0.4744  0.0974 -0.3392
 4261SOL    HW117042   4.777   0.406   3.217  0.0407  0.9484  1.8335
 4261SOL    HW217043   4.816   0.549   3.187  1.2495 -0.2045 -2.9933
 4261SOL     MW17044   4.759   0.484   3.183  0.5203  0.1713 -0.4040
 4262SOL     OW17045   4.580   1.172   1.537 -0.1824  0.1859  0.2177
 4262SOL    HW117046   4.509   1.109   1.526 -1.1418  1.2390  0.1457
 4262SOL    HW217047   4.593   1.210   1.450  0.6870 -0.2216  0.1655
 4262SOL     MW17048   4.572   1.169   1.524 -0.1945  0.2727  0.2010
 4263SOL     OW17049   4.565   1.084   9.166  0.1884  0.1945 -0.6807
 4263SOL    HW117050   4.588   1.149   9.232  1.3143 -0.8212 -0.0618
 4263SOL    HW217051   4.572   1.000   9.210  1.0575 -0.5135 -2.1087
 4263SOL     MW17052   4.569   1.082   9.180  0.4569 -0.0375 -0.7896
 4264SOL     OW17053   5.998   9.622   6.947  0.0034  0.2792  0.3058
 4264SOL    HW117054   6.029   9.565   7.017 -0.2312 -0.0589  0.1349
 4264SOL    HW217055   5.939   9.683   6.991 -0.2240  0.0016  0.3888
 4264SOL     MW17056   5.994   9.623   6.962 -0.0588  0.1963  0.2940
 4265SOL     OW17057   6.992   8.719   0.595  0.1215  0.0502  0.0890
 4265SOL    HW117058   6.991   8.650   0.662 -0.1162 -0.7599 -0.7219
 4265SOL    HW217059   7.015   8.673   0.514  1.8088  1.2513 -0.1526
 4265SOL     MW17060   6.995   8.703   0.593  0.3166  0.1028 -0.0527
 4266SOL     OW17061   7.558   0.365   2.514 -0.2909  0.0593  0.1494
 4266SOL    HW117062   7.565   0.275   2.481  1.0282  0.4414 -0.6737
 4266SOL    HW217063   7.642   0.405   2.492 -0.4864  1.2089  1.4125
 4266SOL     MW17064   7.570   0.358   2.507 -0.1397  0.2655  0.2086
 4267SOL     OW17065   5.880   8.202   8.437  0.7549 -0.2738 -0.1304
 4267SOL    HW117066   5.928   8.163   8.511  1.0905 -1.0170 -0.7270
 4267SOL    HW217067   5.929   8.281   8.417 -0.0193  0.5724  1.1949
 4267SOL     MW17068   5.893   8.207   8.444  0.6959 -0.2599 -0.0323
 4268SOL     OW17069   4.177   9.835   0.509 -0.5036 -0.0347 -0.4084
 4268SOL    HW117070   4.211   9.764   0.455  3.1927  0.9943  0.3445
 4268SOL    HW217071   4.168   9.797   0.597 -0.0523  0.0093 -0.3423
 4268SOL     MW17072   4.180   9.820   0.514  0.0546  0.1097 -0.2981
 4269SOL     OW17073   6.279   0.384   6.802 -0.1092  0.1398 -0.7618
 4269SOL    HW117074   6.275   0.416   6.892  1.1934  1.3480 -1.1045
 4269SOL    HW217075   6.239   0.454   6.750 -1.5046 -0.8487 -1.0971
 4269SOL     MW17076   6.273   0.398   6.807 -0.1217  0.1693 -0.8530
 4270SOL     OW17077   5.719   8.161   6.676 -0.0876 -0.1295  0.3129
 4270SOL    HW117078   5.683   8.073   6.671 -0.8109  0.2016 -0.6049
 4270SOL    HW217079   5.679   8.199   6.754  3.1562 -1.8290  3.0815
 4270SOL     MW17080   5.709   8.154   6.685  0.2516 -0.3137  0.5620
 4271SOL     OW17081   6.364   0.418   5.731 -0.2097 -0.1280 -0.2635
 4271SOL    HW117082   6.405   0.459   5.655 -1.9641 -1.2976 -1.9308
 4271SOL    HW217083   6.435   0.411   5.795  1.6841 -0.2862 -2.2546
 4271SOL     MW17084   6.379   0.423   5.730 -0.1910 -0.3067 -0.7559
 4272SOL     OW17085   6.030  10.159   3.983  0.9909  0.1527 -0.2704
 4272SOL    HW117086   6.008  10.079   4.030  0.9688 -0.5898 -1.5008
 4272SOL    HW217087   5.948  10.208   3.980  1.5842  1.5805  2.8826
 4272SOL     MW17088   6.016  10.155   3.989  1.0677  0.2449 -0.0116
 4273SOL     OW17089   5.473   1.759   3.790  0.5493 -0.1818  0.1915
 4273SOL    HW117090   5.527   1.747   3.712  0.8064 -0.2404  0.3753
 4273SOL    HW217091   5.534   1.748   3.863  0.0820 -1.2684  0.4256
 4273SOL     MW17092   5.488   1.756   3.790  0.5210 -0.3359  0.2478
 4274SOL     OW17093   8.117   9.412   8.611 -0.2052 -0.2700 -0.4417
 4274SOL    HW117094   8.061   9.400   8.535  1.1060  0.8436 -1.6528
 4274SOL    HW217095   8.170   9.332   8.615 -0.9245 -0.7352 -0.1167
 4274SOL     MW17096   8.117   9.400   8.601 -0.1255 -0.1827 -0.5610
 4275SOL     OW17097   6.442   9.527   3.551 -0.5485  0.5871  0.2571
 4275SOL    HW117098   6.395   9.584   3.490 -1.9116 -1.4860 -0.7466
 4275SOL    HW217099   6.374   9.485   3.602  0.4970  0.7617  1.8601
 4275SOL     MW17100   6.427   9.529   3.550 -0.5913  0.3316  0.3378
 4276SOL     OW17101   4.735   1.046   6.992 -0.2084 -0.0697 -0.1291
 4276SOL    HW117102   4.654   1.083   6.957  0.0296  1.1356  0.5549
 4276SOL    HW217103   4.715   1.028   7.084  0.6263  1.3685  0.3705
 4276SOL     MW17104   4.721   1.049   6.999 -0.0640  0.2860  0.0302
 4277SOL     OW17105   4.132   0.102   0.433 -0.3208 -0.5129 -0.2680
 4277SOL    HW117106   4.227   0.101   0.427 -0.2300  0.8727  0.5585
 4277SOL    HW217107   4.114   0.079   0.524 -0.7644 -0.4099 -0.3289
 4277SOL     MW17108   4.142   0.099   0.444 -0.3682 -0.3125 -0.1650
 4278SOL     OW17109   5.379   1.319   8.889 -0.3982 -0.2423  0.1534
 4278SOL    HW117110   5.295   1.320   8.843 -0.9235 -1.1583  1.0483
 4278SOL    HW217111   5.355   1.309   8.982  0.6889 -0.1587  0.4569
 4278SOL     MW17112   5.365   1.318   8.896 -0.3226 -0.3543  0.3147
 4279SOL     OW17113   4.373   8.170   2.633 -0.7538  0.0221 -0.4235
 4279SOL    HW117114   4.360   8.249   2.580  0.0247  0.9996  0.7899
 4279SOL    HW217115   4.315   8.182   2.708  0.4174  0.1212  0.4780
 4279SOL     MW17116   4.363   8.182   2.636 -0.4914  0.1670 -0.1388
 4280SOL     OW17117   3.987   9.742   3.773  0.1784 -0.3120  0.0951
 4280SOL    HW117118   4.039   9.662   3.767  1.8132  0.7489 -0.6552
 4280SOL    HW217119   3.899   9.715   3.748  1.2429 -1.3840 -2.9199
 4280SOL     MW17120   3.982   9.728   3.769  0.5417 -0.3135 -0.4117
 4281SOL     OW17121   6.477   8.777   4.549  0.7032  0.0401 -0.4389
 4281SOL    HW117122   6.425   8.709   4.504  2.4362 -1.0008 -0.9598
 4281SOL    HW217123   6.413   8.845   4.570 -0.7596 -0.8864 -1.6287
 4281SOL     MW17124   6.461   8.777   4.545  0.7395 -0.2247 -0.6691
 4282SOL     OW17125   5.801   0.071   8.147  0.0497 -0.3678 -0.0480
 4282SOL    HW117126   5.890   0.102   8.132 -0.1332  0.1838 -0.0232
 4282SOL    HW217127   5.806   0.023   8.229  0.3326 -0.3685 -0.0647
 4282SOL     MW17128   5.814   0.069   8.156  0.0632 -0.2937 -0.0469
 4283SOL     OW17129   7.588   9.756  10.126  0.4715  0.1071 -0.1786
 4283SOL    HW117130   7.675   9.723  10.146  0.1762 -0.9583 -0.6044
 4283SOL    HW217131   7.530   9.681  10.138 -0.3221  0.6719 -0.3972
 4283SOL     MW17132   7.592   9.742  10.130  0.3249  0.0397 -0.2653
 4284SOL     OW17133   3.807   9.771   8.769  0.3590  0.0607  0.4794
 4284SOL    HW117134   3.858   9.701   8.727 -0.0588  0.7640 -1.2906
 4284SOL    HW217135   3.872   9.836   8.793  0.5411 -0.0242  0.2260
 4284SOL     MW17136   3.823   9.770   8.766  0.3273  0.1439  0.2071
 4285SOL     OW17137   7.630   9.499   7.619  0.1070  0.2701 -0.0800
 4285SOL    HW117138   7.674   9.428   7.572  0.3879  1.4198 -1.6358
 4285SOL    HW217139   7.580   9.545   7.552 -2.5262 -0.2217  1.4158
 4285SOL     MW17140   7.629   9.496   7.604 -0.2096  0.3586 -0.0881
 4286SOL     OW17141   5.336   0.901   9.514  0.0338 -0.1002 -0.4265
 4286SOL    HW117142   5.402   0.832   9.509  1.2930  1.1331 -1.7382
 4286SOL    HW217143   5.336   0.929   9.605  1.7131  0.2173 -0.4923
 4286SOL     MW17144   5.345   0.895   9.525  0.4293  0.1085 -0.6119
 4287SOL     OW17145   6.750   9.402   1.448 -0.0348 -0.1409 -0.2089
 4287SOL    HW117146   6.690   9.353   1.505 -0.4614  0.3336 -0.2368
 4287SOL    HW217147   6.693   9.437   1.379  0.2062  0.6663  0.0006
 4287SOL     MW17148   6.734   9.400   1.446 -0.0598  0.0316 -0.1844
 4288SOL     OW17149   3.953   9.862   9.495  0.2025 -0.0368 -0.3699
 4288SOL    HW117150   4.037   9.816   9.497  0.7662  0.9619 -0.4853
 4288SOL    HW217151   3.928   9.861   9.403  0.8742  1.0043 -0.5899
 4288SOL     MW17152   3.961   9.856   9.483  0.3688  0.2377 -0.4151
 4289SOL     OW17153   5.536   0.403   1.068  0.0512  0.2502 -0.1052
 4289SOL    HW117154   5.533   0.386   0.974  1.2907  2.1212 -0.5385
 4289SOL    HW217155   5.454   0.367   1.102 -0.9162  0.4784 -2.0617
 4289SOL     MW17156   5.525   0.396   1.060  0.0878  0.5327 -0.4268
 4290SOL     OW17157   7.117   1.444   0.016  0.0696  0.3392 -0.4688
 4290SOL    HW117158   7.095   1.368   0.069  1.4201  0.3210  0.0898
 4290SOL    HW217159   7.102   1.415  -0.074  2.2372 -1.2353 -0.4122
 4290SOL     MW17160   7.112   1.430   0.011  0.5431  0.1249 -0.3860
 4291SOL     OW17161   5.585   0.096   8.527 -0.2678  0.1799  0.4627
 4291SOL    HW117162   5.618   0.186   8.534  0.8284 -0.2921  1.8599
 4291SOL    HW217163   5.497   0.106   8.491  0.1963  1.7310 -0.3601
 4291SOL     MW17164   5.578   0.110   8.523 -0.0578  0.3251  0.5400
 4292SOL     OW17165   7.022   7.900   2.837 -0.4449 -0.1281  0.1706
 4292SOL    HW117166   7.081   7.975   2.835  1.0518 -1.2001  1.5362
 4292SOL    HW217167   7.074   7.828   2.801 -1.4010 -0.8117  0.1187
 4292SOL     MW17168   7.036   7.901   2.832 -0.3721 -0.3643  0.3474
 4293SOL     OW17169   6.683   8.073   6.847  0.1507  0.2938 -0.0638
 4293SOL    HW117170   6.641   8.031   6.772 -0.6717  0.8987  0.0461
 4293SOL    HW217171   6.771   8.095   6.816 -1.0226  2.9981 -1.8073
 4293SOL     MW17172   6.689   8.071   6.833 -0.1179  0.7392 -0.2837
 4294SOL     OW17173   6.788   0.958   3.553 -0.5112 -0.0995  0.0113
 4294SOL    HW117174   6.876   0.948   3.590 -0.8150  1.7613  1.3578
 4294SOL    HW217175   6.731   0.962   3.630 -1.7759 -1.0259 -0.8483
 4294SOL     MW17176   6.792   0.957   3.569 -0.7223  0.0262  0.0768
 4295SOL     OW17177   6.138   0.699   9.683  0.6737 -0.1923  0.4057
 4295SOL    HW117178   6.173   0.788   9.674  2.9097 -1.0497 -0.2437
 4295SOL    HW217179   6.085   0.686   9.605  2.1190 -0.1120 -0.6397
 4295SOL     MW17180   6.136   0.709   9.671  1.1692 -0.2969  0.1776
 4296SOL     OW17181   7.634   9.994   0.355  0.3858  0.8319  0.4765
 4296SOL    HW117182   7.652   9.902   0.374  0.5853  0.9402  0.8103
 4296SOL    HW217183   7.586   9.992   0.272 -0.3038  0.3751  0.8750
 4296SOL     MW17184   7.630   9.981   0.346  0.3198  0.7850  0.5750
 4297SOL     OW17185   6.923   9.520   6.508  0.0684  0.0857  0.4199
 4297SOL    HW117186   6.959   9.587   6.566 -0.4421  0.8107 -0.0857
 4297SOL    HW217187   6.829   9.519   6.527  0.1724 -1.0856  1.0133
 4297SOL     MW17188   6.915   9.529   6.519  0.0137  0.0257  0.4317
 4298SOL     OW17189   7.507   9.003   9.740 -0.1553  0.1175 -0.1864
 4298SOL    HW117190   7.567   9.057   9.792 -0.1846  0.7833 -0.8258
 4298SOL    HW217191   7.470   8.941   9.803  0.7912  0.0474  0.3197
 4298SOL     MW17192   7.510   9.002   9.756 -0.0318  0.1977 -0.2044
 4299SOL     OW17193   7.725   0.387   3.863  0.2144 -0.8329  0.0233
 4299SOL    HW117194   7.796   0.433   3.909  0.7040  0.0474 -1.5563
 4299SOL    HW217195   7.767   0.309   3.826  0.1736 -0.7135 -0.2716
 4299SOL     MW17196   7.740   0.382   3.864  0.2748 -0.6983 -0.2289
 4300SOL     OW17197   6.793   0.470   8.016  0.4696 -0.0451 -0.6523
 4300SOL    HW117198   6.765   0.393   7.968 -0.4768 -0.0408 -0.1260
 4300SOL    HW217199   6.818   0.436   8.103 -1.1665  0.3747  0.0177
 4300SOL     MW17200   6.793   0.455   8.022  0.1220  0.0120 -0.4913
 4301SOL     OW17201   7.334  10.002   3.203  0.4874 -0.0050 -0.1226
 4301SOL    HW117202   7.269   9.936   3.226  0.8890 -1.3938 -2.6302
 4301SOL    HW217203   7.285  10.083   3.193 -0.4977 -0.5671  0.0842
 4301SOL     MW17204   7.319  10.004   3.205  0.4089 -0.2676 -0.4323
 4302SOL     OW17205   7.685   8.906   1.802 -0.2081 -0.0018 -0.0859
 4302SOL    HW117206   7.664   8.937   1.714 -2.3301  2.8908  1.2950
 4302SOL    HW217207   7.761   8.958   1.828 -0.7752  0.5716  0.4584
 4302SOL     MW17208   7.692   8.917   1.794 -0.5700  0.4647  0.1732
 4303SOL     OW17209   5.132   0.010   3.895 -1.0721 -0.4354  0.1428
 4303SOL    HW117210   5.042   0.030   3.922 -0.5354  0.8330  1.1584
 4303SOL    HW217211   5.168  -0.039   3.969 -0.5185  0.3432  0.4110
 4303SOL     MW17212   5.125   0.006   3.909 -0.9254 -0.1599  0.3155
 4304SOL     OW17213   4.909   8.257   7.672 -0.2920  0.2660 -0.1922
 4304SOL    HW117214   4.848   8.320   7.634  0.4376 -0.0567 -1.9900
 4304SOL    HW217215   4.996   8.292   7.651  0.1901  0.5831  2.0827
 4304SOL     MW17216   4.913   8.270   7.664 -0.1289  0.2653 -0.1280
 4305SOL     OW17217   5.414   8.961   9.336  0.4534 -0.0741  0.1982
 4305SOL    HW117218   5.509   8.967   9.346  0.5382 -0.9078 -0.0861
 4305SOL    HW217219   5.382   9.047   9.363  1.4372  0.8562 -1.4251
 4305SOL     MW17220   5.422   8.974   9.341  0.5972 -0.0611 -0.0585
 4306SOL     OW17221   6.347   1.311   0.204  0.0514  0.6239  0.0448
 4306SOL    HW117222   6.389   1.271   0.128  0.5964  2.1440 -0.4756
 4306SOL    HW217223   6.264   1.345   0.171 -0.6230 -0.4097  0.5898
 4306SOL     MW17224   6.342   1.310   0.189  0.0339  0.6894  0.0481
 4307SOL     OW17225   7.127   8.277   0.672 -0.4293  0.1043  0.4125
 4307SOL    HW117226   7.201   8.255   0.729 -0.3764  0.1240  0.3511
 4307SOL    HW217227   7.098   8.362   0.703 -0.0945  0.3394  0.1004
 4307SOL     MW17228   7.133   8.286   0.684 -0.3771  0.1386  0.3623
 4308SOL     OW17229   7.525   9.223   7.342 -0.3516  0.0909 -0.5346
 4308SOL    HW117230   7.513   9.303   7.291 -0.1973  1.2775  1.2138
 4308SOL    HW217231   7.477   9.238   7.423 -1.3889 -2.1280 -0.6639
 4308SOL     MW17232   7.517   9.236   7.346 -0.4704 -0.0480 -0.3167
 4309SOL     OW17233   6.893   8.340   7.479  0.2215 -0.0182  0.3108
 4309SOL    HW117234   6.835   8.288   7.424  1.6138 -1.2264 -0.0793
 4309SOL    HW217235   6.958   8.377   7.419  0.6942  0.1463  0.9019
 4309SOL     MW17236   6.894   8.338   7.464  0.4725 -0.1587  0.3378
 4310SOL     OW17237   6.885   9.816   2.703 -0.7398  0.5253 -0.2205
 4310SOL    HW117238   6.966   9.785   2.663 -0.8481  0.8103 -0.6806
 4310SOL    HW217239   6.824   9.824   2.629 -1.2720  0.0407  0.1624
 4310SOL     MW17240   6.887   9.813   2.687 -0.8260  0.4984 -0.2309
 4311SOL     OW17241   6.938   0.328   7.499 -0.1093 -0.2966 -0.1290
 4311SOL    HW117242   7.013   0.336   7.559 -0.3106  1.2376 -0.0378
 4311SOL    HW217243   6.978   0.323   7.412  0.1289 -0.1493 -0.0305
 4311SOL     MW17244   6.954   0.329   7.495 -0.1043 -0.0703 -0.1035
 4312SOL     OW17245   7.745   0.765   4.131  0.1666 -0.9593  0.7518
 4312SOL    HW117246   7.674   0.717   4.173 -2.1753  0.8701 -0.8911
 4312SOL    HW217247   7.709   0.795   4.048  1.3244  3.7441  1.6594
 4312SOL     MW17248   7.731   0.763   4.126  0.0073 -0.0801  0.6529
 4313SOL     OW17249   5.660   8.805   9.026 -0.4522 -0.1877  0.0570
 4313SOL    HW117250   5.591   8.763   9.077 -0.2103 -0.5017  0.1286
 4313SOL    HW217251   5.691   8.877   9.081  0.9550 -1.5296  1.1048
 4313SOL     MW17252   5.655   8.809   9.040 -0.2302 -0.4106  0.2077
 4314SOL     OW17253   6.446  10.044   7.754 -0.3568  0.1536  0.4109
 4314SOL    HW117254   6.488   9.981   7.813 -1.3205 -0.5704  0.3559
 4314SOL    HW217255   6.359  10.058   7.793 -0.4208  0.8879  0.0205
 4314SOL     MW17256   6.440  10.038   7.767 -0.4951  0.1550  0.3510
 4315SOL     OW17257   6.442   9.659   0.676 -0.1181  0.0741  0.2789
 4315SOL    HW117258   6.452   9.591   0.610 -0.1935 -0.8732  1.2046
 4315SOL    HW217259   6.453   9.742   0.629 -1.3181 -0.5317 -1.1098
 4315SOL     MW17260   6.445   9.661   0.661 -0.2897 -0.1349  0.2166
 4316SOL     OW17261   5.659   8.686   4.824 -0.0143  0.5826 -0.1293
 4316SOL    HW117262   5.636   8.603   4.782 -0.9359  0.8318 -0.1281
 4316SOL    HW217263   5.721   8.727   4.764 -0.1301  0.2392 -0.4893
 4316SOL     MW17264   5.664   8.680   4.810 -0.1539  0.5699 -0.1776
 4317SOL     OW17265   7.480   1.100   1.779 -0.6070 -0.6608  0.1334
 4317SOL    HW117266   7.406   1.159   1.787  0.2997  0.9557 -2.4563
 4317SOL    HW217267   7.520   1.100   1.866 -2.4457 -0.0114  1.0226
 4317SOL     MW17268   7.476   1.108   1.792 -0.7324 -0.3558 -0.0955
 4318SOL     OW17269   5.305   0.977   8.769 -0.3732  0.4817  0.0224
 4318SOL    HW117270   5.294   0.883   8.780  0.5200  0.3829  0.2003
 4318SOL    HW217271   5.245   1.016   8.833 -1.3927  0.0646 -0.6593
 4318SOL     MW17272   5.296   0.970   8.779 -0.3902  0.4122 -0.0454
 4319SOL     OW17273   6.393   9.499   3.152  0.6153  0.3836  0.6274
 4319SOL    HW117274   6.367   9.414   3.187  1.9354 -0.0673  0.5689
 4319SOL    HW217275   6.363   9.563   3.217 -3.2097  0.2563 -0.7377
 4319SOL     MW17276   6.385   9.496   3.165  0.2782  0.3058  0.4358
 4320SOL     OW17277   6.930   0.734   6.108 -0.3135  0.2014 -0.2453
 4320SOL    HW117278   6.999   0.671   6.091  1.2745  1.5402  0.9312
 4320SOL    HW217279   6.967   0.794   6.172 -1.9054  2.0639 -0.9531
 4320SOL     MW17280   6.944   0.734   6.114 -0.3140  0.6323 -0.1822
 4321SOL     OW17281   7.577   8.337   3.027  0.0332  0.3848 -0.1327
 4321SOL    HW117282   7.531   8.353   2.945  0.0210 -0.4312 -0.2984
 4321SOL    HW217283   7.524   8.270   3.071  0.4098  0.3166  0.2224
 4321SOL     MW17284   7.564   8.330   3.022  0.0823  0.2658 -0.1072
 4322SOL     OW17285   6.201   8.933   4.610 -0.3314  0.5630 -0.4807
 4322SOL    HW117286   6.156   9.016   4.595 -0.4503  0.2277 -2.1948
 4322SOL    HW217287   6.146   8.887   4.673 -0.8307  1.3568 -0.3276
 4322SOL     MW17288   6.187   8.938   4.616 -0.4146  0.6247 -0.6908
 4323SOL     OW17289   5.619   8.757   2.544  0.3953 -0.5971 -0.0678
 4323SOL    HW117290   5.647   8.697   2.612  0.2146  0.6335  1.1246
 4323SOL    HW217291   5.561   8.819   2.588 -0.3322 -0.2165 -1.4929
 4323SOL     MW17292   5.615   8.757   2.559  0.2731 -0.3802 -0.0991
 4324SOL     OW17293   7.409   9.766   8.305  0.0601 -0.0975  0.3720
 4324SOL    HW117294   7.442   9.851   8.274  0.9106 -0.6500 -0.2692
 4324SOL    HW217295   7.367   9.727   8.228 -0.3457 -0.2548  0.6707
 4324SOL     MW17296   7.408   9.772   8.290  0.1200 -0.1931  0.3259
 4325SOL     OW17297   5.459   0.055   9.870  0.4618  0.9297 -0.7149
 4325SOL    HW117298   5.533   0.070   9.812  0.7087  1.9428 -0.1622
 4325SOL    HW217299   5.401  -0.003   9.820  0.8969  1.3650 -1.7563
 4325SOL     MW17300   5.461   0.049   9.856  0.5536  1.1246 -0.7807
 4326SOL     OW17301   3.790   0.286   5.163  0.2641  0.0675 -0.1860
 4326SOL    HW117302   3.713   0.241   5.128  0.7720 -1.4289  0.5223
 4326SOL    HW217303   3.767   0.305   5.254  0.2323  0.8625 -0.3512
 4326SOL     MW17304   3.777   0.283   5.171  0.3282 -0.0269 -0.1129
 4327SOL     OW17305   7.118   9.555   4.802  0.5740  0.2708  0.3550
 4327SOL    HW117306   7.175   9.478   4.799  1.7807  1.0789  1.4749
 4327SOL    HW217307   7.124   9.593   4.714  1.5159  0.1623  0.3632
 4327SOL     MW17308   7.126   9.550   4.790  0.8631  0.3650  0.5068
 4328SOL     OW17309   5.712   0.732   0.523  0.1285 -0.0601 -0.1878
 4328SOL    HW117310   5.793   0.750   0.570 -0.3419 -1.1004  1.0829
 4328SOL    HW217311   5.710   0.797   0.453  0.6410  1.8482  1.4874
 4328SOL     MW17312   5.723   0.743   0.520  0.1342  0.0567  0.2087
 4329SOL     OW17313   6.806   9.031   5.361  0.5580 -0.5647  0.1942
 4329SOL    HW117314   6.848   9.086   5.427  1.0310  0.8810 -1.2376
 4329SOL    HW217315   6.730   9.081   5.332 -0.0668 -1.5123  0.1494
 4329SOL     MW17316   6.802   9.045   5.366  0.5376 -0.4977 -0.0045
 4330SOL     OW17317   6.836   8.088   1.155 -0.4295 -0.9013  0.4468
 4330SOL    HW117318   6.860   8.080   1.247  0.2452 -1.3573  0.2375
 4330SOL    HW217319   6.740   8.089   1.156 -0.4662 -2.0763  1.0744
 4330SOL     MW17320   6.826   8.087   1.168 -0.3436 -1.1208  0.5031
 4331SOL     OW17321   6.429   9.569   8.990 -0.0484  0.3186  0.0634
 4331SOL    HW117322   6.335   9.587   8.988 -0.1661 -0.3137 -0.2990
 4331SOL    HW217323   6.451   9.542   8.901  0.3525 -0.1232  0.2884
 4331SOL     MW17324   6.419   9.568   8.978 -0.0103  0.1741  0.0449
 4332SOL     OW17325   5.288   9.627   8.477 -0.2628 -0.7866  0.5680
 4332SOL    HW117326   5.274   9.588   8.391  2.2772  1.3790 -0.9968
 4332SOL    HW217327   5.263   9.719   8.466  1.4449 -0.1406  1.6698
 4332SOL     MW17328   5.283   9.635   8.464  0.3089 -0.4082  0.5057
 4333SOL     OW17329   4.697   0.666   5.216  0.6385 -0.5015  0.4643
 4333SOL    HW117330   4.700   0.677   5.121  0.1579 -0.5537  0.4429
 4333SOL    HW217331   4.717   0.754   5.250 -1.6341  0.1426  0.2948
 4333SOL     MW17332   4.700   0.679   5.208  0.2680 -0.4219  0.4386
 4334SOL     OW17333   6.892   0.609   7.488 -0.6810 -0.3886 -0.3831
 4334SOL    HW117334   6.894   0.668   7.564 -1.8274  1.0650 -1.4255
 4334SOL    HW217335   6.874   0.522   7.526 -1.3186  0.3086  1.0117
 4334SOL     MW17336   6.890   0.605   7.504 -0.9211 -0.0991 -0.3357
 4335SOL     OW17337   3.782   8.833   3.428 -0.1785  0.1207  0.0835
 4335SOL    HW117338   3.753   8.917   3.394  2.3233  1.8397  1.8610
 4335SOL    HW217339   3.774   8.842   3.523  4.5004  0.2777  0.6686
 4335SOL     MW17340   3.777   8.845   3.437  0.7878  0.3732  0.4015
 4336SOL     OW17341   5.326   1.002   9.771 -0.2908  0.1481  0.0318
 4336SOL    HW117342   5.422   1.000   9.771 -0.1831  0.4069  3.2326
 4336SOL    HW217343   5.305   1.095   9.759 -0.0313  0.3856  1.2738
 4336SOL     MW17344   5.336   1.014   9.769 -0.2414  0.2149  0.6297
 4337SOL     OW17345   6.564   9.083   7.440  0.0353 -0.8972  0.3285
 4337SOL    HW117346   6.539   9.045   7.524  1.3237  0.8255  1.5677
 4337SOL    HW217347   6.651   9.046   7.423 -0.3660 -1.5065 -0.4406
 4337SOL     MW17348   6.573   9.073   7.449  0.1547 -0.7474  0.3918
 4338SOL     OW17349   4.901   0.488   5.244  0.4022  0.5909  0.3702
 4338SOL    HW117350   4.836   0.554   5.222 -0.5918 -0.3621  0.3762
 4338SOL    HW217351   4.957   0.482   5.167 -0.8895 -0.1804 -0.5347
 4338SOL     MW17352   4.900   0.496   5.231  0.0946  0.3588  0.2492
 4339SOL     OW17353   6.805   9.316   5.106  0.7511  0.1629 -0.0041
 4339SOL    HW117354   6.754   9.392   5.077  0.4995 -0.2355 -0.6370
 4339SOL    HW217355   6.771   9.296   5.193 -0.3844 -0.2588 -0.5249
 4339SOL     MW17356   6.793   9.323   5.114  0.5644  0.0525 -0.1594
 4340SOL     OW17357   7.908  10.018   5.904 -0.3312 -0.0935  0.5510
 4340SOL    HW117358   7.940  10.078   5.971 -0.5020 -0.0726  0.6145
 4340SOL    HW217359   7.972   9.946   5.903  0.0711  0.2577  0.2252
 4340SOL     MW17360   7.921  10.016   5.913 -0.3001 -0.0434  0.5157
 4341SOL     OW17361   5.870  10.004   9.256 -0.1696 -0.1798 -0.1177
 4341SOL    HW117362   5.915  10.038   9.333  0.1072 -0.7451 -0.0225
 4341SOL    HW217363   5.934  10.015   9.185  0.6520 -2.1675  0.2589
 4341SOL     MW17364   5.885  10.010   9.257 -0.0218 -0.5234 -0.0542
 4342SOL     OW17365   3.997   0.466   2.697 -0.3029  0.8435 -0.4809
 4342SOL    HW117366   4.064   0.401   2.714 -1.3176 -0.0559  0.1626
 4342SOL    HW217367   4.009   0.488   2.604  0.9313  0.7871 -0.3559
 4342SOL     MW17368   4.008   0.460   2.687 -0.2733  0.7149 -0.3775
 4343SOL     OW17369   4.700   8.781   5.918 -0.3410 -0.0209 -0.1151
 4343SOL    HW117370   4.613   8.812   5.944 -0.0063  2.2199 -1.4061
 4343SOL    HW217371   4.691   8.760   5.825  0.3979 -0.1741 -0.1582
 4343SOL     MW17372   4.687   8.782   5.909 -0.1965  0.2600 -0.2946
 4344SOL     OW17373   7.217   9.179   3.756  0.3899  0.2019 -0.1448
 4344SOL    HW117374   7.254   9.124   3.687 -0.0753  0.8873 -0.9600
 4344SOL    HW217375   7.179   9.253   3.709  0.0687  0.6795  0.8569
 4344SOL     MW17376   7.217   9.181   3.740  0.2840  0.3584 -0.1197
 4345SOL     OW17377   4.211   9.904   1.412  0.4361  0.0036  0.0664
 4345SOL    HW117378   4.164   9.845   1.471 -1.1444  0.7454 -0.4034
 4345SOL    HW217379   4.271   9.952   1.468 -0.4992  0.1589  0.9594
 4345SOL     MW17380   4.213   9.902   1.427  0.0975  0.1243  0.1233
 4346SOL     OW17381   7.718   9.772   8.606  0.0749  0.1758 -0.3586
 4346SOL    HW117382   7.742   9.745   8.695  0.8228  0.6971 -0.4000
 4346SOL    HW217383   7.632   9.732   8.592  0.2170 -0.4073  0.3753
 4346SOL     MW17384   7.710   9.763   8.616  0.1947  0.1675 -0.2654
 4347SOL     OW17385   6.824   1.205   9.604 -0.1730 -0.2165 -0.0865
 4347SOL    HW117386   6.885   1.278   9.607 -1.7970  1.2644 -1.1518
 4347SOL    HW217387   6.874   1.130   9.638  1.6099  1.3127  0.8248
 4347SOL     MW17388   6.839   1.204   9.609 -0.1516  0.1886 -0.1072
 4348SOL     OW17389   5.241   0.551   0.868  0.2424  0.1769  0.6349
 4348SOL    HW117390   5.308   0.618   0.856  0.7766 -0.5490 -0.7191
 4348SOL    HW217391   5.167   0.581   0.816  0.0179  0.3121  1.0288
 4348SOL     MW17392   5.240   0.564   0.859  0.2841  0.0974  0.5057
 4349SOL     OW17393   7.396   9.829   2.025 -0.3050 -0.5833 -0.1268
 4349SOL    HW117394   7.398   9.818   2.120 -1.1675 -0.2366 -0.0553
 4349SOL    HW217395   7.412   9.922   2.011 -1.7545 -0.3161 -0.2116
 4349SOL     MW17396   7.398   9.840   2.036 -0.6162 -0.5007 -0.1286
 4350SOL     OW17397   3.790  10.044   9.805  0.0736  0.6249 -0.0352
 4350SOL    HW117398   3.877  10.052   9.766 -0.2679  0.9583 -0.7523
 4350SOL    HW217399   3.804  10.056   9.899  0.6634  1.7348 -0.2481
 4350SOL     MW17400   3.804  10.046   9.812  0.1070  0.8191 -0.1603
 4351SOL     OW17401   4.821   1.330   1.086 -1.0206 -0.3145 -0.2511
 4351SOL    HW117402   4.880   1.383   1.140 -0.5011 -0.9154 -0.2195
 4351SOL    HW217403   4.865   1.245   1.079 -0.1535  0.2596 -3.1243
 4351SOL     MW17404   4.835   1.326   1.092 -0.8340 -0.3181 -0.6335
 4352SOL     OW17405   6.340   8.508   9.907 -0.0765  0.2522 -0.2572
 4352SOL    HW117406   6.275   8.577   9.919  0.1372  0.3453  0.4282
 4352SOL    HW217407   6.419   8.540   9.950  0.3982  0.0913 -0.9883
 4352SOL     MW17408   6.342   8.521   9.915  0.0162  0.2430 -0.2633
 4353SOL     OW17409   5.936   0.976   6.242 -0.1388  0.7740 -0.1022
 4353SOL    HW117410   5.935   0.975   6.147 -1.2266 -0.5449 -0.1108
 4353SOL    HW217411   5.956   1.067   6.265  0.3906  1.0572 -1.5705
 4353SOL     MW17412   5.938   0.988   6.233 -0.2139  0.6346 -0.3009
 4354SOL     OW17413   4.490   0.210   7.381  0.4478  0.0865 -0.3572
 4354SOL    HW117414   4.463   0.258   7.303  0.5585  1.8386  0.6436
 4354SOL    HW217415   4.425   0.141   7.389 -0.7773  1.1445 -0.8408
 4354SOL     MW17416   4.478   0.207   7.371  0.2978  0.4647 -0.2876
 4355SOL     OW17417   6.125   8.125   0.973 -0.2351 -0.0824  0.6722
 4355SOL    HW117418   6.185   8.061   0.935 -1.1248  0.0893 -1.1523
 4355SOL    HW217419   6.168   8.210   0.956  0.2096 -0.0909  1.6973
 4355SOL     MW17420   6.139   8.128   0.965 -0.2950 -0.0604  0.5646
 4356SOL     OW17421   6.348   9.929   9.561  0.3055 -0.3261 -0.4324
 4356SOL    HW117422   6.254   9.909   9.561  0.3553 -0.6626  0.6350
 4356SOL    HW217423   6.362   9.977   9.643  1.2714 -1.3731  0.0478
 4356SOL     MW17424   6.337   9.933   9.572  0.4422 -0.5123 -0.2242
 4357SOL     OW17425   4.296   9.848   7.055  0.0877 -0.4121  0.0809
 4357SOL    HW117426   4.364   9.799   7.009  0.4622 -0.1992  0.4034
 4357SOL    HW217427   4.327   9.853   7.146  1.5646  2.9511 -0.4470
 4357SOL     MW17428   4.310   9.842   7.061  0.3368  0.0692  0.0532
 4358SOL     OW17429   3.981   0.242   1.747  0.1940 -0.1995 -0.3914
 4358SOL    HW117430   3.904   0.280   1.790 -0.6180 -0.7257 -1.3325
 4358SOL    HW217431   4.002   0.305   1.677 -1.0418 -1.3065 -1.8359
 4358SOL     MW17432   3.973   0.256   1.743 -0.0816 -0.4193 -0.7125
 4359SOL     OW17433   5.327   7.975   1.806  0.2318 -0.7852  0.2021
 4359SOL    HW117434   5.394   8.045   1.803 -0.3283 -0.1934  1.0479
 4359SOL    HW217435   5.306   7.966   1.899  0.1367 -1.9501  0.0813
 4359SOL     MW17436   5.334   7.983   1.818  0.1436 -0.8624  0.2997
 4360SOL     OW17437   6.388   9.295   9.689  0.4904  0.0426 -0.3251
 4360SOL    HW117438   6.347   9.349   9.622  0.6145 -0.1954 -0.5972
 4360SOL    HW217439   6.482   9.314   9.682  0.3643  1.3300  0.9568
 4360SOL     MW17440   6.395   9.305   9.679  0.4901  0.1838 -0.1892
 4361SOL     OW17441   4.306   8.598   0.107 -0.4701 -0.7880 -0.3202
 4361SOL    HW117442   4.379   8.631   0.160 -1.3427 -0.6573  0.8395
 4361SOL    HW217443   4.340   8.520   0.063  0.9144  0.2926 -1.2438
 4361SOL     MW17444   4.320   8.592   0.108 -0.4012 -0.6250 -0.2884
 4362SOL     OW17445   6.336   1.351   1.785 -0.3753 -0.6169  0.1140
 4362SOL    HW117446   6.302   1.263   1.774 -0.2055 -0.8535  1.2962
 4362SOL    HW217447   6.408   1.341   1.847 -0.2027  0.3172  0.0768
 4362SOL     MW17448   6.341   1.338   1.792 -0.3292 -0.5230  0.2681
 4363SOL     OW17449   5.148   9.737   0.413 -0.0979  0.1490 -0.2134
 4363SOL    HW117450   5.222   9.685   0.383  1.8162  1.0124  2.5846
 4363SOL    HW217451   5.108   9.685   0.483  0.4894  1.4016  1.1094
 4363SOL     MW17452   5.153   9.723   0.418  0.2388  0.4338  0.3412
 4364SOL     OW17453   7.309   9.318   6.366  0.4753  0.1730  0.2428
 4364SOL    HW117454   7.241   9.261   6.402  0.9468 -0.9465 -0.6032
 4364SOL    HW217455   7.346   9.361   6.443 -0.9838  0.6016  0.7479
 4364SOL     MW17456   7.305   9.316   6.381  0.3424  0.0800  0.1970
 4365SOL     OW17457   6.796   8.774   2.592 -0.6817 -0.0577  0.6587
 4365SOL    HW117458   6.875   8.757   2.643 -1.3088 -2.1462  1.0557
 4365SOL    HW217459   6.734   8.810   2.656 -0.2419  1.0628  0.4681
 4365SOL     MW17460   6.799   8.777   2.608 -0.7069 -0.1879  0.6865
 4366SOL     OW17461   7.062   9.480   2.346 -0.3400 -0.0923 -0.1176
 4366SOL    HW117462   7.048   9.482   2.252 -2.5716 -0.2571  0.1660
 4366SOL    HW217463   7.072   9.387   2.366 -3.1393 -0.3968  0.1702
 4366SOL     MW17464   7.062   9.468   2.336 -1.0171 -0.1555 -0.0407
 4367SOL     OW17465   5.047   8.254   7.004 -0.3286  0.1167  0.1548
 4367SOL    HW117466   4.970   8.307   7.023 -1.1535 -0.9491 -0.0567
 4367SOL    HW217467   5.023   8.166   7.035  0.7724 -0.2510 -0.0008
 4367SOL     MW17468   5.034   8.249   7.011 -0.2914 -0.0762  0.1054
 4368SOL     OW17469   4.562   8.200   4.238 -0.7803 -0.0420  0.0047
 4368SOL    HW117470   4.467   8.208   4.243 -0.7439  1.4838 -1.0907
 4368SOL    HW217471   4.583   8.219   4.147  0.4928 -1.6767 -0.0999
 4368SOL     MW17472   4.552   8.204   4.227 -0.6041 -0.0567 -0.1568
 4369SOL     OW17473   7.108   0.478   1.062  0.0034  0.3243  0.6225
 4369SOL    HW117474   7.162   0.451   0.988 -1.1025  0.6457 -0.3413
 4369SOL    HW217475   7.035   0.417   1.062  0.0468  0.2627  1.5248
 4369SOL     MW17476   7.105   0.466   1.052 -0.1396  0.3592  0.6142
 4370SOL     OW17477   4.831   8.739   4.308  0.8578 -0.1409  0.2135
 4370SOL    HW117478   4.765   8.696   4.254 -1.0662  1.4403  1.1790
 4370SOL    HW217479   4.909   8.743   4.252 -0.1116 -1.2869 -1.2931
 4370SOL     MW17480   4.832   8.734   4.293  0.4684 -0.0823  0.1407
 4371SOL     OW17481   4.316   8.931   0.313  0.6667  0.3035 -0.3385
 4371SOL    HW117482   4.315   8.980   0.395  1.2335  2.9374 -1.8098
 4371SOL    HW217483   4.225   8.930   0.284  0.7227  0.9021 -0.5343
 4371SOL     MW17484   4.304   8.937   0.320  0.7505  0.7385 -0.5628
 4372SOL     OW17485   5.349   8.082   1.544  0.0735  0.1179 -0.0534
 4372SOL    HW117486   5.438   8.048   1.541  0.0876  0.0549  0.8538
 4372SOL    HW217487   5.320   8.067   1.634 -0.2954  1.5497  0.1004
 4372SOL     MW17488   5.357   8.075   1.556  0.0257  0.3021  0.0894
 4373SOL     OW17489   4.297   0.516   9.027  0.4940 -0.4427  0.1633
 4373SOL    HW117490   4.237   0.565   8.970  0.8752  0.7715  0.7524
 4373SOL    HW217491   4.249   0.437   9.050 -1.4409  1.0126  1.5479
 4373SOL     MW17492   4.282   0.512   9.022  0.2849 -0.0834  0.4289
 4374SOL     OW17493   5.743   1.724  10.121 -0.2103 -0.3714  0.5122
 4374SOL    HW117494   5.669   1.771  10.159  0.3855  0.8331  0.2534
 4374SOL    HW217495   5.724   1.632  10.136 -0.7375  0.0054  2.3180
 4374SOL     MW17496   5.731   1.718  10.128 -0.2011 -0.1586  0.7204
 4375SOL     OW17497   5.204   1.598   8.978  0.3179 -0.2660  0.4636
 4375SOL    HW117498   5.183   1.687   8.952  2.1637  0.1674  0.2607
 4375SOL    HW217499   5.168   1.543   8.908  1.8438  0.5949 -1.0916
 4375SOL     MW17500   5.197   1.603   8.965  0.7717 -0.0918  0.2270
 4376SOL     OW17501   6.402   9.388   6.257 -0.0620 -0.0967 -0.4372
 4376SOL    HW117502   6.325   9.355   6.304  0.0769  0.0756 -0.0904
 4376SOL    HW217503   6.404   9.337   6.176  0.3759 -1.2351  0.2704
 4376SOL     MW17504   6.392   9.377   6.252  0.0156 -0.2267 -0.2953
 4377SOL     OW17505   4.861   0.119   5.683  0.0849 -0.2894  0.4398
 4377SOL    HW117506   4.850   0.167   5.600 -0.3673  0.4429  0.9131
 4377SOL    HW217507   4.936   0.161   5.725  1.3898 -1.7473 -0.3302
 4377SOL     MW17508   4.870   0.131   5.677  0.1996 -0.3870  0.3999
 4378SOL     OW17509   5.795   8.673   5.663 -0.4117  0.2252 -0.6613
 4378SOL    HW117510   5.823   8.763   5.646  0.9247 -0.0527 -0.0730
 4378SOL    HW217511   5.835   8.651   5.747 -2.9060 -0.0526  0.5470
 4378SOL     MW17512   5.804   8.683   5.672 -0.5675  0.1504 -0.4195
 4379SOL     OW17513   5.324   9.091   2.179  0.1202  0.3961  0.1958
 4379SOL    HW117514   5.297   9.068   2.090 -1.1347  0.1378  0.6309
 4379SOL    HW217515   5.413   9.055   2.187  0.2443  0.4171 -0.9379
 4379SOL     MW17516   5.333   9.083   2.168 -0.0320  0.3641  0.1018
 4380SOL     OW17517   5.738   8.311   5.838 -0.1381 -0.3007 -0.0355
 4380SOL    HW117518   5.793   8.269   5.904 -1.0778 -1.0119  0.3291
 4380SOL    HW217519   5.787   8.303   5.757  0.1963 -1.1362  0.2365
 4380SOL     MW17520   5.752   8.304   5.836 -0.2196 -0.5088  0.0502
 4381SOL     OW17521   5.796   9.021   9.174 -0.1888  0.4195  0.4191
 4381SOL    HW117522   5.762   9.071   9.100 -1.0646 -1.7293 -0.6988
 4381SOL    HW217523   5.891   9.020   9.160 -0.4351 -1.4833 -1.8030
 4381SOL     MW17524   5.804   9.028   9.162 -0.3398 -0.1257 -0.0304
 4382SOL     OW17525   5.564   9.411  10.131 -0.4178  0.2893  0.0126
 4382SOL    HW117526   5.530   9.490  10.088 -1.7421  0.0708  0.6321
 4382SOL    HW217527   5.588   9.440  10.219  1.1671  0.4608 -0.4315
 4382SOL     MW17528   5.563   9.426  10.137 -0.3827  0.2830  0.0362
 4383SOL     OW17529   6.727   1.534   1.753 -0.2384  0.0586  0.1172
 4383SOL    HW117530   6.669   1.609   1.740 -1.2870 -1.0574 -2.1091
 4383SOL    HW217531   6.672   1.468   1.796 -0.0931 -0.3395 -0.2960
 4383SOL     MW17532   6.712   1.535   1.757 -0.3600 -0.1451 -0.2380
 4384SOL     OW17533   4.090   9.685   6.537 -0.3181  0.2051 -0.4096
 4384SOL    HW117534   4.121   9.624   6.471 -1.6448 -0.6620 -0.2650
 4384SOL    HW217535   4.032   9.745   6.490 -0.0944  0.5181 -0.2958
 4384SOL     MW17536   4.086   9.685   6.522 -0.4665  0.1305 -0.3748
 4385SOL     OW17537   6.181   9.103   6.801 -0.0119  0.1795 -0.0081
 4385SOL    HW117538   6.112   9.074   6.742 -1.3860  1.2298  1.0368
 4385SOL    HW217539   6.211   9.186   6.763 -0.0375  0.2381  0.0991
 4385SOL     MW17540   6.176   9.111   6.788 -0.2003  0.3288  0.1469
 4386SOL     OW17541   5.136   7.776   6.738 -0.1231 -0.0446 -0.4729
 4386SOL    HW117542   5.125   7.721   6.816 -0.5881  0.0445 -0.4739
 4386SOL    HW217543   5.054   7.824   6.731  0.6653  1.4856  0.1547
 4386SOL     MW17544   5.124   7.775   6.748 -0.0796  0.1733 -0.3885
 4387SOL     OW17545   5.233   7.619   0.599  0.1197  0.0180  0.3328
 4387SOL    HW117546   5.164   7.552   0.606  0.5400 -0.2942  2.1726
 4387SOL    HW217547   5.266   7.611   0.510 -0.2898 -1.8064  0.3066
 4387SOL     MW17548   5.228   7.609   0.588  0.1212 -0.2695  0.5769
 4388SOL     OW17549   5.830   8.765   4.635  0.0493  0.1637  0.2286
 4388SOL    HW117550   5.823   8.803   4.547 -0.1099  1.5513  0.8107
 4388SOL    HW217551   5.903   8.704   4.628  0.2993  0.5499 -0.7781
 4388SOL     MW17552   5.839   8.762   4.622  0.0615  0.4025  0.1714
 4389SOL     OW17553   7.304   9.772   5.917  0.0915 -0.1185  0.0122
 4389SOL    HW117554   7.236   9.732   5.863  1.9769 -2.5113 -0.8130
 4389SOL    HW217555   7.352   9.698   5.954  2.2592  1.4111  0.5091
 4389SOL     MW17556   7.301   9.757   5.914  0.6370 -0.2347 -0.0320
 4390SOL     OW17557   4.446   7.851   6.133 -0.0669  0.0350 -0.1040
 4390SOL    HW117558   4.475   7.775   6.083  0.2981  0.7147 -0.9547
 4390SOL    HW217559   4.517   7.915   6.123 -1.0763  1.0919 -0.7916
 4390SOL     MW17560   4.460   7.849   6.125 -0.1536  0.2687 -0.3110
 4391SOL     OW17561   3.699   9.504   6.774  0.2759 -0.0295 -0.0214
 4391SOL    HW117562   3.786   9.545   6.777  0.3390  0.0295 -1.7642
 4391SOL    HW217563   3.716   9.411   6.787  0.6765 -0.0861 -0.8906
 4391SOL     MW17564   3.713   9.497   6.776  0.3383 -0.0292 -0.3729
 4392SOL     OW17565   6.114   9.864   4.471  0.0460 -0.1355 -0.2674
 4392SOL    HW117566   6.139   9.784   4.517  0.2704  0.1718  0.1542
 4392SOL    HW217567   6.053   9.908   4.530 -0.7099 -0.3799 -0.8490
 4392SOL     MW17568   6.109   9.859   4.485 -0.0256 -0.1270 -0.2889
 4393SOL     OW17569   5.820   0.804   3.852  0.1820 -0.0702  0.6667
 4393SOL    HW117570   5.778   0.871   3.905 -1.4235  0.2874 -0.9661
 4393SOL    HW217571   5.906   0.841   3.831 -0.7558  1.6790 -0.4191
 4393SOL     MW17572   5.826   0.818   3.856 -0.1603  0.2133  0.3008
 4394SOL     OW17573   6.833   0.093   7.623 -0.0437  0.2791  0.3049
 4394SOL    HW117574   6.870   0.163   7.568 -0.1659  0.0177 -0.1178
 4394SOL    HW217575   6.740   0.116   7.630 -0.3155 -0.4378 -0.7753
 4394SOL     MW17576   6.826   0.106   7.616 -0.0967  0.1475  0.1026
 4395SOL     OW17577   5.204   0.499   4.649  0.1706 -0.1229  0.1716
 4395SOL    HW117578   5.222   0.515   4.556  0.5554 -0.0672  0.2539
 4395SOL    HW217579   5.123   0.547   4.666  0.2999  0.1789 -0.0489
 4395SOL     MW17580   5.196   0.508   4.639  0.2398 -0.0748  0.1530
 4396SOL     OW17581   4.483   0.795   4.393 -0.1691 -0.4617 -0.2555
 4396SOL    HW117582   4.410   0.781   4.453 -0.2901 -0.8873 -0.4926
 4396SOL    HW217583   4.516   0.707   4.375  1.6440 -0.1559  1.3530
 4396SOL     MW17584   4.478   0.781   4.398  0.0586 -0.4778 -0.0709
 4397SOL     OW17585   5.239  10.084   3.641  0.1356  0.5213  0.1269
 4397SOL    HW117586   5.208  10.109   3.728  0.1176  2.1022 -0.3024
 4397SOL    HW217587   5.318  10.136   3.627  1.4480 -1.3755  0.0698
 4397SOL     MW17588   5.245  10.094   3.651  0.3098  0.4788  0.0614
 4398SOL     OW17589   5.437   0.974   6.367  0.1149  0.4420 -0.5029
 4398SOL    HW117590   5.440   1.004   6.276 -0.4647 -1.0731 -1.0459
 4398SOL    HW217591   5.517   1.010   6.406  0.1609  1.4759 -1.4708
 4398SOL     MW17592   5.448   0.983   6.360  0.0431  0.3772 -0.7063
 4399SOL     OW17593   4.876   0.073   1.166 -0.0821 -0.0577  0.0727
 4399SOL    HW117594   4.794   0.122   1.171 -0.5088 -0.8420  1.1316
 4399SOL    HW217595   4.881   0.044   1.075 -1.0294 -0.0828  0.0251
 4399SOL     MW17596   4.866   0.076   1.154 -0.2670 -0.1667  0.2088
 4400SOL     OW17597   6.533   9.403   2.591  0.1459 -0.6683  0.2132
 4400SOL    HW117598   6.492   9.357   2.665  3.1970 -2.0592  1.2165
 4400SOL    HW217599   6.608   9.448   2.631  0.8703 -0.0261 -1.7871
 4400SOL     MW17600   6.538   9.403   2.607  0.6540 -0.7691  0.0790
 4401SOL     OW17601   7.115   8.369   8.713 -0.0902 -0.2912 -0.0081
 4401SOL    HW117602   7.057   8.296   8.736  0.5442 -0.9695 -0.5163
 4401SOL    HW217603   7.115   8.370   8.617  0.2740  0.0840 -0.0071
 4401SOL     MW17604   7.107   8.360   8.703  0.0442 -0.3320 -0.0763
 4402SOL     OW17605   4.957   1.490   5.397  0.1328  0.0365  0.2072
 4402SOL    HW117606   4.914   1.570   5.366  1.5162  2.0178  2.9334
 4402SOL    HW217607   4.930   1.482   5.489  1.6424 -1.4643  0.5752
 4402SOL     MW17608   4.948   1.500   5.405  0.5221  0.1011  0.6236
 4403SOL     OW17609   4.364  -0.003   9.525  0.3500 -0.0695 -0.5207
 4403SOL    HW117610   4.407   0.077   9.555 -0.5474 -0.1684  1.2049
 4403SOL    HW217611   4.430  -0.048   9.473  1.1093  1.4440 -0.9453
 4403SOL     MW17612   4.378   0.002   9.522  0.3314  0.1209 -0.3456
 4404SOL     OW17613   7.252   0.241   9.344 -0.0210 -0.3360 -0.4118
 4404SOL    HW117614   7.291   0.213   9.427 -1.4708 -1.3545 -0.0361
 4404SOL    HW217615   7.204   0.322   9.366  0.1037 -0.2672 -0.3929
 4404SOL     MW17616   7.251   0.248   9.358 -0.1993 -0.4638 -0.3587
 4405SOL     OW17617   5.722   8.969   9.811 -0.7721 -0.5650  0.2415
 4405SOL    HW117618   5.743   8.911   9.885  1.3975 -0.3159 -0.1102
 4405SOL    HW217619   5.720   9.056   9.850  0.2644 -0.4457  0.0686
 4405SOL     MW17620   5.725   8.973   9.826 -0.3406 -0.5154  0.1709
 4406SOL     OW17621   5.706   9.811   9.382  0.2998 -0.2192  0.1599
 4406SOL    HW117622   5.689   9.731   9.333 -0.7910 -0.3689  0.7389
 4406SOL    HW217623   5.756   9.866   9.322 -1.1811 -0.3100 -1.2387
 4406SOL     MW17624   5.710   9.808   9.367 -0.0463 -0.2516  0.0496
 4407SOL     OW17625   4.229   0.733   0.894  0.1663  0.0522 -0.0157
 4407SOL    HW117626   4.183   0.653   0.921  1.0436 -0.2743  0.5708
 4407SOL    HW217627   4.175   0.770   0.824 -1.5611  0.2613  1.3569
 4407SOL     MW17628   4.215   0.727   0.888  0.0519  0.0364  0.2479
 4408SOL     OW17629   4.424   9.949   0.514  0.1754  0.4614 -0.4711
 4408SOL    HW117630   4.333   9.921   0.525  0.0830  1.1336  0.6190
 4408SOL    HW217631   4.472   9.901   0.582  0.2323  1.8861  0.5421
 4408SOL     MW17632   4.418   9.939   0.525  0.1706  0.7436 -0.1880
 4409SOL     OW17633   7.695   9.716   8.012 -0.2118  0.3012  0.3032
 4409SOL    HW117634   7.626   9.668   7.967 -0.3384 -0.4854  1.2941
 4409SOL    HW217635   7.691   9.804   7.976  0.1597 -0.4599 -1.7385
 4409SOL     MW17636   7.685   9.721   8.001 -0.1789  0.0930  0.1618
 4410SOL     OW17637   7.890   9.906   3.768 -0.1925  0.1670 -0.3043
 4410SOL    HW117638   7.804   9.941   3.792 -0.1547 -1.5772  2.8526
 4410SOL    HW217639   7.952   9.965   3.811 -0.0465 -1.6425  2.1424
 4410SOL     MW17640   7.887   9.919   3.777 -0.1678 -0.3113  0.4498
 4411SOL     OW17641   6.974  10.029   0.507  0.2987  0.3865 -0.1078
 4411SOL    HW117642   6.941   9.943   0.479 -0.3614  1.2885 -2.3833
 4411SOL    HW217643   6.895  10.082   0.519  0.7328  1.0541 -0.1318
 4411SOL     MW17644   6.959  10.025   0.505  0.2683  0.5978 -0.4173
 4412SOL     OW17645   5.291   7.770   7.394 -0.1773  0.0843  1.0690
 4412SOL    HW117646   5.292   7.710   7.319 -1.0866 -0.6914  1.6611
 4412SOL    HW217647   5.383   7.778   7.419  0.1446  0.3462 -0.1058
 4412SOL     MW17648   5.304   7.763   7.387 -0.2564  0.0152  0.9906
 4413SOL     OW17649   5.927   9.787   3.829  0.3038  0.2717 -0.0700
 4413SOL    HW117650   5.838   9.817   3.812  0.5045  0.6766 -0.4357
 4413SOL    HW217651   5.982   9.844   3.775  0.7601 -0.1859 -0.0953
 4413SOL     MW17652   5.923   9.799   3.820  0.3922  0.2646 -0.1226
 4414SOL     OW17653   6.038   7.996   2.681 -0.0698 -0.2891 -0.0692
 4414SOL    HW117654   5.972   7.929   2.665  1.0057 -1.6221  0.8157
 4414SOL    HW217655   5.992   8.064   2.730 -1.0155 -0.7062 -0.3645
 4414SOL     MW17656   6.023   7.996   2.686 -0.0523 -0.5246  0.0101
 4415SOL     OW17657   6.566   9.450   8.316 -0.0980  0.2078 -0.1423
 4415SOL    HW117658   6.598   9.360   8.313  0.1976  0.3106 -0.1041
 4415SOL    HW217659   6.569   9.479   8.224 -2.3615 -0.5646 -0.5237
 4415SOL     MW17660   6.571   9.442   8.303 -0.3628  0.1177 -0.1885
 4416SOL     OW17661   6.746   0.521   3.018  0.2954 -0.1321 -0.1635
 4416SOL    HW117662   6.746   0.563   2.932 -1.2184  1.2602  0.4690
 4416SOL    HW217663   6.702   0.437   3.004 -0.9892  0.5922 -0.5454
 4416SOL     MW17664   6.740   0.515   3.005 -0.0812  0.1528 -0.1298
 4417SOL     OW17665   4.942   1.559   8.383 -0.1179 -0.1057  0.1394
 4417SOL    HW117666   5.024   1.583   8.427  0.2311 -2.9684  1.2756
 4417SOL    HW217667   4.969   1.528   8.297 -0.1716  0.3137 -0.0285
 4417SOL     MW17668   4.957   1.558   8.378 -0.0782 -0.4345  0.2697
 4418SOL     OW17669   6.521   0.040   1.045 -0.5973  0.1761  0.0008
 4418SOL    HW117670   6.596  -0.004   1.005 -0.5536  0.7835 -0.5890
 4418SOL    HW217671   6.480  -0.028   1.099  0.5705 -0.0624  0.6091
 4418SOL     MW17672   6.526   0.025   1.047 -0.4343  0.2257  0.0033
 4419SOL     OW17673   7.091   9.833   1.128 -0.0700  1.1188 -0.3344
 4419SOL    HW117674   7.154   9.805   1.194 -1.0476  1.5705  0.8233
 4419SOL    HW217675   7.011   9.854   1.177 -1.1173  0.6364 -1.7397
 4419SOL     MW17676   7.088   9.832   1.143 -0.3425  1.1147 -0.3677
 4420SOL     OW17677   6.355   9.093   8.721 -0.0572 -0.2217  0.2723
 4420SOL    HW117678   6.284   9.116   8.781 -0.4992  0.7673 -0.6061
 4420SOL    HW217679   6.432   9.139   8.755  0.4734 -2.1561  1.8554
 4420SOL     MW17680   6.356   9.102   8.734 -0.0453 -0.3490  0.3672
 4421SOL     OW17681   6.061   8.062   3.944  0.0951  0.4770  0.4915
 4421SOL    HW117682   6.064   8.142   3.891 -0.8436  0.8696  1.0014
 4421SOL    HW217683   6.148   8.024   3.934  0.4367  1.3509 -0.0810
 4421SOL     MW17684   6.073   8.068   3.935  0.0147  0.6475  0.4831
 4422SOL     OW17685   5.988   9.451   6.724 -0.0452  0.3626  0.0830
 4422SOL    HW117686   5.938   9.381   6.767  0.7100  0.3090  0.8964
 4422SOL    HW217687   5.991   9.521   6.788 -0.2782  0.9213 -0.5055
 4422SOL     MW17688   5.981   9.451   6.738  0.0251  0.4306  0.1132
 4423SOL     OW17689   6.937   0.942   5.753  0.1524 -0.0787 -0.1539
 4423SOL    HW117690   6.961   0.852   5.730  1.0816  0.6779 -2.4069
 4423SOL    HW217691   6.850   0.934   5.793  1.1843 -2.1721  1.8759
 4423SOL     MW17692   6.928   0.929   5.755  0.4163 -0.2586 -0.1839
 4424SOL     OW17693   6.492   9.978   6.812 -0.3352  0.4504  0.1713
 4424SOL    HW117694   6.574   9.949   6.854  0.2651 -0.1450 -1.3544
 4424SOL    HW217695   6.502  10.072   6.802  0.9948  0.1650 -1.6437
 4424SOL     MW17696   6.504   9.986   6.817 -0.0754  0.3319 -0.2783
 4425SOL     OW17697   4.298   9.198   5.619 -0.1079 -0.0235  0.6809
 4425SOL    HW117698   4.366   9.132   5.606  2.1047  1.7105  2.4789
 4425SOL    HW217699   4.345   9.281   5.615 -2.0353  1.2358  2.4681
 4425SOL     MW17700   4.314   9.200   5.617 -0.0695  0.3793  1.1634
 4426SOL     OW17701   6.525   0.214   9.065 -0.4655 -0.0128  0.4944
 4426SOL    HW117702   6.580   0.163   9.124  0.2745 -0.1477 -0.2836
 4426SOL    HW217703   6.496   0.288   9.118  1.5520  0.7787  0.5957
 4426SOL     MW17704   6.529   0.217   9.080 -0.0944  0.0756  0.4033
 4427SOL     OW17705   7.777   8.483   4.053 -0.0122 -0.1003  0.6270
 4427SOL    HW117706   7.765   8.431   4.133 -2.2956  0.8655  0.9811
 4427SOL    HW217707   7.813   8.566   4.083 -0.3237  0.0538  0.5723
 4427SOL     MW17708   7.780   8.487   4.068 -0.3614  0.0504  0.6673
 4428SOL     OW17709   6.772   1.706   6.647 -0.0726 -0.1931  0.3181
 4428SOL    HW117710   6.699   1.651   6.676 -0.2036  0.2234  0.8040
 4428SOL    HW217711   6.732   1.774   6.593  0.0778 -0.5303 -0.2129
 4428SOL     MW17712   6.757   1.708   6.644 -0.0700 -0.1824  0.3120
 4429SOL     OW17713   3.993   0.703   5.745  0.2803  0.3305 -0.0296
 4429SOL    HW117714   4.060   0.769   5.725  0.1101  0.7354  0.7113
 4429SOL    HW217715   3.984   0.653   5.664  0.3037  1.3121 -0.6507
 4429SOL     MW17716   4.001   0.705   5.731  0.2605  0.5171 -0.0135
 4430SOL     OW17717   5.793   0.485   0.436  0.3905 -0.2826 -0.0981
 4430SOL    HW117718   5.769   0.565   0.483 -1.7150  0.4375 -2.1852
 4430SOL    HW217719   5.710   0.452   0.400  1.5727 -1.9365 -1.5103
 4430SOL     MW17720   5.779   0.491   0.438  0.2662 -0.4083 -0.5690
 4431SOL     OW17721   4.711   9.645   3.784  0.5671 -0.2398  0.1645
 4431SOL    HW117722   4.759   9.618   3.705 -1.3239 -2.5388 -0.3458
 4431SOL    HW217723   4.758   9.602   3.856 -0.0017 -1.5312 -0.2035
 4431SOL     MW17724   4.724   9.635   3.783  0.2361 -0.7230  0.0463
 4432SOL     OW17725   6.827   8.527   5.342  0.3839 -0.3074  0.1620
 4432SOL    HW117726   6.787   8.606   5.379 -1.8123 -1.5916  0.6932
 4432SOL    HW217727   6.819   8.539   5.247  1.3377  0.6826  0.1805
 4432SOL     MW17728   6.821   8.539   5.334  0.2167 -0.3470  0.2359
 4433SOL     OW17729   7.892   9.664   9.321  0.8694 -0.0034  0.0675
 4433SOL    HW117730   7.797   9.654   9.314  0.8592 -1.2513  1.3409
 4433SOL    HW217731   7.905   9.739   9.378  0.6255 -0.2415  0.4376
 4433SOL     MW17732   7.881   9.672   9.328  0.8352 -0.2034  0.2887
 4434SOL     OW17733   4.047   9.742   7.446 -0.2104  0.1322  0.4570
 4434SOL    HW117734   4.044   9.651   7.477  1.7093 -0.0822  0.1745
 4434SOL    HW217735   4.085   9.735   7.358 -1.9706  1.0570 -0.4280
 4434SOL     MW17736   4.052   9.729   7.438 -0.1889  0.2278  0.2999
 4435SOL     OW17737   7.606   0.878   5.015  0.1666 -0.0047 -0.2540
 4435SOL    HW117738   7.603   0.938   4.940  1.5362 -0.9099 -1.0835
 4435SOL    HW217739   7.690   0.896   5.057 -0.5630  0.4513  1.0726
 4435SOL     MW17740   7.617   0.888   5.010  0.2527 -0.0651 -0.1871
 4436SOL     OW17741   5.806   8.393   7.837 -0.4327  0.1450 -0.2392
 4436SOL    HW117742   5.744   8.327   7.808  1.0280 -1.1352 -0.5882
 4436SOL    HW217743   5.887   8.372   7.790  0.5077  1.2150  0.8395
 4436SOL     MW17744   5.809   8.381   7.827 -0.1096  0.1167 -0.1410
 4437SOL     OW17745   5.701   1.244   6.168  0.2385  0.5583 -0.2426
 4437SOL    HW117746   5.630   1.188   6.136  1.7772 -0.4305 -2.1229
 4437SOL    HW217747   5.668   1.333   6.154 -1.1880  0.1454  0.2981
 4437SOL     MW17748   5.687   1.249   6.161  0.2536  0.3696 -0.4229
 4438SOL     OW17749   4.148   8.406   1.578 -0.3798 -0.1080 -0.1640
 4438SOL    HW117750   4.153   8.444   1.665 -0.9622  0.2420 -0.2760
 4438SOL    HW217751   4.057   8.376   1.570  0.2240 -2.2200  0.1994
 4438SOL     MW17752   4.136   8.407   1.588 -0.3769 -0.3452 -0.1302
 4439SOL     OW17753   6.523   7.689   9.876  0.0161  0.5706 -0.1210
 4439SOL    HW117754   6.510   7.731   9.791 -0.9576  1.1288  0.2783
 4439SOL    HW217755   6.459   7.618   9.878 -1.0397  1.4876  0.7027
 4439SOL     MW17756   6.512   7.685   9.865 -0.2570  0.7692  0.0436
 4440SOL     OW17757   4.908   9.718   6.503 -0.0350  0.3232  0.0484
 4440SOL    HW117758   4.998   9.696   6.482  0.2486  2.1529 -0.8840
 4440SOL    HW217759   4.859   9.637   6.490  0.8076  0.2249 -3.5973
 4440SOL     MW17760   4.913   9.704   6.498  0.1165  0.5562 -0.5677
 4441SOL     OW17761   5.256   8.485   8.483  0.1313  0.0443  0.0515
 4441SOL    HW117762   5.282   8.503   8.573 -1.4748  0.7065  0.4020
 4441SOL    HW217763   5.168   8.450   8.489  0.1622 -0.3265 -1.2445
 4441SOL     MW17764   5.248   8.483   8.496 -0.0807  0.0835 -0.0757
 4442SOL     OW17765   5.359   9.188   0.320  0.3215  0.5506  0.0103
 4442SOL    HW117766   5.358   9.268   0.373 -1.2459 -0.0611  0.9967
 4442SOL    HW217767   5.293   9.203   0.253  0.8004  0.4925 -0.4817
 4442SOL     MW17768   5.350   9.200   0.318  0.1750  0.4604  0.0768
 4443SOL     OW17769   5.108   0.967   5.847  0.4167 -0.1909  0.4253
 4443SOL    HW117770   5.164   0.998   5.918 -0.7039 -0.9080  1.6658
 4443SOL    HW217771   5.079   1.047   5.803  2.1493  0.2080 -0.0916
 4443SOL     MW17772   5.112   0.982   5.850  0.4991 -0.2337  0.5227
 4444SOL     OW17773   5.094  10.049   3.208  0.2190  0.3504 -0.2754
 4444SOL    HW117774   5.095  10.069   3.302 -0.9788 -1.8509  0.2724
 4444SOL    HW217775   5.186  10.039   3.185  0.4681 -1.2491  1.2228
 4444SOL     MW17776   5.107  10.051   3.218  0.0913 -0.1611 -0.0000
 4445SOL     OW17777   6.086   8.013   4.420 -0.2453  0.0419 -0.1087
 4445SOL    HW117778   6.033   8.011   4.340 -0.8655 -0.7156  0.3182
 4445SOL    HW217779   6.085   7.922   4.452 -0.1878  0.3819  0.8835
 4445SOL     MW17780   6.079   8.000   4.413 -0.3210 -0.0143  0.0823
 4446SOL     OW17781   6.842   9.110   6.695  0.3300 -0.3893 -0.5405
 4446SOL    HW117782   6.756   9.149   6.712  0.3457 -0.7976  0.5149
 4446SOL    HW217783   6.823   9.028   6.650  0.0404 -1.3860  1.3114
 4446SOL     MW17784   6.828   9.104   6.691  0.2932 -0.5784 -0.1493
 4447SOL     OW17785   5.255   7.637   6.068  0.0240  0.4617 -0.2983
 4447SOL    HW117786   5.177   7.665   6.021  0.6263  3.7810  0.4746
 4447SOL    HW217787   5.248   7.678   6.154  1.9476 -0.3506  0.3083
 4447SOL     MW17788   5.244   7.646   6.074  0.3639  0.7991 -0.1127
 4448SOL     OW17789   5.820   7.805   2.653 -0.1856 -0.0414  0.5882
 4448SOL    HW117790   5.753   7.873   2.650 -0.7854 -0.5791  1.4084
 4448SOL    HW217791   5.827   7.782   2.746 -0.9800 -2.0530  0.2053
 4448SOL     MW17792   5.812   7.811   2.665 -0.3733 -0.3845  0.6471
 4449SOL     OW17793   6.785   8.491   8.617 -0.6198  0.0312 -0.2457
 4449SOL    HW117794   6.841   8.566   8.638  0.2527 -0.5310 -0.5008
 4449SOL    HW217795   6.707   8.529   8.578  0.0289  0.7835 -0.8364
 4449SOL     MW17796   6.782   8.506   8.615 -0.4151  0.0568 -0.3595
 4450SOL     OW17797   7.836   9.980   7.791  0.4340 -0.8181  0.3332
 4450SOL    HW117798   7.744   9.974   7.818  0.5641 -1.5725  0.6335
 4450SOL    HW217799   7.863   9.889   7.777  1.2402 -0.6296  0.6069
 4450SOL     MW17800   7.827   9.967   7.793  0.5600 -0.8943  0.4105
 4451SOL     OW17801   7.499   0.086  10.016 -0.8668  0.3255 -0.4990
 4451SOL    HW117802   7.454   0.169  10.026  0.0064  0.8620 -0.9094
 4451SOL    HW217803   7.429   0.022  10.003 -1.5930  0.8453  0.6849
 4451SOL     MW17804   7.484   0.088  10.016 -0.8470  0.4676 -0.3949
 4452SOL     OW17805   6.906   9.830   5.892  0.0592 -0.6718  0.3279
 4452SOL    HW117806   6.935   9.843   5.983  0.1179  0.1698  0.1954
 4452SOL    HW217807   6.871   9.915   5.866 -2.8923 -1.6625  0.6080
 4452SOL     MW17808   6.905   9.843   5.901 -0.3301 -0.6919  0.3478
 4453SOL     OW17809   6.644   9.461   2.996  0.0185 -0.0666  0.2465
 4453SOL    HW117810   6.652   9.369   3.022 -0.0026  0.3266  1.7287
 4453SOL    HW217811   6.575   9.496   3.053 -0.2669  0.7752 -0.5917
 4453SOL     MW17812   6.636   9.453   3.008 -0.0228  0.0996  0.3332
 4454SOL     OW17813   6.848   1.354   7.302 -0.2572 -0.2359 -0.2584
 4454SOL    HW117814   6.794   1.385   7.375 -0.0468 -1.4548  0.4422
 4454SOL    HW217815   6.931   1.401   7.312 -0.6378  0.4772 -0.4139
 4454SOL     MW17816   6.852   1.364   7.313 -0.2801 -0.3039 -0.1851
 4455SOL     OW17817   3.663   0.300   1.851 -0.0702  0.0489 -0.0526
 4455SOL    HW117818   3.574   0.312   1.816  0.0045 -0.6161 -0.4686
 4455SOL    HW217819   3.681   0.382   1.897 -0.2744  0.8385 -1.3376
 4455SOL     MW17820   3.653   0.313   1.853 -0.0876  0.0657 -0.2815
 4456SOL     OW17821   6.842   8.129   4.547  0.3790 -0.1257  0.0246
 4456SOL    HW117822   6.891   8.194   4.596  0.4231 -0.7348  0.7969
 4456SOL    HW217823   6.751   8.156   4.555  0.5778  1.1826 -1.6725
 4456SOL     MW17824   6.836   8.141   4.554  0.4117 -0.0316 -0.0999
 4457SOL     OW17825   6.668  10.079   3.626  0.0853 -0.3544  0.1363
 4457SOL    HW117826   6.610  10.042   3.692  1.7842  1.2443  2.6942
 4457SOL    HW217827   6.609  10.108   3.557 -1.7738 -2.1484  0.8641
 4457SOL     MW17828   6.652  10.078   3.626  0.0637 -0.3807  0.5785
 4458SOL     OW17829   5.861   9.044   6.194 -0.3287 -0.3259 -0.0668
 4458SOL    HW117830   5.896   9.009   6.112 -0.7848  0.6442 -0.6982
 4458SOL    HW217831   5.768   9.020   6.192  0.2804 -3.5680  1.9559
 4458SOL     MW17832   5.853   9.036   6.183 -0.3081 -0.6317  0.1204
 4459SOL     OW17833   3.649   9.616   5.639  0.0723 -0.3636 -0.3442
 4459SOL    HW117834   3.577   9.578   5.689 -0.2386 -2.1002 -2.0147
 4459SOL    HW217835   3.723   9.614   5.700 -1.0056  0.6154  1.0912
 4459SOL     MW17836   3.649   9.611   5.654 -0.1146 -0.4655 -0.3758
 4460SOL     OW17837   6.619   8.665   3.198  0.4425  0.7729 -0.1017
 4460SOL    HW117838   6.582   8.582   3.168 -0.9948  0.9206  1.1502
 4460SOL    HW217839   6.693   8.639   3.254  1.5299  0.4440 -1.6250
 4460SOL     MW17840   6.624   8.650   3.201  0.3954  0.7485 -0.1382
 4461SOL     OW17841   7.013   9.624   3.453 -0.5453 -0.3941 -0.3646
 4461SOL    HW117842   6.954   9.570   3.401  0.1648 -1.4029 -0.1653
 4461SOL    HW217843   6.956   9.687   3.497 -1.7240 -2.3015  1.0424
 4461SOL     MW17844   6.998   9.625   3.452 -0.6084 -0.7866 -0.1485
 4462SOL     OW17845   4.358   0.733   0.455 -0.2862  0.3747  0.3172
 4462SOL    HW117846   4.278   0.686   0.479 -0.0697  0.0950  0.5126
 4462SOL    HW217847   4.423   0.664   0.445 -0.4723  0.4374 -1.5579
 4462SOL     MW17848   4.356   0.717   0.457 -0.2821  0.3455  0.0912
 4463SOL     OW17849   4.197   9.642   7.728 -0.1565 -0.0543  0.4077
 4463SOL    HW117850   4.142   9.720   7.737 -0.0573 -0.0169  0.7095
 4463SOL    HW217851   4.146   9.583   7.673  0.4448  0.8464 -1.1737
 4463SOL     MW17852   4.183   9.645   7.722 -0.0622  0.0720  0.2355
 4464SOL     OW17853   6.274   9.385   1.277  0.0062  0.1048 -0.5045
 4464SOL    HW117854   6.275   9.291   1.256  0.1538  0.1677 -0.7921
 4464SOL    HW217855   6.367   9.408   1.286  0.0319  0.4626 -1.5528
 4464SOL     MW17856   6.287   9.375   1.275  0.0295  0.1614 -0.6843
 4465SOL     OW17857   5.152   8.735   0.234  0.1686 -0.0773 -0.0613
 4465SOL    HW117858   5.191   8.682   0.303  0.1220  1.7418  1.4288
 4465SOL    HW217859   5.171   8.825   0.259 -0.5176  0.6779 -2.0371
 4465SOL     MW17860   5.160   8.740   0.246  0.0699  0.2692 -0.1267
 4466SOL     OW17861   4.198   9.760   2.241  0.1560 -0.2940 -0.3271
 4466SOL    HW117862   4.239   9.844   2.263  0.6801 -0.6311  0.0009
 4466SOL    HW217863   4.226   9.743   2.151 -0.8540  0.4103 -0.7937
 4466SOL     MW17864   4.207   9.769   2.232  0.0906 -0.2446 -0.3457
 4467SOL     OW17865   7.635   0.433   9.914  0.0084 -0.3191 -0.0634
 4467SOL    HW117866   7.669   0.506   9.863  0.6056 -0.2750  0.3914
 4467SOL    HW217867   7.643   0.357   9.855  2.8339 -0.7115  0.7035
 4467SOL     MW17868   7.640   0.433   9.899  0.4690 -0.3660  0.1010
 4468SOL     OW17869   5.623   7.958   6.078  0.0456  0.6002 -0.1484
 4468SOL    HW117870   5.529   7.944   6.069  0.2130 -1.2720  0.5783
 4468SOL    HW217871   5.655   7.968   5.988 -0.5697 -0.9845 -0.5697
 4468SOL     MW17872   5.615   7.958   6.065 -0.0147  0.1349 -0.1073
 4469SOL     OW17873   4.498   0.475   8.849 -0.0905  0.4526  0.2237
 4469SOL    HW117874   4.431   0.481   8.917 -1.6737  1.7262 -1.3526
 4469SOL    HW217875   4.474   0.398   8.798  0.6242 -0.0268  0.5847
 4469SOL     MW17876   4.486   0.465   8.851 -0.2074  0.5595  0.0601
 4470SOL     OW17877   5.835   1.087   9.823  0.5480 -0.6087  0.0625
 4470SOL    HW117878   5.862   1.003   9.859  0.6979 -1.1811 -1.2914
 4470SOL    HW217879   5.777   1.125   9.889  2.4659 -0.5829  1.8196
 4470SOL     MW17880   5.831   1.081   9.836  0.8263 -0.6822  0.1168
 4471SOL     OW17881   6.553   9.441   4.076  0.4059 -0.8149  0.0527
 4471SOL    HW117882   6.513   9.448   4.163 -1.1084 -2.4742 -0.4539
 4471SOL    HW217883   6.580   9.530   4.056 -2.3900  0.3391  0.7938
 4471SOL     MW17884   6.551   9.454   4.085 -0.1742 -0.8829  0.0842
 4472SOL     OW17885   5.089   8.951   7.863  0.2219 -0.1550  0.0602
 4472SOL    HW117886   5.027   8.924   7.795 -0.1844 -2.0029  1.0947
 4472SOL    HW217887   5.039   8.944   7.945  1.0614  0.8402  0.6864
 4472SOL     MW17888   5.074   8.947   7.865  0.2802 -0.2697  0.2837
 4473SOL     OW17889   5.957   0.775   2.235  0.2097 -0.0822 -0.2916
 4473SOL    HW117890   5.950   0.818   2.320 -0.4083  1.6723 -1.1881
 4473SOL    HW217891   6.051   0.767   2.220  0.3727 -1.7843  1.1555
 4473SOL     MW17892   5.968   0.779   2.245  0.1485 -0.0751 -0.2175
 4474SOL     OW17893   7.194   9.369   8.683 -0.0566 -0.2018  0.1201
 4474SOL    HW117894   7.229   9.314   8.753 -0.5848  0.3431  0.8168
 4474SOL    HW217895   7.147   9.439   8.727 -0.8769 -0.1538 -0.7763
 4474SOL     MW17896   7.192   9.371   8.698 -0.2381 -0.1220  0.0932
 4475SOL     OW17897   6.318   7.644   8.893 -0.2658 -0.0600  0.3541
 4475SOL    HW117898   6.371   7.652   8.973 -1.0743 -0.4657  0.9467
 4475SOL    HW217899   6.324   7.729   8.851  1.4525 -0.3101  0.0231
 4475SOL     MW17900   6.326   7.656   8.898 -0.1433 -0.1482  0.3893
 4476SOL     OW17901   6.502   9.147   9.073 -0.1962  0.1061  0.1899
 4476SOL    HW117902   6.528   9.057   9.056  0.0365  0.2501 -0.2235
 4476SOL    HW217903   6.424   9.139   9.129  0.9824 -0.3244  1.8382
 4476SOL     MW17904   6.495   9.134   9.078 -0.0063  0.0676  0.3561
 4477SOL     OW17905   4.356   8.191   6.147  0.0691 -0.2571 -0.7566
 4477SOL    HW117906   4.365   8.107   6.102  0.8542 -0.3929 -0.3566
 4477SOL    HW217907   4.340   8.169   6.238 -0.7964  0.0267 -0.8314
 4477SOL     MW17908   4.355   8.177   6.153  0.0583 -0.2372 -0.7128
 4478SOL     OW17909   4.830   8.018   0.160  0.0591 -0.0060  0.2411
 4478SOL    HW117910   4.905   7.958   0.166 -1.2192 -1.9751 -1.6316
 4478SOL    HW217911   4.803   8.032   0.250  1.3690 -1.0269  0.8344
 4478SOL     MW17912   4.837   8.012   0.173  0.0634 -0.4084  0.0689
 4479SOL     OW17913   6.329   7.693   0.500 -0.3740  0.0186 -0.3367
 4479SOL    HW117914   6.351   7.695   0.407 -0.4376  2.1642 -0.3521
 4479SOL    HW217915   6.235   7.711   0.502 -0.4386 -0.3718  0.1365
 4479SOL     MW17916   6.319   7.695   0.487 -0.3912  0.2548 -0.2751
 4480SOL     OW17917   5.316   7.982   6.726  0.5449  0.2926  0.6228
 4480SOL    HW117918   5.284   8.022   6.645  2.7482 -0.3373 -0.6451
 4480SOL    HW217919   5.248   7.919   6.750 -0.6814  1.2958 -0.0668
 4480SOL     MW17920   5.303   7.979   6.718  0.6763  0.3428  0.3594
 4481SOL     OW17921   6.495   9.673   1.095 -0.4802 -0.6161  0.2519
 4481SOL    HW117922   6.568   9.688   1.035 -2.0501 -0.3166 -1.6683
 4481SOL    HW217923   6.471   9.761   1.126 -0.9005 -0.5529 -0.2321
 4481SOL     MW17924   6.502   9.687   1.091 -0.7480 -0.5673 -0.0717
 4482SOL     OW17925   5.927   8.897   3.725 -0.1590 -0.0567 -0.6481
 4482SOL    HW117926   5.926   8.802   3.712 -1.0499 -0.2301  0.5317
 4482SOL    HW217927   5.957   8.933   3.642  0.5310 -1.3932 -0.9932
 4482SOL     MW17928   5.931   8.889   3.712 -0.1860 -0.2599 -0.5357
 4483SOL     OW17929   4.293   0.395   1.048  0.5450 -0.2109  0.6915
 4483SOL    HW117930   4.353   0.360   0.983  0.4652  0.0117  0.4961
 4483SOL    HW217931   4.350   0.442   1.110  0.8895 -2.2996  2.0741
 4483SOL     MW17932   4.309   0.397   1.048  0.5807 -0.4621  0.8512
 4484SOL     OW17933   4.626   9.480   6.886 -0.9259  0.5141  0.3727
 4484SOL    HW117934   4.591   9.568   6.898 -2.6083 -0.2158  1.2951
 4484SOL    HW217935   4.556   9.422   6.917  0.7225 -1.1175  1.2880
 4484SOL     MW17936   4.612   9.484   6.892 -0.9304  0.1963  0.6200
 4485SOL     OW17937   7.160   8.728   1.544 -0.1796  0.3988  0.0265
 4485SOL    HW117938   7.114   8.651   1.512 -1.0222  0.9752 -0.1896
 4485SOL    HW217939   7.105   8.761   1.615  1.6478 -0.8522  2.1606
 4485SOL     MW17940   7.146   8.722   1.550 -0.0471  0.3080  0.2846
 4486SOL     OW17941   7.557   0.745   7.741 -0.1471  0.1106  0.3669
 4486SOL    HW117942   7.552   0.661   7.695  0.9093 -0.2470  0.8799
 4486SOL    HW217943   7.514   0.728   7.825 -0.9107  0.4031  0.0482
 4486SOL     MW17944   7.550   0.731   7.746 -0.1077  0.1019  0.3931
 4487SOL     OW17945   4.690   7.644   1.334 -0.1733  0.0933  0.1248
 4487SOL    HW117946   4.770   7.592   1.339 -0.4880 -0.5202 -0.7592
 4487SOL    HW217947   4.661   7.653   1.425  1.7874  1.8226  0.6573
 4487SOL     MW17948   4.697   7.638   1.347  0.0482  0.2434  0.0775
 4488SOL     OW17949   6.425   8.520   7.847 -0.2101  0.2220  0.2444
 4488SOL    HW117950   6.355   8.455   7.854  0.2747 -0.3641 -0.1343
 4488SOL    HW217951   6.479   8.489   7.774 -0.2423  1.3344 -0.2682
 4488SOL     MW17952   6.423   8.507   7.838 -0.1492  0.2928  0.1245
 4489SOL     OW17953   4.511   8.382   5.792 -0.3968 -0.4002  0.0350
 4489SOL    HW117954   4.443   8.434   5.749  0.6585  0.7231 -0.2987
 4489SOL    HW217955   4.500   8.401   5.885 -1.5596 -1.4891  0.1527
 4489SOL     MW17956   4.500   8.391   5.799 -0.4113 -0.3956  0.0059
 4490SOL     OW17957   4.407   9.672   9.579  0.0619 -0.0541  0.2464
 4490SOL    HW117958   4.463   9.609   9.625  0.3278 -0.0204 -0.0291
 4490SOL    HW217959   4.326   9.675   9.631  0.1250 -0.4725  0.3701
 4490SOL     MW17960   4.403   9.664   9.592  0.1062 -0.1058  0.2260
 4491SOL     OW17961   7.223   0.364   4.190 -0.2042  0.3088 -0.2113
 4491SOL    HW117962   7.166   0.288   4.187  0.2613 -0.0224 -1.8094
 4491SOL    HW217963   7.311   0.329   4.174 -0.0753  1.2422 -1.7365
 4491SOL     MW17964   7.227   0.349   4.188 -0.1242  0.3898 -0.6316
 4492SOL     OW17965   5.116   1.263   2.686  0.6305 -0.0743 -0.2463
 4492SOL    HW117966   5.155   1.306   2.762 -1.0062 -1.7403  1.6257
 4492SOL    HW217967   5.028   1.301   2.680  1.5167  1.8671 -2.9344
 4492SOL     MW17968   5.110   1.274   2.695  0.5295 -0.0372 -0.3561
 4493SOL     OW17969   5.722   8.830   0.582  0.2374  0.7222 -0.0810
 4493SOL    HW117970   5.758   8.915   0.606  0.0060  0.7743  0.0825
 4493SOL    HW217971   5.631   8.848   0.557 -0.2865  0.3047  1.4400
 4493SOL     MW17972   5.715   8.844   0.582  0.1358  0.6730  0.1457
 4494SOL     OW17973   5.197   8.347   2.014  0.1597 -0.0218  0.3463
 4494SOL    HW117974   5.191   8.440   1.994  0.2807 -0.4860 -2.2173
 4494SOL    HW217975   5.291   8.331   2.024  0.0967  0.2198  1.4399
 4494SOL     MW17976   5.209   8.357   2.012  0.1675 -0.0518  0.1485
 4495SOL     OW17977   5.919   8.009   1.125  0.0180  0.3332 -0.2660
 4495SOL    HW117978   5.992   8.056   1.087  1.1397  1.9542  3.4314
 4495SOL    HW217979   5.954   7.923   1.147  0.2916  0.4875 -0.0987
 4495SOL     MW17980   5.933   8.004   1.123  0.2058  0.5721  0.2541
 4496SOL     OW17981   3.893   9.897   0.516 -0.1647  0.2888  0.1005
 4496SOL    HW117982   3.986   9.877   0.526  0.1965  0.6696 -2.0128
 4496SOL    HW217983   3.891   9.972   0.456 -1.8401  0.0437 -0.2085
 4496SOL     MW17984   3.905   9.905   0.509 -0.3416  0.3071 -0.2255
 4497SOL     OW17985   4.839   9.232   1.271  0.2276  0.4253 -0.0549
 4497SOL    HW117986   4.765   9.293   1.275  1.6568  2.2256  0.3860
 4497SOL    HW217987   4.854   9.220   1.177  0.3082  1.2625 -0.1600
 4497SOL     MW17988   4.831   9.239   1.259  0.4308  0.7802 -0.0097
 4498SOL     OW17989   7.138   9.775   2.608  0.5172 -0.1670  0.1384
 4498SOL    HW117990   7.215   9.795   2.660  1.6179  0.8810 -1.7732
 4498SOL    HW217991   7.171   9.762   2.520 -1.4101 -0.4662 -0.5936
 4498SOL     MW17992   7.152   9.776   2.603  0.4060 -0.0663 -0.2174
 4499SOL     OW17993   7.690   9.558   3.906  0.2997  0.2557 -0.7518
 4499SOL    HW117994   7.683   9.503   3.984 -1.8406  0.1095 -0.9692
 4499SOL    HW217995   7.639   9.511   3.840  1.0724  0.9726 -1.8741
 4499SOL     MW17996   7.682   9.544   3.908  0.1156  0.3325 -0.9321
 4500SOL     OW17997   7.104   0.968   6.856  0.3202  0.2630 -0.3730
 4500SOL    HW117998   7.158   1.032   6.903  0.9442  0.6821 -1.6154
 4500SOL    HW217999   7.146   0.884   6.874  1.8054  0.6474 -1.8166
 4500SOL     MW18000   7.117   0.966   6.865  0.6040  0.3711 -0.7345
 4501SOL     OW18001   6.983   0.749   1.058 -0.3470 -0.4684 -0.1614
 4501SOL    HW118002   6.894   0.754   1.092 -0.4360  0.5085 -0.4973
 4501SOL    HW218003   7.008   0.658   1.069 -1.5666 -0.8657 -0.5088
 4501SOL     MW18004   6.975   0.738   1.064 -0.5231 -0.3904 -0.2533
 4502SOL     OW18005   3.440   9.971   5.828  0.3502 -0.2606  0.4379
 4502SOL    HW118006   3.419  10.062   5.852  0.3177  0.0765 -0.7584
 4502SOL    HW218007   3.493   9.938   5.900 -0.9489  0.1895  1.6413
 4502SOL     MW18008   3.444   9.979   5.841  0.1710 -0.1547  0.4388
 4503SOL     OW18009   5.864   0.764   5.618  0.0723 -0.2451  0.4414
 4503SOL    HW118010   5.869   0.717   5.702 -1.0207 -2.2383 -0.5283
 4503SOL    HW218011   5.789   0.822   5.628  1.0112  0.8453  1.4245
 4503SOL     MW18012   5.855   0.765   5.631  0.0516 -0.3666  0.4432
 4504SOL     OW18013   7.023   7.954   3.618 -0.1109 -0.2292 -0.3128
 4504SOL    HW118014   7.008   7.860   3.625  2.9464 -0.8720 -0.8535
 4504SOL    HW218015   7.024   7.971   3.524  0.6476  0.0593 -0.2592
 4504SOL     MW18016   7.021   7.944   3.606  0.4026 -0.2769 -0.3784
 4505SOL     OW18017   5.828   1.491   3.514  0.2215 -0.2745  0.2817
 4505SOL    HW118018   5.856   1.491   3.422  0.1256  2.1813  0.1995
 4505SOL    HW218019   5.903   1.526   3.562 -0.2427 -0.1869  0.9571
 4505SOL     MW18020   5.842   1.495   3.508  0.1461  0.0678  0.3616
 4506SOL     OW18021   7.263   9.177   6.744 -0.5975 -0.3975 -0.2604
 4506SOL    HW118022   7.177   9.196   6.708 -0.3668 -0.4111 -0.8328
 4506SOL    HW218023   7.296   9.104   6.693  0.3808  0.5767 -1.0874
 4506SOL     MW18024   7.256   9.170   6.733 -0.4348 -0.2682 -0.4487
 4507SOL     OW18025   6.653   9.332   7.530 -0.1427  0.3222 -0.3872
 4507SOL    HW118026   6.712   9.366   7.462  0.3219  0.3823  0.0380
 4507SOL    HW218027   6.607   9.260   7.488 -0.0259  0.5071 -0.8374
 4507SOL     MW18028   6.655   9.327   7.515 -0.0644  0.3552 -0.3906
 4508SOL     OW18029   5.571   1.504   7.179  0.6623  0.2654 -0.2199
 4508SOL    HW118030   5.617   1.498   7.095  0.9781  1.4524 -0.1492
 4508SOL    HW218031   5.639   1.487   7.245  0.8243  1.0809 -0.1552
 4508SOL     MW18032   5.586   1.501   7.177  0.7266  0.5349 -0.2016
 4509SOL     OW18033   4.593   0.555   4.446 -0.0898 -0.1890  0.3044
 4509SOL    HW118034   4.541   0.488   4.401  0.7040  0.2397 -1.3208
 4509SOL    HW218035   4.682   0.520   4.445  0.0200  0.0549  1.1289
 4509SOL     MW18036   4.598   0.541   4.440  0.0318 -0.0985  0.1966
 4510SOL     OW18037   5.519   0.679   2.825  0.3922 -0.3976 -0.5793
 4510SOL    HW118038   5.516   0.611   2.892  0.4665  1.5669  1.5341
 4510SOL    HW218039   5.526   0.761   2.874 -0.0389  1.1876 -2.9909
 4510SOL     MW18040   5.520   0.681   2.840  0.3442  0.0801 -0.6194
 4511SOL     OW18041   7.442   9.885   4.902 -0.0606  0.2103 -0.2258
 4511SOL    HW118042   7.465   9.805   4.949 -1.9522 -0.4279 -0.3206
 4511SOL    HW218043   7.488   9.955   4.950 -1.1552 -0.5232  2.0614
 4511SOL     MW18044   7.451   9.884   4.915 -0.4625  0.0257  0.0692
 4512SOL     OW18045   5.942   8.425   2.582 -0.6271  0.2013  0.2237
 4512SOL    HW118046   5.923   8.519   2.587 -0.7305  0.2860 -1.2583
 4512SOL    HW218047   5.864   8.388   2.540 -1.0783 -0.7445  1.7896
 4512SOL     MW18048   5.929   8.433   2.577 -0.7017  0.0854  0.2350
 4513SOL     OW18049   4.672   0.520   2.400 -0.1643 -0.3391 -0.2484
 4513SOL    HW118050   4.688   0.612   2.420  0.6086 -0.5419  0.0869
 4513SOL    HW218051   4.591   0.500   2.448  0.0730 -0.0339  0.2930
 4513SOL     MW18052   4.663   0.530   2.409 -0.0284 -0.3253 -0.1305
 4514SOL     OW18053   6.933   1.638   0.714 -0.5152 -0.0787 -0.8438
 4514SOL    HW118054   6.839   1.653   0.724 -0.3132  1.8835 -1.5893
 4514SOL    HW218055   6.950   1.654   0.621  0.7211  0.5541 -0.5232
 4514SOL     MW18056   6.922   1.642   0.702 -0.3216  0.2705 -0.9010
 4515SOL     OW18057   7.056   0.377   6.303  0.3014 -0.3918 -0.0860
 4515SOL    HW118058   7.080   0.453   6.356  0.0060 -1.3630  1.5219
 4515SOL    HW218059   7.136   0.325   6.299 -0.5768 -2.1727  2.7413
 4515SOL     MW18060   7.070   0.380   6.310  0.1435 -0.7622  0.5109
 4516SOL     OW18061   4.915   7.896   2.932  0.3041 -0.0653 -0.7574
 4516SOL    HW118062   4.894   7.864   3.020 -0.7359 -0.4146 -1.1220
 4516SOL    HW218063   4.861   7.974   2.922  1.5369  0.8362 -0.5338
 4516SOL     MW18064   4.905   7.902   2.942  0.3301  0.0090 -0.7764
 4517SOL     OW18065   5.247   1.121   2.398  0.2207  0.2335 -0.7063
 4517SOL    HW118066   5.255   1.214   2.419  0.0705 -0.2140  1.6594
 4517SOL    HW218067   5.277   1.076   2.477 -1.8520 -1.7027 -0.9224
 4517SOL     MW18068   5.252   1.127   2.412 -0.0785 -0.0873 -0.4170
 4518SOL     OW18069   5.743   8.243   4.239  0.3977 -0.0591  0.3832
 4518SOL    HW118070   5.723   8.230   4.146  0.3458  1.5329  0.1479
 4518SOL    HW218071   5.660   8.229   4.284 -0.0504  1.2164 -0.0312
 4518SOL     MW18072   5.729   8.239   4.232  0.3304  0.3268  0.2958
 4519SOL     OW18073   4.926   1.608   0.577 -0.0991 -0.2024 -0.5378
 4519SOL    HW118074   4.896   1.666   0.507 -0.3779  0.4089  0.0763
 4519SOL    HW218075   4.868   1.532   0.572 -1.1393  0.5430  0.0274
 4519SOL     MW18076   4.914   1.605   0.567 -0.2766 -0.0198 -0.3791
 4520SOL     OW18077   7.153   0.661  10.107  0.7791 -0.5507  0.2839
 4520SOL    HW118078   7.103   0.735  10.074 -1.5157 -2.2124 -0.2297
 4520SOL    HW218079   7.116   0.585  10.062  2.3740 -2.1107  1.4736
 4520SOL     MW18080   7.141   0.660  10.097  0.6849 -0.9843  0.3749
 4521SOL     OW18081   5.049   9.691   3.135 -0.4850 -0.0401  0.2638
 4521SOL    HW118082   5.112   9.680   3.065  2.1141  0.5124  2.3483
 4521SOL    HW218083   5.010   9.777   3.120  1.9755  1.2704  0.8122
 4521SOL     MW18084   5.052   9.701   3.124  0.1959  0.2106  0.6182
 4522SOL     OW18085   7.098   7.952   4.322 -0.3510 -0.3970 -0.0670
 4522SOL    HW118086   7.170   8.015   4.326 -0.1078 -0.7271  1.3522
 4522SOL    HW218087   7.067   7.945   4.413 -1.6503 -0.8571 -0.5260
 4522SOL     MW18088   7.104   7.959   4.335 -0.4931 -0.5034  0.0623
 4523SOL     OW18089   7.535   9.135   3.425  0.2446 -0.3835 -0.1189
 4523SOL    HW118090   7.521   9.042   3.438  2.2924 -0.9625 -1.4924
 4523SOL    HW218091   7.584   9.164   3.502 -1.7784 -0.0010  1.1052
 4523SOL     MW18092   7.539   9.126   3.437  0.2479 -0.4099 -0.1390
 4524SOL     OW18093   6.296   1.563   5.876  0.0534  0.4020 -0.3420
 4524SOL    HW118094   6.377   1.540   5.921 -0.0877  0.3635 -0.1061
 4524SOL    HW218095   6.262   1.480   5.843  0.4802  0.5111 -1.0677
 4524SOL     MW18096   6.302   1.549   5.878  0.0919  0.4115 -0.4079
 4525SOL     OW18097   5.130   0.687   2.076 -0.4388 -0.0925  0.2153
 4525SOL    HW118098   5.171   0.619   2.021 -1.1255 -0.7408  0.4803
 4525SOL    HW218099   5.150   0.659   2.165 -0.1352  0.4412  0.3139
 4525SOL     MW18100   5.138   0.674   2.080 -0.4904 -0.1079  0.2642
 4526SOL     OW18101   5.092   9.565   5.662  0.1711 -0.1444  0.4805
 4526SOL    HW118102   5.118   9.594   5.574  0.5982 -2.2187 -0.1402
 4526SOL    HW218103   5.014   9.616   5.682  0.6221  1.0670 -0.6894
 4526SOL     MW18104   5.085   9.576   5.653  0.2893 -0.2606  0.2395
 4527SOL     OW18105   6.514   9.769   9.415 -0.2367 -0.0412  0.0430
 4527SOL    HW118106   6.522   9.784   9.320 -1.2553  0.8529  0.0767
 4527SOL    HW218107   6.446   9.830   9.443  1.2667  0.9795  1.6753
 4527SOL     MW18108   6.506   9.779   9.406 -0.1715  0.2165  0.2672
 4528SOL     OW18109   8.134  10.023   5.320 -0.1997  0.0449 -0.7815
 4528SOL    HW118110   8.123   9.945   5.373 -0.0699  2.1553  2.6235
 4528SOL    HW218111   8.045  10.047   5.294 -0.4408 -0.1868 -0.1833
 4528SOL     MW18112   8.120  10.016   5.323 -0.2147  0.2977 -0.2427
 4529SOL     OW18113   6.881   9.278   4.462  0.0194  0.2190 -0.2432
 4529SOL    HW118114   6.846   9.308   4.378  1.7938 -2.3376 -2.0594
 4529SOL    HW218115   6.975   9.269   4.447  0.2387 -1.3585  1.6666
 4529SOL     MW18116   6.889   9.281   4.449  0.2877 -0.3373 -0.2306
 4530SOL     OW18117   5.072   0.906   5.128  0.5615 -0.3792  0.1497
 4530SOL    HW118118   5.078   0.814   5.103  0.3965 -0.3989  0.1816
 4530SOL    HW218119   5.030   0.948   5.053 -2.3559 -0.8650  1.3552
 4530SOL     MW18120   5.067   0.899   5.115  0.1467 -0.4472  0.3162
 4531SOL     OW18121   3.649   9.449   8.142 -0.5511 -0.6693  0.2175
 4531SOL    HW118122   3.738   9.434   8.110 -0.4507  0.2629  0.0373
 4531SOL    HW218123   3.606   9.499   8.072 -1.2953 -1.3298  0.1925
 4531SOL     MW18124   3.655   9.454   8.129 -0.6377 -0.6327  0.1899
 4532SOL     OW18125   5.075   9.014   0.183  0.2295 -0.2169 -0.0541
 4532SOL    HW118126   5.026   9.058   0.253  1.1189  1.9006 -0.6657
 4532SOL    HW218127   5.008   8.982   0.123 -0.4902 -0.3320  0.8033
 4532SOL     MW18128   5.060   9.016   0.184  0.2523  0.0526 -0.0210
 4533SOL     OW18129   7.427   0.729  10.129 -0.0600  0.6046  0.1318
 4533SOL    HW118130   7.431   0.766  10.217  0.0050  0.1083  0.3425
 4533SOL    HW218131   7.333   0.724  10.110 -0.1028  0.0735  0.4549
 4533SOL     MW18132   7.415   0.733  10.138 -0.0570  0.4663  0.2036
 4534SOL     OW18133   6.514   8.448   5.712  0.1282 -0.5263  0.1527
 4534SOL    HW118134   6.574   8.496   5.770 -0.4520  0.5868 -0.1283
 4534SOL    HW218135   6.569   8.418   5.640  0.3562  0.6175 -0.1828
 4534SOL     MW18136   6.530   8.451   5.710  0.0808 -0.2226  0.0697
 4535SOL     OW18137   4.025   9.285   2.836  0.1251  0.1167 -0.7952
 4535SOL    HW118138   4.103   9.232   2.850 -0.5568 -0.6414  0.3190
 4535SOL    HW218139   4.012   9.331   2.919 -0.8696 -0.1254 -0.8027
 4535SOL     MW18140   4.034   9.284   2.849 -0.1005 -0.0179 -0.6462
 4536SOL     OW18141   3.923   9.639   1.382  0.3604  0.6781  0.3464
 4536SOL    HW118142   3.866   9.713   1.359 -1.3677 -0.5207  0.6160
 4536SOL    HW218143   3.934   9.591   1.300  0.7909  0.7625  0.3517
 4536SOL     MW18144   3.917   9.643   1.368  0.1858  0.5281  0.3834
 4537SOL     OW18145   4.687   9.814   0.898 -0.3207 -0.0086  0.4655
 4537SOL    HW118146   4.619   9.878   0.922 -1.6610 -1.2770  0.1947
 4537SOL    HW218147   4.763   9.838   0.951 -0.4127  2.4603 -0.3874
 4537SOL     MW18148   4.688   9.826   0.908 -0.5135  0.1530  0.3143
 4538SOL     OW18149   7.120   8.579   6.024  1.1468 -0.6639 -0.2217
 4538SOL    HW118150   7.122   8.586   5.929 -1.6975  1.5020 -0.2731
 4538SOL    HW218151   7.104   8.668   6.054  1.4663 -1.3742  2.2798
 4538SOL     MW18152   7.118   8.592   6.015  0.8070 -0.4680  0.1080
 4539SOL     OW18153   5.684   1.981   7.213  0.0833  0.4671 -0.5624
 4539SOL    HW118154   5.614   1.916   7.212 -0.8118  1.2760  1.6762
 4539SOL    HW218155   5.716   1.983   7.123 -1.4780 -1.2936 -1.2416
 4539SOL     MW18156   5.679   1.972   7.201 -0.2473  0.3390 -0.3526
 4540SOL     OW18157   6.579   0.903   1.245 -0.5441  0.0092  0.1057
 4540SOL    HW118158   6.539   0.833   1.296 -0.5136 -0.3830 -0.3988
 4540SOL    HW218159   6.523   0.979   1.262  0.0441  0.1524  1.5015
 4540SOL     MW18160   6.566   0.904   1.254 -0.4608 -0.0243  0.2257
 4541SOL     OW18161   6.978   8.937   7.967  0.0634 -0.1059 -0.5051
 4541SOL    HW118162   7.068   8.972   7.972  0.1909 -0.4659 -0.2025
 4541SOL    HW218163   6.932   8.982   8.037  0.1224 -0.2454 -0.3762
 4541SOL     MW18164   6.984   8.948   7.977  0.0885 -0.1731 -0.4470
 4542SOL     OW18165   5.974   0.708   8.471 -0.1310 -0.4277  0.1617
 4542SOL    HW118166   5.929   0.788   8.499  1.1442  0.0472  0.9685
 4542SOL    HW218167   6.033   0.737   8.402 -0.8188 -0.9910 -0.6792
 4542SOL     MW18168   5.976   0.723   8.466 -0.0519 -0.4396  0.1571
 4543SOL     OW18169   5.716   1.394   5.070 -0.3886  0.2116 -0.0260
 4543SOL    HW118170   5.737   1.303   5.091  0.3678  0.1538 -0.9921
 4543SOL    HW218171   5.622   1.394   5.051 -0.6783 -0.0998  1.3198
 4543SOL     MW18172   5.706   1.382   5.070 -0.3258  0.1619  0.0251
 4544SOL     OW18173   5.474   1.748   0.645  0.3240 -0.3444 -0.3820
 4544SOL    HW118174   5.462   1.659   0.610  0.2436 -0.3508 -0.3369
 4544SOL    HW218175   5.562   1.747   0.684  0.3897 -0.3561 -0.5284
 4544SOL     MW18176   5.484   1.736   0.645  0.3220 -0.3468 -0.3957
 4545SOL     OW18177   5.633   8.595   4.195  0.0783  0.0618 -0.1271
 4545SOL    HW118178   5.729   8.596   4.189  0.1341  0.4452  0.7897
 4545SOL    HW218179   5.605   8.660   4.132  0.3653 -0.8015 -1.1871
 4545SOL     MW18180   5.642   8.604   4.186  0.1245 -0.0028 -0.1463
 4546SOL     OW18181   7.349   9.310   0.684 -0.0963  0.3123 -0.1966
 4546SOL    HW118182   7.426   9.346   0.640 -0.6434 -0.4745 -1.8970
 4546SOL    HW218183   7.275   9.349   0.638 -0.6999 -0.5417  0.0175
 4546SOL     MW18184   7.349   9.320   0.672 -0.2512  0.0915 -0.3966
 4547SOL     OW18185   7.447   8.774   8.290  0.2564  0.2675 -0.1743
 4547SOL    HW118186   7.376   8.709   8.293  0.3633  0.1838  0.8087
 4547SOL    HW218187   7.403   8.858   8.300  0.1943  0.3061 -0.7037
 4547SOL     MW18188   7.431   8.776   8.291  0.2624  0.2614 -0.1132
 4548SOL     OW18189   6.520  -0.019   5.481  0.1300 -0.1569 -0.6295
 4548SOL    HW118190   6.475   0.035   5.546 -0.3527 -0.8657 -0.3609
 4548SOL    HW218191   6.508   0.028   5.399  2.7059  1.9839  0.0530
 4548SOL     MW18192   6.512  -0.005   5.479  0.4117  0.0359 -0.5015
 4549SOL     OW18193   5.420   1.625   5.461  0.2448 -0.4540  0.1254
 4549SOL    HW118194   5.392   1.706   5.418 -0.4917  0.0575  1.4877
 4549SOL    HW218195   5.478   1.583   5.398  1.1716  1.4474 -0.3647
 4549SOL     MW18196   5.424   1.630   5.447  0.2704 -0.1293  0.2428
 4550SOL     OW18197   7.019   0.518   6.731  0.7990  0.0728  0.5760
 4550SOL    HW118198   6.930   0.530   6.764  0.4302 -0.2036 -0.2917
 4550SOL    HW218199   7.056   0.449   6.787  0.2801 -0.1951  0.5915
 4550SOL     MW18200   7.012   0.510   6.743  0.6795 -0.0005  0.4613
 4551SOL     OW18201   3.821   9.449   7.874 -0.0605  0.0603  0.5396
 4551SOL    HW118202   3.915   9.465   7.883  0.0058 -1.0944  2.5214
 4551SOL    HW218203   3.812   9.353   7.878 -1.4504  0.2187  2.5198
 4551SOL     MW18204   3.832   9.438   7.876 -0.2386 -0.0738  1.0728
 4552SOL     OW18205   6.942   9.371   3.094  0.0009  0.2681  0.0434
 4552SOL    HW118206   7.034   9.345   3.100  0.3957  1.6220  0.2442
 4552SOL    HW218207   6.937   9.425   3.015 -0.4259  0.9243  0.5095
 4552SOL     MW18208   6.953   9.375   3.084 -0.0034  0.5386  0.1332
 4553SOL     OW18209   7.477   9.381   9.559 -0.0811  0.6957 -0.1816
 4553SOL    HW118210   7.546   9.403   9.621  0.4147 -1.7632  0.2691
 4553SOL    HW218211   7.404   9.352   9.614  0.1778 -1.0030 -0.6727
 4553SOL     MW18212   7.477   9.380   9.575  0.0205  0.1362 -0.1870
 4554SOL     OW18213   4.098   9.481   3.282 -0.2065 -0.2539  0.3804
 4554SOL    HW118214   4.190   9.467   3.259 -0.3325  0.9400 -1.0197
 4554SOL    HW218215   4.085   9.575   3.271 -2.1592 -0.6976 -1.7822
 4554SOL     MW18216   4.108   9.492   3.278 -0.4863 -0.1530 -0.0991
 4555SOL     OW18217   5.597   8.066   2.212 -0.0148 -0.1087  0.1422
 4555SOL    HW118218   5.544   8.039   2.288 -0.2315  2.2734  0.9285
 4555SOL    HW218219   5.548   8.140   2.175  0.5115 -0.7285 -1.8623
 4555SOL     MW18220   5.583   8.073   2.218  0.0269  0.1285 -0.0218
 4556SOL     OW18221   7.495   9.606   0.990 -0.3003  0.1061 -0.1910
 4556SOL    HW118222   7.520   9.581   1.078  1.7262 -0.9365 -1.0060
 4556SOL    HW218223   7.513   9.700   0.986  1.5833 -0.2191 -0.0890
 4556SOL     MW18224   7.501   9.615   1.001  0.2259 -0.0780 -0.2869
 4557SOL     OW18225   4.226   0.198   4.709  0.1385 -0.0792 -0.1190
 4557SOL    HW118226   4.197   0.240   4.628 -1.2320 -0.6018  0.0870
 4557SOL    HW218227   4.172   0.237   4.777  1.0469  0.1057  0.5104
 4557SOL     MW18228   4.215   0.209   4.707  0.0763 -0.1246 -0.0065
 4558SOL     OW18229   5.301   1.491   8.040 -0.2217  0.2585  0.0991
 4558SOL    HW118230   5.267   1.482   7.951 -1.6047  2.4842  0.3322
 4558SOL    HW218231   5.396   1.493   8.029 -0.3853  2.6112 -1.6296
 4558SOL     MW18232   5.309   1.490   8.027 -0.4298  0.8746 -0.1022
 4559SOL     OW18233   7.750   0.473   7.988 -0.0351 -0.3448  0.0965
 4559SOL    HW118234   7.654   0.468   7.992 -0.0846  0.3311 -0.0435
 4559SOL    HW218235   7.780   0.383   8.004 -0.7426 -0.8738 -1.4320
 4559SOL     MW18236   7.741   0.460   7.991 -0.1370 -0.3250 -0.1281
 4560SOL     OW18237   5.254   8.755   7.835 -0.0362 -0.6312  0.1381
 4560SOL    HW118238   5.188   8.822   7.850  0.7550  0.3822 -0.7276
 4560SOL    HW218239   5.207   8.672   7.847 -1.0966  0.0634  0.9614
 4560SOL     MW18240   5.239   8.753   7.839 -0.0724 -0.4013  0.1324
 4561SOL     OW18241   6.678   7.867   7.581  0.5002 -0.1217 -0.2156
 4561SOL    HW118242   6.708   7.856   7.671  3.2285  1.7765 -0.7475
 4561SOL    HW218243   6.618   7.942   7.585  0.4753 -0.1537  0.0268
 4561SOL     MW18244   6.674   7.876   7.594  0.8641  0.1295 -0.2546
 4562SOL     OW18245   6.213   0.435   5.405  0.1887  0.4664  0.8568
 4562SOL    HW118246   6.218   0.530   5.414  0.6064  0.4007  1.3481
 4562SOL    HW218247   6.119   0.416   5.401  0.0959  0.8747  1.0347
 4562SOL     MW18248   6.201   0.445   5.406  0.2324  0.5125  0.9469
 4563SOL     OW18249   5.088   8.529   6.495 -0.5618  0.3747 -0.2164
 4563SOL    HW118250   5.037   8.523   6.576  0.3019  1.1123  0.3947
 4563SOL    HW218251   5.176   8.504   6.520 -0.4847 -0.3721 -1.1608
 4563SOL     MW18252   5.093   8.524   6.509 -0.4352  0.3734 -0.2612
 4564SOL     OW18253   4.527   9.156   3.005 -0.0235  0.2107  0.0445
 4564SOL    HW118254   4.498   9.221   2.942 -1.3021 -0.2974  0.0855
 4564SOL    HW218255   4.510   9.072   2.963  1.5139 -0.1296  0.0327
 4564SOL     MW18256   4.521   9.153   2.991  0.0113  0.0965  0.0484
 4565SOL     OW18257   6.310   8.180   1.306 -0.0716 -0.1124  0.0075
 4565SOL    HW118258   6.320   8.186   1.401  0.3477  0.2261 -0.0582
 4565SOL    HW218259   6.396   8.153   1.274 -0.1222  0.0928 -0.3043
 4565SOL     MW18260   6.323   8.177   1.315 -0.0220 -0.0392 -0.0433
 4566SOL     OW18261   7.608   9.312   8.505 -0.3837 -0.2247 -0.1936
 4566SOL    HW118262   7.688   9.358   8.481 -1.1085  0.0846 -2.2177
 4566SOL    HW218263   7.537   9.370   8.476 -1.3389 -1.1342  0.2498
 4566SOL     MW18264   7.609   9.326   8.498 -0.6098 -0.3055 -0.4064
 4567SOL     OW18265   7.458   0.719   2.243 -0.4275 -0.1882 -0.5645
 4567SOL    HW118266   7.503   0.767   2.313  0.6232  0.6789 -1.7806
 4567SOL    HW218267   7.385   0.676   2.286 -0.1961  0.8683  0.9535
 4567SOL     MW18268   7.454   0.720   2.258 -0.2549  0.0707 -0.5238
 4568SOL     OW18269   6.505   1.712   7.301  0.2236  0.1539  0.2281
 4568SOL    HW118270   6.426   1.759   7.271  0.3183  1.6800  2.1649
 4568SOL    HW218271   6.471   1.637   7.349  0.0357 -0.7908 -1.3206
 4568SOL     MW18272   6.490   1.708   7.303  0.2111  0.2322  0.2803
 4569SOL     OW18273   7.269   1.027   8.234  0.0415  0.2960 -0.1218
 4569SOL    HW118274   7.264   1.044   8.140 -0.4239  3.1055  0.3381
 4569SOL    HW218275   7.362   1.037   8.255 -0.0639  1.2026 -0.0561
 4569SOL     MW18276   7.281   1.030   8.224 -0.0354  0.7961 -0.0510
 4570SOL     OW18277   6.429   9.050   1.431 -0.3337  0.1136  0.1888
 4570SOL    HW118278   6.519   9.036   1.460 -0.6956 -0.5989  0.9887
 4570SOL    HW218279   6.395   9.115   1.492 -0.3996  0.3095 -0.0552
 4570SOL     MW18280   6.437   9.057   1.443 -0.3913  0.0441  0.2636
 4571SOL     OW18281   5.847   8.616   7.419  0.2871 -0.7206  0.5657
 4571SOL    HW118282   5.767   8.652   7.380  1.2220  1.9599  0.8942
 4571SOL    HW218283   5.834   8.628   7.513  0.9912 -0.4454  0.6298
 4571SOL     MW18284   5.834   8.622   7.426  0.5077 -0.3229  0.6185
 4572SOL     OW18285   7.535   8.267   3.677 -0.6839 -0.0606 -0.0605
 4572SOL    HW118286   7.464   8.206   3.662 -1.2203  0.7606 -0.9307
 4572SOL    HW218287   7.592   8.222   3.740 -0.1336 -2.1898 -1.9796
 4572SOL     MW18288   7.533   8.253   3.684 -0.6821 -0.2366 -0.4359
 4573SOL     OW18289   6.473   1.300   4.253  0.4498  0.0768 -0.0624
 4573SOL    HW118290   6.403   1.234   4.256  1.0655 -0.5482  1.1996
 4573SOL    HW218291   6.544   1.257   4.204 -0.2328  0.9519 -1.9424
 4573SOL     MW18292   6.473   1.285   4.247  0.4408  0.1105 -0.1456
 4574SOL     OW18293   4.511   0.047   1.195 -1.1295 -0.4065 -0.0515
 4574SOL    HW118294   4.420   0.076   1.202 -1.5016 -1.5694  0.3371
 4574SOL    HW218295   4.538   0.033   1.286  0.1000  1.7549 -0.0249
 4574SOL     MW18296   4.502   0.049   1.208 -1.0141 -0.2722  0.0044
 4575SOL     OW18297   6.656   9.162   3.071  0.2458  0.1688 -0.7745
 4575SOL    HW118298   6.685   9.125   3.154 -0.8335  0.6019 -0.1776
 4575SOL    HW218299   6.711   9.121   3.005 -0.3742 -1.9049 -0.0656
 4575SOL     MW18300   6.667   9.152   3.073  0.0171 -0.0520 -0.5987
 4576SOL     OW18301   6.604   1.177   6.356 -0.5704  0.3351  0.5075
 4576SOL    HW118302   6.663   1.104   6.338  0.0773  0.8391  0.5461
 4576SOL    HW218303   6.639   1.217   6.436 -1.2833  0.3128  0.8364
 4576SOL     MW18304   6.616   1.172   6.364 -0.5792  0.3999  0.5570
 4577SOL     OW18305   4.955   9.949   5.850 -0.1864 -0.1003 -0.0986
 4577SOL    HW118306   5.041   9.990   5.837 -0.1629 -0.0055  0.3410
 4577SOL    HW218307   4.900  10.020   5.883  0.1932 -0.7013  1.9295
 4577SOL     MW18308   4.959   9.964   5.853 -0.1322 -0.1684  0.2335
 4578SOL     OW18309   7.410  10.114   9.116  0.1533 -0.1059  0.0283
 4578SOL    HW118310   7.417  10.138   9.024  1.8979 -0.0584  0.1504
 4578SOL    HW218311   7.461  10.180   9.162 -0.0374 -0.5941  0.9601
 4578SOL     MW18312   7.418  10.126   9.110  0.3624 -0.1652  0.1701
 4579SOL     OW18313   4.759   0.237   5.083  0.4711 -0.7351 -0.1779
 4579SOL    HW118314   4.714   0.177   5.024  0.4150 -0.3376 -0.5437
 4579SOL    HW218315   4.691   0.265   5.144  0.9335 -2.6149  1.3002
 4579SOL     MW18316   4.743   0.233   5.083  0.5258 -0.9346 -0.0282
 4580SOL     OW18317   7.293   1.455   5.749 -0.5213  0.3536 -0.2093
 4580SOL    HW118318   7.348   1.385   5.785  0.1170  0.1638 -1.5105
 4580SOL    HW218319   7.226   1.469   5.816 -1.8708 -2.8574 -0.7122
 4580SOL     MW18320   7.292   1.447   5.763 -0.6170 -0.1041 -0.4521
 4581SOL     OW18321   6.848  10.063   5.795  0.6952 -0.5905  0.5106
 4581SOL    HW118322   6.896  10.084   5.715  0.6491  0.5608  0.7618
 4581SOL    HW218323   6.900  10.104   5.865  0.9899 -1.9757  1.1346
 4581SOL     MW18324   6.862  10.072   5.794  0.7287 -0.6220  0.6284
 4582SOL     OW18325   3.843   9.923   6.096 -0.0534  0.6279  0.3110
 4582SOL    HW118326   3.876  10.000   6.050  0.8304  0.0738 -0.0172
 4582SOL    HW218327   3.750   9.921   6.075  0.2438  0.6401 -1.1283
 4582SOL     MW18328   3.835   9.933   6.087  0.1055  0.5550  0.0731
 4583SOL     OW18329   6.214   0.103   4.401  0.5817  0.0190 -0.3024
 4583SOL    HW118330   6.188   0.104   4.493  0.3693 -1.5438 -0.3244
 4583SOL    HW218331   6.234   0.011   4.382 -3.5333 -0.5852 -2.9465
 4583SOL     MW18332   6.213   0.091   4.411 -0.0007 -0.2726 -0.6612
 4584SOL     OW18333   4.789   8.365   3.341 -0.2246  0.5212  0.3044
 4584SOL    HW118334   4.746   8.298   3.288  0.8821  0.9556 -1.2100
 4584SOL    HW218335   4.734   8.373   3.419 -0.1935 -2.4165  0.7542
 4584SOL     MW18336   4.776   8.357   3.344 -0.0715  0.1843  0.1611
 4585SOL     OW18337   4.641   0.624   0.831  0.1311 -0.5724 -0.0426
 4585SOL    HW118338   4.694   0.604   0.754 -0.2722  0.9769 -0.7680
 4585SOL    HW218339   4.566   0.674   0.797  0.1510  0.5047  1.3784
 4585SOL     MW18340   4.638   0.628   0.816  0.0795 -0.2189  0.0510
 4586SOL     OW18341   5.061   9.240   2.615  0.0058 -0.1871 -0.3445
 4586SOL    HW118342   4.995   9.240   2.685 -0.3968 -1.5708 -0.7010
 4586SOL    HW218343   5.011   9.258   2.535  0.3709  0.7367 -0.3819
 4586SOL     MW18344   5.045   9.243   2.614  0.0008 -0.2490 -0.3975
 4587SOL     OW18345   6.625   1.780   7.051 -0.2518  0.6074 -0.2027
 4587SOL    HW118346   6.578   1.773   7.134 -0.2319  0.8412 -0.1710
 4587SOL    HW218347   6.560   1.815   6.989 -0.5173 -0.3763 -0.5012
 4587SOL     MW18348   6.610   1.783   7.054 -0.2849  0.5064 -0.2386
 4588SOL     OW18349   6.103   8.676   7.319 -0.1775 -0.4522  0.1310
 4588SOL    HW118350   6.156   8.690   7.398 -0.7249  0.2284  0.3871
 4588SOL    HW218351   6.014   8.661   7.352 -0.3654 -0.4062 -0.3441
 4588SOL     MW18352   6.098   8.676   7.334 -0.2764 -0.3545  0.1015
 4589SOL     OW18353   6.457   1.279   8.893 -0.1849  0.1003 -0.1969
 4589SOL    HW118354   6.448   1.340   8.966 -1.9203 -0.2706 -0.0556
 4589SOL    HW218355   6.401   1.315   8.824 -2.7980 -2.1900  0.5447
 4589SOL     MW18356   6.448   1.292   8.894 -0.7701 -0.2578 -0.0781
 4590SOL     OW18357   6.253   9.495   0.823  0.0747  0.4959  0.5003
 4590SOL    HW118358   6.224   9.534   0.905 -0.7500  0.8268  0.0680
 4590SOL    HW218359   6.301   9.565   0.779  0.8166  0.2112  0.8450
 4590SOL     MW18360   6.255   9.510   0.828  0.0636  0.5021  0.4885
 4591SOL     OW18361   5.318   9.651   9.516 -0.0655 -0.0305  0.1532
 4591SOL    HW118362   5.359   9.593   9.451  0.0504 -2.1423  1.9981
 4591SOL    HW218363   5.382   9.720   9.530  0.7252 -0.5869 -0.5883
 4591SOL     MW18364   5.332   9.653   9.509  0.0565 -0.3896  0.3017
 4592SOL     OW18365   5.866   7.571   5.698 -0.0118 -0.2622  0.0146
 4592SOL    HW118366   5.930   7.500   5.692  1.9962  1.3256  1.2682
 4592SOL    HW218367   5.823   7.557   5.782 -0.6807 -0.8056 -0.4097
 4592SOL     MW18368   5.869   7.560   5.709  0.1684 -0.1216  0.1262
 4593SOL     OW18369   7.496   9.121   1.288  0.4243 -0.5976 -0.4821
 4593SOL    HW118370   7.491   9.026   1.277  0.1781 -0.6713  0.2542
 4593SOL    HW218371   7.493   9.154   1.198  0.3416 -1.2757 -0.7416
 4593SOL     MW18372   7.495   9.112   1.274  0.3801 -0.6988 -0.4179
 4594SOL     OW18373   4.431   9.542   4.754 -0.2664  0.0330 -0.2905
 4594SOL    HW118374   4.400   9.599   4.824 -0.6099 -0.4033 -0.0843
 4594SOL    HW218375   4.364   9.547   4.687 -1.1568 -1.4186  0.4278
 4594SOL     MW18376   4.418   9.550   4.755 -0.4324 -0.2211 -0.1660
 4595SOL     OW18377   5.610   1.687   8.751 -0.7832  0.2092 -0.5158
 4595SOL    HW118378   5.576   1.612   8.702 -2.4041  0.3735  0.2853
 4595SOL    HW218379   5.619   1.757   8.685  0.6185 -0.6042 -1.2418
 4595SOL     MW18380   5.607   1.686   8.735 -0.8127  0.1219 -0.5057
 4596SOL     OW18381   4.922   0.722   5.863  0.4382 -0.4783  0.3857
 4596SOL    HW118382   4.921   0.740   5.957  2.5622 -2.2311  0.8300
 4596SOL    HW218383   4.996   0.773   5.830  0.3283 -0.6571 -0.1476
 4596SOL     MW18384   4.932   0.731   5.872  0.7092 -0.7383  0.3737
 4597SOL     OW18385   6.670   9.686   3.983  0.1666 -0.5737 -0.6415
 4597SOL    HW118386   6.628   9.769   3.961  1.6087  0.3527 -0.1001
 4597SOL    HW218387   6.731   9.671   3.910  0.1085 -1.0033 -0.5984
 4597SOL     MW18388   6.673   9.695   3.970  0.3528 -0.5068 -0.5629
 4598SOL     OW18389   7.644   9.484   9.745  0.3082  0.0820  0.1503
 4598SOL    HW118390   7.627   9.560   9.689  0.1016  0.2043  0.3748
 4598SOL    HW218391   7.737   9.488   9.764  0.1964  0.6001  0.6177
 4598SOL     MW18392   7.654   9.495   9.740  0.2653  0.1682  0.2434
 4599SOL     OW18393   6.188   9.590   9.767  0.0799  0.1871 -0.4922
 4599SOL    HW118394   6.220   9.582   9.677 -0.3563 -0.1729 -0.6195
 4599SOL    HW218395   6.148   9.505   9.786  3.1015 -1.0092  1.2100
 4599SOL     MW18396   6.187   9.577   9.757  0.4279 -0.0224 -0.2803
 4600SOL     OW18397   7.588   8.630   4.377 -0.3937 -0.0704 -0.0047
 4600SOL    HW118398   7.675   8.625   4.418 -1.2186  1.5604  2.1312
 4600SOL    HW218399   7.603   8.681   4.297  0.6777 -0.1241  0.1405
 4600SOL     MW18400   7.602   8.636   4.372 -0.3605  0.1419  0.3023
 4601SOL     OW18401   6.580   8.746   1.844 -0.5034  0.0130  0.4351
 4601SOL    HW118402   6.593   8.659   1.880 -1.1383  0.1001  0.8843
 4601SOL    HW218403   6.495   8.742   1.801 -0.2465  0.2304 -0.0998
 4601SOL     MW18404   6.570   8.734   1.843 -0.5542  0.0540  0.4235
 4602SOL     OW18405   6.499   1.749   1.723  0.0786  0.2179 -0.5226
 4602SOL    HW118406   6.515   1.814   1.654  0.8253 -0.0439 -0.6015
 4602SOL    HW218407   6.459   1.799   1.794 -1.6527  0.3197 -1.5061
 4602SOL     MW18408   6.496   1.765   1.723 -0.0539  0.1964 -0.6656
 4603SOL     OW18409   7.819   8.443   2.844 -0.0657 -0.0254 -0.1928
 4603SOL    HW118410   7.817   8.349   2.862 -3.4782  0.1905  1.2446
 4603SOL    HW218411   7.854   8.482   2.923 -0.5245 -0.0033  0.0050
 4603SOL     MW18412   7.823   8.435   2.857 -0.5867  0.0066  0.0273
 4604SOL     OW18413   4.891   9.092   3.484  0.4553  0.1226  0.0291
 4604SOL    HW118414   4.929   9.171   3.446 -0.7582  0.0159 -1.4897
 4604SOL    HW218415   4.960   9.058   3.541  0.5929  2.8770  1.6720
 4604SOL     MW18416   4.906   9.098   3.487  0.3105  0.4789  0.0458
 4605SOL     OW18417   6.420   0.617   0.500  0.2055 -0.1474 -0.5178
 4605SOL    HW118418   6.444   0.709   0.489 -3.8728  1.0906 -0.8638
 4605SOL    HW218419   6.386   0.590   0.414  2.0524 -2.3539 -0.6718
 4605SOL     MW18420   6.418   0.626   0.487 -0.0948 -0.2777 -0.5851
 4606SOL     OW18421   5.435   8.144   6.463 -0.8076  0.1027 -0.3064
 4606SOL    HW118422   5.396   8.180   6.384 -1.1189  0.1670 -0.1255
 4606SOL    HW218423   5.486   8.069   6.433  0.0638  0.8507 -0.7172
 4606SOL     MW18424   5.437   8.139   6.448 -0.7323  0.2120 -0.3373
 4607SOL     OW18425   5.255   8.300   9.072  0.3813 -0.4070  0.0041
 4607SOL    HW118426   5.323   8.292   9.005 -1.4609  0.0588 -2.0496
 4607SOL    HW218427   5.176   8.321   9.023 -0.6852  2.0424  2.5222
 4607SOL     MW18428   5.254   8.302   9.056 -0.0101 -0.0146  0.0666
 4608SOL     OW18429   7.235   9.954   9.420 -0.5668 -0.1994 -0.2110
 4608SOL    HW118430   7.222   9.966   9.326  1.5234 -2.2059 -0.8624
 4608SOL    HW218431   7.199   9.867   9.437 -0.1631 -0.1969  0.6647
 4608SOL     MW18432   7.228   9.944   9.409 -0.2311 -0.4691 -0.1808
 4609SOL     OW18433   4.788  10.087   8.203 -0.2366 -0.3365 -0.1677
 4609SOL    HW118434   4.797  10.104   8.110 -1.6353 -0.5375 -0.3586
 4609SOL    HW218435   4.805  10.171   8.245 -0.9060  0.0756 -0.6998
 4609SOL     MW18436   4.792  10.100   8.196 -0.5149 -0.3081 -0.2650
 4610SOL     OW18437   5.889   8.279   9.172  0.1798 -0.1855 -0.0656
 4610SOL    HW118438   5.809   8.320   9.140 -0.8986 -0.8094  1.6716
 4610SOL    HW218439   5.939   8.258   9.093 -0.9357  1.0606 -1.1405
 4610SOL     MW18440   5.885   8.282   9.157 -0.1155 -0.1018  0.0236
 4611SOL     OW18441   6.948   9.995   4.811 -0.6006  0.3086  0.3672
 4611SOL    HW118442   6.940   9.916   4.758  0.8754 -0.7223  1.6171
 4611SOL    HW218443   6.861  10.006   4.850 -0.7295 -0.9043  0.4618
 4611SOL     MW18444   6.935   9.986   4.809 -0.4193  0.0066  0.5481
 4612SOL     OW18445   3.568   9.808   5.198 -0.6314  0.3613 -0.7158
 4612SOL    HW118446   3.614   9.864   5.261  1.6328 -2.3893  0.3200
 4612SOL    HW218447   3.488   9.781   5.244  0.9981 -1.6297  1.2080
 4612SOL     MW18448   3.564   9.812   5.213 -0.1074 -0.2768 -0.3175
 4613SOL     OW18449   6.941   9.312   1.892  0.5547  0.4736 -0.2353
 4613SOL    HW118450   6.950   9.369   1.815 -0.1523 -0.2402 -0.8558
 4613SOL    HW218451   6.975   9.365   1.964  1.6939  0.9760 -1.1049
 4613SOL     MW18452   6.947   9.327   1.891  0.6128  0.4452 -0.4358
 4614SOL     OW18453   4.009   8.899   5.502 -0.1868  0.8898 -0.1305
 4614SOL    HW118454   4.089   8.911   5.450  0.0431  0.1509  0.0288
 4614SOL    HW218455   3.947   8.859   5.442 -1.1924  3.3872 -0.8671
 4614SOL     MW18456   4.012   8.895   5.487 -0.2912  1.1265 -0.2082
 4615SOL     OW18457   4.719   9.530  10.022 -0.0049 -0.1439  0.7099
 4615SOL    HW118458   4.756   9.618  10.032  0.9585 -0.6629  1.9437
 4615SOL    HW218459   4.762   9.494   9.944  1.1380 -0.2458  1.3625
 4615SOL     MW18460   4.730   9.537  10.013  0.2785 -0.2274  0.9638
 4616SOL     OW18461   5.285   9.285   4.071 -0.4443  0.2772 -0.3263
 4616SOL    HW118462   5.290   9.201   4.025 -0.5385 -0.1097  0.3653
 4616SOL    HW218463   5.375   9.302   4.099 -0.2120  0.9604 -1.4245
 4616SOL     MW18464   5.298   9.276   4.068 -0.4257  0.3171 -0.3810
 4617SOL     OW18465   6.162   0.660  10.073  0.0094 -0.3105  0.1231
 4617SOL    HW118466   6.080   0.612  10.083  0.0469  0.0241  3.0745
 4617SOL    HW218467   6.224   0.595  10.040 -0.7118 -1.4455  0.9121
 4617SOL     MW18468   6.160   0.645  10.070 -0.0826 -0.4182  0.6265
 4618SOL     OW18469   5.750   1.267   7.991  0.5271 -0.1330 -0.4278
 4618SOL    HW118470   5.671   1.313   8.020  0.5652 -0.7326  0.6696
 4618SOL    HW218471   5.774   1.310   7.909  1.9852  3.5471  1.6594
 4618SOL     MW18472   5.743   1.279   7.984  0.7284  0.2816  0.0008
 4619SOL     OW18473   6.997   8.231   9.744  0.3639 -0.4364 -0.1325
 4619SOL    HW118474   6.940   8.240   9.820 -2.8118 -1.4104 -2.2338
 4619SOL    HW218475   7.083   8.262   9.775 -1.2707  1.3205  3.1473
 4619SOL     MW18476   7.001   8.236   9.758 -0.2835 -0.3311  0.0261
 4620SOL     OW18477   5.987   8.486   0.054 -0.1082  0.5735 -0.3230
 4620SOL    HW118478   5.964   8.469   0.146 -2.4271  0.3396 -0.8818
 4620SOL    HW218479   5.907   8.522   0.016  0.9900  1.2205 -2.1447
 4620SOL     MW18480   5.973   8.489   0.061 -0.2725  0.6291 -0.6434
 4621SOL     OW18481   4.569   0.619   8.625 -0.1762  0.0250 -0.1325
 4621SOL    HW118482   4.555   0.568   8.545 -0.3155  0.8931 -0.6772
 4621SOL    HW218483   4.532   0.565   8.695  0.9677 -1.2540 -0.4875
 4621SOL     MW18484   4.562   0.605   8.624 -0.0410 -0.0303 -0.2535
 4622SOL     OW18485   6.861   8.639   7.927 -0.6376  0.1219 -0.1637
 4622SOL    HW118486   6.903   8.554   7.935  0.5303  0.8181  1.7389
 4622SOL    HW218487   6.931   8.702   7.944 -1.1633  1.5730 -2.7702
 4622SOL     MW18488   6.876   8.636   7.930 -0.5512  0.4109 -0.2584
 4623SOL     OW18489   3.860   0.264   4.122 -0.2888  0.1825 -0.1711
 4623SOL    HW118490   3.921   0.196   4.147  0.1322  0.3607 -0.7046
 4623SOL    HW218491   3.871   0.274   4.028 -0.3554  0.9732 -0.1035
 4623SOL     MW18492   3.870   0.257   4.113 -0.2411  0.3129 -0.2338
 4624SOL     OW18493   5.159   1.429   8.735  0.0077 -0.0512  0.5909
 4624SOL    HW118494   5.080   1.377   8.717  0.5779 -0.2519 -1.6714
 4624SOL    HW218495   5.171   1.482   8.656  2.6563 -0.7475  0.4366
 4624SOL     MW18496   5.150   1.429   8.722  0.4409 -0.1719  0.2657
 4625SOL     OW18497   4.505   0.182   4.722  0.3597 -0.3014  0.0607
 4625SOL    HW118498   4.410   0.189   4.719  0.3622 -0.3570 -2.1048
 4625SOL    HW218499   4.535   0.273   4.726  0.2087 -0.2516  0.0842
 4625SOL     MW18500   4.496   0.195   4.722  0.3397 -0.3022 -0.2276
 4626SOL     OW18501   6.530   1.010   1.991  0.4137 -0.2511  0.1124
 4626SOL    HW118502   6.572   1.077   1.937  1.6705  1.1141  2.6238
 4626SOL    HW218503   6.584   0.932   1.979  1.4719  0.4208  0.4408
 4626SOL     MW18504   6.543   1.009   1.982  0.7253  0.0231  0.4946
 4627SOL     OW18505   4.301   8.757   1.706 -0.1706  0.0399  0.2255
 4627SOL    HW118506   4.395   8.750   1.727 -0.1410 -0.1882  0.0183
 4627SOL    HW218507   4.274   8.838   1.748 -0.6640 -1.5143  3.2189
 4627SOL     MW18508   4.310   8.767   1.714 -0.2330 -0.2000  0.6005
 4628SOL     OW18509   5.673   1.350   0.649  0.1632 -0.2149  0.4459
 4628SOL    HW118510   5.580   1.333   0.665 -0.2619  0.7233 -0.8835
 4628SOL    HW218511   5.690   1.435   0.690 -0.2914  0.9531 -1.6759
 4628SOL     MW18512   5.663   1.359   0.657  0.0448  0.0685 -0.0185
 4629SOL     OW18513   4.762   9.355   3.363 -0.4070  0.3126 -0.6048
 4629SOL    HW118514   4.785   9.402   3.282 -0.6409  0.6067 -0.5004
 4629SOL    HW218515   4.689   9.299   3.338 -1.9461  1.9907 -0.1039
 4629SOL     MW18516   4.756   9.354   3.348 -0.6456  0.5780 -0.5234
 4630SOL     OW18517   6.009   8.578   4.718 -0.3823  0.5375 -0.3462
 4630SOL    HW118518   6.080   8.633   4.752  0.0060 -1.0498  1.6598
 4630SOL    HW218519   5.961   8.550   4.796 -1.6112 -0.5583 -1.4347
 4630SOL     MW18520   6.012   8.581   4.733 -0.4954  0.1764 -0.2227
 4631SOL     OW18521   7.578   0.463   9.033  0.3022  0.0636  0.7098
 4631SOL    HW118522   7.583   0.385   8.978 -0.1962 -0.0576  0.8312
 4631SOL    HW218523   7.521   0.438   9.106  0.8545  0.2651  1.2162
 4631SOL     MW18524   7.571   0.449   9.036  0.3095  0.0744  0.7943
 4632SOL     OW18525   7.075   1.376   7.696 -0.7466  0.2287 -0.4570
 4632SOL    HW118526   7.152   1.356   7.643  1.2241  1.0222  1.8996
 4632SOL    HW218527   7.043   1.458   7.661  2.4431  2.4691  1.3050
 4632SOL     MW18528   7.081   1.384   7.684 -0.0521  0.6370  0.0973
 4633SOL     OW18529   5.280   0.359   1.185 -0.4413 -0.1821 -0.2384
 4633SOL    HW118530   5.216   0.296   1.218 -0.4513 -0.3698 -0.6025
 4633SOL    HW218531   5.236   0.444   1.192  0.2814  0.0678  2.0836
 4633SOL     MW18532   5.266   0.362   1.190 -0.3454 -0.1738  0.0251
 4634SOL     OW18533   6.250  10.063   5.229  0.1888 -0.6782 -0.3459
 4634SOL    HW118534   6.285  10.152   5.217 -1.5017  0.1278  0.3057
 4634SOL    HW218535   6.172  10.076   5.284 -1.3696 -2.2827 -2.0619
 4634SOL     MW18536   6.244  10.077   5.235 -0.2484 -0.7856 -0.4891
 4635SOL     OW18537   6.502   0.225   2.375 -0.4492 -0.1647  0.3280
 4635SOL    HW118538   6.495   0.217   2.470  1.9964 -0.3439  0.5657
 4635SOL    HW218539   6.451   0.302   2.353  0.3650  0.9235  2.0642
 4635SOL     MW18540   6.494   0.234   2.385 -0.0105 -0.0424  0.5936
 4636SOL     OW18541   3.883  10.024   5.304 -0.0872 -0.1791  0.3982
 4636SOL    HW118542   3.789  10.040   5.297 -0.3680 -0.0645  3.1730
 4636SOL    HW218543   3.892   9.929   5.294 -0.4251 -0.1221 -0.4383
 4636SOL     MW18544   3.872  10.013   5.302 -0.1704 -0.1560  0.6590
 4637SOL     OW18545   5.283   8.975   2.874 -0.5971 -0.0124 -0.0792
 4637SOL    HW118546   5.211   8.945   2.819 -0.7281 -0.3683  0.2861
 4637SOL    HW218547   5.264   8.939   2.961 -0.2867  0.3799  0.1535
 4637SOL     MW18548   5.271   8.966   2.878 -0.5730 -0.0075  0.0013
 4638SOL     OW18549   4.892   8.901   0.026  0.2601  0.4522 -0.1184
 4638SOL    HW118550   4.930   8.828  -0.022 -1.8229 -0.2292 -0.8437
 4638SOL    HW218551   4.872   8.866   0.112  0.9837  0.7335  0.1725
 4638SOL     MW18552   4.894   8.887   0.031  0.0771  0.3984 -0.1769
 4639SOL     OW18553   5.244   7.933   2.056  0.1726  0.4975  0.4731
 4639SOL    HW118554   5.304   7.887   2.114 -0.1146 -0.1971  0.2295
 4639SOL    HW218555   5.224   8.014   2.102  2.6288  1.5741 -0.1851
 4639SOL     MW18556   5.249   7.938   2.070  0.4645  0.5489  0.3517
 4640SOL     OW18557   5.057   1.281   6.074  0.0877  0.4438  0.0083
 4640SOL    HW118558   5.096   1.306   6.158 -0.3599  0.7886  0.1184
 4640SOL    HW218559   5.067   1.359   6.019 -1.8017  1.1218  0.5249
 4640SOL     MW18560   5.063   1.295   6.078 -0.2268  0.5814  0.0926
 4641SOL     OW18561   5.181   9.984   4.224  0.3304  0.2882 -0.9779
 4641SOL    HW118562   5.109   9.990   4.286 -1.1056 -0.2288 -2.5007
 4641SOL    HW218563   5.203   9.891   4.220  1.4857  0.4944 -0.1471
 4641SOL     MW18564   5.175   9.972   4.232  0.2927  0.2464 -1.0711
 4642SOL     OW18565   7.760   9.661   6.582 -0.2506  0.4528  0.2323
 4642SOL    HW118566   7.736   9.689   6.493  0.9791 -0.5529 -0.4529
 4642SOL    HW218567   7.846   9.698   6.597  0.0030 -0.2536  0.5768
 4642SOL     MW18568   7.768   9.670   6.572 -0.0509  0.2224  0.1864
 4643SOL     OW18569   7.651   8.737   7.341  0.1118 -0.2345  0.0035
 4643SOL    HW118570   7.717   8.806   7.344  0.1834 -0.3257  0.8270
 4643SOL    HW218571   7.568   8.782   7.357  0.0219 -0.1784 -0.6123
 4643SOL     MW18572   7.649   8.752   7.344  0.1093 -0.2392  0.0315
 4644SOL     OW18573   4.347   9.916   4.281  0.2620  0.4060  0.0705
 4644SOL    HW118574   4.361  10.006   4.311 -3.9408  0.7785  1.5714
 4644SOL    HW218575   4.368   9.918   4.188  3.7747  1.8595  0.7099
 4644SOL     MW18576   4.352   9.928   4.273  0.1691  0.6517  0.3586
 4645SOL     OW18577   4.376   8.521   1.076 -0.1663 -0.8762  1.1133
 4645SOL    HW118578   4.418   8.604   1.101 -0.8647 -0.6797  1.6816
 4645SOL    HW218579   4.368   8.473   1.159  3.7406 -3.2629  0.4026
 4645SOL     MW18580   4.381   8.526   1.091  0.2655 -1.1709  1.0941
 4646SOL     OW18581   6.244   1.100   7.520  0.4648 -0.0165 -0.2248
 4646SOL    HW118582   6.294   1.149   7.454  0.7503 -0.3589 -0.2610
 4646SOL    HW218583   6.279   1.012   7.517 -0.6098 -0.4470 -0.7378
 4646SOL     MW18584   6.255   1.095   7.510  0.3586 -0.1205 -0.2987
 4647SOL     OW18585   6.666   9.161   2.723 -0.0525  0.3062 -0.1077
 4647SOL    HW118586   6.685   9.177   2.631  1.0148  0.5436  0.1399
 4647SOL    HW218587   6.749   9.175   2.767 -0.4143 -0.3796  0.8238
 4647SOL     MW18588   6.679   9.165   2.716  0.0425  0.2458  0.0510
 4648SOL     OW18589   6.446   0.774   6.900  0.3275 -0.3867 -0.0897
 4648SOL    HW118590   6.450   0.767   6.805  0.1023  0.3870 -0.1623
 4648SOL    HW218591   6.393   0.700   6.927 -0.3154 -0.1420 -0.6443
 4648SOL     MW18592   6.439   0.763   6.891  0.2107 -0.2497 -0.1741
 4649SOL     OW18593   6.592   0.346   7.401 -0.6575  0.4564  0.1773
 4649SOL    HW118594   6.555   0.363   7.488 -0.0618  2.6277  0.0792
 4649SOL    HW218595   6.600   0.251   7.396 -2.6163  0.1397  1.6787
 4649SOL     MW18596   6.588   0.336   7.412 -0.8409  0.7060  0.3661
 4650SOL     OW18597   4.653   0.911   0.720 -0.0308  0.2954 -0.5683
 4650SOL    HW118598   4.590   0.844   0.696  0.3321 -0.9347  1.6049
 4650SOL    HW218599   4.686   0.945   0.637 -2.5261  0.0541 -1.7425
 4650SOL     MW18600   4.649   0.907   0.706 -0.3178  0.0974 -0.4338
 4651SOL     OW18601   7.328   0.323   6.275  0.5012  0.1307  0.3213
 4651SOL    HW118602   7.396   0.259   6.255  0.9925  0.5030  0.7476
 4651SOL    HW218603   7.353   0.357   6.361 -0.5322 -0.1203  0.7335
 4651SOL     MW18604   7.340   0.319   6.284  0.4282  0.1470  0.4341
 4652SOL     OW18605   5.684   9.840   4.259  0.2141  0.4569 -0.0620
 4652SOL    HW118606   5.700   9.746   4.259 -0.0827  0.4068 -0.1961
 4652SOL    HW218607   5.692   9.866   4.351  0.9453  0.4128 -0.1015
 4652SOL     MW18608   5.687   9.831   4.271  0.2725  0.4442 -0.0853
 4653SOL     OW18609   6.941   9.445   5.995  0.4638 -0.3135  0.0511
 4653SOL    HW118610   7.012   9.392   5.958 -0.6899 -2.0444  0.1977
 4653SOL    HW218611   6.928   9.516   5.932  1.5097 -0.6658 -0.5794
 4653SOL     MW18612   6.949   9.447   5.982  0.4493 -0.5939 -0.0140
 4654SOL     OW18613   6.067   9.110   9.956 -0.6298  0.1109 -0.3686
 4654SOL    HW118614   6.050   9.180   9.893  0.3002 -0.7287 -1.5872
 4654SOL    HW218615   6.094   9.035   9.903  1.0743 -0.3642  1.0584
 4654SOL     MW18616   6.069   9.109   9.941 -0.2753 -0.0660 -0.3405
 4655SOL     OW18617   7.400   8.922   5.814 -0.2648 -0.0727 -0.7632
 4655SOL    HW118618   7.454   8.997   5.840 -0.1623 -0.7265  1.0334
 4655SOL    HW218619   7.310   8.950   5.830 -0.3805  0.3900 -2.1001
 4655SOL     MW18620   7.395   8.936   5.819 -0.2666 -0.0984 -0.7013
 4656SOL     OW18621   4.432   9.980   3.094  0.3703 -0.7080  0.4785
 4656SOL    HW118622   4.451   9.906   3.035  3.2284 -0.9395  1.5515
 4656SOL    HW218623   4.486   9.964   3.171 -1.6357  0.7168  2.3062
 4656SOL     MW18624   4.442   9.968   3.096  0.4850 -0.5474  0.8689
 4657SOL     OW18625   7.011   9.134   9.710 -0.4199 -0.4178  0.2411
 4657SOL    HW118626   7.087   9.077   9.695  0.3616  0.8270 -0.7767
 4657SOL    HW218627   6.936   9.082   9.682  0.3614 -0.6486 -1.5803
 4657SOL     MW18628   7.011   9.119   9.704 -0.2096 -0.2813 -0.1410
 4658SOL     OW18629   4.794   9.341   7.348 -0.2998  0.0873  0.1665
 4658SOL    HW118630   4.736   9.394   7.402 -0.2118 -2.0448  2.5299
 4658SOL    HW218631   4.882   9.368   7.373 -0.2632 -0.4223  0.6012
 4658SOL     MW18632   4.798   9.352   7.358 -0.2831 -0.2682  0.5430
 4659SOL     OW18633   6.986   9.461   1.669 -0.4377 -0.0221  0.3345
 4659SOL    HW118634   6.923   9.471   1.598 -0.5140  3.1407  0.6877
 4659SOL    HW218635   7.067   9.435   1.626 -1.0175 -0.2816 -0.6296
 4659SOL     MW18636   6.988   9.459   1.654 -0.5260  0.3686  0.2523
 4660SOL     OW18637   5.238   1.504   4.050  0.4794 -0.5211 -0.0179
 4660SOL    HW118638   5.167   1.439   4.057  0.4225 -0.3760  0.8824
 4660SOL    HW218639   5.316   1.457   4.077  0.2354  0.0967  1.9252
 4660SOL     MW18640   5.239   1.489   4.054  0.4389 -0.4184  0.3647
 4661SOL     OW18641   4.257   0.334   0.677  0.5268 -0.3897 -0.2471
 4661SOL    HW118642   4.306   0.367   0.601  0.2745  1.2351  0.2614
 4661SOL    HW218643   4.324   0.318   0.743  0.9381 -3.2748 -1.2341
 4661SOL     MW18644   4.273   0.337   0.675  0.5482 -0.5593 -0.3115
 4662SOL     OW18645   5.400   1.474   0.493 -0.9863 -0.3804  0.4735
 4662SOL    HW118646   5.389   1.421   0.572  0.3728 -1.5330 -0.0543
 4662SOL    HW218647   5.427   1.411   0.426 -0.8489  0.7685 -0.5820
 4662SOL     MW18648   5.402   1.459   0.495 -0.7849 -0.3809  0.2604
 4663SOL     OW18649   7.076   8.617   9.664  0.1626 -0.0674  0.0042
 4663SOL    HW118650   7.115   8.544   9.713 -1.2353 -0.9323 -0.1236
 4663SOL    HW218651   7.058   8.582   9.577  0.5144  0.7838 -0.4291
 4663SOL     MW18652   7.079   8.603   9.659  0.0218 -0.0693 -0.0713
 4664SOL     OW18653   5.182   0.626   2.350 -0.7515 -0.0014  0.4576
 4664SOL    HW118654   5.134   0.707   2.366  0.3424  0.6034  0.7890
 4664SOL    HW218655   5.274   0.650   2.362 -0.3749 -1.1688  0.0239
 4664SOL     MW18656   5.188   0.640   2.354 -0.5536 -0.0771  0.4438
 4665SOL     OW18657   5.142   8.922   7.230  0.7134 -0.1335  0.0130
 4665SOL    HW118658   5.215   8.860   7.236  0.0565 -0.9011  0.2230
 4665SOL    HW218659   5.082   8.895   7.300 -0.2548 -0.1644 -0.8113
 4665SOL     MW18660   5.144   8.910   7.240  0.4947 -0.2410 -0.0697
 4666SOL     OW18661   4.920   0.697   1.107  0.0725  0.0431  0.3986
 4666SOL    HW118662   4.829   0.671   1.119  0.4239 -0.9194  1.1581
 4666SOL    HW218663   4.920   0.748   1.026 -1.2926  0.8952  0.9122
 4666SOL     MW18664   4.908   0.700   1.097 -0.0640  0.0283  0.5700
 4667SOL     OW18665   5.716   1.047   1.871 -0.1920  0.0133 -0.3127
 4667SOL    HW118666   5.699   1.140   1.883 -3.4362 -0.4372 -0.7014
 4667SOL    HW218667   5.639   1.014   1.825  0.3078 -3.0811  0.8594
 4667SOL     MW18668   5.704   1.055   1.866 -0.5613 -0.4638 -0.2072
 4668SOL     OW18669   6.173   9.629   2.277  0.3223 -0.1603  0.6947
 4668SOL    HW118670   6.211   9.568   2.341  0.3526 -0.7214  0.1543
 4668SOL    HW218671   6.095   9.583   2.244  1.3880 -0.7783 -1.1243
 4668SOL     MW18672   6.168   9.614   2.281  0.4698 -0.3190  0.3771
 4669SOL     OW18673   5.477   8.777   8.812  0.3810  0.4043  0.8317
 4669SOL    HW118674   5.405   8.837   8.832 -0.0904 -0.0654  0.5631
 4669SOL    HW218675   5.538   8.787   8.885  0.3950  1.3429  0.7006
 4669SOL     MW18676   5.476   8.786   8.824  0.3194  0.4674  0.7779
 4670SOL     OW18677   5.713   8.238   7.096  0.5910  0.2850 -0.0617
 4670SOL    HW118678   5.802   8.269   7.082  0.4436  0.8254  0.1405
 4670SOL    HW218679   5.668   8.255   7.013  0.6100  0.2679 -0.0755
 4670SOL     MW18680   5.719   8.245   7.083  0.5737  0.3554 -0.0363
 4671SOL     OW18681   5.622   8.339   6.855 -0.0366  0.4248 -0.0484
 4671SOL    HW118682   5.660   8.415   6.811  1.2724 -1.3506 -2.1619
 4671SOL    HW218683   5.546   8.316   6.803  0.2990 -0.4387 -0.1797
 4671SOL     MW18684   5.617   8.346   6.842  0.1847  0.0696 -0.3505
 4672SOL     OW18685   6.928   9.976   3.206 -0.4470 -0.0438 -0.0409
 4672SOL    HW118686   6.995   9.953   3.141 -1.6004 -0.9449 -0.9547
 4672SOL    HW218687   6.868   9.902   3.206 -1.1058  0.4594  1.2396
 4672SOL     MW18688   6.929   9.963   3.197 -0.6909 -0.0973  0.0085
 4673SOL     OW18689   5.930   0.265  10.121  0.8496  0.2530 -0.2598
 4673SOL    HW118690   5.886   0.224  10.195  1.3813 -0.9464 -0.5740
 4673SOL    HW218691   6.023   0.256  10.140  0.9798  0.8709 -0.5822
 4673SOL     MW18692   5.936   0.258  10.134  0.9387  0.1748 -0.3455
 4674SOL     OW18693   5.529   1.338   9.465  0.3566 -0.8764  0.2781
 4674SOL    HW118694   5.570   1.320   9.550  1.4226  0.6689  0.1446
 4674SOL    HW218695   5.474   1.414   9.481  2.5240  1.0701 -0.8691
 4674SOL     MW18696   5.527   1.346   9.479  0.7917 -0.4065  0.1057
 4675SOL     OW18697   4.386   8.973   3.378 -0.0420 -0.4274 -0.2432
 4675SOL    HW118698   4.405   9.020   3.460  0.7901 -1.2415  0.0435
 4675SOL    HW218699   4.324   9.030   3.333  1.6828  1.5132 -0.3869
 4675SOL     MW18700   4.381   8.987   3.383  0.3021 -0.2758 -0.2239
 4676SOL     OW18701   5.402   8.316   6.236 -0.1680  0.4701  0.2522
 4676SOL    HW118702   5.390   8.382   6.305  0.5282 -1.0157  1.8825
 4676SOL    HW218703   5.384   8.363   6.155 -0.2007  2.5277  1.3673
 4676SOL     MW18704   5.398   8.331   6.235 -0.0787  0.5470  0.6217
 4677SOL     OW18705   7.504   9.544   5.705  0.1753  0.0263 -0.5544
 4677SOL    HW118706   7.567   9.616   5.717  1.4224 -0.4534 -3.4438
 4677SOL    HW218707   7.558   9.467   5.691 -1.1388 -1.1379  0.5604
 4677SOL     MW18708   7.520   9.544   5.705  0.1663 -0.1950 -0.7932
 4678SOL     OW18709   4.358   0.143   6.957  0.0997 -0.2376 -0.6204
 4678SOL    HW118710   4.323   0.168   6.872  0.9779  0.7261 -0.7209
 4678SOL    HW218711   4.431   0.084   6.937 -0.6745 -1.2735 -0.4612
 4678SOL     MW18712   4.363   0.139   6.943  0.1137 -0.2473 -0.6125
 4679SOL     OW18713   4.423   1.157   5.497 -0.4990  0.5357 -0.0496
 4679SOL    HW118714   4.435   1.062   5.498 -1.8141  0.3607  0.9382
 4679SOL    HW218715   4.376   1.177   5.578  0.3896  2.1277  0.1091
 4679SOL     MW18716   4.418   1.147   5.508 -0.5564  0.7264  0.1047
 4680SOL     OW18717   4.204   0.988   4.168 -0.0788 -0.3892 -0.0389
 4680SOL    HW118718   4.257   0.948   4.099 -1.4407 -1.3049 -0.6072
 4680SOL    HW218719   4.119   1.003   4.126 -0.7554 -0.4145  1.2891
 4680SOL     MW18720   4.200   0.985   4.153 -0.3531 -0.5159  0.0633
 4681SOL     OW18721   7.384   0.653   0.878  0.1893  0.1226 -0.1552
 4681SOL    HW118722   7.355   0.562   0.871 -1.0808  0.4937 -0.1189
 4681SOL    HW218723   7.369   0.690   0.791  2.6676 -0.2040 -0.7873
 4681SOL     MW18724   7.378   0.646   0.865  0.3519  0.1286 -0.2354
 4682SOL     OW18725   5.285   0.911   4.082 -0.3398 -0.1420 -0.6770
 4682SOL    HW118726   5.331   0.966   4.146  0.9019 -1.5079 -0.3427
 4682SOL    HW218727   5.221   0.970   4.042 -1.4525  0.6962  2.0500
 4682SOL     MW18728   5.283   0.927   4.086 -0.3224 -0.2130 -0.2650
 4683SOL     OW18729   5.789   1.698   9.823  0.1957  0.3416  1.1165
 4683SOL    HW118730   5.696   1.702   9.800 -0.2850 -2.5848  2.1132
 4683SOL    HW218731   5.789   1.693   9.919  1.3580  0.0471  1.1103
 4683SOL     MW18732   5.776   1.698   9.833  0.2874 -0.0918  1.2498
 4684SOL     OW18733   5.924   9.722   8.575  0.7244 -0.0080 -0.2035
 4684SOL    HW118734   5.924   9.692   8.484  0.2983  1.3881 -0.6953
 4684SOL    HW218735   6.017   9.734   8.596  0.7985  0.3606 -0.7139
 4684SOL     MW18736   5.937   9.719   8.565  0.6770  0.2295 -0.3384
 4685SOL     OW18737   5.930   8.277   5.642  0.7023  0.3605  0.0996
 4685SOL    HW118738   6.011   8.267   5.692 -0.3631  1.7872  2.2699
 4685SOL    HW218739   5.920   8.194   5.596  3.3799  0.1649 -0.2647
 4685SOL     MW18740   5.940   8.265   5.642  0.9193  0.5262  0.3427
 4686SOL     OW18741   3.747   9.060   8.949 -0.3854 -0.3309 -0.4179
 4686SOL    HW118742   3.707   9.040   8.865  1.3137 -1.0524 -1.0999
 4686SOL    HW218743   3.695   9.132   8.984 -1.0697  0.0627 -2.1378
 4686SOL     MW18744   3.735   9.067   8.942 -0.2488 -0.3750 -0.7411
 4687SOL     OW18745   6.685   9.291   9.596  0.2248  0.0745 -0.0168
 4687SOL    HW118746   6.734   9.208   9.590 -1.7287 -1.1997  0.6468
 4687SOL    HW218747   6.641   9.298   9.511 -2.3745 -1.4810  1.0771
 4687SOL     MW18748   6.686   9.281   9.583 -0.3880 -0.3063  0.2197
 4688SOL     OW18749   4.581   0.818   3.793  0.5457 -0.1300  0.6225
 4688SOL    HW118750   4.555   0.726   3.788 -0.1312  0.0399  0.9206
 4688SOL    HW218751   4.652   0.826   3.730 -0.6725 -0.4117 -0.8331
 4688SOL     MW18752   4.587   0.806   3.784  0.2906 -0.1450  0.4667
 4689SOL     OW18753   5.460   8.501   5.453  0.0868  0.0759 -0.4809
 4689SOL    HW118754   5.486   8.557   5.526 -0.7679  0.7287 -0.6649
 4689SOL    HW218755   5.539   8.451   5.432  1.0983  1.7174 -0.7817
 4689SOL     MW18756   5.474   8.502   5.460  0.1079  0.3847 -0.5461
 4690SOL     OW18757   4.260   9.300   5.074  0.1796  0.1186 -0.2180
 4690SOL    HW118758   4.207   9.302   4.995 -1.8190  0.1481  1.0632
 4690SOL    HW218759   4.341   9.344   5.050  0.2031 -1.0944 -2.6250
 4690SOL     MW18760   4.264   9.306   5.060 -0.0862 -0.0407 -0.3695
 4691SOL     OW18761   7.071   8.909  10.034 -0.8441  0.0039  0.2012
 4691SOL    HW118762   7.031   8.996  10.036 -2.0513 -0.5405  1.2119
 4691SOL    HW218763   7.154   8.920  10.081 -1.3902  0.4488  1.1028
 4691SOL     MW18764   7.076   8.922  10.041 -1.0801 -0.0095  0.4586
 4692SOL     OW18765   6.015   1.571   2.152 -0.0725  0.2171  0.4365
 4692SOL    HW118766   5.958   1.602   2.081 -0.6041 -1.0514  0.2820
 4692SOL    HW218767   6.005   1.475   2.150  2.7978 -0.1625 -0.2341
 4692SOL     MW18768   6.006   1.562   2.142  0.2423 -0.0047  0.3254
 4693SOL     OW18769   4.215   9.010   1.800 -0.4745  0.0819 -0.2832
 4693SOL    HW118770   4.131   9.054   1.810  0.2648  1.1197  2.7077
 4693SOL    HW218771   4.272   9.075   1.758 -0.2926  0.7435  0.9432
 4693SOL     MW18772   4.212   9.025   1.796 -0.3505  0.3106  0.2843
 4694SOL     OW18773   3.670   9.717   1.731 -0.6419  0.0352 -0.0529
 4694SOL    HW118774   3.697   9.658   1.660  0.4131  1.4978 -0.9272
 4694SOL    HW218775   3.671   9.804   1.691 -1.6093  0.7266  1.3536
 4694SOL     MW18776   3.674   9.720   1.716 -0.6301  0.3251  0.0187
 4695SOL     OW18777   4.705   7.674   1.648  0.5060  0.0111 -0.5547
 4695SOL    HW118778   4.783   7.713   1.609  0.9413 -1.2606 -1.0328
 4695SOL    HW218779   4.736   7.590   1.683 -0.5546 -0.3202 -0.3747
 4695SOL     MW18780   4.720   7.668   1.647  0.4218 -0.2047 -0.5948
 4696SOL     OW18781   5.366   8.609   3.042  0.1671 -0.0623  0.3197
 4696SOL    HW118782   5.308   8.622   3.117  0.6275  0.8318  0.5385
 4696SOL    HW218783   5.441   8.561   3.078  0.9805  1.4538  0.7529
 4696SOL     MW18784   5.368   8.604   3.057  0.3385  0.2621  0.4074
 4697SOL     OW18785   6.110   1.598   7.745 -0.2329 -0.2143 -0.3930
 4697SOL    HW118786   6.185   1.542   7.726  0.4287  0.3328  0.5405
 4697SOL    HW218787   6.147   1.686   7.755 -1.2644  0.4677 -1.9796
 4697SOL     MW18788   6.125   1.603   7.744 -0.2827 -0.0489 -0.4809
 4698SOL     OW18789   5.294   0.427   7.034  0.4336  0.0304 -0.6147
 4698SOL    HW118790   5.311   0.462   6.947 -0.8373  2.3043 -0.0258
 4698SOL    HW218791   5.367   0.459   7.088  0.2610  0.1908 -0.4731
 4698SOL     MW18792   5.306   0.436   7.030  0.2393  0.3580 -0.5164
 4699SOL     OW18793   5.408   9.506   7.925 -0.3918 -0.1289 -0.2220
 4699SOL    HW118794   5.363   9.497   7.840 -0.8207 -1.5822  0.1272
 4699SOL    HW218795   5.501   9.504   7.903 -0.3947  3.2017 -0.9865
 4699SOL     MW18796   5.414   9.504   7.910 -0.4499  0.1237 -0.2779
 4700SOL     OW18797   6.125   7.701   4.310  0.2018 -0.1761 -0.2573
 4700SOL    HW118798   6.089   7.697   4.399 -0.0201 -0.3004 -0.3524
 4700SOL    HW218799   6.048   7.704   4.253  0.3250  1.5317 -0.3856
 4700SOL     MW18800   6.110   7.700   4.315  0.1885  0.0370 -0.2873
 4701SOL     OW18801   6.109   7.982   8.351  0.2505  0.0080 -0.0368
 4701SOL    HW118802   6.204   7.989   8.342  0.2578 -0.9526 -0.9658
 4701SOL    HW218803   6.073   8.049   8.293  0.3497  0.6359  0.6128
 4701SOL     MW18804   6.117   7.992   8.342  0.2649 -0.0368 -0.0744
 4702SOL     OW18805   4.832   0.265   3.297 -0.0012  0.2535  0.2196
 4702SOL    HW118806   4.880   0.236   3.219 -2.2511  1.3962 -1.7339
 4702SOL    HW218807   4.784   0.188   3.327  0.5214 -0.0803  0.2021
 4702SOL     MW18808   4.832   0.251   3.290 -0.2337  0.3624 -0.0457
 4703SOL     OW18809   5.986   0.306   8.609  0.2241  0.3207 -0.4139
 4703SOL    HW118810   5.912   0.303   8.549  1.2079  0.2461 -1.6601
 4703SOL    HW218811   6.062   0.285   8.555  0.8751 -2.3949  1.3559
 4703SOL     MW18812   5.986   0.302   8.594  0.4441 -0.0548 -0.3434
 4704SOL     OW18813   6.867   1.723   8.614  0.3514  0.0569  0.3043
 4704SOL    HW118814   6.886   1.815   8.592 -2.1199  0.3346 -0.9652
 4704SOL    HW218815   6.804   1.729   8.686  0.6124 -0.6820  0.5982
 4704SOL     MW18816   6.861   1.736   8.621  0.0539 -0.0052  0.1730
 4705SOL     OW18817   7.858   9.691   0.007  0.1003 -0.2305 -0.4212
 4705SOL    HW118818   7.870   9.601   0.036 -0.2527  0.2074  1.1753
 4705SOL    HW218819   7.892   9.744   0.079 -0.7948  0.9169 -0.8144
 4705SOL     MW18820   7.864   9.686   0.021 -0.0677 -0.0171 -0.2592
 4706SOL     OW18821   6.364   8.663   0.205  0.2069 -0.2981 -0.0149
 4706SOL    HW118822   6.378   8.568   0.202  0.3084 -0.2456 -1.4624
 4706SOL    HW218823   6.275   8.675   0.171  0.2759  0.1446 -0.0411
 4706SOL     MW18824   6.354   8.651   0.200  0.2299 -0.2314 -0.2132
 4707SOL     OW18825   4.433   0.562   1.220  0.8691 -0.3570  0.5763
 4707SOL    HW118826   4.387   0.636   1.260  0.2048 -0.0842 -0.6290
 4707SOL    HW218827   4.513   0.600   1.183  0.7768 -0.3290  0.4023
 4707SOL     MW18828   4.437   0.577   1.220  0.7673 -0.3165  0.3907
 4708SOL     OW18829   6.032   9.168   4.547  0.1012 -0.5554  0.2852
 4708SOL    HW118830   6.036   9.263   4.559  2.6248 -0.5807  0.3229
 4708SOL    HW218831   6.018   9.156   4.453 -1.6616 -0.1942  0.4744
 4708SOL     MW18832   6.031   9.179   4.536  0.2035 -0.5102  0.3157
 4709SOL     OW18833   3.833   9.881   7.360  0.2537 -0.6651 -0.1752
 4709SOL    HW118834   3.773   9.851   7.428 -0.0320  2.9398  1.3601
 4709SOL    HW218835   3.917   9.838   7.381 -0.4180 -1.4814  0.9447
 4709SOL     MW18836   3.837   9.871   7.372  0.1249 -0.2898  0.1821
 4710SOL     OW18837   5.373   0.454   6.761 -0.0383  0.3304  0.3275
 4710SOL    HW118838   5.392   0.538   6.718 -1.5415  0.4096 -0.2606
 4710SOL    HW218839   5.439   0.394   6.727  0.3667  1.0183 -0.1292
 4710SOL     MW18840   5.384   0.457   6.750 -0.1861  0.4337  0.1869
 4711SOL     OW18841   6.055   1.310   1.987 -0.0821  0.1878  0.2251
 4711SOL    HW118842   6.033   1.369   1.916  0.2453 -0.1399 -0.1552
 4711SOL    HW218843   6.093   1.233   1.944 -0.2215 -0.1687  0.7292
 4711SOL     MW18844   6.057   1.308   1.972 -0.0568  0.0957  0.2417
 4712SOL     OW18845   6.882   9.552   8.948  0.4120 -0.3072  0.9978
 4712SOL    HW118846   6.949   9.563   8.880 -0.6523 -1.1265 -0.2203
 4712SOL    HW218847   6.900   9.466   8.986 -1.1323 -1.5130 -0.7821
 4712SOL     MW18848   6.893   9.542   8.944  0.0610 -0.5797  0.5944
 4713SOL     OW18849   3.668   8.970   2.932 -0.1282  0.3948  0.0940
 4713SOL    HW118850   3.705   8.983   2.845 -2.4850 -0.0758 -1.0566
 4713SOL    HW218851   3.722   9.024   2.989  1.4319  0.7909 -1.6557
 4713SOL     MW18852   3.680   8.979   2.928 -0.2354  0.3848 -0.2964
 4714SOL     OW18853   5.508   0.679   9.533  0.2243 -0.0115  0.3784
 4714SOL    HW118854   5.585   0.700   9.587  0.5823  1.0457 -0.5038
 4714SOL    HW218855   5.472   0.600   9.572  2.5683 -1.3600  0.0190
 4714SOL     MW18856   5.514   0.671   9.545  0.5880 -0.0507  0.2113
 4715SOL     OW18857   4.978   9.230   6.547 -0.2667 -0.1027  0.2657
 4715SOL    HW118858   4.956   9.287   6.621 -0.4224  0.4986 -0.2345
 4715SOL    HW218859   5.045   9.171   6.581  1.2588  1.5810  0.2914
 4715SOL     MW18860   4.984   9.230   6.561 -0.0823  0.2048  0.2019
 4716SOL     OW18861   5.929   1.850   9.638  0.1464  0.0365  0.3233
 4716SOL    HW118862   5.865   1.920   9.624 -1.0939 -1.2453 -0.8238
 4716SOL    HW218863   5.889   1.794   9.704 -0.3049 -1.1533 -0.8990
 4716SOL     MW18864   5.915   1.852   9.645 -0.0813 -0.2961  0.0044
 4717SOL     OW18865   7.476   1.230   7.141 -0.2118 -0.3570  0.2129
 4717SOL    HW118866   7.508   1.177   7.214  1.0731  0.4571  0.2661
 4717SOL    HW218867   7.529   1.309   7.143 -0.7988  0.1001 -1.0360
 4717SOL     MW18868   7.487   1.233   7.151 -0.1179 -0.1859  0.0520
 4718SOL     OW18869   7.665   0.416   0.214  0.1911 -0.0233  0.2468
 4718SOL    HW118870   7.585   0.452   0.177 -0.0319 -0.6047  0.1578
 4718SOL    HW218871   7.732   0.434   0.149 -0.3287 -1.6567 -0.7934
 4718SOL     MW18872   7.663   0.423   0.201  0.0912 -0.3213  0.0948
 4719SOL     OW18873   4.886   9.928   3.073 -0.0335 -0.3540  0.2178
 4719SOL    HW118874   4.950   9.975   3.127  0.4940 -0.6236 -0.1606
 4719SOL    HW218875   4.805   9.932   3.123  0.4435 -0.5908  1.0257
 4719SOL     MW18876   4.884   9.935   3.087  0.1017 -0.4222  0.2756
 4720SOL     OW18877   7.799   0.390  10.121 -0.3653 -0.2825  0.2151
 4720SOL    HW118878   7.791   0.295  10.128 -2.3574 -0.0855  1.1600
 4720SOL    HW218879   7.751   0.413  10.042 -0.0610 -0.0388  0.0989
 4720SOL     MW18880   7.792   0.381  10.112 -0.5925 -0.2232  0.3266
 4721SOL     OW18881   5.841   8.420   4.428  0.0005  0.1588 -0.3758
 4721SOL    HW118882   5.798   8.358   4.369  0.0165 -1.6767  1.4245
 4721SOL    HW218883   5.891   8.365   4.488 -0.8479  1.8336  2.0133
 4721SOL     MW18884   5.842   8.404   4.428 -0.1115  0.1372  0.1880
 4722SOL     OW18885   6.569   7.966   6.612  0.1694  0.2061 -0.3479
 4722SOL    HW118886   6.610   7.887   6.578 -0.1973 -0.3729  0.5350
 4722SOL    HW218887   6.557   8.022   6.535 -0.8512 -1.1608 -1.2246
 4722SOL     MW18888   6.573   7.963   6.597 -0.0173 -0.0558 -0.3471
 4723SOL     OW18889   6.305   0.959   9.153  0.2521  0.4417 -0.1569
 4723SOL    HW118890   6.324   0.870   9.180 -3.2421 -0.3724  0.0874
 4723SOL    HW218891   6.325   0.960   9.059  2.4943  0.1716  0.2631
 4723SOL     MW18892   6.310   0.947   9.144  0.0836  0.2958 -0.0675
 4724SOL     OW18893   4.873   0.241   4.239 -0.1138 -0.0250  0.4616
 4724SOL    HW118894   4.876   0.170   4.175 -2.2133 -0.4303  0.7382
 4724SOL    HW218895   4.956   0.287   4.227  0.4538 -1.3323 -1.0844
 4724SOL     MW18896   4.884   0.238   4.229 -0.3199 -0.2554  0.2908
 4725SOL     OW18897   5.605   1.297   1.921  0.0789 -0.3520  0.0602
 4725SOL    HW118898   5.614   1.372   1.980  1.7854  0.4790 -1.1473
 4725SOL    HW218899   5.512   1.295   1.898 -0.0266  1.3996  0.1682
 4725SOL     MW18900   5.594   1.307   1.926  0.2943 -0.0044 -0.0877
 4726SOL     OW18901   4.278   8.628   6.637 -0.0863 -0.0819 -0.0132
 4726SOL    HW118902   4.358   8.681   6.639 -0.9282  1.3175 -1.0962
 4726SOL    HW218903   4.278   8.581   6.721  1.6259  0.2234  0.1954
 4726SOL     MW18904   4.289   8.629   6.649  0.0308  0.1475 -0.1309
 4727SOL     OW18905   5.888   0.196   3.478  0.1117 -0.1766  0.6752
 4727SOL    HW118906   5.979   0.220   3.462  0.1742 -0.4887  0.5595
 4727SOL    HW218907   5.853   0.175   3.391  0.2392 -1.1359  0.8464
 4727SOL     MW18908   5.895   0.197   3.464  0.1373 -0.3477  0.6826
 4728SOL     OW18909   4.919   1.271   2.157 -0.3704  0.3158  0.3438
 4728SOL    HW118910   4.946   1.348   2.207  0.9022  0.4875 -0.5541
 4728SOL    HW218911   4.929   1.198   2.219 -1.0782  0.8049  1.0378
 4728SOL     MW18912   4.924   1.271   2.172 -0.2944  0.4047  0.3163
 4729SOL     OW18913   6.686   8.396   6.421  0.0604  0.5932 -0.5851
 4729SOL    HW118914   6.747   8.386   6.494  1.3104 -0.0771 -1.6920
 4729SOL    HW218915   6.663   8.306   6.396 -0.1291  0.8090 -1.2004
 4729SOL     MW18916   6.691   8.383   6.428  0.2031  0.5320 -0.8168
 4730SOL     OW18917   6.152   1.294   3.716  0.9051  0.0740  0.3675
 4730SOL    HW118918   6.100   1.371   3.736 -1.3134 -1.6150  1.6346
 4730SOL    HW218919   6.128   1.230   3.784  0.2514 -2.7614 -2.2873
 4730SOL     MW18920   6.142   1.296   3.728  0.5185 -0.5349  0.1808
 4731SOL     OW18921   8.113   9.887   4.831 -0.4915 -0.5939  0.1816
 4731SOL    HW118922   8.130   9.800   4.795  1.0257 -1.0507  1.8356
 4731SOL    HW218923   8.144   9.947   4.764  0.3315 -1.3637 -0.1541
 4731SOL     MW18924   8.120   9.883   4.817 -0.1766 -0.7590  0.3590
 4732SOL     OW18925   5.744   9.322   1.141  0.4657  0.2417  0.1310
 4732SOL    HW118926   5.746   9.417   1.147  0.7003  0.3364 -1.1324
 4732SOL    HW218927   5.783   9.302   1.056  1.7624 -1.0685  0.9831
 4732SOL     MW18928   5.750   9.332   1.130  0.6718  0.0781  0.0756
 4733SOL     OW18929   5.621  10.140   1.339 -0.4513  0.2455 -0.0389
 4733SOL    HW118930   5.610  10.203   1.410  3.7204  0.4652  0.6751
 4733SOL    HW218931   5.614  10.055   1.381 -0.6677  0.3406  0.1161
 4733SOL     MW18932   5.619  10.137   1.354  0.0810  0.2879  0.0780
 4734SOL     OW18933   7.799   9.560   1.132 -0.3037  0.2368 -0.5212
 4734SOL    HW118934   7.853   9.524   1.202 -1.0446  0.5911  0.2498
 4734SOL    HW218935   7.786   9.487   1.071 -0.0276 -0.2010 -0.0581
 4734SOL     MW18936   7.804   9.545   1.133 -0.3662  0.2256 -0.3551
 4735SOL     OW18937   7.662   8.615   1.915  0.1820  0.1328 -0.0419
 4735SOL    HW118938   7.590   8.570   1.871  1.1464 -0.1454 -1.3606
 4735SOL    HW218939   7.695   8.677   1.851  0.3674  1.1183  0.9677
 4735SOL     MW18940   7.657   8.617   1.901  0.3368  0.2280 -0.0835
 4736SOL     OW18941   6.357   8.232   6.172  0.0947  0.2819 -0.0247
 4736SOL    HW118942   6.394   8.230   6.084  0.6590  0.3277  0.2061
 4736SOL    HW218943   6.270   8.270   6.161  0.1527  0.2639 -0.5634
 4736SOL     MW18944   6.351   8.237   6.159  0.1785  0.2857 -0.0662
 4737SOL     OW18945   5.332   9.052   3.252  0.2971 -0.4359  0.4416
 4737SOL    HW118946   5.251   9.058   3.200  0.4179  0.1219  0.3185
 4737SOL    HW218947   5.390   8.996   3.199  0.4256  0.1414 -0.0394
 4737SOL     MW18948   5.329   9.045   3.238  0.3307 -0.2831  0.3603
 4738SOL     OW18949   6.889   0.087   5.276  0.1705 -0.0113  0.5369
 4738SOL    HW118950   6.926  -0.001   5.282  1.7562  0.5376 -0.5945
 4738SOL    HW218951   6.963   0.143   5.251 -1.3901  1.1070 -2.0698
 4738SOL     MW18952   6.904   0.083   5.273  0.1739  0.2131  0.0339
 4739SOL     OW18953   7.197   8.274   7.198  0.1697  0.3666  0.1927
 4739SOL    HW118954   7.261   8.218   7.241  0.7561  2.3227  2.0501
 4739SOL    HW218955   7.249   8.341   7.153 -0.5347  0.8153  0.0250
 4739SOL     MW18956   7.212   8.276   7.198  0.1539  0.6903  0.4201
 4740SOL     OW18957   6.640   1.095   7.794  0.7879 -0.1253  0.3808
 4740SOL    HW118958   6.656   1.001   7.808 -0.3702 -0.4223 -0.1849
 4740SOL    HW218959   6.717   1.124   7.745  1.2224 -0.7511  0.6711
 4740SOL     MW18960   6.653   1.086   7.789  0.6906 -0.2495  0.3437
 4741SOL     OW18961   5.880   0.597   5.846  0.1485 -0.4864  0.0541
 4741SOL    HW118962   5.811   0.537   5.819 -1.2324  0.6113  0.9648
 4741SOL    HW218963   5.961   0.559   5.811 -0.7263 -2.5492  0.1310
 4741SOL     MW18964   5.882   0.584   5.838 -0.1550 -0.6162  0.1870
 4742SOL     OW18965   4.259   9.151   8.424  0.4005  0.3344 -0.5024
 4742SOL    HW118966   4.206   9.227   8.402  0.6145  0.0349 -2.1712
 4742SOL    HW218967   4.251   9.092   8.349  1.6579 -0.5029 -0.0268
 4742SOL     MW18968   4.251   9.153   8.411  0.5985  0.1814 -0.6630
 4743SOL     OW18969   6.650   7.947   0.364 -0.1311 -0.3057 -0.3608
 4743SOL    HW118970   6.574   7.974   0.313  0.2203 -0.8578 -1.2107
 4743SOL    HW218971   6.620   7.946   0.454 -0.0412  3.3912 -0.1356
 4743SOL     MW18972   6.636   7.950   0.369 -0.0717  0.1175 -0.4449
 4744SOL     OW18973   6.084   8.372   9.980 -0.6070  0.3481  0.1861
 4744SOL    HW118974   6.071   8.395  10.072 -0.1182  0.4559  0.2321
 4744SOL    HW218975   6.167   8.414   9.956 -1.4873  1.6137 -0.7446
 4744SOL     MW18976   6.094   8.381   9.989 -0.6597  0.5329  0.0671
 4745SOL     OW18977   5.811   1.871   6.317  0.5195  0.4367 -0.2014
 4745SOL    HW118978   5.816   1.776   6.308  1.9440  0.3428  1.1402
 4745SOL    HW218979   5.903   1.900   6.317  0.2599  1.5070  2.0673
 4745SOL     MW18980   5.824   1.862   6.316  0.6763  0.5681  0.2845
 4746SOL     OW18981   6.249   9.990   1.418  0.1497  0.4026 -0.2579
 4746SOL    HW118982   6.300   9.979   1.499 -0.1256 -0.5879 -0.2037
 4746SOL    HW218983   6.173  10.043   1.444  0.9039  1.5021 -0.2419
 4746SOL     MW18984   6.246   9.996   1.433  0.2142  0.4173 -0.2485
 4747SOL     OW18985   4.958   1.638   6.436 -0.3619  0.0922  0.3464
 4747SOL    HW118986   5.048   1.619   6.408 -0.7407 -0.0508 -0.8574
 4747SOL    HW218987   4.918   1.679   6.359 -1.5677 -0.6217  0.5710
 4747SOL     MW18988   4.964   1.641   6.422 -0.5751 -0.0231  0.2146
 4748SOL     OW18989   5.132   9.909   6.898  0.1634 -0.6468  0.7878
 4748SOL    HW118990   5.061   9.860   6.857  0.7119  0.4932 -1.6615
 4748SOL    HW218991   5.107   9.915   6.990 -1.1435 -3.2879  0.6880
 4748SOL     MW18992   5.119   9.903   6.905  0.0613 -0.8488  0.4447
 4749SOL     OW18993   7.730   8.968   2.772  0.2138  0.2001  0.2585
 4749SOL    HW118994   7.755   8.947   2.862  1.9201 -0.0502 -0.2308
 4749SOL    HW218995   7.778   9.049   2.752  0.2972 -0.0429 -0.5918
 4749SOL     MW18996   7.740   8.976   2.781  0.4546  0.1337  0.0783
 4750SOL     OW18997   5.483   8.235   9.313 -0.0972 -0.1234  0.3251
 4750SOL    HW118998   5.421   8.304   9.338 -0.2415 -0.1859  0.1456
 4750SOL    HW218999   5.447   8.155   9.351 -0.5612 -0.2980 -0.4475
 4750SOL     MW19000   5.470   8.233   9.321 -0.1791 -0.1553  0.1969
 4751SOL     OW19001   5.456   1.767   5.976 -0.0133  0.0276  0.8194
 4751SOL    HW119002   5.448   1.852   6.018  1.4699 -0.9122  3.1771
 4751SOL    HW219003   5.547   1.762   5.948  0.0060 -0.9294  1.0268
 4751SOL     MW19004   5.467   1.778   5.978  0.1889 -0.2277  1.1646
 4752SOL     OW19005   5.633   9.874   8.417 -0.0363  0.0966  0.4827
 4752SOL    HW119006   5.584   9.875   8.335 -0.1890  0.3551  0.5767
 4752SOL    HW219007   5.692   9.950   8.411 -0.9177  0.8659  1.1346
 4752SOL     MW19008   5.634   9.885   8.405 -0.1754  0.2349  0.5831
 4753SOL     OW19009   5.286   1.221   9.122 -0.2852 -0.0891 -0.1713
 4753SOL    HW119010   5.275   1.208   9.217 -0.9842 -0.3745 -0.2845
 4753SOL    HW219011   5.237   1.149   9.083 -0.1915  0.1669 -0.7597
 4753SOL     MW19012   5.278   1.209   9.130 -0.3667 -0.0930 -0.2657
 4754SOL     OW19013   6.908   7.941   7.453  0.1686 -0.4386 -0.1805
 4754SOL    HW119014   6.893   7.988   7.371  1.0101  2.0839  1.0058
 4754SOL    HW219015   6.822   7.938   7.495  0.3647  1.7912  0.5232
 4754SOL     MW19016   6.895   7.947   7.447  0.3082  0.2010  0.0739
 4755SOL     OW19017   4.701   8.442   7.645  0.4077  0.2289  0.4083
 4755SOL    HW119018   4.668   8.436   7.555 -1.2139  0.8261  0.9320
 4755SOL    HW219019   4.636   8.394   7.697  0.7660  0.7949  1.3944
 4755SOL     MW19020   4.688   8.434   7.640  0.2377  0.3855  0.6115
 4756SOL     OW19021   6.688   1.406   7.527  0.0481 -0.7257 -0.4432
 4756SOL    HW119022   6.750   1.475   7.552 -0.7017 -0.0054 -0.5329
 4756SOL    HW219023   6.732   1.324   7.553  1.2317 -0.2701 -0.9383
 4756SOL     MW19024   6.702   1.404   7.534  0.1065 -0.5674 -0.5219
 4757SOL     OW19025   4.340  10.004   2.220 -0.5445 -0.5541 -0.1447
 4757SOL    HW119026   4.326  10.058   2.298 -3.6700  1.8467 -2.1428
 4757SOL    HW219027   4.421  10.038   2.182 -1.2038  1.1902 -0.0879
 4757SOL     MW19028   4.349  10.016   2.225 -1.0539  0.0038 -0.4060
 4758SOL     OW19029   5.280   9.955   7.324 -0.6413  0.5949 -0.4129
 4758SOL    HW119030   5.299   9.954   7.418 -0.1682  0.7566 -0.5062
 4758SOL    HW219031   5.355  10.000   7.285  0.0578 -1.0774 -1.0741
 4758SOL     MW19032   5.293   9.961   7.331 -0.4836  0.3916 -0.5144
 4759SOL     OW19033   7.640  10.135   6.048  0.0132 -0.0617  0.1849
 4759SOL    HW119034   7.676  10.177   5.970  0.6667  0.7987  0.9148
 4759SOL    HW219035   7.574  10.075   6.015  1.1055 -0.6053 -1.1069
 4759SOL     MW19036   7.636  10.133   6.033  0.2482 -0.0191  0.1093
 4760SOL     OW19037   5.964   0.064   4.298  0.1059 -0.4897  0.7903
 4760SOL    HW119038   6.050   0.068   4.339  0.9953 -1.8295 -0.8384
 4760SOL    HW219039   5.969   0.128   4.226 -1.0646  1.0385  1.9791
 4760SOL     MW19040   5.976   0.073   4.294  0.0680 -0.4643  0.7311
 4761SOL     OW19041   5.167   0.200   0.165  0.7761  0.1225  0.0527
 4761SOL    HW119042   5.211   0.120   0.193  2.4347  1.3258  1.0678
 4761SOL    HW219043   5.208   0.269   0.217 -0.8901  1.5946 -0.4942
 4761SOL     MW19044   5.178   0.199   0.176  0.7751  0.4825  0.1157
 4762SOL     OW19045   4.470   8.085   6.677  0.1194  0.0275  0.1202
 4762SOL    HW119046   4.560   8.087   6.710  0.1601 -0.4556  0.0360
 4762SOL    HW219047   4.422   8.143   6.736  0.4188  0.0366  0.3577
 4762SOL     MW19048   4.476   8.093   6.689  0.1652 -0.0363  0.1408
 4763SOL     OW19049   4.246   0.543   5.366 -0.5176 -0.6704  0.0223
 4763SOL    HW119050   4.318   0.558   5.304 -1.5003 -0.1142 -1.0029
 4763SOL    HW219051   4.290   0.508   5.444  1.0069  0.7472 -0.1401
 4763SOL     MW19052   4.262   0.540   5.368 -0.4447 -0.4047 -0.1375
 4764SOL     OW19053   7.657   9.804   1.180 -0.6045  0.2777 -0.1832
 4764SOL    HW119054   7.637   9.838   1.267  0.7959 -0.5115  0.4809
 4764SOL    HW219055   7.694   9.717   1.196 -1.6152 -0.4635 -1.6626
 4764SOL     MW19056   7.660   9.797   1.194 -0.5521  0.0717 -0.2929
 4765SOL     OW19057   4.164   0.860   7.707  0.3582  0.1390  0.1968
 4765SOL    HW119058   4.194   0.792   7.647  1.0075 -0.7235  1.4526
 4765SOL    HW219059   4.091   0.819   7.755 -0.1874  0.8270 -0.0363
 4765SOL     MW19060   4.158   0.845   7.706  0.3722  0.1155  0.3344
 4766SOL     OW19061   7.034   1.319   3.177  0.0590 -0.4616  0.4316
 4766SOL    HW119062   7.026   1.247   3.239  0.0140  0.8851  2.0620
 4766SOL    HW219063   6.970   1.384   3.207  0.7182  0.6329 -0.4422
 4766SOL     MW19064   7.025   1.318   3.189  0.1416 -0.1331  0.5334
 4767SOL     OW19065   5.412   8.261   8.827  0.1414  0.1251 -0.0099
 4767SOL    HW119066   5.420   8.347   8.786 -0.3005  0.3212  0.3153
 4767SOL    HW219067   5.348   8.215   8.773  0.1724  0.0975 -0.0232
 4767SOL     MW19068   5.405   8.266   8.814  0.0861  0.1478  0.0321
 4768SOL     OW19069   7.059   0.432   7.893 -0.0626  0.1047  0.0420
 4768SOL    HW119070   6.968   0.443   7.922  0.0531  0.2872  0.3441
 4768SOL    HW219071   7.102   0.515   7.914 -0.0993  0.4435 -1.1699
 4768SOL     MW19072   7.053   0.444   7.900 -0.0520  0.1748 -0.0805
 4769SOL     OW19073   7.624   0.524   0.478 -0.2391 -0.5386 -0.1441
 4769SOL    HW119074   7.685   0.488   0.543  0.4601 -0.1319 -0.5562
 4769SOL    HW219075   7.662   0.499   0.394 -0.3260  0.2184 -0.4145
 4769SOL     MW19076   7.637   0.516   0.475 -0.1567 -0.3820 -0.2359
 4770SOL     OW19077   6.785   8.093   3.470 -0.0208 -0.1499  0.0552
 4770SOL    HW119078   6.800   8.065   3.561  0.7817  1.1121  0.3427
 4770SOL    HW219079   6.870   8.082   3.427 -0.7013 -1.9213 -0.9028
 4770SOL     MW19080   6.798   8.088   3.477 -0.0044 -0.2185 -0.0351
 4771SOL     OW19081   5.503  10.155   7.855  0.6205 -0.5038 -0.1839
 4771SOL    HW119082   5.492  10.165   7.950 -0.0477  0.5015 -0.3498
 4771SOL    HW219083   5.596  10.133   7.844  0.5087 -1.5145  0.7523
 4771SOL     MW19084   5.514  10.153   7.866  0.5155 -0.5045 -0.0802
 4772SOL     OW19085   6.783   0.726   3.411 -0.1759 -0.2071 -0.1150
 4772SOL    HW119086   6.859   0.743   3.356 -0.1900  0.4760  0.0661
 4772SOL    HW219087   6.776   0.804   3.467  0.2093 -1.1269  1.2781
 4772SOL     MW19088   6.792   0.739   3.411 -0.1259 -0.2390  0.0969
 4773SOL     OW19089   7.838   9.729   2.956 -0.1814  0.1994  0.1334
 4773SOL    HW119090   7.762   9.724   3.013 -0.5941  0.3297 -0.4035
 4773SOL    HW219091   7.825   9.808   2.905  1.6895  1.8598  1.9857
 4773SOL     MW19092   7.826   9.739   2.957  0.0148  0.4404  0.3104
 4774SOL     OW19093   5.984   1.744   0.933  0.1051  0.0902  0.1066
 4774SOL    HW119094   5.957   1.814   0.992 -1.2775 -0.3973  0.0799
 4774SOL    HW219095   5.958   1.774   0.846  0.8363  0.1759 -0.0891
 4774SOL     MW19096   5.977   1.757   0.929  0.0175  0.0362  0.0767
 4775SOL     OW19097   7.449   0.891   1.591 -0.2233 -0.4441 -0.9056
 4775SOL    HW119098   7.357   0.869   1.604  0.0841 -1.0426  0.3399
 4775SOL    HW219099   7.475   0.935   1.672  0.9152 -1.3871 -0.7436
 4775SOL     MW19100   7.440   0.894   1.603 -0.0287 -0.6515 -0.7162
 4776SOL     OW19101   5.843   1.391   5.659  0.1684  0.4751 -0.1159
 4776SOL    HW119102   5.850   1.376   5.754 -0.4913 -0.2342 -0.1651
 4776SOL    HW219103   5.790   1.470   5.652  0.0186  0.3986  0.1126
 4776SOL     MW19104   5.837   1.400   5.671  0.0594  0.3694 -0.0918
 4777SOL     OW19105   4.939   8.315   1.357 -0.2278  0.0253  0.1777
 4777SOL    HW119106   4.930   8.344   1.266 -0.7313 -0.3204  0.1158
 4777SOL    HW219107   4.849   8.307   1.389 -0.0553  0.5902  0.8534
 4777SOL     MW19108   4.925   8.318   1.349 -0.2724  0.0548  0.2603
 4778SOL     OW19109   7.937   0.687   2.024 -0.3012 -0.3570 -0.4867
 4778SOL    HW119110   8.028   0.715   2.022  0.1704 -1.6772  0.6211
 4778SOL    HW219111   7.920   0.651   1.937  0.0151  0.5352 -0.9196
 4778SOL     MW19112   7.947   0.686   2.012 -0.1952 -0.4146 -0.3959
 4779SOL     OW19113   6.467   1.194   5.638  0.2927  0.4843 -0.1402
 4779SOL    HW119114   6.538   1.241   5.682 -0.3103 -0.1376  1.5843
 4779SOL    HW219115   6.389   1.213   5.690 -0.0906 -1.8610  0.2928
 4779SOL     MW19116   6.466   1.203   5.651  0.1600  0.0850  0.1502
 4780SOL     OW19117   4.411   8.820   3.784  0.2483  0.3347  0.0126
 4780SOL    HW119118   4.500   8.852   3.770  0.3285 -0.0028 -0.2628
 4780SOL    HW219119   4.370   8.822   3.697  0.1414  0.0302  0.0546
 4780SOL     MW19120   4.417   8.824   3.771  0.2447  0.2483 -0.0188
 4781SOL     OW19121   6.547   9.462   5.417  0.2222 -0.2669  0.2331
 4781SOL    HW119122   6.613   9.466   5.487  0.4725 -0.0653 -0.0099
 4781SOL    HW219123   6.559   9.544   5.369 -1.2695  0.5091  1.1275
 4781SOL     MW19124   6.558   9.474   5.420  0.0551 -0.1353  0.3207
 4782SOL     OW19125   4.708   0.295   9.643  0.0498 -0.2751  0.4486
 4782SOL    HW119126   4.753   0.272   9.562 -1.6189 -0.5923 -0.4405
 4782SOL    HW219127   4.716   0.217   9.698  0.1782 -0.4959  0.1197
 4782SOL     MW19128   4.715   0.281   9.640 -0.1575 -0.3475  0.2847
 4783SOL     OW19129   7.391   8.802   7.417  0.3238 -0.4957  0.0848
 4783SOL    HW119130   7.336   8.729   7.446 -0.8650 -0.7140 -2.4211
 4783SOL    HW219131   7.330   8.862   7.373  1.6372  0.8264 -0.0295
 4783SOL     MW19132   7.375   8.800   7.415  0.3406 -0.3472 -0.2678
 4784SOL     OW19133   3.937   9.946   4.183 -0.3059  0.0264  0.0115
 4784SOL    HW119134   4.004   9.888   4.148  0.3976  1.3851 -0.9856
 4784SOL    HW219135   3.982  10.030   4.194 -1.7879  0.9247 -0.5379
 4784SOL     MW19136   3.952   9.950   4.180 -0.4107  0.3302 -0.1966
 4785SOL     OW19137   6.893   8.129   4.274 -0.3851 -0.8202 -0.3538
 4785SOL    HW119138   6.859   8.142   4.362 -0.4057  0.1043 -0.4950
 4785SOL    HW219139   6.969   8.071   4.286  2.2861  2.6050  0.8527
 4785SOL     MW19140   6.899   8.123   4.288 -0.0283 -0.2348 -0.2104
 4786SOL     OW19141   5.893   8.048   5.497 -0.7639 -0.4225  0.5574
 4786SOL    HW119142   5.798   8.049   5.484 -1.0951  0.1273  2.6987
 4786SOL    HW219143   5.912   7.960   5.530 -0.3654 -0.8401 -0.7291
 4786SOL     MW19144   5.883   8.036   5.500 -0.7548 -0.4047  0.6724
 4787SOL     OW19145   7.195   0.128   1.475  0.2273  0.3565  0.1071
 4787SOL    HW119146   7.150   0.072   1.412  1.2003 -0.1757 -0.1293
 4787SOL    HW219147   7.285   0.095   1.477  0.4825  1.0636  0.9609
 4787SOL     MW19148   7.201   0.116   1.467  0.3926  0.3800  0.1902
 4788SOL     OW19149   6.434   9.489   4.316 -0.4408  0.1881 -0.1471
 4788SOL    HW119150   6.375   9.549   4.270 -1.3724  0.9061  1.8807
 4788SOL    HW219151   6.494   9.546   4.364  0.3640 -0.5364 -0.2613
 4788SOL     MW19152   6.434   9.505   4.316 -0.4579  0.1872  0.1105
 4789SOL     OW19153   5.864  -0.008   2.849 -0.6385  0.4441  0.1562
 4789SOL    HW119154   5.815   0.063   2.808  0.2572  0.8827 -0.1709
 4789SOL    HW219155   5.903   0.032   2.927  1.5619  0.9042 -1.1073
 4789SOL     MW19156   5.862   0.007   2.854 -0.2218  0.5651 -0.0579
 4790SOL     OW19157   4.632   9.293   8.192  0.2037  0.4980  0.3186
 4790SOL    HW119158   4.558   9.316   8.249  0.1749 -0.2153  0.5903
 4790SOL    HW219159   4.631   9.359   8.123 -0.9134  0.3079  0.1202
 4790SOL     MW19160   4.622   9.305   8.191  0.0495  0.3764  0.3285
 4791SOL     OW19161   5.090   7.793   0.970  0.0368 -0.5412 -0.1322
 4791SOL    HW119162   5.073   7.732   1.042 -0.5668  0.7588  0.8629
 4791SOL    HW219163   5.133   7.867   1.011 -1.7178  0.9269 -0.8057
 4791SOL     MW19164   5.094   7.795   0.985 -0.2806 -0.1687 -0.0889
 4792SOL     OW19165   7.415   8.916   0.582 -0.3572 -0.1092 -0.1428
 4792SOL    HW119166   7.489   8.861   0.558 -0.0566  0.3379 -0.2593
 4792SOL    HW219167   7.418   8.989   0.520 -0.5137  0.2383  0.2510
 4792SOL     MW19168   7.425   8.918   0.570 -0.3378 -0.0023 -0.1055
 4793SOL     OW19169   7.099   9.285   1.246  0.2993 -0.3630 -0.0605
 4793SOL    HW119170   7.064   9.342   1.177  1.4511 -0.8604 -1.1038
 4793SOL    HW219171   7.022   9.257   1.295 -0.5293  0.2299 -0.9739
 4793SOL     MW19172   7.084   9.289   1.243  0.3428 -0.3502 -0.3239
 4794SOL     OW19173   6.169   0.347   5.997  0.2681 -0.2219  0.1814
 4794SOL    HW119174   6.143   0.425   6.045  0.4403  0.2471 -0.4675
 4794SOL    HW219175   6.259   0.330   6.025 -0.5661 -1.6349  2.1559
 4794SOL     MW19176   6.178   0.355   6.007  0.1791 -0.3490  0.3598
 4795SOL     OW19177   5.406   9.158   8.506  0.3041  0.0121  0.0305
 4795SOL    HW119178   5.342   9.099   8.545 -0.2534  1.0322  0.7116
 4795SOL    HW219179   5.488   9.109   8.508 -0.5015 -1.4419 -1.1595
 4795SOL     MW19180   5.409   9.144   8.512  0.1207 -0.0463 -0.0380
 4796SOL     OW19181   5.689   9.464   7.873 -0.1842  0.0375  0.2886
 4796SOL    HW119182   5.696   9.532   7.806  0.8642 -1.1935 -0.9070
 4796SOL    HW219183   5.769   9.474   7.925 -0.3754  0.1715  0.5575
 4796SOL     MW19184   5.701   9.474   7.871 -0.0688 -0.1101  0.1639
 4797SOL     OW19185   5.530   8.752   5.949  0.0159 -0.1293  0.5606
 4797SOL    HW119186   5.543   8.705   5.867  1.0918 -0.6548  1.0022
 4797SOL    HW219187   5.438   8.739   5.971 -0.5437  0.8387 -1.0378
 4797SOL     MW19188   5.520   8.744   5.941  0.0854 -0.0697  0.4049
 4798SOL     OW19189   6.557   0.718   2.445 -0.4440 -0.0101  0.2650
 4798SOL    HW119190   6.633   0.776   2.442 -0.9923  0.6786 -1.0892
 4798SOL    HW219191   6.591   0.636   2.482  0.8139  0.4794  0.2477
 4798SOL     MW19192   6.572   0.715   2.449 -0.3485  0.1485  0.0804
 4799SOL     OW19193   5.052   1.502   2.285 -0.3257  0.4268  1.0199
 4799SOL    HW119194   5.117   1.475   2.220  0.0346  1.0686  1.1110
 4799SOL    HW219195   5.068   1.595   2.297  1.2694 -0.1241  3.9029
 4799SOL     MW19196   5.063   1.511   2.278 -0.0625  0.4390  1.4201
 4800SOL     OW19197   6.953   1.620   0.428  0.0486 -0.4123 -0.1733
 4800SOL    HW119198   6.890   1.569   0.378 -0.5348  0.7522 -0.6870
 4800SOL    HW219199   7.023   1.640   0.367  0.6199 -1.1809  0.2227
 4800SOL     MW19200   6.954   1.616   0.413  0.0470 -0.3590 -0.1892
 4801SOL     OW19201   5.434   0.641   3.749  0.1185  0.3495  0.2257
 4801SOL    HW119202   5.418   0.601   3.663 -0.8065  0.7549  0.1905
 4801SOL    HW219203   5.354   0.622   3.799 -1.0766  3.4563 -0.3020
 4801SOL     MW19204   5.421   0.633   3.744 -0.1668  0.8222  0.1499
 4802SOL     OW19205   6.187   8.257   4.325  0.1699 -0.0877 -0.1151
 4802SOL    HW119206   6.282   8.247   4.322 -0.0120 -1.9417 -1.0924
 4802SOL    HW219207   6.154   8.169   4.347 -1.3437  0.3022 -0.6937
 4802SOL     MW19208   6.195   8.244   4.328 -0.0583 -0.2848 -0.3245
 4803SOL     OW19209   6.469   1.911   4.342  0.2516 -0.2917 -0.0096
 4803SOL    HW119210   6.490   1.829   4.387  1.7103  0.7659  1.3251
 4803SOL    HW219211   6.452   1.973   4.412 -0.7295  0.6166 -1.0061
 4803SOL     MW19212   6.469   1.908   4.357  0.3158 -0.0271  0.0359
 4804SOL     OW19213   5.261   8.522   4.308  0.3282  1.1428  0.0479
 4804SOL    HW119214   5.317   8.475   4.246  1.7721 -1.2794  2.8972
 4804SOL    HW219215   5.317   8.536   4.385 -2.4460 -0.1710  2.5464
 4804SOL     MW19216   5.276   8.517   4.310  0.1492  0.6400  0.7676
 4805SOL     OW19217   6.455   0.711   9.461 -0.6310  0.2704  0.2887
 4805SOL    HW119218   6.408   0.654   9.522  0.4417 -1.0590 -0.0639
 4805SOL    HW219219   6.450   0.798   9.500 -2.3982 -0.0233  0.8144
 4805SOL     MW19220   6.448   0.715   9.474 -0.7245  0.0520  0.3120
 4806SOL     OW19221   7.229   1.279   9.572  0.2654  0.1903 -0.9190
 4806SOL    HW119222   7.241   1.200   9.519  1.6727 -1.7102  2.0172
 4806SOL    HW219223   7.240   1.250   9.662 -0.7742  3.4906  0.4245
 4806SOL     MW19224   7.232   1.265   9.577  0.3149  0.3787 -0.3430
 4807SOL     OW19225   6.488   9.484   8.735  0.4532 -1.2171 -0.1554
 4807SOL    HW119226   6.433   9.521   8.666  0.0607  1.1306  1.2969
 4807SOL    HW219227   6.573   9.527   8.724  0.7581 -1.7480  0.0848
 4807SOL     MW19228   6.492   9.495   8.724  0.4414 -0.9726  0.0724
 4808SOL     OW19229   3.836   8.889   8.018  0.1980  0.2420  0.2125
 4808SOL    HW119230   3.792   8.841   7.948  0.5213  0.7798 -0.3672
 4808SOL    HW219231   3.819   8.837   8.097  0.0244 -0.4917 -0.2970
 4808SOL     MW19232   3.827   8.875   8.019  0.2182  0.2157  0.0659
 4809SOL     OW19233   5.880   1.669   1.927 -0.0571 -0.1555 -0.6030
 4809SOL    HW119234   5.919   1.608   1.865  0.5591 -0.5624  0.1762
 4809SOL    HW219235   5.912   1.755   1.899 -1.2182 -0.0986 -1.9248
 4809SOL     MW19236   5.889   1.673   1.915 -0.1304 -0.2026 -0.6760
 4810SOL     OW19237   3.901   9.396   5.072 -0.1084 -0.4568  0.1278
 4810SOL    HW119238   3.949   9.369   5.150 -0.2044 -0.6933  0.1057
 4810SOL    HW219239   3.842   9.465   5.102  1.6850  1.3487 -0.2149
 4810SOL     MW19240   3.900   9.402   5.086  0.1201 -0.2457  0.0787
 4811SOL     OW19241   4.633   8.558   4.121 -0.5393 -0.0275 -0.0872
 4811SOL    HW119242   4.583   8.559   4.202  0.8925 -0.5798  0.8400
 4811SOL    HW219243   4.600   8.481   4.073 -0.5697 -0.3949  0.5169
 4811SOL     MW19244   4.622   8.547   4.125 -0.3507 -0.1513  0.1189
 4812SOL     OW19245   6.792   0.876   2.441  0.1358 -0.9090 -0.7747
 4812SOL    HW119246   6.860   0.832   2.389  1.8396  0.2374  0.3848
 4812SOL    HW219247   6.773   0.956   2.393 -0.4276 -1.2306 -1.0998
 4812SOL     MW19248   6.799   0.881   2.427  0.2893 -0.7980 -0.6624
 4813SOL     OW19249   7.424   0.819   0.243  0.4004 -0.1124 -0.1364
 4813SOL    HW119250   7.474   0.829   0.324  1.5897  0.6649 -0.9368
 4813SOL    HW219251   7.345   0.872   0.257  0.4345 -0.2629  0.6418
 4813SOL     MW19252   7.420   0.828   0.256  0.5650 -0.0281 -0.1394
 4814SOL     OW19253   6.132   8.420   2.238  0.6084 -0.5144  0.2149
 4814SOL    HW119254   6.057   8.407   2.296  1.1596 -1.4203  0.7453
 4814SOL    HW219255   6.162   8.509   2.257 -0.1480 -0.2442  0.1953
 4814SOL     MW19256   6.126   8.430   2.248  0.5808 -0.5999  0.2836
 4815SOL     OW19257   7.452   0.562   3.070 -0.1034 -0.5461  0.2492
 4815SOL    HW119258   7.364   0.532   3.050  0.4889 -1.9040 -0.4699
 4815SOL    HW219259   7.506   0.527   2.999  0.9442  0.6662  0.4146
 4815SOL     MW19260   7.448   0.553   3.058  0.1173 -0.5657  0.1747
 4816SOL     OW19261   6.165   8.765   2.782 -0.1570 -0.0179 -0.0685
 4816SOL    HW119262   6.126   8.750   2.696  1.1806  1.4197 -0.9780
 4816SOL    HW219263   6.115   8.709   2.842 -1.1917 -0.9550 -1.7514
 4816SOL     MW19264   6.153   8.755   2.779 -0.1162  0.0494 -0.4174
 4817SOL     OW19265   7.136   9.783   3.837  0.0803 -0.0317 -0.5015
 4817SOL    HW119266   7.111   9.876   3.837  0.0009 -0.0180  1.2818
 4817SOL    HW219267   7.203   9.776   3.769  1.6619  1.8020  0.7647
 4817SOL     MW19268   7.142   9.795   3.828  0.2825  0.2169 -0.0911
 4818SOL     OW19269   6.858   1.136  10.094  0.0689  0.0635  0.6526
 4818SOL    HW119270   6.878   1.203  10.029  0.2415 -0.4262  0.1950
 4818SOL    HW219271   6.776   1.096  10.064  0.3075 -0.3666  0.5705
 4818SOL     MW19272   6.850   1.140  10.081  0.1242 -0.0603  0.5800
 4819SOL     OW19273   5.333   0.682  10.138  0.9365  0.7590  0.1221
 4819SOL    HW119274   5.336   0.593  10.104 -0.4968  1.2035 -1.2842
 4819SOL    HW219275   5.292   0.733  10.068  1.4045  2.4639  1.0390
 4819SOL     MW19276   5.328   0.677  10.124  0.8066  1.0483  0.0563
 4820SOL     OW19277   4.572   8.031   2.406  0.1554 -0.1253  0.1100
 4820SOL    HW119278   4.519   8.034   2.486 -1.5787 -1.9044 -0.8776
 4820SOL    HW219279   4.531   8.095   2.348 -0.3219 -0.7910 -0.3017
 4820SOL     MW19280   4.559   8.040   2.409 -0.1422 -0.4544 -0.0783
 4821SOL     OW19281   5.503   0.654   0.227  0.3723  0.8783 -0.5287
 4821SOL    HW119282   5.430   0.668   0.166 -1.0872  0.7495  1.1113
 4821SOL    HW219283   5.462   0.652   0.313  1.9941 -1.5006  0.3066
 4821SOL     MW19284   5.487   0.655   0.230  0.3942  0.5408 -0.1955
 4822SOL     OW19285   6.745   0.070   9.184 -0.0368  0.3173 -0.3343
 4822SOL    HW119286   6.750   0.006   9.255  1.7549  0.9637  0.1906
 4822SOL    HW219287   6.773   0.152   9.225 -2.6634  1.5692 -0.8775
 4822SOL     MW19288   6.750   0.073   9.199 -0.1492  0.5728 -0.3367
 4823SOL     OW19289   6.783   7.682   3.834 -0.4058  0.1785  0.2710
 4823SOL    HW119290   6.699   7.709   3.873  0.4050  1.5871  1.1538
 4823SOL    HW219291   6.843   7.679   3.909  0.5930  0.3508 -0.5151
 4823SOL     MW19292   6.780   7.685   3.850 -0.1623  0.3913  0.2840
 4824SOL     OW19293   6.400   8.042   0.241  0.3301 -0.1003  0.0313
 4824SOL    HW119294   6.318   8.050   0.290  1.3661  1.2621  1.6426
 4824SOL    HW219295   6.391   8.104   0.169 -1.0942 -1.9200 -1.4522
 4824SOL     MW19296   6.388   8.051   0.238  0.2778 -0.1618  0.0485
 4825SOL     OW19297   6.046   9.716   0.185  0.2481  0.3043 -0.4924
 4825SOL    HW119298   6.117   9.669   0.229 -1.2822 -2.3200 -0.6097
 4825SOL    HW219299   5.995   9.753   0.256  0.5886  0.4468 -0.3178
 4825SOL     MW19300   6.049   9.715   0.201  0.0880 -0.0297 -0.4847
 4826SOL     OW19301   7.036   9.980  10.153  0.2304  0.1740 -0.0407
 4826SOL    HW119302   6.958  10.036  10.155 -1.2221 -1.7129  0.1865
 4826SOL    HW219303   7.039   9.948  10.063  0.1227 -0.5192  0.1912
 4826SOL     MW19304   7.026   9.983  10.141  0.0204 -0.1732  0.0211
 4827SOL     OW19305   5.598   8.124   4.507 -0.4589 -0.0938 -0.3908
 4827SOL    HW119306   5.672   8.096   4.562 -0.0467 -1.7391 -1.6828
 4827SOL    HW219307   5.550   8.043   4.488 -2.2976  0.8620 -0.0572
 4827SOL     MW19308   5.602   8.109   4.512 -0.6509 -0.1866 -0.5198
 4828SOL     OW19309   7.627   0.799   7.407  0.2737 -0.5591 -0.1742
 4828SOL    HW119310   7.709   0.832   7.445 -0.1071  0.4735 -0.2140
 4828SOL    HW219311   7.572   0.877   7.398  0.0876 -0.8546 -2.1707
 4828SOL     MW19312   7.631   0.814   7.411  0.1974 -0.4599 -0.4482
 4829SOL     OW19313   4.120   0.457   4.068  0.2005  0.0460  0.1307
 4829SOL    HW119314   4.062   0.389   4.104  1.0572 -0.8965 -0.2012
 4829SOL    HW219315   4.151   0.420   3.986  1.0043  0.6760  0.1429
 4829SOL     MW19316   4.116   0.443   4.062  0.4240  0.0039  0.0877
 4830SOL     OW19317   5.663   8.944   4.972  0.0482 -0.1084 -0.4621
 4830SOL    HW119318   5.650   8.854   4.941  1.5798  0.8003 -4.4550
 4830SOL    HW219319   5.579   8.987   4.956 -0.6488 -0.7360  1.3365
 4830SOL     MW19320   5.650   8.937   4.965  0.1605 -0.0706 -0.7574
 4831SOL     OW19321   4.795   1.359   7.977  0.0938 -0.5739  0.1413
 4831SOL    HW119322   4.834   1.430   8.026  0.0285 -1.8751  2.1943
 4831SOL    HW219323   4.793   1.285   8.038 -1.0170 -1.9749 -1.4725
 4831SOL     MW19324   4.800   1.358   7.992 -0.0645 -0.9375  0.2004
 4832SOL     OW19325   4.246   9.900   2.561 -0.3480  0.4034  0.0162
 4832SOL    HW119326   4.322   9.931   2.610  0.0672  0.3210 -0.5657
 4832SOL    HW219327   4.172   9.919   2.618 -0.1212  2.4685 -0.3146
 4832SOL     MW19328   4.247   9.907   2.575 -0.2616  0.6702 -0.1067
 4833SOL     OW19329   6.441   8.367   8.427  0.1353  0.3567  0.1583
 4833SOL    HW119330   6.390   8.322   8.360 -1.4546  0.0965  1.4855
 4833SOL    HW219331   6.459   8.300   8.493  0.6381  0.8870  0.5776
 4833SOL     MW19332   6.437   8.352   8.427 -0.0110  0.3931  0.3934
 4834SOL     OW19333   5.124  10.112   0.819  0.0264 -0.2219  0.2766
 4834SOL    HW119334   5.159  10.138   0.905  0.1654 -0.6202  0.3398
 4834SOL    HW219335   5.164  10.173   0.758 -1.2040  1.0402  0.6611
 4834SOL     MW19336   5.134  10.124   0.823 -0.1204 -0.1056  0.3368
 4835SOL     OW19337   5.632   9.745   8.993 -0.1008  0.6877 -0.0854
 4835SOL    HW119338   5.621   9.677   8.928  0.0669  1.0967 -0.5480
 4835SOL    HW219339   5.553   9.740   9.047 -0.4053  0.5784 -0.5349
 4835SOL     MW19340   5.620   9.735   8.992 -0.1192  0.7280 -0.2082
 4836SOL     OW19341   4.446   1.124   7.674 -0.0807 -0.7522 -0.0400
 4836SOL    HW119342   4.401   1.118   7.590  0.6022 -2.4104 -0.3382
 4836SOL    HW219343   4.424   1.042   7.719  0.7247 -0.5340  0.7852
 4836SOL     MW19344   4.437   1.112   7.669  0.1196 -0.9460  0.0309
 4837SOL     OW19345   5.461   7.626   5.509  0.2001 -0.1106  0.2875
 4837SOL    HW119346   5.505   7.693   5.458 -0.1949 -0.7673 -0.9541
 4837SOL    HW219347   5.370   7.654   5.513  0.2413 -0.0245  0.7088
 4837SOL     MW19348   5.455   7.639   5.503  0.1525 -0.1874  0.1771
 4838SOL     OW19349   5.228   7.619   4.929 -0.1493  0.2278  0.6835
 4838SOL    HW119350   5.164   7.689   4.913 -0.9120 -0.6799 -0.3814
 4838SOL    HW219351   5.287   7.623   4.855  0.5294  0.4918  1.2277
 4838SOL     MW19352   5.227   7.629   4.917 -0.1606  0.1412  0.6134
 4839SOL     OW19353   5.237   9.819   7.568  0.0617  0.5384  0.1467
 4839SOL    HW119354   5.307   9.811   7.633 -1.0559  0.5371  1.3818
 4839SOL    HW219355   5.176   9.882   7.606 -2.2171 -1.8098  0.6163
 4839SOL     MW19356   5.238   9.827   7.582 -0.3954  0.2222  0.3761
 4840SOL     OW19357   6.204   0.725   8.638 -0.0064 -0.0247  0.1437
 4840SOL    HW119358   6.139   0.705   8.571  0.1268  1.2427 -0.3857
 4840SOL    HW219359   6.168   0.800   8.685  0.8904  0.4666  0.0764
 4840SOL     MW19360   6.190   0.732   8.635  0.1322  0.2120  0.0634
 4841SOL     OW19361   6.510   9.443  10.045  0.0474  0.1389 -0.3408
 4841SOL    HW119362   6.448   9.377  10.014 -0.6417  0.9657 -0.7601
 4841SOL    HW219363   6.585   9.434   9.985 -0.1785 -0.0342 -0.5992
 4841SOL     MW19364   6.512   9.433  10.032 -0.0758  0.2269 -0.4320
 4842SOL     OW19365   4.385   8.569   3.423 -0.5096  1.2219 -0.5804
 4842SOL    HW119366   4.349   8.618   3.496 -1.5199  0.3689 -0.4930
 4842SOL    HW219367   4.457   8.518   3.461 -0.6516  1.2319 -0.2999
 4842SOL     MW19368   4.390   8.569   3.438 -0.6647  1.1085 -0.5309
 4843SOL     OW19369   7.003   9.414   0.339  0.4232 -0.3701 -0.6864
 4843SOL    HW119370   7.049   9.456   0.412  0.0549  0.8336 -1.1272
 4843SOL    HW219371   7.054   9.335   0.321  1.2747  0.0046  0.0118
 4843SOL     MW19372   7.016   9.409   0.347  0.4882 -0.1576 -0.6518
 4844SOL     OW19373   7.557   0.859   1.337  0.0135  0.1920 -0.4419
 4844SOL    HW119374   7.506   0.873   1.417 -0.7873  0.3120 -0.9648
 4844SOL    HW219375   7.498   0.812   1.278  0.0886  1.3600 -1.4932
 4844SOL     MW19376   7.542   0.855   1.340 -0.0842  0.3653 -0.6538
 4845SOL     OW19377   6.909   1.287   2.472 -0.3287 -0.1917 -0.7965
 4845SOL    HW119378   6.874   1.375   2.485 -1.4458 -0.8184  0.6503
 4845SOL    HW219379   6.927   1.254   2.560  0.1132 -1.4004 -1.3129
 4845SOL     MW19380   6.907   1.294   2.485 -0.4196 -0.4387 -0.6713
 4846SOL     OW19381   5.869   8.013   6.259  0.6912  0.1152 -0.6492
 4846SOL    HW119382   5.911   8.091   6.221 -1.0792  0.4837 -1.9684
 4846SOL    HW219383   5.787   8.004   6.210 -0.0076 -1.5159  0.7424
 4846SOL     MW19384   5.864   8.022   6.247  0.3589 -0.0547 -0.6395
 4847SOL     OW19385   6.649   8.810   8.059  0.4908 -0.3486 -0.5848
 4847SOL    HW119386   6.707   8.746   8.018  1.3359  0.1686 -0.2153
 4847SOL    HW219387   6.566   8.802   8.011  1.0924 -0.5812 -1.5958
 4847SOL     MW19388   6.645   8.800   8.047  0.6855 -0.3103 -0.6711
 4848SOL     OW19389   4.973   0.293   6.473 -0.0470  0.0155 -0.2298
 4848SOL    HW119390   5.004   0.302   6.563 -0.5740 -0.0488 -0.0383
 4848SOL    HW219391   4.912   0.366   6.462  1.0681  0.8738 -0.9983
 4848SOL     MW19392   4.969   0.304   6.484  0.0321  0.1224 -0.3074
 4849SOL     OW19393   7.402   8.586   6.093  0.0285 -0.4713 -0.1004
 4849SOL    HW119394   7.310   8.588   6.067 -0.6018 -0.7534  1.9502
 4849SOL    HW219395   7.424   8.678   6.109 -0.5320 -0.5821  1.4059
 4849SOL     MW19396   7.392   8.599   6.091 -0.1318 -0.5242  0.3783
 4850SOL     OW19397   7.401   8.859   0.197 -0.0200  0.2904 -0.0161
 4850SOL    HW119398   7.383   8.788   0.259 -0.5954  2.2614  2.2052
 4850SOL    HW219399   7.485   8.835   0.158 -0.6198 -2.0484 -0.0588
 4850SOL     MW19400   7.410   8.846   0.200 -0.1782  0.2409  0.2771
 4851SOL     OW19401   3.986   0.834   9.855 -0.3076 -0.2141  0.0380
 4851SOL    HW119402   3.997   0.751   9.901 -0.1751  0.3213  0.9949
 4851SOL    HW219403   3.932   0.812   9.780 -0.3485 -1.1517  0.3256
 4851SOL     MW19404   3.980   0.820   9.851 -0.2952 -0.2682  0.2055
 4852SOL     OW19405   6.164   8.040   0.386 -0.1709 -0.6534 -0.1373
 4852SOL    HW119406   6.148   8.132   0.409  0.4462 -0.2960 -1.0870
 4852SOL    HW219407   6.123   7.990   0.457 -1.3637  0.3274 -0.0973
 4852SOL     MW19408   6.156   8.046   0.399 -0.2484 -0.4733 -0.2597
 4853SOL     OW19409   4.019   8.775   1.610  0.4719 -0.4643  0.2584
 4853SOL    HW119410   4.098   8.761   1.663  0.8736 -1.4955 -0.5783
 4853SOL    HW219411   4.052   8.791   1.522 -0.2250  0.1566  0.1027
 4853SOL     MW19412   4.034   8.775   1.605  0.4322 -0.5195  0.1248
 4854SOL     OW19413   4.306   9.084   3.841  0.1678 -0.2336  0.3977
 4854SOL    HW119414   4.321   8.992   3.866  1.3034  0.3296  1.8980
 4854SOL    HW219415   4.232   9.111   3.896 -1.8021 -0.8763 -1.7568
 4854SOL     MW19416   4.298   9.075   3.852  0.0555 -0.2443  0.3097
 4855SOL     OW19417   6.071   2.000   7.187 -0.0535  0.1660 -0.2109
 4855SOL    HW119418   6.089   2.083   7.143  0.5122  0.0785 -0.1472
 4855SOL    HW219419   6.024   2.025   7.267 -1.2980  0.3103 -0.9648
 4855SOL     MW19420   6.067   2.014   7.192 -0.1449  0.1736 -0.3038
 4856SOL     OW19421   7.529   8.834   2.078  0.1727  0.2722 -0.2652
 4856SOL    HW119422   7.540   8.811   1.985  1.3484  0.9349 -0.3053
 4856SOL    HW219423   7.573   8.763   2.125 -0.7315 -0.2524 -0.1782
 4856SOL     MW19424   7.536   8.821   2.071  0.2092  0.2908 -0.2589
 4857SOL     OW19425   5.197   8.819   1.752 -0.0501 -0.2153  0.4246
 4857SOL    HW119426   5.116   8.773   1.730  0.8355 -1.7762  0.2657
 4857SOL    HW219427   5.236   8.839   1.667  0.7985 -1.4935  0.4864
 4857SOL     MW19428   5.191   8.815   1.737  0.1833 -0.5974  0.4115
 4858SOL     OW19429   7.604   0.633   4.865 -0.4259 -0.2092  0.8993
 4858SOL    HW119430   7.518   0.645   4.823 -0.0460 -1.2365 -0.2367
 4858SOL    HW219431   7.603   0.693   4.940 -1.7285  0.5539  0.3014
 4858SOL     MW19432   7.592   0.643   4.870 -0.5501 -0.2447  0.6659
 4859SOL     OW19433   7.624   9.292   5.639  0.2460 -0.1554  0.2780
 4859SOL    HW119434   7.557   9.225   5.628  0.7258 -0.4247 -1.1238
 4859SOL    HW219435   7.688   9.275   5.570  2.3371 -0.5565  2.1753
 4859SOL     MW19436   7.624   9.281   5.629  0.5920 -0.2456  0.3447
 4860SOL     OW19437   5.647   0.628   4.603  0.5254 -0.4525 -0.0565
 4860SOL    HW119438   5.637   0.638   4.509 -0.9669  1.1205  0.2097
 4860SOL    HW219439   5.642   0.534   4.619  2.4283 -0.8844 -1.6654
 4860SOL     MW19440   5.645   0.617   4.593  0.5806 -0.2989 -0.2372
 4861SOL     OW19441   4.732   0.381   0.928 -0.1037  0.2328 -0.3554
 4861SOL    HW119442   4.708   0.472   0.909 -1.0846  0.1265  0.3352
 4861SOL    HW219443   4.803   0.362   0.866  1.1974  1.9466  0.5095
 4861SOL     MW19444   4.738   0.391   0.917 -0.0606  0.4491 -0.1461
 4862SOL     OW19445   6.703  10.010   2.803 -0.0034  0.0459  0.1132
 4862SOL    HW119446   6.793  10.026   2.773  0.0993 -2.9122 -1.5290
 4862SOL    HW219447   6.706   9.924   2.844 -1.5508  1.2118  2.8967
 4862SOL     MW19448   6.716  10.001   2.804 -0.1979 -0.1953  0.2668
 4863SOL     OW19449   5.140   0.140   8.020 -0.1972  0.3747  0.3006
 4863SOL    HW119450   5.148   0.196   7.943 -1.1533 -0.2514 -0.2814
 4863SOL    HW219451   5.216   0.162   8.074  0.8030  0.4179 -1.0733
 4863SOL     MW19452   5.151   0.150   8.017 -0.1912  0.2963  0.0373
 4864SOL     OW19453   6.652   9.755   0.843 -0.3105  0.3615 -0.2128
 4864SOL    HW119454   6.570   9.719   0.808 -0.8450  0.1727  1.1939
 4864SOL    HW219455   6.721   9.708   0.794 -0.9932 -1.9518  0.8783
 4864SOL     MW19456   6.650   9.744   0.832 -0.4743  0.0247  0.1233
 4865SOL     OW19457   5.243   0.095   9.269 -0.6767 -0.1014 -0.1277
 4865SOL    HW119458   5.294   0.021   9.239 -0.8636 -0.0552 -0.5661
 4865SOL    HW219459   5.246   0.090   9.365  0.4032  0.0852 -0.1456
 4865SOL     MW19460   5.250   0.085   9.278 -0.5565 -0.0701 -0.1891
 4866SOL     OW19461   5.807   1.119   7.042  0.1150  0.1210  0.3398
 4866SOL    HW119462   5.785   1.137   7.133 -1.3175 -1.3048  0.3097
 4866SOL    HW219463   5.832   1.204   7.006  0.7134  0.7081  2.0373
 4866SOL     MW19464   5.808   1.133   7.049  0.0027  0.0081  0.5642
 4867SOL     OW19465   4.542   8.334   7.825 -0.2823 -0.3550  0.1576
 4867SOL    HW119466   4.600   8.260   7.844 -0.4584 -0.5704 -0.1324
 4867SOL    HW219467   4.529   8.377   7.909  0.1512 -0.4152  0.2574
 4867SOL     MW19468   4.548   8.330   7.839 -0.2477 -0.3921  0.1320
 4868SOL     OW19469   7.746   9.706   5.756  0.0260 -0.1278  0.3216
 4868SOL    HW119470   7.812   9.684   5.822 -0.9839 -2.7616  0.5773
 4868SOL    HW219471   7.781   9.669   5.675  1.0793  2.7623 -0.6718
 4868SOL     MW19472   7.760   9.698   5.754  0.0318 -0.0933  0.2223
 4869SOL     OW19473   6.264   8.714   0.661 -0.4002 -0.1364 -0.2635
 4869SOL    HW119474   6.309   8.757   0.734 -0.1391 -0.6698 -0.1076
 4869SOL    HW219475   6.288   8.766   0.584  1.4739 -1.0807 -0.3890
 4869SOL     MW19476   6.273   8.727   0.661 -0.1128 -0.3353 -0.2594
 4870SOL     OW19477   6.215   8.258   9.563 -0.0948 -0.0286 -0.5446
 4870SOL    HW119478   6.147   8.282   9.625 -0.6130 -0.4481 -0.9353
 4870SOL    HW219479   6.297   8.276   9.608 -0.4451 -1.3154  0.6646
 4870SOL     MW19480   6.217   8.263   9.577 -0.2117 -0.2583 -0.4344
 4871SOL     OW19481   4.903   9.908   1.213 -0.5488  0.2864  0.1990
 4871SOL    HW119482   4.872   9.997   1.229 -1.2130 -0.2124  1.8763
 4871SOL    HW219483   4.831   9.852   1.243 -0.2652 -0.8294 -1.1068
 4871SOL     MW19484   4.889   9.913   1.219 -0.6000  0.0691  0.2490
 4872SOL     OW19485   5.246   8.344   1.556 -0.5968 -0.1147  0.3851
 4872SOL    HW119486   5.240   8.393   1.475 -0.0987  0.8875  0.9368
 4872SOL    HW219487   5.293   8.264   1.533  1.7987  1.2672  0.1423
 4872SOL     MW19488   5.252   8.340   1.542 -0.2073  0.2061  0.4267
 4873SOL     OW19489   7.461   9.169   8.043 -0.5936  0.1559 -0.1018
 4873SOL    HW119490   7.417   9.085   8.042  2.1148 -1.3886 -0.9555
 4873SOL    HW219491   7.517   9.166   8.121  1.0737  0.2476 -1.2503
 4873SOL     MW19492   7.463   9.157   8.054 -0.0047 -0.0396 -0.3712
 4874SOL     OW19493   5.202   7.929   1.383 -0.0725  0.0564 -0.7993
 4874SOL    HW119494   5.114   7.964   1.393 -0.4001 -0.5886 -1.4067
 4874SOL    HW219495   5.255   7.982   1.442 -0.8649  0.4415 -0.4200
 4874SOL     MW19496   5.198   7.941   1.392 -0.2232  0.0215 -0.8300
 4875SOL     OW19497   6.463   9.744   2.749  0.4132  0.7463  0.0633
 4875SOL    HW119498   6.414   9.669   2.784 -0.0277  0.5072 -1.0372
 4875SOL    HW219499   6.420   9.820   2.788  0.2599  0.4637  0.4525
 4875SOL     MW19500   6.451   9.744   2.759  0.3333  0.6761 -0.0324
 4876SOL     OW19501   5.566   1.197   5.720  0.2130  0.6501  0.3630
 4876SOL    HW119502   5.598   1.274   5.768  1.1996  0.3068  0.2804
 4876SOL    HW219503   5.472   1.213   5.709  0.4210  1.9109  0.2261
 4876SOL     MW19504   5.558   1.210   5.725  0.3738  0.7736  0.3335
 4877SOL     OW19505   6.118   9.002   3.542 -0.0311  0.1114  0.0494
 4877SOL    HW119506   6.207   8.967   3.549  0.2269  0.8415  0.4787
 4877SOL    HW219507   6.130   9.093   3.516 -0.5353  0.9655  2.5199
 4877SOL     MW19508   6.131   9.009   3.539 -0.0643  0.3246  0.4397
 4878SOL     OW19509   4.228   9.002   5.097  0.4592 -0.0045  0.1714
 4878SOL    HW119510   4.238   9.097   5.087 -1.3569  0.2471  0.3556
 4878SOL    HW219511   4.299   8.965   5.044 -0.6739  1.4442 -2.6076
 4878SOL     MW19512   4.239   9.010   5.088  0.0623  0.2243 -0.1778
 4879SOL     OW19513   6.516   9.911   9.953  0.4884  0.5799  0.2407
 4879SOL    HW119514   6.448   9.844   9.963  0.6973  0.3178 -0.0689
 4879SOL    HW219515   6.483   9.968   9.884  0.1780  0.9656  0.7051
 4879SOL     MW19516   6.503   9.910   9.945  0.4748  0.5965  0.2616
 4880SOL     OW19517   4.867   0.242   2.846  0.2314 -0.0611  0.4807
 4880SOL    HW119518   4.936   0.276   2.789 -1.1453  0.2171 -1.0880
 4880SOL    HW219519   4.913   0.217   2.927  1.9146  1.5152  0.0698
 4880SOL     MW19520   4.882   0.243   2.849  0.2727  0.1885  0.2143
 4881SOL     OW19521   5.397   0.835   5.031 -0.0052  0.3537  0.2878
 4881SOL    HW119522   5.326   0.799   4.978 -0.3885 -1.0150  1.6414
 4881SOL    HW219523   5.363   0.918   5.064  0.0903  1.0229 -1.2409
 4881SOL     MW19524   5.383   0.841   5.029 -0.0439  0.2595  0.2642
 4882SOL     OW19525   5.264   0.242   3.074 -0.0003  0.5702 -0.4117
 4882SOL    HW119526   5.283   0.171   3.012 -1.1874  0.0505 -0.2174
 4882SOL    HW219527   5.283   0.204   3.160  0.9336  1.0451 -0.3984
 4882SOL     MW19528   5.269   0.227   3.077 -0.0344  0.5642 -0.3837
 4883SOL     OW19529   6.490   8.488   6.209 -0.1257  0.0789 -0.6404
 4883SOL    HW119530   6.441   8.406   6.206  1.8409 -1.1473 -1.3741
 4883SOL    HW219531   6.564   8.470   6.268  1.0069  0.9016 -1.7459
 4883SOL     MW19532   6.494   8.474   6.217  0.2914  0.0246 -0.8879
 4884SOL     OW19533   6.711   0.454   0.335 -0.2509 -0.1542  0.1451
 4884SOL    HW119534   6.783   0.431   0.277  0.0640 -0.1995  0.5497
 4884SOL    HW219535   6.667   0.527   0.292 -0.2064 -0.3851 -0.2993
 4884SOL     MW19536   6.715   0.461   0.321 -0.2026 -0.1913  0.1397
 4885SOL     OW19537   6.193   9.029   5.013 -0.2580 -0.4146 -0.1680
 4885SOL    HW119538   6.287   9.020   5.003 -0.0421  1.0271  0.3475
 4885SOL    HW219539   6.169   8.963   5.078  0.5698 -0.1010  0.4683
 4885SOL     MW19540   6.202   9.019   5.021 -0.1175 -0.1784 -0.0130
 4886SOL     OW19541   4.528   0.294   1.516  0.2088 -0.1294 -0.5422
 4886SOL    HW119542   4.589   0.343   1.461 -1.7256  2.5676 -0.4516
 4886SOL    HW219543   4.532   0.204   1.482  0.5087  1.0053 -3.8631
 4886SOL     MW19544   4.537   0.288   1.504 -0.0112  0.3863 -0.9769
 4887SOL     OW19545   6.590   8.118   9.855 -0.5225 -0.0888  0.7313
 4887SOL    HW119546   6.627   8.068   9.782  1.2667 -1.2000  2.3045
 4887SOL    HW219547   6.662   8.171   9.887 -0.9647 -0.3890  2.3228
 4887SOL     MW19548   6.604   8.119   9.849 -0.3412 -0.2787  1.1572
 4888SOL     OW19549   4.513   8.421   6.078  0.0111 -0.2961 -0.3978
 4888SOL    HW119550   4.467   8.343   6.109  0.6032 -0.6040 -0.2850
 4888SOL    HW219551   4.605   8.398   6.082  0.1611  0.1531 -1.0762
 4888SOL     MW19552   4.519   8.407   6.083  0.1110 -0.2771 -0.4739
 4889SOL     OW19553   6.028   9.139   5.827 -0.5543  0.1655  0.4160
 4889SOL    HW119554   6.026   9.164   5.735  0.2598  0.7571  0.5536
 4889SOL    HW219555   6.120   9.146   5.852 -0.4359 -1.9111  0.7604
 4889SOL     MW19556   6.040   9.143   5.818 -0.4288 -0.0344  0.4809
 4890SOL     OW19557   5.440   1.300   6.781 -0.0091  0.0892 -0.6199
 4890SOL    HW119558   5.353   1.262   6.766  0.2874 -0.2426 -1.6013
 4890SOL    HW219559   5.471   1.258   6.861 -0.3407 -0.5618 -0.8208
 4890SOL     MW19560   5.432   1.289   6.790 -0.0138 -0.0431 -0.7790
 4891SOL     OW19561   5.789   9.831   2.529  0.2515  0.1471  0.2100
 4891SOL    HW119562   5.861   9.870   2.479  1.3163 -1.1842  0.6297
 4891SOL    HW219563   5.711   9.852   2.479  1.3065 -1.7031 -2.4374
 4891SOL     MW19564   5.788   9.839   2.516  0.5368 -0.2811 -0.0898
 4892SOL     OW19565   6.225   1.158   0.647  0.2360 -0.2762 -0.8508
 4892SOL    HW119566   6.256   1.117   0.727  0.5798 -0.0327 -0.8554
 4892SOL    HW219567   6.132   1.137   0.643 -0.1779  1.1235  0.4769
 4892SOL     MW19568   6.217   1.150   0.657  0.2265 -0.0551 -0.6727
 4893SOL     OW19569   5.346   9.722   2.516  0.2661 -0.0657 -0.6653
 4893SOL    HW119570   5.363   9.628   2.523  0.1390 -0.0411 -0.0019
 4893SOL    HW219571   5.346   9.754   2.606  0.5415  0.6173 -0.8995
 4893SOL     MW19572   5.348   9.714   2.529  0.2860  0.0295 -0.6076
 4894SOL     OW19573   3.715   0.615   3.462  0.8190  0.2137  0.3050
 4894SOL    HW119574   3.669   0.557   3.401 -0.6671  0.5054  1.0898
 4894SOL    HW219575   3.794   0.641   3.415  0.8840 -1.4114 -0.5715
 4894SOL     MW19576   3.719   0.610   3.447  0.6277  0.0343  0.2927
 4895SOL     OW19577   4.015   9.965   0.087  0.0139  0.2106  0.5079
 4895SOL    HW119578   4.108   9.944   0.094 -0.2732 -0.9478  1.2927
 4895SOL    HW219579   3.996  10.018   0.165 -0.2215 -0.6241  1.0399
 4895SOL     MW19580   4.025   9.969   0.099 -0.0564 -0.0576  0.6851
 4896SOL     OW19581   6.491   9.794   8.621  0.0019  0.1034  0.0789
 4896SOL    HW119582   6.574   9.751   8.638 -0.0029  0.8840  2.4807
 4896SOL    HW219583   6.493   9.814   8.527  2.1301 -0.6318 -0.0882
 4896SOL     MW19584   6.502   9.791   8.611  0.2877  0.1095  0.3796
 4897SOL     OW19585   7.716  10.003   9.238  0.3750 -0.7942 -0.0090
 4897SOL    HW119586   7.709  10.098   9.228 -0.3174 -0.7942  0.4053
 4897SOL    HW219587   7.642   9.980   9.294  0.9264 -1.4973  0.4382
 4897SOL     MW19588   7.705  10.013   9.244  0.3560 -0.8888  0.1069
 4898SOL     OW19589   8.091  -0.012   4.563 -0.3755  0.1271 -0.1206
 4898SOL    HW119590   8.075  -0.042   4.474 -0.5418  0.0636 -0.0696
 4898SOL    HW219591   8.110   0.081   4.554 -2.1784  0.5372 -0.0394
 4898SOL     MW19592   8.092  -0.004   4.550 -0.6405  0.1738 -0.1028
 4899SOL     OW19593   6.625   1.601   0.688  0.1498 -0.2477  0.2780
 4899SOL    HW119594   6.616   1.590   0.783 -2.1455 -1.8821 -0.0536
 4899SOL    HW219595   6.609   1.514   0.652 -1.7046  0.8150 -1.7183
 4899SOL     MW19596   6.621   1.588   0.696 -0.4087 -0.3247 -0.0353
 4900SOL     OW19597   7.384   0.352   9.997 -0.4641  0.6094  0.2051
 4900SOL    HW119598   7.357   0.392  10.080 -0.8101 -0.1147  0.4534
 4900SOL    HW219599   7.464   0.399   9.973 -1.5554  2.3515 -0.1944
 4900SOL     MW19600   7.391   0.364  10.005 -0.6575  0.7464  0.1848
 4901SOL     OW19601   6.389   8.338   5.207 -0.0972  0.1665 -0.2781
 4901SOL    HW119602   6.339   8.341   5.125 -1.4871  1.5198  0.5784
 4901SOL    HW219603   6.480   8.336   5.179 -0.5591 -1.0467 -1.8683
 4901SOL     MW19604   6.394   8.338   5.192 -0.3464  0.1854 -0.3768
 4902SOL     OW19605   7.223   8.588   3.944 -0.2470 -0.6276  0.5091
 4902SOL    HW119606   7.219   8.667   3.998  2.4013 -0.1942  0.2372
 4902SOL    HW219607   7.309   8.551   3.962 -0.9630 -2.8279 -0.2695
 4902SOL     MW19608   7.234   8.594   3.954  0.0130 -0.8654  0.3677
 4903SOL     OW19609   7.536   1.070   9.383 -0.2494 -0.6452  0.1450
 4903SOL    HW119610   7.532   1.164   9.365 -2.1950 -1.1247 -2.6761
 4903SOL    HW219611   7.627   1.046   9.364  0.7686  0.8351  2.6169
 4903SOL     MW19612   7.548   1.080   9.378 -0.3742 -0.5105  0.0980
 4904SOL     OW19613   3.610   9.933   3.741  0.0133  0.1066 -0.0490
 4904SOL    HW119614   3.547   9.981   3.794 -0.1442  1.8955 -1.7592
 4904SOL    HW219615   3.689   9.988   3.741 -0.1707  0.4471 -2.0414
 4904SOL     MW19616   3.612   9.947   3.748 -0.0326  0.3932 -0.5473
 4905SOL     OW19617   5.283   1.196   9.425  0.3735 -0.3726 -0.1856
 4905SOL    HW119618   5.286   1.102   9.444  1.1947 -0.2418  0.3958
 4905SOL    HW219619   5.374   1.223   9.424  0.1794  0.2667 -1.1993
 4905SOL     MW19620   5.295   1.187   9.428  0.4579 -0.2690 -0.2438
 4906SOL     OW19621   5.145   1.351   6.317  0.3085  0.0931  0.1843
 4906SOL    HW119622   5.162   1.276   6.375 -0.3276 -0.6741 -0.5896
 4906SOL    HW219623   5.194   1.423   6.356 -0.2322 -0.3611  1.7743
 4906SOL     MW19624   5.154   1.350   6.330  0.1502 -0.0713  0.2942
 4907SOL     OW19625   7.627   9.663   9.273 -0.3444  0.0109 -0.2730
 4907SOL    HW119626   7.600   9.738   9.325  0.5261 -0.8209  1.4436
 4907SOL    HW219627   7.627   9.695   9.183  0.9892  2.3595  0.4960
 4907SOL     MW19628   7.623   9.677   9.268 -0.0478  0.2151  0.0615
 4908SOL     OW19629   4.717  10.077   3.646  0.3389  0.4216 -0.0827
 4908SOL    HW119630   4.798  10.127   3.655  0.4513  0.4932 -1.3591
 4908SOL    HW219631   4.738  10.008   3.584 -1.0244  1.4673 -1.7980
 4908SOL     MW19632   4.731  10.075   3.639  0.1706  0.5720 -0.4854
 4909SOL     OW19633   5.932   0.871   6.956  0.3445  0.0198  0.3291
 4909SOL    HW119634   5.937   0.791   7.008 -3.1661 -1.0438 -0.7238
 4909SOL    HW219635   5.883   0.932   7.011  0.4444  0.4231 -0.0272
 4909SOL     MW19636   5.926   0.868   6.970 -0.1145 -0.0690  0.1395
 4910SOL     OW19637   5.482   0.538   3.056  0.5710 -0.2654  0.1223
 4910SOL    HW119638   5.391   0.540   3.028  0.5982 -0.9088 -0.0205
 4910SOL    HW219639   5.506   0.630   3.066  0.4223 -0.0286 -1.4933
 4910SOL     MW19640   5.473   0.551   3.054  0.5547 -0.3201 -0.1143
 4911SOL     OW19641   6.442   0.929   2.565  0.3999  0.1512  0.0492
 4911SOL    HW119642   6.494   0.937   2.645  0.3541  0.3202  0.0632
 4911SOL    HW219643   6.453   0.838   2.538 -0.2818 -0.1430  0.7280
 4911SOL     MW19644   6.451   0.918   2.573  0.3020  0.1344  0.1424
 4912SOL     OW19645   5.759   1.413   7.383  0.4385 -0.2393 -0.5700
 4912SOL    HW119646   5.854   1.406   7.373  0.5458 -0.8775  0.7129
 4912SOL    HW219647   5.747   1.485   7.445 -0.0063  0.7674 -1.7685
 4912SOL     MW19648   5.770   1.422   7.390  0.3931 -0.1897 -0.5586
 4913SOL     OW19649   5.506   8.822   8.532  0.5259  0.6238  0.2436
 4913SOL    HW119650   5.590   8.779   8.517 -0.8968 -2.6610  0.9049
 4913SOL    HW219651   5.489   8.810   8.625 -1.5362 -0.5691 -0.2401
 4913SOL     MW19652   5.515   8.815   8.543  0.0569  0.0212  0.2675
 4914SOL     OW19653   6.502   0.922   5.619 -0.3545  0.2330 -0.1235
 4914SOL    HW119654   6.412   0.899   5.642  0.0000 -0.4440  0.6394
 4914SOL    HW219655   6.503   1.018   5.617 -1.3320  0.2507 -1.1746
 4914SOL     MW19656   6.490   0.932   5.622 -0.4383  0.1443 -0.1623
 4915SOL     OW19657   6.154   0.636   3.907  0.4429  0.3043 -0.0463
 4915SOL    HW119658   6.131   0.642   3.999 -1.5373 -1.4232 -0.3691
 4915SOL    HW219659   6.116   0.553   3.877 -1.1832  1.9242 -2.9832
 4915SOL     MW19660   6.146   0.626   3.915 -0.0424  0.2898 -0.4850
 4916SOL     OW19661   3.557   9.263   1.885 -0.0426 -0.0478 -0.2870
 4916SOL    HW119662   3.479   9.263   1.940 -0.2052 -1.0934 -0.4961
 4916SOL    HW219663   3.598   9.349   1.900  0.0568 -0.3977  1.6568
 4916SOL     MW19664   3.552   9.275   1.894 -0.0511 -0.2356 -0.0536
 4917SOL     OW19665   7.054   0.089   4.739 -0.5266  0.0318 -0.2969
 4917SOL    HW119666   7.008   0.007   4.756  0.7734 -1.0491 -1.6239
 4917SOL    HW219667   7.085   0.080   4.649 -0.1378  1.8907 -0.3797
 4917SOL     MW19668   7.052   0.077   4.729 -0.2993  0.1365 -0.4867
 4918SOL     OW19669   6.975   0.093   6.894 -0.5799 -0.5458 -0.7672
 4918SOL    HW119670   7.017   0.008   6.905  1.3015  0.4006  0.0211
 4918SOL    HW219671   6.926   0.087   6.812  0.3610 -2.0532 -1.2477
 4918SOL     MW19672   6.974   0.081   6.885 -0.2001 -0.6213 -0.7258
 4919SOL     OW19673   4.079  10.029   6.897 -0.0608  0.2850  0.0011
 4919SOL    HW119674   4.151  10.019   6.835 -0.8215 -2.9272 -0.5183
 4919SOL    HW219675   4.122  10.047   6.981  1.4375 -1.9796 -0.2071
 4919SOL     MW19676   4.095  10.030   6.900  0.0384 -0.4521 -0.0968
 4920SOL     OW19677   4.514   8.750   1.133 -0.0213  0.2462 -0.2003
 4920SOL    HW119678   4.608   8.734   1.133  0.3425  2.1354 -0.5561
 4920SOL    HW219679   4.498   8.804   1.210 -1.2943 -2.1884  1.3751
 4920SOL     MW19680   4.524   8.755   1.143 -0.1437  0.1728 -0.0362
 4921SOL     OW19681   5.097   8.808   4.791  0.3669 -0.2194  0.2924
 4921SOL    HW119682   5.127   8.721   4.819 -0.8669 -0.9597 -0.5612
 4921SOL    HW219683   5.002   8.804   4.800  0.1795  0.5650 -1.0396
 4921SOL     MW19684   5.088   8.796   4.796  0.1756 -0.2134 -0.0017
 4922SOL     OW19685   6.854   0.141   0.216  0.0546  0.2885  0.2128
 4922SOL    HW119686   6.870   0.055   0.253  1.3336  0.6242  0.4909
 4922SOL    HW219687   6.902   0.201   0.273 -0.1201  1.0932 -0.4651
 4922SOL     MW19688   6.862   0.138   0.229  0.2032  0.4419  0.1590
 4923SOL     OW19689   5.390   8.278   3.227 -0.3532  0.0589  0.4544
 4923SOL    HW119690   5.324   8.283   3.157 -0.4375  0.8021  0.5839
 4923SOL    HW219691   5.472   8.303   3.184 -0.1717 -0.7177  0.3293
 4923SOL     MW19692   5.392   8.282   3.212 -0.3401  0.0544  0.4550
 4924SOL     OW19693   5.486   0.414   3.289 -0.3546  0.0310  0.5738
 4924SOL    HW119694   5.494   0.467   3.209  0.0582  2.3136  2.0202
 4924SOL    HW219695   5.573   0.419   3.330 -0.6090 -0.9509  1.2677
 4924SOL     MW19696   5.499   0.422   3.284 -0.3333  0.2061  0.8619
 4925SOL     OW19697   5.021   8.803   6.461 -0.3009 -0.2433 -0.3332
 4925SOL    HW119698   4.969   8.841   6.532  2.3723  1.5590  0.7808
 4925SOL    HW219699   5.044   8.715   6.492  0.4577  0.3568  0.8589
 4925SOL     MW19700   5.017   8.796   6.475  0.1610  0.0800 -0.0228
 4926SOL     OW19701   7.352   9.353   1.367 -0.0312 -0.0448  0.1103
 4926SOL    HW119702   7.402   9.271   1.360  0.1616  0.0111  0.7440
 4926SOL    HW219703   7.278   9.341   1.308  1.8714  0.7550 -2.6524
 4926SOL     MW19704   7.349   9.340   1.358  0.2508  0.0704 -0.1762
 4927SOL     OW19705   6.790   1.350   9.262 -0.7316  0.4364  0.4423
 4927SOL    HW119706   6.876   1.390   9.258 -0.9231  0.9156  0.9962
 4927SOL    HW219707   6.762   1.344   9.171  0.6273 -1.3952  0.0859
 4927SOL     MW19708   6.798   1.354   9.249 -0.5745  0.2544  0.4689
 4928SOL     OW19709   7.140   0.569   8.545 -0.2555 -0.0180  0.1416
 4928SOL    HW119710   7.161   0.554   8.637 -1.2449 -0.4368  0.3209
 4928SOL    HW219711   7.056   0.615   8.547 -0.1936  0.1412 -0.5544
 4928SOL     MW19712   7.131   0.573   8.558 -0.3803 -0.0529  0.0721
 4929SOL     OW19713   6.868   0.147   9.696  0.0438  0.0595  0.1118
 4929SOL    HW119714   6.923   0.223   9.713 -2.1906  1.3849  1.9589
 4929SOL    HW219715   6.925   0.087   9.647  2.4308  2.1443  0.1189
 4929SOL     MW19716   6.883   0.149   9.692  0.0643  0.5185  0.3613
 4930SOL     OW19717   5.669   9.421   6.418 -0.4140 -0.3524 -0.4528
 4930SOL    HW119718   5.750   9.471   6.419  0.4554 -1.6731 -1.2760
 4930SOL    HW219719   5.603   9.483   6.388  0.2694  0.7597  0.2848
 4930SOL     MW19720   5.671   9.436   6.414 -0.2050 -0.3805 -0.4643
 4931SOL     OW19721   4.588   0.040   6.167 -0.9184  0.1250 -0.2636
 4931SOL    HW119722   4.643   0.011   6.094 -0.2614 -0.2536  0.3574
 4931SOL    HW219723   4.612   0.132   6.181 -0.5499  0.0068 -0.0998
 4931SOL     MW19724   4.599   0.048   6.159 -0.7804  0.0581 -0.1580
 4932SOL     OW19725   7.099   0.167   6.572 -0.0403 -0.1301 -0.0455
 4932SOL    HW119726   7.049   0.247   6.553  2.1151  2.2085  2.9761
 4932SOL    HW219727   7.133   0.139   6.487 -1.5815  1.6889 -1.3497
 4932SOL     MW19728   7.097   0.174   6.558  0.0423  0.4294  0.1856
 4933SOL     OW19729   6.081   1.179   4.446 -0.1340 -0.1946 -0.1328
 4933SOL    HW119730   6.085   1.267   4.483  0.9120 -0.4565  0.4384
 4933SOL    HW219731   6.028   1.129   4.508 -3.2085  0.6371 -1.8869
 4933SOL     MW19732   6.074   1.184   4.460 -0.4070 -0.1179 -0.2920
 4934SOL     OW19733   5.950   0.971   1.750  0.7874  0.5319  0.3983
 4934SOL    HW119734   5.986   1.058   1.733  0.2094  1.0118  1.5103
 4934SOL    HW219735   5.857   0.987   1.770  0.3685 -0.4801 -0.6150
 4934SOL     MW19736   5.942   0.985   1.750  0.6532  0.4603  0.4116
 4935SOL     OW19737   4.793   8.854   7.028 -0.0781  0.0881  0.0572
 4935SOL    HW119738   4.750   8.797   6.964  1.4720  1.6601 -2.5610
 4935SOL    HW219739   4.867   8.803   7.061 -0.2680 -0.3570 -0.2008
 4935SOL     MW19740   4.797   8.839   7.024  0.1049  0.2397 -0.3299
 4936SOL     OW19741   4.205   8.417   2.058 -0.4456  0.2241 -0.4157
 4936SOL    HW119742   4.283   8.439   2.108  1.0126 -0.1404 -2.4044
 4936SOL    HW219743   4.132   8.455   2.107  0.8594 -0.1790  1.9664
 4936SOL     MW19744   4.205   8.425   2.071 -0.0738  0.1208 -0.3628
 4937SOL     OW19745   5.241   8.944   0.446  0.5487 -0.4607 -0.4934
 4937SOL    HW119746   5.271   9.029   0.416 -0.8436  0.1032 -0.3413
 4937SOL    HW219747   5.153   8.959   0.480  0.6816 -1.7570  0.5398
 4937SOL     MW19748   5.233   8.957   0.447  0.3792 -0.5592 -0.3339
 4938SOL     OW19749   6.945   0.969   4.049  0.0194  0.0576  0.7131
 4938SOL    HW119750   6.920   0.877   4.056 -0.9038  0.1760 -0.4700
 4938SOL    HW219751   6.922   0.992   3.959 -0.7316  1.7115  1.2882
 4938SOL     MW19752   6.938   0.960   4.038 -0.2059  0.2961  0.6313
 4939SOL     OW19753   3.795   9.707   3.324  0.1731 -0.9317  0.3223
 4939SOL    HW119754   3.758   9.650   3.257 -2.2035 -0.4999  1.1725
 4939SOL    HW219755   3.748   9.790   3.314  2.7846  0.5730 -0.1888
 4939SOL     MW19756   3.784   9.711   3.314  0.2047 -0.6711  0.3679
 4940SOL     OW19757   6.765   9.772   2.430 -0.1079 -0.4417 -0.3064
 4940SOL    HW119758   6.694   9.752   2.369 -0.2595  0.7872 -0.5590
 4940SOL    HW219759   6.798   9.686   2.458 -2.6249 -1.1048  0.9491
 4940SOL     MW19760   6.760   9.758   2.426 -0.4670 -0.3656 -0.1714
 4941SOL     OW19761   5.974   8.139   1.676 -0.0893  0.6848 -0.0980
 4941SOL    HW119762   5.954   8.155   1.584  1.6688 -0.1232 -0.6654
 4941SOL    HW219763   5.963   8.223   1.718 -1.5204  0.9401 -0.9177
 4941SOL     MW19764   5.970   8.152   1.669 -0.0453  0.6105 -0.2847
 4942SOL     OW19765   5.916   1.243   9.408  0.1302  0.0547 -0.6070
 4942SOL    HW119766   5.884   1.332   9.397  1.0285  0.4153 -0.4173
 4942SOL    HW219767   5.949   1.219   9.321 -0.6882 -0.3409 -0.8202
 4942SOL     MW19768   5.916   1.252   9.395  0.1410  0.0500 -0.6102
 4943SOL     OW19769   5.021   0.522   0.348 -0.3533 -1.0173  0.1772
 4943SOL    HW119770   5.054   0.587   0.286  0.5534 -1.0863  0.5788
 4943SOL    HW219771   4.967   0.463   0.295  0.9489 -1.4669 -0.6727
 4943SOL     MW19772   5.018   0.523   0.332 -0.0560 -1.0871  0.1169
 4944SOL     OW19773   7.072   0.732   2.967 -0.0247  0.2248 -0.1352
 4944SOL    HW119774   7.134   0.758   2.899  0.7750  0.9513  0.8643
 4944SOL    HW219775   7.019   0.810   2.983 -1.1916 -0.3616 -0.9235
 4944SOL     MW19776   7.073   0.746   2.960 -0.0741  0.2437 -0.1068
 4945SOL     OW19777   6.798   9.010   2.211  0.5217  0.3119 -0.0757
 4945SOL    HW119778   6.782   9.013   2.305 -0.1776  2.5288 -0.2204
 4945SOL    HW219779   6.740   8.941   2.179  0.5924 -0.2976  1.0582
 4945SOL     MW19780   6.788   9.001   2.219  0.4371  0.5282  0.0574
 4946SOL     OW19781   4.910   8.280   5.872 -0.1492  0.2440  0.1901
 4946SOL    HW119782   4.879   8.190   5.867  1.9932 -0.6317  1.6152
 4946SOL    HW219783   4.872   8.322   5.794  0.4012 -2.3865 -1.6184
 4946SOL     MW19784   4.901   8.273   5.861  0.2132 -0.2279  0.1385
 4947SOL     OW19785   4.034   0.514   4.708  0.4130  0.4285 -0.4311
 4947SOL    HW119786   4.025   0.444   4.773 -0.5641 -0.1469 -1.1633
 4947SOL    HW219787   3.974   0.582   4.738  0.8038  0.6414 -0.1257
 4947SOL     MW19788   4.025   0.513   4.721  0.3341  0.3797 -0.4885
 4948SOL     OW19789   5.563   9.713   7.426  0.2820  0.1658  0.0112
 4948SOL    HW119790   5.487   9.655   7.427  1.5335 -1.5184  1.9034
 4948SOL    HW219791   5.608   9.692   7.344 -0.4014  0.0504 -0.3476
 4948SOL     MW19792   5.559   9.703   7.415  0.3585 -0.0764  0.2175
 4949SOL     OW19793   5.880   8.956   2.523 -0.3153  0.5025 -0.2810
 4949SOL    HW119794   5.934   9.033   2.539 -0.5198  0.4149  0.9604
 4949SOL    HW219795   5.795   8.991   2.497 -0.6045  0.7439  0.9092
 4949SOL     MW19796   5.875   8.971   2.522 -0.3817  0.5232  0.0463
 4950SOL     OW19797   6.652   1.056   1.742 -0.1170  0.2354 -0.0615
 4950SOL    HW119798   6.736   1.087   1.710  0.4029 -1.7533 -0.8252
 4950SOL    HW219799   6.644   0.968   1.705 -3.3768  1.0097 -1.5826
 4950SOL     MW19800   6.662   1.048   1.732 -0.4857  0.0719 -0.3690
 4951SOL     OW19801   3.930   9.368   3.096  0.6936 -0.2220  0.2106
 4951SOL    HW119802   3.996   9.394   3.160  1.4654  2.3931 -1.4843
 4951SOL    HW219803   3.853   9.419   3.118  0.0840 -1.2566  0.5572
 4951SOL     MW19804   3.929   9.378   3.107  0.7154 -0.0093  0.0291
 4952SOL     OW19805   6.304   0.307   9.445  0.0326  0.7483 -0.0183
 4952SOL    HW119806   6.324   0.354   9.526  0.9696 -1.9327  1.4606
 4952SOL    HW219807   6.209   0.315   9.436  0.0023  1.7368  0.9427
 4952SOL     MW19808   6.294   0.314   9.455  0.1546  0.5205  0.3101
 4953SOL     OW19809   4.276   8.925   2.065 -0.0084  0.5587 -0.1043
 4953SOL    HW119810   4.220   8.929   1.988  1.7293 -3.1845 -1.8271
 4953SOL    HW219811   4.362   8.952   2.034  0.5536 -0.2854  0.6556
 4953SOL     MW19812   4.280   8.929   2.051  0.3011 -0.0587 -0.2339
 4954SOL     OW19813   6.158   7.757   7.634  0.1771  0.1744  0.2324
 4954SOL    HW119814   6.201   7.802   7.708 -0.4714  0.0199  0.7083
 4954SOL    HW219815   6.097   7.821   7.599  0.3256  0.1709 -0.0343
 4954SOL     MW19816   6.156   7.772   7.639  0.1098  0.1531  0.2605
 4955SOL     OW19817   5.367   9.419   0.484 -0.4928 -0.0586  0.9149
 4955SOL    HW119818   5.303   9.391   0.550  0.4348  1.3886  2.5129
 4955SOL    HW219819   5.450   9.424   0.531  0.0384  1.9144 -0.1093
 4955SOL     MW19820   5.370   9.416   0.499 -0.2965  0.4017  0.9922
 4956SOL     OW19821   6.968   8.942   9.386  0.2382  0.0955 -0.7385
 4956SOL    HW119822   7.063   8.947   9.378  0.3710  0.3409  0.6768
 4956SOL    HW219823   6.935   9.020   9.341  0.9459  1.9019  1.6473
 4956SOL     MW19824   6.976   8.953   9.379  0.3513  0.3716 -0.2269
 4957SOL     OW19825   5.238   7.966   7.776 -0.2140  0.6836 -0.1167
 4957SOL    HW119826   5.186   7.958   7.856  1.6785  1.2608  1.2261
 4957SOL    HW219827   5.232   7.880   7.735  0.2911 -0.2300  1.6272
 4957SOL     MW19828   5.230   7.953   7.781  0.1087  0.6383  0.2987
 4958SOL     OW19829   5.254   9.552   8.956 -0.1347  0.0640 -0.3565
 4958SOL    HW119830   5.172   9.598   8.972 -0.7595 -1.2165  0.2047
 4958SOL    HW219831   5.247   9.520   8.866 -1.0592 -1.6188  0.2854
 4958SOL     MW19832   5.242   9.554   8.946 -0.3432 -0.3348 -0.1946
 4959SOL     OW19833   7.808   9.729   1.511  0.3484  0.1729 -0.7453
 4959SOL    HW119834   7.882   9.746   1.454 -0.4505 -0.4034 -1.9881
 4959SOL    HW219835   7.740   9.791   1.482 -0.5029 -0.9857 -1.3074
 4959SOL     MW19836   7.809   9.740   1.500  0.1263 -0.0606 -0.9882
 4960SOL     OW19837   6.276   2.056   1.292 -0.3011 -0.4035 -0.5404
 4960SOL    HW119838   6.304   2.002   1.218 -1.4708 -0.6379 -0.8459
 4960SOL    HW219839   6.224   2.125   1.253  0.6640  0.6066 -0.0878
 4960SOL     MW19840   6.273   2.058   1.277 -0.3286 -0.2991 -0.5206
 4961SOL     OW19841   4.010   0.463   3.293  0.7062 -0.0103 -0.3127
 4961SOL    HW119842   3.929   0.424   3.259  1.6714 -1.0112 -1.5849
 4961SOL    HW219843   3.984   0.551   3.320 -0.8971 -0.4480 -0.2841
 4961SOL     MW19844   3.995   0.470   3.292  0.6203 -0.2039 -0.4801
 4962SOL     OW19845   7.061   0.344   9.740 -0.3531 -0.3082 -0.5796
 4962SOL    HW119846   7.097   0.256   9.751 -0.3125 -0.2319 -0.0935
 4962SOL    HW219847   7.038   0.372   9.828  0.9187  0.7122 -0.5526
 4962SOL     MW19848   7.063   0.336   9.753 -0.1764 -0.1606 -0.5106
 4963SOL     OW19849   6.748   1.219   5.138  0.2488  0.1155 -0.2284
 4963SOL    HW119850   6.820   1.281   5.153  1.5610 -1.0869 -1.2285
 4963SOL    HW219851   6.769   1.178   5.053 -0.6056 -1.6142  0.3435
 4963SOL     MW19852   6.761   1.222   5.128  0.3104 -0.2791 -0.2860
 4964SOL     OW19853   7.458   9.510   2.287 -0.3064 -0.6959  0.0841
 4964SOL    HW119854   7.415   9.592   2.310  0.1554  0.0255 -1.5063
 4964SOL    HW219855   7.397   9.467   2.227  0.5983 -0.2266 -1.2244
 4964SOL     MW19856   7.444   9.515   2.282 -0.1225 -0.5357 -0.3061
 4965SOL     OW19857   5.760   9.132   8.263 -0.1481  0.1173 -0.1488
 4965SOL    HW119858   5.768   9.227   8.254 -0.1699  0.2182  0.7198
 4965SOL    HW219859   5.741   9.119   8.356 -0.6332 -0.7092 -0.3525
 4965SOL     MW19860   5.758   9.143   8.275 -0.2163  0.0196 -0.0593
 4966SOL     OW19861   3.781   0.187   7.062  0.0581  0.2169  0.4704
 4966SOL    HW119862   3.752   0.278   7.065  0.9254  0.5060  0.1782
 4966SOL    HW219863   3.874   0.191   7.043  0.2707 -0.7123  1.2081
 4966SOL     MW19864   3.790   0.200   7.060  0.2034  0.1308  0.5304
 4967SOL     OW19865   7.693  10.068   1.738 -0.1474 -0.3931  0.3521
 4967SOL    HW119866   7.608  10.112   1.731 -0.1609 -0.5064 -0.2131
 4967SOL    HW219867   7.751  10.134   1.777 -0.8103 -0.7453  2.0341
 4967SOL     MW19868   7.689  10.083   1.743 -0.2385 -0.4557  0.5024
 4968SOL     OW19869   6.254   8.273   4.944 -0.0225 -0.0867 -0.1807
 4968SOL    HW119870   6.314   8.201   4.926  0.8150  0.7854 -1.0639
 4968SOL    HW219871   6.279   8.341   4.880 -1.8204  0.3768 -0.4453
 4968SOL     MW19872   6.266   8.273   4.933 -0.1517  0.0930 -0.3351
 4969SOL     OW19873   8.019   9.809   5.489  0.5683  0.0597 -0.6823
 4969SOL    HW119874   7.982   9.722   5.472  1.8810 -1.4620  3.1600
 4969SOL    HW219875   7.943   9.867   5.493 -0.7189 -1.5945 -0.0064
 4969SOL     MW19876   8.004   9.805   5.487  0.5718 -0.3678 -0.0743
 4970SOL     OW19877   7.214   8.231   6.683  0.6234 -0.2495 -0.0596
 4970SOL    HW119878   7.187   8.259   6.596 -1.1789 -2.4012 -0.2832
 4970SOL    HW219879   7.289   8.173   6.668  0.3613 -0.5583 -0.1943
 4970SOL     MW19880   7.221   8.227   6.669  0.3456 -0.5806 -0.1078
 4971SOL     OW19881   6.501   7.585   7.656  0.2391  0.2988  0.3034
 4971SOL    HW119882   6.451   7.544   7.586  0.6216  0.1724  0.1040
 4971SOL    HW219883   6.534   7.666   7.618  1.6755 -0.4660 -0.1461
 4971SOL     MW19884   6.499   7.591   7.642  0.4839  0.1789  0.2161
 4972SOL     OW19885   4.169   8.791   2.281 -0.0608  0.3354  0.0694
 4972SOL    HW119886   4.113   8.868   2.292  0.1539  0.5950 -0.5996
 4972SOL    HW219887   4.222   8.811   2.204  0.3610 -0.2668  0.1963
 4972SOL     MW19888   4.169   8.804   2.272  0.0249  0.2893 -0.0036
 4973SOL     OW19889   8.081   9.928   6.265  0.1254 -0.0174 -0.4471
 4973SOL    HW119890   8.076   9.934   6.360 -0.6895  1.1841 -0.5331
 4973SOL    HW219891   8.099   9.836   6.247  0.7096 -0.1786  0.8760
 4973SOL     MW19892   8.082   9.917   6.275  0.0944  0.1226 -0.2806
 4974SOL     OW19893   7.467   8.751   9.438 -0.1317 -0.4314  0.0314
 4974SOL    HW119894   7.430   8.734   9.524 -1.5257 -0.5491 -0.5621
 4974SOL    HW219895   7.554   8.786   9.455  0.0840 -1.5771  1.4469
 4974SOL     MW19896   7.474   8.753   9.452 -0.2903 -0.6014  0.1420
 4975SOL     OW19897   7.605   9.885   1.427  0.5586  0.3227 -0.0148
 4975SOL    HW119898   7.564   9.843   1.503  1.3220  0.6607  0.5938
 4975SOL    HW219899   7.584   9.978   1.437  0.1973  0.3026 -0.5229
 4975SOL     MW19900   7.596   9.892   1.438  0.6127  0.3655 -0.0013
 4976SOL     OW19901   6.770   0.301   2.307 -0.1928  0.4466 -0.0236
 4976SOL    HW119902   6.779   0.207   2.322  0.1609  0.4656 -0.0858
 4976SOL    HW219903   6.683   0.323   2.339 -0.6151 -0.0591 -0.7731
 4976SOL     MW19904   6.760   0.291   2.313 -0.2020  0.3811 -0.1328
 4977SOL     OW19905   6.127   9.320   9.301  0.2759  0.3658  0.3204
 4977SOL    HW119906   6.063   9.284   9.364 -1.0065  1.2389 -0.4362
 4977SOL    HW219907   6.183   9.246   9.280 -1.8383 -1.0842 -0.6340
 4977SOL     MW19908   6.126   9.305   9.307 -0.1813  0.2882  0.0902
 4978SOL     OW19909   4.947   1.380   1.344  0.8915  0.1699  0.3783
 4978SOL    HW119910   4.970   1.418   1.429  1.4926  1.5438 -0.3628
 4978SOL    HW219911   5.026   1.335   1.315  0.2293 -1.6062  1.1811
 4978SOL     MW19912   4.961   1.379   1.352  0.8833  0.1158  0.3866
 4979SOL     OW19913   5.354   9.994   3.102  0.3579 -0.1040 -0.5969
 4979SOL    HW119914   5.315   9.927   3.045 -0.1786  0.5637 -1.0279
 4979SOL    HW219915   5.448   9.985   3.088  0.2183  0.3410 -1.9500
 4979SOL     MW19916   5.362   9.984   3.092  0.2669  0.0458 -0.8370
 4980SOL     OW19917   5.846   1.562   6.589 -0.2687 -0.0593 -0.5726
 4980SOL    HW119918   5.796   1.489   6.627  0.5786 -0.1085  0.4927
 4980SOL    HW219919   5.853   1.540   6.496 -0.5734 -1.0174 -0.3829
 4980SOL     MW19920   5.840   1.549   6.582 -0.1957 -0.1949 -0.4037
 4981SOL     OW19921   3.807   9.086   6.111  0.0037  0.0699  0.3985
 4981SOL    HW119922   3.889   9.105   6.157  0.1018 -0.2534  0.3615
 4981SOL    HW219923   3.807   8.991   6.101  0.1891  0.1744 -0.6473
 4981SOL     MW19924   3.818   9.076   6.116  0.0418  0.0404  0.2528
 4982SOL     OW19925   6.928   8.260   1.655  0.5418  0.5100 -0.0358
 4982SOL    HW119926   7.016   8.245   1.690 -0.0976 -0.1025  1.4158
 4982SOL    HW219927   6.873   8.270   1.733 -0.7384  0.5508 -0.9105
 4982SOL     MW19928   6.932   8.260   1.671  0.2834  0.4331  0.0419
 4983SOL     OW19929   5.222   0.410   1.658  0.2423  0.3322  0.3762
 4983SOL    HW119930   5.221   0.418   1.753 -0.3677 -1.0004  0.5086
 4983SOL    HW219931   5.246   0.318   1.642  1.0603  0.7202 -0.7748
 4983SOL     MW19932   5.225   0.398   1.668  0.2703  0.2051  0.2391
 4984SOL     OW19933   4.696   0.458   7.171 -0.1057 -0.3333 -0.2713
 4984SOL    HW119934   4.736   0.439   7.086  0.5040  3.2855 -0.9857
 4984SOL    HW219935   4.606   0.427   7.163  0.1118 -0.6359 -2.0282
 4984SOL     MW19936   4.690   0.452   7.158  0.0056  0.1130 -0.6039
 4985SOL     OW19937   6.688   8.357   5.520 -0.2195  0.1421 -0.3320
 4985SOL    HW119938   6.754   8.368   5.588 -0.4278 -2.8644  0.5160
 4985SOL    HW219939   6.728   8.395   5.442  2.8075 -1.9384  0.0130
 4985SOL     MW19940   6.702   8.363   5.519  0.1599 -0.5425 -0.1715
 4986SOL     OW19941   5.453   7.692   8.225  0.0761  0.1776 -0.2033
 4986SOL    HW119942   5.519   7.703   8.156 -0.3290  2.4705 -0.3249
 4986SOL    HW219943   5.500   7.710   8.306  0.6096 -2.7640  0.2365
 4986SOL     MW19944   5.468   7.696   8.226  0.0934  0.0903 -0.1605
 4987SOL     OW19945   5.484   0.407   7.553  0.3445  0.5039 -0.7475
 4987SOL    HW119946   5.471   0.490   7.598 -0.9484  0.3790 -0.8394
 4987SOL    HW219947   5.395   0.375   7.536  0.8080 -0.8379 -0.8095
 4987SOL     MW19948   5.470   0.414   7.557  0.2329  0.3065 -0.7682
 4988SOL     OW19949   6.014   7.401   7.573  0.0094 -0.0150  0.0693
 4988SOL    HW119950   5.964   7.454   7.511  1.8224  0.3168 -1.1944
 4988SOL    HW219951   5.948   7.347   7.617 -1.5094  0.8916 -1.0001
 4988SOL     MW19952   5.998   7.401   7.570  0.0490  0.1517 -0.2447
 4989SOL     OW19953   3.959   0.765   7.851 -0.2413 -0.0491 -0.3237
 4989SOL    HW119954   3.974   0.720   7.935  0.0630  1.3530  0.4001
 4989SOL    HW219955   3.918   0.847   7.875 -0.2160  0.3410 -1.5717
 4989SOL     MW19956   3.956   0.770   7.866 -0.1969  0.1921 -0.3942
 4990SOL     OW19957   4.905   9.640   7.784  0.0104  0.0090 -0.8572
 4990SOL    HW119958   4.927   9.643   7.691 -1.6143 -0.2203 -1.2899
 4990SOL    HW219959   4.860   9.557   7.796 -1.4992  0.8614 -0.3064
 4990SOL     MW19960   4.902   9.629   7.773 -0.4114  0.0929 -0.8413
 4991SOL     OW19961   7.133   0.325   6.877 -0.0312 -0.2347 -0.6216
 4991SOL    HW119962   7.075   0.249   6.870  0.2967 -0.5330 -0.1415
 4991SOL    HW219963   7.108   0.367   6.959  0.0462 -0.0362 -0.6991
 4991SOL     MW19964   7.122   0.321   6.887  0.0233 -0.2481 -0.5674
 4992SOL     OW19965   7.730   0.041   8.673  0.5444  0.1819  0.4365
 4992SOL    HW119966   7.691   0.118   8.629 -0.2403 -0.9055 -0.8674
 4992SOL    HW219967   7.822   0.043   8.647  0.1069 -0.4061 -1.3067
 4992SOL     MW19968   7.737   0.052   8.663  0.3799 -0.0435  0.0264
 4993SOL     OW19969   8.117  10.051   4.014  0.2576 -0.1182  0.0459
 4993SOL    HW119970   8.045  10.113   4.027  0.0347 -0.5702  1.0062
 4993SOL    HW219971   8.151  10.072   3.927  0.2097  1.3890  0.3637
 4993SOL     MW19972   8.112  10.062   4.004  0.2212  0.0238  0.2179
 4994SOL     OW19973   6.761   1.406   3.049  0.6985 -0.3483  0.2773
 4994SOL    HW119974   6.844   1.360   3.061  1.2921  0.2627 -1.2287
 4994SOL    HW219975   6.715   1.394   3.132  1.6687 -1.9305  0.6355
 4994SOL     MW19976   6.766   1.398   3.062  0.9089 -0.4790  0.1228
 4995SOL     OW19977   7.410   1.476   8.176  0.5039 -0.3510  0.2121
 4995SOL    HW119978   7.438   1.525   8.099 -0.0482  0.0787  0.2827
 4995SOL    HW219979   7.331   1.429   8.148  1.2209 -1.5033  0.0375
 4995SOL     MW19980   7.403   1.476   8.162  0.5261 -0.4482  0.1981
 4996SOL     OW19981   5.851   1.603   4.440  0.1105 -0.6411  0.5264
 4996SOL    HW119982   5.831   1.590   4.533  1.2129 -2.9651  0.4900
 4996SOL    HW219983   5.908   1.680   4.439 -1.0716  0.3075  1.5810
 4996SOL     MW19984   5.856   1.612   4.452  0.0997 -0.8262  0.6634
 4997SOL     OW19985   5.491   7.683   0.055  0.3675 -0.5355  0.4214
 4997SOL    HW119986   5.584   7.670   0.073  0.3725  0.4885  1.2162
 4997SOL    HW219987   5.486   7.690  -0.041  1.0547 -0.9350  0.3483
 4997SOL     MW19988   5.503   7.682   0.044  0.4606 -0.4514  0.5186
 4998SOL     OW19989   3.491  10.057   4.787 -0.0617  0.8223 -0.1653
 4998SOL    HW119990   3.463   9.990   4.723 -0.3756 -0.1416  0.9414
 4998SOL    HW219991   3.563  10.103   4.744 -0.8114  0.7600 -1.5429
 4998SOL     MW19992   3.497  10.054   4.772 -0.2048  0.6841 -0.2018
 4999SOL     OW19993   6.358   8.579   5.338  0.4336 -0.3566  0.1111
 4999SOL    HW119994   6.385   8.495   5.301  2.7336  0.9654 -1.4485
 4999SOL    HW219995   6.348   8.561   5.432  1.8120 -2.1684 -0.0244
 4999SOL     MW19996   6.360   8.565   5.346  0.9286 -0.4225 -0.1170
 5000SOL     OW19997   8.012  10.110   8.084  0.4704  0.6000 -0.5843
 5000SOL    HW119998   8.019  10.015   8.099  0.0961  0.8522  1.4267
 5000SOL    HW219999   8.041  10.121   7.993  2.1498 -1.2564 -0.3669
 5000SOL     MW20000   8.017  10.099   8.074  0.6460  0.3841 -0.2844
 5001SOL     OW20001   6.095   9.476   0.472 -0.2007 -0.5850 -0.3785
 5001SOL    HW120002   6.122   9.403   0.529 -0.1580 -0.5762 -0.3878
 5001SOL    HW220003   6.030   9.437   0.414  0.6245 -0.8835 -1.1196
 5001SOL     MW20004   6.090   9.461   0.472 -0.0839 -0.6240 -0.4795
 5002SOL     OW20005   4.785   8.034   5.909  0.4966  0.7311 -0.1646
 5002SOL    HW120006   4.731   8.035   5.988  0.5724 -0.8433 -0.0694
 5002SOL    HW220007   4.726   8.059   5.839 -0.3873 -0.9353 -0.0571
 5002SOL     MW20008   4.770   8.038   5.910  0.3879  0.2950 -0.1373
 5003SOL     OW20009   7.028   0.397   5.580 -0.2620 -0.0865  0.1576
 5003SOL    HW120010   7.047   0.413   5.672  0.3668 -1.5925  0.3035
 5003SOL    HW220011   6.932   0.402   5.574 -0.4453 -1.8136  1.2628
 5003SOL     MW20012   7.017   0.400   5.591 -0.2020 -0.5216  0.3260
 5004SOL     OW20013   3.811   9.908   1.336  0.3511 -0.2516 -0.1508
 5004SOL    HW120014   3.855   9.993   1.345 -0.5395  0.1613  0.4591
 5004SOL    HW220015   3.795   9.900   1.242  0.4133  0.2809 -0.2108
 5004SOL     MW20016   3.815   9.919   1.324  0.2397 -0.1244 -0.0768
 5005SOL     OW20017   4.290   9.920   0.075 -0.1559 -0.4018 -0.1054
 5005SOL    HW120018   4.296   9.948  -0.016  0.5917  0.5689  0.2220
 5005SOL    HW220019   4.321   9.829   0.074 -0.8593 -0.6355 -0.9204
 5005SOL     MW20020   4.295   9.911   0.063 -0.1500 -0.3026 -0.1710
 5006SOL     OW20021   7.874   0.063   1.152 -0.1056 -0.2960  0.2977
 5006SOL    HW120022   7.940   0.074   1.221 -1.5131 -1.1723  1.8654
 5006SOL    HW220023   7.881  -0.029   1.126  0.7640  0.1508 -1.1497
 5006SOL     MW20024   7.884   0.052   1.158 -0.1780 -0.3538  0.3139
 5007SOL     OW20025   5.519   9.146   6.849 -0.1095  0.2669 -0.6221
 5007SOL    HW120026   5.606   9.146   6.809  0.1618  1.7555 -0.1137
 5007SOL    HW220027   5.525   9.212   6.919 -1.1864 -0.7454  0.4644
 5007SOL     MW20028   5.532   9.155   6.853 -0.2179  0.3310 -0.4075
 5008SOL     OW20029   4.337   8.587   7.801  0.4127 -0.1844 -0.3220
 5008SOL    HW120030   4.336   8.508   7.746  0.8239 -0.7879  0.5119
 5008SOL    HW220031   4.367   8.556   7.887  0.6099  0.8919  0.0123
 5008SOL     MW20032   4.341   8.572   7.805  0.4946 -0.1207 -0.1648
 5009SOL     OW20033   6.529   8.580   4.239  0.0452 -0.2504 -0.6208
 5009SOL    HW120034   6.451   8.610   4.286 -0.1008 -0.4058 -0.7654
 5009SOL    HW220035   6.507   8.492   4.209  0.9995 -1.1565  1.1099
 5009SOL     MW20036   6.516   8.572   4.241  0.1540 -0.3932 -0.4073
 5010SOL     OW20037   6.919   0.106   8.068  0.2641 -0.8159  0.3877
 5010SOL    HW120038   6.923   0.185   8.122 -0.4844 -1.0461  0.7913
 5010SOL    HW220039   6.826   0.097   8.045  0.4887 -1.0356 -0.4755
 5010SOL     MW20040   6.907   0.116   8.072  0.1936 -0.8764  0.3259
 5011SOL     OW20041   7.415   0.666   2.626  0.2849  0.2899  0.2749
 5011SOL    HW120042   7.482   0.734   2.628  1.6233 -0.9980  0.6515
 5011SOL    HW220043   7.453   0.592   2.674 -1.7437 -0.1852  1.2984
 5011SOL     MW20044   7.429   0.665   2.633  0.1920  0.0527  0.4633
 5012SOL     OW20045   4.650   9.091   7.354  0.0161  0.2889 -0.1371
 5012SOL    HW120046   4.565   9.123   7.382  0.0854 -0.0698  0.4924
 5012SOL    HW220047   4.694   9.167   7.316 -0.6198  0.4506 -0.5578
 5012SOL     MW20048   4.645   9.105   7.353 -0.0602  0.2624 -0.1090
 5013SOL     OW20049   3.556  10.151   5.512  0.7222  0.0911  0.7604
 5013SOL    HW120050   3.607  10.222   5.550  2.0116 -1.7489  2.7410
 5013SOL    HW220051   3.596  10.071   5.548  0.0701 -1.7260 -2.2236
 5013SOL     MW20052   3.568  10.150   5.522  0.8080 -0.4011  0.6254
 5014SOL     OW20053   5.481   8.584   4.487 -0.2476  0.1353  0.4085
 5014SOL    HW120054   5.526   8.612   4.407  0.2234 -0.4004  0.4800
 5014SOL    HW220055   5.497   8.655   4.550 -2.2498  1.4949 -0.5243
 5014SOL     MW20056   5.489   8.597   4.485 -0.4537  0.2462  0.2926
 5015SOL     OW20057   6.721   9.196   2.008 -0.2801  0.8357  0.1070
 5015SOL    HW120058   6.751   9.147   2.084  0.1355 -0.6081 -0.9209
 5015SOL    HW220059   6.800   9.241   1.975 -0.2149  0.6147 -0.0484
 5015SOL     MW20060   6.736   9.195   2.014 -0.2154  0.6116 -0.0522
 5016SOL     OW20061   6.152   8.415   6.679 -0.1225 -0.0494 -0.5915
 5016SOL    HW120062   6.095   8.362   6.734 -0.7084 -0.4766 -1.5899
 5016SOL    HW220063   6.237   8.371   6.684  0.1606  0.6042  0.9195
 5016SOL     MW20064   6.156   8.402   6.687 -0.1632 -0.0190 -0.5225
 5017SOL     OW20065   6.372   7.822   1.634  0.0004 -0.2180  0.4083
 5017SOL    HW120066   6.281   7.848   1.643  0.1208  0.7542 -0.9496
 5017SOL    HW220067   6.414   7.896   1.590  1.1707 -1.1730 -0.1344
 5017SOL     MW20068   6.366   7.836   1.630  0.1741 -0.2157  0.1525
 5018SOL     OW20069   4.721   0.479   2.899  0.1117  0.2918 -0.1261
 5018SOL    HW120070   4.772   0.400   2.880 -1.1932 -0.1173 -2.2575
 5018SOL    HW220071   4.734   0.493   2.992  2.4060 -0.9812 -0.1672
 5018SOL     MW20072   4.730   0.470   2.909  0.2449  0.0654 -0.4185
 5019SOL     OW20073   4.420   8.812   2.417 -0.3932  0.5403  0.3812
 5019SOL    HW120074   4.327   8.801   2.393 -0.2266  1.5347 -0.8116
 5019SOL    HW220075   4.419   8.881   2.483 -0.3816  1.7566 -0.8502
 5019SOL     MW20076   4.407   8.820   2.423 -0.3692  0.8378  0.0549
 5020SOL     OW20077   6.250   9.755   7.404 -0.1185 -0.6847  0.2116
 5020SOL    HW120078   6.338   9.717   7.414 -0.2861 -1.5769 -1.3153
 5020SOL    HW220079   6.260   9.820   7.335 -0.5441 -0.3810  0.4373
 5020SOL     MW20080   6.263   9.758   7.396 -0.1983 -0.7639  0.0365
 5021SOL     OW20081   4.838   9.394   5.589  0.2994  0.0939 -0.1075
 5021SOL    HW120082   4.907   9.362   5.648 -0.1489  1.0842  0.9858
 5021SOL    HW220083   4.882   9.403   5.505  1.5577  0.7966  0.5905
 5021SOL     MW20084   4.853   9.391   5.586  0.4084  0.3217  0.1336
 5022SOL     OW20085   4.999   1.612   1.169  0.1412 -0.0108 -0.3090
 5022SOL    HW120086   4.980   1.541   1.230  0.9760 -1.4167 -1.6318
 5022SOL    HW220087   5.019   1.569   1.086  0.8481  1.7600 -1.1185
 5022SOL     MW20088   4.999   1.597   1.166  0.3487  0.0383 -0.5960
 5023SOL     OW20089   6.360   1.494   8.029 -0.2964  0.3472 -0.3102
 5023SOL    HW120090   6.276   1.462   7.996 -0.2337 -0.9202  0.7113
 5023SOL    HW220091   6.418   1.419   8.025  0.7650  1.1656 -0.8348
 5023SOL     MW20092   6.356   1.480   8.024 -0.1451  0.2868 -0.2434
 5024SOL     OW20093   4.172   0.075   0.703  0.4582  0.1030 -0.1870
 5024SOL    HW120094   4.189   0.169   0.702  0.8722  0.0292 -0.1720
 5024SOL    HW220095   4.095   0.065   0.761  0.7451  0.3774  0.2480
 5024SOL     MW20096   4.164   0.086   0.711  0.5525  0.1300 -0.1265
 5025SOL     OW20097   5.202   0.724   3.204  0.0416 -0.3533  0.4015
 5025SOL    HW120098   5.266   0.759   3.142 -0.0643 -0.6541  0.1200
 5025SOL    HW220099   5.254   0.684   3.273  0.1809  1.0055  1.1213
 5025SOL     MW20100   5.217   0.723   3.205  0.0461 -0.2109  0.4605
 5026SOL     OW20101   8.040   8.685   4.383 -0.2197  0.5394  0.0499
 5026SOL    HW120102   8.134   8.671   4.382 -0.3198 -0.1383  0.1078
 5026SOL    HW220103   8.029   8.766   4.433  0.4422  1.5975 -1.4257
 5026SOL     MW20104   8.051   8.694   4.390 -0.1441  0.5906 -0.1409
 5027SOL     OW20105   6.293  10.050   0.112 -0.2653  0.6818 -0.1544
 5027SOL    HW120106   6.350  10.036   0.188 -0.6362  0.4934  0.0934
 5027SOL    HW220107   6.268   9.961   0.085  0.5892  0.7039 -1.0588
 5027SOL     MW20108   6.297  10.036   0.119 -0.2002  0.6594 -0.2428
 5028SOL     OW20109   5.873   0.473   2.749  0.2214  0.2182  0.1604
 5028SOL    HW120110   5.837   0.552   2.708 -0.8017 -0.7728 -0.9364
 5028SOL    HW220111   5.920   0.505   2.826 -0.4023  1.8621 -0.1011
 5028SOL     MW20112   5.874   0.488   2.754 -0.0002  0.3061 -0.0224
 5029SOL     OW20113   5.308   9.817   9.993  0.6351  0.6917  0.2290
 5029SOL    HW120114   5.376   9.750  10.001 -1.2561 -1.2345  1.0572
 5029SOL    HW220115   5.271   9.824  10.081 -0.4769  1.4202 -0.2782
 5029SOL     MW20116   5.313   9.809  10.006  0.2309  0.5305  0.2722
 5030SOL     OW20117   5.834   9.818   8.023  0.5639  0.1321  0.2248
 5030SOL    HW120118   5.777   9.774   8.086  1.3548  2.1858  2.5777
 5030SOL    HW220119   5.922   9.810   8.061  1.4240 -0.3881 -1.7630
 5030SOL     MW20120   5.838   9.811   8.037  0.7861  0.3385  0.2740
 5031SOL     OW20121   5.161   7.805   6.269 -0.9265  0.4464  0.1433
 5031SOL    HW120122   5.225   7.876   6.265  0.8492 -1.0783 -0.0712
 5031SOL    HW220123   5.188   7.752   6.344 -0.3678 -1.5730 -1.3714
 5031SOL     MW20124   5.173   7.807   6.279 -0.6124 -0.0306 -0.0894
 5032SOL     OW20125   7.423   8.836   8.021 -0.3355  0.4701  0.8763
 5032SOL    HW120126   7.490   8.824   7.953 -1.5458 -0.6818 -0.1460
 5032SOL    HW220127   7.459   8.791   8.098  0.0871 -0.1011  0.3574
 5032SOL     MW20128   7.437   8.829   8.022 -0.4415  0.2382  0.6689
 5033SOL     OW20129   5.109   0.325   7.798 -0.7133 -0.2893  0.4085
 5033SOL    HW120130   5.013   0.326   7.791 -0.6610  0.3067 -0.3562
 5033SOL    HW220131   5.140   0.348   7.710  0.1998 -3.4095 -0.1932
 5033SOL     MW20132   5.100   0.328   7.785 -0.5834 -0.6290  0.2246
 5034SOL     OW20133   4.696   8.013   5.093 -0.1413 -0.0183  0.5529
 5034SOL    HW120134   4.725   8.103   5.106 -0.1744  0.2578 -1.0808
 5034SOL    HW220135   4.777   7.961   5.093 -0.1353 -0.0215  1.6471
 5034SOL     MW20136   4.711   8.018   5.094 -0.1450  0.0184  0.4803
 5035SOL     OW20137   4.811   0.003   5.221 -0.4843 -0.2927  0.3968
 5035SOL    HW120138   4.724  -0.035   5.229 -0.9833  0.3551 -1.4571
 5035SOL    HW220139   4.796   0.095   5.198  0.6166 -0.4942 -1.3808
 5035SOL     MW20140   4.797   0.010   5.219 -0.4033 -0.2327 -0.0919
 5036SOL     OW20141   7.316   0.763   9.494 -0.1854  0.3650 -0.3781
 5036SOL    HW120142   7.229   0.722   9.489  0.3375 -0.6885 -1.4558
 5036SOL    HW220143   7.337   0.763   9.588 -0.6150 -1.0212 -0.2481
 5036SOL     MW20144   7.307   0.757   9.506 -0.1728  0.0367 -0.5056
 5037SOL     OW20145   7.919   1.201   8.075 -0.0849  0.1040 -0.0319
 5037SOL    HW120146   7.827   1.219   8.089  0.2072  0.2340  1.8863
 5037SOL    HW220147   7.964   1.241   8.149  1.6466  1.0624 -1.5123
 5037SOL     MW20148   7.913   1.209   8.087  0.1875  0.2504  0.0270
 5038SOL     OW20149   5.556   9.173   6.467  0.3669 -0.6064 -0.1858
 5038SOL    HW120150   5.594   9.255   6.435  0.0163 -0.6800 -0.8117
 5038SOL    HW220151   5.484   9.201   6.523  0.0514 -0.4817 -0.6459
 5038SOL     MW20152   5.552   9.188   6.470  0.2773 -0.5995 -0.3319
 5039SOL     OW20153   4.627   9.119   5.378  1.0479  0.6541 -0.0193
 5039SOL    HW120154   4.659   9.125   5.468  0.9121  0.5982  0.0330
 5039SOL    HW220155   4.601   9.209   5.356 -3.2644  0.0071  1.6052
 5039SOL     MW20156   4.628   9.132   5.387  0.4493  0.5595  0.2064
 5040SOL     OW20157   7.314   1.007   3.153 -0.2535  0.1680  0.0301
 5040SOL    HW120158   7.270   1.062   3.088  1.3429  2.3741  0.7158
 5040SOL    HW220159   7.245   0.986   3.217 -0.9635  1.2402 -0.3491
 5040SOL     MW20160   7.299   1.012   3.153 -0.1342  0.6092  0.0713
 5041SOL     OW20161   5.622   9.789   5.198 -0.1253  0.0001 -0.2790
 5041SOL    HW120162   5.543   9.778   5.145 -0.9644 -0.1125  0.9462
 5041SOL    HW220163   5.618   9.880   5.228 -0.3691 -0.3025  0.6520
 5041SOL     MW20164   5.611   9.800   5.195 -0.2710 -0.0558  0.0112
 5042SOL     OW20165   6.994   0.626   8.984 -0.2295  0.2876 -0.2853
 5042SOL    HW120166   7.033   0.697   9.035 -1.0505  0.7335 -0.2567
 5042SOL    HW220167   6.938   0.581   9.047 -1.9756  1.4027 -0.9646
 5042SOL     MW20168   6.992   0.630   8.999 -0.5749  0.4977 -0.3729
 5043SOL     OW20169   5.820   7.682   1.635 -0.0362 -0.0983 -0.5244
 5043SOL    HW120170   5.727   7.680   1.614 -0.1844 -0.6441  0.1911
 5043SOL    HW220171   5.824   7.706   1.727  0.5251 -0.3180 -0.4885
 5043SOL     MW20172   5.808   7.685   1.644  0.0194 -0.2013 -0.4233
 5044SOL     OW20173   3.787   8.779   4.523  0.3380  0.1418  0.0137
 5044SOL    HW120174   3.770   8.779   4.617 -1.8036  0.8080 -0.3152
 5044SOL    HW220175   3.844   8.703   4.509 -0.5094 -0.8744  1.6620
 5044SOL     MW20176   3.792   8.768   4.533 -0.0643  0.0947  0.1913
 5045SOL     OW20177   6.057   8.231   3.436 -0.3154  0.0847  0.3159
 5045SOL    HW120178   6.053   8.141   3.403  0.8577  0.8747 -2.2412
 5045SOL    HW220179   6.147   8.242   3.465 -0.7363  0.1324  1.6374
 5045SOL     MW20180   6.068   8.220   3.435 -0.2141  0.1974  0.1496
 5046SOL     OW20181   6.774   7.969   8.444 -0.3532 -0.2093 -0.2749
 5046SOL    HW120182   6.815   7.932   8.522 -0.9678 -0.7787 -0.2151
 5046SOL    HW220183   6.759   8.061   8.467 -0.7432 -0.4273  0.3751
 5046SOL     MW20184   6.777   7.977   8.458 -0.4884 -0.3152 -0.1794
 5047SOL     OW20185   5.620  10.111   2.425 -0.2686 -0.3551  0.8628
 5047SOL    HW120186   5.532  10.141   2.450 -0.5211  0.5328 -0.9441
 5047SOL    HW220187   5.606  10.023   2.390 -0.3697 -0.3902  0.9888
 5047SOL     MW20188   5.606  10.103   2.424 -0.3162 -0.2403  0.6366
 5048SOL     OW20189   4.143   9.137   6.489 -0.3872  0.0711 -0.0762
 5048SOL    HW120190   4.193   9.055   6.484  0.7523  0.7850 -1.7653
 5048SOL    HW220191   4.210   9.204   6.501 -1.0986  0.9276 -0.7755
 5048SOL     MW20192   4.159   9.135   6.490 -0.3296  0.2825 -0.3977
 5049SOL     OW20193   6.832  10.129   1.610 -0.0470  0.3310  0.0010
 5049SOL    HW120194   6.792  10.141   1.696 -0.6014 -0.0720 -0.1986
 5049SOL    HW220195   6.759  10.121   1.550  0.3380  0.9397 -0.5662
 5049SOL     MW20196   6.817  10.130   1.614 -0.0698  0.3587 -0.1022
 5050SOL     OW20197   7.146   0.735   2.486 -0.0110 -0.7081  0.0870
 5050SOL    HW120198   7.137   0.797   2.413  0.0430 -1.1767 -0.3180
 5050SOL    HW220199   7.240   0.725   2.497 -0.0223 -1.4890 -0.5040
 5050SOL     MW20200   7.157   0.742   2.478 -0.0053 -0.8763 -0.0471
 5051SOL     OW20201   4.869   9.700   5.755 -0.4050  0.1453 -0.2312
 5051SOL    HW120202   4.802   9.714   5.688 -0.3819  0.9550 -0.0953
 5051SOL    HW220203   4.914   9.785   5.762 -0.0405 -0.0932  0.4062
 5051SOL     MW20204   4.866   9.714   5.747 -0.3528  0.2222 -0.1271
 5052SOL     OW20205   5.641   8.672   9.387  0.2102  0.4493  0.4721
 5052SOL    HW120206   5.665   8.759   9.417 -3.4064  1.6355  0.3816
 5052SOL    HW220207   5.599   8.631   9.462 -0.2258 -0.2978 -0.1641
 5052SOL     MW20208   5.638   8.678   9.401 -0.3352  0.5084  0.3743
 5053SOL     OW20209   6.387   0.690   7.303 -0.3583  0.3852 -0.0200
 5053SOL    HW120210   6.477   0.709   7.279 -0.5599  0.4727 -0.7496
 5053SOL    HW220211   6.335   0.728   7.231 -0.8493 -2.0399 -1.0325
 5053SOL     MW20212   6.392   0.698   7.290 -0.4515  0.0706 -0.2544
 5054SOL     OW20213   5.184   0.689   9.217 -0.0060 -0.2073 -0.5583
 5054SOL    HW120214   5.142   0.605   9.203 -0.3508  0.0518 -1.1285
 5054SOL    HW220215   5.171   0.708   9.310 -1.0994 -0.1567 -0.7156
 5054SOL     MW20216   5.177   0.680   9.228 -0.1996 -0.1656 -0.6562
 5055SOL     OW20217   7.255   9.581   6.286 -0.2721  0.0989  0.2164
 5055SOL    HW120218   7.259   9.488   6.307 -0.9701 -0.2535 -1.1066
 5055SOL    HW220219   7.173   9.591   6.238  0.1587  1.2672 -0.3123
 5055SOL     MW20220   7.244   9.570   6.283 -0.3081  0.2087 -0.0328
 5056SOL     OW20221   5.582   0.185   1.515 -0.1896  0.1714  0.3957
 5056SOL    HW120222   5.489   0.203   1.530 -0.0318  1.1319  0.3019
 5056SOL    HW220223   5.615   0.266   1.475  0.1802 -1.0190 -1.8235
 5056SOL     MW20224   5.574   0.199   1.512 -0.1186  0.1404  0.0844
 5057SOL     OW20225   7.636   9.999   5.305 -0.3294 -0.2974  0.4533
 5057SOL    HW120226   7.635  10.084   5.261 -0.1051 -0.6875 -0.3218
 5057SOL    HW220227   7.544   9.981   5.326 -0.6334 -0.7651 -1.1635
 5057SOL     MW20228   7.624  10.008   5.302 -0.3401 -0.4128  0.1314
 5058SOL     OW20229   4.712   0.915   4.514  0.1332 -0.0891 -0.5074
 5058SOL    HW120230   4.664   0.997   4.526 -0.8574 -0.7769  0.3564
 5058SOL    HW220231   4.649   0.855   4.476  0.5191 -0.7867 -0.0771
 5058SOL     MW20232   4.697   0.918   4.510  0.0518 -0.2755 -0.3333
 5059SOL     OW20233   7.177   9.197   0.255 -0.1660 -0.3441  0.0093
 5059SOL    HW120234   7.244   9.195   0.323  0.0607  0.2349 -0.1916
 5059SOL    HW220235   7.143   9.107   0.251 -1.3586 -0.0492  2.0483
 5059SOL     MW20236   7.181   9.184   0.264 -0.2960 -0.2265  0.2566
 5060SOL     OW20237   5.009   8.756   1.155  0.0995 -0.0966 -0.3666
 5060SOL    HW120238   5.084   8.760   1.215 -0.1016 -0.5872 -0.0731
 5060SOL    HW220239   5.042   8.707   1.080  0.3895  0.6269 -0.7256
 5060SOL     MW20240   5.024   8.750   1.153  0.1115 -0.0653 -0.3754
 5061SOL     OW20241   7.963   0.495   9.724 -0.0253 -0.2555  0.3419
 5061SOL    HW120242   7.924   0.449   9.650  0.7526 -2.5017  1.2315
 5061SOL    HW220243   7.898   0.562   9.748 -1.1870 -0.8328 -1.0791
 5061SOL     MW20244   7.949   0.498   9.718 -0.0769 -0.6355  0.2704
 5062SOL     OW20245   5.516  10.094   1.086  0.2592 -0.0147 -0.2562
 5062SOL    HW120246   5.422  10.096   1.103  0.3548  0.6831  0.2254
 5062SOL    HW220247   5.556  10.122   1.169  0.8026  1.7728 -1.0596
 5062SOL     MW20248   5.508  10.098   1.100  0.3452  0.3198 -0.2995
 5063SOL     OW20249   6.633   0.996   4.746 -0.0676 -0.0508  0.1101
 5063SOL    HW120250   6.695   0.931   4.779  0.2456 -0.5300 -1.3749
 5063SOL    HW220251   6.654   1.005   4.653 -0.5827  1.6537  0.1288
 5063SOL     MW20252   6.644   0.989   4.738 -0.0948  0.1141 -0.0872
 5064SOL     OW20253   7.787   9.316   1.881  0.2361  0.0574 -0.0128
 5064SOL    HW120254   7.807   9.361   1.964  0.5646 -0.1842  0.0407
 5064SOL    HW220255   7.791   9.386   1.815  2.0820 -0.0902 -0.1253
 5064SOL     MW20256   7.790   9.332   1.883  0.5287  0.0050 -0.0207
 5065SOL     OW20257   4.680   8.539  10.082 -0.0666 -0.1936  0.0888
 5065SOL    HW120258   4.767   8.513  10.110  0.1862  1.1204  0.5934
 5065SOL    HW220259   4.667   8.627  10.120 -1.9572 -0.7158  0.7997
 5065SOL     MW20260   4.690   8.548  10.091 -0.2870 -0.0870  0.2524
 5066SOL     OW20261   5.954   1.500   5.092  0.3009 -0.0055 -0.0438
 5066SOL    HW120262   5.971   1.499   4.998  0.4033  0.3206 -0.0309
 5066SOL    HW220263   5.861   1.478   5.100  0.4747 -0.7949 -0.1745
 5066SOL     MW20264   5.944   1.497   5.081  0.3381 -0.0679 -0.0597
 5067SOL     OW20265   4.513   1.144   0.818  0.2007  0.1145 -0.7583
 5067SOL    HW120266   4.574   1.075   0.794 -1.1514 -1.3815 -0.0496
 5067SOL    HW220267   4.429   1.115   0.782 -0.6348  0.7894  0.5950
 5067SOL     MW20268   4.510   1.131   0.810 -0.0937  0.0040 -0.4808
 5068SOL     OW20269   4.592   8.520   4.626  0.0838  0.0545 -0.3332
 5068SOL    HW120270   4.510   8.542   4.670 -0.2119 -0.2207 -0.7351
 5068SOL    HW220271   4.632   8.452   4.680 -0.2156 -0.1913 -0.4171
 5068SOL     MW20272   4.586   8.514   4.639  0.0037 -0.0156 -0.3986
 5069SOL     OW20273   6.469   8.118   7.640  0.2158  0.0080 -0.6332
 5069SOL    HW120274   6.503   8.206   7.623  0.2833  0.1184  0.0230
 5069SOL    HW220275   6.394   8.109   7.582 -0.1316  0.7146 -0.3165
 5069SOL     MW20276   6.464   8.129   7.630  0.1782  0.1180 -0.5023
 5070SOL     OW20277   7.043   8.132   8.035 -0.0134  0.3961  0.7910
 5070SOL    HW120278   7.098   8.072   7.984 -1.2944  0.0265 -0.2389
 5070SOL    HW220279   6.984   8.075   8.084 -1.1251  0.7602 -0.0570
 5070SOL     MW20280   7.042   8.116   8.034 -0.3354  0.3953  0.5382
 5071SOL     OW20281   6.677   0.511   0.989  0.3358  0.1274  0.0949
 5071SOL    HW120282   6.624   0.527   0.911  0.7576  1.6369  0.0836
 5071SOL    HW220283   6.751   0.459   0.956  0.4413  0.6357 -0.4952
 5071SOL     MW20284   6.680   0.506   0.974  0.4068  0.3989  0.0140
 5072SOL     OW20285   5.773   0.116   3.970 -0.0359  0.3339  0.2044
 5072SOL    HW120286   5.690   0.089   4.010 -1.1080  2.1115 -0.7235
 5072SOL    HW220287   5.796   0.197   4.014  1.2958 -0.1997  0.5277
 5072SOL     MW20288   5.765   0.123   3.981 -0.0009  0.5013  0.1230
 5073SOL     OW20289   4.863   0.408   3.935 -0.2470 -0.3849  0.3417
 5073SOL    HW120290   4.924   0.392   4.007 -1.1524  0.7841  1.4257
 5073SOL    HW220291   4.910   0.467   3.877 -0.1914  0.1993  0.9691
 5073SOL     MW20292   4.877   0.414   3.937 -0.3614 -0.1490  0.5720
 5074SOL     OW20293   5.382   1.585   9.479  0.0789 -0.0950  0.0823
 5074SOL    HW120294   5.290   1.567   9.461  0.5532 -0.4093 -2.3808
 5074SOL    HW220295   5.416   1.620   9.397  2.0865  0.3839  1.0519
 5074SOL     MW20296   5.374   1.587   9.466  0.4129 -0.0728 -0.1187
 5075SOL     OW20297   4.030   8.371   2.841  0.6388 -0.2807  0.2613
 5075SOL    HW120298   4.007   8.463   2.852 -1.5666 -0.8689  1.2040
 5075SOL    HW220299   3.953   8.332   2.800  1.6012 -1.7028 -0.2785
 5075SOL     MW20300   4.017   8.378   2.837  0.4715 -0.5513  0.3155
 5076SOL     OW20301   4.979   8.561   5.357 -0.4787  0.5737  0.0799
 5076SOL    HW120302   4.910   8.497   5.376 -0.3940  0.8566  1.4208
 5076SOL    HW220303   5.058   8.524   5.396 -0.0169  0.6213 -0.7763
 5076SOL     MW20304   4.980   8.548   5.365 -0.4052  0.6182  0.1451
 5077SOL     OW20305   6.842   7.976   6.095 -0.0376  0.2496 -0.1245
 5077SOL    HW120306   6.765   7.923   6.116  1.2626 -1.6470  0.0886
 5077SOL    HW220307   6.858   7.959   6.003  0.2354  0.5310 -0.1299
 5077SOL     MW20308   6.833   7.967   6.086  0.1741  0.0322 -0.0965
 5078SOL     OW20309   4.633  -0.026   7.324  0.2242 -0.1719  0.1702
 5078SOL    HW120310   4.583   0.055   7.333 -0.6812 -0.7021  0.0115
 5078SOL    HW220311   4.703  -0.004   7.263 -0.6073  0.2208 -0.6690
 5078SOL     MW20312   4.636  -0.012   7.317 -0.0095 -0.1904  0.0359
 5079SOL     OW20313   4.463   9.864   1.770 -0.0132 -0.3192 -0.2979
 5079SOL    HW120314   4.397   9.893   1.832  0.7224  0.8110 -0.0092
 5079SOL    HW220315   4.539   9.919   1.788  0.9521 -1.4348 -0.7519
 5079SOL     MW20316   4.465   9.875   1.781  0.2157 -0.3173 -0.3201
 5080SOL     OW20317   4.449   8.683   7.064  0.9205 -0.2065 -0.2647
 5080SOL    HW120318   4.383   8.752   7.061  2.2410  1.1766  0.6140
 5080SOL    HW220319   4.418   8.623   7.132 -0.0622 -0.2844 -0.7700
 5080SOL     MW20320   4.436   8.684   7.073  0.9660 -0.0308 -0.2145
 5081SOL     OW20321   8.084  10.010   7.495  0.1473  0.2089 -0.6069
 5081SOL    HW120322   8.044  10.038   7.577  1.5253  0.5386 -0.0227
 5081SOL    HW220323   8.110  10.091   7.451  1.5736 -0.0161 -0.2316
 5081SOL     MW20324   8.082  10.025   7.500  0.5247  0.2230 -0.4778
 5082SOL     OW20325   7.325   8.969   1.808  0.1391 -0.1009 -0.2137
 5082SOL    HW120326   7.242   9.017   1.808  0.1160 -0.1305  0.6198
 5082SOL    HW220327   7.391   9.034   1.831  0.1244 -0.4236  0.7873
 5082SOL     MW20328   7.322   8.984   1.811  0.1340 -0.1483  0.0332
 5083SOL     OW20329   5.309   8.723   3.872 -0.3554  0.3934  0.4655
 5083SOL    HW120330   5.371   8.651   3.856 -1.2832 -0.4167  0.4404
 5083SOL    HW220331   5.329   8.787   3.803 -0.3829 -0.4260 -0.3211
 5083SOL     MW20332   5.320   8.722   3.861 -0.4840  0.1741  0.3563
 5084SOL     OW20333   3.881   9.872   9.224 -0.0638 -0.3138  0.3870
 5084SOL    HW120334   3.844   9.823   9.150 -0.6656 -0.3342  0.6920
 5084SOL    HW220335   3.824   9.948   9.233  0.7257  0.3242  0.0712
 5084SOL     MW20336   3.868   9.876   9.215 -0.0386 -0.2307  0.3856
 5085SOL     OW20337   4.406   9.960   7.883 -0.4611  0.0499 -0.0387
 5085SOL    HW120338   4.375   9.991   7.968 -1.8464  0.7396 -0.7648
 5085SOL    HW220339   4.433   9.870   7.899 -1.7779 -0.2096  0.8889
 5085SOL     MW20340   4.406   9.952   7.897 -0.8248  0.1078 -0.0116
 5086SOL     OW20341   7.204   0.547   1.312 -0.0939  0.3693  0.2709
 5086SOL    HW120342   7.171   0.510   1.230 -1.0639 -0.3488  0.9578
 5086SOL    HW220343   7.174   0.486   1.379  1.4316  0.4853  1.0911
 5086SOL     MW20344   7.195   0.534   1.310 -0.0191  0.2883  0.4737
 5087SOL     OW20345   6.141   9.858   5.498  0.6951  0.2692  0.0064
 5087SOL    HW120346   6.069   9.915   5.472 -0.5497 -1.3632 -0.2878
 5087SOL    HW220347   6.205   9.865   5.428  0.2551  0.7777 -0.3464
 5087SOL     MW20348   6.140   9.866   5.485  0.4683  0.1180 -0.0807
 5088SOL     OW20349   5.982   0.130   6.070 -0.0348 -0.1338  0.2935
 5088SOL    HW120350   5.938   0.129   6.154 -1.4968 -0.7083 -0.4488
 5088SOL    HW220351   6.039   0.207   6.073 -0.7846  0.3937  1.4422
 5088SOL     MW20352   5.984   0.140   6.081 -0.3325 -0.1401  0.3482
 5089SOL     OW20353   7.388   9.801   8.852 -0.2311  0.8470  0.6877
 5089SOL    HW120354   7.393   9.752   8.770 -0.6322 -0.6000  1.4865
 5089SOL    HW220355   7.449   9.873   8.841  0.2492  0.2737 -0.6086
 5089SOL     MW20356   7.397   9.804   8.839 -0.2204  0.5751  0.6207
 5090SOL     OW20357   4.201   9.917   5.359 -0.2495  0.1396 -0.5605
 5090SOL    HW120358   4.129   9.855   5.355 -0.0765  0.0014 -2.1509
 5090SOL    HW220359   4.171   9.985   5.419 -0.2260 -1.6994  1.6730
 5090SOL     MW20360   4.188   9.918   5.366 -0.2231 -0.1265 -0.4740
 5091SOL     OW20361   6.015   9.311   7.492  0.4733 -0.0431  0.1002
 5091SOL    HW120362   5.994   9.390   7.442  0.9584 -0.5669 -0.9789
 5091SOL    HW220363   6.107   9.294   7.472  0.2436 -1.1541 -0.1023
 5091SOL     MW20364   6.025   9.320   7.483  0.5077 -0.2631 -0.0723
 5092SOL     OW20365   7.611   0.885   2.622  0.1539 -0.5731  0.5440
 5092SOL    HW120366   7.624   0.871   2.716  0.6446 -0.0052  0.5697
 5092SOL    HW220367   7.621   0.980   2.611 -0.5346 -0.5541  0.0130
 5092SOL     MW20368   7.614   0.896   2.633  0.1273 -0.4941  0.4760
 5093SOL     OW20369   5.569   9.630   1.401 -0.1862  0.1447 -0.7163
 5093SOL    HW120370   5.635   9.592   1.343  0.0033  0.5114 -0.7475
 5093SOL    HW220371   5.586   9.724   1.397 -0.1112  0.1649  0.0106
 5093SOL     MW20372   5.580   9.638   1.393 -0.1506  0.1968 -0.6227
 5094SOL     OW20373   5.079   0.564   7.335 -0.2284  0.1701  0.2933
 5094SOL    HW120374   4.999   0.512   7.340 -0.1839  0.0070 -0.5223
 5094SOL    HW220375   5.090   0.581   7.242  0.1160  1.0929  0.4924
 5094SOL     MW20376   5.069   0.559   7.323 -0.1761  0.2724  0.2103
 5095SOL     OW20377   6.052   9.488   6.212  0.5014  0.4204 -0.5560
 5095SOL    HW120378   6.011   9.421   6.157  2.0175  0.2039 -1.5021
 5095SOL    HW220379   6.061   9.564   6.154  0.5428  0.7881 -0.0721
 5095SOL     MW20380   6.048   9.490   6.196  0.7110  0.4407 -0.6182
 5096SOL     OW20381   7.209   0.487   3.640 -0.1398  0.0111 -0.4757
 5096SOL    HW120382   7.234   0.405   3.682  0.5874  0.4984  0.0801
 5096SOL    HW220383   7.204   0.466   3.547  0.0573 -0.6576 -0.3400
 5096SOL     MW20384   7.212   0.473   3.633 -0.0154 -0.0133 -0.3826
 5097SOL     OW20385   4.370   8.287   5.084 -0.0917 -0.0951 -0.3613
 5097SOL    HW120386   4.376   8.305   5.178  0.2986 -0.3780 -0.3275
 5097SOL    HW220387   4.367   8.191   5.078  0.2975 -0.0925 -0.6539
 5097SOL     MW20388   4.371   8.276   5.096  0.0132 -0.1328 -0.3961
 5098SOL     OW20389   5.878   1.057   1.446 -0.4600 -0.1864  0.6468
 5098SOL    HW120390   5.805   1.118   1.432  0.1118  0.1733 -0.9951
 5098SOL    HW220391   5.845   0.973   1.415 -0.2309 -0.0451  0.0011
 5098SOL     MW20392   5.864   1.054   1.440 -0.3522 -0.1190  0.3389
 5099SOL     OW20393   3.825   0.041   4.872 -0.7599 -0.0892  0.2461
 5099SOL    HW120394   3.790   0.029   4.784 -0.1960 -0.5465  0.0746
 5099SOL    HW220395   3.841  -0.048   4.903  1.3616  0.1168 -0.1432
 5099SOL     MW20396   3.822   0.027   4.864 -0.3985 -0.1230  0.1706
 5100SOL     OW20397   4.299   9.626   0.103 -0.2845  0.0832  0.3555
 5100SOL    HW120398   4.364   9.563   0.071  0.1950 -0.0747  1.5875
 5100SOL    HW220399   4.295   9.610   0.197 -1.9304  0.2847  0.3351
 5100SOL     MW20400   4.308   9.615   0.111 -0.4415  0.0891  0.5186
 5101SOL     OW20401   6.141   0.206   7.407 -0.4962 -0.1925 -0.2950
 5101SOL    HW120402   6.165   0.279   7.463  0.6391  0.2840 -1.3682
 5101SOL    HW220403   6.045   0.206   7.408 -0.4998  0.2317  1.0690
 5101SOL     MW20404   6.131   0.216   7.415 -0.3439 -0.0713 -0.2559
 5102SOL     OW20405   6.564   0.669   7.711  0.0331 -0.0259  0.6117
 5102SOL    HW120406   6.511   0.652   7.789  0.1391 -1.0096  0.4759
 5102SOL    HW220407   6.507   0.721   7.655 -0.5111 -0.4241  0.7933
 5102SOL     MW20408   6.549   0.674   7.714 -0.0258 -0.2119  0.6178
 5103SOL     OW20409   7.192   1.007   0.730 -0.2457 -0.0483 -0.0879
 5103SOL    HW120410   7.212   1.100   0.736 -0.2619 -0.0660  0.2344
 5103SOL    HW220411   7.117   0.994   0.788 -0.0341 -0.3236  0.1278
 5103SOL     MW20412   7.185   1.018   0.738 -0.2194 -0.0878 -0.0155
 5104SOL     OW20413   7.969   9.663   5.920 -0.0050  0.1210  0.2983
 5104SOL    HW120414   7.965   9.571   5.893 -0.8650  0.2916 -0.2025
 5104SOL    HW220415   8.034   9.702   5.861  1.2686 -0.4017  1.3061
 5104SOL     MW20416   7.977   9.656   5.908  0.0506  0.0736  0.3665
 5105SOL     OW20417   6.024   1.435   6.120  0.1464 -0.2082 -0.1565
 5105SOL    HW120418   6.048   1.527   6.106 -1.1618  0.5454  2.1299
 5105SOL    HW220419   6.105   1.395   6.153  0.1818  0.6487  0.8586
 5105SOL     MW20420   6.038   1.442   6.123 -0.0249  0.0086  0.2878
 5106SOL     OW20421   5.744  10.048   7.912  0.2475 -0.2472 -0.1980
 5106SOL    HW120422   5.761   9.964   7.956 -1.8553 -0.6883 -0.1234
 5106SOL    HW220423   5.770  10.114   7.977 -1.0228 -0.8846  1.0167
 5106SOL     MW20424   5.750  10.046   7.927 -0.2065 -0.3924 -0.0245
 5107SOL     OW20425   7.105   1.017   5.113 -0.0927 -0.4430 -0.0263
 5107SOL    HW120426   7.200   1.005   5.108  0.0469  0.1345  0.9974
 5107SOL    HW220427   7.092   1.066   5.193 -1.0871  1.4011 -1.2455
 5107SOL     MW20428   7.116   1.022   5.123 -0.2078 -0.1171 -0.0526
 5108SOL     OW20429   7.457  10.110   6.456  1.0407  0.0814  0.0110
 5108SOL    HW120430   7.442  10.020   6.428 -0.5375  0.1757  0.4431
 5108SOL    HW220431   7.488  10.155   6.378 -0.4772 -0.3205 -0.8726
 5108SOL     MW20432   7.459  10.104   6.442  0.6240  0.0400 -0.0498
 5109SOL     OW20433   6.378   0.657   7.930 -0.1406  0.1786 -0.2714
 5109SOL    HW120434   6.283   0.659   7.946 -0.3000 -0.7786 -0.9978
 5109SOL    HW220435   6.416   0.696   8.008 -1.0616 -0.9213  0.7634
 5109SOL     MW20436   6.370   0.662   7.943 -0.2860 -0.0983 -0.2299
 5110SOL     OW20437   7.374   0.172   6.641 -0.1299  0.0377  0.4405
 5110SOL    HW120438   7.420   0.114   6.580  1.5310  0.7780  0.9157
 5110SOL    HW220439   7.281   0.162   6.619  0.0721 -2.8463  0.5892
 5110SOL     MW20440   7.368   0.163   6.630  0.1208 -0.2508  0.5245
 5111SOL     OW20441   6.616   8.428   3.538  0.4648 -0.0615  0.2566
 5111SOL    HW120442   6.634   8.375   3.460  1.1631 -0.9255  0.9814
 5111SOL    HW220443   6.687   8.492   3.541  0.1174  0.3456 -0.1295
 5111SOL     MW20444   6.628   8.429   3.528  0.5120 -0.1230  0.3022
 5112SOL     OW20445   4.920   8.598   2.660  0.2655 -0.3454 -0.3253
 5112SOL    HW120446   4.958   8.521   2.703  0.6072  0.5370  1.0232
 5112SOL    HW220447   4.977   8.670   2.687 -1.9710  0.9325  1.3040
 5112SOL     MW20448   4.933   8.597   2.669  0.0105 -0.0547  0.0754
 5113SOL     OW20449   6.280   0.684   4.776 -0.3444  0.2109  0.3686
 5113SOL    HW120450   6.236   0.695   4.860  1.2400  0.8307  1.1630
 5113SOL    HW220451   6.328   0.766   4.763 -0.0245 -0.1402 -0.8206
 5113SOL     MW20452   6.280   0.697   4.786 -0.0881  0.2471  0.3154
 5114SOL     OW20453   6.826   8.910   3.455  0.3042 -0.1650 -0.3667
 5114SOL    HW120454   6.755   8.966   3.487  1.3250  1.4375 -0.8178
 5114SOL    HW220455   6.906   8.947   3.491  1.1136 -0.7083 -1.5151
 5114SOL     MW20456   6.827   8.922   3.464  0.5505 -0.0225 -0.5819
 5115SOL     OW20457   5.604   9.074   8.029 -0.0561 -0.1664  0.0566
 5115SOL    HW120458   5.669   9.057   8.097  0.4191 -1.1832 -0.6297
 5115SOL    HW220459   5.540   9.131   8.071  2.0959  2.2502  0.2775
 5115SOL     MW20460   5.604   9.079   8.044  0.2975  0.0220 -0.0061
 5116SOL     OW20461   5.621   8.351   9.098  0.5524  0.4832 -0.1428
 5116SOL    HW120462   5.635   8.286   9.029  0.0886  0.4552 -0.2132
 5116SOL    HW220463   5.567   8.306   9.163 -0.5224  1.0686 -0.6036
 5116SOL     MW20464   5.616   8.336   9.098  0.3453  0.5582 -0.2143
 5117SOL     OW20465   5.064   9.012   4.121 -0.5032  0.2650  0.3464
 5117SOL    HW120466   5.038   9.048   4.205 -0.6900  0.5690  0.1608
 5117SOL    HW220467   5.105   8.928   4.142 -0.7909  0.2149  0.7172
 5117SOL     MW20468   5.066   9.005   4.135 -0.5670  0.2992  0.3713
 5118SOL     OW20469   7.896   0.325   8.720  0.3785 -0.0935 -0.1406
 5118SOL    HW120470   7.973   0.350   8.770  0.1216 -2.2087  1.4721
 5118SOL    HW220471   7.931   0.278   8.643  0.7168  0.3395 -0.2544
 5118SOL     MW20472   7.911   0.322   8.716  0.3894 -0.3199  0.0611
 5119SOL     OW20473   5.416   1.598   0.171  0.7615 -1.0311  0.1511
 5119SOL    HW120474   5.403   1.659   0.244  0.1493 -1.0779  0.0845
 5119SOL    HW220475   5.494   1.547   0.195  2.1770  0.7304 -0.4471
 5119SOL     MW20476   5.425   1.599   0.184  0.8696 -0.8003  0.0616
 5120SOL     OW20477   7.073   8.339   8.430 -0.2868 -0.0141  0.3487
 5120SOL    HW120478   7.050   8.421   8.387  2.1408  0.4823 -0.1051
 5120SOL    HW220479   7.135   8.297   8.371 -0.7170 -1.7246  1.0572
 5120SOL     MW20480   7.078   8.344   8.416 -0.0180 -0.1775  0.3830
 5121SOL     OW20481   6.116   8.398   6.137 -0.3018 -0.3244  0.3537
 5121SOL    HW120482   6.151   8.457   6.070 -0.7889 -0.2491  0.1593
 5121SOL    HW220483   6.085   8.456   6.206 -0.4948 -0.3631  0.3014
 5121SOL     MW20484   6.116   8.414   6.137 -0.3933 -0.3194  0.3205
 5122SOL     OW20485   4.054   0.998   7.466 -0.4620 -0.3370 -0.6534
 5122SOL    HW120486   4.084   0.967   7.551 -0.5981 -0.6136 -0.7061
 5122SOL    HW220487   4.006   0.924   7.429  0.5272 -0.6113 -1.4430
 5122SOL     MW20488   4.052   0.984   7.473 -0.3472 -0.4111 -0.7667
 5123SOL     OW20489   4.428   0.702   9.649  0.4454 -0.3481  0.3194
 5123SOL    HW120490   4.523   0.687   9.656  0.1902 -1.5570  1.7774
 5123SOL    HW220491   4.397   0.631   9.593  0.3460 -0.2074  0.1972
 5123SOL     MW20492   4.437   0.690   9.643  0.3977 -0.4918  0.4992
 5124SOL     OW20493   6.477   9.091   5.672  0.3765  0.0856 -0.4617
 5124SOL    HW120494   6.506   9.000   5.667 -0.8821 -0.3238 -0.6837
 5124SOL    HW220495   6.423   9.103   5.594 -1.2555  0.3567  0.6524
 5124SOL     MW20496   6.474   9.081   5.661 -0.0125  0.0670 -0.3416
 5125SOL     OW20497   6.082   7.864   1.647 -0.2429  0.4633  0.2574
 5125SOL    HW120498   6.026   7.934   1.679 -0.3198 -0.2408  1.7324
 5125SOL    HW220499   6.023   7.802   1.604 -0.0196  1.9435 -2.3974
 5125SOL     MW20500   6.067   7.865   1.646 -0.2232  0.5678  0.0986
 5126SOL     OW20501   7.478   9.756   3.910  0.0497 -0.2982  0.0994
 5126SOL    HW120502   7.426   9.736   3.832 -1.3680 -0.6734  1.1029
 5126SOL    HW220503   7.547   9.690   3.911  0.2786 -0.0959 -0.9860
 5126SOL     MW20504   7.481   9.745   3.899 -0.1103 -0.3215  0.0884
 5127SOL     OW20505   7.947   0.417   5.458 -0.6727 -0.2746 -0.8744
 5127SOL    HW120506   7.894   0.488   5.492  0.9393  1.7654 -2.3263
 5127SOL    HW220507   7.944   0.428   5.363  1.0923 -0.9921 -1.0562
 5127SOL     MW20508   7.940   0.428   5.450 -0.2182 -0.0966 -1.0943
 5128SOL     OW20509   5.900  10.059   0.038  0.5956 -0.1550  0.2227
 5128SOL    HW120510   5.979  10.082   0.088 -0.3548  3.0543  0.4818
 5128SOL    HW220511   5.907  10.108  -0.043 -1.3052  0.6300  0.4653
 5128SOL     MW20512   5.911  10.068   0.034  0.2119  0.3825  0.2902
 5129SOL     OW20513   6.765   8.461   4.435 -0.0042  0.3546 -0.0734
 5129SOL    HW120514   6.686   8.511   4.420 -0.6999 -0.4508  0.7660
 5129SOL    HW220515   6.784   8.420   4.350 -1.3856 -0.6852  0.0842
 5129SOL     MW20516   6.757   8.462   4.421 -0.2837  0.1063  0.0608
 5130SOL     OW20517   5.342   0.200   2.406  0.3109  0.5310  0.6447
 5130SOL    HW120518   5.412   0.244   2.453  0.3134  0.7030  0.4776
 5130SOL    HW220519   5.273   0.265   2.398 -0.5822 -0.1262  2.3281
 5130SOL     MW20520   5.342   0.214   2.411  0.1910  0.4657  0.8487
 5131SOL     OW20521   6.390   1.195   7.733 -0.3042  0.0154 -0.2491
 5131SOL    HW120522   6.476   1.155   7.747 -0.5096 -0.2475  0.2980
 5131SOL    HW220523   6.354   1.150   7.656 -0.6204 -1.0151  0.4824
 5131SOL     MW20524   6.397   1.184   7.724 -0.3744 -0.1586 -0.0770
 5132SOL     OW20525   6.068   0.017   0.238 -0.9237  0.4138  0.3763
 5132SOL    HW120526   6.141  -0.024   0.192 -1.7187 -1.3499  0.5835
 5132SOL    HW220527   6.083   0.111   0.229  1.9395  0.1381  1.3461
 5132SOL     MW20528   6.080   0.024   0.230 -0.6453  0.1393  0.5347
 5133SOL     OW20529   5.603   8.222   7.796  0.1209 -0.2757 -0.1778
 5133SOL    HW120530   5.570   8.178   7.718 -1.1196  2.0667 -1.1032
 5133SOL    HW220531   5.525   8.258   7.838  1.0029  0.8425  0.5907
 5133SOL     MW20532   5.588   8.221   7.791  0.0727  0.1900 -0.1989
 5134SOL     OW20533   5.701   7.505   5.482  0.3277 -0.0426  0.5191
 5134SOL    HW120534   5.753   7.501   5.562  0.4870 -1.6839  0.3697
 5134SOL    HW220535   5.612   7.526   5.511  0.1692 -1.6455  1.2473
 5134SOL     MW20536   5.696   7.508   5.497  0.3278 -0.4792  0.5970
 5135SOL     OW20537   5.315   1.041   5.200 -0.0376  0.2637 -0.3872
 5135SOL    HW120538   5.226   1.018   5.172 -0.3152  0.4004  0.3529
 5135SOL    HW220539   5.323   1.134   5.178  0.8463 -0.2995 -2.7661
 5135SOL     MW20540   5.304   1.051   5.193  0.0440  0.2063 -0.6078
 5136SOL     OW20541   5.583   7.928   6.689  0.2478 -0.5652 -0.0318
 5136SOL    HW120542   5.585   7.898   6.598  0.2579 -1.7937  0.3501
 5136SOL    HW220543   5.490   7.937   6.709  0.2448 -0.3288 -0.1513
 5136SOL     MW20544   5.570   7.925   6.680  0.2488 -0.6987  0.0035
 5137SOL     OW20545   5.082   0.787   8.960  0.0513  0.3791  0.4919
 5137SOL    HW120546   5.159   0.744   8.923 -1.0597  0.1311 -1.6632
 5137SOL    HW220547   5.081   0.759   9.052  1.8844 -0.5080  0.2826
 5137SOL     MW20548   5.092   0.777   8.968  0.1485  0.2263  0.1737
 5138SOL     OW20549   7.323  10.047   7.941 -0.1388  0.1480  0.5821
 5138SOL    HW120550   7.275  10.048   8.024 -0.2800  1.1111  0.4964
 5138SOL    HW220551   7.272   9.987   7.885  0.1152 -0.7313  1.2666
 5138SOL     MW20552   7.309  10.039   7.945 -0.1236  0.1593  0.6627
 5139SOL     OW20553   5.124   9.840   0.786 -0.3097  0.4812 -0.0122
 5139SOL    HW120554   5.062   9.808   0.852 -2.2462  0.8746 -1.5292
 5139SOL    HW220555   5.112   9.935   0.786  0.1451  0.5431 -0.4714
 5139SOL     MW20556   5.114   9.848   0.795 -0.5091  0.5425 -0.2782
 5140SOL     OW20557   4.959   8.943   8.114 -0.1508 -0.0267 -0.4688
 5140SOL    HW120558   4.957   8.869   8.174  0.2554  0.7041  0.4535
 5140SOL    HW220559   4.922   9.016   8.163  0.4610  0.6593 -0.9949
 5140SOL     MW20560   4.953   8.943   8.128 -0.0138  0.1640 -0.4154
 5141SOL     OW20561   4.922   9.814   2.834 -0.1384  0.3701  0.2637
 5141SOL    HW120562   4.892   9.853   2.916  1.9548  1.5102  0.5558
 5141SOL    HW220563   4.892   9.874   2.766  0.1465  0.6867  0.4154
 5141SOL     MW20564   4.914   9.827   2.836  0.1816  0.5661  0.3235
 5142SOL     OW20565   5.422   8.813   7.612 -0.2319  0.5652  0.3528
 5142SOL    HW120566   5.357   8.819   7.682  0.0808  1.1542  0.5963
 5142SOL    HW220567   5.458   8.901   7.604  0.0724  0.3946 -0.2292
 5142SOL     MW20568   5.418   8.825   7.620 -0.1489  0.6215  0.3073
 5143SOL     OW20569   7.671   9.459   6.103 -0.3436  0.2812  0.5023
 5143SOL    HW120570   7.685   9.414   6.187  2.0420  0.5429  0.3115
 5143SOL    HW220571   7.696   9.394   6.037  0.3954  0.9231  0.1288
 5143SOL     MW20572   7.677   9.444   6.106  0.0769  0.4028  0.4264
 5144SOL     OW20573   7.081   9.646   9.739 -0.2366 -0.0431 -0.1928
 5144SOL    HW120574   7.096   9.672   9.648  0.2284  2.7355  0.5726
 5144SOL    HW220575   7.156   9.683   9.786 -1.1352 -0.2990  1.4929
 5144SOL     MW20576   7.093   9.655   9.733 -0.2949  0.2964  0.1371
 5145SOL     OW20577   5.765   2.207   6.653 -0.2919  0.5187  0.6676
 5145SOL    HW120578   5.698   2.221   6.585  0.0785  1.2852  0.4469
 5145SOL    HW220579   5.791   2.116   6.642 -0.3581  0.5828 -0.1142
 5145SOL     MW20580   5.759   2.197   6.642 -0.2510  0.6305  0.5327
 5146SOL     OW20581   4.855   9.325   9.022 -0.3839  0.1901  0.0011
 5146SOL    HW120582   4.835   9.358   8.934  1.8982 -1.3313 -1.2121
 5146SOL    HW220583   4.804   9.244   9.029 -1.2135  0.7373  0.4581
 5146SOL     MW20584   4.846   9.319   9.011 -0.1884  0.0590 -0.1007
 5147SOL     OW20585   6.782   7.958   5.803  0.0841 -0.4082 -0.4641
 5147SOL    HW120586   6.696   7.999   5.804  1.0995  1.8754  0.9134
 5147SOL    HW220587   6.819   7.982   5.718 -0.5819 -1.3433 -1.0337
 5147SOL     MW20588   6.775   7.967   5.792  0.1311 -0.2267 -0.3554
 5148SOL     OW20589   7.116   8.815   7.362  0.0706  0.0721 -0.3954
 5148SOL    HW120590   7.106   8.773   7.447 -0.1681 -1.2790 -1.0640
 5148SOL    HW220591   7.043   8.780   7.309 -0.0953  1.2814 -1.0085
 5148SOL     MW20592   7.105   8.805   7.366  0.0161  0.0530 -0.5679
 5149SOL     OW20593   5.886   0.968   6.693 -0.9307  0.1288 -0.0762
 5149SOL    HW120594   5.887   0.951   6.787  1.1502 -0.4673 -0.1625
 5149SOL    HW220595   5.959   1.028   6.678  0.1987 -1.4863 -1.5425
 5149SOL     MW20596   5.896   0.974   6.704 -0.4987 -0.1688 -0.2851
 5150SOL     OW20597   6.812   9.744   5.046 -0.1185 -0.2874  0.0333
 5150SOL    HW120598   6.905   9.720   5.043  0.0497  0.0622  1.5308
 5150SOL    HW220599   6.766   9.661   5.033  0.4315 -0.6908  0.5689
 5150SOL     MW20600   6.819   9.729   5.044 -0.0219 -0.2946  0.3069
 5151SOL     OW20601   7.643   8.898   8.765  0.2370  0.1134  0.3140
 5151SOL    HW120602   7.625   8.949   8.686 -3.2935  0.3648  1.0800
 5151SOL    HW220603   7.615   8.809   8.743 -3.3366  0.6790  1.8520
 5151SOL     MW20604   7.637   8.893   8.751 -0.7190  0.2234  0.6241
 5152SOL     OW20605   6.279   8.063   7.446  0.0818  0.2153 -0.2819
 5152SOL    HW120606   6.251   8.138   7.393 -0.1726  0.1057 -0.3001
 5152SOL    HW220607   6.317   8.002   7.383  0.1809  0.2755 -0.2810
 5152SOL     MW20608   6.281   8.065   7.430  0.0609  0.2086 -0.2843
 5153SOL     OW20609   6.050   7.745   4.583  0.1005 -0.6414  0.3519
 5153SOL    HW120610   6.108   7.728   4.657  1.2555 -0.6849 -0.5393
 5153SOL    HW220611   5.963   7.721   4.615  0.3877  0.4658  2.0721
 5153SOL     MW20612   6.046   7.739   4.597  0.2946 -0.4982  0.4635
 5154SOL     OW20613   7.524   1.211   7.662 -0.3131  0.1428 -0.1771
 5154SOL    HW120614   7.588   1.143   7.682 -1.0025 -0.4130  0.1849
 5154SOL    HW220615   7.492   1.239   7.748 -1.5160 -0.5334 -0.3853
 5154SOL     MW20616   7.528   1.206   7.677 -0.5678 -0.0230 -0.1564
 5155SOL     OW20617   7.021   1.480   0.918  0.5391  0.1864 -0.2042
 5155SOL    HW120618   7.001   1.538   0.845  0.6321  1.9696  1.1308
 5155SOL    HW220619   7.115   1.464   0.911  0.5883  0.5298 -0.3626
 5155SOL     MW20620   7.031   1.486   0.907  0.5583  0.4726 -0.0459
 5156SOL     OW20621   5.407   9.817   5.996  0.4246  0.0588  0.4628
 5156SOL    HW120622   5.496   9.785   6.013 -0.1473 -2.4230 -0.6770
 5156SOL    HW220623   5.417   9.877   5.922  1.0681 -1.0210 -0.3605
 5156SOL     MW20624   5.421   9.820   5.988  0.4343 -0.4205  0.1986
 5157SOL     OW20625   4.989   1.071   1.049 -0.1679 -0.1314 -0.2893
 5157SOL    HW120626   4.988   1.117   0.965 -1.1271 -0.8632 -0.7005
 5157SOL    HW220627   4.902   1.032   1.056 -0.6492  1.1805  1.7631
 5157SOL     MW20628   4.977   1.072   1.039 -0.3618 -0.0533 -0.0685
 5158SOL     OW20629   4.840   1.105   1.434 -0.3082  0.1109 -0.1531
 5158SOL    HW120630   4.882   1.187   1.411  0.5656  0.1261  1.3282
 5158SOL    HW220631   4.762   1.131   1.484  0.0366  0.0489  0.4241
 5158SOL     MW20632   4.835   1.119   1.438 -0.1442  0.1046  0.1239
 5159SOL     OW20633   5.937  10.055   8.839 -0.2686 -0.4122  0.1776
 5159SOL    HW120634   5.845  10.037   8.858 -0.7468  1.3928 -0.2491
 5159SOL    HW220635   5.944  10.151   8.838  2.0743 -0.4479  2.3471
 5159SOL     MW20636   5.926  10.066   8.841 -0.0176 -0.1741  0.4122
 5160SOL     OW20637   6.018  -0.002   1.480  0.8992 -0.7761 -0.0301
 5160SOL    HW120638   5.992  -0.040   1.565 -1.5374  0.9150  0.0956
 5160SOL    HW220639   6.084   0.063   1.502  1.3207 -1.3235  0.3698
 5160SOL     MW20640   6.023   0.001   1.494  0.6280 -0.6222  0.0406
 5161SOL     OW20641   6.806   1.883   1.021 -0.1429  0.4171  0.2471
 5161SOL    HW120642   6.824   1.967   1.064  0.3946  0.1016  0.6500
 5161SOL    HW220643   6.864   1.821   1.065 -0.5339 -0.1662 -0.0541
 5161SOL     MW20644   6.817   1.886   1.033 -0.1232  0.2961  0.2608
 5162SOL     OW20645   5.304   9.293   3.369  0.1608  0.4664  0.4323
 5162SOL    HW120646   5.285   9.303   3.463  0.6632  0.9958  0.4843
 5162SOL    HW220647   5.314   9.199   3.357 -0.6061  0.3282  0.7658
 5162SOL     MW20648   5.303   9.282   3.380  0.1252  0.5190  0.4842
 5163SOL     OW20649   5.519   1.408   2.443  0.0554 -0.5723 -0.9574
 5163SOL    HW120650   5.559   1.445   2.522 -1.7824  0.3694 -0.4109
 5163SOL    HW220651   5.428   1.393   2.468 -0.6264 -0.0275 -2.9679
 5163SOL     MW20652   5.512   1.411   2.457 -0.2837 -0.3722 -1.1544
 5164SOL     OW20653   4.980   8.328   0.556 -0.3465  0.0982  0.1825
 5164SOL    HW120654   4.931   8.252   0.523 -1.0707  0.9746 -0.8372
 5164SOL    HW220655   4.914   8.397   0.564  0.6030  1.1275 -0.6080
 5164SOL     MW20656   4.964   8.327   0.553 -0.3162  0.3547 -0.0611
 5165SOL     OW20657   6.278   0.128   3.706 -0.3602  0.6554 -0.3618
 5165SOL    HW120658   6.274   0.062   3.775 -2.0991  0.6493 -0.4391
 5165SOL    HW220659   6.372   0.147   3.697 -0.0436  0.1945  1.5263
 5165SOL     MW20660   6.290   0.121   3.714 -0.5516  0.5925 -0.1181
 5166SOL     OW20661   5.011   8.694   7.096  0.2370 -0.1417 -0.0104
 5166SOL    HW120662   5.054   8.743   7.166  1.9097 -2.4609  0.7253
 5166SOL    HW220663   5.076   8.692   7.025  0.7913 -2.2900  0.4795
 5166SOL     MW20664   5.026   8.700   7.096  0.5367 -0.7430  0.1545
 5167SOL     OW20665   6.622   8.014   4.776  0.0296 -0.0273 -0.4271
 5167SOL    HW120666   6.667   8.093   4.806  1.0735 -0.7149 -0.1209
 5167SOL    HW220667   6.653   7.945   4.836 -1.6999 -0.4665  0.0108
 5167SOL     MW20668   6.632   8.015   4.788 -0.0627 -0.1790 -0.3270
 5168SOL     OW20669   5.560   1.732   6.827 -0.0582  0.1381  0.6368
 5168SOL    HW120670   5.613   1.665   6.870  1.1128  0.2429 -0.6123
 5168SOL    HW220671   5.502   1.683   6.769  2.2565  0.1872 -1.9264
 5168SOL     MW20672   5.559   1.716   6.825  0.4109  0.1588  0.1237
 5169SOL     OW20673   6.363   9.586   7.007 -0.3096 -0.7004  0.0439
 5169SOL    HW120674   6.276   9.575   7.044 -0.4503 -0.9419 -0.3430
 5169SOL    HW220675   6.375   9.680   6.998 -0.6045 -0.6743 -0.0705
 5169SOL     MW20676   6.353   9.597   7.011 -0.3682 -0.7294 -0.0236
 5170SOL     OW20677   8.278   0.417   6.057  0.0555  0.2120  0.2961
 5170SOL    HW120678   8.214   0.439   6.124 -1.5109 -1.2406 -0.6228
 5170SOL    HW220679   8.356   0.467   6.080 -1.5815  2.5323  1.1487
 5170SOL     MW20680   8.280   0.427   6.069 -0.3756  0.3288  0.2872
 5171SOL     OW20681   5.683   8.542   1.850 -0.0493  0.5189 -0.0544
 5171SOL    HW120682   5.689   8.633   1.877  2.3735  0.3662  0.1639
 5171SOL    HW220683   5.634   8.543   1.768 -0.6455  1.9180  0.3068
 5171SOL     MW20684   5.677   8.554   1.843  0.1965  0.6866  0.0236
 5172SOL     OW20685   7.671   8.531   1.258 -0.1361 -0.0762  0.3590
 5172SOL    HW120686   7.690   8.613   1.213  1.3671 -0.5392  0.1111
 5172SOL    HW220687   7.729   8.467   1.218 -1.1063 -1.2281  0.7198
 5172SOL     MW20688   7.681   8.534   1.247 -0.0644 -0.2935  0.3742
 5173SOL     OW20689   4.681   9.051  10.059 -0.5850 -0.1505 -0.2957
 5173SOL    HW120690   4.754   8.995  10.084  0.9612  1.1413 -1.7237
 5173SOL    HW220691   4.621   9.046  10.134  0.9855 -1.1766  0.9619
 5173SOL     MW20692   4.683   9.043  10.073 -0.1656 -0.1148 -0.3186
 5174SOL     OW20693   3.788   9.316   2.471  0.4160 -0.1596 -0.0237
 5174SOL    HW120694   3.865   9.354   2.513  0.6376 -1.0255  0.3562
 5174SOL    HW220695   3.759   9.248   2.531  1.3808 -2.1790 -1.7512
 5174SOL     MW20696   3.794   9.312   2.485  0.5757 -0.5479 -0.2051
 5175SOL     OW20697   5.956   0.182   8.875  0.1996  0.2992  0.2394
 5175SOL    HW120698   5.981   0.217   8.789 -0.4054 -0.4765 -0.2713
 5175SOL    HW220699   5.880   0.234   8.901 -0.2389 -0.1200 -0.1742
 5175SOL     MW20700   5.949   0.194   8.867  0.0592  0.1384  0.1150
 5176SOL     OW20701   7.920   0.069   4.076  0.3409 -0.4460 -0.4632
 5176SOL    HW120702   7.936   0.152   4.121  1.8151 -0.8237 -0.2349
 5176SOL    HW220703   7.888   0.094   3.989 -1.3512  0.3069  0.3159
 5176SOL     MW20704   7.918   0.084   4.071  0.3115 -0.3955 -0.3276
 5177SOL     OW20705   6.533   9.716   7.444  0.0604  0.0121 -0.1699
 5177SOL    HW120706   6.514   9.672   7.527 -0.5379  0.7144  0.0785
 5177SOL    HW220707   6.544   9.808   7.468 -0.6827  0.3101 -0.9428
 5177SOL     MW20708   6.532   9.722   7.459 -0.1201  0.1467 -0.2405
 5178SOL     OW20709   6.701   0.774   1.036  0.3030  0.3503 -0.2390
 5178SOL    HW120710   6.656   0.796   1.117 -0.8262  2.0313 -1.2735
 5178SOL    HW220711   6.691   0.679   1.028  1.1373  0.0371  1.9545
 5178SOL     MW20712   6.694   0.764   1.045  0.2633  0.5344 -0.0830
 5179SOL     OW20713   5.803   1.538   4.706  0.0571 -0.6670 -0.2035
 5179SOL    HW120714   5.729   1.572   4.757 -0.3601 -1.0463 -0.5521
 5179SOL    HW220715   5.879   1.551   4.763 -0.2891 -0.3673  0.1988
 5179SOL     MW20716   5.804   1.545   4.720 -0.0456 -0.6777 -0.1963
 5180SOL     OW20717   5.487   0.997   8.273 -0.0411  0.3273  0.1025
 5180SOL    HW120718   5.430   0.991   8.350  0.7638 -3.0809  0.5919
 5180SOL    HW220719   5.439   0.950   8.205 -0.0496  1.9690 -1.0766
 5180SOL     MW20720   5.473   0.990   8.274  0.0661  0.0896  0.0097
 5181SOL     OW20721   7.416   8.862   5.163  0.4456  0.3279 -0.4392
 5181SOL    HW120722   7.479   8.878   5.233 -0.2212 -1.2347  0.5529
 5181SOL    HW220723   7.467   8.820   5.094  0.8261  0.6339 -0.3480
 5181SOL     MW20724   7.431   8.859   5.163  0.4071  0.1588 -0.2934
 5182SOL     OW20725   6.301   7.505   7.489 -0.2914 -0.3026  0.3298
 5182SOL    HW120726   6.259   7.585   7.519 -1.8737 -0.3558 -1.5177
 5182SOL    HW220727   6.231   7.440   7.488 -0.0776 -0.5835 -2.1826
 5182SOL     MW20728   6.286   7.507   7.493 -0.4755 -0.3475 -0.2569
 5183SOL     OW20729   6.291   9.531   8.400  0.4322 -0.5381  0.2564
 5183SOL    HW120730   6.373   9.506   8.359 -0.1379 -0.9279 -0.6784
 5183SOL    HW220731   6.245   9.449   8.414 -1.2573 -0.1733 -2.4062
 5183SOL     MW20732   6.296   9.517   8.397  0.1281 -0.5414 -0.2278
 5184SOL     OW20733   4.692   0.553   9.219 -0.2383 -0.5507  0.2163
 5184SOL    HW120734   4.698   0.613   9.144 -2.5636 -0.4600  0.0200
 5184SOL    HW220735   4.709   0.608   9.295 -1.0844  0.1151 -0.0540
 5184SOL     MW20736   4.695   0.569   9.219 -0.6651 -0.4489  0.1535
 5185SOL     OW20737   6.552   9.429   9.187 -0.0419 -0.2278  0.3354
 5185SOL    HW120738   6.545   9.340   9.153  0.1794 -0.0442 -0.2137
 5185SOL    HW220739   6.507   9.482   9.121 -2.0417 -0.1592  1.6932
 5185SOL     MW20740   6.545   9.424   9.173 -0.2813 -0.1939  0.4442
 5186SOL     OW20741   6.200   0.227   4.999 -0.3752  0.0250 -0.0443
 5186SOL    HW120742   6.198   0.202   4.906 -1.6142 -2.5063  0.5675
 5186SOL    HW220743   6.116   0.195   5.034 -0.1878  1.4330  1.8409
 5186SOL     MW20744   6.188   0.219   4.991 -0.5167 -0.1261  0.2917
 5187SOL     OW20745   4.231   9.378   4.542  0.6364 -0.1718 -0.7481
 5187SOL    HW120746   4.222   9.363   4.636  0.0308 -0.2589 -0.8154
 5187SOL    HW220747   4.198   9.467   4.529 -0.0407 -0.4480 -0.9858
 5187SOL     MW20748   4.226   9.388   4.553  0.4638 -0.2207 -0.7892
 5188SOL     OW20749   3.942   9.145   4.904  0.0549 -0.1528 -0.0012
 5188SOL    HW120750   3.912   9.199   4.977  0.5353 -1.5758  1.3148
 5188SOL    HW220751   3.873   9.152   4.838 -0.9304  0.2752  1.0595
 5188SOL     MW20752   3.929   9.153   4.905 -0.0131 -0.2867  0.3187
 5189SOL     OW20753   5.953   8.253   4.637 -0.6879  0.4944  0.0996
 5189SOL    HW120754   6.042   8.220   4.648 -0.7922  0.8418  2.5915
 5189SOL    HW220755   5.897   8.176   4.648 -0.7392  0.5316  0.1026
 5189SOL     MW20756   5.958   8.239   4.640 -0.7088  0.5461  0.4353
 5190SOL     OW20757   7.207   1.595   0.233 -0.2900 -0.8088  0.1717
 5190SOL    HW120758   7.190   1.533   0.162  2.9720 -2.7578  0.8761
 5190SOL    HW220759   7.291   1.634   0.211 -0.7374  0.9448  1.4219
 5190SOL     MW20760   7.216   1.592   0.221  0.0888 -0.8351  0.4348
 5191SOL     OW20761   6.976   9.743   7.095 -0.0764  0.0131  0.5251
 5191SOL    HW120762   6.998   9.833   7.069 -0.6024  0.0504  0.2156
 5191SOL    HW220763   6.999   9.740   7.188 -0.2422  0.5275  0.5861
 5191SOL     MW20764   6.982   9.755   7.104 -0.1695  0.0873  0.4916
 5192SOL     OW20765   6.898   0.739   1.351 -0.1622 -0.1987 -0.3068
 5192SOL    HW120766   6.990   0.714   1.351 -0.1638 -0.2065 -0.6702
 5192SOL    HW220767   6.899   0.834   1.336 -0.2340 -0.2870 -0.8948
 5192SOL     MW20768   6.910   0.749   1.349 -0.1721 -0.2116 -0.4348
 5193SOL     OW20769   6.166   1.627   7.301 -0.3439 -0.5389  0.1658
 5193SOL    HW120770   6.091   1.684   7.285 -0.0657 -0.4986 -1.0481
 5193SOL    HW220771   6.218   1.674   7.366 -0.1145  0.6076 -0.8098
 5193SOL     MW20772   6.163   1.641   7.308 -0.2756 -0.3791 -0.1289
 5194SOL     OW20773   6.299   9.674   4.118 -0.5634  0.0739 -0.2154
 5194SOL    HW120774   6.267   9.661   4.029 -1.8840  2.2112 -0.1314
 5194SOL    HW220775   6.223   9.705   4.167  0.7916  1.8315  0.9096
 5194SOL     MW20776   6.284   9.676   4.113 -0.5588  0.5981 -0.0527
 5195SOL     OW20777   6.611   9.836   8.202  0.2844 -0.4145 -0.1476
 5195SOL    HW120778   6.525   9.803   8.230  0.3559  1.2374  2.3542
 5195SOL    HW220779   6.606   9.931   8.215  1.9706 -0.0950 -1.5269
 5195SOL     MW20780   6.599   9.844   8.207  0.5210 -0.1491  0.0035
 5196SOL     OW20781   4.122   8.988   3.041 -0.7391  0.4768  0.0845
 5196SOL    HW120782   4.114   8.897   3.070 -1.7477  0.5841  0.1735
 5196SOL    HW220783   4.035   9.026   3.056 -0.6169  1.1801 -0.8899
 5196SOL     MW20784   4.109   8.981   3.047 -0.8584  0.5859 -0.0347
 5197SOL     OW20785   6.722   9.641   4.249  0.0293 -0.0264 -0.2762
 5197SOL    HW120786   6.726   9.669   4.157 -0.4601 -1.1239 -0.6635
 5197SOL    HW220787   6.802   9.675   4.288  0.1249  0.6827 -1.0437
 5197SOL     MW20788   6.733   9.649   4.242 -0.0237 -0.0787 -0.4316
 5198SOL     OW20789   5.438   9.082   4.851  0.0659  0.5187  0.5522
 5198SOL    HW120790   5.379   9.042   4.916 -0.9784  2.5616  0.9316
 5198SOL    HW220791   5.404   9.052   4.767  0.2725 -0.6314  0.8618
 5198SOL     MW20792   5.425   9.072   4.849 -0.0469  0.6388  0.6449
 5199SOL     OW20793   6.451   7.828   9.640 -0.2758  0.0293  0.6350
 5199SOL    HW120794   6.521   7.884   9.605 -0.9739  0.7216  0.2953
 5199SOL    HW220795   6.373   7.885   9.639 -0.4861 -0.1541  2.6417
 5199SOL     MW20796   6.450   7.843   9.635 -0.3981  0.0978  0.8593
 5200SOL     OW20797   7.440   8.173   7.376 -0.1467  0.0625 -0.2323
 5200SOL    HW120798   7.421   8.151   7.467  0.3598  1.2616  0.1807
 5200SOL    HW220799   7.482   8.259   7.380 -2.5039  1.4110 -1.7976
 5200SOL     MW20800   7.443   8.181   7.389 -0.3958  0.4053 -0.3874
 5201SOL     OW20801   5.399   1.007   2.611  0.2136 -0.0727  0.0809
 5201SOL    HW120802   5.365   0.919   2.627  0.4589 -0.2656 -0.4498
 5201SOL    HW220803   5.451   0.999   2.531 -1.6587  1.0501 -1.3447
 5201SOL     MW20804   5.401   0.994   2.603 -0.0054  0.0525 -0.1824
 5202SOL     OW20805   6.531   1.645   9.068  0.3623  0.3914 -0.9988
 5202SOL    HW120806   6.496   1.560   9.094 -1.1406  0.6761 -1.9351
 5202SOL    HW220807   6.549   1.690   9.151  1.1399 -0.8088 -0.4974
 5202SOL     MW20808   6.529   1.640   9.083  0.2647  0.2682 -1.0574
 5203SOL     OW20809   5.916   0.780   9.872  0.2783 -0.3843 -0.0126
 5203SOL    HW120810   5.944   0.784   9.963  1.1771  0.0450 -0.2934
 5203SOL    HW220811   5.996   0.758   9.823 -0.1503 -0.4307 -0.7136
 5203SOL     MW20812   5.930   0.777   9.877  0.3416 -0.3328 -0.1447
 5204SOL     OW20813   5.348   9.227   6.643  0.0600  0.2838  0.2621
 5204SOL    HW120814   5.334   9.322   6.641  0.8455  0.4242  1.0463
 5204SOL    HW220815   5.408   9.213   6.716  0.3720 -0.7692 -0.1830
 5204SOL     MW20816   5.354   9.238   6.653  0.2077  0.1610  0.3078
 5205SOL     OW20817   6.387   9.517   5.094  0.4168  0.5964  0.0661
 5205SOL    HW120818   6.394   9.589   5.157  0.8826  0.6651 -0.0554
 5205SOL    HW220819   6.296   9.518   5.066  0.0485  0.1770  1.1942
 5205SOL     MW20820   6.376   9.527   5.099  0.4299  0.5492  0.2016
 5206SOL     OW20821   5.549   0.236   9.547 -0.1785  0.0964  0.1219
 5206SOL    HW120822   5.575   0.240   9.455 -0.2811 -3.4597 -0.2077
 5206SOL    HW220823   5.497   0.314   9.561  0.6375  1.2175 -2.5669
 5206SOL     MW20824   5.546   0.247   9.537 -0.0825 -0.2313 -0.2844
 5207SOL     OW20825   4.752   1.128   8.118 -0.0750  0.0967 -0.2139
 5207SOL    HW120826   4.774   1.054   8.060 -0.0156 -0.1927  0.1705
 5207SOL    HW220827   4.657   1.122   8.129  0.0615 -0.5857  0.6902
 5207SOL     MW20828   4.742   1.117   8.111 -0.0486 -0.0341 -0.0405
 5208SOL     OW20829   5.370   1.027   3.438  0.0309 -0.4607 -0.2456
 5208SOL    HW120830   5.436   1.095   3.426  0.2406 -0.6970 -0.4432
 5208SOL    HW220831   5.419   0.945   3.432 -0.1879 -0.6282  0.1876
 5208SOL     MW20832   5.385   1.025   3.436  0.0297 -0.5150 -0.2139
 5209SOL     OW20833   7.839   9.605   4.809  0.1683 -0.0570  0.4028
 5209SOL    HW120834   7.906   9.636   4.747 -0.0004 -0.4811 -0.0002
 5209SOL    HW220835   7.886   9.548   4.869  0.0998 -0.7199 -0.1540
 5209SOL     MW20836   7.855   9.602   4.808  0.1364 -0.2033  0.2737
 5210SOL     OW20837   7.592   0.758   1.933  0.6526  0.4121  0.0227
 5210SOL    HW120838   7.613   0.682   1.987  3.1686  0.7810 -0.3452
 5210SOL    HW220839   7.607   0.834   1.990 -0.3531  0.7061 -0.0785
 5210SOL     MW20840   7.597   0.758   1.948  0.8559  0.5013 -0.0404
 5211SOL     OW20841   6.994   1.573   6.553  0.5811  0.2909 -0.4833
 5211SOL    HW120842   6.973   1.480   6.543  0.9432  0.0539  0.7456
 5211SOL    HW220843   6.919   1.609   6.601  0.3877  0.6714 -1.0600
 5211SOL     MW20844   6.981   1.565   6.558  0.6038  0.3102 -0.3955
 5212SOL     OW20845   6.162   2.098   6.840  0.1039  0.0842  0.3184
 5212SOL    HW120846   6.240   2.097   6.895  0.6451 -0.6438 -0.4234
 5212SOL    HW220847   6.125   2.010   6.849 -1.1407  0.6872  1.3402
 5212SOL     MW20848   6.168   2.086   6.848  0.0093  0.0673  0.3561
 5213SOL     OW20849   4.633   8.330   4.951 -0.0435 -0.4617 -0.2970
 5213SOL    HW120850   4.667   8.277   4.879  0.9496 -0.3312  0.0650
 5213SOL    HW220851   4.544   8.299   4.964  0.1817 -1.3255 -0.7804
 5213SOL     MW20852   4.626   8.319   4.943  0.1205 -0.5604 -0.3133
 5214SOL     OW20853   5.226   8.076   6.194  0.4935  0.2517  0.1499
 5214SOL    HW120854   5.273   8.159   6.195 -1.3268  1.4449 -2.1999
 5214SOL    HW220855   5.139   8.098   6.229  0.1840 -0.7848  0.0594
 5214SOL     MW20856   5.221   8.090   6.199  0.2069  0.2728 -0.1785
 5215SOL     OW20857   4.013   9.430   3.536  0.1556  0.1880  0.2311
 5215SOL    HW120858   4.050   9.453   3.451  1.0529 -0.4334  0.4360
 5215SOL    HW220859   3.924   9.463   3.533  0.5195  1.1613 -0.5364
 5215SOL     MW20860   4.006   9.438   3.524  0.3253  0.2353  0.1554
 5216SOL     OW20861   5.646   1.466   3.800  0.4326 -0.5829 -0.4265
 5216SOL    HW120862   5.567   1.414   3.805 -0.6982  0.9844 -0.9889
 5216SOL    HW220863   5.638   1.513   3.717  1.1424  0.8225  0.2565
 5216SOL     MW20864   5.634   1.466   3.789  0.3759 -0.1828 -0.4103
 5217SOL     OW20865   7.413   9.903   7.643 -0.3077  0.2244 -0.7574
 5217SOL    HW120866   7.427   9.891   7.549  0.5774  2.4565 -0.9660
 5217SOL    HW220867   7.364   9.985   7.650  0.9305  0.8897  0.7568
 5217SOL     MW20868   7.408   9.912   7.631 -0.0219  0.6143 -0.5817
 5218SOL     OW20869   6.435   1.064   3.486  0.3220 -0.0623 -0.0038
 5218SOL    HW120870   6.451   1.137   3.546  0.6794 -1.4000  1.6045
 5218SOL    HW220871   6.342   1.070   3.465  0.5999  1.5512 -0.8970
 5218SOL     MW20872   6.425   1.074   3.491  0.4075 -0.0252  0.0924
 5219SOL     OW20873   5.210   8.588   4.902 -0.0235  0.0215 -0.1758
 5219SOL    HW120874   5.153   8.550   4.969 -0.6622  0.3838 -0.5038
 5219SOL    HW220875   5.288   8.617   4.950 -0.1191 -0.4533  0.2779
 5219SOL     MW20876   5.213   8.587   4.918 -0.1223  0.0063 -0.1589
 5220SOL     OW20877   3.773   0.342   9.532  0.3671 -0.3482  0.0174
 5220SOL    HW120878   3.839   0.355   9.600  2.3308 -0.6905 -1.7098
 5220SOL    HW220879   3.740   0.430   9.514  0.3096 -0.1760  0.9316
 5220SOL     MW20880   3.778   0.356   9.539  0.6237 -0.3711 -0.0920
 5221SOL     OW20881   5.306   8.439   6.003 -0.4137  0.0429 -0.4296
 5221SOL    HW120882   5.268   8.526   6.005 -1.0058 -0.1837 -1.4253
 5221SOL    HW220883   5.251   8.389   5.942  1.0542 -0.4864 -1.3840
 5221SOL     MW20884   5.294   8.444   5.995 -0.2958 -0.0589 -0.6920
 5222SOL     OW20885   4.488   0.868   9.346 -0.1328  0.0386 -0.3511
 5222SOL    HW120886   4.435   0.923   9.404 -1.1040  0.0227 -1.2072
 5222SOL    HW220887   4.427   0.802   9.313  0.9218 -1.3794  0.3857
 5222SOL     MW20888   4.473   0.866   9.350 -0.1216 -0.1544 -0.3671
 5223SOL     OW20889   4.376   9.216   1.673  0.0152 -0.0993  0.4997
 5223SOL    HW120890   4.467   9.190   1.684  0.7260  0.7802 -2.4410
 5223SOL    HW220891   4.373   9.307   1.701 -0.5859 -0.7875  2.8844
 5223SOL     MW20892   4.388   9.225   1.678  0.0300 -0.0735  0.4249
 5224SOL     OW20893   4.797   8.275   5.147 -0.5989  0.2722 -0.0466
 5224SOL    HW120894   4.730   8.303   5.084 -0.7230  1.7885  0.7152
 5224SOL    HW220895   4.875   8.259   5.094 -1.3568 -0.9050 -0.8680
 5224SOL     MW20896   4.798   8.276   5.132 -0.7176  0.3178 -0.0546
 5225SOL     OW20897   7.570   0.661   6.178  0.2379  0.1871  0.6182
 5225SOL    HW120898   7.537   0.726   6.240 -0.9480 -0.0876  0.2990
 5225SOL    HW220899   7.656   0.636   6.212  0.0227  0.7626  1.6010
 5225SOL     MW20900   7.577   0.666   6.191  0.0493  0.2276  0.7075
 5226SOL     OW20901   3.797   9.873   6.632 -0.2030 -0.1845 -0.8273
 5226SOL    HW120902   3.876   9.926   6.619  0.5298 -0.9071  0.4143
 5226SOL    HW220903   3.780   9.878   6.726 -1.4874 -0.2694 -1.0416
 5226SOL     MW20904   3.806   9.881   6.643 -0.2773 -0.2932 -0.6890
 5227SOL     OW20905   5.396   9.559   9.264 -0.2450  0.2027 -0.1231
 5227SOL    HW120906   5.361   9.480   9.222  0.6204  0.3326 -1.1334
 5227SOL    HW220907   5.363   9.631   9.211  0.5660  0.3908 -0.3796
 5227SOL     MW20908   5.387   9.558   9.252 -0.0194  0.2455 -0.2936
 5228SOL     OW20909   5.698   8.747   1.264 -0.7484 -0.3995 -0.2777
 5228SOL    HW120910   5.625   8.736   1.203  0.2703 -2.4502 -1.2391
 5228SOL    HW220911   5.762   8.800   1.216 -0.2940 -1.3290 -0.7491
 5228SOL     MW20912   5.697   8.753   1.249 -0.5502 -0.8006 -0.4705
 5229SOL     OW20913   6.102  10.121   2.704 -0.8251  0.1885 -0.3662
 5229SOL    HW120914   6.132  10.211   2.710 -0.8677  0.3872 -2.3420
 5229SOL    HW220915   6.023  10.118   2.757 -0.8630  1.3389 -0.3407
 5229SOL     MW20916   6.095  10.133   2.712 -0.8359  0.3701 -0.6287
 5230SOL     OW20917   6.553   8.610   8.498 -0.0216 -0.4180 -0.0743
 5230SOL    HW120918   6.530   8.524   8.465  1.8934 -0.7402 -0.6679
 5230SOL    HW220919   6.474   8.640   8.544 -0.8109 -2.3332 -0.1048
 5230SOL     MW20920   6.539   8.603   8.500  0.1299 -0.7191 -0.1583
 5231SOL     OW20921   6.541   8.796   3.718 -0.0424  0.1060 -1.0744
 5231SOL    HW120922   6.512   8.789   3.810  1.4829  0.1796 -0.5609
 5231SOL    HW220923   6.502   8.720   3.675 -2.0187  0.8760 -0.7377
 5231SOL     MW20924   6.532   8.785   3.725 -0.1031  0.2195 -0.9600
 5232SOL     OW20925   8.086   9.015   1.107  0.2523  0.4236 -0.0354
 5232SOL    HW120926   8.109   9.107   1.119 -0.5239  0.3842  2.1423
 5232SOL    HW220927   8.142   8.967   1.168  0.6497 -0.5769 -1.1387
 5232SOL     MW20928   8.096   9.021   1.117  0.2013  0.2837  0.1092
 5233SOL     OW20929   6.086   8.601   5.264  0.2587 -0.6764 -0.0437
 5233SOL    HW120930   6.018   8.579   5.328  0.1321 -1.2830 -0.3772
 5233SOL    HW220931   6.167   8.570   5.304  0.3079 -0.2116  0.2275
 5233SOL     MW20932   6.088   8.594   5.278  0.2483 -0.6955 -0.0521
 5234SOL     OW20933   4.151   8.316   6.522  0.2241  0.3083  0.1155
 5234SOL    HW120934   4.199   8.236   6.500  1.9098  1.0380  0.9300
 5234SOL    HW220935   4.190   8.383   6.466 -0.9773  0.6233 -0.3591
 5234SOL     MW20936   4.163   8.314   6.512  0.2892  0.4489  0.1613
 5235SOL     OW20937   6.559   1.348   8.597 -0.9981  0.4003  0.4585
 5235SOL    HW120938   6.586   1.260   8.571 -1.2249 -0.6861  3.5061
 5235SOL    HW220939   6.559   1.398   8.516  1.7344 -1.7152 -1.0093
 5235SOL     MW20940   6.563   1.343   8.583 -0.6609 -0.0306  0.6712
 5236SOL     OW20941   6.622   0.157   8.556 -0.2233  0.5589  0.0734
 5236SOL    HW120942   6.649   0.245   8.582 -2.7492  0.6998  2.8149
 5236SOL    HW220943   6.669   0.099   8.616 -0.9780  0.3476  0.4795
 5236SOL     MW20944   6.632   0.161   8.568 -0.6648  0.5494  0.4970
 5237SOL     OW20945   7.681   0.167   1.337  0.9329  0.7733 -0.4717
 5237SOL    HW120946   7.654   0.256   1.314 -0.1059  0.8015  0.7132
 5237SOL    HW220947   7.729   0.136   1.261 -1.4998  1.1722 -2.3014
 5237SOL     MW20948   7.684   0.175   1.324  0.4657  0.8308 -0.5585
 5238SOL     OW20949   5.755   1.099   5.096 -0.7337 -0.0199  0.0241
 5238SOL    HW120950   5.702   1.051   5.034 -0.6479 -1.2376  0.8593
 5238SOL    HW220951   5.752   1.047   5.177 -0.3027  1.1588  0.8420
 5238SOL     MW20952   5.748   1.086   5.099 -0.6641 -0.0251  0.2466
 5239SOL     OW20953   7.118  10.069   1.714 -0.0043  0.3955  0.0819
 5239SOL    HW120954   7.043  10.103   1.665 -0.7784  1.2362  1.7782
 5239SOL    HW220955   7.187  10.134   1.700 -0.5968  1.2631  1.0075
 5239SOL     MW20956   7.117  10.082   1.705 -0.1882  0.6254  0.4348
 5240SOL     OW20957   4.069   0.778   5.315  0.4550 -0.1688  0.2818
 5240SOL    HW120958   4.051   0.754   5.224  0.0263  1.0862  0.0195
 5240SOL    HW220959   4.109   0.699   5.352 -2.2664 -1.8519 -0.0988
 5240SOL     MW20960   4.072   0.764   5.307  0.0311 -0.2264  0.1953
 5241SOL     OW20961   5.342   8.166   4.275  0.9526 -0.3709  0.5165
 5241SOL    HW120962   5.251   8.139   4.262  1.3567 -0.9984 -1.3576
 5241SOL    HW220963   5.340   8.220   4.354 -1.3000  0.8489 -0.2807
 5241SOL     MW20964   5.329   8.169   4.284  0.7038 -0.2912  0.1570
 5242SOL     OW20965   6.673   9.520   4.985 -0.4697  0.4232  0.4959
 5242SOL    HW120966   6.672   9.497   4.892  2.3216  1.6823  0.0333
 5242SOL    HW220967   6.581   9.529   5.009 -1.2697  0.8622 -2.3703
 5242SOL     MW20968   6.661   9.518   4.976 -0.2017  0.6517  0.0479
 5243SOL     OW20969   3.890   9.339   0.767 -0.7438 -0.1280 -0.3260
 5243SOL    HW120970   3.839   9.261   0.743  1.3681 -1.3051 -1.2584
 5243SOL    HW220971   3.981   9.310   0.764  0.0159  1.7316  1.8282
 5243SOL     MW20972   3.895   9.324   0.763 -0.3574 -0.0361 -0.1616
 5244SOL     OW20973   7.880   0.288   4.791 -0.0297  0.3155 -0.0579
 5244SOL    HW120974   7.806   0.308   4.848 -1.8217 -1.2225 -1.7097
 5244SOL    HW220975   7.867   0.197   4.765  1.7224  0.4057 -1.4520
 5244SOL     MW20976   7.868   0.278   4.795 -0.0351  0.1207 -0.4678
 5245SOL     OW20977   5.823   0.084   6.321  0.3693 -0.1065 -0.2568
 5245SOL    HW120978   5.813   0.112   6.412  0.7354 -2.3527  0.5533
 5245SOL    HW220979   5.735   0.088   6.284  0.0592 -0.0207  0.4815
 5245SOL     MW20980   5.810   0.088   6.328  0.3768 -0.3972 -0.0484
 5246SOL     OW20981   6.134   0.199   9.088 -0.5984  0.2354  0.3431
 5246SOL    HW120982   6.131   0.106   9.112 -2.8754 -0.6257 -2.5938
 5246SOL    HW220983   6.064   0.209   9.023 -0.0511  3.9217  0.1047
 5246SOL     MW20984   6.124   0.188   9.082 -0.8312  0.6156 -0.0842
 5247SOL     OW20985   5.834   0.887   1.041 -0.4712  0.0829  0.1563
 5247SOL    HW120986   5.808   0.864   1.131  0.7888  1.3576  0.8851
 5247SOL    HW220987   5.755   0.925   1.003 -0.6743  0.6968  1.1631
 5247SOL     MW20988   5.820   0.889   1.048 -0.3289  0.3371  0.3899
 5248SOL     OW20989   6.349   9.402   5.613 -0.0474  0.0307 -0.0552
 5248SOL    HW120990   6.403   9.419   5.536 -0.5883  0.7216 -0.2929
 5248SOL    HW220991   6.278   9.466   5.607 -1.0199 -1.0048  0.1328
 5248SOL     MW20992   6.346   9.413   5.602 -0.2511 -0.0157 -0.0619
 5249SOL     OW20993   4.045   8.951   5.793  0.0219 -0.0226 -0.1616
 5249SOL    HW120994   4.018   8.946   5.701 -0.8283 -1.2953  0.1238
 5249SOL    HW220995   4.048   9.045   5.812 -0.9191  0.2391 -1.1788
 5249SOL     MW20996   4.042   8.963   5.783 -0.2192 -0.1586 -0.2601
 5250SOL     OW20997   6.050   0.323   9.326 -0.3273 -0.0337  0.4606
 5250SOL    HW120998   6.084   0.300   9.239  0.2314  0.3138  0.5832
 5250SOL    HW220999   5.957   0.341   9.311  0.1871  2.2890 -0.5306
 5250SOL     MW21000   6.042   0.323   9.312 -0.1829  0.3257  0.3437
 5251SOL     OW21001   5.496   0.435   8.031 -0.1277 -0.3477 -0.2350
 5251SOL    HW121002   5.426   0.485   7.988  0.5307 -0.5639 -1.5927
 5251SOL    HW221003   5.527   0.375   7.964 -0.4017 -2.1028  1.1531
 5251SOL     MW21004   5.491   0.434   8.016 -0.0760 -0.6130 -0.2309
 5252SOL     OW21005   5.318   0.351   9.237 -0.1354 -0.4742  0.3604
 5252SOL    HW121006   5.282   0.262   9.240 -0.0249 -0.5694 -0.8834
 5252SOL    HW221007   5.270   0.394   9.166 -1.7768  1.1853  2.2988
 5252SOL     MW21008   5.307   0.345   9.228 -0.3414 -0.2637  0.4539
 5253SOL     OW21009   6.626   1.055   9.944 -0.0141 -0.4718 -0.1199
 5253SOL    HW121010   6.565   1.124   9.917  1.1568  0.8451  0.4719
 5253SOL    HW221011   6.582   1.012  10.018 -0.5081  0.0305 -0.1168
 5253SOL     MW21012   6.611   1.059   9.950  0.0770 -0.2270 -0.0398
 5254SOL     OW21013   5.701   7.978  10.069  0.2821 -0.0024 -0.3951
 5254SOL    HW121014   5.783   7.941  10.033  0.8251 -0.8967  1.6234
 5254SOL    HW221015   5.635   7.911  10.051  0.1126  0.4237 -1.4283
 5254SOL     MW21016   5.703   7.964  10.062  0.3324 -0.0654 -0.2625
 5255SOL     OW21017   7.350   1.065   5.603 -0.5355  0.7253  0.5048
 5255SOL    HW121018   7.303   1.142   5.571 -0.6847  0.0683 -0.9344
 5255SOL    HW221019   7.421   1.053   5.539 -1.7952 -1.5788 -0.5799
 5255SOL     MW21020   7.353   1.074   5.590 -0.7251  0.3268  0.1651
 5256SOL     OW21021   5.550   9.376   4.425 -0.1269 -0.3520  0.4404
 5256SOL    HW121022   5.459   9.361   4.449 -0.0131  0.4743  1.4917
 5256SOL    HW221023   5.591   9.289   4.429 -0.8479 -0.7091  0.0484
 5256SOL     MW21024   5.543   9.362   4.429 -0.2086 -0.2889  0.5291
 5257SOL     OW21025   5.578   8.552   0.414  0.8160  0.1293 -0.7605
 5257SOL    HW121026   5.489   8.532   0.385 -0.2602  2.7934  0.3401
 5257SOL    HW221027   5.616   8.602   0.342 -0.1686  2.6116  0.3142
 5257SOL     MW21028   5.571   8.556   0.400  0.5387  0.8219 -0.4678
 5258SOL     OW21029   6.850   9.058   4.646 -0.1489 -0.4131 -0.3884
 5258SOL    HW121030   6.876   9.122   4.579  1.4883  0.6393  1.1534
 5258SOL    HW221031   6.803   9.110   4.711 -2.6858 -1.6087 -1.1512
 5258SOL     MW21032   6.847   9.074   4.646 -0.2700 -0.4324 -0.2836
 5259SOL     OW21033   4.843   1.530   9.420 -0.0984  0.1342  0.5613
 5259SOL    HW121034   4.875   1.557   9.334 -0.9048  1.6801  0.7010
 5259SOL    HW221035   4.915   1.478   9.457 -0.1550 -1.5006 -1.4384
 5259SOL     MW21036   4.857   1.527   9.413 -0.2146  0.1222  0.3110
 5260SOL     OW21037   5.107   9.988   6.481  0.7690 -0.1307  0.1562
 5260SOL    HW121038   5.141   9.899   6.470  1.0313  0.0611 -0.6850
 5260SOL    HW221039   5.098  10.021   6.391 -3.2219 -0.7384  0.1299
 5260SOL     MW21040   5.110   9.981   6.467  0.2672 -0.1867  0.0394
 5261SOL     OW21041   6.199   0.123   6.377 -0.0853 -0.2493  0.4556
 5261SOL    HW121042   6.287   0.146   6.408  0.1684  1.4540 -1.3561
 5261SOL    HW221043   6.211   0.042   6.328  0.5478  0.1067  0.0023
 5261SOL     MW21044   6.213   0.115   6.375  0.0340  0.0279  0.1507
 5262SOL     OW21045   6.928   1.536   1.979 -0.0885  0.1977 -0.1814
 5262SOL    HW121046   6.907   1.542   1.886  0.4532  0.9971 -0.2580
 5262SOL    HW221047   6.845   1.556   2.023 -0.5120 -0.8284 -0.4753
 5262SOL     MW21048   6.914   1.539   1.972 -0.0726  0.1672 -0.2313
 5263SOL     OW21049   6.548   9.004   7.705 -0.2038  0.2096  0.1419
 5263SOL    HW121050   6.636   9.011   7.742  0.7466  1.5454 -2.1702
 5263SOL    HW221051   6.542   8.913   7.675  0.8598  0.4035 -0.7097
 5263SOL     MW21052   6.559   8.992   7.706  0.0673  0.4155 -0.2839
 5264SOL     OW21053   6.195   8.319   7.336 -0.2367 -0.4524  0.2336
 5264SOL    HW121054   6.144   8.278   7.266 -2.3571  1.2726  0.6614
 5264SOL    HW221055   6.133   8.328   7.409  1.3509 -0.3377  1.6408
 5264SOL     MW21056   6.180   8.315   7.337 -0.3084 -0.2048  0.4805
 5265SOL     OW21057   6.254   1.055   8.195 -0.5053 -0.0705  0.5304
 5265SOL    HW121058   6.246   1.063   8.100 -0.3270 -0.6778  0.4589
 5265SOL    HW221059   6.223   0.966   8.214  0.1913 -0.2286  0.9457
 5265SOL     MW21060   6.249   1.044   8.185 -0.3876 -0.1735  0.5767
 5266SOL     OW21061   5.408   0.798   1.131  0.0913 -0.4779  0.3794
 5266SOL    HW121062   5.448   0.807   1.044 -0.2927 -0.6611  0.1810
 5266SOL    HW221063   5.362   0.713   1.128 -0.9732  0.0783  0.3233
 5266SOL     MW21064   5.407   0.788   1.119 -0.1037 -0.4277  0.3451
 5267SOL     OW21065   5.884   1.124   0.379 -0.0994 -0.1195 -0.2004
 5267SOL    HW121066   5.958   1.073   0.346 -0.2267 -0.3837 -0.0821
 5267SOL    HW221067   5.879   1.101   0.472 -0.3737 -0.1549 -0.2245
 5267SOL     MW21068   5.894   1.114   0.387 -0.1535 -0.1598 -0.1877
 5268SOL     OW21069   7.318   9.784   1.318  0.6593 -0.1986  0.3025
 5268SOL    HW121070   7.304   9.825   1.403  1.8478  0.4643  0.1980
 5268SOL    HW221071   7.358   9.853   1.264  0.5636 -0.8157 -0.5781
 5268SOL     MW21072   7.322   9.799   1.322  0.8064 -0.1924  0.1699
 5269SOL     OW21073   6.692   1.100   6.972 -0.0754  0.6329 -0.5758
 5269SOL    HW121074   6.768   1.155   6.990 -0.3734  0.6305  0.8021
 5269SOL    HW221075   6.729   1.018   6.937  0.6209  0.3479  0.7780
 5269SOL     MW21076   6.707   1.096   6.970 -0.0218  0.5942 -0.2082
 5270SOL     OW21077   6.702   8.912   4.465 -0.2475  0.2606 -0.6010
 5270SOL    HW121078   6.747   8.965   4.531 -0.3284 -0.3284 -0.0612
 5270SOL    HW221079   6.630   8.870   4.513  0.7840 -1.6333 -0.5855
 5270SOL     MW21080   6.698   8.913   4.481 -0.1195 -0.0735 -0.5263
 5271SOL     OW21081   5.546   8.396   1.117  0.0977 -0.4480 -0.0187
 5271SOL    HW121082   5.580   8.340   1.048 -0.1242 -0.4166 -0.1560
 5271SOL    HW221083   5.567   8.485   1.089 -0.7072 -0.3831 -0.4543
 5271SOL     MW21084   5.553   8.401   1.104 -0.0405 -0.4350 -0.0958
 5272SOL     OW21085   7.547   9.136   1.836  0.2175 -0.5238  0.6773
 5272SOL    HW121086   7.597   9.054   1.843 -0.2162 -1.0475 -1.5051
 5272SOL    HW221087   7.604   9.202   1.876  1.8959 -1.3992 -0.1311
 5272SOL     MW21088   7.562   9.134   1.843  0.3850 -0.7121  0.2748
 5273SOL     OW21089   3.659   9.527   7.050 -0.4651 -0.3385 -0.7646
 5273SOL    HW121090   3.670   9.620   7.073  1.3621 -0.3623 -1.3322
 5273SOL    HW221091   3.650   9.527   6.955 -2.3554 -0.6408 -0.6139
 5273SOL     MW21092   3.659   9.540   7.040 -0.4736 -0.3824 -0.8207
 5274SOL     OW21093   4.063   9.160   5.491 -0.3990  0.5886  0.1702
 5274SOL    HW121094   4.033   9.069   5.491 -0.5203  0.5721  2.5751
 5274SOL    HW221095   4.147   9.157   5.536  0.1691  1.5383 -0.7848
 5274SOL     MW21096   4.070   9.147   5.497 -0.3389  0.7142  0.3653
 5275SOL     OW21097   6.773   8.272   1.911 -0.3830 -0.0298 -0.2433
 5275SOL    HW121098   6.835   8.330   1.955 -0.1935 -0.2543 -0.2128
 5275SOL    HW221099   6.794   8.184   1.944 -1.2103 -0.0233  0.3431
 5275SOL     MW21100   6.784   8.268   1.921 -0.4688 -0.0591 -0.1603
 5276SOL     OW21101   6.058   8.354   6.429  0.2058  0.4357  0.0826
 5276SOL    HW121102   6.106   8.363   6.511 -0.2710 -3.3682  0.9724
 5276SOL    HW221103   5.966   8.358   6.454 -0.0092  2.1948 -0.7986
 5276SOL     MW21104   6.052   8.356   6.443  0.1127  0.1605  0.0837
 5277SOL     OW21105   8.002   9.742   6.779 -0.0874 -0.0317  0.0478
 5277SOL    HW121106   8.024   9.650   6.790 -0.7740 -0.0451  1.5733
 5277SOL    HW221107   7.909   9.747   6.802 -0.7779  0.6407 -2.5260
 5277SOL     MW21108   7.992   9.730   6.784 -0.2727  0.0570 -0.0933
 5278SOL     OW21109   5.803   7.744   4.190  0.0251  0.0449  0.2288
 5278SOL    HW121110   5.723   7.739   4.243 -0.8384 -0.7452 -1.0773
 5278SOL    HW221111   5.829   7.836   4.194  0.1336 -0.0367  2.1904
 5278SOL     MW21112   5.796   7.756   4.198 -0.0765 -0.0724  0.3171
 5279SOL     OW21113   7.083   8.099   0.016 -0.0336  0.4328 -0.2086
 5279SOL    HW121114   7.154   8.040   0.039 -0.0619  1.2190  2.1248
 5279SOL    HW221115   7.004   8.046   0.028  0.0505  0.2398 -0.5039
 5279SOL     MW21116   7.082   8.084   0.021 -0.0261  0.5127  0.0657
 5280SOL     OW21117   5.944   1.930   1.846 -0.1954 -0.2108 -0.4401
 5280SOL    HW121118   5.969   1.966   1.931 -1.9413  2.8176 -1.0784
 5280SOL    HW221119   6.024   1.934   1.794  0.3424  0.0680  0.3899
 5280SOL     MW21120   5.958   1.935   1.850 -0.3580  0.2343 -0.4143
 5281SOL     OW21121   5.623   0.235   3.046 -0.3342  0.0569 -0.3353
 5281SOL    HW121122   5.550   0.286   3.081  0.3365 -0.1074  1.3732
 5281SOL    HW221123   5.685   0.228   3.118  1.2366 -0.1042 -1.6407
 5281SOL     MW21124   5.621   0.241   3.060 -0.0325  0.0131 -0.2811
 5282SOL     OW21125   7.462   0.445   9.589 -0.2324 -0.2096 -0.1991
 5282SOL    HW121126   7.394   0.485   9.643 -0.5983  0.1116 -0.8807
 5282SOL    HW221127   7.452   0.351   9.605 -1.2954 -0.2169 -0.8018
 5282SOL     MW21128   7.452   0.437   9.598 -0.4247 -0.1674 -0.3719
 5283SOL     OW21129   6.543   1.782   9.301  0.2367 -0.5342  0.6213
 5283SOL    HW121130   6.589   1.706   9.337  1.4417  0.5000  1.3165
 5283SOL    HW221131   6.595   1.857   9.328 -0.9531  0.5610 -0.0234
 5283SOL     MW21132   6.556   1.782   9.310  0.2387 -0.2477  0.6281
 5284SOL     OW21133   6.265   9.919   4.790  0.0922  0.1847  0.3701
 5284SOL    HW121134   6.284  10.004   4.831  2.0648 -0.2074  0.3800
 5284SOL    HW221135   6.176   9.929   4.755  0.8377  2.8442 -1.0918
 5284SOL     MW21136   6.255   9.932   4.791  0.4580  0.4898  0.1747
 5285SOL     OW21137   7.148   8.482   3.249  0.1744  0.1888  0.1367
 5285SOL    HW121138   7.148   8.460   3.342  2.5089 -0.5337  0.0388
 5285SOL    HW221139   7.199   8.563   3.245 -0.9145  0.8571 -0.4137
 5285SOL     MW21140   7.155   8.490   3.261  0.3421  0.1815  0.0494
 5286SOL     OW21141   5.280   8.937   9.079  0.5348 -0.6121 -0.6748
 5286SOL    HW121142   5.322   8.967   9.160  1.0502 -0.2381 -1.0745
 5286SOL    HW221143   5.265   8.844   9.093 -0.6674 -0.2850  0.4011
 5286SOL     MW21144   5.284   8.929   9.092  0.4423 -0.5177 -0.5838
 5287SOL     OW21145   6.545   0.398   9.822  0.4425 -0.0178 -0.0177
 5287SOL    HW121146   6.573   0.321   9.774 -1.6576 -0.8172 -0.0383
 5287SOL    HW221147   6.584   0.472   9.775  1.5348 -0.9770 -0.6604
 5287SOL     MW21148   6.554   0.398   9.809  0.3069 -0.2544 -0.1070
 5288SOL     OW21149   5.320   0.152   8.497 -0.7469  0.1264 -0.1829
 5288SOL    HW121150   5.307   0.209   8.422  1.6204  0.1179 -0.6686
 5288SOL    HW221151   5.249   0.088   8.491 -1.9037  1.4244 -1.1038
 5288SOL     MW21152   5.308   0.151   8.486 -0.5840  0.2999 -0.3722
 5289SOL     OW21153   6.162   0.519   2.488 -0.2364 -0.8687  0.3256
 5289SOL    HW121154   6.193   0.547   2.574  1.5724 -2.4486  0.2574
 5289SOL    HW221155   6.108   0.442   2.507 -0.6000 -0.6730  0.1002
 5289SOL     MW21156   6.159   0.512   2.502 -0.0419 -1.0550  0.2861
 5290SOL     OW21157   6.353   0.501   9.625 -0.3684 -0.6625  0.1615
 5290SOL    HW121158   6.276   0.543   9.664  1.3711  2.9336  0.1138
 5290SOL    HW221159   6.396   0.457   9.699 -0.3116  0.9193  1.1320
 5290SOL     MW21160   6.349   0.501   9.640 -0.1266  0.0343  0.2857
 5291SOL     OW21161   6.216   9.332   6.664 -0.2635  0.1053  0.3843
 5291SOL    HW121162   6.140   9.383   6.691  0.1563  0.6875  0.4921
 5291SOL    HW221163   6.208   9.323   6.569 -0.5200  0.0722  0.4104
 5291SOL     MW21164   6.205   9.337   6.655 -0.2415  0.1792  0.4023
 5292SOL     OW21165   4.268  10.028   6.678 -0.0077 -0.0170 -0.2645
 5292SOL    HW121166   4.301   9.940   6.659 -0.0979 -0.0869 -0.1044
 5292SOL    HW221167   4.333  10.087   6.641  0.1041 -0.1520 -0.2837
 5292SOL     MW21168   4.281  10.024   6.671 -0.0048 -0.0446 -0.2455
 5293SOL     OW21169   3.765   9.498   1.566 -0.2440 -0.1272  0.4361
 5293SOL    HW121170   3.815   9.549   1.503 -0.7622 -0.9758 -0.7008
 5293SOL    HW221171   3.738   9.420   1.518 -0.6453 -0.8153  1.7204
 5293SOL     MW21172   3.768   9.495   1.551 -0.3677 -0.3340  0.4559
 5294SOL     OW21173   6.118   0.402   6.429 -0.0831 -0.0899  0.0746
 5294SOL    HW121174   6.118   0.310   6.403 -0.5821 -0.5780  1.7060
 5294SOL    HW221175   6.025   0.425   6.435  0.0262  0.2137  0.6885
 5294SOL     MW21176   6.105   0.393   6.426 -0.1355 -0.1147  0.3768
 5295SOL     OW21177   7.269   9.745   6.512  0.1996 -0.1648 -0.5860
 5295SOL    HW121178   7.203   9.716   6.574  0.2804  0.8235 -0.0254
 5295SOL    HW221179   7.252   9.694   6.432 -0.3840 -0.8785 -0.0127
 5295SOL     MW21180   7.258   9.734   6.509  0.1319 -0.1279 -0.4334
 5296SOL     OW21181   6.829   0.666   1.641 -0.3608  0.2815 -0.6024
 5296SOL    HW121182   6.774   0.593   1.612 -0.2411  0.8331 -2.3291
 5296SOL    HW221183   6.875   0.694   1.562  1.6858  0.4676  0.5862
 5296SOL     MW21184   6.828   0.660   1.626 -0.0692  0.3808 -0.6749
 5297SOL     OW21185   4.379   1.019   2.655  0.1947  0.4227 -0.0993
 5297SOL    HW121186   4.332   0.946   2.693 -0.4014  0.2785 -1.0970
 5297SOL    HW221187   4.323   1.051   2.585  1.9009 -0.2959 -1.9068
 5297SOL     MW21188   4.365   1.014   2.651  0.3441  0.3066 -0.4769
 5298SOL     OW21189   8.199   0.116   8.722 -0.7885 -0.2620 -0.3321
 5298SOL    HW121190   8.285   0.110   8.680  1.0291 -2.2062  3.2349
 5298SOL    HW221191   8.210   0.183   8.789 -2.1504 -0.3811  0.0314
 5298SOL     MW21192   8.212   0.124   8.725 -0.7271 -0.5397  0.1969
 5299SOL     OW21193   5.511   8.467   1.633  0.6947 -0.1339  0.9804
 5299SOL    HW121194   5.565   8.450   1.556  0.8896 -1.0573  1.3049
 5299SOL    HW221195   5.421   8.455   1.603  0.3681  3.9001 -0.2346
 5299SOL     MW21196   5.506   8.463   1.619  0.6770  0.2848  0.8606
 5300SOL     OW21197   5.188   9.285   9.640  0.3244 -0.0355 -0.4562
 5300SOL    HW121198   5.103   9.289   9.595 -1.1058  0.7014  2.1408
 5300SOL    HW221199   5.197   9.194   9.666 -0.4216  0.1598  0.5445
 5300SOL     MW21200   5.178   9.273   9.637  0.0315  0.0899  0.0280
 5301SOL     OW21201   6.537   9.183   7.026  0.3784 -0.4064 -0.2816
 5301SOL    HW121202   6.570   9.093   7.034  2.2641  0.2915  0.3476
 5301SOL    HW221203   6.545   9.203   6.933  1.2041 -0.4589 -0.2288
 5301SOL     MW21204   6.543   9.173   7.015  0.7433 -0.3196 -0.1898
 5302SOL     OW21205   7.480   9.957   0.126 -0.7933  0.3180 -0.3444
 5302SOL    HW121206   7.523   9.900   0.062 -1.8076 -0.1926 -0.5938
 5302SOL    HW221207   7.440  10.026   0.073  0.5111  1.3481 -0.0373
 5302SOL     MW21208   7.480   9.959   0.110 -0.7542  0.3879 -0.3366
 5303SOL     OW21209   6.177   9.652   9.042 -0.0251  0.1174 -0.2353
 5303SOL    HW121210   6.191   9.683   9.131  0.7453  0.3092 -0.4196
 5303SOL    HW221211   6.172   9.732   8.989  1.1049 -0.0239 -0.5838
 5303SOL     MW21212   6.178   9.667   9.047  0.2307  0.1242 -0.3070
 5304SOL     OW21213   3.739   9.600   6.518  0.6513  0.3201  0.0090
 5304SOL    HW121214   3.785   9.677   6.551 -0.1163  0.2930  1.2411
 5304SOL    HW221215   3.711   9.554   6.597 -0.3902 -0.3077 -0.6973
 5304SOL     MW21216   3.741   9.604   6.533  0.4078  0.2320  0.0797
 5305SOL     OW21217   6.786   8.220   2.241  0.8899 -0.0342 -0.2406
 5305SOL    HW121218   6.696   8.245   2.219  0.8459  0.1893  0.1874
 5305SOL    HW221219   6.782   8.125   2.253  1.0551 -0.2677 -1.8440
 5305SOL     MW21220   6.773   8.211   2.240  0.9062 -0.0355 -0.3988
 5306SOL     OW21221   5.630   7.631   7.094 -0.6121 -0.6826 -0.3108
 5306SOL    HW121222   5.682   7.679   7.029 -0.0029 -1.1386 -0.1694
 5306SOL    HW221223   5.692   7.613   7.165 -0.5443 -2.5758 -0.8066
 5306SOL     MW21224   5.645   7.635   7.095 -0.5210 -0.9987 -0.3585
 5307SOL     OW21225   5.722   0.410   3.497 -0.7191 -0.1826  0.0566
 5307SOL    HW121226   5.781   0.336   3.509  0.1348  0.6810  1.4624
 5307SOL    HW221227   5.776   0.478   3.457 -1.0823  0.1992  0.1999
 5307SOL     MW21228   5.737   0.409   3.493 -0.6531 -0.0150  0.2650
 5308SOL     OW21229   5.257   9.421   2.730 -0.0053 -0.1855  0.1874
 5308SOL    HW121230   5.298   9.468   2.657 -0.6840  1.3263  0.7343
 5308SOL    HW221231   5.176   9.386   2.694 -0.1629  0.2518  0.1119
 5308SOL     MW21232   5.252   9.423   2.716 -0.1178  0.0768  0.2509
 5309SOL     OW21233   4.447   9.812   1.303  0.1955 -0.2619 -0.2234
 5309SOL    HW121234   4.356   9.829   1.327 -0.1175  0.0489 -1.5640
 5309SOL    HW221235   4.444   9.794   1.209  1.4991 -0.4278 -0.2443
 5309SOL     MW21236   4.434   9.812   1.294  0.3288 -0.2424 -0.4066
 5310SOL     OW21237   6.287   0.311   1.305 -0.2983 -0.1922 -0.2331
 5310SOL    HW121238   6.222   0.319   1.236  0.4264  0.8060 -0.8197
 5310SOL    HW221239   6.342   0.389   1.297  0.5957 -0.6934  0.6410
 5310SOL     MW21240   6.286   0.322   1.295 -0.0805 -0.1253 -0.1944
 5311SOL     OW21241   4.539   9.194   9.574 -0.3026 -0.3311 -0.1507
 5311SOL    HW121242   4.621   9.144   9.571 -1.0700 -1.7580  1.1011
 5311SOL    HW221243   4.470   9.128   9.575 -1.4232  0.7945  0.4168
 5311SOL     MW21244   4.541   9.179   9.574 -0.5567 -0.3716  0.0942
 5312SOL     OW21245   4.027   9.252   3.809  0.0798  0.0613  0.5843
 5312SOL    HW121246   4.046   9.340   3.779 -0.5171  0.4232  1.2400
 5312SOL    HW221247   3.933   9.242   3.797  0.0595 -0.2931  0.9990
 5312SOL     MW21248   4.017   9.262   3.803 -0.0032  0.0623  0.7283
 5313SOL     OW21249   5.091   0.082   2.703  0.1089 -0.0185 -0.1132
 5313SOL    HW121250   5.151   0.071   2.777  0.4029 -0.3383 -0.3931
 5313SOL    HW221251   5.140   0.049   2.627 -0.4300 -0.3002 -0.3464
 5313SOL     MW21252   5.106   0.076   2.702  0.0759 -0.0995 -0.1822
 5314SOL     OW21253   5.555   1.762   7.910  0.0924  0.3594  0.6091
 5314SOL    HW121254   5.518   1.749   7.823 -0.4963  2.2470  0.5168
 5314SOL    HW221255   5.479   1.782   7.965  0.4574 -0.8014  1.5697
 5314SOL     MW21256   5.540   1.763   7.906  0.0623  0.4572  0.7259
 5315SOL     OW21257   7.201   9.678   9.484 -0.0710  0.0864  0.0011
 5315SOL    HW121258   7.127   9.659   9.427 -0.3206 -0.1103  0.3884
 5315SOL    HW221259   7.277   9.640   9.438 -0.1288  0.7223 -0.6294
 5315SOL     MW21260   7.202   9.670   9.470 -0.1124  0.1455 -0.0316
 5316SOL     OW21261   6.528   7.903   4.328  0.5515 -0.2752  0.3047
 5316SOL    HW121262   6.511   7.900   4.422  1.0441 -0.8680  0.3869
 5316SOL    HW221263   6.477   7.830   4.292  0.8207 -0.4179  0.2023
 5316SOL     MW21264   6.519   7.893   4.336  0.6540 -0.3742  0.3020
 5317SOL     OW21265   5.146   1.599   4.307 -0.1423  0.3032  0.3987
 5317SOL    HW121266   5.187   1.560   4.230  0.6404  0.8897  0.5050
 5317SOL    HW221267   5.097   1.527   4.348 -0.0708 -0.1537 -0.3057
 5317SOL     MW21268   5.145   1.584   4.302 -0.0273  0.3207  0.3182
 5318SOL     OW21269   7.253  10.109   7.276  0.0922 -0.4417  0.5181
 5318SOL    HW121270   7.308  10.043   7.318 -0.1413 -0.7211  0.3899
 5318SOL    HW221271   7.299  10.128   7.194 -0.5661 -1.5054 -0.1238
 5318SOL     MW21272   7.267  10.103   7.270 -0.0278 -0.6225  0.4145
 5319SOL     OW21273   5.655  10.049   5.278  0.2795  0.4325 -0.3599
 5319SOL    HW121274   5.573  10.083   5.314  0.2854  0.3029 -0.2246
 5319SOL    HW221275   5.715  10.045   5.352  0.6845  1.3503 -0.6185
 5319SOL     MW21276   5.652  10.053   5.293  0.3348  0.5386 -0.3765
 5320SOL     OW21277   6.578  10.043   4.527 -0.1361  0.1854  0.3401
 5320SOL    HW121278   6.559  10.120   4.580  1.4935  0.7130  0.2119
 5320SOL    HW221279   6.598   9.974   4.590 -1.2879 -0.0608  0.4491
 5320SOL     MW21280   6.578  10.044   4.542 -0.0718  0.2233  0.3375
 5321SOL     OW21281   6.063   8.859   3.950 -0.0169  0.3056  0.2290
 5321SOL    HW121282   6.009   8.884   3.876 -0.9920 -1.1856  0.3966
 5321SOL    HW221283   6.115   8.937   3.970 -0.5233  1.0697 -1.3141
 5321SOL     MW21284   6.063   8.873   3.943 -0.2163  0.2078  0.0439
 5322SOL     OW21285   4.202   0.677   0.114 -0.1231 -0.2158 -0.3269
 5322SOL    HW121286   4.210   0.616   0.187 -1.9798  1.5159  1.4535
 5322SOL    HW221287   4.167   0.757   0.153  1.9771  1.9746 -2.5702
 5322SOL     MW21288   4.199   0.680   0.129 -0.0903  0.3120 -0.3892
 5323SOL     OW21289   5.213   0.368   3.562  0.3415 -0.0446 -0.4482
 5323SOL    HW121290   5.276   0.331   3.500  1.4753 -0.6424  1.0134
 5323SOL    HW221291   5.236   0.329   3.646 -0.3432  1.7150  0.6031
 5323SOL     MW21292   5.224   0.358   3.565  0.4019  0.1117 -0.1100
 5324SOL     OW21293   7.237   1.270   0.775 -0.5978  0.1561 -0.0034
 5324SOL    HW121294   7.182   1.320   0.715 -0.7888  0.3697  0.3430
 5324SOL    HW221295   7.287   1.336   0.823  0.8570 -0.0759 -1.1342
 5324SOL     MW21296   7.236   1.285   0.774 -0.4277  0.1537 -0.1089
 5325SOL     OW21297   4.887   9.577   5.078  0.2713  0.0766  0.5719
 5325SOL    HW121298   4.823   9.640   5.111  2.9202  3.0481  0.4801
 5325SOL    HW221299   4.849   9.546   4.996 -1.2420  1.4433  0.6967
 5325SOL     MW21300   4.873   9.581   5.071  0.4241  0.6605  0.5763
 5326SOL     OW21301   7.797   9.246   5.428  0.3145 -0.4497  0.0738
 5326SOL    HW121302   7.888   9.274   5.415  1.6656 -4.0072  0.6349
 5326SOL    HW221303   7.777   9.193   5.351 -0.8202 -0.7665  0.5662
 5326SOL     MW21304   7.807   9.243   5.416  0.3436 -0.9711  0.2156
 5327SOL     OW21305   6.098   7.510   6.408 -0.2703  0.0225  0.2662
 5327SOL    HW121306   6.186   7.488   6.377 -0.8735 -0.5294 -1.1333
 5327SOL    HW221307   6.113   7.558   6.489  1.4302  1.7841 -0.9699
 5327SOL     MW21308   6.112   7.514   6.415 -0.1226  0.1853 -0.0885
 5328SOL     OW21309   6.039   0.515   8.771 -0.0487  0.0225  0.0095
 5328SOL    HW121310   6.082   0.583   8.717 -0.8280  0.0952 -0.5335
 5328SOL    HW221311   6.021   0.444   8.710  1.9110 -1.2706  0.8092
 5328SOL     MW21312   6.043   0.515   8.755  0.1101 -0.1417  0.0441
 5329SOL     OW21313   5.361   8.015   3.235  0.1854  0.0615  0.0122
 5329SOL    HW121314   5.285   7.999   3.179 -1.3627 -0.6105  2.1912
 5329SOL    HW221315   5.379   8.108   3.225 -1.3619  0.3838 -0.0432
 5329SOL     MW21316   5.353   8.025   3.226 -0.2312  0.0144  0.2980
 5330SOL     OW21317   6.729   0.939   0.294 -0.6404 -0.3270  0.2869
 5330SOL    HW121318   6.725   0.861   0.239  0.7235 -0.6229  0.5699
 5330SOL    HW221319   6.773   0.910   0.374 -1.7965  0.2998  1.1878
 5330SOL     MW21320   6.735   0.925   0.297 -0.6124 -0.2825  0.4462
 5331SOL     OW21321   6.896   8.016   9.433  0.1610  0.0416 -0.1405
 5331SOL    HW121322   6.954   8.004   9.508  1.0629  1.4911 -0.5640
 5331SOL    HW221323   6.874   8.109   9.435  0.7694  0.2659 -2.0467
 5331SOL     MW21324   6.901   8.027   9.444  0.3643  0.2669 -0.4540
 5332SOL     OW21325   6.854   1.478  -0.015  0.5123 -0.4111  0.7335
 5332SOL    HW121326   6.948   1.465  -0.002  0.6167 -1.1972 -0.6799
 5332SOL    HW221327   6.819   1.488   0.074  1.6569 -2.1045  1.4239
 5332SOL     MW21328   6.862   1.477  -0.001  0.6804 -0.7448  0.6362
 5333SOL     OW21329   4.752   0.503   7.998 -0.0006  0.4280  0.1215
 5333SOL    HW121330   4.690   0.430   8.005 -0.3757  0.6082 -1.1209
 5333SOL    HW221331   4.697   0.582   8.001  0.3689  0.6722  1.0805
 5333SOL     MW21332   4.736   0.504   8.000 -0.0014  0.4851  0.0834
 5334SOL     OW21333   5.403   1.232   7.895 -0.0188  0.4211 -0.2229
 5334SOL    HW121334   5.435   1.147   7.925 -1.1187 -0.0079 -0.2448
 5334SOL    HW221335   5.408   1.288   7.973 -1.8230 -0.3944  0.5185
 5334SOL     MW21336   5.408   1.228   7.909 -0.4096  0.2536 -0.1261
 5335SOL     OW21337   4.904   7.530   0.579 -0.1560  0.1815 -0.2500
 5335SOL    HW121338   4.923   7.586   0.654 -0.7257 -2.1409  1.7819
 5335SOL    HW221339   4.820   7.489   0.600 -0.2397 -0.7190 -2.0818
 5335SOL     MW21340   4.896   7.532   0.592 -0.2439 -0.2523 -0.2231
 5336SOL     OW21341   4.010   9.012   2.316 -0.1853  0.4275 -0.3278
 5336SOL    HW121342   3.935   9.006   2.257 -0.1501  2.0501 -0.5770
 5336SOL    HW221343   4.063   9.084   2.280 -0.5552  1.9985  2.0871
 5336SOL     MW21344   4.007   9.021   2.303 -0.2303  0.8573 -0.0364
 5337SOL     OW21345   5.697   8.169   3.974  0.0614  0.0118  0.7334
 5337SOL    HW121346   5.630   8.206   3.916  1.0922  0.8445  0.0342
 5337SOL    HW221347   5.712   8.081   3.940  2.9731  1.5281 -2.4716
 5337SOL     MW21348   5.690   8.162   3.961  0.5920  0.3280  0.2079
 5338SOL     OW21349   4.423   8.893   4.921  0.1111 -0.0961 -0.1762
 5338SOL    HW121350   4.481   8.841   4.976  1.4888 -0.9391 -2.2873
 5338SOL    HW221351   4.479   8.962   4.886 -0.8687  0.7510 -0.1191
 5338SOL     MW21352   4.438   8.895   4.924  0.1647 -0.0956 -0.4526
 5339SOL     OW21353   5.275   0.650   3.450 -0.1558 -0.3247  0.1760
 5339SOL    HW121354   5.226   0.569   3.459  1.0386 -1.0683  0.1284
 5339SOL    HW221355   5.235   0.710   3.513 -0.9652 -0.9770  0.2903
 5339SOL     MW21356   5.263   0.647   3.459 -0.1040 -0.5126  0.1850
 5340SOL     OW21357   5.152   8.320   6.774 -0.0432 -0.0165 -0.0901
 5340SOL    HW121358   5.130   8.288   6.862  0.3473 -0.4359 -0.1419
 5340SOL    HW221359   5.089   8.390   6.758 -0.8145 -0.6579  0.0886
 5340SOL     MW21360   5.141   8.325   6.784 -0.0945 -0.1592 -0.0730
 5341SOL     OW21361   7.156   8.679   6.814 -0.3266  0.1402  0.0500
 5341SOL    HW121362   7.152   8.716   6.903 -2.1681  0.3665 -0.0840
 5341SOL    HW221363   7.196   8.749   6.762 -0.5760  0.5903  0.4458
 5341SOL     MW21364   7.161   8.694   6.819 -0.6080  0.2312  0.0852
 5342SOL     OW21365   8.026   0.238   3.621 -0.3303  0.1514  0.2733
 5342SOL    HW121366   8.032   0.334   3.613  1.0875 -0.0240 -1.1456
 5342SOL    HW221367   8.012   0.207   3.532 -2.8537 -0.9051  0.9416
 5342SOL     MW21368   8.025   0.247   3.608 -0.4791 -0.0144  0.1723
 5343SOL     OW21369   6.672   8.434   0.497 -0.1565 -0.3195 -0.0350
 5343SOL    HW121370   6.656   8.521   0.534 -2.2384 -1.2325  1.4646
 5343SOL    HW221371   6.693   8.380   0.573 -1.3450 -1.6116 -0.5946
 5343SOL     MW21372   6.672   8.439   0.512 -0.5966 -0.6163  0.0915
 5344SOL     OW21373   5.872   9.024   4.709 -0.0903  0.1107 -0.2868
 5344SOL    HW121374   5.927   9.075   4.650  0.1074 -0.2194 -0.3850
 5344SOL    HW221375   5.870   8.937   4.671  0.4105 -0.2253  0.4380
 5344SOL     MW21376   5.879   9.019   4.696  0.0037  0.0210 -0.2025
 5345SOL     OW21377   5.255   9.831   8.819  0.0874  0.4293 -0.0798
 5345SOL    HW121378   5.194   9.770   8.778  1.3728  0.1112 -1.6544
 5345SOL    HW221379   5.330   9.833   8.759  0.4347  2.9625  0.3296
 5345SOL     MW21380   5.257   9.823   8.805  0.3072  0.7274 -0.2366
 5346SOL     OW21381   4.726   8.642   8.032 -0.2011  0.8338  0.4695
 5346SOL    HW121382   4.816   8.610   8.034 -0.3995  0.2762  2.2950
 5346SOL    HW221383   4.721   8.706   8.103 -1.7014 -0.5714  1.7117
 5346SOL     MW21384   4.738   8.646   8.041 -0.4297  0.5697  0.8824
 5347SOL     OW21385   7.310   1.279   6.159 -0.6094  0.2682 -0.6053
 5347SOL    HW121386   7.341   1.231   6.082 -0.1934 -1.1969  0.4218
 5347SOL    HW221387   7.377   1.262   6.226 -2.0906 -0.4376  0.7726
 5347SOL     MW21388   7.323   1.270   6.158 -0.7528 -0.0239 -0.2816
 5348SOL     OW21389   5.938   0.261   0.365 -0.0042 -0.2148  0.3717
 5348SOL    HW121390   5.937   0.199   0.438 -1.0092 -0.7627 -0.0786
 5348SOL    HW221391   5.888   0.337   0.398  0.0155 -0.2323  0.4429
 5348SOL     MW21392   5.931   0.263   0.379 -0.1368 -0.2909  0.3206
 5349SOL     OW21393   4.680   9.180   5.661 -0.5984 -0.1569 -0.2963
 5349SOL    HW121394   4.745   9.242   5.627 -2.0424  0.6254 -1.7473
 5349SOL    HW221395   4.654   9.216   5.745 -1.2530  1.1047 -1.0234
 5349SOL     MW21396   4.686   9.193   5.668 -0.8808  0.1181 -0.5894
 5350SOL     OW21397   3.953   9.574   8.639 -0.2493 -0.1651 -0.0581
 5350SOL    HW121398   4.016   9.629   8.592 -1.9761  1.2757 -0.8299
 5350SOL    HW221399   3.946   9.495   8.586  0.2492  0.0432 -0.4472
 5350SOL     MW21400   3.961   9.571   8.626 -0.4146  0.0568 -0.2144
 5351SOL     OW21401   5.677   9.681   8.206  0.0727 -0.0711  0.3180
 5351SOL    HW121402   5.658   9.587   8.215  1.0903 -0.2964  0.2546
 5351SOL    HW221403   5.660   9.717   8.293 -0.6755 -0.2353  0.2518
 5351SOL     MW21404   5.672   9.673   8.219  0.1090 -0.1235  0.3005
 5352SOL     OW21405   5.658   7.866   3.912  0.0281 -0.4295  0.3792
 5352SOL    HW121406   5.676   7.807   3.986  2.6993  2.4118  2.2970
 5352SOL    HW221407   5.735   7.857   3.856 -0.2469  0.1299 -0.0867
 5352SOL     MW21408   5.671   7.857   3.915  0.3506  0.0282  0.5746
 5353SOL     OW21409   6.010   0.096   3.053 -0.0571 -0.2307  0.1965
 5353SOL    HW121410   6.060   0.175   3.034  0.2097 -0.2131  0.9063
 5353SOL    HW221411   6.062   0.051   3.121  0.7146 -1.9142 -1.3968
 5353SOL     MW21412   6.024   0.100   3.060  0.0827 -0.4549  0.0776
 5354SOL     OW21413   7.574   8.433   8.230  0.4963  0.1090  0.1294
 5354SOL    HW121414   7.589   8.413   8.138  0.3365  0.0878  0.1079
 5354SOL    HW221415   7.486   8.472   8.232 -0.4680 -1.9421  0.5513
 5354SOL     MW21416   7.564   8.436   8.218  0.3451 -0.1699  0.1833
 5355SOL     OW21417   6.473   7.721   9.142  0.2093  0.0918 -0.2300
 5355SOL    HW121418   6.433   7.765   9.217  1.7649  0.3379  0.5045
 5355SOL    HW221419   6.530   7.654   9.181 -0.5957 -1.2451 -1.2785
 5355SOL     MW21420   6.476   7.718   9.158  0.3103 -0.0550 -0.2722
 5356SOL     OW21421   8.058   9.930   0.838  0.0264 -0.3371 -0.1029
 5356SOL    HW121422   8.067  10.010   0.787  0.7427 -0.4469 -0.1674
 5356SOL    HW221423   8.137   9.880   0.817 -0.3602 -1.0111  0.0199
 5356SOL     MW21424   8.070   9.934   0.828  0.0708 -0.4426 -0.0951
 5357SOL     OW21425   6.619   0.037   3.041 -0.2272  0.2684 -0.0375
 5357SOL    HW121426   6.649  -0.028   2.979 -1.2727  0.0870 -0.3711
 5357SOL    HW221427   6.692   0.048   3.102  0.6236  0.0895 -0.9949
 5357SOL     MW21428   6.633   0.030   3.041 -0.2534  0.2199 -0.2112
 5358SOL     OW21429   5.919   1.058   4.634  0.1538  0.1227  0.1750
 5358SOL    HW121430   5.829   1.061   4.601  0.5671  0.8014 -0.9351
 5358SOL    HW221431   5.947   0.968   4.620  0.1681  0.2901 -0.9653
 5358SOL     MW21432   5.911   1.046   4.628  0.2114  0.2365 -0.1278
 5359SOL     OW21433   4.136   8.751   8.599 -0.2998 -0.5310  0.0541
 5359SOL    HW121434   4.204   8.684   8.608 -0.0879 -0.2663  0.4443
 5359SOL    HW221435   4.055   8.706   8.623 -0.0728 -0.4867  0.9274
 5359SOL     MW21436   4.135   8.736   8.604 -0.2407 -0.4894  0.2242
 5360SOL     OW21437   5.783   1.363   2.960  0.5558  0.1204 -0.1642
 5360SOL    HW121438   5.833   1.308   3.020 -2.1036 -2.0522  0.2415
 5360SOL    HW221439   5.808   1.332   2.873 -0.8386 -1.7738  0.0590
 5360SOL     MW21440   5.793   1.352   2.956  0.0103 -0.4269 -0.0796
 5361SOL     OW21441   6.160   9.288   0.667 -0.6011  0.4185 -0.2934
 5361SOL    HW121442   6.241   9.245   0.640 -0.4193  0.7686 -0.3040
 5361SOL    HW221443   6.185   9.343   0.741 -0.7971  0.6427 -0.3903
 5361SOL     MW21444   6.174   9.290   0.673 -0.6030  0.4958 -0.3079
 5362SOL     OW21445   7.589   9.679   9.001  0.5860 -0.1243 -0.1297
 5362SOL    HW121446   7.515   9.720   8.957  1.8364  0.7782 -1.4947
 5362SOL    HW221447   7.666   9.718   8.959  1.8361 -1.7274  0.5808
 5362SOL     MW21448   7.590   9.690   8.989  0.9225 -0.2186 -0.2178
 5363SOL     OW21449   6.783   8.813   0.014  0.6425  0.0267  0.0859
 5363SOL    HW121450   6.696   8.832   0.047  2.1496  0.9531  4.1327
 5363SOL    HW221451   6.791   8.867  -0.065 -2.5999 -0.6839 -0.8742
 5363SOL     MW21452   6.773   8.823   0.008  0.4090  0.0558  0.5013
 5364SOL     OW21453   6.918   0.761   2.208  0.2255 -0.0625 -0.0998
 5364SOL    HW121454   6.885   0.806   2.130  1.0909  0.2349 -0.3138
 5364SOL    HW221455   6.880   0.673   2.204 -0.8325  0.3792 -0.1162
 5364SOL     MW21456   6.909   0.755   2.197  0.1996  0.0370 -0.1308
 5365SOL     OW21457   5.242   1.575   6.439  0.5707 -0.2208 -0.1855
 5365SOL    HW121458   5.300   1.634   6.390  1.3451 -1.2361 -0.5138
 5365SOL    HW221459   5.277   1.575   6.528 -0.3384  0.9703  0.2016
 5365SOL     MW21460   5.255   1.583   6.445  0.5526 -0.1971 -0.1775
 5366SOL     OW21461   6.636   1.643   5.097 -0.3131  0.8312  0.3272
 5366SOL    HW121462   6.541   1.644   5.106 -0.3210  0.4302  0.3326
 5366SOL    HW221463   6.652   1.598   5.014 -0.1235  0.6957  0.4349
 5366SOL     MW21464   6.626   1.637   5.087 -0.2887  0.7590  0.3424
 5367SOL     OW21465   6.525   0.152   1.305 -0.0815 -0.4598 -0.3222
 5367SOL    HW121466   6.541   0.121   1.216 -0.7809 -0.5546 -0.4206
 5367SOL    HW221467   6.454   0.216   1.295  0.6400  0.4197  0.0133
 5367SOL     MW21468   6.517   0.156   1.291 -0.0785 -0.3542 -0.2903
 5368SOL     OW21469   6.438   7.813   3.352 -0.4827  0.2817  0.0811
 5368SOL    HW121470   6.353   7.830   3.394  0.0410  0.4706  1.1052
 5368SOL    HW221471   6.463   7.726   3.382  0.1225  0.6133  0.5773
 5368SOL     MW21472   6.430   7.804   3.362 -0.3308  0.3517  0.2857
 5369SOL     OW21473   4.747   8.682   9.351 -0.2727  0.4010  0.1403
 5369SOL    HW121474   4.728   8.633   9.431 -2.2265  1.2287  0.2568
 5369SOL    HW221475   4.841   8.675   9.340 -0.0046 -0.0638  2.2948
 5369SOL     MW21476   4.757   8.674   9.361 -0.4996  0.4499  0.4460
 5370SOL     OW21477   7.435   0.400   6.883  0.0090  0.6625  0.0049
 5370SOL    HW121478   7.343   0.399   6.859  0.0098  2.5809 -0.1990
 5370SOL    HW221479   7.437   0.364   6.972 -0.2971 -3.9469 -1.5580
 5370SOL     MW21480   7.423   0.395   6.892 -0.0321  0.3003 -0.2329
 5371SOL     OW21481   7.683   9.971   5.743 -0.8102 -0.5000 -0.0066
 5371SOL    HW121482   7.700   9.876   5.742  0.8287 -0.2633 -1.9822
 5371SOL    HW221483   7.747  10.006   5.805 -0.9064 -0.6301  0.1641
 5371SOL     MW21484   7.694   9.963   5.751 -0.6026 -0.4857 -0.2495
 5372SOL     OW21485   4.965   0.484   5.661 -0.0469 -0.3631  0.2331
 5372SOL    HW121486   4.882   0.482   5.708  0.3886 -1.1503  1.0132
 5372SOL    HW221487   4.954   0.552   5.594 -0.4613  1.2686  1.8934
 5372SOL     MW21488   4.953   0.493   5.658 -0.0441 -0.2495  0.5615
 5373SOL     OW21489   7.085   1.024   5.968  0.1014  0.1817  0.2044
 5373SOL    HW121490   7.041   0.982   5.895 -0.1882  0.7812  0.0272
 5373SOL    HW221491   7.014   1.047   6.029  0.3112 -0.0717  0.5509
 5373SOL     MW21492   7.069   1.022   5.967  0.0907  0.2283  0.2272
 5374SOL     OW21493   7.505   0.459   2.761 -0.0972 -1.1599  0.2823
 5374SOL    HW121494   7.413   0.435   2.767 -0.8870  1.3892 -0.6443
 5374SOL    HW221495   7.535   0.417   2.680 -0.2259 -2.4783  0.8833
 5374SOL     MW21496   7.497   0.450   2.751 -0.2208 -0.9943  0.2385
 5375SOL     OW21497   5.667  10.151   6.802  0.1136 -0.4154  0.3708
 5375SOL    HW121498   5.653  10.084   6.869 -0.6296 -0.1851  0.4630
 5375SOL    HW221499   5.732  10.113   6.743 -0.0786 -1.1015  0.5886
 5375SOL     MW21500   5.674  10.136   6.803 -0.0123 -0.4767  0.4125
 5376SOL     OW21501   6.460   8.740   3.977 -0.4829 -0.4238  0.0104
 5376SOL    HW121502   6.374   8.699   3.967 -0.1525 -1.1705  0.2152
 5376SOL    HW221503   6.478   8.736   4.071 -0.5571  0.4337  0.0737
 5376SOL     MW21504   6.451   8.734   3.988 -0.4484 -0.4089  0.0465
 5377SOL     OW21505   4.335   8.503   6.401  0.4342 -0.2280 -0.0883
 5377SOL    HW121506   4.423   8.467   6.407  0.5431 -0.1117 -0.9477
 5377SOL    HW221507   4.325   8.552   6.483  1.8922  1.3419 -0.7866
 5377SOL     MW21508   4.345   8.505   6.413  0.6451 -0.0011 -0.2979
 5378SOL     OW21509   5.944   0.297   4.094 -0.5847 -0.5750 -0.1288
 5378SOL    HW121510   6.031   0.305   4.057  0.8999 -1.4168  2.8723
 5378SOL    HW221511   5.925   0.383   4.132 -0.6930 -0.6405 -0.0307
 5378SOL     MW21512   5.953   0.310   4.095 -0.3995 -0.6971  0.2883
 5379SOL     OW21513   7.077   0.379   1.503  0.3902 -0.1523 -0.4958
 5379SOL    HW121514   7.121   0.439   1.563  0.7852 -0.9115 -0.0010
 5379SOL    HW221515   7.126   0.297   1.511 -0.3845 -0.6649 -0.8464
 5379SOL     MW21516   7.090   0.376   1.512  0.3391 -0.3235 -0.4764
 5380SOL     OW21517   7.072   9.241   7.871  0.5024 -0.1108 -0.3251
 5380SOL    HW121518   7.128   9.173   7.833  2.4182  1.7116 -0.9670
 5380SOL    HW221519   7.004   9.255   7.805  1.6936  0.4783 -1.4724
 5380SOL     MW21520   7.070   9.234   7.857  0.9205  0.2138 -0.5659
 5381SOL     OW21521   5.045   1.006   2.704  0.0874 -0.6502 -0.4052
 5381SOL    HW121522   5.062   1.100   2.706  2.2492 -0.9774 -0.2739
 5381SOL    HW221523   5.004   0.987   2.788 -0.3472  0.1555 -0.4239
 5381SOL     MW21524   5.042   1.016   2.715  0.3199 -0.5858 -0.3900
 5382SOL     OW21525   4.903   9.713   4.454 -0.7699  0.6310 -0.5884
 5382SOL    HW121526   4.821   9.733   4.409 -1.9743 -0.7209  0.8609
 5382SOL    HW221527   4.890   9.625   4.490  0.6025  1.0977  1.2398
 5382SOL     MW21528   4.890   9.704   4.453 -0.7473  0.5119 -0.1473
 5383SOL     OW21529   4.596   8.395   6.452 -0.1036  0.3030  0.1808
 5383SOL    HW121530   4.604   8.400   6.547  0.3316 -3.5119  0.5226
 5383SOL    HW221531   4.686   8.402   6.420 -0.1867  0.9892  0.0887
 5383SOL     MW21532   4.609   8.396   6.461 -0.0562 -0.1181  0.2144
 5384SOL     OW21533   7.050   9.500   2.062 -0.3139  0.8652 -0.4719
 5384SOL    HW121534   7.069   9.584   2.021  0.9287  0.2405 -1.2464
 5384SOL    HW221535   7.135   9.456   2.068 -0.8958 -0.2259  0.1732
 5384SOL     MW21536   7.064   9.505   2.057 -0.2250  0.6343 -0.4893
 5385SOL     OW21537   6.372   0.493   3.486  0.1310  0.2577 -0.3258
 5385SOL    HW121538   6.421   0.425   3.441 -1.3381 -0.3670 -1.0299
 5385SOL    HW221539   6.417   0.503   3.570  0.4611 -1.4932 -0.2595
 5385SOL     MW21540   6.385   0.485   3.491 -0.0223 -0.0620 -0.4116
 5386SOL     OW21541   5.831   0.956   8.513 -0.3175 -0.1498  0.7712
 5386SOL    HW121542   5.765   0.893   8.543 -2.2720  1.5636  0.3141
 5386SOL    HW221543   5.818   1.033   8.568 -0.3592  1.0815 -0.8741
 5386SOL     MW21544   5.820   0.958   8.524 -0.5861  0.2465  0.4882
 5387SOL     OW21545   5.241   8.701   5.973  0.5946 -0.6985 -0.2593
 5387SOL    HW121546   5.222   8.753   5.894 -1.0235 -0.8591 -0.0065
 5387SOL    HW221547   5.190   8.744   6.042  1.4125 -1.0074  0.5410
 5387SOL     MW21548   5.231   8.714   5.972  0.4869 -0.7617 -0.1176
 5388SOL     OW21549   4.769   0.544   8.372  0.0526 -0.3448 -0.1855
 5388SOL    HW121550   4.831   0.550   8.444  2.3757 -2.0584 -1.8766
 5388SOL    HW221551   4.752   0.635   8.348  0.3829  0.2113  1.5358
 5388SOL     MW21552   4.775   0.557   8.378  0.4097 -0.5006 -0.1814
 5389SOL     OW21553   5.368   8.453   7.026  0.1161  0.0999  0.2549
 5389SOL    HW121554   5.462   8.457   7.006 -0.0198  0.1402 -0.4000
 5389SOL    HW221555   5.345   8.361   7.014  0.4171 -0.2426  2.0781
 5389SOL     MW21556   5.378   8.441   7.021  0.1384  0.0592  0.4121
 5390SOL     OW21557   4.011  10.059   8.531 -0.0028 -0.8200  0.1090
 5390SOL    HW121558   3.921  10.042   8.502  0.5616 -0.6838 -1.8017
 5390SOL    HW221559   4.009  10.149   8.563  0.2207  0.6169 -3.4984
 5390SOL     MW21560   3.999  10.069   8.532  0.1032 -0.6083 -0.6337
 5391SOL     OW21561   3.969   8.982   4.420 -0.0667  0.0027 -0.2130
 5391SOL    HW121562   3.947   8.897   4.458 -2.2461  0.2813 -0.7351
 5391SOL    HW221563   3.944   8.974   4.328  0.5838  0.9188 -0.4835
 5391SOL     MW21564   3.963   8.969   4.413 -0.2724  0.1635 -0.3197
 5392SOL     OW21565   4.452   8.898   8.809 -0.0189 -0.1960 -0.0317
 5392SOL    HW121566   4.392   8.927   8.878 -0.5842 -1.7283  0.1666
 5392SOL    HW221567   4.441   8.962   8.739 -1.0817  0.1677  0.4456
 5392SOL     MW21568   4.443   8.910   8.809 -0.2380 -0.3533  0.0592
 5393SOL     OW21569   4.805   1.161   9.499  0.5651  0.5865 -0.4056
 5393SOL    HW121570   4.728   1.149   9.555  0.2391  0.0555 -0.9561
 5393SOL    HW221571   4.850   1.077   9.501  1.2608  0.9493  0.0739
 5393SOL     MW21572   4.801   1.148   9.507  0.6148  0.5639 -0.4151
 5394SOL     OW21573   4.065   9.358   2.559 -0.1266 -0.1357 -0.3161
 5394SOL    HW121574   4.048   9.333   2.650 -0.2574 -1.0789 -0.5864
 5394SOL    HW221575   4.104   9.445   2.565 -2.3715  0.8880  0.4980
 5394SOL     MW21576   4.068   9.367   2.572 -0.4463 -0.1249 -0.2429
 5395SOL     OW21577   6.326   1.824   1.946  0.4090 -0.5970  0.2971
 5395SOL    HW121578   6.304   1.732   1.956 -1.5228 -0.1861  0.3414
 5395SOL    HW221579   6.274   1.853   1.871  1.0158  0.4484  0.2514
 5395SOL     MW21580   6.316   1.816   1.937  0.2307 -0.4010  0.2969
 5396SOL     OW21581   7.706   9.789   6.345 -0.2983 -0.4363 -0.0483
 5396SOL    HW121582   7.766   9.741   6.288  0.2071 -0.4560  0.4910
 5396SOL    HW221583   7.723   9.882   6.325  1.4453 -0.3312  1.5596
 5396SOL     MW21584   7.717   9.795   6.335  0.0044 -0.4248  0.2407
 5397SOL     OW21585   4.179   0.677   3.893 -0.4409  0.0413  0.3238
 5397SOL    HW121586   4.142   0.614   3.954 -0.1273 -0.5573 -0.1000
 5397SOL    HW221587   4.246   0.722   3.943  0.9029 -1.5175  0.0127
 5397SOL     MW21588   4.183   0.675   3.908 -0.2178 -0.2490  0.2249
 5398SOL     OW21589   4.811   9.334   8.729  1.0891  0.1595  0.0444
 5398SOL    HW121590   4.715   9.331   8.721  0.8845  0.6259  1.7848
 5398SOL    HW221591   4.841   9.249   8.700  0.1194 -0.0587 -0.3442
 5398SOL     MW21592   4.802   9.322   8.724  0.9311  0.1929  0.2263
 5399SOL     OW21593   6.032   1.106   5.057 -0.4334 -0.0811 -0.1592
 5399SOL    HW121594   5.937   1.097   5.061 -0.7170  1.6405 -1.7369
 5399SOL    HW221595   6.052   1.173   5.122 -0.3419 -0.1610 -0.1048
 5399SOL     MW21596   6.022   1.114   5.067 -0.4593  0.1398 -0.3642
 5400SOL     OW21597   5.240   8.278   0.287  0.2233 -0.6068 -0.1368
 5400SOL    HW121598   5.298   8.203   0.297 -0.1227 -0.7138  1.0993
 5400SOL    HW221599   5.278   8.327   0.213  0.9331 -1.5288 -0.4030
 5400SOL     MW21600   5.253   8.275   0.278  0.2723 -0.7453 -0.0063
 5401SOL     OW21601   6.786   1.162   2.029  0.6636  0.1743 -0.3379
 5401SOL    HW121602   6.815   1.078   1.992  1.5993  0.7126 -0.8674
 5401SOL    HW221603   6.777   1.144   2.122 -1.0239 -1.0115 -0.6884
 5401SOL     MW21604   6.789   1.148   2.036  0.5624  0.0872 -0.4563
 5402SOL     OW21605   4.135   0.387   3.541  0.4558  0.5784  0.0710
 5402SOL    HW121606   4.099   0.407   3.455  1.2914  0.0656 -0.4187
 5402SOL    HW221607   4.212   0.332   3.522  0.5629  0.3363  1.1490
 5402SOL     MW21608   4.141   0.382   3.527  0.5827  0.4768  0.1501
 5403SOL     OW21609   5.726   9.506   5.776  0.1355 -0.0722  0.5695
 5403SOL    HW121610   5.704   9.505   5.869  3.0371 -2.7822  1.4104
 5403SOL    HW221611   5.723   9.414   5.750  2.2821  0.2815 -1.1812
 5403SOL     MW21612   5.723   9.493   5.785  0.8149 -0.3893  0.4471
 5404SOL     OW21613   7.915   8.905   4.529  0.0314 -0.0430  0.3466
 5404SOL    HW121614   7.846   8.885   4.592  0.8493 -2.0593  0.6884
 5404SOL    HW221615   7.949   8.991   4.556 -1.4161  0.3517  0.9841
 5404SOL     MW21616   7.910   8.914   4.541 -0.0534 -0.2613  0.4784
 5405SOL     OW21617   6.850  10.101   0.966  0.3657 -0.2412 -0.2128
 5405SOL    HW121618   6.820  10.045   1.038 -0.4768 -0.4445 -0.7076
 5405SOL    HW221619   6.931  10.061   0.937 -0.5285 -1.5846 -0.9554
 5405SOL     MW21620   6.857  10.088   0.972  0.1320 -0.4494 -0.3793
 5406SOL     OW21621   6.239   0.782   0.146  0.1802  0.8925  0.1023
 5406SOL    HW121622   6.200   0.737   0.070 -0.3539 -0.2309  1.0109
 5406SOL    HW221623   6.274   0.711   0.200  0.4498  1.6713  0.9669
 5406SOL     MW21624   6.239   0.766   0.143  0.1446  0.8462  0.3410
 5407SOL     OW21625   7.033  10.097   2.478 -0.0706 -0.4045  0.2057
 5407SOL    HW121626   7.106  10.116   2.419  0.5261 -0.6662  0.8380
 5407SOL    HW221627   7.003  10.010   2.453 -0.2999 -0.2072 -0.1963
 5407SOL     MW21628   7.039  10.088   2.467 -0.0211 -0.4132  0.2367
 5408SOL     OW21629   5.670   9.175   1.791  0.3419  0.0476 -0.4302
 5408SOL    HW121630   5.704   9.229   1.863  0.1873 -2.5733  1.7942
 5408SOL    HW221631   5.575   9.178   1.803  0.2448  0.4945 -1.2652
 5408SOL     MW21632   5.662   9.183   1.802  0.3080 -0.2450 -0.2432
 5409SOL     OW21633   5.683   8.214   7.386 -0.5005  0.5524  0.1872
 5409SOL    HW121634   5.628   8.290   7.407 -0.1401  0.9753 -0.3762
 5409SOL    HW221635   5.712   8.230   7.296  1.2974  0.8046  0.7776
 5409SOL     MW21636   5.679   8.226   7.377 -0.2100  0.6432  0.1908
 5410SOL     OW21637   5.385   1.228   7.481 -0.6247 -0.5382 -0.2618
 5410SOL    HW121638   5.456   1.215   7.545 -1.4166 -0.0110  0.7580
 5410SOL    HW221639   5.329   1.151   7.493 -1.3705  0.1069  0.4987
 5410SOL     MW21640   5.387   1.216   7.491 -0.8316 -0.3805 -0.0222
 5411SOL     OW21641   7.142   9.753   7.338 -0.5606  0.0885 -0.4298
 5411SOL    HW121642   7.220   9.803   7.312 -1.4354  1.5365 -0.3937
 5411SOL    HW221643   7.105   9.803   7.411 -1.0395 -1.0712  0.1463
 5411SOL     MW21644   7.148   9.767   7.345 -0.7428  0.1273 -0.3474
 5412SOL     OW21645   7.306   9.383   7.986 -0.1463  0.1789 -0.2994
 5412SOL    HW121646   7.226   9.340   7.957 -1.1802  0.4629  1.9328
 5412SOL    HW221647   7.366   9.311   8.007  0.5229 -0.0302 -2.6801
 5412SOL     MW21648   7.303   9.368   7.985 -0.1954  0.1890 -0.3194
 5413SOL     OW21649   5.429   8.174   5.281  0.2438 -0.1762 -0.6605
 5413SOL    HW121650   5.390   8.096   5.242 -0.1247  0.6607 -2.0396
 5413SOL    HW221651   5.447   8.231   5.207  1.4893  0.6334  0.2195
 5413SOL     MW21652   5.426   8.171   5.266  0.3618  0.0454 -0.7277
 5414SOL     OW21653   5.334   1.536   5.757  0.2605 -0.3887  0.0110
 5414SOL    HW121654   5.419   1.505   5.790  0.5880 -0.6946 -1.0763
 5414SOL    HW221655   5.346   1.630   5.743 -0.2664 -0.0050  1.8867
 5414SOL     MW21656   5.347   1.544   5.760  0.2337 -0.3782  0.1171
 5415SOL     OW21657   3.601   0.195   3.808  0.1375  0.2794  0.2082
 5415SOL    HW121658   3.623   0.197   3.714 -0.2034  1.7284  0.1428
 5415SOL    HW221659   3.506   0.207   3.811  0.1348  0.1435  0.7462
 5415SOL     MW21660   3.591   0.197   3.796  0.0913  0.4561  0.2718
 5416SOL     OW21661   5.984   1.992   4.642  0.2447 -0.0383 -0.3019
 5416SOL    HW121662   6.011   1.974   4.732  0.4007  0.0920 -0.3223
 5416SOL    HW221663   5.889   1.997   4.646  0.1878 -0.9250 -0.3011
 5416SOL     MW21664   5.975   1.990   4.655  0.2581 -0.1401 -0.3045
 5417SOL     OW21665   6.436   0.857   4.103 -0.5050 -0.6561  0.0580
 5417SOL    HW121666   6.432   0.786   4.039 -1.0461 -0.1653 -0.4601
 5417SOL    HW221667   6.428   0.937   4.050  1.4150 -0.1385  0.4787
 5417SOL     MW21668   6.435   0.858   4.087 -0.3194 -0.5204  0.0449
 5418SOL     OW21669   6.040   1.414   0.404  0.1611  0.2654 -0.2413
 5418SOL    HW121670   6.062   1.431   0.312 -0.2128 -1.8952 -0.7964
 5418SOL    HW221671   6.000   1.327   0.403  0.3362  0.1040  2.0090
 5418SOL     MW21672   6.038   1.405   0.391  0.1343 -0.0471 -0.0131
 5419SOL     OW21673   6.288   1.146   2.907 -0.1153 -0.3892 -0.0349
 5419SOL    HW121674   6.270   1.177   2.995 -0.4155 -0.3721 -0.1015
 5419SOL    HW221675   6.255   1.215   2.850  0.9882  0.0773 -0.1468
 5419SOL     MW21676   6.281   1.159   2.911 -0.0072 -0.3241 -0.0589
 5420SOL     OW21677   6.172   0.213   1.532  0.1101  0.4783  0.1991
 5420SOL    HW121678   6.224   0.233   1.454 -0.5315  3.1614  0.3287
 5420SOL    HW221679   6.104   0.281   1.533 -0.5230 -0.0917  2.5521
 5420SOL     MW21680   6.170   0.225   1.522 -0.0615  0.7627  0.5332
 5421SOL     OW21681   5.811   0.149   2.199 -0.2242  0.5719  0.3774
 5421SOL    HW121682   5.768   0.065   2.181  0.6540  0.2728 -0.4716
 5421SOL    HW221683   5.811   0.156   2.294 -0.6286 -0.2276  0.4473
 5421SOL     MW21684   5.805   0.138   2.209 -0.1604  0.4240  0.2726
 5422SOL     OW21685   6.190   0.975   9.661  0.3698 -0.1577 -0.1113
 5422SOL    HW121686   6.181   1.067   9.635  2.9984 -0.2173 -1.5106
 5422SOL    HW221687   6.191   0.978   9.757 -1.5558  0.9909 -0.0666
 5422SOL     MW21688   6.189   0.988   9.670  0.4644 -0.0112 -0.2936
 5423SOL     OW21689   5.092   0.393   6.142 -0.3784  0.3814  0.6605
 5423SOL    HW121690   5.122   0.336   6.212  1.0866  0.6923  0.3334
 5423SOL    HW221691   5.004   0.363   6.122 -0.5814 -0.1141  2.1958
 5423SOL     MW21692   5.084   0.381   6.148 -0.2085  0.3566  0.8231
 5424SOL     OW21693   3.595   0.122   2.067 -0.0004 -0.2567 -0.0561
 5424SOL    HW121694   3.608   0.169   1.985  1.0921  0.1074  0.3069
 5424SOL    HW221695   3.597   0.029   2.043  3.2963 -0.2729 -0.1095
 5424SOL     MW21696   3.597   0.116   2.053  0.5903 -0.2099 -0.0144
 5425SOL     OW21697   5.551   9.562   3.926  0.1260 -0.1527 -0.1058
 5425SOL    HW121698   5.517   9.546   3.838  0.5916 -1.0834 -0.1218
 5425SOL    HW221699   5.646   9.564   3.915  0.1652  0.2947  0.2891
 5425SOL     MW21700   5.559   9.560   3.913  0.1939 -0.2177 -0.0548
 5426SOL     OW21701   7.961   9.688   9.909 -0.2427  0.4357  0.3109
 5426SOL    HW121702   7.913   9.673   9.990 -0.1376  0.8254  0.4455
 5426SOL    HW221703   7.970   9.783   9.903 -2.1141  0.5782 -1.2295
 5426SOL     MW21704   7.956   9.699   9.919 -0.4804  0.5073  0.1217
 5427SOL     OW21705   6.624   1.327   5.796 -0.3785 -0.4982 -0.1359
 5427SOL    HW121706   6.717   1.327   5.776  0.2058 -1.5204  2.2768
 5427SOL    HW221707   6.606   1.417   5.824  0.4004 -0.7814  1.3659
 5427SOL     MW21708   6.634   1.339   5.797 -0.1951 -0.6739  0.3909
 5428SOL     OW21709   7.973   9.413   7.359  0.2651  0.8091 -0.2964
 5428SOL    HW121710   7.918   9.375   7.427  1.6982 -0.6193  0.1468
 5428SOL    HW221711   8.019   9.485   7.403 -0.3381  1.2209 -0.3362
 5428SOL     MW21712   7.972   9.418   7.374  0.3768  0.6723 -0.2421
 5429SOL     OW21713   5.838   8.914   4.417  0.0364 -0.4841  0.0656
 5429SOL    HW121714   5.849   8.936   4.324  1.0353  0.9294  0.4788
 5429SOL    HW221715   5.775   8.979   4.449  0.1380 -0.5955  0.4925
 5429SOL     MW21716   5.831   8.926   4.409  0.1845 -0.3089  0.1786
 5430SOL     OW21717   7.054   1.072   0.484 -0.0647  0.0364  0.0083
 5430SOL    HW121718   7.074   1.165   0.475  0.5864 -0.2078 -1.1802
 5430SOL    HW221719   7.093   1.047   0.568 -0.9188  0.9845  0.7236
 5430SOL     MW21720   7.062   1.081   0.494 -0.0920  0.1311 -0.0554
 5431SOL     OW21721   7.155   8.546   5.743  0.3370  0.3999 -0.2812
 5431SOL    HW121722   7.119   8.567   5.656  0.7550 -0.5022 -0.6813
 5431SOL    HW221723   7.245   8.579   5.741  0.0843  1.1397  0.1213
 5431SOL     MW21724   7.162   8.553   5.731  0.3593  0.3780 -0.2808
 5432SOL     OW21725   6.071   9.184   1.406  0.3687 -0.4286  0.2100
 5432SOL    HW121726   6.018   9.128   1.349  2.1580 -1.1462 -0.8453
 5432SOL    HW221727   6.080   9.134   1.487  0.2076 -0.7272  0.0468
 5432SOL     MW21728   6.065   9.170   1.409  0.5878 -0.5653  0.0460
 5433SOL     OW21729   4.232   0.896   9.694 -0.2295 -0.0216  0.0280
 5433SOL    HW121730   4.147   0.859   9.718  0.0607 -0.3317  0.6175
 5433SOL    HW221731   4.290   0.820   9.687  0.3670  0.3005  1.2209
 5433SOL     MW21732   4.228   0.881   9.697 -0.1102 -0.0200  0.2679
 5434SOL     OW21733   7.860   9.639   6.170 -0.5830 -1.0002  0.2052
 5434SOL    HW121734   7.911   9.634   6.088  1.4743 -0.8745  1.3942
 5434SOL    HW221735   7.792   9.573   6.160  0.2137 -1.6612 -1.2309
 5434SOL     MW21736   7.858   9.630   6.158 -0.1989 -1.0722  0.1719
 5435SOL     OW21737   6.826   8.538   9.081 -0.0510  0.7076  0.0169
 5435SOL    HW121738   6.836   8.592   9.159  0.7586 -0.3539  0.6710
 5435SOL    HW221739   6.892   8.571   9.020 -0.3621  1.2201 -0.0489
 5435SOL     MW21740   6.836   8.550   9.083  0.0161  0.6337  0.0961
 5436SOL     OW21741   3.773  10.054   3.505 -0.3388  0.0745  0.4619
 5436SOL    HW121742   3.702   9.997   3.474 -1.2907  1.4498  0.0591
 5436SOL    HW221743   3.842   9.993   3.529 -2.1313 -1.4256  2.2064
 5436SOL     MW21744   3.773  10.038   3.504 -0.7081  0.0577  0.6425
 5437SOL     OW21745   5.906   8.679   8.982  0.3118 -0.6469  0.3154
 5437SOL    HW121746   5.842   8.742   9.016 -0.8415 -0.5588 -1.8693
 5437SOL    HW221747   5.924   8.708   8.893  2.2206 -1.6008  0.3367
 5437SOL     MW21748   5.900   8.691   8.975  0.4135 -0.7635  0.0243
 5438SOL     OW21749   5.866   1.468   8.607  0.4269  0.0462 -0.5332
 5438SOL    HW121750   5.925   1.530   8.563  1.1511  0.7546  1.3356
 5438SOL    HW221751   5.877   1.486   8.700 -0.6256 -1.7698  0.0015
 5438SOL     MW21752   5.875   1.478   8.613  0.3827 -0.1029 -0.2097
 5439SOL     OW21753   6.407   8.602   3.600  0.2223 -0.0916  0.2705
 5439SOL    HW121754   6.455   8.522   3.576 -0.5711 -0.6093  0.3472
 5439SOL    HW221755   6.341   8.572   3.663  1.2748  0.9908  1.9713
 5439SOL     MW21756   6.404   8.587   3.605  0.2571 -0.0156  0.5097
 5440SOL     OW21757   5.536   7.762   5.753 -0.6119 -0.4803 -0.2481
 5440SOL    HW121758   5.490   7.710   5.687  2.0349 -2.0058 -1.0409
 5440SOL    HW221759   5.545   7.703   5.828 -0.6648  0.0799  0.2067
 5440SOL     MW21760   5.531   7.747   5.754 -0.2628 -0.6102 -0.2936
 5441SOL     OW21761   5.902   9.452   5.326  0.3655 -0.0800  0.3272
 5441SOL    HW121762   5.816   9.421   5.299 -0.5717  1.0752  1.8469
 5441SOL    HW221763   5.902   9.545   5.305  1.5137 -0.2016 -0.2705
 5441SOL     MW21764   5.890   9.460   5.320  0.3939  0.0591  0.4513
 5442SOL     OW21765   7.758   9.267   5.901  0.1044 -0.3959  0.1095
 5442SOL    HW121766   7.722   9.247   5.815  1.2458 -1.0643 -0.2331
 5442SOL    HW221767   7.850   9.287   5.885  0.0182  0.8162  1.0178
 5442SOL     MW21768   7.765   9.267   5.888  0.2464 -0.3227  0.1856
 5443SOL     OW21769   4.331   0.260   9.831  0.3053  0.0651  0.1160
 5443SOL    HW121770   4.376   0.245   9.748 -0.4643 -0.9029 -0.1382
 5443SOL    HW221771   4.239   0.241   9.813 -0.1988  1.8105  0.6840
 5443SOL     MW21772   4.325   0.255   9.817  0.1339  0.1697  0.1582
 5444SOL     OW21773   6.295   9.098   5.902 -0.5426 -0.4547  0.3676
 5444SOL    HW121774   6.340   9.082   5.819  0.1562 -0.3934  0.7298
 5444SOL    HW221775   6.337   9.177   5.936 -3.0897  1.5520 -0.8083
 5444SOL     MW21776   6.307   9.107   5.895 -0.7914 -0.1764  0.2581
 5445SOL     OW21777   3.952  10.042   2.481  0.1752  0.0904 -0.8134
 5445SOL    HW121778   3.981  10.085   2.401  0.2251 -0.8258 -1.3011
 5445SOL    HW221779   3.939  10.114   2.544  3.8512  0.5637 -0.3919
 5445SOL     MW21780   3.954  10.058   2.479  0.6766  0.0308 -0.8223
 5446SOL     OW21781   4.579   8.924   0.776  0.1769 -0.0572 -0.4213
 5446SOL    HW121782   4.493   8.904   0.812 -0.4167  1.7155 -0.7795
 5446SOL    HW221783   4.624   8.839   0.774 -1.5994 -1.0472 -0.3854
 5446SOL     MW21784   4.574   8.910   0.781 -0.1420  0.0481 -0.4647
 5447SOL     OW21785   5.591   1.253   1.632  0.3875  0.2909  0.1007
 5447SOL    HW121786   5.534   1.279   1.560  0.5689  1.4107  0.3375
 5447SOL    HW221787   5.636   1.334   1.657  0.8003 -0.2134  1.0461
 5447SOL     MW21788   5.590   1.268   1.626  0.4675  0.3738  0.2598
 5448SOL     OW21789   5.617   1.037   2.788 -0.0504 -0.4718  0.6180
 5448SOL    HW121790   5.682   1.028   2.719 -0.7090 -1.1484  0.0699
 5448SOL    HW221791   5.535   1.051   2.741 -0.3844 -0.1501  1.2882
 5448SOL     MW21792   5.615   1.038   2.772 -0.1840 -0.5196  0.6344
 5449SOL     OW21793   7.341   8.456  -0.007  0.1314  0.0524 -0.3138
 5449SOL    HW121794   7.251   8.427  -0.019  0.7375 -1.9522 -0.3781
 5449SOL    HW221795   7.356   8.448   0.087 -0.4097  2.5943  0.0546
 5449SOL     MW21796   7.331   8.451   0.004  0.1401  0.1247 -0.2729
 5450SOL     OW21797   4.855   0.412   7.395 -0.4878 -0.6067 -0.3658
 5450SOL    HW121798   4.803   0.421   7.315  1.6031 -0.6058 -1.8313
 5450SOL    HW221799   4.828   0.486   7.450 -1.3550 -0.0779 -1.4659
 5450SOL     MW21800   4.845   0.423   7.391 -0.3231 -0.5354 -0.7111
 5451SOL     OW21801   6.690   0.224   7.939  0.0185 -0.6241  0.4243
 5451SOL    HW121802   6.639   0.202   7.861  0.2010 -0.4822  0.2644
 5451SOL    HW221803   6.624   0.251   8.003 -0.0694  0.2539 -0.0068
 5451SOL     MW21804   6.674   0.225   7.937  0.0312 -0.4868  0.3448
 5452SOL     OW21805   4.096   0.571   9.627 -0.2549  0.2117 -0.1732
 5452SOL    HW121806   4.023   0.521   9.665 -0.7555  0.9994 -0.0742
 5452SOL    HW221807   4.160   0.577   9.698 -0.4685  0.2555  0.0178
 5452SOL     MW21808   4.095   0.565   9.642 -0.3510  0.3236 -0.1342
 5453SOL     OW21809   4.608   9.262   5.918  0.4326 -0.0135 -0.2408
 5453SOL    HW121810   4.523   9.218   5.927 -0.1237  0.8586 -1.0489
 5453SOL    HW221811   4.586   9.355   5.919  1.2584  0.2147 -1.5158
 5453SOL     MW21812   4.593   9.268   5.919  0.4689  0.1346 -0.5211
 5454SOL     OW21813   5.705   9.695   7.195 -0.0895 -0.0798 -0.1706
 5454SOL    HW121814   5.626   9.681   7.143  0.2626  0.4540 -0.8558
 5454SOL    HW221815   5.761   9.749   7.140  0.9502 -0.8257  0.1129
 5454SOL     MW21816   5.702   9.700   7.181  0.0978 -0.1084 -0.2246
 5455SOL     OW21817   4.034   0.806   9.261 -0.0676  0.1452  0.5711
 5455SOL    HW121818   3.984   0.731   9.229 -1.5015  0.4515  2.0182
 5455SOL    HW221819   4.048   0.860   9.182 -1.2923 -0.3603 -0.0223
 5455SOL     MW21820   4.029   0.803   9.246 -0.4254  0.1184  0.6860
 5456SOL     OW21821   4.827   8.417   7.082 -0.2337  0.0767 -0.3653
 5456SOL    HW121822   4.738   8.402   7.050 -0.7274  1.5235  0.2483
 5456SOL    HW221823   4.862   8.487   7.028  1.3723 -1.8660 -2.0112
 5456SOL     MW21824   4.820   8.424   7.071 -0.0840  0.0100 -0.5042
 5457SOL     OW21825   4.969   1.097   2.360  0.4797  0.3064 -0.4053
 5457SOL    HW121826   4.921   1.140   2.431 -0.4933  0.6026 -1.2174
 5457SOL    HW221827   5.060   1.119   2.376  0.0930  1.9912 -0.3111
 5457SOL     MW21828   4.975   1.106   2.372  0.2967  0.5730 -0.5019
 5458SOL     OW21829   5.777   1.242   6.421 -0.2226  0.0532  0.0843
 5458SOL    HW121830   5.872   1.240   6.425 -0.1861  1.8806  0.8655
 5458SOL    HW221831   5.757   1.243   6.327  0.5448  0.1726 -0.0805
 5458SOL     MW21832   5.787   1.242   6.409 -0.1144  0.3152  0.1672
 5459SOL     OW21833   4.442   9.232   4.505 -0.1890 -0.1786  0.2191
 5459SOL    HW121834   4.407   9.145   4.485 -1.4086  0.4668 -0.5528
 5459SOL    HW221835   4.366   9.290   4.501  0.5640  0.8972  0.9860
 5459SOL     MW21836   4.427   9.228   4.502 -0.2518  0.0530  0.2184
 5460SOL     OW21837   4.855   0.597   8.865  0.6626 -0.4878  0.0348
 5460SOL    HW121838   4.930   0.627   8.916  3.0774 -1.8940 -2.4091
 5460SOL    HW221839   4.841   0.665   8.800 -0.8793  0.2086  1.0438
 5460SOL     MW21840   4.863   0.610   8.863  0.7801 -0.5833 -0.1583
 5461SOL     OW21841   5.690   1.013   4.278  0.2266  0.5023  0.0151
 5461SOL    HW121842   5.764   1.074   4.276  2.1630 -1.7292  0.3219
 5461SOL    HW221843   5.681   0.988   4.370  1.9947 -2.5137 -0.5303
 5461SOL     MW21844   5.698   1.018   4.290  0.7251 -0.2039 -0.0170
 5462SOL     OW21845   4.248   8.773   3.555  0.0663 -0.2113 -0.1612
 5462SOL    HW121846   4.293   8.841   3.505  0.4922  0.7258  1.4175
 5462SOL    HW221847   4.163   8.764   3.512  0.3912  0.5918 -1.0001
 5462SOL     MW21848   4.242   8.781   3.543  0.1674  0.0229 -0.0616
 5463SOL     OW21849   4.222   9.600   0.388  0.1618  0.3939  0.0709
 5463SOL    HW121850   4.128   9.592   0.403  0.1034 -2.0655 -1.0133
 5463SOL    HW221851   4.262   9.569   0.469 -0.0226 -0.7259 -0.2463
 5463SOL     MW21852   4.215   9.595   0.401  0.1291 -0.0878 -0.1177
 5464SOL     OW21853   4.173   9.501   6.343  0.4595 -0.0674  0.0525
 5464SOL    HW121854   4.081   9.476   6.352  1.1294 -2.9518  0.1097
 5464SOL    HW221855   4.177   9.556   6.265 -1.2563 -0.1787 -0.1373
 5464SOL     MW21856   4.161   9.505   6.334  0.3187 -0.4705  0.0346
 5465SOL     OW21857   6.091   9.825   9.550 -0.1802  0.6308 -0.1643
 5465SOL    HW121858   6.003   9.796   9.573 -0.3884  0.0488 -1.6429
 5465SOL    HW221859   6.114   9.776   9.472  1.5116  0.6950  0.2433
 5465SOL     MW21860   6.082   9.815   9.543  0.0195  0.5611 -0.3084
 5466SOL     OW21861   7.161   9.746   3.261 -0.6328  0.1527 -0.1546
 5466SOL    HW121862   7.105   9.695   3.320  1.7086 -1.8718  0.4963
 5466SOL    HW221863   7.156   9.700   3.177  1.2041 -1.0793  0.3374
 5466SOL     MW21864   7.153   9.733   3.257 -0.0704 -0.2856 -0.0008
 5467SOL     OW21865   5.272   9.351   9.140 -0.2578 -0.2599  0.0585
 5467SOL    HW121866   5.251   9.419   9.077 -1.1764  0.9330  1.5892
 5467SOL    HW221867   5.188   9.331   9.183  0.5595 -0.0470  1.8285
 5467SOL     MW21868   5.258   9.357   9.137 -0.2715 -0.0707  0.5027
 5468SOL     OW21869   7.942   8.591   3.068  0.0517 -0.0427 -0.5375
 5468SOL    HW121870   7.983   8.673   3.094  0.3961 -0.2719 -0.3570
 5468SOL    HW221871   7.901   8.558   3.148 -1.0999  0.5312 -0.8637
 5468SOL     MW21872   7.942   8.598   3.082 -0.0569  0.0037 -0.5571
 5469SOL     OW21873   6.065   0.080   8.015 -0.2482  0.1633 -0.3633
 5469SOL    HW121874   6.066  -0.002   7.965 -2.4323 -0.2253  0.1301
 5469SOL    HW221875   6.134   0.069   8.081  1.4913 -0.0199 -2.1284
 5469SOL     MW21876   6.075   0.067   8.017 -0.3080  0.0863 -0.5344
 5470SOL     OW21877   5.358   7.884   6.027 -0.4746 -0.4850 -0.2108
 5470SOL    HW121878   5.303   7.927   6.092 -1.4160 -0.3845 -1.0418
 5470SOL    HW221879   5.324   7.795   6.022 -1.2500 -0.1437 -1.4475
 5470SOL     MW21880   5.346   7.878   6.035 -0.7056 -0.4256 -0.4891
 5471SOL     OW21881   3.621  10.091   3.980  0.2374  0.2333 -0.1888
 5471SOL    HW121882   3.709  10.055   3.974  0.2695  0.2280  0.2483
 5471SOL    HW221883   3.631  10.184   3.960  0.3868  0.2854  0.1163
 5471SOL     MW21884   3.634  10.099   3.977  0.2618  0.2396 -0.0889
 5472SOL     OW21885   6.819   9.230   7.113  0.1720  0.0894 -0.3545
 5472SOL    HW121886   6.871   9.180   7.050  1.8741  0.1290  0.9326
 5472SOL    HW221887   6.732   9.236   7.073  0.6643 -1.4976 -1.8124
 5472SOL     MW21888   6.814   9.224   7.099  0.4674 -0.1189 -0.3775
 5473SOL     OW21889   6.051   1.761   6.581  0.1834 -0.0507  0.6283
 5473SOL    HW121890   5.990   1.688   6.593  0.6355 -0.4623  0.4420
 5473SOL    HW221891   6.059   1.800   6.668 -0.5517  0.1749  0.6017
 5473SOL     MW21892   6.044   1.756   6.594  0.1453 -0.0757  0.5997
 5474SOL     OW21893   6.944   1.414   5.203  0.0121  0.3569  0.2158
 5474SOL    HW121894   6.990   1.433   5.122 -1.0849  0.1916 -0.4617
 5474SOL    HW221895   6.910   1.498   5.232  0.8329  0.5054  0.7978
 5474SOL     MW21896   6.946   1.428   5.196 -0.0251  0.3547  0.2029
 5475SOL     OW21897   4.547   1.477   4.043  0.2429 -0.4306  0.4810
 5475SOL    HW121898   4.475   1.536   4.065  0.1763  0.6594 -2.3729
 5475SOL    HW221899   4.625   1.520   4.078 -0.0695  0.1561  0.4607
 5475SOL     MW21900   4.548   1.491   4.051  0.1919 -0.2049  0.0942
 5476SOL     OW21901   6.512   9.865   5.434 -0.6060 -0.4045 -1.0816
 5476SOL    HW121902   6.518   9.959   5.450  0.1603 -0.7780  1.2421
 5476SOL    HW221903   6.601   9.839   5.410 -0.6261 -0.6296 -0.9237
 5476SOL     MW21904   6.525   9.874   5.433 -0.5056 -0.4851 -0.7476
 5477SOL     OW21905   6.077   0.872   3.775 -0.5929  0.0533  0.0751
 5477SOL    HW121906   6.122   0.854   3.692  2.6511  2.4509  1.1062
 5477SOL    HW221907   6.093   0.794   3.828  0.8849  0.1317 -0.2130
 5477SOL     MW21908   6.085   0.859   3.771  0.0425  0.3865  0.1751
 5478SOL     OW21909   6.290   9.501   9.519 -0.5237 -0.0452 -0.0011
 5478SOL    HW121910   6.238   9.444   9.462  0.9950 -2.4821  0.8690
 5478SOL    HW221911   6.378   9.496   9.482 -0.3165  1.7236  0.1854
 5478SOL     MW21912   6.295   9.493   9.506 -0.2915 -0.1351  0.1411
 5479SOL     OW21913   7.068   8.575   0.353 -0.1174  0.6223  0.1959
 5479SOL    HW121914   7.060   8.610   0.265  1.4611  0.9109  0.1433
 5479SOL    HW221915   7.097   8.485   0.341 -0.5669  0.4446  0.4147
 5479SOL     MW21916   7.071   8.568   0.340  0.0345  0.6373  0.2183
 5480SOL     OW21917   4.147   8.567   1.845  0.2902  0.1625  0.1600
 5480SOL    HW121918   4.220   8.611   1.803  0.4462 -0.4848 -0.2680
 5480SOL    HW221919   4.189   8.504   1.905  0.0755  0.5256  0.6996
 5480SOL     MW21920   4.163   8.564   1.848  0.2823  0.1242  0.1750
 5481SOL     OW21921   6.798   8.732   1.054  0.5091  0.8356 -0.2140
 5481SOL    HW121922   6.806   8.801   0.988  3.1972  1.8296  0.9742
 5481SOL    HW221923   6.874   8.745   1.111  0.2479 -2.1617  1.0137
 5481SOL     MW21924   6.809   8.743   1.053  0.8357  0.5660  0.1111
 5482SOL     OW21925   6.618   1.827   1.232 -0.0250 -0.8766  0.0929
 5482SOL    HW121926   6.680   1.856   1.166  1.0127  0.2938  1.5319
 5482SOL    HW221927   6.617   1.731   1.223  0.3312 -0.7754 -1.3554
 5482SOL     MW21928   6.626   1.818   1.222  0.1626 -0.7055  0.0916
 5483SOL     OW21929   7.198   0.424   3.370 -0.0621 -0.2755  0.5086
 5483SOL    HW121930   7.191   0.330   3.388 -2.4308 -0.2667  0.0080
 5483SOL    HW221931   7.138   0.438   3.296 -1.0197  1.8731  1.6037
 5483SOL     MW21932   7.189   0.413   3.362 -0.5097  0.0149  0.5886
 5484SOL     OW21933   6.329   7.920   8.824  0.3040 -0.0085 -0.0022
 5484SOL    HW121934   6.392   7.988   8.848 -0.1801  0.7830 -0.8677
 5484SOL    HW221935   6.358   7.890   8.738 -0.0517 -0.1926 -0.0588
 5484SOL     MW21936   6.341   7.925   8.816  0.1910  0.0733 -0.1263
 5485SOL     OW21937   6.883   0.305   9.291  0.5563 -0.0617  0.6077
 5485SOL    HW121938   6.949   0.250   9.249 -0.2099 -0.7523  0.2589
 5485SOL    HW221939   6.858   0.369   9.224  0.0710 -0.5210  0.3333
 5485SOL     MW21940   6.888   0.306   9.276  0.3879 -0.2164  0.5238
 5486SOL     OW21941   7.848  10.177   8.315 -0.0339  0.0678 -0.0629
 5486SOL    HW121942   7.907  10.148   8.245 -1.9232 -1.5113 -1.0875
 5486SOL    HW221943   7.857  10.110   8.383 -1.3955 -0.7799 -0.6858
 5486SOL     MW21944   7.858  10.164   8.315 -0.4714 -0.2588 -0.2846
 5487SOL     OW21945   5.032   1.562   7.250  0.3934 -0.5501  0.2495
 5487SOL    HW121946   5.079   1.498   7.197  1.3860  0.9928 -0.8277
 5487SOL    HW221947   5.000   1.627   7.187 -1.4235 -0.4547  1.1891
 5487SOL     MW21948   5.034   1.562   7.234  0.2825 -0.3296  0.2310
 5488SOL     OW21949   8.216   8.973   8.856  0.0705 -0.6495  0.4225
 5488SOL    HW121950   8.246   8.956   8.945 -0.9981 -0.5986  0.8137
 5488SOL    HW221951   8.121   8.980   8.864 -0.2779 -2.6148 -1.0196
 5488SOL     MW21952   8.207   8.971   8.869 -0.1202 -0.9071  0.2811
 5489SOL     OW21953   4.153   9.655   9.695 -0.0524 -0.0237 -0.2443
 5489SOL    HW121954   4.125   9.735   9.738  0.7855 -0.7863  1.8254
 5489SOL    HW221955   4.073   9.605   9.681 -0.4921  0.8423 -0.9057
 5489SOL     MW21956   4.139   9.659   9.699  0.0012 -0.0098 -0.0547
 5490SOL     OW21957   4.075  10.084   3.086 -0.3069  0.5279 -0.4202
 5490SOL    HW121958   4.124  10.064   3.166  0.8296  0.6126 -1.0583
 5490SOL    HW221959   3.986  10.101   3.115 -0.0462 -0.0094  0.7565
 5490SOL     MW21960   4.070  10.083   3.101 -0.1188  0.4670 -0.3477
 5491SOL     OW21961   4.885   0.288   5.992 -0.0926  0.3800  0.3617
 5491SOL    HW121962   4.809   0.322   5.945 -1.7792 -3.3268  0.0442
 5491SOL    HW221963   4.954   0.284   5.925 -0.9642 -0.1972 -0.5360
 5491SOL     MW21964   4.884   0.292   5.977 -0.4369 -0.1965  0.1982
 5492SOL     OW21965   6.502   0.856   0.850  0.4228  0.3370 -0.0752
 5492SOL    HW121966   6.544   0.834   0.933 -0.6205  0.0708  0.3913
 5492SOL    HW221967   6.498   0.773   0.802 -0.7157  0.1008  0.4109
 5492SOL     MW21968   6.507   0.842   0.855  0.1292  0.2693  0.0530
 5493SOL     OW21969   5.304  10.146   4.812  0.3326 -0.6004  0.2541
 5493SOL    HW121970   5.284  10.152   4.905  0.9599 -1.3886  0.4540
 5493SOL    HW221971   5.233  10.092   4.776  0.0950 -0.3026  0.2670
 5493SOL     MW21972   5.291  10.139   4.820  0.3850 -0.6664  0.2827
 5494SOL     OW21973   6.263   8.002   2.851 -0.3846  0.3905  0.4984
 5494SOL    HW121974   6.282   7.919   2.894  0.3086 -0.5650 -1.5351
 5494SOL    HW221975   6.188   7.984   2.794 -0.2553  1.1495  0.0642
 5494SOL     MW21976   6.255   7.989   2.849 -0.2739  0.3641  0.1663
 5495SOL     OW21977   5.845   1.189   8.644 -0.2145  0.5464  0.3050
 5495SOL    HW121978   5.864   1.164   8.735  0.9632  0.9116  0.1844
 5495SOL    HW221979   5.851   1.285   8.644 -1.6319  0.6473  0.1322
 5495SOL     MW21980   5.848   1.199   8.656 -0.2467  0.6091  0.2655
 5496SOL     OW21981   5.905   7.830   8.145 -0.0320  0.2610  0.9578
 5496SOL    HW121982   5.947   7.776   8.212  0.7836 -0.5393 -0.1591
 5496SOL    HW221983   5.830   7.778   8.115  1.2213 -0.7146 -0.6986
 5496SOL     MW21984   5.900   7.816   8.150  0.2464  0.0220  0.5846
 5497SOL     OW21985   4.149   9.056   6.827  0.3392  0.1288 -0.0124
 5497SOL    HW121986   4.114   8.992   6.765 -0.8048 -0.0952  0.8348
 5497SOL    HW221987   4.195   9.002   6.892 -1.2647  0.0472  1.1209
 5497SOL     MW21988   4.151   9.040   6.828 -0.0306  0.0876  0.2542
 5498SOL     OW21989   3.784   8.407   2.638 -0.0647 -0.6330 -0.0638
 5498SOL    HW121990   3.865   8.416   2.588 -1.2496  0.6796 -1.8961
 5498SOL    HW221991   3.741   8.330   2.601 -0.5761 -0.1300 -0.5330
 5498SOL     MW21992   3.789   8.398   2.626 -0.2930 -0.3887 -0.3736
 5499SOL     OW21993   5.751   8.861   3.231  0.1459 -0.4949 -0.0820
 5499SOL    HW121994   5.792   8.799   3.171  1.4051 -0.5957  0.8561
 5499SOL    HW221995   5.706   8.806   3.295  2.1453 -0.5215  1.3714
 5499SOL     MW21996   5.750   8.845   3.231  0.5844 -0.5120  0.2398
 5500SOL     OW21997   5.531   8.704   6.591 -0.1822 -0.4265  0.3006
 5500SOL    HW121998   5.463   8.771   6.584 -0.4630 -0.7203  0.2098
 5500SOL    HW221999   5.583   8.715   6.511 -0.5579 -0.6744  0.0153
 5500SOL     MW22000   5.529   8.714   6.579 -0.2706 -0.4994  0.2500
  10.15200  10.15200  10.15200
